# vtk DataFile Version 3.0
File Name: Molecule/sphere_cent/sphere_cent_0-s6.vtk
ASCII
DATASET UNSTRUCTURED_GRID
FIELD FieldData 1
TIME 1 1 double
0.0
POINTS 139 double
-0.00074363185558 0.85124343634 0.52475053072
-0.26023608446 0.51593917608 0.81388986111
0.3093983233 0.49996569753 0.80893337727
0.037900738418 0.023590575904 0.99711608887
0.51874107122 0.024957749993 0.85369193554
0.48201844096 0.79933863878 0.35479563475
0.7834738493 0.30774435401 0.53667193651
-0.85473018885 -0.51705431938 0.027076359838
-0.54105335474 -0.77580791712 0.31879678369
-0.80833947659 -0.30959454179 0.50067621469
-0.3484377861 -0.47502878308 0.80651819706
-0.54530352354 -0.014978908934 0.83728331327
-0.83938729763 0.2566267848 0.47769171
-0.99371671677 6.0433187173e-05 0.07121450454
-0.8531935215 0.51907342672 0.020627442747
0.50641387701 0.78595113754 -0.35447525978
0.27044734359 0.94838368893 -0.16563948989
0.52380347252 0.85181570053 -0.00064796808874
0.26794502139 0.94948679209 0.16348138452
0.0011862326646 0.9998576045 -0.00036922015715
0.0091445026919 0.8566557765 -0.51420503855
-0.26579466462 0.95107591152 0.15747191012
-0.50034159422 0.80847722292 0.30938500166
-0.26922875643 0.94851619005 -0.1664390713
-0.52564001083 0.85054981709 -0.0076252808794
-0.51106828451 0.79004752636 -0.33840423822
-0.42513012886 0.68473130465 0.5919560194
-0.69153523445 0.58060151339 0.42951029539
-0.58834445477 0.42208361626 0.68943542242
-0.52801221609 -0.84905028343 -0.0017254654085
-0.49756094813 -0.80200028419 -0.32970869541
-0.26865211129 -0.94956314564 -0.1618065387
-0.27007374167 -0.94847071171 0.16543205082
-0.00019463873468 -0.99986964464 9.0341796749e-05
-0.022529007867 -0.85266286135 -0.51909446716
0.014718225226 -0.85804563761 0.51109683514
0.26934310794 -0.94870913029 -0.1655972749
0.5103572011 -0.79013884068 -0.33909270167
0.52475357056 -0.85122787952 0.00061199214542
0.27097147703 -0.94838815928 0.16502264142
0.50703895092 -0.7858492732 0.3537530005
0.8030500412 -0.32636734843 -0.49837204814
0.854139328 -1.4922050468e-05 -0.51994049549
0.94244897366 -0.17913424969 -0.28009474277
0.8035326004 0.32589885592 -0.49786055088
0.94239044189 0.17856246233 -0.28054228425
-0.16129112244 -0.26042184234 0.95183181763
-0.0018013642402 -0.52412116528 0.85161012411
0.16434021294 -0.26501962543 0.950070858
0.31615966558 -0.52244842052 0.79186081886
0.49193456769 0.00036286487011 -0.86816096306
0.16532161832 -0.26292812824 -0.95016229153
0.098163284361 0.11610227078 -0.98504412174
0.31735047698 -0.51189279556 -0.79816991091
0.0015126280487 -0.52556037903 -0.85076630116
-0.1670614779 -0.26188445091 -0.95004290342
-0.31132435799 -0.50888609886 -0.80221354961
-0.012603744864 -0.025133239105 -0.99680566788
-0.099117398262 0.11704272777 -0.98471915722
0.94270610809 0.17826573551 0.27887716889
0.8501714468 -0.0028121760115 0.52640581131
0.94218969345 -0.18003974855 0.27885758877
0.80337941647 -0.32719033957 0.49742898345
-0.80288529396 -0.31765207648 -0.50437045097
-0.9435262084 -0.17679020762 -0.27473780513
-0.85405373573 0.00059883325594 -0.52008032799
-0.9443898201 0.17526321113 -0.27363333106
-0.80310660601 0.32560044527 -0.49882146716
-0.1803650558 0.28246706724 -0.94096171856
-0.31754523516 0.51239520311 -0.79786932468
-5.0841954362e-05 0.52480268478 -0.85118931532
0.18008457124 0.28259593248 -0.94103163481
0.31619858742 0.52191835642 -0.79211652279
0.68713802099 0.16180069745 -0.70818394423
0.58868563175 0.43778401613 -0.67947620153
0.45228895545 0.2746207118 -0.84846514463
-0.14200049639 0.2694671452 0.95205968618
-0.40515911579 0.25552549958 0.87779349089
-0.26633042097 0.026956286281 0.9634321332
0.45370534062 -0.27339014411 0.84806263447
0.68299204111 -0.18568578362 0.70641326904
0.58793765306 -0.44073215127 0.67805677652
0.86370885372 0.49815508723 -0.0066753206775
0.70832836628 0.6839196682 0.17360399663
0.848967731 0.4520136714 0.27427196503
0.67949694395 0.58383965492 0.44371646643
-0.45246419311 0.27453002334 -0.84840226173
-0.58837044239 0.43718713522 -0.68012702465
-0.68713575602 0.16150262952 -0.70826429129
-0.49163150787 0.003103899071 -0.86875873804
-0.4413651526 -0.67427647114 0.59171622992
-0.27534332871 -0.84582722187 0.45703497529
-0.17714606225 -0.70607000589 0.68537557125
-0.45133894682 -0.27225959301 -0.84991675615
-0.68647807837 -0.16076783836 -0.70901376009
-0.58820742369 -0.4369007647 -0.68049919605
-0.43581518531 -0.67818653584 -0.59169757366
-0.67968845367 -0.58410930634 -0.44352775812
-0.84828341007 -0.45412498713 -0.27243182063
-0.70825207233 -0.67990732193 -0.18962034583
0.68708831072 -0.16171331704 -0.7082195878
0.45118638873 -0.27332434058 -0.84968984127
0.5887311697 -0.43732845783 -0.67974412441
0.71015238762 0.68103533983 -0.17716266215
0.17001199722 -0.71460932493 0.67830014229
0.85057270527 0.45102241635 -0.27076324821
0.68832838535 0.57966852188 -0.43574357033
0.68866407871 -0.57976961136 0.4351079464
0.85057002306 -0.45349478722 0.26657065749
0.71004462242 -0.68239164352 0.17262126505
0.86110156775 -0.50261104107 2.4397679226e-05
-0.16879954934 0.71090996265 -0.68248695135
-0.27274167538 0.84563779831 -0.45890808105
-0.43752250075 0.67608517408 -0.59277760983
-0.68254959583 0.58226674795 -0.44146940112
-0.71035027504 0.67814475298 -0.18858659267
-0.8508541584 0.45339721441 -0.26579836011
0.8505961895 -0.45318025351 -0.26711255312
0.68194907904 -0.58329677582 -0.44115424156
0.71037858725 -0.68214643002 -0.17217344046
0.43692734838 -0.67621713877 -0.59297436476
0.17742554843 -0.71056419611 -0.6810323
0.27160230279 -0.84577262402 -0.4594860673
0.1669691354 0.71399474144 -0.67973166704
0.42957827449 0.67906135321 -0.59507679939
0.42974233627 -0.67935246229 0.59463876486
0.27157172561 0.84581869841 -0.45928442478
0.27490779757 -0.84581172466 0.45733126998
0.98723644018 -0.088817998767 -0.12192716449
0.98737037182 -0.087881654501 0.12323141843
0.9623965621 -0.0005534052616 -0.27162024379
0.98703658581 0.089441888034 -0.12235146761
0.99930882454 0.0057028997689 -5.1698065363e-05
0.98724585772 0.088536813855 0.12354975939
0.9625723958 -0.00019186679856 0.2709531188
-0.96410000324 -0.0003835784446 -0.26545128226
-0.98969179392 -0.085573799908 -0.11169783771
-0.98982620239 0.084542527795 -0.11171618849
-4.329962394e-05 0.27124649286 -0.96251374483

CELLS 274 1096
3 0 1 2
3 2 3 4
3 5 0 2
3 6 2 4
3 7 8 9
3 9 10 11
3 11 12 9
3 12 13 9
3 12 14 13
3 9 13 7
3 15 16 17
3 16 18 17
3 16 19 18
3 17 18 5
3 19 16 20
3 5 18 0
3 18 19 0
3 19 21 0
3 0 21 22
3 19 23 21
3 23 24 21
3 23 25 24
3 21 24 22
3 20 23 19
3 22 24 14
3 22 26 0
3 0 26 1
3 22 27 26
3 27 28 26
3 27 12 28
3 26 28 1
3 12 27 14
3 14 27 22
3 28 12 11
3 7 29 8
3 30 31 29
3 31 32 29
3 31 33 32
3 29 32 8
3 33 31 34
3 34 31 30
3 32 33 35
3 34 36 33
3 37 38 36
3 38 39 36
3 38 40 39
3 36 39 33
3 33 39 35
3 41 42 43
3 42 44 45
3 10 46 11
3 10 47 46
3 47 48 46
3 47 49 48
3 46 48 3
3 3 48 4
3 50 51 52
3 53 54 51
3 54 55 51
3 54 56 55
3 51 55 57
3 56 54 34
3 57 55 58
3 59 6 60
3 61 60 62
3 60 6 4
3 63 64 65
3 65 66 67
3 68 69 70
3 71 70 72
3 44 73 74
3 73 75 74
3 73 50 75
3 74 75 72
3 1 76 2
3 76 3 2
3 1 77 76
3 77 78 76
3 77 11 78
3 76 78 3
3 4 79 80
3 79 81 80
3 79 49 81
3 80 81 62
3 82 83 84
3 83 85 84
3 83 5 85
3 84 85 6
3 6 85 2
3 2 85 5
3 69 86 87
3 86 88 87
3 86 89 88
3 87 88 67
3 8 90 9
3 90 10 9
3 8 91 90
3 91 92 90
3 91 35 92
3 90 92 10
3 89 93 94
3 93 95 94
3 93 56 95
3 94 95 63
3 56 96 95
3 96 97 95
3 96 30 97
3 95 97 63
3 30 96 34
3 34 96 56
3 63 97 98
3 97 99 98
3 97 30 99
3 98 99 7
3 50 100 101
3 100 102 101
3 100 41 102
3 101 102 53
3 5 83 17
3 17 83 103
3 11 77 28
3 28 77 1
3 7 99 29
3 29 99 30
3 35 91 32
3 32 91 8
3 50 73 100
3 42 73 44
3 41 100 42
3 42 100 73
3 3 78 46
3 46 78 11
3 10 92 47
3 47 92 104
3 49 79 48
3 48 79 4
3 50 101 51
3 51 101 53
3 56 93 55
3 55 93 89
3 82 84 59
3 59 84 6
3 4 80 60
3 60 80 62
3 89 94 88
3 65 94 63
3 67 88 65
3 65 88 94
3 63 98 64
3 64 98 7
3 72 75 71
3 71 75 50
3 89 86 68
3 68 86 69
3 82 105 103
3 105 106 103
3 105 44 106
3 103 106 15
3 62 107 108
3 107 109 108
3 107 40 109
3 108 109 110
3 20 111 112
3 111 113 112
3 111 69 113
3 112 113 25
3 25 114 115
3 114 116 115
3 114 67 116
3 115 116 14
3 41 117 118
3 117 119 118
3 117 110 119
3 118 119 37
3 53 120 121
3 120 122 121
3 120 37 122
3 121 122 34
3 82 103 83
3 17 103 15
3 20 112 23
3 23 112 25
3 25 115 24
3 24 115 14
3 34 122 36
3 36 122 37
3 110 109 119
3 38 109 40
3 37 119 38
3 38 119 109
3 110 117 43
3 43 117 41
3 44 105 45
3 45 105 82
3 53 121 54
3 54 121 34
3 62 108 61
3 61 108 110
3 14 116 66
3 66 116 67
3 69 111 70
3 70 111 123
3 15 106 124
3 74 106 44
3 40 107 125
3 81 107 62
3 25 113 114
3 87 113 69
3 67 114 87
3 87 114 113
3 37 120 118
3 102 120 53
3 41 118 102
3 102 118 120
3 15 124 126
3 124 123 126
3 124 72 123
3 126 123 20
3 49 104 125
3 104 127 125
3 104 35 127
3 125 127 40
3 15 126 16
3 16 126 20
3 40 127 39
3 39 127 35
3 43 128 110
3 110 128 129
3 45 130 42
3 42 130 43
3 43 130 128
3 130 131 128
3 130 45 131
3 128 131 132
3 132 131 133
3 131 45 82
3 35 104 92
3 47 104 49
3 132 129 128
3 129 61 110
3 132 133 129
3 133 134 129
3 133 59 134
3 129 134 61
3 61 134 60
3 60 134 59
3 59 133 82
3 82 133 131
3 64 135 65
3 135 66 65
3 64 136 135
3 136 137 135
3 136 13 137
3 135 137 66
3 13 136 7
3 136 64 7
3 66 137 14
3 137 13 14
3 57 52 51
3 52 71 50
3 57 58 52
3 58 138 52
3 58 68 138
3 52 138 71
3 71 138 70
3 70 138 68
3 68 58 89
3 89 58 55
3 20 123 111
3 70 123 72
3 72 124 74
3 74 124 106
3 49 125 81
3 81 125 107

CELL_TYPES 274
5
5
5
5
5
5
5
5
5
5
5
5
5
5
5
5
5
5
5
5
5
5
5
5
5
5
5
5
5
5
5
5
5
5
5
5
5
5
5
5
5
5
5
5
5
5
5
5
5
5
5
5
5
5
5
5
5
5
5
5
5
5
5
5
5
5
5
5
5
5
5
5
5
5
5
5
5
5
5
5
5
5
5
5
5
5
5
5
5
5
5
5
5
5
5
5
5
5
5
5
5
5
5
5
5
5
5
5
5
5
5
5
5
5
5
5
5
5
5
5
5
5
5
5
5
5
5
5
5
5
5
5
5
5
5
5
5
5
5
5
5
5
5
5
5
5
5
5
5
5
5
5
5
5
5
5
5
5
5
5
5
5
5
5
5
5
5
5
5
5
5
5
5
5
5
5
5
5
5
5
5
5
5
5
5
5
5
5
5
5
5
5
5
5
5
5
5
5
5
5
5
5
5
5
5
5
5
5
5
5
5
5
5
5
5
5
5
5
5
5
5
5
5
5
5
5
5
5
5
5
5
5
5
5
5
5
5
5
5
5
5
5
5
5
5
5
5
5
5
5
5
5
5
5
5
5
5
5
5
5
5
5
5
5
5
5
5
5
5
5
5
5
5
5

CELL_DATA 274
SCALARS cell_data_0 double
LOOKUP_TABLE default
1.63921140423e-07
1.53620816556e-07
1.72691064141e-07
1.4968518327e-07
1.24411133079e-07
1.54620213841e-07
8.05668176401e-09
1.27348873348e-07
2.42863193898e-07
5.45558100634e-08
6.70998550394e-08
1.68742800989e-08
3.16108018026e-07
7.68655280479e-08
2.439942511e-07
1.25522781077e-07
1.39495795063e-07
1.37820322336e-07
1.18760449864e-07
3.26769740529e-07
4.62197615846e-08
3.41408267652e-08
3.18614856839e-07
2.64909490337e-07
2.99143471386e-07
1.5690078983e-07
1.6835675806e-07
2.48918975896e-07
9.54339544837e-08
2.66775403638e-07
7.76703314252e-08
8.06135641711e-08
1.12408384849e-07
1.22130375002e-07
5.72385213343e-08
9.02198031659e-08
5.47364815011e-08
3.3007648545e-07
1.30425765386e-07
8.50866300586e-08
8.06991981841e-08
2.73275175052e-07
2.67414573376e-07
5.09159022291e-08
3.48299479315e-08
6.83642691954e-08
3.65462695818e-07
2.46685750759e-07
4.92949577722e-08
4.23254554802e-08
5.59221580218e-08
1.30415829244e-07
2.29976791832e-08
4.98025646774e-08
1.33221144982e-07
3.3593076117e-08
3.26262724777e-07
1.34980095043e-09
4.21576122364e-08
1.85859517718e-07
1.90076484214e-08
3.17601500263e-07
8.88153318896e-08
1.21476285597e-07
5.11282030508e-08
5.94545075006e-09
3.77409664252e-08
4.59351157884e-08
4.49549061274e-08
4.75819846832e-08
4.30555905239e-10
1.37389959728e-08
7.57847672395e-08
3.20273843938e-10
9.60074585655e-09
3.03939898748e-08
1.67101680966e-07
8.30611776784e-08
1.11382509767e-07
1.80703564608e-07
1.71853870141e-07
3.5386569759e-08
8.72541823799e-09
7.70399268764e-09
4.18107037441e-08
5.72604989866e-08
1.90219681215e-07
1.82636455827e-07
7.97695327656e-08
2.5552706038e-08
2.93450578604e-09
2.52652689217e-08
7.94403238448e-08
9.45902188106e-10
5.51693359787e-08
4.21457241564e-08
1.82604704182e-07
5.56176728638e-08
4.8163221856e-08
1.9906079956e-07
6.28834406778e-08
5.03455249094e-08
1.00214757892e-08
3.13272962634e-09
1.41194504351e-07
1.59950210002e-08
1.36082045766e-07
3.6499598291e-08
8.33997637614e-08
6.99876934863e-08
2.1230458877e-08
6.31720098913e-08
4.17507307394e-09
1.68471207396e-07
6.24314793358e-08
2.59498995568e-08
6.26171746371e-10
1.59473126223e-09
7.80265791533e-09
5.60983391473e-08
2.24891797713e-08
3.45923340827e-08
1.62759117349e-08
1.76237607384e-08
8.71629148872e-09
1.56649127192e-09
1.02288948702e-08
1.08452392653e-09
5.67789104934e-09
7.31782708613e-09
9.97023839584e-09
4.45701577751e-08
5.36848085973e-09
1.22043063391e-07
1.27412965668e-09
1.34412832538e-09
6.71590531203e-08
3.72472453844e-08
5.60583521288e-08
3.59803765047e-08
4.72895419417e-08
2.50179662736e-08
5.04578304538e-09
1.22084759439e-08
1.8241272033e-09
1.8275580127e-08
1.66453635265e-09
1.97481477563e-08
5.72608616182e-08
3.15734794355e-09
2.95741610058e-08
5.51684502141e-09
1.07050331228e-08
3.60055714255e-08
9.94743515361e-08
2.54968817205e-08
5.40921669262e-09
4.00345483414e-08
1.05457269925e-08
2.82550484923e-08
3.40435964459e-08
9.07590855245e-08
1.04376704677e-07
4.3383896656e-08
7.39132494729e-09
1.58169698241e-08
1.00271515697e-08
6.99420851046e-08
1.48568659512e-08
1.66173468389e-07
4.79478240299e-09
3.30889120712e-08
9.68481903598e-08
2.31668483454e-08
8.21961559575e-09
6.44671139279e-08
5.76032112713e-09
1.72309921671e-07
3.92440586314e-08
2.01948298913e-08
3.49068880069e-08
2.49681476149e-08
1.16263254073e-08
3.14055514002e-08
4.59127146537e-08
1.83536487043e-08
2.2097309601e-08
7.09507303087e-09
4.56244046658e-09
3.30402084047e-08
1.43407707684e-08
6.2705459579e-08
5.05530551319e-08
1.79972414971e-08
2.24777699071e-08
3.66367375001e-08
5.80579361858e-08
2.35590136401e-08
5.92839920399e-09
5.01500178217e-08
2.74491970077e-08
8.56252650591e-08
2.23809881768e-09
4.8600324067e-10
6.56468783751e-09
2.05946844061e-09
2.64969822253e-09
1.33433812033e-08
4.68945394543e-09
4.48076033817e-09
3.02458541496e-09
1.0389187333e-08
7.52080525292e-09
2.62514020613e-09
3.37871446136e-08
6.29323487395e-08
2.04028695567e-08
1.06745981249e-07
3.61222328921e-08
6.12128595892e-08
1.26510525776e-07
2.70499977101e-08
2.2133326119e-08
4.50815453899e-08
7.76821968549e-09
4.30348689427e-08
9.56986737659e-08
1.5285176368e-07
2.71806457316e-08
2.57074237037e-08
1.17676986346e-07
2.20517166242e-08
1.03637462591e-07
6.50029384388e-09
6.29596816181e-08
8.55085858019e-08
4.44231433317e-09
7.57161725318e-09
6.08352959286e-08
9.50499499287e-08
1.37134238112e-08
2.30708989522e-08
1.07853258838e-07
1.14548001096e-07
3.81745384194e-08
6.32690021801e-08
9.66088185043e-08
1.39800912353e-07
1.29589715766e-08
4.59106365103e-09
8.76940477235e-08
4.68594438226e-08
2.70679787297e-07
9.00007585674e-08
1.58498376365e-08
1.55001775785e-07
1.73314846038e-07
2.43122002697e-08
7.12949840269e-08
3.38645040775e-08
1.07580278205e-07
1.42635087012e-08
1.02940231186e-07
1.05779620399e-07
3.54877018577e-08
3.87277754355e-08
1.79318533526e-08
3.52125918802e-07
1.95548022058e-08
2.11818602172e-08
2.39017719964e-10
3.79137749774e-08
5.30043027418e-09
3.53236592618e-08

