# vtk DataFile Version 3.0
File Name: Molecule/sphere_cent/sphere_cent_0-s15.vtk
ASCII
DATASET UNSTRUCTURED_GRID
FIELD FieldData 1
TIME 1 1 double
0.0
POINTS 382 double
0.51131272316 0.79701685905 -0.32124498487
0.30866143107 0.9341815114 -0.17479249835
0.52538317442 0.85080832243 0.0030208246317
0.29705455899 0.93763262033 0.17373171449
0.49780228734 0.80591708422 0.32005754113
-0.42091137171 0.6744171381 0.60604470968
-0.50274145603 0.49516934156 0.7078332305
-0.29785329103 0.53039807081 0.79322421551
-0.51441895962 -0.81133383512 -0.27782309055
-0.31789213419 -0.92543262243 -0.20592713356
-0.48129928112 -0.87505501509 -0.043725866824
0.52050226927 -0.78846013546 -0.32732871175
0.5239008069 -0.84793913364 -0.039830587804
0.34124517441 -0.91117757559 -0.23029559851
0.1678314954 -0.2515309453 0.95222812891
0.047048263252 -0.030665829778 0.99815237522
0.034335769713 -0.31825262308 0.94646751881
0.063518151641 -0.51304829121 -0.85597670078
-0.14224345982 -0.30493849516 -0.94081610441
0.15026432276 -0.28580662608 -0.94566804171
-0.00063013838371 -0.088862404227 -0.99594300985
0.91244989634 -0.23930346966 0.33047181368
0.85728365183 -0.059198092669 0.51108002663
0.79069364071 -0.33678868413 0.51120764017
-0.85255259275 0.0061149694957 -0.52261561155
-0.92107999325 0.21691657603 -0.32320526242
-0.79441565275 0.32270655036 -0.51457852125
-0.21610601246 0.31772884727 -0.92323344946
-0.32171133161 0.51532864571 -0.79432320595
-0.00073673803126 0.52221035957 -0.85277312994
0.21444532275 0.31869775057 -0.92328727245
0.31992453337 0.51709961891 -0.79388916492
0.76678270102 0.31650331616 -0.55783969164
0.68251991272 0.15174236894 -0.7149335146
0.58606338501 0.44195106626 -0.67917180061
0.45905575156 0.27030912042 -0.84629100561
0.51829725504 0.001093139872 -0.85520780087
0.53604179621 0.00085014523938 0.84410941601
0.44972708821 -0.26072248816 0.85418987274
0.67634946108 -0.20162332058 0.70842897892
0.58306765556 -0.44926565886 0.67688465118
0.32565402985 -0.51322692633 0.79248416424
-0.46021160483 0.26894202828 -0.84610170126
-0.5893329978 0.43963617086 -0.67778897285
-0.68429893255 0.15472894907 -0.71258509159
-0.51885199547 0.00038090249291 -0.85487663746
-0.52485835552 -0.77679795027 0.34746971726
-0.31556874514 -0.81945049763 0.47769227624
-0.46671611071 -0.69290107489 0.5493490696
-0.47720709443 -0.26405140758 -0.83709806204
-0.68379712105 -0.14987924695 -0.71408301592
-0.59313285351 -0.43353584409 -0.67841351032
-0.77559059858 -0.31390526891 -0.54553735256
-0.35464656353 -0.50994127989 -0.78288310766
-0.44558122754 -0.63660752773 -0.62916976213
-0.66855043173 -0.58763837814 -0.45576092601
-0.6835539937 -0.69387292862 -0.22603338957
0.68367195129 -0.15314950049 -0.71353745461
0.47433397174 -0.2665707767 -0.83795255423
0.58970910311 -0.4403501749 -0.67700135708
0.76856613159 -0.3173673749 -0.55461442471
0.7038436532 0.69222044945 0.15278363228
-0.63908606768 -0.76633256674 -0.057758666575
-0.36941316724 -0.89336305857 0.25320905447
0.85492527485 -0.00034317778773 -0.5187304616
-0.19043140113 0.020921025425 0.98131251335
-0.12602137029 -0.21620558202 0.9676579833
0.29325070977 -0.0058673862368 0.95591169596
0.89919549227 0.25991481543 0.3499750793
0.84070813656 0.45385837555 0.29313445091
0.76560407877 0.36999928951 0.52438646555
0.31532615423 0.098228126764 -0.9438919425
-0.31679111719 0.097185127437 -0.94350969791
0.82034409046 0.49508327246 -0.28428250551
0.67321568727 0.58909410238 -0.4469332993
0.71243107319 0.67958796024 -0.16970412433
0.67420172691 -0.58780491352 0.44705155492
0.83272457123 -0.47284892201 0.28742203116
0.70937329531 -0.67804503441 0.18785214424
0.52579540014 -0.77076029778 0.35856258869
0.00079723249655 0.85329002142 -0.52142167091
-0.15514656901 0.71237796545 -0.68439495564
-0.26442974806 0.8433868289 -0.46779507399
-0.44108891487 0.67454642057 -0.59196192026
-0.5071760416 0.79687309265 -0.3282943964
-0.67655336857 0.5845990181 -0.44779020548
-0.71855354309 0.6702414155 -0.18564520776
-0.84712010622 0.45754569769 -0.27035343647
-0.86052912474 0.50930196047 0.0066491304897
0.67580497265 -0.58675992489 -0.4460093677
0.69527101517 -0.69687312841 -0.1733995229
0.32508057356 -0.51983529329 -0.78874689341
0.44975861907 -0.66947358847 -0.5911411643
0.19975547493 -0.6846306324 -0.70087760687
0.33432120085 -0.82629805803 -0.45180702209
-0.081011325121 0.94287270308 -0.32319170237
-0.27450558543 0.93026214838 -0.24331738055
-0.57759976387 0.8146212697 -0.052230261266
-0.71474057436 0.69596749544 0.069308646023
-0.94442373514 0.31255185604 -0.10222494602
0.15397185087 0.7132486701 -0.68375658989
0.44125542045 0.67343872786 -0.59306848049
0.44068512321 -0.6708214283 0.59647423029
0.28247484565 0.83824288845 -0.46635678411
0.17038020492 -0.71203392744 0.6800916791
0.29870837927 -0.82483625412 0.47945433855
0.99973213673 0.005967178382 0.018022675067
0.98717230558 0.13154146075 -0.086566358805
0.987590909 0.12920691073 0.088272280991
0.98670274019 -0.10679380596 0.12122423947
0.98168605566 0.045933254063 0.18471597135
0.95436537266 -0.048225242645 0.29314813018
-0.91027617455 -0.18617716432 -0.36572411656
-0.95492565632 -0.0096967620775 -0.29650813341
-0.97795701027 0.1340456605 -0.16062577069
-0.10603166372 0.11787410825 -0.98734951019
0.10347034782 0.11822171509 -0.98757869005
-0.00091263011564 0.28914257884 -0.95727711916
-0.24481879175 0.95589292049 0.16229428351
-0.35415840149 0.88492953777 0.30188906193
-0.090884119272 0.95147162676 0.29372295737
0.080986395478 0.99611544609 -0.0065584587865
-0.099700152874 0.98844331503 -0.11403220892
-0.088168591261 0.99214231968 0.08863954246
-0.25913861394 0.96561580896 -0.019143873826
-0.4131193459 0.90385651588 -0.11085994542
-0.4072689414 0.90972882509 0.080753162503
-0.5481762886 0.81880921125 0.17050306499
-0.51743525267 0.77684551477 0.35703879595
-0.29278132319 -0.95536142588 -0.034047983587
-0.11615915596 -0.98791849613 -0.10222150385
-0.005754634738 -0.99977916479 0.014119670726
-0.18757340312 -0.98091489077 0.05015302822
0.099667325616 -0.99085944891 -0.090127930045
0.30252936482 -0.95234000683 -0.029667522758
0.071837082505 -0.98827052116 0.13489665091
0.18231298029 -0.98180323839 0.052131943405
-0.088881134987 -0.98669654131 0.13465158641
0.34181928635 -0.1166009903 -0.93252265453
0.18059998751 -0.058433048427 -0.98181676865
-0.1817805171 -0.060604821891 -0.9814723134
-0.34357699752 -0.11966785043 -0.93151068687
0.27107948065 0.8392432332 0.4709199369
0.46348291636 0.69612497091 0.54798281193
-0.94916605949 0.13855901361 0.28239047527
-0.97433030605 -0.056390132755 0.21790808439
-0.88283729553 -0.033445309848 0.46807581186
-0.86697626114 0.21466425061 0.44921651483
-0.88874298334 0.37165856361 0.26823940873
-0.95394575596 0.28241145611 0.10117181391
-0.99440521002 0.096816457808 0.041137818247
0.069710314274 0.98002517223 -0.18628296256
-0.64029705524 0.5099838376 0.57427215576
-0.55498969555 0.64907109737 0.51921516657
-0.67235887051 0.61196398735 0.41526374221
-0.78399646282 0.43865171075 0.43921965361
-0.7131139636 0.3761921227 0.59150117636
-0.78833800554 0.56580626965 0.24159793556
-0.65883338451 0.70617038012 0.25942018628
-0.14523658156 -0.54343754053 -0.8267737627
-0.23167034984 -0.66544753313 -0.70943588018
-0.025215033442 -0.69477546215 -0.71840131283
0.65767431259 0.61280590296 0.43622756004
0.12469243258 0.92971909046 -0.34656611085
-0.96169245243 -0.2008896172 -0.18532915413
-0.99145907164 -0.011931422167 -0.12908361852
-0.99838173389 -0.052105136216 -0.021029716358
-0.066372968256 0.86895024776 0.49013930559
0.10226421058 0.92959558964 0.35377135873
0.071935020387 0.98174011707 0.17597335577
-0.31373849511 -0.85777038336 -0.40687459707
0.041492328048 0.52073103189 0.85259723663
-0.097684286535 0.64173042774 0.75946545601
-0.15962712467 0.41825798154 0.89400666952
0.13903343678 0.35947147012 0.92263442278
-0.021768471226 0.32005622983 0.94713491201
0.3055895865 0.4414767921 0.8435960412
-0.18029972911 0.23589128256 0.95489025116
-0.33257240057 0.2918099165 0.89662206173
0.54021215439 0.39949774742 0.73962825537
0.41404891014 0.5655348897 0.71325594187
0.59300577641 0.53103399277 0.60531514883
-0.45765697956 -0.75339269638 -0.4720505178
-0.27958330512 -0.77718168497 -0.56298094988
0.22177392244 0.60118353367 0.7677295208
0.037782780826 0.68780356646 0.72470241785
0.15659359097 0.72603273392 0.66892921925
0.30844521523 0.69735872746 0.64673614502
0.061359889805 0.81347161531 0.57771003246
0.11883227527 0.18034246564 0.97609305382
0.28629285097 0.23956860602 0.92770093679
0.81960898638 0.15638238192 0.55100035667
0.93331956863 0.099740542471 0.34351074696
0.71838051081 0.016715001315 0.69528967142
0.67453891039 0.18606902659 0.71371752024
-0.3232395649 0.13337261975 0.93685370684
-0.4786336422 0.12793451548 0.86855274439
-0.39110034704 -0.012986841612 0.92013287544
-0.54594695568 -0.066454619169 0.83501046896
-0.045553702861 0.14724962413 0.98798859119
-0.1281991601 -0.73128753901 0.66898196936
-0.31897383928 -0.69708096981 0.64214885235
-0.44754049182 -0.59426361322 0.6680533886
-0.22360984981 -0.61043727398 0.7594447732
-0.78662914038 -0.5670208931 -0.24414944649
-0.8411256671 -0.4251858294 -0.33237946033
-0.75098848343 -0.65466868877 -0.086684621871
-0.64133137465 0.035611316562 0.76624935865
-0.47622689605 0.34606468678 0.80833369493
-0.58659493923 0.22107689083 0.77904105186
-0.61129367352 0.37049713731 0.69933581352
-0.0051382919773 -0.54305052757 0.83686685562
-0.6892991662 0.14649625123 0.70910966396
-0.69998157024 0.2613838017 0.66461378336
-0.59551370144 -0.33798342943 0.72861385345
-0.49352252483 -0.25641462207 0.83084064722
-0.67718476057 -0.1912356168 0.7104305625
-0.34637990594 -0.38446003199 0.85561990738
-0.4681815505 -0.4588856101 0.75487172604
-0.78987199068 0.12775330245 0.59924089909
-0.77147471905 -0.056756105274 0.63362044096
-0.82434797287 -0.28714776039 0.48686274886
-0.53954285383 -0.82978153229 0.14143243432
-0.69621199369 -0.71432757378 0.069286510348
-0.34101378918 -0.93426978588 0.1014360562
[...]
CELL_DATA 760
SCALARS cell_data_0 double
LOOKUP_TABLE default
2.22458723536e-08
1.26354678159e-08
1.4306520322e-08
4.33932300986e-09
1.93867344681e-08
3.30218435146e-10
5.07104088064e-08
2.45431261348e-08
4.89614148659e-09
2.87720226372e-08
3.76942697009e-08
3.56745475953e-08
5.31879075738e-08
2.63989489539e-08
2.76682825882e-09
4.43401608201e-09
7.69122696945e-09
3.00699479877e-08
4.01535834412e-08
2.82962377489e-08
1.08530075047e-08
4.73362006285e-09
2.96841404595e-09
6.86343805453e-09
1.51033799141e-08
2.95737359573e-09
3.95717649182e-08
4.39101421592e-08
1.09627613672e-08
4.72302537297e-09
1.58513632917e-08
3.35741366373e-08
1.53415243947e-09
4.15648292988e-08
5.4211161745e-08
5.54100585626e-08
1.30042110041e-08
2.54975480401e-08
1.61060905166e-08
1.48759859048e-08
2.01490886552e-08
1.35836899047e-08
2.47597744601e-08
6.49427142593e-08
2.67196480008e-08
3.97619433538e-08
7.78803158866e-09
2.75307326716e-08
2.45176816728e-09
8.71668528129e-10
2.61687484279e-08
6.90853727206e-09
9.81959568855e-09
2.74638603122e-08
1.84254955553e-08
1.99770303044e-08
1.70366221556e-08
1.29248900251e-08
1.96627051939e-08
7.38912193614e-09
4.22421236313e-09
1.56195611744e-08
6.25945456117e-09
5.43148085738e-09
2.70425654746e-08
2.18817323416e-08
2.33727423362e-08
3.84266006041e-09
9.90151164908e-09
1.06030741986e-08
3.81749661196e-08
2.16402850058e-08
1.67270997487e-08
1.38331508317e-08
2.63284381986e-08
3.03364245754e-08
5.82567558916e-09
1.05286378525e-08
1.33326142881e-09
7.09542771368e-09
2.69984496955e-08
1.73783983321e-09
6.20404879133e-09
1.58730027012e-08
2.86605798445e-08
5.06353538685e-09
1.72980049421e-08
1.24637107377e-08
5.38139361099e-09
2.08368865525e-09
1.27758101613e-08
1.24952912015e-08
4.27896070889e-08
2.87139101846e-08
3.10680494983e-08
2.85600043219e-08
2.13395030258e-09
9.20367844238e-09
1.97488543286e-08
3.20700447351e-08
7.57157391862e-09
6.35067109042e-09
5.01539614451e-09
2.30593131334e-09
1.11322698737e-08
2.19155304948e-08
1.01495393969e-08
5.59104946279e-09
6.25698671301e-09
3.32504652692e-08
1.03401980671e-08
1.06294562359e-08
1.1017004929e-08
2.82061393781e-09
9.64054523974e-09
7.58789600667e-09
3.20826361726e-09
3.03911272819e-09
1.23913838403e-08
1.29149550099e-08
5.14582082519e-09
2.07272143387e-08
1.58213731504e-08
2.96469318063e-09
1.00276755112e-08
1.53255315252e-09
1.22106773711e-08
5.43971673047e-09
9.7667896677e-09
4.62191999745e-09
6.513052269e-10
2.18854070291e-09
9.29588370761e-09
8.25584195879e-09
7.37431814052e-11
1.04237413722e-08
1.02975333262e-08
1.0222762371e-08
3.18930954007e-09
7.49204420622e-09
3.08892507137e-08
3.7146480665e-09
2.75806415503e-09
1.10368237682e-08
1.45797950018e-08
1.9530338351e-08
4.33568019737e-10
1.61729016287e-08
1.87193249692e-08
1.14657565077e-08
5.65411992253e-09
1.42379525716e-08
1.77377783819e-08
2.1085147753e-09
1.11765028057e-08
1.0691008068e-08
5.48938172138e-09
1.03803690642e-08
2.0713789003e-08
3.74394539181e-11
2.56306441527e-08
1.73695719401e-08
1.90896238293e-08
8.94553287138e-09
1.69955899961e-08
2.44890962519e-08
4.10013966809e-10
2.67075598552e-10
1.1080532745e-08
1.57718803031e-08
8.80474425312e-09
5.18025548575e-09
1.45501416531e-08
3.05553457468e-08
1.29830450345e-08
2.67005157067e-08
1.17826048596e-08
9.01981447265e-09
6.39720008903e-09
1.90588163784e-09
2.140342189e-08
1.7381205079e-09
4.51219318601e-09
2.82611017081e-08
2.09601797513e-08
7.43031172709e-09
1.83701838782e-08
1.61670298046e-08
1.09095497669e-08
1.92765026878e-08
1.7462878639e-08
3.46083506281e-10
2.20402921466e-09
1.9963144021e-08
6.23821146632e-09
2.74356336234e-08
3.0269798954e-09
1.29213225683e-09
1.78740243327e-08
4.35418946551e-10
1.83814714857e-08
1.1743417934e-08
1.50333599458e-08
7.1701509444e-10
1.0286839921e-08
7.10277191904e-09
1.41014886904e-08
5.31982727183e-09
6.3464186776e-09
2.4624684704e-08
8.65473470201e-09
8.97822798866e-09
1.26721954326e-08
2.66745262789e-08
9.66016774301e-09
1.79415115523e-08
5.64462194109e-09
5.32993870189e-09
2.51374647901e-08
4.60687844229e-09
1.54601749876e-08
1.42991704818e-08
3.34852735259e-08
2.85861465392e-08
2.60843384637e-09
1.44140129613e-08
2.71530963174e-09
1.40354060117e-08
1.54532206403e-08
1.46641227222e-08
1.51968845812e-08
1.55810899676e-08
4.65176073721e-09
9.43010383822e-09
3.45355789218e-09
1.72490310838e-08
2.18771599399e-08
2.08887051554e-08
9.37485273169e-09
3.33707134119e-08
4.0718422566e-08
1.97458317513e-08
5.83770295184e-09
1.73901199491e-08
1.45730195298e-08
1.83034402885e-08
2.90407268246e-08
1.55967232066e-08
3.73590007605e-09
1.77308196329e-08
5.15327048123e-09
1.0413182617e-09
1.48677018783e-08
1.32549827237e-08
6.98529623745e-10
1.46143383537e-08
1.5718254546e-08
8.7085523224e-11
1.04807906287e-08
2.91387667504e-09
2.87095680039e-08
1.89147224749e-08
1.32439124771e-11
3.23491609116e-08
2.41399366702e-08
1.46901036926e-08
6.05120451828e-09
1.82015734993e-09
8.76277656009e-09
2.84782518125e-09
7.7486032881e-10
4.05647034695e-09
2.20688788235e-08
2.7385139432e-08
4.27114111458e-09
1.64572866011e-08
8.85404398263e-10
3.09860075785e-09
2.00369532172e-08
6.42921691255e-09
1.04272461477e-08
2.19713977616e-09
5.21417688116e-10
1.97056588713e-08
4.02288530189e-09
7.74415144797e-10
7.63848219255e-10
8.31546396883e-09
2.09319059962e-08
2.8214998157e-08
2.34579400888e-08
3.59256525142e-08
1.17994004706e-08
1.28038293582e-08
1.08979712541e-08
1.60451751312e-08
1.30405347688e-08
3.44929515794e-09
2.43414709383e-09
8.92660222677e-11
6.14499931041e-09
2.41482731992e-09
1.76614446594e-08
6.51999820248e-09
1.84007226999e-09
3.51336345207e-09
2.11165282863e-08
5.44430396721e-09
4.53452825351e-10
5.48596164315e-09
3.34435976642e-09
4.68616186442e-10
5.34836174137e-09
7.08347801754e-09
3.3010100996e-09
1.20624763687e-08
9.10034570296e-09
5.58653716316e-09
1.92020763691e-09
9.19582459215e-09
2.13063516461e-09
7.49533559876e-09
3.3862488735e-09
1.3916332288e-08
1.01972537081e-08
9.00825177181e-09
2.84003405052e-09
2.6113772377e-09
9.65602161913e-09
1.21208023908e-08
1.36434991457e-08
1.50327690656e-09
2.00803741824e-08
8.26480982379e-09
3.40597767288e-08
2.56152901689e-08
7.81685762535e-09
6.82385758179e-09
8.60093537545e-09
3.67428183984e-08
8.5448052881e-09
1.11368402996e-08
5.00966024115e-09
1.3234424583e-08
1.78623736161e-09
7.77378854925e-09
1.46568554875e-08
2.04680736988e-08
1.43203444234e-09
3.58347241627e-09
1.15732280746e-08
1.09063061419e-08
2.02779147464e-08
1.36272500427e-08
3.08199671317e-08
4.96478659372e-11
4.78796001897e-09
2.12885528016e-09
2.16911541364e-09
3.81376014799e-09
1.37663134282e-09
2.34189119622e-09
2.87003023529e-09
3.63631525008e-09
9.46691228826e-09
8.20694245815e-09
5.46088366256e-09
2.41042409492e-09
4.35645077256e-09
3.08219062566e-09
1.39275794549e-08
1.15668840147e-08
6.32192339123e-09
1.19001373688e-08
1.83890373425e-08
1.67234247239e-08
1.47387505755e-08
8.73426485387e-09
4.20841290858e-09
1.23086632851e-08
1.33019403964e-08
2.80318996373e-09
6.0229206816e-09
3.14925532568e-10
8.4730608127e-09
9.07931568787e-09
1.81584067763e-09
5.82095697983e-09
2.91156490356e-08
6.56392400587e-09
3.30158832795e-09
1.28886285251e-09
7.19928398242e-09
2.81497715515e-09
5.51704009876e-09
6.62807899812e-09
7.78094101565e-09
3.19729865598e-09
7.63046727249e-09
1.71300274871e-09
1.57285093842e-08
6.40795716155e-09
6.26666569632e-09
5.03574712206e-10
4.83104808127e-09
7.74068007059e-09
6.23619932422e-09
2.06342205879e-08
7.42205226363e-09
1.31699310569e-08
1.05701295124e-08
3.35123152766e-09
2.92554868385e-09
1.09885421279e-08
1.08914914088e-08
1.56982453581e-08
1.62098541377e-08
8.62170072163e-09
1.47870375315e-08
1.67325473871e-09
6.96215620212e-09
1.53582730343e-09
1.24165230041e-08
1.14961917557e-08
3.65066542884e-09
1.44273746824e-08
1.79915294628e-08
2.5825801736e-08
1.68291806162e-09
1.69346617405e-08
5.92729061845e-10
7.59826036874e-09
1.28019903884e-08
1.23426167472e-08
8.50789259276e-09
1.12138959634e-08
6.30746545214e-09
1.46517541112e-08
4.04546764784e-09
3.17221843251e-09
3.76141033802e-09
1.63694622446e-08
1.94783179971e-09
3.40269834876e-10
2.36147375997e-09
1.27987543677e-08
1.04399429254e-08
4.73430051405e-09
9.57305431609e-09
1.00808298627e-09
2.88431297031e-08
1.25445780811e-08
1.27215111807e-09
2.3063882138e-08
1.85412427269e-08
1.14166479026e-08
9.59115273693e-09
1.3370252667e-08
1.94579646576e-08
2.52580022381e-08
1.2310122663e-09
1.42383668773e-08
1.03829382219e-09
1.23580658873e-08
1.16731582052e-08
4.27607134627e-11
1.66796984794e-09
6.07687893169e-09
4.92609805586e-09
9.47262805976e-09
1.92643484359e-08
1.42224297959e-08
8.60750545735e-09
8.98882969541e-10
4.21841025305e-10
1.49659289373e-08
3.6969670023e-09
4.52952315053e-09
1.89612876811e-09
8.6036465586e-09
7.14452670935e-09
7.14615599813e-09
8.18034996916e-09
2.33853209751e-09
1.21113334662e-09
3.03782017822e-08
1.66622349927e-10
2.53581283313e-08
1.8595984504e-08
7.83361854348e-09
1.72497415798e-09
4.59935235757e-08
4.26155857174e-09
2.46190752891e-09
3.30109929731e-08
3.9394697511e-09
5.37434063419e-10
2.0038209949e-08
2.58772346509e-09
7.93646494258e-09
8.20083756893e-09
6.80912776478e-09
1.39255502096e-08
1.44068103573e-08
3.08299370737e-09
2.6950529192e-09
1.95061682597e-08
6.1288302011e-09
1.01691223182e-08
2.8123113241e-08
1.0302874147e-08
1.06780566412e-08
1.72614417607e-09
4.08263503432e-09
2.07687132589e-09
1.8329671741e-09
8.10344960316e-09
3.46696243145e-09
3.52617944377e-10
1.43241217593e-08
1.12678151172e-08
1.20568019449e-09
2.96541887056e-09
2.54421941556e-09
4.06863155335e-09
4.276315459e-09
1.54895981404e-08
7.76597836633e-09
4.47341683838e-09
4.99877405637e-09
7.71827439786e-09
1.34175142087e-08
8.44383223146e-10
9.1347546899e-09
5.00696426194e-09
7.00746459985e-09
3.65678018597e-09
6.73669631936e-10
1.24024617294e-09
1.32209600868e-09
5.03741777256e-09
1.80617091336e-08
3.02121385127e-10
1.56031427177e-09
1.96157962084e-08
2.78326747429e-09
5.04359160617e-09
9.18568549497e-09
3.34956491418e-09
3.40506607545e-09
2.67104009609e-09
5.12939622262e-09
2.36761870476e-09
1.49025188647e-08
8.06935554175e-09
6.5709819861e-10
3.29384931351e-09
4.12657675564e-09
2.35567995949e-09
3.79684471473e-09
4.6341301556e-09
1.45757598278e-08
4.98482740143e-09
1.08319061405e-08
5.98233586861e-09
3.96122635723e-09
1.52012297375e-09
8.72265722877e-09
1.04253224602e-08
1.55713405112e-08
1.18322290907e-09
1.14472268962e-09
1.01783083066e-08
1.05648153809e-09
3.20510339384e-09
5.95966993176e-09
3.92267558302e-09
2.77817183025e-09
5.74798923089e-09
3.47307153128e-09
4.59165362434e-09
4.75753012165e-09
1.42150866967e-09
6.84707645532e-10
1.54845006956e-08
5.64780637672e-09
3.72189032194e-09
6.03599485355e-11
6.91100747041e-09
2.43830700214e-08
3.17512715895e-09
3.13716702519e-09
8.64390045216e-09
4.25993856976e-09
1.24058266264e-08
8.44646806829e-09
2.42490903297e-08
1.32626507635e-08
9.44724132342e-10
2.27892948922e-08
7.67792555642e-11
8.88020688579e-09
9.81935598232e-09
2.32265278771e-08
1.31363431892e-08
8.77967233881e-09
3.13099941543e-08
2.57062865101e-09
2.59411212317e-08
5.74577660957e-09
3.2858381465e-08
1.71297606546e-09
7.1435128329e-09
4.10378235508e-09
3.33069273572e-09
6.79764445356e-09
1.8985815986e-08
7.70812547198e-09
3.54750921234e-08
1.23733411735e-08
7.29723629838e-09
1.06782937342e-08
2.09554439922e-10
1.34118635815e-08
1.51477206257e-08
1.09973662819e-08
8.80944292161e-09
1.92120244687e-08
6.943160672e-09
2.26533600614e-08
2.19493403473e-08
1.33647642344e-10
1.38989237532e-08
2.07210167154e-08
1.01947179013e-08
1.52605906253e-08
1.96242371331e-08
1.44815025315e-08
1.9687998871e-08
2.67231349156e-08
1.17684934281e-08
1.23105947049e-08
1.56662219869e-08
3.02254837442e-08
5.2799811718e-08
4.25243941851e-09
9.86473100212e-09
9.96561856449e-09
1.06381036737e-09
3.91994166156e-09
1.46479978822e-10
1.63970448735e-09
1.02554407416e-08
6.26791091021e-09
3.55592051988e-08
1.35659483401e-08
4.24777253525e-09
1.01611848962e-08
4.3092027346e-08
2.82965767172e-08
7.70884479613e-09
1.78116085446e-08
7.56770060604e-09
7.03323621237e-09
7.53686756424e-10
4.41901170819e-09
1.07158600628e-08
1.37028527811e-08
1.2698407903e-08
1.34413905232e-08
2.17908462188e-09
2.26797113234e-09
7.99575116397e-09
1.14599450038e-08
1.7805014578e-09
7.1091192205e-09
4.1491311156e-09
5.37354664474e-10
1.2210293203e-08
2.96350437958e-09
6.4857588977e-09
1.06377498221e-09
1.65645601728e-08
3.83876078279e-09
7.06738643735e-09
1.3956659432e-08
1.06327733658e-09
4.74456295905e-09
4.11573347923e-09
1.30009040441e-08
6.07828823637e-09
1.05010445478e-08
2.65249984581e-09
1.58459406661e-08
4.47036816444e-09
2.05187414033e-09
2.0221796761e-08
2.57705197679e-09
4.57603600234e-10
1.53562686066e-10
4.01094373269e-09
1.42224159157e-08
2.82747131681e-08
1.49178711704e-09
1.28517794615e-08
3.27967834114e-09
5.54690501684e-09
8.60717763634e-09
1.14109062493e-08
2.48950132543e-08
2.72603497687e-08
9.47264784809e-09
4.63077909894e-11
7.411977143e-09
8.1247465202e-09
1.46655217426e-09
1.83532069539e-08
4.7027711621e-10
2.01311012271e-08
3.98573834858e-08
2.76535934438e-08
2.64531530274e-09
7.41061544942e-09
5.0598671555e-09
1.08118029587e-08
4.104088419e-10
7.45620445367e-09
5.23665083491e-09
1.09955733033e-08
2.13729252276e-08
2.01688491144e-08
7.85106551413e-10
3.96686750161e-08
1.32589234107e-09
3.31316251515e-09
2.74828576239e-09
1.50782325982e-08
2.42835898903e-09
5.93124850142e-09
4.77992755429e-08
4.87085557664e-08
9.90354915704e-10
6.57858237681e-09
1.57165690182e-08
7.86688221358e-09
4.35614608894e-09
2.27152250663e-08
7.28799871404e-11
2.06470871598e-09
1.00519182578e-08
2.90043910428e-09
1.30742598512e-09
3.23071685519e-09
1.88616224963e-08
6.21150102536e-10
1.66869906175e-09
5.07195913564e-09
3.0245644279e-09
1.35357810784e-09
6.67600066571e-09

