# vtk DataFile Version 3.0
File Name: Molecule/sphere_cent/sphere_cent_0-s23.vtk
ASCII
DATASET UNSTRUCTURED_GRID
FIELD FieldData 1
TIME 1 1 double
0.0
POINTS 1146 double
0.78305339813 -0.39753627777 0.47826203704
0.71378666162 -0.55393618345 0.42850410938
0.82419931889 -0.47233214974 0.31088629365
0.88808840513 -0.29946124554 0.34850385785
0.99914652109 0.0098530976102 0.03944607079
0.98929941654 0.133334741 -0.058808684349
0.98705583811 0.13328278065 0.089135237038
-0.84978115559 -0.068976745009 -0.52257984877
-0.91003495455 -0.10634595901 -0.40029326081
-0.89684683084 0.020447771996 -0.44165956974
-0.4517056644 0.88644272089 -0.10116192698
-0.54477155209 0.8380061388 -0.021909896284
-0.40933173895 0.90927314758 0.075361259282
-0.28033098578 0.94366896152 0.1740372628
-0.39190894365 0.881719172 0.26221778989
-0.55252331495 0.81847733259 0.15725916624
-0.51210546494 0.79241168499 0.33136057854
-0.12170814723 -0.98995697498 -0.071453414857
-0.016054416075 -0.99964690208 0.020422151312
-0.19464340806 -0.9794691205 0.052429661155
0.082361452281 -0.99349117279 -0.076853044331
-0.034142836928 -0.99104017019 -0.12812441587
0.059757262468 -0.98858898878 0.13825084269
0.16314184666 -0.98529773951 0.050158299506
-0.095903545618 -0.98398178816 0.15014944971
0.30765533447 -0.12790076435 -0.94274502993
0.16750121117 -0.22478364408 -0.95933926105
0.17550601065 -0.066895239055 -0.98213970661
0.029478266835 -0.1265334785 -0.99137544632
-0.97356671095 -0.037638280541 0.22239381075
-0.96156203747 0.14206455648 0.23460428417
-0.99256563187 0.083788566291 0.08815638721
0.063369847834 0.99725139141 -0.037801340222
0.072663888335 0.97972279787 -0.18666121364
-0.100491032 0.98737347126 -0.1225053966
-0.63163036108 0.50047039986 0.59169644117
-0.51285159588 0.53573954105 0.67025518417
-0.55463850498 0.62204694748 0.55223172903
-0.69689244032 0.70983600616 0.10126936436
-0.64663219452 0.72088348866 0.24873302877
-0.9899212718 -0.03268019855 -0.13727577031
-0.99950063229 -0.027628371492 -0.013917023316
-0.99358916283 0.092062823474 -0.065708778799
-0.95834738016 0.26136985421 0.11264883727
-0.036236174405 0.95717781782 -0.28519505262
0.095828205347 0.93558532 -0.33972528577
0.40954297781 0.58687978983 0.69735479355
0.55217552185 0.55287921429 0.62361186743
0.45455700159 0.67624413967 0.57970649004
0.33536949754 0.69424432516 0.63666391373
0.12011352181 0.21544411778 0.96867096424
0.24868991971 0.25786045194 0.93342196941
0.13440772891 0.33387756348 0.93280518055
-0.77958881855 -0.5874363184 -0.21704299748
-0.69406157732 -0.69099080563 -0.20200252533
-0.74076992273 -0.66767013073 -0.073903031647
-0.53115510941 -0.066948980093 0.84459602833
-0.51986300945 0.11933192611 0.84569275379
-0.63986963034 0.015762120485 0.76818984747
-0.70057946444 0.38857737184 0.59802263975
-0.62836641073 0.36768767238 0.68533849716
-0.70388549566 0.1440102458 0.6955229044
-0.59585922956 0.22759380937 0.7700895071
-0.70426023006 0.26610341668 0.65816658735
-0.59557843208 -0.32745060325 0.73350709677
-0.50641703606 -0.23695699871 0.82890218496
-0.62143528461 -0.1643294245 0.76575636864
-0.38054195046 -0.89018064737 0.25020441413
-0.49674552679 -0.85876172781 0.1250371784
-0.35677185655 -0.92867952585 0.10121373087
0.53174042702 0.22760470212 0.81542164087
0.42581492662 0.27792650461 0.86070877314
0.45446571708 0.14918185771 0.87815004587
-0.82250481844 -0.56152021885 -0.090317748487
-0.86997795105 -0.46657624841 -0.15934070945
-0.88229054213 -0.46984437108 -0.027294509113
-0.80512678623 -0.59117662907 0.042761221528
-0.7117754221 -0.6987580061 0.070401057601
-0.61632692814 -0.77829289436 -0.11908417195
-0.3252183497 -0.48594257236 0.8111768961
-0.23916785419 -0.56951236725 0.78617870808
-0.23808316886 -0.45111337304 0.86012154818
-0.86270010471 0.20387265086 0.46256744862
-0.78996545076 0.16913962364 0.58928614855
-0.79175955057 0.27657613158 0.54423123598
-0.93464642763 -0.19083099067 0.2983160913
-0.95175814629 -0.24511785805 0.18452073634
-0.88998448849 -0.36310338974 0.27587163448
-0.91486215591 -0.38911610842 0.10233828425
-0.69715249538 -0.57662522793 0.42601874471
-0.70316201448 -0.4835999608 0.5211969018
-0.8015794158 -0.46666407585 0.37366470695
-0.59651434422 -0.56532043219 0.56883770227
-0.53075307608 -0.75924235582 0.3759419322
-0.59353590012 -0.66292160749 0.45631712675
-0.65908139944 -0.67641717196 0.32869851589
0.32892140746 -0.90836334229 -0.25771450996
0.20089435577 -0.95557439327 -0.2151709795
0.20568528771 -0.9250317812 -0.31872880459
-0.96708160639 -0.19830358028 -0.15841196477
-0.9863024354 -0.1606875062 -0.036893811077
-0.98869508505 -0.11298109591 0.097229108214
-0.9552564621 -0.12085089833 0.26866957545
-0.96515423059 -0.25559207797 0.055809926242
-0.94225746393 -0.33104160428 -0.050344675779
-0.82817661762 -0.51349276304 0.21975533664
-0.75493681431 -0.58278763294 0.30052110553
-0.84709954262 -0.31885674596 0.42405194044
-0.48009544611 -0.69749492407 0.5312744379
-0.62600010633 -0.43622565269 0.64638513327
-0.50299215317 -0.45859202743 0.73214584589
-0.69001168013 -0.33241084218 0.64289915562
-0.74602997303 -0.64062333107 0.18149447441
-0.65316951275 -0.73044288158 0.19868940115
-0.38398963213 0.81984442472 0.42449328303
-0.088884569705 0.86069953442 0.5010266304
-0.20391513407 0.79422235489 0.57228624821
-0.085080079734 0.75778830051 0.64685994387
-0.21735331416 0.70007556677 0.68005990982
-0.11216007918 0.63068145514 0.76739370823
0.88836443424 0.28242567182 0.3602886796
0.91368913651 0.34519180655 0.21073406935
0.83962893486 0.43623757362 0.32360190153
0.37224194407 -0.81404870749 -0.44533023238
0.26404514909 -0.78467690945 -0.56086319685
0.42855393887 -0.72947841883 -0.53308409452
0.13493821025 -0.85519433022 -0.50044792891
0.08489382267 -0.79997748137 -0.59354990721
0.24181185663 -0.87043750286 -0.42856121063
-0.018285198137 -0.87569570541 -0.48253837228
0.98227059841 0.055921044201 0.17783546448
0.9550921917 0.2075355649 0.20787961781
0.96445912123 0.25394746661 0.064223729074
-0.22494600713 0.85847145319 0.46076077223
-0.31838518381 -0.94743323326 -0.02912504971
-0.45436409116 -0.89053910971 -0.014455404133
-0.23569788039 -0.94990950823 0.20521707833
0.30095311999 -0.95295864344 -0.031607028097
0.27187344432 -0.95573443174 0.11207408458
0.18768911064 -0.95943528414 0.21016313136
0.30126321316 -0.92669707537 0.22454808652
0.043111454695 0.6853954196 0.72663152218
0.018033469096 0.82189112902 0.56754952669
-0.42592594028 -0.14431412518 0.8931671381
-0.42438837886 -0.020651100203 0.90484726429
-0.37370374799 -0.064281485975 0.92500865459
-0.28909233212 -0.14899864793 0.94506543875
-0.36054822803 -0.25240725279 0.89791834354
-0.16261468828 -0.21508003771 0.96288299561
-0.23641036451 -0.31620213389 0.91874504089
0.34919723868 -0.86764073372 -0.35371431708
0.093606054783 -0.9104809165 -0.40283510089
0.042682077736 -0.97784376144 -0.20429763198
0.092414729297 -0.94893848896 -0.30152601004
-0.032774873078 -0.93666517735 -0.3485712409
-0.14251367748 -0.8865917325 -0.43951934576
-0.12495362759 -0.95484161377 -0.26915985346
-0.15394955873 -0.92494624853 -0.34696039557
0.36096569896 -0.92091584206 0.14687237144
0.38766598701 -0.88062113523 0.27236256003
0.92007237673 -0.26384159923 -0.28960889578
0.88618612289 -0.21625506878 -0.40927812457
0.93115961552 -0.15323789418 -0.33060249686
-0.33779045939 -0.37710630894 0.86230921745
-0.094083331525 -0.32562822104 0.9407556057
0.01063642092 -0.89741080999 0.44105759263
-0.12781433761 -0.88571858406 0.4462210536
-0.11762397736 -0.94277054071 0.31202197075
-0.25091677904 -0.90131258965 0.35307955742
0.83652675152 0.54392385483 -0.06567440182
0.86521911621 0.47143775225 -0.16801093519
0.80755627155 0.56070500612 -0.18292158842
0.90945309401 -0.41562277079 -0.0084214294329
0.83777284622 -0.53759676218 0.08501636982
0.82712614536 -0.55845230818 -0.059606648982
0.87328273058 -0.45471230149 -0.17209976912
0.92662060261 -0.33745858073 -0.16572105885
0.88103061914 -0.38244357705 -0.27841892838
0.82230943441 -0.48715752363 -0.29404488206
0.87076318264 -0.32376331091 -0.37017375231
0.82246613503 -0.41803717613 -0.38571974635
0.82355421782 0.43342718482 -0.36587288976
0.82172912359 0.50020611286 -0.27300918102
0.87952375412 0.38565653563 -0.27875208855
0.91864311695 0.25832733512 -0.2989141643
0.86526304483 0.32082203031 -0.38513368368
0.92769360542 0.32687976956 -0.1786532104
0.90803992748 -0.380315274 0.17540876567
0.15111668408 -0.76381701231 0.62733978033
0.083590760827 -0.83718472719 0.54049444199
0.20905154943 -0.81185042858 0.54513251781
0.26265710592 -0.89972198009 0.34856909513
0.29966622591 -0.82878899574 0.47248053551
0.37751469016 -0.84055775404 0.38836756349
0.95929533243 -0.20337218046 -0.19591261446
0.96393352747 -0.25833761692 -0.064155362546
0.98461639881 -0.13487626612 -0.11112853885
0.96157574654 -0.26391658187 0.075530476868
0.99132722616 -0.13133308291 0.0020740958862
0.98596441746 -0.10947801173 0.12312807143
0.88594776392 -0.048118360341 -0.46022105217
0.98072195053 -0.066227048635 -0.18368864059
0.9784181118 0.06659758091 -0.19534823298
0.99590533972 -0.010745822452 -0.089212372899
0.95037007332 0.025038398802 -0.30927667022
0.94713807106 0.12700177729 -0.29446291924
0.96197921038 0.20048233867 -0.18542560935
0.95929199457 0.27396082878 -0.068091444671
0.95243394375 -0.2189835161 0.21163885295
0.12853999436 -0.92999172211 0.34435084462
0.1643075496 -0.87643718719 0.45256510377
-0.034582316875 -0.80004286766 -0.59813833237
0.23172818124 0.95921266079 -0.1606926173
0.17971991003 0.98142665625 -0.066867783666
0.31126111746 0.94970160723 -0.034011431038
0.18875111639 0.97977077961 0.06653149426
-0.58656692505 0.70613467693 0.39580562711
-0.48804908991 0.73001289368 0.47836744785
-0.4295322001 0.66020905972 0.61600065231
0.01352720242 -0.56239199638 0.82676744461
0.16861362755 -0.55462771654 0.81480079889
0.10893134028 -0.43219426274 0.89513039589
0.24800643325 -0.40413451195 0.88041400909
0.3113617301 -0.50686019659 0.80384343863
0.17408028245 -0.28232964873 0.94339245558
[...]
CELL_DATA 2288
SCALARS cell_data_0 double
LOOKUP_TABLE default
8.21116159441e-09
4.96526722841e-10
1.10649045722e-09
2.60877902296e-09
3.74978599243e-09
2.82505055391e-09
6.60394059667e-09
1.91412722619e-09
1.6879684284e-09
6.80942780246e-09
1.08201701271e-09
2.37518741181e-09
1.96502103738e-10
2.2266899985e-09
1.09400659414e-09
2.67941717769e-09
7.06510329791e-09
5.43853361094e-09
8.16458794568e-10
2.11649450346e-09
4.61960399635e-09
1.69002777314e-09
4.11675982737e-09
2.5840078696e-09
4.72434010669e-09
3.55117738758e-09
8.07507656404e-10
1.48135374106e-09
2.1263145387e-09
4.92886445567e-09
1.0912429736e-08
7.56235905399e-09
1.76488764402e-09
3.51385901962e-09
3.58526137492e-09
1.67407240642e-09
2.99271287746e-10
1.09738358425e-08
4.59305643566e-09
3.74952064934e-09
4.98373174038e-09
3.81034969225e-09
2.52564773866e-09
5.53668300309e-09
4.28504614615e-09
1.53660871445e-08
8.3822778986e-09
5.73114444989e-09
2.47270744895e-09
2.55249689759e-09
1.37048120474e-09
9.58318711509e-10
7.46256355107e-09
3.61789948989e-09
2.70064322521e-09
1.65210531686e-09
4.27100304033e-09
6.23599654157e-09
4.70976534011e-09
2.64169661776e-11
2.80969257878e-09
7.75588666826e-09
7.4318888166e-09
5.22785895087e-09
8.02801130283e-10
1.39145596324e-09
7.62608232474e-09
9.76805599846e-10
6.99616741725e-09
3.08980206116e-09
4.65797414755e-09
3.06040821479e-09
2.67411235507e-09
1.49455128517e-10
2.98126678703e-09
8.36632803276e-09
6.18407131258e-09
7.1248462215e-09
8.71822859002e-09
4.23998592933e-09
4.0229373639e-09
7.52065478426e-11
3.35620593633e-09
2.52803858647e-09
5.49381688267e-09
7.49155306739e-09
4.14593441668e-09
4.26378464149e-09
3.91090901709e-10
4.78663574153e-09
5.56113380929e-09
5.98056814981e-10
9.05005827154e-09
6.16288644663e-09
2.16274277053e-09
3.3314337053e-09
1.63170804814e-09
1.79435195513e-09
3.41788990301e-09
3.34633195157e-10
1.26694604614e-09
3.80555149552e-09
2.45145008639e-09
8.52247526647e-10
1.34445766333e-09
6.3121556946e-09
8.95268752672e-09
5.57320526746e-09
7.46310192692e-09
8.27490530976e-09
2.32294443997e-09
3.12076095408e-09
2.7276620594e-09
1.98554092316e-08
4.834924643e-09
1.19483641039e-09
2.96467252171e-10
4.11375838243e-09
4.30759352612e-09
4.19516199747e-10
9.069888776e-09
5.55617145552e-09
2.45909225996e-09
3.71195278358e-09
6.70529993492e-09
1.00906432269e-09
8.27801828651e-09
5.03305058245e-09
1.9186887787e-09
6.62722077635e-09
5.19843975615e-09
5.25290790864e-10
1.80334700876e-09
1.03931507919e-09
4.44469311145e-10
6.97254033571e-09
9.14785797349e-10
2.2813654741e-09
5.38303642193e-09
2.74343584283e-09
6.71261785679e-09
1.80458181376e-09
3.55360832181e-10
5.89901348906e-09
6.88860707424e-09
2.94462229647e-09
1.87956603793e-09
1.13519080643e-09
1.1391079391e-09
2.90772316846e-09
1.24695530214e-09
3.54289651524e-09
5.51796224828e-09
1.03250666455e-08
8.01632974573e-09
4.56137411692e-09
1.68886979003e-09
2.11918653219e-09
1.82644149668e-09
2.38006389398e-09
3.37263778669e-09
1.85116752034e-09
1.42439200879e-09
2.15445969847e-09
2.8089489488e-09
2.86658071361e-10
8.92762891869e-10
1.21642377882e-08
1.61841047034e-10
4.44808271533e-10
3.23424657249e-10
1.00182746327e-09
3.69430500954e-09
1.38714214474e-09
2.67168365635e-09
1.4091329912e-09
2.21231873401e-09
2.48667470726e-09
7.64188561243e-10
2.22811682628e-09
5.68678152427e-10
1.09482175769e-09
4.68295148178e-10
1.4258958724e-09
3.93921904951e-09
1.14891187152e-08
6.83172048117e-09
1.38715687891e-09
5.38561280667e-09
6.29990404821e-09
6.49948151781e-09
8.1540065306e-09
1.88174215162e-10
5.73505582485e-09
7.86700499759e-09
9.91443027483e-09
6.872877675e-09
6.64365047241e-09
1.99488230428e-09
4.6179700442e-09
3.09596047145e-09
5.24060707087e-10
2.44608032597e-09
2.49670849064e-09
6.70198110733e-09
3.83962131017e-10
5.26037687368e-10
6.64209411788e-09
3.70530065431e-09
2.40854833458e-09
1.60482596677e-10
6.49137277725e-09
1.64774416187e-09
3.61093849816e-09
8.48405944254e-09
2.20922676038e-09
1.05014571435e-09
2.27623377625e-09
5.73242875872e-09
5.4006294125e-09
1.09154852073e-09
1.40350064996e-09
1.81693600266e-09
3.72091431922e-09
2.93072552751e-09
3.5550944808e-09
1.10049236013e-08
7.12565418031e-09
3.95517473267e-10
4.96488769304e-09
5.66666921727e-09
8.8727031956e-10
7.41921976481e-11
1.15059397469e-08
5.66594327627e-09
4.59314517385e-09
4.79526560942e-09
2.4559687973e-10
3.26740715915e-09
4.1213544093e-09
1.03968063466e-09
6.2998715585e-10
4.81858222892e-10
6.31008857742e-09
4.33087316625e-09
7.48671872665e-09
4.41447596773e-09
5.34910700461e-10
1.53909354911e-10
4.24201931405e-09
1.29454965146e-09
1.32558721771e-09
5.68940845416e-09
1.55216329533e-09
4.30698961203e-09
1.72595296419e-09
1.00065273965e-09
5.26106670572e-09
6.31014019165e-09
2.82653420206e-09
8.18751444132e-10
2.73135046793e-09
1.65859927438e-10
2.39000384768e-09
5.33937768596e-09
1.78788504553e-09
8.62289920477e-10
1.13973559609e-09
2.73369246217e-10
3.87639041897e-10
1.6003857381e-09
8.49711449239e-09
5.6472316784e-09
3.27762764793e-09
1.7517269108e-09
5.35500709392e-10
1.24771923496e-09
1.94670832746e-09
2.26037408403e-09
5.22846215287e-09
6.21071290662e-09
1.08807480287e-09
5.50687909565e-09
1.83677224487e-09
2.71733527739e-09
1.44158743974e-08
4.09640537232e-09
1.08149992132e-10
1.37159428306e-09
5.03283571526e-10
5.32180304433e-10
5.73361531438e-09
3.14819405326e-09
5.58871980946e-09
7.00476191721e-09
2.90069968994e-09
6.48214920099e-09
3.17159816375e-09
2.07537465739e-09
1.07934277121e-09
7.95730388655e-10
2.84839358994e-09
4.81683611288e-10
4.52331307222e-09
5.27839791231e-09
1.66441067675e-09
3.48126343477e-11
3.95124845149e-09
6.03871305864e-09
9.4628295759e-09
9.2348237197e-09
1.57961389724e-09
1.97610998977e-09
6.79655317102e-09
1.79273237241e-09
1.2373393095e-09
4.33577741794e-10
5.83193685052e-09
5.73011514543e-09
3.04538853964e-09
3.38475429531e-09
5.68728974477e-09
6.52205125283e-09
6.59658506039e-09
4.12338054209e-09
1.45378549116e-09
8.44157813021e-09
2.34151781587e-09
3.06157645138e-09
2.36767665222e-10
6.99320373315e-09
4.97446565668e-09
1.28837247695e-09
4.3471725963e-09
8.45507720505e-11
1.55380498646e-09
8.59167760116e-09
3.71902077157e-09
5.9913582978e-10
2.37295270163e-09
6.13270229868e-10
4.74587759496e-09
2.83276465724e-09
3.12528573513e-09
1.41252012305e-09
6.50987008513e-10
6.17939689119e-09
3.34752033662e-09
2.47353951399e-09
3.84228692625e-09
8.8631558143e-10
6.27569376059e-09
1.50904448878e-09
3.48420062319e-09
9.0873675989e-10
3.46048829613e-09
6.17302455272e-10
1.76878904925e-09
3.80466248105e-09
3.03992665989e-09
3.32340776296e-09
1.7178927799e-09
1.69577217669e-09
5.10865812618e-09
6.57794725273e-09
1.10535779345e-09
3.87830178081e-09
1.51502074375e-09
1.31806388453e-09
2.48165100965e-09
9.81926353413e-10
5.10997175542e-10
5.57782859499e-09
2.44548747703e-09
2.34781736263e-09
3.73248729931e-09
2.28085241895e-09
3.24648376661e-10
5.72471936537e-09
1.81931190597e-09
3.20470448735e-09
1.66842866849e-09
1.26660797825e-09
5.43363356896e-10
1.3023864363e-09
1.19956731921e-09
7.41900787918e-10
2.09253674748e-09
3.76606750427e-09
4.63474510272e-09
8.42520842928e-11
1.57263928529e-09
1.94140326136e-09
3.73151104328e-10
9.06370757326e-10
1.15372686521e-09
1.05641930821e-09
3.49362802449e-09
1.30183403106e-09
2.43028564182e-09
3.48539352628e-09
5.79130155247e-09
1.80543741979e-09
5.34615255789e-09
2.17827701174e-09
8.98290015116e-11
4.64167686993e-09
3.54706526836e-09
4.513928753e-09
1.13420734033e-09
2.38624080426e-10
5.08354220503e-09
2.35967473285e-09
1.2806201757e-09
2.48444360012e-09
1.15241167915e-09
4.18038679931e-09
1.48307190721e-09
4.74482145729e-09
8.54017272575e-10
1.92416475556e-09
1.30536406312e-09
9.88833529031e-10
1.97848926643e-09
3.45303296712e-09
6.61279181265e-09
8.77030215389e-10
2.60505159584e-09
2.84356794662e-10
4.64023640809e-09
1.24760023371e-08
7.65367014085e-10
3.56866727086e-09
1.59693795536e-09
2.17386407448e-09
5.39823227365e-10
5.70217039365e-09
2.62286512511e-09
1.37683133793e-09
1.04686094739e-09
1.65197253751e-09
9.40076891599e-09
4.40865196008e-09
3.14426477743e-09
4.34073737453e-10
7.231217929e-09
1.02233418175e-08
2.59049359407e-09
3.17527324163e-09
7.94741986479e-09
6.86323690307e-10
3.55493643489e-09
3.19616728132e-09
4.42809543944e-09
3.70427285905e-10
8.19083761752e-10
1.40909342652e-09
6.81104895932e-09
3.52682832713e-09
6.44899539532e-10
4.08709512229e-09
3.870457572e-10
1.49140764585e-10
4.33875545614e-09
5.46421843191e-09
6.39893735246e-09
3.05027831408e-09
5.56388466394e-10
2.63575640912e-09
7.9572530842e-10
5.48509565526e-09
3.61182977802e-09
8.94482823014e-10
5.73708519989e-09
5.95995799727e-09
1.16629669332e-10
3.38295965864e-09
1.17642454193e-09
5.74163441214e-09
2.4444426709e-09
2.41396657753e-09
1.93862949614e-09
2.62281391071e-09
3.48752749766e-09
2.22802420894e-09
5.06122612028e-10
2.63113411003e-09
2.20986540746e-09
1.19273375364e-09
2.63561683842e-10
7.68053408165e-10
1.78913872378e-10
2.67036135756e-09
3.27374466718e-09
2.29511831431e-09
2.59384608664e-09
8.73149259773e-10
1.96795808722e-09
2.3128907838e-09
3.48192491796e-09
2.49456284452e-10
2.622353226e-09
1.65797831702e-10
3.12135077694e-10
1.93831877822e-10
4.37100837854e-09
4.2164488602e-09
3.48629768484e-09
2.65825532835e-10
4.63697164643e-09
5.05147552042e-09
9.61911155929e-10
1.50899512994e-09
6.89606099842e-09
3.61334167497e-09
1.93067605458e-09
6.2210839815e-10
9.46494183519e-10
1.03200423568e-09
7.61555515406e-12
1.5071591026e-09
2.57002136849e-11
9.87667329824e-10
7.67364474779e-11
1.03084627343e-09
1.40571824431e-10
1.20346884778e-09
3.84411842423e-10
1.91081167042e-09
1.71627949956e-09
2.50150759156e-09
2.08210069497e-09
1.42122145077e-09
2.87829207022e-09
6.37019411031e-09
3.78517886764e-09
1.62468494008e-09
8.26856159505e-10
5.46769298803e-09
4.02577166343e-09
4.85659416301e-09
6.40445691087e-09
3.38804688683e-09
9.68937247524e-10
1.81375793173e-09
1.00187980649e-09
9.81745825577e-10
1.27259044656e-09
2.30883502338e-10
2.128763819e-09
3.55658481041e-09
1.17807171106e-09
7.99501871499e-10
2.20650566327e-09
3.72980297946e-10
6.76504885503e-09
8.17539308585e-09
1.78528869045e-09
1.2622248563e-09
7.7654551895e-10
2.52689121216e-09
2.12986216605e-09
2.68371482196e-09
8.55780753568e-10
1.49408442504e-09
2.62696688367e-10
3.1183645734e-09
2.2917871829e-09
3.02399282435e-09
1.83633415348e-10
1.24355629104e-09
4.24795120293e-09
3.76832185103e-09
2.16670188554e-09
7.70178063921e-10
1.80345901401e-09
8.04175022373e-09
3.70164947879e-09
4.27887248903e-09
4.12701587789e-12
5.23126110164e-09
9.462373943e-10
3.69721233993e-09
3.44482863469e-09
2.71466558746e-09
5.00921418832e-09
4.4409376635e-09
4.24222264524e-09
8.02325420954e-09
1.06416385234e-09
5.7860633185e-09
2.81461106928e-09
4.26669882063e-10
1.94077723417e-09
5.83230876157e-09
4.5112989153e-09
5.58016133609e-10
2.29597583922e-09
1.35463578005e-09
6.59496148711e-09
1.85555523845e-09
1.18836991221e-09
2.02410979053e-09
6.03158428431e-09
1.44461299096e-09
2.44904754956e-09
4.22719089287e-09
2.65689434874e-09
1.65915812728e-09
5.42526772049e-09
2.3410085869e-09
2.87640313865e-09
4.04728919019e-09
3.95105965493e-09
9.80420801308e-09
9.42844906308e-09
2.57910991715e-09
4.52622888589e-09
3.73145789102e-09
9.19199393139e-10
1.35939942359e-10
4.34763224086e-09
2.48365995185e-10
4.47059715822e-10
8.20442169071e-09
1.43519451489e-09
1.34083529232e-09
6.88215023476e-09
3.75888484489e-09
2.63858964819e-09
7.9439237224e-10
8.16241344353e-09
4.4375825081e-09
5.20573802333e-09
4.36989640041e-09
2.02441551729e-10
5.40844754277e-09
1.30578710508e-10
1.3024361209e-10
3.62170829087e-09
1.14713528138e-09
2.07002936058e-09
2.80544734996e-09
1.29240672786e-09
3.72374099239e-10
5.4466186738e-09
7.41228577732e-10
1.097111983e-09
2.14430182841e-09
1.46382858739e-09
7.68498981257e-10
2.5254348919e-10
5.15646908049e-09
1.060405739e-10
3.86023981941e-10
1.29306860505e-09
4.54535479195e-09
5.94386762086e-10
9.9336469451e-10
2.2962032842e-09
1.23990707886e-09
2.19879040904e-10
2.37033125785e-10
2.41831294357e-09
4.94950637302e-10
7.17272922762e-11
4.16085809076e-10
7.08263230655e-09
4.51521822316e-09
6.44907453464e-10
2.93527997464e-09
6.19803231781e-10
3.70291657193e-09
6.08647031871e-10
1.64557354444e-09
7.51392258751e-09
3.72945757167e-09
5.61270704064e-10
1.72990327922e-09
3.99996519206e-09
2.63042717258e-09
7.80867030106e-10
2.98643221643e-09
1.16088128156e-09
2.32173321071e-09
3.22937730153e-09
5.20271343085e-09
1.78741677541e-09
2.9956171551e-09
1.05119211383e-09
1.11758232798e-09
3.81880322352e-09
4.06287051903e-09
2.52408770732e-09
2.25146717265e-09
3.92997458967e-09
7.36842769318e-09
2.38962719796e-09
4.15152979161e-09
1.08498776922e-09
2.51889718089e-09
3.49052560112e-09
1.37817036822e-09
1.10388961079e-09
1.97803487479e-09
2.47866100534e-09
3.74334560035e-09
1.89431188672e-09
5.44601737313e-09
1.63275247249e-09
1.26170851364e-09
1.02935818989e-10
2.10054450211e-10
4.15008771884e-09
7.7708258439e-10
2.92993880471e-09
5.86198047618e-10
7.23412745608e-09
4.09626592356e-10
2.52448343285e-09
1.35381026083e-09
1.28668828437e-09
2.00813648778e-09
3.89388908326e-11
1.95615898787e-09
1.67813410496e-09
2.13695538091e-09
4.34255014653e-09
1.31251703517e-09
5.56112045355e-09
1.28342304832e-09
4.6995251521e-10
6.77575972047e-09
3.7137193376e-09
7.27325744528e-09
1.41763397591e-09
6.40531378347e-09
1.88681789885e-09
2.32778977982e-09
7.87796354369e-10
1.28824547352e-09
3.64109044673e-09
4.9632290032e-09
5.43272575221e-09
8.72247724609e-09
1.3466353222e-09
1.29234565603e-09
3.85089074594e-09
6.86204266115e-09
8.41278826604e-10
7.69944554327e-10
7.98960880141e-09
3.49727801411e-09
5.44082701536e-09
6.78407494721e-09
2.57443886878e-09
5.08135317247e-09
7.29998020723e-10
3.26249035638e-09
2.95216676083e-09
6.24610263291e-09
3.12811893546e-09
1.4453471515e-09
8.20623470793e-10
2.48229845113e-09
1.13239122242e-09
3.67585707459e-09
1.26104844028e-09
1.95648559964e-09
5.0780527088e-09
5.16254417114e-09
1.15822063928e-10
1.27074874979e-09
3.18332349324e-09
8.95316059029e-09
1.17940877877e-10
1.27952465656e-09
5.39905863798e-09
9.24517874446e-10
2.91035937707e-09
2.01530963972e-09
5.59726182201e-09
3.48883762908e-10
8.16133208064e-10
7.49171502255e-09
2.88804972332e-09
3.70346423176e-09
1.47093030239e-09
3.28688320843e-09
6.72341904241e-09
7.21677360934e-09
4.16278723082e-10
4.48033018341e-10
1.23981001445e-09
1.04701855061e-09
2.96137646358e-09
8.88814959836e-09
2.70084630603e-09
2.47266957965e-09
1.30513930748e-09
2.8634098422e-09
5.15831828513e-10
1.81924291629e-09
4.90907026804e-09
1.03444756888e-09
1.20171212107e-09
1.40636903809e-11
1.78635471888e-09
1.85610207727e-09
3.3329295041e-09
2.30152323223e-09
1.33109397982e-09
5.35575270513e-09
3.26584932367e-09
1.23454035e-09
2.67397274433e-10
3.67182602627e-09
4.6505772359e-09
2.18852803956e-09
2.67989514977e-09
1.7837254565e-09
2.57651917523e-11
1.84832333647e-09
2.61878675847e-09
2.32988378541e-10
1.82912640181e-09
5.81442212614e-09
4.22716829829e-09
6.65310107065e-10
1.61869626231e-09
1.42730957484e-09
2.11331850621e-09
3.35221036085e-09
5.64409299435e-09
4.77174196742e-09
2.70115540881e-09
2.94256198789e-09
1.90823971583e-09
2.37961671725e-09
3.96638708991e-09
1.39439591641e-10
4.80156264455e-09
3.75766081448e-09
1.24775513628e-11
1.49106621687e-09
1.22792135228e-11
6.43910628925e-11
1.62244457423e-10
5.54433748791e-10
1.98470330346e-09
1.83862138354e-09
5.08860162897e-10
1.91259305609e-09
7.28398485865e-10
2.89447129008e-09
1.72821479388e-09
2.38293563542e-09
4.14534471335e-09
5.95632049873e-09
4.71929152903e-09
1.94914746642e-09
1.97498125265e-09
5.64024554641e-09
1.92246526543e-09
4.82342059647e-10
3.25256477786e-09
5.38415417392e-09
3.27941960627e-09
1.18338485945e-09
3.83353327364e-09
3.78873590927e-09
4.47420394177e-10
1.57134311101e-09
2.12936453414e-09
4.73259550995e-09
1.325891851e-09
9.43229472632e-09
5.24744985042e-09
2.65225524757e-09
1.65276761176e-09
2.54670915738e-09
7.61015553481e-10
2.99874458937e-09
3.29237888463e-10
2.84082797212e-09
2.7104036038e-09
2.29646588755e-10
2.55015981998e-09
2.70107362195e-09
3.63990992653e-09
3.55189785923e-09
2.46153139854e-09
5.06737252337e-09
3.53530330975e-09
2.9083702136e-09
2.75722467387e-09
2.97506750937e-09
2.13937332533e-09
3.0084624944e-09
2.54467900034e-09
1.39282929073e-10
1.06032258564e-09
2.61747500895e-09
2.92093336846e-09
2.11469329074e-09
3.63567519078e-10
2.5839752116e-09
1.92431702962e-10
3.54271520337e-09
1.40954106935e-09
3.47057786301e-09
2.80703260635e-09
8.35093592578e-10
3.92052356552e-09
2.57670167236e-09
1.87912025691e-09
1.5309790174e-09
2.94539405068e-09
1.20416836547e-09
2.31772705345e-09
2.75928479154e-10
3.19955084946e-09
7.58921141127e-12
1.79297816579e-09
3.76890374973e-10
1.15393307685e-10
5.8027109126e-10
1.78946617481e-09
1.33555233531e-10
2.79850147549e-09
2.08279539985e-09
2.31027637501e-09
8.93758687414e-10
4.21580148675e-10
4.09314895983e-09
1.37556138686e-09
6.20552442809e-09
3.74319443505e-09
3.82604886836e-10
2.09180866498e-10
1.12759520897e-09
4.24038570372e-09
7.49348322763e-09
1.65281799741e-09
2.32051939014e-09
4.37420048421e-09
1.80557407728e-09
6.57471955088e-10
3.52057540777e-10
8.3638543599e-10
5.8458477083e-09
3.44200091524e-09
6.36697314999e-09
1.58801497977e-09
3.15037992251e-09
2.60851775462e-11
2.89419403482e-09
1.44966429456e-09
2.83517944928e-09
1.80333346455e-09
4.32048851529e-09
4.48318052102e-09
1.45300101858e-09
4.3820263685e-09
3.05897768737e-09
4.63762722034e-09
5.47691838953e-09
1.67442987882e-09
1.90283533957e-09
1.43476861254e-09
2.34518126444e-09
4.60356373695e-09
3.66001076121e-09
4.06821929949e-09
3.01377563942e-09
3.12014062663e-09
3.26388573959e-09
7.61300022373e-09
3.3935456879e-09
5.50701691911e-09
4.45483071385e-09
1.6630095174e-09
3.60898299878e-09
1.05189758696e-09
2.12865645286e-09
4.76497620183e-11
5.11580732589e-09
1.32432488139e-09
7.14315695616e-10
1.42725069824e-09
1.15830641917e-10
5.76138289596e-09
3.88535133113e-10
5.23933377735e-09
4.30986444909e-09
1.90845255047e-09
5.76346955035e-11
8.12043811234e-10
2.51895986263e-09
9.53648443596e-11
1.9046076554e-09
1.63593081768e-09
1.18690539476e-09
4.48961604626e-09
2.10896232823e-09
2.19683009814e-09
1.14857201666e-09
3.02594372496e-09
5.52808353361e-10
8.02184000659e-10
8.19733029911e-10
2.46623960074e-09
2.51891110781e-09
1.2235471511e-09
7.83001220776e-10
1.52862505928e-09
1.05297832413e-09
2.35172655902e-09
2.47860728531e-09
1.44187269339e-09
1.98190659954e-09
3.44646006889e-09
5.48918979895e-09
2.11766395267e-10
7.243772974e-10
2.73647986935e-09
2.02978868477e-09
2.29786431309e-09
1.48794918139e-09
3.11546822201e-09
1.26342205392e-09
1.12380234884e-09
3.22245637162e-09
3.48473726037e-10
3.33239486416e-09
1.38151227853e-09
2.8569431057e-10
2.94298164573e-09
1.93990893955e-09
4.88043465208e-10
2.12446185903e-10
2.87489490858e-10
3.92753361639e-09
1.05694259882e-10
3.41645555646e-09
1.50808081417e-09
1.13795563235e-09
1.71067800609e-09
2.71533302081e-09
1.61843873247e-11
4.8626242008e-10
9.6996757803e-10
6.40694655388e-11
5.16211619023e-10
3.57666084716e-11
8.87072811235e-10
5.96947407482e-10
3.80938865613e-10
2.02740927989e-09
4.3579540151e-11
1.52624861914e-09
2.98357242697e-10
5.21069841289e-10
1.72421498855e-09
1.76628451618e-11
4.09991810611e-10
7.13546714824e-10
1.55591561478e-09
4.83128140534e-10
6.61869905313e-10
7.92834574144e-10
5.62533840197e-10
3.89545412539e-09
9.11614135697e-10
5.17276675949e-09
4.92759006331e-09
6.17077744282e-09
1.41346042173e-09
3.26106650394e-09
6.17356848855e-09
1.73627786088e-09
1.50006871536e-09
1.59597505862e-09
2.94971331431e-09
3.96223137375e-10
3.79517683561e-10
3.71505451925e-10
2.26141467632e-09
4.23494372267e-09
1.11940075326e-09
1.25289782008e-09
2.19015759775e-10
5.23463833216e-10
2.20098010161e-09
2.92678180917e-09
7.17107315902e-10
3.99311661728e-09
7.60813363603e-10
1.91093677065e-09
3.81254682045e-10
2.72652586461e-10
2.11540877832e-09
4.49962731928e-09
2.13296975629e-09
2.91448060001e-09
1.62996917275e-09
6.68570183702e-10
3.44992433331e-09
2.32418379009e-09
9.52581324994e-11
3.41557395897e-11
1.16264598166e-09
1.51504909149e-09
7.51888506375e-11