# vtk DataFile Version 3.0
File Name: Molecule/sphere_excent/sphere_excent_0-s3.vtk
ASCII
DATASET UNSTRUCTURED_GRID
FIELD FieldData 1
TIME 1 1 double
0.0
POINTS 166 double
0.850650808352 -0.525731112119 0.0
0.809016994375 -0.309016994375 -0.5
1.0 0.0 0.0
0.809016994375 0.309016994375 -0.5
0.809016994375 -0.309016994375 0.5
0.850650808352 0.525731112119 0.0
0.809016994375 0.309016994375 0.5
-0.809016994375 -0.309016994375 -0.5
-0.850650808352 -0.525731112119 0.0
-1.0 0.0 0.0
-0.5 -0.809016994375 -0.309016994375
-0.5 -0.809016994375 0.309016994375
0.0 -1.0 0.0
0.0 -0.850650808352 -0.525731112119
-0.809016994375 0.309016994375 0.5
-0.809016994375 -0.309016994375 0.5
0.5 -0.809016994375 -0.309016994375
0.5 -0.809016994375 0.309016994375
0.829833901363 0.417374053247 -0.25
0.675325404176 0.667374053247 -0.154508497188
0.654508497187 0.559016994375 -0.404508497188
0.5 0.809016994375 -0.309016994375
0.559016994375 0.404508497188 -0.654508497187
0.404508497188 0.654508497187 -0.559016994375
0.309016994375 0.5 -0.809016994375
0.525731112119 0.0 -0.850650808352
0.25 0.829833901363 -0.417374053247
0.154508497188 0.675325404176 -0.667374053247
0.0 0.850650808352 -0.525731112119
0.675325404176 0.667374053247 0.154508497188
0.5 0.809016994375 0.0
0.5 0.809016994375 0.309016994375
0.25 0.904508497187 -0.154508497188
0.25 0.904508497187 0.154508497188
0.0 1.0 0.0
0.0 0.925325404176 -0.26286555606
0.25 0.829833901363 0.417374053247
0.0 0.925325404176 0.26286555606
0.0 0.850650808352 0.525731112119
-0.25 0.829833901363 0.417374053247
-0.25 0.904508497187 0.154508497188
-0.5 0.809016994375 0.309016994375
-0.25 0.904508497187 -0.154508497188
-0.5 0.809016994375 0.0
-0.5 0.809016994375 -0.309016994375
-0.25 0.829833901363 -0.417374053247
-0.675325404176 0.667374053247 0.154508497188
-0.154508497188 0.675325404176 0.667374053247
-0.404508497188 0.654508497187 0.559016994375
-0.309016994375 0.5 0.809016994375
-0.654508497187 0.559016994375 0.404508497188
-0.559016994375 0.404508497188 0.654508497187
-0.829833901363 0.417374053247 0.25
-0.417374053247 0.25 0.829833901363
-0.667374053247 0.154508497188 0.675325404176
-0.525731112119 0.0 0.850650808352
-0.154508497188 0.25 0.904508497187
-0.26286555606 0.0 0.925325404176
0.404508497188 0.654508497187 0.559016994375
0.154508497188 0.675325404176 0.667374053247
-0.850650808352 0.525731112119 0.0
0.667374053247 -0.154508497188 -0.675325404176
0.525731112119 0.0 0.850650808352
0.417374053247 -0.25 0.829833901363
0.667374053247 -0.154508497188 0.675325404176
0.559016994375 -0.404508497188 0.654508497187
0.309016994375 -0.5 0.809016994375
0.404508497188 -0.654508497187 0.559016994375
0.654508497187 -0.559016994375 0.404508497188
0.154508497188 -0.675325404176 0.667374053247
0.25 -0.829833901363 0.417374053247
0.0 -0.850650808352 0.525731112119
0.417374053247 -0.25 -0.829833901363
0.26286555606 0.0 -0.925325404176
0.154508497188 -0.25 -0.904508497187
0.309016994375 -0.5 -0.809016994375
0.0 0.0 -1.0
0.0 -0.5 -0.809016994375
-0.154508497188 -0.25 -0.904508497187
-0.309016994375 -0.5 -0.809016994375
0.154508497188 -0.675325404176 -0.667374053247
-0.154508497188 -0.675325404176 -0.667374053247
-0.26286555606 0.0 -0.925325404176
-0.417374053247 -0.25 -0.829833901363
-0.525731112119 0.0 -0.850650808352
0.809016994375 0.0 0.5
0.667374053247 0.154508497188 0.675325404176
0.559016994375 0.404508497188 0.654508497187
0.417374053247 0.25 0.829833901363
0.309016994375 0.5 0.809016994375
-0.667374053247 -0.154508497188 -0.675325404176
-0.667374053247 0.154508497188 -0.675325404176
-0.809016994375 0.0 -0.5
-0.809016994375 0.309016994375 -0.5
-0.829833901363 0.417374053247 -0.25
-0.309016994375 0.5 -0.809016994375
-0.559016994375 0.404508497188 -0.654508497187
-0.404508497188 0.654508497187 -0.559016994375
-0.654508497187 0.559016994375 -0.404508497188
-0.417374053247 0.25 -0.829833901363
-0.25 -0.829833901363 0.417374053247
-0.654508497187 -0.559016994375 0.404508497188
-0.404508497188 -0.654508497187 0.559016994375
-0.559016994375 -0.404508497188 0.654508497187
-0.309016994375 -0.5 0.809016994375
-0.154508497188 -0.675325404176 0.667374053247
-0.559016994375 -0.404508497188 -0.654508497187
0.25 -0.829833901363 -0.417374053247
0.559016994375 -0.404508497188 -0.654508497187
0.654508497187 -0.559016994375 -0.404508497188
0.404508497188 -0.654508497187 -0.559016994375
0.417374053247 0.25 -0.829833901363
0.154508497188 0.25 -0.904508497187
-0.154508497188 0.25 -0.904508497187
0.0 0.5 -0.809016994375
-0.125 0.840242354857 -0.471552582683
-0.375 0.819425447869 -0.363195523811
-0.675325404176 0.667374053247 -0.154508497188
-0.675325404176 0.667374053247 0.0
-0.587662702088 0.738195523811 -0.231762745782
-0.762988106264 0.596552582683 0.077254248594
-0.762988106264 0.596552582683 -0.077254248594
0.0 0.675325404176 0.667374053247
-0.077254248594 0.587662702088 0.738195523811
0.077254248594 0.587662702088 0.738195523811
0.0 0.5 0.809016994375
0.231762745782 0.587662702088 0.738195523811
0.154508497188 0.5 0.809016994375
-0.077254248594 0.375 0.856762745781
0.0 0.25 0.904508497187
0.077254248594 0.375 0.856762745781
0.154508497188 0.25 0.904508497187
-0.077254248594 0.125 0.952254248593
0.077254248594 0.125 0.952254248593
0.0 0.0 1.0
0.231762745782 0.375 0.856762745781
-0.208687026624 0.125 0.914916950682
-0.13143277803 0.0 0.962662702088
0.340119804654 0.125 0.87757965277
0.26286555606 0.0 0.925325404176
-0.417374053247 -0.25 0.829833901363
-0.340119804654 -0.125 0.877579652769
-0.285941275218 -0.25 0.867171199275
-0.208687026624 -0.125 0.914916950682
-0.154508497188 -0.25 0.904508497187
-0.363195523811 -0.375 0.819425447869
-0.231762745782 -0.375 0.856762745781
-0.077254248594 -0.125 0.952254248593
-0.154508497188 -0.5 0.809016994375
-0.077254248594 -0.375 0.856762745781
0.0 -0.5 0.809016994375
0.077254248594 -0.375 0.856762745781
0.0 -0.25 0.904508497187
0.154508497188 -0.25 0.904508497187
0.154508497188 -0.5 0.809016994375
0.231762745782 -0.375 0.856762745781
0.077254248594 -0.125 0.952254248593
0.0 -0.675325404176 0.667374053247
0.340119804654 -0.125 0.87757965277
0.606762745782 0.481762745781 0.529508497187
0.356762745782 0.577254248593 0.684016994375
0.279508497188 0.664916950682 0.613195523811
-0.279508497188 0.664916950682 -0.613195523811
-0.154508497188 0.675325404176 -0.667374053247
-0.742171199276 0.488195523811 -0.327254248594
-0.613195523811 -0.279508497188 0.664916950682

CELLS 328 1312
3 0 1 2
3 1 3 2
3 0 2 4
3 2 5 6
3 7 8 9
3 8 10 11
3 10 12 11
3 10 13 12
3 14 9 15
3 15 9 8
3 7 10 8
3 16 17 12
3 16 0 17
3 3 18 2
3 2 18 5
3 5 18 19
3 18 20 19
3 18 3 20
3 19 20 21
3 3 22 20
3 22 23 20
3 22 24 23
3 20 23 21
3 25 22 3
3 21 23 26
3 23 27 26
3 23 24 27
3 26 27 28
3 5 19 29
3 19 30 29
3 19 21 30
3 29 30 31
3 21 32 30
3 32 33 30
3 32 34 33
3 30 33 31
3 21 26 32
3 26 35 32
3 26 28 35
3 32 35 34
3 31 33 36
3 33 37 36
3 33 34 37
3 36 37 38
3 38 37 39
3 37 40 39
3 37 34 40
3 39 40 41
3 34 42 40
3 42 43 40
3 42 44 43
3 40 43 41
3 34 35 42
3 35 45 42
3 41 43 46
3 38 39 47
3 39 48 47
3 39 41 48
3 47 48 49
3 41 50 48
3 50 51 48
3 50 14 51
3 48 51 49
3 41 46 50
3 46 52 50
3 50 52 14
3 49 51 53
3 51 54 53
3 51 14 54
3 53 54 55
3 49 53 56
3 53 55 57
3 5 29 6
3 29 31 6
3 31 36 58
3 36 38 59
3 55 54 15
3 54 14 15
3 14 52 9
3 52 60 9
3 1 61 3
3 61 25 3
3 62 63 64
3 63 65 64
3 63 66 65
3 64 65 4
3 66 67 65
3 67 68 65
3 67 17 68
3 65 68 4
3 66 69 67
3 69 70 67
3 69 71 70
3 67 70 17
3 4 68 0
3 68 17 0
3 25 72 73
3 72 74 73
3 72 75 74
3 73 74 76
3 75 77 74
3 77 78 74
3 77 79 78
3 74 78 76
3 75 80 77
3 80 81 77
3 80 13 81
3 77 81 79
3 76 78 82
3 78 83 82
3 78 79 83
3 82 83 84
3 6 85 2
3 2 85 4
3 4 85 64
3 85 86 64
3 85 6 86
3 64 86 62
3 6 87 86
3 87 88 86
3 87 89 88
3 86 88 62
3 84 90 91
3 90 92 91
3 90 7 92
3 91 92 93
3 93 92 9
3 9 92 7
3 60 94 9
3 9 94 93
3 95 96 97
3 96 98 97
3 96 93 98
3 97 98 44
3 95 99 96
3 99 91 96
3 99 84 91
3 96 91 93
3 71 100 12
3 12 100 11
3 11 101 8
3 8 101 15
3 11 102 101
3 102 103 101
3 102 104 103
3 101 103 15
3 11 100 102
3 100 105 102
3 100 71 105
3 102 105 104
3 84 83 90
3 83 106 90
3 83 79 106
3 90 106 7
3 7 106 10
3 10 106 79
3 79 81 10
3 81 13 10
3 13 107 12
3 107 16 12
3 17 70 12
3 12 70 71
3 25 61 72
3 61 108 72
3 61 1 108
3 72 108 75
3 1 109 108
3 109 110 108
3 109 16 110
3 108 110 75
3 16 109 0
3 0 109 1
3 75 110 80
3 110 107 80
3 110 16 107
3 80 107 13
3 25 73 111
3 73 112 111
3 73 76 112
3 111 112 24
3 76 113 112
3 113 114 112
3 113 95 114
3 112 114 24
3 76 82 113
3 82 99 113
3 82 84 99
3 113 99 95
3 25 111 22
3 22 111 24
3 28 115 35
3 35 115 45
3 45 116 42
3 42 116 44
3 117 118 43
3 43 118 46
3 44 119 43
3 43 119 117
3 46 118 120
3 118 121 120
3 118 117 121
3 120 121 60
3 46 120 52
3 120 60 52
3 47 122 38
3 38 122 59
3 47 123 122
3 123 124 122
3 123 125 124
3 122 124 59
3 125 123 49
3 49 123 47
3 59 124 126
3 124 127 126
3 124 125 127
3 126 127 89
3 56 128 49
3 49 128 125
3 56 129 128
3 129 130 128
3 129 131 130
3 128 130 125
3 56 132 129
3 132 133 129
3 132 134 133
3 129 133 131
3 125 130 127
3 130 135 127
3 130 131 135
3 127 135 89
3 57 136 53
3 53 136 56
3 56 136 132
3 136 137 132
3 136 57 137
3 132 137 134
3 89 135 88
3 135 138 88
3 135 131 138
3 88 138 62
3 131 133 138
3 133 139 138
3 133 134 139
3 138 139 62
3 140 141 55
3 55 141 57
3 140 142 141
3 142 143 141
3 142 144 143
3 141 143 57
3 140 145 142
3 145 146 142
3 145 104 146
3 142 146 144
3 57 143 137
3 143 147 137
3 143 144 147
3 137 147 134
3 104 148 146
3 148 149 146
3 148 150 149
3 146 149 144
3 150 151 149
3 151 152 149
3 151 153 152
3 149 152 144
3 150 154 151
3 154 155 151
3 154 66 155
3 151 155 153
3 144 152 147
3 152 156 147
3 152 153 156
3 147 156 134
3 66 154 69
3 154 157 69
3 154 150 157
3 69 157 71
3 71 157 105
3 157 148 105
3 157 150 148
3 105 148 104
3 134 156 139
3 156 158 139
3 156 153 158
3 139 158 62
3 153 155 158
3 155 63 158
3 155 66 63
3 158 63 62
3 58 159 31
3 31 159 6
3 58 160 159
3 160 87 159
3 160 89 87
3 159 87 6
3 59 161 36
3 36 161 58
3 58 161 160
3 161 126 160
3 161 59 126
3 160 126 89
3 44 116 97
3 116 162 97
3 116 45 162
3 97 162 95
3 95 162 163
3 162 115 163
3 162 45 115
3 163 115 28
3 60 121 94
3 121 164 94
3 121 117 164
3 94 164 93
3 93 164 98
3 164 119 98
3 164 117 119
3 98 119 44
3 104 145 103
3 145 165 103
3 145 140 165
3 103 165 15
3 15 165 55
3 165 140 55
3 95 163 27
3 27 163 28
3 24 114 27
3 27 114 95

CELL_TYPES 328
5
5
5
5
5
5
5
5
5
5
5
5
5
5
5
5
5
5
5
5
5
5
5
5
5
5
5
5
5
5
5
5
5
5
5
5
5
5
5
5
5
5
5
5
5
5
5
5
5
5
5
5
5
5
5
5
5
5
5
5
5
5
5
5
5
5
5
5
5
5
5
5
5
5
5
5
5
5
5
5
5
5
5
5
5
5
5
5
5
5
5
5
5
5
5
5
5
5
5
5
5
5
5
5
5
5
5
5
5
5
5
5
5
5
5
5
5
5
5
5
5
5
5
5
5
5
5
5
5
5
5
5
5
5
5
5
5
5
5
5
5
5
5
5
5
5
5
5
5
5
5
5
5
5
5
5
5
5
5
5
5
5
5
5
5
5
5
5
5
5
5
5
5
5
5
5
5
5
5
5
5
5
5
5
5
5
5
5
5
5
5
5
5
5
5
5
5
5
5
5
5
5
5
5
5
5
5
5
5
5
5
5
5
5
5
5
5
5
5
5
5
5
5
5
5
5
5
5
5
5
5
5
5
5
5
5
5
5
5
5
5
5
5
5
5
5
5
5
5
5
5
5
5
5
5
5
5
5
5
5
5
5
5
5
5
5
5
5
5
5
5
5
5
5
5
5
5
5
5
5
5
5
5
5
5
5
5
5
5
5
5
5
5
5
5
5
5
5
5
5
5
5
5
5
5
5
5
5
5
5
5
5
5
5
5
5
5
5
5
5
5
5
5
5
5
5
5
5

CELL_DATA 328
SCALARS cell_data_0 double
LOOKUP_TABLE default
6.04401294709e-06
2.40477050814e-05
1.25113944499e-05
1.35881536895e-05
3.82839004917e-06
1.39759820823e-05
4.38280499519e-05
2.91411076269e-05
3.24999449068e-05
1.25376991128e-05
2.05002856088e-05
9.07631364168e-06
2.24459748153e-06
7.8026979733e-06
1.452567367e-06
1.40953296437e-06
8.09198206616e-07
5.59058407548e-06
6.09650376198e-06
6.23834538084e-06
2.71566878567e-06
4.45293910636e-06
9.92566002556e-06
1.23236634445e-05
2.94832816755e-05
3.97048973758e-05
1.80844797407e-05
3.70476408333e-05
1.20326352827e-05
1.70086118059e-05
1.16985293726e-05
1.67900990531e-05
3.57778462248e-05
2.40545707536e-05
1.58295530525e-05
5.47325200101e-06
4.86013337324e-05
9.44304312141e-05
6.59268584404e-05
5.70031644765e-05
1.02374512561e-05
2.97761777536e-05
1.48177370697e-05
1.743712571e-05
6.22981826683e-05
0.000189404848387
8.43434309969e-05
0.000130460531446
8.57415387739e-05
0.000122949748
2.58528619675e-05
8.51975757872e-05
4.74313673593e-05
5.13974989978e-05
3.81412107619e-06
5.89819677639e-05
8.99763885796e-05
5.31357241777e-05
2.01660451807e-06
1.16012381134e-05
1.88648160022e-05
2.63820892695e-06
1.15295641187e-05
1.23357285287e-06
1.01100042224e-05
6.81136652691e-06
2.02116014979e-05
1.60868819898e-05
4.82636769109e-06
2.51022976362e-05
2.4856089248e-05
2.90268603931e-05
1.0708712587e-05
9.55327306182e-06
1.48637126352e-06
4.69501998842e-06
3.27480197798e-05
2.07619238238e-05
2.60598606763e-06
9.25414081265e-06
1.42292083173e-05
1.10771998298e-05
1.85548354852e-05
1.3498714993e-05
1.44406624795e-05
9.68699476835e-06
1.19106781838e-05
1.50513346138e-05
7.95435206952e-06
1.29893407799e-05
1.67636409609e-05
4.66404583375e-06
3.68716470056e-06
4.64119243958e-06
3.11927918108e-06
7.44048566667e-07
6.86248268115e-05
6.72477487585e-05
4.71544395761e-05
1.78700528116e-05
4.16418733409e-06
8.90610017954e-07
4.16796545769e-06
3.71783020609e-06
3.24416091788e-06
8.34566582263e-07
9.72445878156e-07
3.9635990796e-06
2.75066937091e-06
6.49445316484e-07
3.75434526856e-06
5.56495180673e-06
1.50834348468e-05
1.43652407396e-05
9.33560572722e-06
1.23946349091e-05
1.0997992622e-05
1.62310774734e-05
1.2045514796e-05
2.10453561725e-05
2.08465978089e-05
2.32917437439e-05
3.27442911447e-05
4.78111174458e-05
3.24331450181e-05
3.57404824197e-05
3.52481059636e-05
4.46565157688e-05
2.51634419666e-05
2.68562748527e-05
2.92890732805e-05
1.53849879475e-05
1.75955953362e-05
1.64859927948e-07
2.55946962801e-05
3.26623541899e-05
2.12052087237e-05
3.43435440549e-05
7.59131081927e-06
8.3753284432e-07
5.94056685545e-06
1.13285022255e-05
8.00778024522e-06
1.19854358819e-05
1.1902508407e-05
1.27503447955e-05
6.44588276181e-06
9.97397674288e-06
9.36241463255e-06
9.63255752946e-06
1.38658353922e-05
5.09614532711e-06
2.76277131278e-06
9.03865468382e-06
1.38098886471e-05
1.43255907054e-05
1.58768236043e-05
7.99482405059e-06
6.45984384526e-06
1.03939923196e-05
1.37731709455e-05
1.46247870837e-05
3.774341299e-05
3.71652340399e-05
1.76795956491e-06
4.77436647809e-05
2.8138031893e-06
2.80082556727e-06
4.88191058721e-06
6.97613887144e-06
8.1437377016e-06
7.8095051095e-06
5.28179385057e-06
1.18236415994e-06
3.18027417182e-06
1.12786571513e-07
1.52211426837e-05
1.75013452883e-05
2.11707827606e-05
3.33247970587e-06
7.06564513475e-06
2.54984405208e-05
3.61448283336e-05
2.41667760694e-05
3.51859907494e-06
1.20675922095e-06
5.50716494529e-06
8.30674816144e-06
1.40242136193e-06
1.92551282923e-06
4.3046200337e-05
4.09416383864e-05
2.08667364597e-05
1.98599171797e-05
3.97222717038e-05
1.90968763788e-05
1.49555471798e-05
2.88817622234e-05
1.32795491023e-05
4.19237514141e-05
3.91267546288e-05
2.50144238515e-05
1.20751280843e-05
1.61750169549e-05
3.17343033732e-05
1.35311846006e-05
3.37459065316e-05
4.07567737194e-05
7.47082455512e-06
2.25009420019e-05
9.92891490894e-06
6.04313075916e-06
1.92923319763e-05
4.40017681915e-05
1.2945732124e-05
1.53030966776e-05
2.13045962306e-05
1.48876490081e-05
1.86512744991e-05
2.74757178363e-06
2.2945138144e-05
2.45054175332e-06
2.33034667667e-05
1.56782060076e-05
2.26757367228e-05
2.56206761618e-05
1.04358459731e-05
3.40916342296e-05
1.15214002243e-05
9.10512143492e-06
3.13802048855e-05
3.07986694957e-05
1.97992630338e-05
1.30103668074e-05
2.06805756478e-05
1.78339409385e-05
1.32116690556e-05
8.54930671049e-06
2.70902985811e-05
1.67473923186e-05
4.23470163459e-05
1.07582962729e-05
4.20513533621e-05
5.32053161507e-06
1.9351332983e-05
2.53823768533e-05
1.11725591526e-05
9.1658492159e-06
1.60167674932e-05
1.74557098153e-05
5.6200875757e-06
2.69698351507e-06
4.98086246394e-07
1.28974404248e-05
1.92766594167e-05
1.49241568757e-05
2.02427550202e-05
2.01218691282e-05
6.68362410518e-06
9.71866588693e-07
1.01526832459e-05
1.67979209149e-05
1.04588013512e-05
2.76206196963e-06
2.10669262688e-05
2.25673303761e-05
7.6351276986e-06
6.50796859689e-06
5.16909949549e-06
1.41704082907e-05
2.61152563435e-05
9.62170518831e-06
2.39129772241e-05
2.36477488929e-05
8.02064846307e-06
5.29555806236e-08
1.32580634599e-05
1.76782808302e-06
6.80628112657e-06
8.16455751579e-06
1.30311953418e-05
1.15900983493e-05
3.74975339464e-05
2.6751521657e-06
3.87810301503e-05
3.43064889483e-06
2.93852184005e-05
2.06093088995e-05
1.55772647866e-05
1.99366581235e-05
8.63562686816e-06
5.48960914726e-06
6.90313439582e-06
9.20699887554e-06
1.2273623809e-05
7.5834258924e-06
9.52336046573e-07
2.11367071121e-06
2.71956502505e-06
1.19426067443e-05
8.53843590707e-06
3.93771639655e-06
1.1910186258e-05
1.16664783794e-05
1.28988918855e-05
2.88411348872e-06
2.97582278876e-06
1.23825797716e-05
1.34526258969e-05
1.45890005824e-05
4.49241326802e-05
4.39491622173e-05
4.42975274487e-05
7.52139374291e-06
3.60221398714e-07
6.18167158725e-06
1.72611153429e-05
6.39445057437e-06
7.8989116869e-06
1.96000165673e-06
4.75226452194e-06
6.92768459966e-06
1.65864612341e-05
2.81715749174e-05
2.1785451706e-05
1.41992415058e-05
3.77532841515e-05
5.13111243601e-05

