# vtk DataFile Version 3.0
File Name: Molecule/sphere_excent/sphere_excent_0-s4.vtk
ASCII
DATASET UNSTRUCTURED_GRID
FIELD FieldData 1
TIME 1 1 double
0.0
POINTS 442 double
0.850650808352 -0.525731112119 0.0
1.0 0.0 0.0
0.809016994375 -0.309016994375 0.5
0.850650808352 0.525731112119 0.0
0.809016994375 0.309016994375 0.5
0.5 -0.809016994375 -0.309016994375
0.5 -0.809016994375 0.309016994375
0.0 -1.0 0.0
0.829833901363 0.417374053247 -0.25
0.675325404176 0.667374053247 -0.154508497188
0.654508497187 0.559016994375 -0.404508497188
0.809016994375 0.309016994375 -0.5
0.5 0.809016994375 -0.309016994375
0.559016994375 0.404508497188 -0.654508497187
0.404508497188 0.654508497187 -0.559016994375
0.525731112119 0.0 -0.850650808352
0.675325404176 0.667374053247 0.154508497188
0.5 0.809016994375 0.0
0.5 0.809016994375 0.309016994375
0.25 0.829833901363 0.417374053247
0.404508497188 0.654508497187 0.559016994375
0.417374053247 -0.25 0.829833901363
0.309016994375 -0.5 0.809016994375
0.559016994375 -0.404508497188 0.654508497187
0.667374053247 -0.154508497188 0.675325404176
0.404508497188 -0.654508497187 0.559016994375
0.654508497187 -0.559016994375 0.404508497188
0.154508497188 -0.675325404176 0.667374053247
0.25 -0.829833901363 0.417374053247
0.0 -0.850650808352 0.525731112119
0.0 -0.5 -0.809016994375
-0.154508497188 -0.25 -0.904508497187
0.154508497188 -0.25 -0.904508497187
-0.309016994375 -0.5 -0.809016994375
0.309016994375 -0.5 -0.809016994375
0.154508497188 -0.675325404176 -0.667374053247
-0.154508497188 -0.675325404176 -0.667374053247
0.0 -0.850650808352 -0.525731112119
0.0 0.0 -1.0
-0.26286555606 0.0 -0.925325404176
-0.417374053247 -0.25 -0.829833901363
-0.525731112119 0.0 -0.850650808352
0.809016994375 0.0 0.5
0.667374053247 0.154508497188 0.675325404176
-0.404508497188 0.654508497187 -0.559016994375
-0.654508497187 0.559016994375 -0.404508497188
-0.5 0.809016994375 -0.309016994375
-0.25 -0.829833901363 0.417374053247
-0.5 -0.809016994375 0.309016994375
-0.404508497188 -0.654508497187 0.559016994375
-0.654508497187 -0.559016994375 0.404508497188
-0.559016994375 -0.404508497188 0.654508497187
-0.309016994375 -0.5 0.809016994375
-0.809016994375 -0.309016994375 0.5
-0.154508497188 -0.675325404176 0.667374053247
-0.559016994375 -0.404508497188 -0.654508497187
-0.667374053247 -0.154508497188 -0.675325404176
-0.5 -0.809016994375 -0.309016994375
0.25 -0.829833901363 -0.417374053247
0.809016994375 -0.309016994375 -0.5
0.654508497187 -0.559016994375 -0.404508497188
0.559016994375 -0.404508497188 -0.654508497187
0.404508497188 -0.654508497187 -0.559016994375
0.417374053247 0.25 -0.829833901363
0.309016994375 0.5 -0.809016994375
-0.417374053247 -0.25 0.829833901363
-0.363195523811 -0.375 0.819425447869
-0.285941275218 -0.25 0.867171199275
-0.231762745782 -0.375 0.856762745781
-0.154508497188 -0.25 0.904508497187
-0.154508497188 -0.5 0.809016994375
-0.077254248594 -0.375 0.856762745781
0.0 -0.5 0.809016994375
0.154508497188 -0.5 0.809016994375
0.077254248594 -0.375 0.856762745781
0.231762745782 -0.375 0.856762745781
0.0 -0.675325404176 0.667374053247
0.606762745782 0.481762745781 0.529508497187
0.356762745782 0.577254248593 0.684016994375
0.559016994375 0.404508497188 0.654508497187
0.279508497188 0.664916950682 0.613195523811
0.231762745782 0.587662702088 0.738195523811
-0.375 0.819425447869 -0.363195523811
-0.279508497188 0.664916950682 -0.613195523811
-0.613195523811 -0.279508497188 0.664916950682
0.904508497187 -0.154508497188 -0.25
0.809016994375 0.0 -0.5
0.904508497187 0.154508497188 -0.25
-0.809016994375 -0.309016994375 -0.5
-0.829833901363 -0.417374053247 -0.25
-0.904508497187 -0.154508497188 -0.25
-0.925325404176 -0.26286555606 0.0
-0.850650808352 -0.525731112119 0.0
-1.0 0.0 0.0
-0.675325404176 -0.667374053247 -0.154508497188
-0.675325404176 -0.667374053247 0.154508497188
-0.5 -0.809016994375 0.0
-0.25 -0.904508497187 -0.154508497188
-0.25 -0.904508497187 0.154508497188
-0.25 -0.829833901363 -0.417374053247
0.0 -0.925325404176 -0.26286555606
-0.809016994375 0.309016994375 0.5
-0.904508497187 0.154508497188 0.25
-0.809016994375 0.0 0.5
-0.904508497187 -0.154508497188 0.25
-0.829833901363 -0.417374053247 0.25
-0.654508497187 -0.559016994375 -0.404508497188
0.356762745782 0.577254248593 -0.684016994375
0.452254248594 0.731762745781 -0.434016994375
0.375 0.819425447869 -0.363195523811
0.327254248594 0.742171199275 -0.488195523811
0.25 0.829833901363 -0.417374053247
0.279508497188 0.664916950682 -0.613195523811
0.202254248594 0.752579652769 -0.542374053247
0.154508497188 0.675325404176 -0.667374053247
0.231762745782 0.587662702088 -0.738195523811
0.125 0.840242354857 -0.471552582683
0.077254248594 0.762988106264 -0.596552582683
0.0 0.850650808352 -0.525731112119
0.5 0.809016994375 -0.154508497188
0.375 0.856762745781 -0.231762745782
0.375 0.856762745781 -0.077254248594
0.25 0.904508497187 -0.154508497188
0.25 0.904508497187 0.0
0.375 0.856762745781 0.077254248594
0.25 0.904508497187 0.154508497188
0.125 0.952254248593 -0.077254248594
0.125 0.952254248593 0.077254248594
0.0 1.0 0.0
0.25 0.867171199275 -0.285941275218
0.125 0.877579652769 -0.340119804654
0.125 0.914916950682 -0.208687026624
0.0 0.925325404176 -0.26286555606
0.0 0.887988106264 -0.394298334089
0.0 0.962662702088 -0.13143277803
0.25 0.867171199275 0.285941275218
0.125 0.914916950682 0.208687026624
0.125 0.877579652769 0.340119804654
0.0 0.925325404176 0.26286555606
0.0 0.962662702088 0.13143277803
0.125 0.840242354857 0.471552582683
0.0 0.887988106264 0.394298334089
0.0 0.850650808352 0.525731112119
-0.125 0.840242354857 0.471552582683
-0.125 0.877579652769 0.340119804654
-0.25 0.829833901363 0.417374053247
-0.125 0.914916950682 0.208687026624
-0.25 0.867171199275 0.285941275218
-0.25 0.904508497187 0.154508497188
-0.125 0.952254248593 0.077254248594
-0.375 0.819425447869 0.363195523811
-0.375 0.856762745781 0.231762745782
-0.5 0.809016994375 0.309016994375
-0.125 0.952254248593 -0.077254248594
-0.25 0.904508497187 0.0
-0.25 0.904508497187 -0.154508497188
-0.375 0.856762745781 -0.077254248594
-0.375 0.856762745781 0.077254248594
-0.5 0.809016994375 0.0
-0.375 0.856762745781 -0.231762745782
-0.5 0.809016994375 -0.154508497188
-0.5 0.809016994375 0.154508497188
-0.125 0.914916950682 -0.208687026624
-0.125 0.877579652769 -0.340119804654
-0.25 0.867171199275 -0.285941275218
-0.25 0.829833901363 -0.417374053247
-0.587662702088 0.738195523811 0.231762745782
-0.587662702088 0.738195523811 0.077254248594
-0.675325404176 0.667374053247 0.154508497188
-0.077254248594 0.762988106264 0.596552582683
-0.202254248594 0.752579652769 0.542374053247
-0.154508497188 0.675325404176 0.667374053247
-0.327254248594 0.742171199275 0.488195523811
-0.279508497188 0.664916950682 0.613195523811
-0.404508497188 0.654508497187 0.559016994375
-0.452254248594 0.731762745781 0.434016994375
-0.231762745782 0.587662702088 0.738195523811
-0.356762745782 0.577254248593 0.684016994375
-0.309016994375 0.5 0.809016994375
-0.577254248593 0.684016994375 0.356762745782
-0.529508497188 0.606762745781 0.481762745782
-0.654508497187 0.559016994375 0.404508497188
-0.606762745781 0.481762745782 0.529508497188
-0.481762745782 0.529508497188 0.606762745781
-0.559016994375 0.404508497188 0.654508497187
-0.731762745781 0.434016994375 0.452254248594
-0.684016994375 0.356762745782 0.577254248593
-0.434016994375 0.452254248594 0.731762745781
-0.664916950682 0.613195523811 0.279508497188
-0.829833901363 0.417374053247 0.25
-0.363195523811 0.375 0.819425447869
-0.488195523811 0.327254248594 0.742171199275
-0.417374053247 0.25 0.829833901363
-0.613195523811 0.279508497188 0.664916950682
-0.542374053247 0.202254248594 0.752579652769
-0.667374053247 0.154508497188 0.675325404176
-0.738195523811 0.231762745782 0.587662702088
-0.471552582683 0.125 0.840242354857
-0.596552582683 0.077254248594 0.762988106264
-0.525731112119 0.0 0.850650808352
-0.231762745782 0.375 0.856762745781
-0.285941275218 0.25 0.867171199275
-0.154508497188 0.25 0.904508497187
-0.340119804654 0.125 0.877579652769
-0.394298334089 0.0 0.887988106264
-0.26286555606 0.0 0.925325404176
0.202254248594 0.752579652769 0.542374053247
0.077254248594 0.762988106264 0.596552582683
0.154508497188 0.675325404176 0.667374053247
-0.667374053247 -0.154508497188 0.675325404176
-0.738195523811 -0.0772542485935 0.587662702088
-0.850650808352 0.525731112119 0.0
-0.925325404176 0.26286555606 0.0
0.667374053247 -0.154508497188 -0.675325404176
0.596552582683 -0.077254248594 -0.762988106264
0.525731112119 0.0 0.850650808352
0.471552582683 -0.125 0.840242354857
0.596552582683 -0.077254248594 0.762988106264
0.542374053247 -0.202254248594 0.752579652769
0.471552582683 -0.125 -0.840242354857
0.394298334089 0.0 -0.887988106264
0.340119804654 -0.125 -0.877579652769
0.417374053247 -0.25 -0.829833901363
0.26286555606 0.0 -0.925325404176
0.285941275218 -0.25 -0.867171199275
0.208687026624 -0.125 -0.914916950682
0.363195523811 -0.375 -0.819425447869
0.231762745782 -0.375 -0.856762745781
0.13143277803 0.0 -0.962662702088
0.077254248594 -0.125 -0.952254248593
0.667374053247 0.0 0.675325404176
0.596552582683 0.077254248594 0.762988106264
0.613195523811 0.279508497188 0.664916950682
0.488195523811 0.327254248594 0.742171199275
0.542374053247 0.202254248594 0.752579652769
0.417374053247 0.25 0.829833901363
0.434016994375 0.452254248594 0.731762745781
0.363195523811 0.375 0.819425447869
0.309016994375 0.5 0.809016994375
0.471552582683 0.125 0.840242354857
-0.596552582683 -0.077254248594 -0.762988106264
-0.596552582683 0.077254248594 -0.762988106264
-0.667374053247 0.0 -0.675325404176
-0.667374053247 0.154508497188 -0.675325404176
-0.738195523811 -0.077254248594 -0.587662702088
-0.738195523811 0.077254248594 -0.587662702088
-0.809016994375 0.0 -0.5
-0.738195523811 -0.231762745782 -0.587662702088
-0.809016994375 -0.154508497188 -0.5
-0.738195523811 0.231762745782 -0.587662702088
-0.809016994375 0.154508497188 -0.5
-0.809016994375 0.309016994375 -0.5
-0.904508497187 0.154508497188 -0.25
[...]
CELL_DATA 880
SCALARS cell_data_0 double
LOOKUP_TABLE default
8.42221185452e-06
1.83341675465e-05
5.11693389437e-06
1.18061383301e-06
8.18962113956e-06
2.10192673787e-05
2.07325845108e-05
6.74119123759e-06
7.94814367621e-06
3.0575813844e-07
2.39878133445e-07
4.40837142354e-06
2.0607110585e-05
2.92393266613e-05
1.07380405684e-05
1.89311663773e-06
5.3254661127e-06
9.11962645384e-06
2.38040196302e-05
1.35061948916e-05
2.02060086277e-05
1.51462743245e-05
2.09713780079e-06
1.10348857364e-05
1.57722360882e-05
1.16356568246e-05
9.71249724186e-06
2.22928054053e-06
5.4638743389e-07
5.9885596348e-06
5.11207445645e-06
3.39930897344e-06
8.61131071235e-06
3.74882549258e-06
3.16048514586e-06
2.86514050347e-06
4.56960728754e-06
7.40831690626e-06
3.36926922844e-06
1.1497593544e-05
1.56342881555e-05
4.78425917435e-06
9.33273512692e-06
1.10923707775e-05
9.42437054876e-06
1.05794827706e-05
7.60890228236e-06
1.25615683233e-05
2.09325386959e-05
1.0725823945e-05
5.54752319207e-06
9.65675359235e-06
8.99567569079e-06
1.70879679823e-05
6.22793059236e-06
1.91434520349e-06
1.03485235778e-06
7.2447947891e-07
3.19323767575e-06
7.49429216071e-06
1.13760149163e-05
1.35090578423e-08
4.74159925798e-07
7.93235882868e-07
2.52041371435e-06
1.63537192062e-06
5.02818638629e-06
6.39729209094e-08
6.21229266788e-07
1.41323705859e-06
3.52611068029e-06
5.4316681805e-06
8.50255094016e-06
8.53471648453e-06
7.15293002887e-06
1.18827349979e-05
8.03528962955e-06
9.35802865894e-06
1.13521297362e-05
1.05050526268e-05
7.4186495699e-06
1.05044176338e-05
1.06392363313e-05
1.56804783625e-05
6.89729695897e-06
6.90762081045e-06
1.02033018415e-05
1.47056327168e-05
1.08467178297e-05
6.73096927048e-06
9.64296529202e-06
7.33440866056e-06
7.18648847284e-06
5.62147019718e-06
1.54816760869e-07
3.05405985462e-06
3.45465725311e-06
1.76827843473e-06
1.20394477845e-05
9.87568006503e-06
9.89562309752e-07
1.51873290424e-06
4.83919561199e-06
6.69046781468e-06
4.34678457563e-06
2.22238002974e-06
1.7395917342e-05
3.65753836527e-05
1.83297456826e-05
1.90857953219e-05
1.81478490446e-05
3.23875205785e-05
1.39474737567e-05
1.18416020594e-05
1.22392690408e-05
3.37229893885e-05
1.58921589409e-05
1.53843995075e-05
1.88796458821e-05
3.88111187429e-05
3.28658457083e-05
1.24258395357e-05
1.26129447977e-05
3.07875675653e-06
6.30799743241e-07
4.87146919792e-06
6.29344132151e-07
2.17521447563e-05
9.59444795151e-06
1.68808296328e-05
2.43285477012e-05
4.05345790513e-05
2.36819823922e-05
1.47084060676e-05
6.86640157908e-06
9.39575970606e-06
1.26422355928e-05
8.45582904251e-06
2.6490479506e-06
2.04153358598e-06
3.35558723086e-06
1.09548153014e-05
6.74988121407e-06
1.11103135507e-05
6.41658405983e-06
8.59988691817e-06
3.12809803234e-06
9.03304166055e-06
5.40135126689e-06
1.5865901537e-05
1.53490772431e-05
9.83786773564e-06
1.20781176651e-05
2.2174060615e-05
1.07887887708e-05
2.36446331838e-05
1.41113681118e-05
2.02668726145e-05
1.38599759129e-05
2.31726162715e-05
2.31848193867e-05
1.22666648403e-05
1.34980845858e-05
1.64617415023e-05
1.62392333233e-05
1.50533029308e-05
1.69408902281e-05
1.55446810978e-05
1.242724369e-05
1.2128400184e-05
1.56268613463e-05
2.22155551185e-05
9.20651510136e-06
2.46180930964e-05
1.54051085615e-05
2.84527126521e-05
3.49690373584e-05
6.23857916265e-05
4.3527393647e-05
4.132810093e-05
3.34539929869e-05
6.22378655811e-05
3.53514630436e-05
4.51142398937e-05
3.52157216214e-05
4.45313745997e-05
3.41678645335e-05
1.79682826193e-05
3.24091325991e-05
2.84605245725e-05
2.1527283134e-05
1.68720402738e-05
1.08637534804e-06
1.73339367133e-05
1.02278170927e-05
9.50081554003e-06
7.16529318443e-06
2.79950207869e-06
5.37111749736e-06
5.08128311678e-06
1.31125492743e-06
2.30533598255e-06
4.42453685154e-07
4.25806759337e-07
3.55250707083e-07
1.39318858641e-06
1.48849926768e-06
1.50602332936e-06
1.20574309324e-06
1.63396724723e-06
1.10491153703e-07
4.31377073626e-06
6.70969663845e-06
8.99325047246e-07
9.05514406839e-07
7.1134309525e-06
8.83382109814e-07
1.13858059168e-05
1.44955401642e-05
1.0846896412e-05
4.88396459228e-06
1.33817110731e-06
7.46365942839e-07
9.21642501481e-07
8.8136908036e-07
1.01489497496e-06
6.44748290006e-07
6.61932902288e-07
1.35141294302e-06
6.69633085545e-07
1.5578444068e-06
1.13862349187e-06
1.03733227136e-06
3.33667757877e-06
2.06011011115e-05
1.74111573963e-05
8.94412821753e-06
4.66226890576e-06
1.57315627614e-07
4.67918842559e-07
3.14652194491e-07
4.99079631148e-07
6.94847318916e-07
9.33302428732e-07
7.80388115046e-07
9.25044590114e-07
7.41604798023e-07
1.85852241776e-06
8.89826223091e-07
7.64205473064e-07
1.19232338442e-06
7.29626670737e-06
1.60610327379e-07
5.04255254046e-07
4.187254397e-06
1.4698307545e-05
1.26969922435e-05
2.14458760386e-06
3.54399215467e-07
6.383961302e-06
7.45737938844e-07
7.38291033534e-06
1.39479905389e-05
1.475501402e-05
1.49293171715e-05
2.24766461337e-06
1.38054960058e-05
7.59033501239e-07
1.34287633559e-06
2.51870723636e-06
7.02507467809e-06
1.61399532668e-06
1.50872311525e-06
2.77596534748e-06
4.21969488176e-06
5.52383112363e-06
4.83797372935e-06
2.31684201186e-06
3.1168731803e-06
9.70858652609e-07
1.19194340057e-06
8.09136672809e-06
3.30424333241e-05
1.35687959367e-05
2.33319709583e-05
2.99023632632e-05
5.85502677918e-06
3.68531200346e-06
5.05121825234e-06
6.89955836194e-06
4.86121442616e-06
3.38723531562e-06
3.35322179209e-06
6.84000506673e-06
3.42217369523e-06
2.40479838675e-06
1.60809736241e-06
6.42402393777e-07
6.9981669359e-06
3.17618077995e-06
3.58371600897e-06
3.01304177935e-06
7.51019055068e-06
6.25556844812e-06
9.35971465344e-06
1.32556645655e-05
9.17642054218e-06
6.39452411393e-06
5.01816025049e-06
1.52819477277e-05
1.0719935198e-06
2.03608085956e-06
1.25826574022e-06
1.9538683462e-06
4.49369112218e-06
3.84908729591e-06
4.17035037206e-06
3.43807450332e-06
7.07922721938e-07
6.40928642629e-06
4.22718111392e-07
5.41805572539e-06
4.16226222211e-05
6.68848626397e-05
3.85623486217e-05
3.40373738057e-05
1.81083668997e-05
1.84003503029e-05
1.43399649203e-05
2.07755886923e-06
4.71764365473e-06
3.39271665694e-06
6.54718917993e-06
3.0774401895e-06
6.63335754573e-06
1.22376233257e-05
5.02093527844e-07
8.07852276682e-08
1.1992601891e-07
3.20763138001e-07
1.16618790977e-07
7.77026073633e-08
3.12628564143e-07
2.88229206707e-07
1.22579998301e-07
1.34942235406e-07
1.32992590351e-06
4.09255422799e-07
3.32400009836e-07
1.03082875808e-07
3.0974931987e-07
1.99418795345e-07
1.97959922414e-06
4.64493113716e-06
8.38069626854e-07
1.37759797382e-06
7.35128049659e-06
6.12769170046e-06
3.10837936114e-06
3.14610167308e-06
3.89033304274e-06
4.20390019818e-06
4.90131222883e-06
5.96909302415e-06
3.07832166954e-06
2.81164898583e-06
3.79057734442e-06
3.88594259989e-06
3.33969309815e-06
3.26560091255e-06
6.07979411466e-06
3.76257072337e-06
4.01032876791e-06
3.36036863663e-06
4.01973900616e-06
4.75417694529e-06
8.25907364292e-07
6.38153831873e-08
7.833611007e-07
7.98298560112e-07
6.52734425755e-07
1.71239959456e-07
1.59106285354e-06
6.75686967602e-07
7.04981569243e-07
1.28928225492e-07
6.84177339869e-08
1.71381265513e-06
9.44233028976e-07
2.10579838445e-08
1.78410674684e-06
6.01868263084e-08
3.07798020144e-07
4.70753232234e-07
4.04575570681e-06
8.92031302155e-07
3.19936343793e-06
4.09469957342e-06
3.87920538185e-06
4.24640318928e-06
6.67987870261e-07
9.20186173852e-07
6.39589569606e-07
9.47079186269e-07
8.25083630345e-07
3.53930916836e-07
1.074712955e-06
1.06779243318e-07
1.10914480771e-06
1.68229143408e-06
2.45658634562e-06
1.20668674462e-06
7.78651150272e-07
2.83205817179e-06
2.79648218059e-06
3.80754827774e-07
1.17643526436e-06
1.16111849369e-06
8.40664479013e-07
1.51447422038e-06
5.48309944474e-07
5.76210291668e-07
1.65632491606e-06
1.16969834308e-06
7.31632832913e-07
5.44331825682e-07
1.15543022351e-06
1.39228373782e-06
1.69999775994e-06
7.13348077871e-07
1.33800584133e-06
4.34808180863e-07
3.85537473612e-07
1.85337452635e-06
1.5599815786e-06
1.69783071394e-06
5.52896091735e-06
1.17904160931e-06
3.29013782145e-06
3.19755584808e-06
1.83242373167e-07
1.53960957335e-06
1.41165461339e-05
1.45217528544e-05
1.82523474543e-05
1.40464718956e-05
5.66922608869e-06
9.72754546166e-06
6.0594628258e-07
6.52618782151e-07
4.86555928594e-06
5.42953391754e-07
5.67310269659e-06
1.57761773575e-06
9.05183283484e-07
9.38662708691e-07
9.78105885569e-07
8.95340749516e-06
4.07445538256e-07
8.19197937133e-07
8.53878025117e-07
1.79927063882e-06
3.65858579285e-06
6.66296399439e-07
1.53114145098e-06
1.14143878334e-06
2.21738343885e-06
2.02376409418e-06
8.40267970546e-07
8.79815700402e-07
4.86274199414e-07
1.10289629806e-06
1.66528747984e-06
3.27357995021e-06
9.09924605319e-07
1.18577732737e-06
1.43705568409e-06
1.06746523203e-06
6.68286005332e-06
1.04774166374e-05
1.04883299208e-05
3.7179523107e-06
1.50118954973e-05
2.40139304803e-05
1.32832518505e-05
1.34981953159e-05
3.73972983704e-06
1.15662736858e-05
1.16138580142e-05
8.59379505706e-06
3.75971642972e-06
2.53068805966e-06
1.46181571444e-05
1.66705224657e-05
4.64985931657e-06
2.44124116773e-06
1.46486910865e-05
1.50281046172e-05
6.99283972758e-06
5.82171828602e-06
1.73957488211e-05
2.33659832838e-05
9.30173986353e-06
1.6179735063e-05
3.52607427521e-06
6.78248383008e-06
8.29126791419e-06
2.12834025068e-06
2.53649790834e-06
8.14426957678e-06
9.98640126572e-06
2.95533123289e-06
2.99548691655e-06
6.99462808508e-06
8.68434005296e-06
3.6935309772e-06
4.55260069368e-06
9.36779710059e-06
6.24279279813e-06
3.70823231789e-06
9.88978761222e-07
4.98437543383e-06
6.55030024549e-06
1.30972352855e-06
4.08078267302e-06
5.91517402189e-06
6.86013126703e-06
1.63298004354e-06
4.2198132683e-06
8.32096731017e-06
5.24731778011e-06
3.31394489095e-06
2.45331648359e-06
9.29094234746e-06
6.7769972395e-06
5.7430039783e-06
7.63700042693e-06
1.52095152572e-05
6.85372423722e-06
9.61858943835e-06
4.28636717757e-06
1.31914374625e-05
7.63409267501e-06
8.92435579812e-06
1.06381698459e-05
2.29851384812e-05
1.16511821494e-05
1.32849705216e-05
1.64595167581e-05
1.91113089491e-05
3.92944287938e-05
3.90490419948e-05
2.98695809993e-06
1.58644526617e-05
8.30546041655e-06
5.08152868484e-06
1.67635892955e-06
7.44758633102e-06
6.4367399618e-06
3.28111026935e-06
4.17884840062e-06
1.16946430228e-05
2.94400696922e-06
3.50327328381e-06
1.70313552902e-06
8.64398828589e-06
2.09940948393e-06
3.00972586852e-06
1.42113864052e-06
1.22973948899e-06
2.90506341319e-06
1.13880174011e-05
3.91726573523e-06
8.33344798027e-06
4.22418784587e-06
2.08197585736e-05
9.1317537782e-06
1.55802175563e-05
6.2812498816e-06
3.52253907332e-06
1.0638610351e-05
1.54207624082e-05
4.75894926901e-06
5.25606748185e-06
3.38821314403e-06
1.04973850976e-05
1.81522724355e-06
3.52409463593e-06
1.55410219405e-06
2.27014509493e-06
2.87114261572e-06
6.86292374623e-06
9.31707124644e-07
3.8088933942e-06
7.13767957067e-06
4.37674560533e-06
5.8957668809e-06
2.63320743549e-06
1.06492759458e-05
9.7076466172e-06
2.59191051534e-06
2.77235418536e-06
5.93361843886e-06
4.43050857405e-06
5.42234538191e-06
3.30117402336e-06
4.14606276413e-06
4.45402742613e-06
5.16679351945e-06
3.29594469729e-06
3.46753973087e-06
4.16882928678e-06
5.78745989781e-06
5.11324124412e-06
3.66360435578e-06
3.09465524322e-06
5.66570966106e-06
6.26197354359e-06
5.89628060006e-06
1.30261591909e-06
5.76538321023e-06
5.89590021671e-06
5.04077322946e-06
2.53635960395e-07
1.79885483731e-06
4.95078331599e-06
5.96953200615e-06
2.88387569174e-06
4.63647066637e-06
3.44101724193e-06
2.33274263959e-06
8.2908438336e-07
1.32393172247e-06
2.81648245145e-06
1.42276583841e-06
1.07508238315e-06
2.22206841347e-06
2.07948148102e-06
1.01954044394e-06
1.54627248783e-06
6.16421671646e-07
2.85651427871e-06
1.19801320271e-06
2.30789531482e-06
8.55724573252e-06
7.73843730114e-06
7.82007438274e-06
4.80882632059e-06
4.84408341872e-06
8.06186979175e-06
8.20221066593e-06
8.57681232011e-06
3.13719804749e-06
2.64136321645e-06
4.67554161273e-06
4.61844306347e-06
4.13480388259e-06
1.02551412256e-06
4.4750785086e-06
4.89335537681e-06
4.34232387537e-06
1.22923165494e-06
1.34833463333e-06
3.57807947114e-06
4.28363700017e-06
3.26740118598e-07
3.70352014194e-06
1.46003318307e-06
2.40002780988e-06
2.5840949152e-06
2.27466574152e-06
3.90034232926e-06
4.2115224814e-06
1.78154586018e-06
5.2584509705e-06
3.99995061301e-06
4.74576101734e-06
3.31340762278e-06
4.98238446339e-06
6.33412550041e-06
4.45337895347e-06
4.20007462974e-06
3.96883373799e-06
3.83949962647e-06
5.27107080752e-06
4.47279759754e-06
8.33460548084e-06
7.22165975953e-06
9.88041018792e-06
1.66309891291e-06
6.62622173596e-06
6.11786247548e-06
8.38718707382e-06
1.18314566941e-07
4.01165504823e-06
6.94831910867e-06
3.39899253128e-06
6.31784740154e-06
3.23725406913e-06
2.33601711318e-06
1.05575147084e-05
1.65681629018e-05
4.72613195752e-07
4.00859241675e-06
4.15466487138e-06
1.53315119871e-06
1.54486624446e-06
5.07159672185e-06
6.41667465057e-06
1.8397627682e-06
8.19548538007e-06
7.22989470343e-06
7.30624119935e-06
8.05855852612e-06
2.24548953015e-06
3.77002776956e-07
4.09615775153e-06
3.42160223921e-07
1.0327415917e-06
1.94479648229e-06
5.11130384097e-06
4.02548047012e-06
5.33299221062e-06
2.33768351525e-06
5.29361995303e-06
4.90894182719e-06
4.40820500309e-06
3.68165401826e-07
2.10694917132e-06
4.68741437589e-06
3.64020028209e-06
8.72792327737e-07
4.84728527486e-06
2.02303785244e-06
8.43166886329e-06
7.83097864049e-06
6.66417802695e-06
7.13998015331e-06
3.05948335414e-06
5.24692857625e-07
5.76330930993e-06
3.97931513094e-06
3.61342395271e-06
1.99264287623e-07
3.11694003021e-06
5.33307945587e-06
4.12294507866e-06
9.39880052483e-08
5.8608507039e-06
2.17920718386e-06
5.84502601282e-06
6.03202014951e-06
2.43122201312e-06
3.04923113648e-06
3.7439532879e-07
1.83915454935e-06
2.37339812033e-06
2.22661173017e-07
5.73630054371e-06
5.28202895931e-06
5.79332085399e-06
1.31786217925e-06
5.87401208845e-06
5.80254125078e-06
5.62284279988e-06
7.00677543489e-08
2.46608686937e-06
5.38692699161e-06
5.66072537869e-06
1.41483354808e-06
5.80533821877e-06
3.18604805973e-06
5.20845812332e-06
3.97467513595e-06
1.05648084966e-05
7.9532146556e-06
1.13711488051e-05
5.62603562755e-06
8.27837710103e-06
8.25821588039e-06
1.01168720634e-05
2.46288284376e-06
6.06348269686e-06
8.52767381283e-06
4.83480739724e-06
9.00592798379e-07
6.05985835779e-06
7.97840503004e-07
3.83385661315e-06
6.85099789846e-08
3.73961389021e-06
7.36935173823e-06
5.89828182194e-06
6.0950178458e-06
3.93319029438e-06
6.58474205421e-06
7.21827152447e-06
5.83396551113e-06
5.67197782815e-06
4.90850840755e-06
3.70078810817e-06
3.68072755952e-06
5.94125862936e-06
3.87524938524e-06
2.06701011912e-06
2.16706253397e-06
6.42036691185e-06
1.11909511201e-06
3.92365386113e-07
1.82519369296e-06
8.47001590212e-06
5.57961874862e-06
7.78560491396e-06
6.45524633391e-06
7.48422232498e-07
7.61819564017e-07
4.68181377038e-07
3.7524281098e-07
6.09350130949e-07
3.27807192187e-07
5.46750257331e-06
6.51872173993e-06
1.74712049746e-07
3.28566236066e-06
3.56916332897e-06
4.9630270204e-06
1.00680864687e-05
1.01465668494e-05
1.01732640207e-05
3.37029430168e-07
4.3849954068e-08
4.88691179774e-08
2.53772695476e-08
3.45714631603e-07
9.46060246955e-06
9.61354056151e-06
9.26102189198e-06
1.8043123348e-08
4.38587117392e-07
5.84302846194e-08
1.78572635303e-09
3.64093410248e-08
1.013634295e-07
1.00288899343e-07
8.86586557096e-08
2.6277373975e-08
9.44716014109e-09
1.4791570871e-06
1.30000663988e-06
1.60381597598e-06
4.89411462804e-06
8.69765320574e-06
4.41956645679e-06
7.57024343671e-06
3.37813360953e-06
2.36524159471e-06
2.02225984338e-06
3.17563948023e-06
3.2640296072e-06
5.87104176913e-06
4.7706322305e-06
1.02126221019e-05
1.1186299938e-05
4.8919304537e-07
1.58672233389e-07
6.28583017634e-08
2.23429938637e-07
4.73853791433e-07
8.46670499482e-06
7.69164938305e-06
3.9673204557e-07
1.09243412256e-05
1.73480539424e-05
1.41306264312e-05
5.19789057541e-06
7.12716344715e-06
4.68338452378e-07
3.76721633577e-06
4.4242265748e-06
3.96476481766e-06

