# vtk DataFile Version 3.0
File Name: Molecule/sphere_excent/sphere_excent_0-s5.vtk
ASCII
DATASET UNSTRUCTURED_GRID
FIELD FieldData 1
TIME 1 1 double
0.0
POINTS 1048 double
0.0 -0.5 -0.809016994375
-0.154508497188 -0.25 -0.904508497187
0.154508497188 -0.25 -0.904508497187
-0.309016994375 -0.5 -0.809016994375
-0.154508497188 -0.675325404176 -0.667374053247
-0.417374053247 -0.25 -0.829833901363
-0.559016994375 -0.404508497188 -0.654508497187
-0.667374053247 -0.154508497188 -0.675325404176
0.809016994375 -0.309016994375 -0.5
0.654508497187 -0.559016994375 -0.404508497188
0.559016994375 -0.404508497188 -0.654508497187
0.404508497188 -0.654508497187 -0.559016994375
0.5 -0.809016994375 -0.309016994375
0.850650808352 -0.525731112119 0.0
0.25 -0.829833901363 -0.417374053247
0.154508497188 -0.675325404176 -0.667374053247
0.525731112119 0.0 -0.850650808352
0.417374053247 0.25 -0.829833901363
0.559016994375 0.404508497188 -0.654508497187
0.279508497188 0.664916950682 0.613195523811
0.231762745782 0.587662702088 0.738195523811
0.356762745782 0.577254248593 0.684016994375
0.904508497187 -0.154508497188 -0.25
0.125 0.877579652769 0.340119804654
0.0 0.887988106264 0.394298334089
0.125 0.840242354857 0.471552582683
0.0 0.925325404176 0.26286555606
0.0 0.850650808352 0.525731112119
-0.125 0.840242354857 0.471552582683
-0.125 0.877579652769 0.340119804654
-0.25 0.829833901363 0.417374053247
-0.125 0.914916950682 0.208687026624
-0.25 0.867171199275 0.285941275218
-0.25 0.904508497187 0.154508497188
0.0 0.962662702088 0.13143277803
-0.125 0.952254248593 0.077254248594
-0.375 0.819425447869 0.363195523811
-0.375 0.856762745781 0.231762745782
-0.25 0.904508497187 -0.154508497188
-0.375 0.856762745781 -0.077254248594
-0.25 0.904508497187 0.0
-0.375 0.856762745781 0.077254248594
-0.5 0.809016994375 0.0
-0.375 0.856762745781 -0.231762745782
-0.5 0.809016994375 -0.154508497188
-0.5 0.809016994375 -0.309016994375
-0.5 0.809016994375 0.154508497188
-0.125 0.877579652769 -0.340119804654
-0.25 0.867171199275 -0.285941275218
-0.125 0.914916950682 -0.208687026624
-0.25 0.829833901363 -0.417374053247
-0.5 0.809016994375 0.309016994375
-0.587662702088 0.738195523811 0.231762745782
-0.587662702088 0.738195523811 0.077254248594
-0.675325404176 0.667374053247 0.154508497188
-0.077254248594 0.762988106264 0.596552582683
-0.202254248594 0.752579652769 0.542374053247
-0.154508497188 0.675325404176 0.667374053247
-0.279508497188 0.664916950682 0.613195523811
-0.231762745782 0.587662702088 0.738195523811
-0.404508497188 0.654508497187 0.559016994375
-0.356762745782 0.577254248593 0.684016994375
-0.606762745781 0.481762745782 0.529508497188
-0.559016994375 0.404508497188 0.654508497187
-0.481762745782 0.529508497188 0.606762745781
-0.529508497188 0.606762745781 0.481762745782
-0.684016994375 0.356762745782 0.577254248593
-0.434016994375 0.452254248594 0.731762745781
-0.488195523811 0.327254248594 0.742171199275
-0.363195523811 0.375 0.819425447869
-0.613195523811 0.279508497188 0.664916950682
-0.542374053247 0.202254248594 0.752579652769
-0.667374053247 0.154508497188 0.675325404176
-0.417374053247 0.25 0.829833901363
-0.738195523811 0.231762745782 0.587662702088
-0.809016994375 0.309016994375 0.5
-0.596552582683 0.077254248594 0.762988106264
-0.471552582683 0.125 0.840242354857
-0.525731112119 0.0 0.850650808352
0.25 0.829833901363 0.417374053247
0.202254248594 0.752579652769 0.542374053247
0.077254248594 0.762988106264 0.596552582683
-0.667374053247 -0.154508497188 0.675325404176
-0.738195523811 -0.0772542485935 0.587662702088
-0.809016994375 -0.309016994375 0.5
-0.809016994375 0.0 0.5
0.525731112119 0.0 0.850650808352
0.471552582683 -0.125 0.840242354857
0.596552582683 -0.077254248594 0.762988106264
0.542374053247 -0.202254248594 0.752579652769
0.471552582683 -0.125 -0.840242354857
0.394298334089 0.0 -0.887988106264
0.340119804654 -0.125 -0.877579652769
0.417374053247 -0.25 -0.829833901363
0.26286555606 0.0 -0.925325404176
0.285941275218 -0.25 -0.867171199275
0.208687026624 -0.125 -0.914916950682
0.363195523811 -0.375 -0.819425447869
0.231762745782 -0.375 -0.856762745781
0.309016994375 -0.5 -0.809016994375
0.13143277803 0.0 -0.962662702088
0.077254248594 -0.125 -0.952254248593
0.0 0.0 -1.0
0.667374053247 0.0 0.675325404176
0.596552582683 0.077254248594 0.762988106264
0.559016994375 0.404508497188 0.654508497187
0.488195523811 0.327254248594 0.742171199275
0.613195523811 0.279508497188 0.664916950682
0.542374053247 0.202254248594 0.752579652769
0.417374053247 0.25 0.829833901363
0.667374053247 0.154508497188 0.675325404176
0.434016994375 0.452254248594 0.731762745781
0.363195523811 0.375 0.819425447869
0.309016994375 0.5 0.809016994375
0.471552582683 0.125 0.840242354857
-0.525731112119 0.0 -0.850650808352
-0.596552582683 -0.077254248594 -0.762988106264
-0.596552582683 0.077254248594 -0.762988106264
-0.667374053247 0.0 -0.675325404176
-0.667374053247 0.154508497188 -0.675325404176
-0.738195523811 -0.077254248594 -0.587662702088
-0.738195523811 0.077254248594 -0.587662702088
-0.809016994375 0.0 -0.5
-0.738195523811 -0.231762745782 -0.587662702088
-0.809016994375 -0.154508497188 -0.5
-0.809016994375 -0.309016994375 -0.5
-0.738195523811 0.231762745782 -0.587662702088
-0.809016994375 0.154508497188 -0.5
-0.809016994375 0.309016994375 -0.5
-0.904508497187 0.154508497188 -0.25
-0.904508497187 0.0 -0.25
-1.0 0.0 0.0
-0.904508497187 -0.154508497188 -0.25
-0.840242354857 0.471552582683 -0.125
-0.829833901363 0.417374053247 -0.25
-0.914916950682 0.208687026623 -0.125
-0.819425447869 0.363195523811 -0.375
-0.309016994375 0.5 -0.809016994375
-0.434016994375 0.452254248594 -0.731762745781
-0.356762745782 0.577254248593 -0.684016994375
-0.481762745782 0.529508497188 -0.606762745781
-0.559016994375 0.404508497188 -0.654508497187
-0.404508497188 0.654508497187 -0.559016994375
-0.654508497187 0.559016994375 -0.404508497188
-0.684016994375 0.356762745782 -0.577254248593
-0.363195523811 0.375 -0.819425447869
-0.488195523811 0.327254248594 -0.742171199275
-0.417374053247 0.25 -0.829833901363
-0.542374053247 0.202254248594 -0.752579652769
-0.613195523811 0.279508497188 -0.664916950682
-0.471552582683 0.125 -0.840242354857
0.596552582683 -0.077254248594 -0.762988106264
0.542374053247 -0.202254248594 -0.752579652769
0.613195523811 -0.279508497188 -0.664916950682
0.488195523811 -0.327254248594 -0.742171199275
0.434016994375 -0.452254248594 -0.731762745781
0.208687026624 0.125 -0.914916950682
0.154508497188 0.25 -0.904508497187
0.077254248594 0.125 -0.952254248593
0.231762745782 0.375 -0.856762745781
-0.077254248594 0.125 -0.952254248593
0.0 0.25 -0.904508497187
-0.26286555606 0.0 -0.925325404176
-0.1875 0.83503812811 -0.444463317965
-0.3125 0.861966972528 -0.2588520105
-0.587662702088 0.738195523811 0.0
-0.543831351044 0.773606259093 -0.270389870079
-0.543831351044 0.773606259093 -0.115881372891
-0.587662702088 0.738195523811 -0.231762745782
0.077254248594 0.587662702088 0.738195523811
0.0 0.587662702088 0.738195523811
0.0 0.5 0.809016994375
-0.077254248594 0.587662702088 0.738195523811
0.154508497188 0.5 0.809016994375
0.115881372891 0.543831351044 0.773606259093
0.193135621485 0.543831351044 0.773606259093
0.270389870079 0.543831351044 0.773606259093
0.231762745782 0.5 0.809016994375
-0.154508497188 0.25 0.904508497187
-0.077254248594 0.25 0.904508497187
-0.115881372891 0.3125 0.880635621484
-0.038627124297 0.3125 0.880635621484
0.0 0.25 0.904508497187
-0.077254248594 0.375 0.856762745781
0.038627124297 0.3125 0.880635621484
0.0 0.375 0.856762745781
0.077254248594 0.375 0.856762745781
0.077254248594 0.25 0.904508497187
0.115881372891 0.3125 0.880635621484
0.154508497188 0.25 0.904508497187
-0.115881372891 0.1875 0.92838137289
-0.038627124297 0.1875 0.92838137289
-0.077254248594 0.125 0.952254248593
0.0 0.125 0.952254248593
0.038627124297 0.1875 0.92838137289
0.077254248594 0.125 0.952254248593
-0.038627124297 0.0625 0.976127124296
0.038627124297 0.0625 0.976127124296
0.0 0.0 1.0
0.115881372891 0.1875 0.92838137289
0.115881372891 0.4375 0.832889870078
0.154508497188 0.375 0.856762745781
0.193135621485 0.4375 0.832889870078
0.231762745782 0.375 0.856762745781
0.193135621485 0.3125 0.880635621484
0.270389870079 0.4375 0.832889870078
-0.181597761906 0.1875 0.909712723934
-0.142970637609 0.125 0.933585599637
-0.208687026624 0.125 0.914916950682
-0.170059902327 0.0625 0.938789826385
-0.104343513312 0.0625 0.95745847534
-0.13143277803 0.0 0.962662702088
-0.235776291342 0.0625 0.920121177429
-0.197149167045 0.0 0.943994053132
-0.065716389015 0.0 0.981331351044
0.324568399515 0.3125 0.843298323572
0.285941275218 0.25 0.867171199276
0.37874692895 0.1875 0.853706777066
0.340119804654 0.125 0.87757965277
0.247314150921 0.1875 0.891044074979
0.432925458386 0.0625 0.864115230561
0.170059902327 0.0625 0.938789826385
0.26286555606 0.0 0.925325404176
0.301492680357 0.0625 0.901452528473
0.13143277803 0.0 0.962662702088
0.394298334089 0.0 0.887988106264
-0.432925458386 -0.0625 0.86411523056
-0.394298334089 0.0 0.887988106264
-0.301492680357 -0.0625 0.901452528472
-0.274403415639 -0.125 0.896248301725
-0.235776291342 -0.0625 0.920121177429
-0.26286555606 0.0 0.925325404176
-0.170059902327 -0.0625 0.938789826385
-0.208687026624 -0.125 0.914916950682
-0.142970637609 -0.125 0.933585599637
-0.104343513312 -0.0625 0.95745847534
-0.077254248594 -0.125 0.952254248593
-0.181597761906 -0.1875 0.909712723934
-0.115881372891 -0.1875 0.92838137289
-0.038627124297 -0.0625 0.976127124296
0.077254248594 -0.375 0.856762745781
0.038627124297 -0.3125 0.880635621484
0.0 -0.375 0.856762745781
-0.038627124297 -0.3125 0.880635621484
0.0 -0.25 0.904508497187
-0.077254248594 -0.375 0.856762745781
0.115881372891 -0.3125 0.880635621484
0.077254248594 -0.25 0.904508497187
0.154508497188 -0.25 0.904508497187
-0.077254248594 -0.25 0.904508497187
-0.115881372891 -0.3125 0.880635621484
0.154508497188 -0.375 0.856762745781
0.193135621485 -0.3125 0.880635621484
0.231762745782 -0.375 0.856762745781
[...]
CELL_DATA 2092
SCALARS cell_data_0 double
LOOKUP_TABLE default
2.01903328282e-07
3.86485638448e-06
2.81362407079e-06
2.48607231116e-05
3.59472752667e-05
3.37821736114e-07
9.14486321068e-07
1.17158437372e-06
1.65888075571e-07
1.91950719133e-06
7.20930740764e-07
9.3906728622e-07
4.01693288914e-07
2.92445449171e-06
1.54750017441e-06
8.82888853148e-05
5.26614834591e-05
3.70428295164e-05
3.08728730642e-05
7.52269798325e-05
4.98067273318e-05
4.05337850652e-05
4.35111094813e-05
6.8013656143e-05
3.98735695683e-05
4.02506756175e-05
4.76682496098e-05
3.52798005309e-05
3.35838300687e-05
3.39340423029e-05
5.25104273743e-05
9.08864871429e-05
5.69615759283e-05
7.17309009189e-05
4.4948665815e-05
7.44992866629e-05
6.37390206247e-05
4.99547705073e-05
5.52372460967e-05
8.62367015145e-05
6.99493543207e-05
3.99556933011e-05
2.87394595155e-05
2.94130982789e-05
4.73056931962e-05
7.6428962486e-05
5.2761590659e-05
5.07668907473e-05
2.63801411016e-05
5.52181428286e-05
2.97646475072e-05
3.01330424982e-05
3.33929024112e-05
3.36457309831e-05
2.57898681319e-05
3.4633619164e-05
2.9276037559e-05
3.12551300843e-05
5.18477426606e-05
2.44430288745e-05
3.13110191244e-05
1.88326708681e-05
2.16041689608e-05
3.73394046553e-05
2.7742405265e-05
1.45417428934e-05
2.63695228069e-05
5.92378976583e-05
2.71960672728e-05
4.15487572724e-05
2.30797141349e-05
1.76535446833e-05
1.71095492939e-06
4.09407099946e-05
8.20074304281e-05
3.48632111287e-05
1.35709235333e-05
7.77138378731e-05
4.74899122453e-05
4.94745314054e-05
7.72130167306e-05
0.000118772458508
1.36191734389e-06
2.04516280861e-05
3.04921129436e-05
6.62707359072e-05
5.21447922643e-05
6.05295844134e-05
4.66817434104e-05
4.29638423654e-05
1.35638124712e-05
4.31446040421e-05
2.62771310771e-05
1.45636946748e-05
6.52539380625e-06
7.1833641451e-06
1.42213353873e-05
3.34866644668e-06
3.17086758109e-06
1.39435239793e-06
8.90113407653e-08
3.09957990022e-06
6.2302491925e-08
3.99826736992e-06
5.01350052748e-06
2.9701752522e-06
4.12379677549e-06
4.54539697481e-06
3.12660155823e-06
3.50437148517e-06
4.86844282343e-06
5.34337586058e-06
4.58036298743e-06
3.52511355046e-06
4.25744593463e-06
3.94573982569e-06
3.49661081602e-06
6.39773825173e-07
7.15925779605e-07
3.12490986318e-07
2.83210775275e-07
2.00255612492e-06
1.0666919079e-05
2.00832436703e-05
5.857831886e-06
1.72280432824e-06
1.79939856582e-06
5.1064450704e-07
8.04554364713e-06
6.41227746087e-06
8.92057261865e-06
1.68304555083e-05
1.92775292762e-06
5.56626193865e-06
3.70070720279e-06
1.39914590329e-05
1.96785848919e-06
1.3868081272e-05
9.7995956785e-06
1.15799751373e-05
1.9084049109e-06
3.66117992097e-06
1.21354465514e-05
4.85389156258e-06
2.90488314652e-06
2.72039946691e-06
8.2018652261e-06
1.12091800871e-05
2.8869723517e-05
2.72352550405e-05
1.51514269526e-05
2.54197670166e-06
5.50388665228e-06
9.77157418233e-06
1.50432789582e-06
9.07289524852e-07
4.44204513377e-06
1.00215806623e-05
1.49954867221e-06
7.07619870559e-07
8.32072717615e-07
5.31532687536e-06
1.62677921812e-06
5.89355636967e-07
1.76944522503e-06
2.43028634726e-07
1.25520933306e-05
3.82087896567e-05
3.89162082986e-05
2.08759059187e-05
7.33310487958e-07
4.44699881724e-07
5.90925263024e-06
1.22047061346e-05
4.6216622843e-06
4.53905087713e-07
6.90369140065e-06
3.94578903441e-06
2.80417799472e-07
2.33617329923e-05
5.16882269264e-05
1.56819876376e-05
6.88848039719e-07
8.03583977927e-06
6.18663490186e-07
1.87676931211e-06
6.83745513713e-07
5.32545106769e-07
2.41274486214e-06
6.51165363567e-07
6.01831361413e-07
3.07319471299e-06
6.35126258066e-06
1.05151485409e-05
1.15337863861e-05
8.93500205794e-06
1.95511098138e-07
1.2078689342e-05
3.22959733427e-06
3.58171624126e-06
4.02800079979e-06
3.73878611159e-06
1.16588045936e-06
1.26473854691e-06
1.37606153229e-06
1.12682024048e-06
4.87722139885e-06
4.95747395172e-06
5.18816036391e-06
3.72279399587e-06
4.74361588758e-06
4.66673088946e-06
3.92551439572e-06
3.8791569091e-06
4.43252637617e-06
4.36014072612e-06
4.64713891757e-06
3.689550494e-06
7.8541512289e-06
4.98054247611e-06
4.7277509275e-06
2.89574025417e-06
4.58091255713e-06
2.57912594102e-06
3.45134123514e-06
3.01954167077e-06
3.40530753056e-06
1.92805495746e-06
2.12180182053e-06
2.06004200497e-06
3.84024617182e-06
3.43325332122e-06
4.74772110737e-06
6.36427211303e-06
5.37030297077e-06
1.2528094084e-06
1.14108701378e-06
1.2371694091e-06
1.18367244966e-06
2.42933634234e-06
2.38813264912e-06
4.01985183439e-06
1.25361874742e-06
1.535747238e-06
1.47713000771e-06
1.09679272753e-06
1.62118259111e-06
3.74839810209e-06
2.84335354749e-06
3.46844511231e-06
4.03173753295e-06
3.45632908898e-06
3.07247695641e-06
3.79716257038e-06
3.72133159027e-06
2.16245772832e-06
3.66750743166e-06
3.63847781093e-06
3.01829271718e-06
2.78889393571e-06
3.04541952507e-06
2.87467957426e-06
2.93364857283e-06
3.60486576814e-06
3.84940522432e-06
2.91197195424e-06
3.11174976176e-06
2.52640597561e-06
3.07149900524e-06
6.74995410946e-06
1.99806113036e-06
3.44360120752e-06
3.80720615566e-06
2.89843488552e-06
5.56008419035e-06
3.721153985e-06
4.80271705147e-06
4.91405290683e-06
4.71226933974e-06
3.47584096681e-06
3.20517789486e-06
4.72824579528e-06
4.18275120258e-06
3.62596792508e-06
3.96432561555e-06
4.62384891386e-06
4.24355133956e-06
4.08614795588e-06
4.57034562259e-06
4.39945344836e-06
3.84950865525e-06
3.62507319989e-06
4.49274452122e-06
3.83051956056e-06
3.33984121074e-06
3.75936533418e-06
3.06226363579e-06
3.42936685302e-06
4.00829291489e-06
5.05888140906e-06
5.06169214069e-06
4.2071840508e-06
4.11514497082e-06
4.59284639224e-06
4.01403327237e-06
4.26422549154e-06
4.86539613659e-06
5.23454731373e-06
2.84955041011e-06
2.94693006984e-06
1.49755719912e-06
3.49954512441e-06
4.97826388208e-06
4.59978091625e-06
4.18540186018e-06
3.06552795082e-06
2.76191324763e-06
3.48787064246e-06
3.17940088156e-06
3.03522245059e-06
3.49651157025e-06
3.34584416747e-06
3.5487107265e-06
3.7065299275e-06
3.455933725e-06
2.97794846861e-06
4.72983193081e-06
4.17525057925e-06
7.39312168252e-06
5.32453470454e-06
2.11624016307e-06
5.927051884e-06
2.37844027204e-07
2.25283524338e-06
2.64324751708e-06
5.26201777217e-06
7.06906389411e-06
8.97993419641e-06
2.08244131179e-06
1.79128300475e-06
2.11187889118e-06
9.65500689456e-07
1.15116853893e-05
1.44176048159e-05
6.81342428975e-06
7.26088805382e-06
1.69593827976e-06
8.07606321979e-06
1.75296546563e-05
1.51069095019e-05
1.10315516312e-05
1.41021327271e-05
1.22999335832e-05
5.70513446662e-06
1.7516676978e-05
1.57057142305e-05
1.27727188722e-05
1.17847831345e-05
6.4303994703e-06
3.55676802286e-06
2.03808185357e-05
2.67788697266e-05
3.10237974931e-06
3.82786107258e-05
5.48702226156e-05
2.69531221346e-05
8.8210824496e-05
0.000142895488271
7.38864405949e-05
6.13377754406e-05
5.15774015919e-05
8.31302838948e-05
3.22853855471e-05
4.77853148662e-05
5.68508722834e-05
4.71731418996e-05
4.01407684077e-05
5.63505332713e-05
1.77643541428e-05
3.23219736689e-05
1.78389113396e-05
1.65250898675e-05
1.09390362978e-05
1.71262358606e-05
7.09619849224e-06
9.32022120202e-06
7.04991929117e-06
1.69680459852e-05
1.2310220693e-05
9.04412508327e-06
1.17706259099e-05
1.81018609236e-05
1.03457855639e-05
8.32816236049e-06
8.17810305948e-06
1.39851866143e-05
1.07227825063e-05
4.21340921697e-06
7.22243404803e-06
1.36106428389e-05
6.7563730951e-06
8.7189695985e-06
9.63140859763e-06
2.00119535094e-05
1.41848165094e-05
1.07961679951e-05
7.59381604804e-06
8.00404185495e-06
9.3539833059e-06
1.39690218059e-05
8.28275475205e-06
3.94812259052e-06
8.40282848158e-07
4.04359468106e-07
6.93766677607e-07
3.30763277554e-07
9.84579097938e-07
1.06585873577e-06
8.54660582975e-07
1.03418540314e-06
1.27619676715e-05
2.84556658351e-05
1.29847104342e-05
1.73481785366e-05
3.24207978414e-06
1.42350890045e-05
2.15400835861e-06
1.72156715601e-05
3.49272295181e-06
2.18462769903e-06
4.66347427876e-07
8.35000094568e-07
6.08529386513e-06
4.35507059619e-06
4.08379661859e-06
5.89877119576e-06
3.58471576046e-06
2.74207752001e-06
4.22450154385e-06
1.81742028909e-06
4.14967463282e-06
3.69947349253e-06
2.85313261075e-06
5.62578415499e-06
2.86582658602e-06
3.17995016982e-06
2.74417446792e-06
4.65706653717e-06
2.40092667951e-06
2.66159728919e-06
1.15673172508e-06
1.98624077944e-06
3.99606301646e-06
2.79130873743e-06
2.16917547286e-06
1.79566126175e-06
3.37281374466e-06
3.19118987228e-06
2.85678610695e-06
2.43320232236e-06
2.10834544115e-06
2.35447806417e-06
1.46422729729e-07
2.28164817875e-06
1.62073534734e-06
1.99736947626e-06
1.95602069241e-06
5.98989310171e-07
1.8939538436e-06
1.8745206341e-06
1.43339568003e-06
6.98592807622e-07
1.14674478653e-05
1.01661369194e-05
1.58392096635e-06
1.26049995221e-05
1.40679417887e-06
5.60481658819e-06
8.97973075778e-06
7.05299496308e-06
2.79622088839e-06
1.40305309126e-06
5.91915075576e-07
9.52233311563e-07
4.1289551766e-07
4.06697551031e-07
7.41322063741e-07
7.31403276004e-07
4.00034884626e-06
4.03997019882e-06
6.42393221213e-07
9.65937126801e-07
4.1363454743e-07
7.57503315535e-07
2.2955355227e-06
2.36772953249e-06
1.05490679153e-06
1.95833189336e-06
9.33113834193e-07
1.69860091348e-06
7.76826200251e-06
6.21305175169e-06
4.54591042897e-06
1.23250777342e-05
8.64454038869e-06
3.74695389773e-06
4.67322335819e-06
5.74816894377e-06
1.53681416856e-06
2.75105918953e-06
2.60136967161e-06
3.1584222365e-06
2.58430019551e-06
2.85821641951e-06
1.97214101424e-06
3.36017383368e-06
9.41604439839e-06
1.42893929913e-06
6.73065413691e-06
6.58383773819e-06
3.23509047259e-06
2.83918818561e-06
2.91035143151e-06
1.7362494276e-06
1.82325311386e-06
2.44447982351e-06
1.87277643334e-06
1.27674859885e-06
3.18975823352e-06
2.77825968628e-06
3.46347056266e-06
2.18447187454e-06
3.92725273179e-06
4.55604660204e-06
5.04204516337e-06
3.9472537086e-06
6.51764745124e-07
2.69399242329e-06
1.78838049657e-06
1.39949796444e-06
1.21647515142e-06
1.72523884087e-06
3.43334994399e-06
8.75481382841e-07
2.79250271086e-06
2.83608265349e-06
2.00899430154e-06
1.33335094096e-06
1.71505061013e-06
2.46157089987e-06
1.84834191721e-06
1.553646026e-06
2.72927302633e-06
3.62077416473e-06
2.7376459161e-06
3.77247513548e-06
1.82333372302e-05
6.09249592484e-05
8.41740918657e-06
1.34590469789e-05
5.67717259033e-06
3.85926660952e-06
7.92548150453e-06
6.12909549525e-06
7.10029031521e-06
8.72767534237e-06
7.86934630303e-07
2.70158456801e-06
5.58499346027e-06
3.36504247917e-06
2.50420775394e-07
3.35589410234e-06
5.97866010197e-07
8.0400543426e-07
1.32519178077e-06
1.42470175344e-06
1.44328143375e-06
1.58419418939e-06
1.27212387067e-06
1.31155727523e-06
1.10119375072e-06
1.31545900652e-06
1.31163776946e-06
1.19118361873e-06
1.11770404334e-06
1.35397448351e-06
1.29358143801e-06
1.32607825527e-06
1.28786771606e-06
1.53829159751e-06
1.39603474242e-06
3.12146945651e-06
1.39806219047e-06
1.25295235865e-06
9.45063018923e-07
1.47320797323e-06
1.12763670764e-06
1.31698166914e-06
1.24901805836e-06
1.3834200754e-06
1.0986500014e-06
1.42883538293e-06
2.58882957042e-06
1.38692052848e-06
2.42602374284e-06
1.16928833948e-06
1.08798849341e-06
1.35871300145e-06
1.18395808131e-06
1.25582549119e-06
1.26553635855e-06
1.20294566781e-06
1.9523938977e-06
1.98411417982e-06
1.98718807024e-06
1.82278978515e-06
2.08201175786e-06
1.92825504173e-06
1.69227702273e-06
1.84682167467e-06
1.94729889677e-06
1.91948730536e-06
3.4625334275e-06
1.7195432813e-06
1.28082630685e-06
1.43369075811e-06
1.48183992287e-06
1.15486681011e-06
1.1634573141e-06
1.37694441226e-06
1.39389006641e-06
1.24260994547e-06
1.52813988846e-06
1.76981258885e-06
1.86868735474e-06
1.78011765579e-06
1.64760132664e-06
1.94483140994e-06
3.55466827055e-06
1.82147493615e-06
1.81372451271e-06
1.84133626718e-06
1.55802604328e-06
2.01088500744e-06
1.75040920118e-06
2.45200992367e-06
2.76127631273e-06
9.09338360154e-07
3.9885568264e-08
1.16456077502e-06
2.67289913673e-06
6.67166911998e-07
1.77052831206e-06
1.70698840251e-06
1.59176036451e-06
1.50754382099e-06
1.6596183955e-06
1.64398677878e-06
1.34001815235e-06
1.4127871018e-06
1.35165556573e-06
1.44871287338e-06
1.24735446945e-06
1.41021733338e-06
2.69669858392e-06
2.198343661e-06
1.33231716471e-06
1.54578175212e-06
7.92127058174e-08
7.76553964897e-08
8.1423204476e-08
2.95547154854e-06
2.454678381e-06
2.39104739472e-06
1.68764934861e-06
2.13168853159e-06
1.23799023363e-06
1.16255445197e-06
1.69694543689e-06
2.17127246237e-06
3.74268275399e-05
3.3515863801e-05
1.36725965074e-07
2.91148507794e-07
8.0596735624e-08
3.84626238877e-07
1.2649450471e-07
1.65034663032e-07
6.66982204316e-09
1.7040911612e-07
5.74606493442e-07
3.70593695688e-07
3.06222233155e-07
2.3584867723e-07
4.63765054764e-06
5.06684738271e-06
4.18074042173e-06
3.6134331803e-07
4.61331876941e-06
4.56834411618e-06
4.45517992685e-06
3.14571362116e-07
2.7276122965e-07
5.29337348247e-06
5.01309959755e-06
2.43452548623e-07
5.34951702713e-06
1.64545864328e-07
3.79694792885e-07
4.05609047588e-07
4.38567573123e-06
3.53521229462e-06
4.65206922729e-06
4.23231183173e-07
5.07595798208e-06
3.49276749463e-06
5.78777526912e-06
8.44558411627e-08
7.90619079286e-07
5.47272162881e-06
3.51660634919e-06
6.94131025096e-07
4.53758568874e-06
6.98311608831e-07
9.42846384858e-07
1.95669614334e-07
6.25214876042e-06
6.73083952764e-06
5.64340337947e-06
1.8561516913e-07
2.75012593801e-06
6.63760031029e-06
6.21785144397e-06
1.70262087508e-07
4.33792696432e-07
3.0032519364e-06
5.71952080395e-06
6.38098773759e-07
2.6644288768e-06
7.68034459295e-07
1.52514017941e-06
1.32568702058e-06
6.2210676646e-06
6.36024130993e-06
6.01373531604e-06
1.30994273482e-06
1.59997296083e-05
6.44489589027e-06
5.32217144074e-06
9.53796708624e-07
3.75856669496e-07
1.61698449579e-05
5.93540861912e-06
5.34057471535e-07
1.45443654852e-05
4.20930584186e-07
2.22986904242e-06
2.10462705613e-06
1.53418372156e-05
8.38952392552e-06
1.54586719703e-05
1.57638287941e-06
1.31075097575e-05
8.65018263579e-06
1.6987232821e-05
6.68725566113e-07
7.08146486092e-08
1.60657057384e-05
8.74057656758e-06
1.83129946301e-06
1.41103610723e-05
1.72196692235e-06
1.29288968692e-06
1.30894353095e-06
1.2139851839e-05
1.29946653082e-05
1.1640233546e-05
1.1061176994e-06
4.52579244928e-06
1.43708030513e-05
1.40533653009e-05
3.97621303095e-07
1.3427332612e-07
5.30826873741e-06
1.55072036134e-05
7.0266362727e-07
5.17425114744e-06
5.31537084157e-07
6.31337389397e-07
1.00880770011e-08
1.43732307069e-05
5.10403698611e-06
1.36226526944e-05
1.3238053674e-07
5.14062412733e-06
5.20536380653e-06
1.41408329656e-05
2.44172339933e-07
9.79141115079e-07
5.94030049412e-06
5.05151522553e-06
2.15202798412e-07
4.78890803972e-06
2.54685206831e-07
2.6336675731e-06
2.56724864465e-06
2.12345645792e-07
3.4765318629e-06
5.48933767106e-06
4.71889629414e-06
8.23840014351e-08
4.84463059195e-06
6.06391123512e-07
7.61950897036e-07
1.26915932466e-05
5.36423504871e-07
2.3166698611e-06
2.57291839766e-06
1.24124385484e-05
3.07619518138e-06
3.19841242227e-06
2.70042848125e-06
9.59211273804e-06
2.76277963033e-06
1.73121328588e-06
1.57065829164e-06
9.36591575901e-06
1.30023739355e-06
2.28054911273e-09
1.20632822446e-08
3.80596280197e-06
3.5095499192e-06
3.76412401721e-06
1.79524256493e-09
5.01877197188e-06
3.44805248338e-06
3.84490050337e-06
2.86248859466e-08
1.63595685594e-07
5.18172636762e-06
3.61927706432e-06
6.7469321403e-08
5.26225460165e-06
1.11928472025e-07
2.05935291811e-07
9.81432073589e-08
4.56207143145e-06
5.42423601437e-06
4.44112543059e-06
9.48218979727e-08
3.88099137552e-06
5.57787433225e-06
5.09072266666e-06
5.37842720675e-07
5.84189894172e-07
4.49284393386e-06
5.58893641682e-06
3.40876665952e-07
4.5631550914e-06
3.16681417803e-07
2.69099580087e-07
4.67259879643e-07
6.21877147702e-06
5.50228296859e-06
6.8711482952e-06
1.02250427032e-06
6.04468616962e-06
6.21893338758e-06
6.01554394285e-06
6.29232984113e-07
3.18951054057e-07
6.05084995868e-06
5.9173338289e-06
1.00137490812e-06
6.30251408159e-06
6.74547822536e-07
6.26094007149e-07
1.12506463119e-06
5.50854377334e-06
8.21967693135e-06
5.2136886456e-06
7.19032503184e-07
5.43140404397e-06
7.64054241331e-06
4.95248590611e-06
6.75546325036e-07
5.24042405914e-07
5.65009034812e-06
6.74284955164e-06
3.41411739844e-07
5.34581669844e-06
1.76187114892e-07
6.60763902577e-07
1.15451984074e-06
1.20596134624e-05
9.87776599894e-07
9.46715087692e-08
3.01414387368e-07
1.24473251305e-05
6.74795003013e-08
1.57242843157e-07
1.95580764018e-07
7.31803433745e-06
6.53254953679e-06
6.78445618106e-06
3.58094648199e-08
4.86892944167e-06
6.24678920515e-06
6.93686155053e-06
1.25478198078e-07
1.68129464252e-07
5.11258228424e-06
6.62867758652e-06
5.72238936289e-08
4.60722956077e-06
9.26293685001e-09
8.19786625258e-08
3.62286551262e-08
3.75987064136e-06
4.83153724207e-06
3.59149548237e-06
2.19257478547e-07
5.10155918676e-06
5.83848776668e-06
4.79008351451e-06
9.11703869245e-07
1.12419662158e-06
5.28399468763e-06
5.84913872822e-06
1.17329807607e-06
7.32430388114e-06
3.9902117076e-07
3.45011533077e-07
5.35547124707e-07
3.30101016893e-06
4.52777533428e-06
3.35220962939e-06
9.18182529147e-07
6.10013268028e-06
5.26398534308e-06
3.15088766709e-06
1.87671096962e-06
1.05832596414e-06
8.10366872714e-06
5.77224724526e-06
1.71981509802e-06
7.01422569768e-06
1.39294164666e-06
4.46408506185e-07
2.62322964844e-06
1.63315677481e-05
3.61708293773e-07
1.56248998125e-05
4.89913185402e-06
2.40325883557e-06
2.07143335562e-06
9.0617934974e-08
2.67255773692e-07
3.99573789728e-06
6.82085366188e-06
4.93409612694e-06
7.28191949726e-07
3.69260376789e-06
7.02376286355e-06
4.56658911029e-06
7.65219626355e-07
4.05127622748e-07
4.06147565689e-06
6.52710552567e-06
6.92822483604e-07
3.91138616148e-06
5.01373542615e-07
6.68711048272e-07
1.29395751305e-06
4.65855897625e-06
4.36602179444e-06
4.69741711764e-06
1.43524869677e-06
3.45506130007e-06
4.51515106972e-06
4.97830225729e-06
1.40546231114e-06
1.13653523218e-06
3.17877793032e-06
4.43911960225e-06
1.64234594624e-06
3.79068323861e-06
1.01976066594e-06
5.98786499345e-07
1.07327139794e-06
8.16955810865e-06
4.4806328172e-06
8.24939021664e-06
1.06214740246e-06
3.26165699244e-06
4.42451724544e-06
7.32863902546e-06
7.29218970879e-07
3.07655920097e-07
3.38400899541e-06
4.87530201344e-06
1.17112316001e-06
2.98659177617e-06
9.8066272474e-07
8.90499021225e-07
1.19257256045e-06
3.38290181555e-06
2.91484409103e-06
2.992738236e-06
7.84407491471e-07
3.80600473901e-06
2.69455361725e-06
3.10728873772e-06
7.78756825832e-07
6.06422357093e-07
3.70242291916e-06
2.43994480295e-06
5.05684154815e-07
3.54057645421e-06
1.99894898098e-07
9.38662535166e-07
1.10905809997e-06
2.15727360725e-06
4.56964184939e-07
6.9249504101e-07
3.36913821184e-06
4.11906843566e-06
2.58001250295e-06
1.31295698174e-06
3.37266128245e-06
1.05704057087e-05
2.88899892527e-06
9.65046205517e-06
5.3683786269e-06
1.00309104072e-05
5.46976461497e-06
1.48768300237e-05
1.43320492438e-05
4.34214148416e-06
5.05334398362e-06
1.10597415869e-05
2.11794648438e-06
2.25978427254e-06
5.69891429442e-06
9.74846669207e-06
1.1854923547e-05
1.38731462797e-05
1.22891974447e-05
1.71986411317e-05
1.51801561826e-05
1.14745119544e-05
9.12434176283e-06
3.65424927933e-06
1.61980399295e-05
2.15662482917e-05
2.29128632254e-05
1.28715795442e-05
3.22121076976e-05
3.49273350905e-05
2.5597288014e-05
1.58914953568e-05
1.41754708457e-05
7.53244098231e-06
1.3664178362e-05
2.36336967519e-05
2.5613149038e-05
1.14087706022e-05
1.16204480678e-05
1.20820244062e-05
8.48577214279e-06
8.28908968483e-06
1.71226327633e-05
1.65267049711e-05
1.74336398569e-05
2.07276448706e-05
1.83907028182e-05
2.13893288634e-05
1.46382408338e-05
3.38124641895e-05
3.03210763525e-05
1.80863519027e-05
2.6005002275e-05
2.58813491978e-05
3.48679064359e-05
1.99101216955e-06
3.34870137062e-06
4.31805434382e-06
8.96938876735e-06
4.24689681699e-06
9.5662210815e-07
2.55513226195e-06
5.23530344996e-06
3.37704626972e-06
2.43207500014e-07
2.46000234508e-07
2.09006715463e-06
1.15905435234e-05
7.82638554822e-06
1.05545523464e-05
4.63611255958e-06
6.81633317963e-06
3.6266085382e-06
1.97367904984e-06
7.04107018142e-07
1.37789193234e-06
7.53298152646e-07
5.32763158054e-06
6.69664707707e-06
2.98194306671e-06
4.59098928303e-06
5.25472047969e-06
7.47806465283e-06
1.68852644546e-06
4.45603278044e-07