# vtk DataFile Version 3.0
File Name: Molecule/sphere_dip/sphere_dip_0-s3.vtk
ASCII
DATASET UNSTRUCTURED_GRID
FIELD FieldData 1
TIME 1 1 double
0.0
POINTS 251 double
-0.525731112119 0.0 -0.850650808352
-0.809016994375 -0.309016994375 -0.5
-0.809016994375 0.309016994375 -0.5
-0.850650808352 -0.525731112119 0.0
-1.0 0.0 0.0
-0.5 -0.809016994375 -0.309016994375
-0.5 -0.809016994375 0.309016994375
0.0 -1.0 0.0
0.0 -0.850650808352 0.525731112119
0.850650808352 0.525731112119 0.0
0.5 0.809016994375 0.0
0.5 0.809016994375 0.309016994375
0.5 0.809016994375 -0.309016994375
0.25 0.904508497187 -0.154508497188
0.25 0.904508497187 0.154508497188
0.0 1.0 0.0
0.0 0.850650808352 -0.525731112119
0.25 0.829833901363 0.417374053247
0.0 0.925325404176 0.26286555606
0.0 0.850650808352 0.525731112119
-0.25 0.829833901363 0.417374053247
-0.25 0.904508497187 0.154508497188
-0.25 0.904508497187 -0.154508497188
-0.154508497188 0.675325404176 0.667374053247
-0.404508497188 0.654508497187 0.559016994375
0.309016994375 0.5 0.809016994375
0.154508497188 0.25 0.904508497187
0.417374053247 0.25 0.829833901363
0.26286555606 0.0 0.925325404176
0.525731112119 0.0 0.850650808352
-0.525731112119 0.0 0.850650808352
-0.417374053247 -0.25 0.829833901363
-0.26286555606 0.0 0.925325404176
0.417374053247 -0.25 0.829833901363
0.667374053247 -0.154508497188 0.675325404176
0.559016994375 -0.404508497188 0.654508497187
0.809016994375 -0.309016994375 0.5
0.309016994375 -0.5 0.809016994375
0.404508497188 -0.654508497187 0.559016994375
0.654508497187 -0.559016994375 0.404508497188
0.5 -0.809016994375 0.309016994375
0.809016994375 0.0 0.5
0.667374053247 0.154508497188 0.675325404176
0.809016994375 0.309016994375 0.5
0.654508497187 0.559016994375 0.404508497188
0.404508497188 0.654508497187 0.559016994375
0.559016994375 0.404508497188 0.654508497187
0.154508497188 0.675325404176 0.667374053247
-0.417374053247 0.25 -0.829833901363
-0.154508497188 0.25 -0.904508497187
-0.309016994375 0.5 -0.809016994375
0.0 0.5 -0.809016994375
-0.26286555606 0.0 -0.925325404176
0.809016994375 -0.309016994375 -0.5
0.809016994375 0.0 -0.5
0.904508497187 -0.154508497188 -0.25
0.904508497187 0.154508497188 -0.25
0.809016994375 0.309016994375 -0.5
1.0 0.0 0.0
0.667374053247 -0.154508497188 -0.675325404176
0.667374053247 0.154508497188 -0.675325404176
0.525731112119 0.0 -0.850650808352
0.925325404176 0.26286555606 0.0
0.829833901363 0.417374053247 -0.25
0.675325404176 0.667374053247 -0.154508497188
0.654508497187 0.559016994375 -0.404508497188
0.559016994375 0.404508497188 -0.654508497187
0.404508497188 0.654508497187 -0.559016994375
0.309016994375 0.5 -0.809016994375
0.417374053247 0.25 -0.829833901363
0.25 0.829833901363 -0.417374053247
0.154508497188 0.675325404176 -0.667374053247
-0.904508497187 0.154508497188 -0.25
-0.829833901363 0.417374053247 -0.25
-0.925325404176 0.26286555606 0.0
-0.850650808352 0.525731112119 0.0
-0.404508497188 0.654508497187 -0.559016994375
-0.5 0.809016994375 -0.309016994375
-0.559016994375 0.404508497188 -0.654508497187
-0.654508497187 0.559016994375 -0.404508497188
-0.25 -0.904508497187 -0.154508497188
-0.25 -0.829833901363 -0.417374053247
0.0 -0.925325404176 -0.26286555606
0.0 -0.850650808352 -0.525731112119
-0.654508497187 -0.559016994375 0.404508497188
-0.809016994375 -0.309016994375 0.5
-0.404508497188 -0.654508497187 0.559016994375
-0.559016994375 -0.404508497188 0.654508497187
-0.309016994375 -0.5 0.809016994375
-0.809016994375 0.309016994375 0.5
-0.904508497187 0.154508497188 0.25
-0.809016994375 0.0 0.5
-0.904508497187 -0.154508497188 0.25
-0.309016994375 -0.5 -0.809016994375
-0.404508497188 -0.654508497187 -0.559016994375
-0.559016994375 -0.404508497188 -0.654508497187
-0.654508497187 -0.559016994375 -0.404508497188
-0.154508497188 -0.675325404176 -0.667374053247
0.25 -0.829833901363 -0.417374053247
0.25 -0.904508497187 -0.154508497188
0.5 -0.809016994375 -0.309016994375
0.5 -0.809016994375 0.0
0.25 -0.904508497187 0.154508497188
0.417374053247 -0.25 -0.829833901363
0.559016994375 -0.404508497188 -0.654508497187
0.309016994375 -0.5 -0.809016994375
0.654508497187 -0.559016994375 -0.404508497188
0.404508497188 -0.654508497187 -0.559016994375
0.829833901363 -0.417374053247 -0.25
0.675325404176 -0.667374053247 -0.154508497188
0.850650808352 -0.525731112119 0.0
0.154508497188 -0.675325404176 -0.667374053247
0.962662702088 -0.13143277803 0.0
0.867171199276 -0.285941275218 -0.25
0.925325404176 -0.26286555606 0.0
0.887988106264 -0.394298334089 0.0
-0.375 0.856762745781 0.231762745782
-0.5 0.809016994375 0.309016994375
-0.25 0.904508497187 0.0
-0.375 0.856762745781 -0.077254248594
-0.375 0.856762745781 0.077254248594
-0.5 0.809016994375 0.0
-0.375 0.856762745781 -0.231762745782
-0.5 0.809016994375 -0.154508497188
-0.5 0.809016994375 0.154508497188
-0.587662702088 0.738195523811 0.231762745782
-0.587662702088 0.738195523811 0.077254248594
-0.675325404176 0.667374053247 0.154508497188
-0.587662702088 0.738195523811 -0.077254248594
-0.675325404176 0.667374053247 0.0
-0.675325404176 0.667374053247 -0.154508497188
-0.587662702088 0.738195523811 -0.231762745782
-0.762988106264 0.596552582683 0.077254248594
-0.762988106264 0.596552582683 -0.077254248594
-0.452254248594 0.731762745781 0.434016994375
-0.356762745782 0.577254248593 0.684016994375
-0.309016994375 0.5 0.809016994375
-0.577254248593 0.684016994375 0.356762745782
-0.529508497188 0.606762745781 0.481762745782
-0.654508497187 0.559016994375 0.404508497188
-0.606762745781 0.481762745782 0.529508497188
-0.481762745782 0.529508497188 0.606762745781
-0.559016994375 0.404508497188 0.654508497187
-0.731762745781 0.434016994375 0.452254248594
-0.684016994375 0.356762745782 0.577254248593
-0.434016994375 0.452254248594 0.731762745781
-0.664916950682 0.613195523811 0.279508497188
-0.752579652769 0.542374053247 0.202254248594
-0.742171199275 0.488195523811 0.327254248594
-0.829833901363 0.417374053247 0.25
-0.840242354857 0.471552582683 0.125
-0.819425447869 0.363195523811 0.375
-0.363195523811 0.375 0.819425447869
-0.488195523811 0.327254248594 0.742171199275
-0.417374053247 0.25 0.829833901363
-0.613195523811 0.279508497188 0.664916950682
-0.542374053247 0.202254248594 0.752579652769
-0.667374053247 0.154508497188 0.675325404176
-0.738195523811 0.231762745782 0.587662702088
-0.471552582683 0.125 0.840242354857
-0.596552582683 0.077254248594 0.762988106264
0.0 0.675325404176 0.667374053247
-0.077254248594 0.587662702088 0.738195523811
0.077254248594 0.587662702088 0.738195523811
0.0 0.5 0.809016994375
-0.154508497188 0.25 0.904508497187
-0.077254248594 0.375 0.856762745781
0.0 0.25 0.904508497187
0.077254248594 0.375 0.856762745781
-0.077254248594 0.125 0.952254248593
0.077254248594 0.125 0.952254248593
0.0 0.0 1.0
-0.208687026624 0.125 0.914916950682
-0.13143277803 0.0 0.962662702088
0.208687026624 0.125 0.914916950682
0.13143277803 0.0 0.962662702088
-0.154508497188 -0.25 0.904508497187
-0.208687026624 -0.125 0.914916950682
-0.231762745782 -0.375 0.856762745781
-0.077254248594 -0.125 0.952254248593
-0.154508497188 -0.5 0.809016994375
-0.077254248594 -0.375 0.856762745781
0.0 -0.5 0.809016994375
0.077254248594 -0.375 0.856762745781
0.0 -0.25 0.904508497187
0.154508497188 -0.25 0.904508497187
0.154508497188 -0.5 0.809016994375
0.231762745782 -0.375 0.856762745781
0.077254248594 -0.125 0.952254248593
0.208687026624 -0.125 0.914916950682
0.285941275218 -0.25 0.867171199275
0.340119804654 -0.125 0.877579652769
0.363195523811 -0.375 0.819425447869
0.577254248593 -0.684016994375 0.356762745782
0.731762745781 -0.434016994375 0.452254248594
0.819425447869 -0.363195523811 0.375
0.742171199275 -0.488195523811 0.327254248594
0.829833901363 -0.417374053247 0.25
0.664916950682 -0.613195523811 0.279508497188
0.752579652769 -0.542374053247 0.202254248594
0.675325404176 -0.667374053247 0.154508497188
0.587662702088 -0.738195523811 0.231762745782
0.840242354857 -0.471552582683 0.125
0.762988106264 -0.596552582683 0.077254248594
0.231762745782 -0.375 -0.856762745781
0.340119804654 -0.125 -0.87757965277
0.154508497188 -0.25 -0.904508497187
0.26286555606 0.0 -0.925325404176
0.077254248594 -0.125 -0.952254248593
0.0 0.0 -1.0
0.154508497188 -0.5 -0.809016994375
0.077254248594 -0.375 -0.856762745781
0.0 -0.5 -0.809016994375
-0.077254248594 -0.375 -0.856762745781
0.0 -0.25 -0.904508497187
-0.154508497188 -0.25 -0.904508497187
-0.154508497188 -0.5 -0.809016994375
-0.231762745782 -0.375 -0.856762745781
-0.077254248594 -0.125 -0.952254248593
0.0 -0.675325404176 -0.667374053247
-0.13143277803 0.0 -0.962662702088
-0.208687026624 -0.125 -0.914916950682
-0.285941275218 -0.25 -0.867171199275
-0.340119804654 -0.125 -0.877579652769
-0.417374053247 -0.25 -0.829833901363
-0.363195523811 -0.375 -0.819425447869
0.877579652769 -0.340119804654 0.125
0.914916950682 -0.208687026624 0.125
0.867171199275 -0.285941275218 0.25
0.904508497187 -0.154508497188 0.25
0.952254248593 -0.077254248594 0.125
0.856762745781 -0.231762745782 0.375
0.952254248593 0.077254248594 0.125
0.904508497187 0.0 0.25
0.904508497187 0.154508497188 0.25
0.856762745781 0.231762745782 0.375
0.829833901363 0.417374053247 0.25
0.87757965277 0.340119804654 0.125
-0.742171199276 0.488195523811 -0.327254248594
-0.667374053247 -0.154508497188 0.675325404176
-0.738195523811 -0.0772542485935 0.587662702088
-0.914916950682 0.208687026623 0.125
-0.613195523811 -0.279508497188 -0.664916950682
0.587662702088 -0.738195523811 -0.0772542485935
0.077254248594 0.125 -0.952254248593
0.340119804654 0.125 -0.87757965277
0.154508497188 0.25 -0.904508497187
0.231762745782 0.375 -0.856762745781
-0.077254248594 0.125 -0.952254248593
0.0 0.25 -0.904508497187
-0.208687026624 0.125 -0.914916950682

CELLS 498 1992
3 0 1 2
3 1 3 4
3 3 5 6
3 6 7 8
3 9 10 11
3 12 13 10
3 13 14 10
3 13 15 14
3 10 14 11
3 15 13 16
3 11 14 17
3 14 18 17
3 14 15 18
3 17 18 19
3 19 18 20
3 18 21 20
3 18 15 21
3 16 22 15
3 19 20 23
3 20 24 23
3 25 26 27
3 27 28 29
3 30 31 32
3 29 33 34
3 33 35 34
3 34 35 36
3 37 38 35
3 38 39 35
3 40 38 8
3 8 38 37
3 36 41 34
3 41 42 34
3 41 43 42
3 34 42 29
3 11 44 9
3 11 45 44
3 45 46 44
3 45 25 46
3 44 46 43
3 11 17 45
3 17 47 45
3 17 19 47
3 45 47 25
3 43 46 42
3 46 27 42
3 46 25 27
3 42 27 29
3 48 0 2
3 49 50 51
3 52 0 48
3 49 48 50
3 51 50 16
3 53 54 55
3 54 56 55
3 54 57 56
3 55 56 58
3 53 59 54
3 59 60 54
3 59 61 60
3 54 60 57
3 58 56 62
3 56 63 62
3 56 57 63
3 62 63 9
3 9 63 64
3 63 65 64
3 63 57 65
3 64 65 12
3 57 66 65
3 66 67 65
3 66 68 67
3 65 67 12
3 57 60 66
3 60 69 66
3 60 61 69
3 66 69 68
3 12 67 70
3 67 71 70
3 67 68 71
3 70 71 16
3 4 72 1
3 1 72 2
3 2 72 73
3 72 74 73
3 72 4 74
3 73 74 75
3 50 76 16
3 16 76 77
3 50 78 76
3 78 79 76
3 78 2 79
3 76 79 77
3 5 80 6
3 80 7 6
3 5 81 80
3 81 82 80
3 81 83 82
3 80 82 7
3 6 84 3
3 3 84 85
3 6 86 84
3 86 87 84
3 86 88 87
3 84 87 85
3 88 86 8
3 8 86 6
3 89 90 91
3 90 92 91
3 90 4 92
3 91 92 85
3 85 92 3
3 92 4 3
3 93 94 95
3 94 96 95
3 94 5 96
3 95 96 1
3 93 97 94
3 97 81 94
3 97 83 81
3 94 81 5
3 1 96 3
3 96 5 3
3 83 98 82
3 98 99 82
3 98 100 99
3 82 99 7
3 100 101 99
3 101 102 99
3 101 40 102
3 99 102 7
3 7 102 8
3 102 40 8
3 61 59 103
3 59 104 103
3 59 53 104
3 103 104 105
3 53 106 104
3 106 107 104
3 106 100 107
3 104 107 105
3 53 108 106
3 108 109 106
3 108 110 109
3 106 109 100
3 105 107 111
3 107 98 111
3 107 100 98
3 111 98 83
3 58 112 55
3 112 113 55
3 112 114 113
3 55 113 53
3 53 113 108
3 113 115 108
3 113 114 115
3 108 115 110
3 9 64 10
3 10 64 12
3 12 70 13
3 13 70 16
3 21 116 20
3 20 116 117
3 22 118 15
3 15 118 21
3 22 119 118
3 119 120 118
3 119 121 120
3 118 120 21
3 22 122 119
3 122 123 119
3 122 77 123
3 119 123 121
3 21 120 116
3 120 124 116
3 120 121 124
3 116 124 117
3 77 122 16
3 122 22 16
3 117 124 125
3 124 126 125
3 124 121 126
3 125 126 127
3 121 128 126
3 128 129 126
3 128 130 129
3 126 129 127
3 121 123 128
3 123 131 128
3 123 77 131
3 128 131 130
3 127 129 132
3 129 133 132
3 129 130 133
3 132 133 75
3 117 134 20
3 20 134 24
3 24 135 23
3 23 135 136
3 117 137 134
3 137 138 134
3 137 139 138
3 134 138 24
3 139 140 138
3 140 141 138
3 140 142 141
3 138 141 24
3 139 143 140
3 143 144 140
3 143 89 144
3 140 144 142
3 24 141 135
3 141 145 135
3 141 142 145
3 135 145 136
3 117 125 137
3 125 146 137
3 125 127 146
3 137 146 139
3 127 147 146
3 147 148 146
3 147 149 148
3 146 148 139
3 127 132 147
3 132 150 147
3 132 75 150
3 147 150 149
3 139 148 143
3 148 151 143
3 148 149 151
3 143 151 89
3 136 145 152
3 145 153 152
3 145 142 153
3 152 153 154
3 142 155 153
3 155 156 153
3 155 157 156
3 153 156 154
3 142 144 155
3 144 158 155
3 144 89 158
3 155 158 157
3 154 156 159
3 156 160 159
3 156 157 160
3 159 160 30
3 23 161 19
3 19 161 47
3 23 162 161
3 162 163 161
3 162 164 163
3 161 163 47
3 164 162 136
3 136 162 23
3 47 163 25
3 163 164 25
3 165 166 136
3 136 166 164
3 165 167 166
3 167 168 166
3 167 26 168
3 166 168 164
3 165 169 167
3 169 170 167
3 169 171 170
3 167 170 26
3 164 168 25
3 168 26 25
3 136 152 165
3 152 154 165
3 32 172 154
3 154 172 165
3 154 159 32
3 159 30 32
3 165 172 169
3 172 173 169
3 172 32 173
3 169 173 171
3 26 174 27
3 174 28 27
3 26 170 174
3 170 175 174
3 170 171 175
3 174 175 28
3 176 177 31
3 31 177 32
3 88 178 31
3 31 178 176
3 32 177 173
3 177 179 173
3 177 176 179
3 173 179 171
3 88 180 178
3 180 181 178
3 180 182 181
3 178 181 176
3 182 183 181
3 183 184 181
3 183 185 184
3 181 184 176
3 182 186 183
3 186 187 183
3 186 37 187
3 183 187 185
3 176 184 179
3 184 188 179
3 184 185 188
3 179 188 171
3 37 186 8
3 186 182 8
3 182 180 8
3 8 180 88
3 171 188 175
3 188 189 175
3 188 185 189
3 175 189 28
3 185 190 189
3 190 191 189
3 190 33 191
3 189 191 28
3 185 187 190
3 187 192 190
3 187 37 192
3 190 192 33
3 28 191 29
3 191 33 29
3 33 192 35
3 192 37 35
3 40 193 38
3 38 193 39
3 39 194 35
3 35 194 36
3 36 194 195
3 194 196 195
3 194 39 196
3 195 196 197
3 39 198 196
3 198 199 196
3 198 200 199
3 196 199 197
3 39 193 198
3 193 201 198
3 193 40 201
3 198 201 200
3 197 199 202
3 199 203 202
3 199 200 203
3 202 203 110
3 105 204 103
3 204 205 103
3 204 206 205
3 103 205 61
3 61 205 207
3 205 208 207
3 205 206 208
3 207 208 209
3 105 210 204
3 210 211 204
3 210 212 211
3 204 211 206
3 212 213 211
3 213 214 211
3 213 215 214
3 211 214 206
3 212 216 213
3 216 217 213
3 216 93 217
3 213 217 215
3 206 214 208
3 214 218 208
3 214 215 218
3 208 218 209
3 93 216 97
3 216 219 97
3 216 212 219
3 97 219 83
3 83 219 111
3 219 210 111
3 219 212 210
3 111 210 105
3 209 218 220
3 218 221 220
3 218 215 221
3 220 221 52
3 215 222 221
3 222 223 221
3 222 224 223
3 221 223 52
3 215 217 222
3 217 225 222
3 217 93 225
3 222 225 224
3 52 223 0
3 223 224 0
3 110 115 202
3 115 226 202
3 115 114 226
3 202 226 197
3 114 227 226
3 227 228 226
3 227 229 228
3 226 228 197
3 114 112 227
3 112 230 227
3 112 58 230
3 227 230 229
3 197 228 195
3 228 231 195
3 228 229 231
3 195 231 36
3 58 232 230
3 232 233 230
3 232 234 233
3 230 233 229
3 229 233 41
3 41 233 234
3 234 235 41
3 235 43 41
3 36 231 41
3 41 231 229
3 43 235 236
3 235 237 236
3 235 234 237
3 236 237 9
3 9 237 62
3 237 232 62
3 237 234 232
3 62 232 58
3 43 236 44
3 44 236 9
3 2 78 48
3 48 78 50
3 75 133 73
3 133 238 73
3 133 130 238
3 73 238 2
3 2 238 79
3 238 131 79
3 238 130 131
3 79 131 77
3 85 87 31
3 31 87 88
3 30 239 31
3 31 239 85
3 30 160 239
3 160 240 239
3 160 157 240
3 239 240 85
3 157 158 240
3 158 91 240
3 158 89 91
3 240 91 85
3 89 151 90
3 151 241 90
3 151 149 241
3 90 241 4
3 149 150 241
3 150 74 241
3 150 75 74
3 241 74 4
3 224 242 0
3 0 242 1
3 224 225 242
3 225 95 242
3 225 93 95
3 242 95 1
3 110 203 109
3 203 243 109
3 203 200 243
3 109 243 100
3 100 243 101
3 243 201 101
3 243 200 201
3 101 201 40
3 209 244 207
3 244 245 207
3 244 246 245
3 207 245 61
3 61 245 69
3 245 247 69
3 245 246 247
3 69 247 68
3 209 248 244
3 248 249 244
3 248 49 249
3 244 249 246
3 246 249 51
3 51 249 49
3 68 247 51
3 51 247 246
3 209 220 248
3 220 250 248
3 220 52 250
3 248 250 49
3 49 250 48
3 48 250 52
3 16 71 51
3 51 71 68

CELL_TYPES 498
5
5
5
5
5
5
5
5
5
5
5
5
5
5
5
5
5
5
5
5
5
5
5
5
5
5
5
5
5
5
5
5
5
5
5
5
5
5
5
5
5
5
5
5
5
5
5
5
5
5
5
5
5
5
5
5
5
5
5
5
5
5
5
5
5
5
5
5
5
5
5
5
5
5
5
5
5
5
5
5
5
5
5
5
5
5
5
5
5
5
5
5
5
5
5
5
5
5
5
5
5
5
5
5
5
5
5
5
5
5
5
5
5
5
5
5
5
5
5
5
5
5
5
5
5
5
5
5
5
5
5
5
5
5
5
5
5
5
5
5
5
5
5
5
5
5
5
5
5
5
5
5
5
5
5
5
5
5
5
5
5
5
5
5
5
5
5
5
5
5
5
5
5
5
5
5
5
5
5
5
5
5
5
5
5
5
5
5
5
5
5
5
5
5
5
5
5
5
5
5
5
5
5
5
5
5
5
5
5
5
5
5
5
5
5
5
5
5
5
5
5
5
5
5
5
5
5
5
5
5
5
5
5
5
5
5
5
5
5
5
5
5
5
5
5
5
5
5
5
5
5
5
5
5
5
5
5
5
5
5
5
5
5
5
5
5
5
5
5
5
5
5
5
5
5
5
5
5
5
5
5
5
5
5
5
5
5
5
5
5
5
5
5
5
5
5
5
5
5
5
5
5
5
5
5
5
5
5
5
5
5
5
5
5
5
5
5
5
5
5
5
5
5
5
5
5
5
5
5
5
5
5
5
5
5
5
5
5
5
5
5
5
5
5
5
5
5
5
5
5
5
5
5
5
5
5
5
5
5
5
5
5
5
5
5
5
5
5
5
5
5
5
5
5
5
5
5
5
5
5
5
5
5
5
5
5
5
5
5
5
5
5
5
5
5
5
5
5
5
5
5
5
5
5
5
5
5
5
5
5
5
5
5
5
5
5
5
5
5
5
5
5
5
5
5
5
5
5
5
5
5
5
5
5
5
5
5
5
5
5
5
5
5
5
5
5
5
5
5
5
5
5
5
5
5
5
5
5
5
5
5
5
5
5
5
5
5
5
5
5
5
5
5
5
5
5
5
5
5
5
5
5
5
5
5
5
5
5
5
5
5
5
5
5
5
5
5
5

CELL_DATA 498
SCALARS cell_data_0 double
LOOKUP_TABLE default
4.75057244515e-05
0.000181057501554
9.49129503367e-05
0.00012014246171
1.14715304945e-05
1.75801480932e-06
9.33150351029e-06
1.53718973286e-05
1.09478454167e-05
1.0148659518e-05
2.16429099549e-05
2.86089338018e-05
2.10836344928e-05
2.20938709783e-05
3.94911068548e-05
0.000117846057406
7.9186381524e-05
2.59855281468e-05
2.12743565472e-05
1.1052475616e-05
4.24651846764e-05
4.61163398145e-05
4.07735479678e-05
2.76524465517e-05
2.84086987416e-05
2.39424255548e-06
8.47894387853e-06
1.45595701082e-05
0.000122727722814
7.89364270465e-05
1.78565308987e-05
8.63823647509e-06
6.39379341665e-05
1.86066945965e-05
3.16121995362e-05
6.88334181236e-06
7.85140844658e-06
1.6149623097e-05
6.48072474354e-05
7.10791004397e-06
4.34822075681e-06
1.44101725193e-05
3.01514799154e-06
4.2908567048e-05
2.13812866095e-05
2.04001616929e-05
2.32887068967e-05
4.03707065615e-05
4.42341898743e-05
4.47285874883e-05
3.50514302654e-05
3.65195772576e-05
5.29111774946e-06
1.93335381203e-05
1.71556837006e-05
1.56544044337e-05
2.47272673476e-06
1.21484089924e-05
2.12138557145e-05
3.23016307612e-06
1.0087069054e-05
5.75462329374e-06
7.70447857523e-06
3.46702274749e-06
5.54547739294e-06
2.24538265437e-05
2.17037132308e-05
2.21285716397e-05
2.92386993825e-05
3.47586256848e-05
5.36434578653e-06
3.06651318875e-05
7.5431234878e-06
2.58651898335e-05
2.78300284009e-05
2.32197604797e-05
7.73085464103e-06
1.51715474316e-06
1.01948970583e-05
1.03494989034e-06
9.2261857979e-05
7.36327881372e-05
5.6725681316e-06
4.23319426926e-06
2.56680697157e-05
6.33495948135e-06
2.39301576682e-05
9.3428526979e-06
1.99393081994e-05
1.83307372663e-05
1.83451382278e-06
6.29814178661e-06
4.43834553036e-05
2.18091670414e-05
7.99647820756e-06
4.98391626931e-06
4.26529369465e-06
1.1310148593e-06
1.58711296556e-05
3.61311605651e-06
1.05292281181e-06
1.83701174905e-05
1.64655143058e-05
1.05436240889e-05
9.57133606172e-06
3.39962093644e-05
5.91795107347e-06
7.67916253868e-06
1.13199574131e-05
6.37365129106e-06
3.17328406341e-06
2.41203211531e-05
8.24416464825e-06
1.82138410327e-05
3.59108037362e-06
1.07870499894e-05
4.81985826708e-06
1.35932765727e-05
9.2411151539e-06
3.61068181112e-06
4.80677297649e-05
2.22412005699e-05
4.22162353522e-06
4.28125975217e-06
3.87582795655e-06
2.09243186192e-06
5.74590178822e-06
2.65319085873e-06
6.16160741119e-05
4.05273262492e-06
3.84765949087e-05
0.000156597291575
2.60144807374e-05
2.68737144792e-05
1.24295410339e-05
2.13361800174e-05
9.99346971881e-06
1.0524467165e-05
1.10551231693e-05
7.63538811414e-06
4.29433231791e-06
6.47360873301e-06
8.20699841953e-06
6.65012239871e-06
1.11016739542e-06
4.24610608364e-06
8.39275654112e-06
6.50149600661e-06
4.24548349912e-06
5.19680847636e-06
1.15229646111e-05
2.57371079876e-06
5.77474213154e-06
1.44578172328e-05
1.76937786623e-05
1.07705809689e-05
3.8585819345e-06
1.1344864807e-07
6.43575432241e-06
7.47322811563e-06
6.0064411512e-05
2.01125076635e-05
9.14397194834e-06
3.7347517764e-05
4.78273300821e-06
5.13681695233e-06
1.62472551715e-05
2.36132939628e-05
5.17593323235e-06
1.80947045521e-06
2.1757939925e-06
1.10953434062e-05
2.93312700758e-05
7.80639172462e-06
1.55336024853e-05
4.32273038537e-06
4.02222405734e-06
1.0397019025e-05
1.31931924287e-06
3.8028887408e-07
7.87660993372e-06
1.23405414059e-05
7.07159629115e-06
4.05420406058e-06
4.3996793237e-06
1.96505306625e-05
8.08613461226e-06
5.32315154426e-06
6.98155499086e-06
5.23724381979e-06
3.4744254171e-05
1.97458917335e-05
8.89127835238e-06
1.21192439375e-05
2.48299856626e-05
1.94802373354e-05
4.81745307617e-06
5.9387725141e-06
7.09750710178e-06
1.22817671237e-05
5.30825705503e-06
8.57379444617e-06
6.4922775006e-06
7.62533486284e-06
5.03126357277e-07
2.94858998046e-06
7.42490191744e-06
1.36098475481e-05
1.03089756742e-05
3.12588773075e-06
1.00956288534e-06
3.5545569985e-06
9.56974320152e-07
5.57489378705e-07
1.63469750535e-06
1.48187489531e-05
3.35291375696e-05
1.45009674592e-05
6.00403644876e-05
7.08255868954e-05
3.77010255576e-05
4.11126779569e-05
4.89796126847e-05
4.85708492348e-05
2.44678749595e-05
2.95014739051e-05
2.7115603764e-05
5.8867053387e-05
4.35349243135e-05
2.46342397692e-05
1.06138480411e-05
2.0703956317e-05
4.30736366019e-06
1.26141636763e-05
1.55541649121e-05
3.49851128833e-05
2.77927387353e-05
9.64936088859e-06
1.50646644791e-05
4.80563977855e-05
2.31911048893e-05
4.10817047274e-05
1.45601873633e-05
3.32316062346e-05
2.16772798087e-05
1.33270802657e-05
2.60086452764e-05
3.24894236199e-05
1.4973979994e-05
3.39974530662e-05
3.71936419344e-06
3.15532546504e-05
1.11705351704e-05
4.40032890175e-06
2.1870005235e-05
2.28193816951e-06
2.93008906248e-05
2.29225482784e-05
2.28827849003e-05
1.6286628258e-05
2.29361649774e-05
1.56587020186e-05
2.37515791512e-05
1.218148634e-05
1.55385795806e-05
2.16880072298e-05
2.0617453638e-05
2.77297720978e-05
9.94072309755e-06
1.45054066568e-05
3.17366024206e-05
3.19677048169e-05
1.63397299457e-05
1.35226637156e-05
1.7855376624e-05
1.50147910441e-05
1.80161396066e-05
1.65036409357e-05
3.30916685105e-05
3.32779249284e-05
1.79661704865e-05
7.32197923391e-06
8.02490232143e-06
1.5177121966e-05
1.84963595164e-05
2.90239591699e-05
5.06122392611e-07
1.18942520962e-05
1.81087228514e-05
1.40244706519e-05
1.03826556754e-05
1.64363249305e-05
4.30403873445e-06
8.65487617053e-06
1.17510200407e-05
1.38049043963e-05
1.44398280287e-05
1.74130035365e-05
2.05277159606e-05
2.16580445539e-05
1.31650119377e-05
1.32907817799e-05
3.37631258247e-06
1.60821429948e-05
2.42842747031e-05
2.79451165227e-05
2.21033012622e-05
2.3478368515e-05
3.28636447804e-05
1.81432535274e-05
5.46965866028e-06
1.26030288758e-05
1.76527467856e-05
2.26192748489e-05
1.86963297783e-05
1.96496015608e-05
1.68174697611e-05
1.43474134627e-05
1.24144140534e-05
1.72625957084e-05
1.29215933609e-05
9.62508511217e-06
2.65355547033e-06
9.92102697979e-06
2.2975189662e-05
1.90000298005e-05
1.50092154889e-05
7.00823262714e-07
2.26239540625e-05
2.80750036387e-06
1.07176774685e-05
2.65881388973e-05
3.78650511711e-05
4.78886758744e-05
2.7618935444e-05
3.1794222748e-05
3.84001723001e-05
7.15752694435e-05
4.95065143156e-05
3.91983835255e-05
1.50816880364e-05
2.62300986259e-05
2.80158542424e-05
3.52033103022e-05
2.73516592146e-05
5.45785858022e-05
4.87197173741e-05
2.21049542125e-05
9.59868008822e-06
1.7876364213e-05
2.51439867633e-05
1.780110488e-05
3.6174851581e-06
3.99835747249e-06
3.20494292446e-05
1.56735900223e-05
1.66421811893e-06
4.86361722244e-06
9.42813869447e-06
1.39821274808e-05
8.80728995908e-06
1.45755223036e-05
2.14808132618e-05
2.20023374704e-05
4.86909711555e-06
3.16917633904e-05
3.3087763529e-05
2.43994925354e-06
2.42553676877e-05
2.33203568669e-05
2.57991560935e-05
1.35570262606e-05
1.74791095231e-05
2.37255603761e-05
1.54998652811e-05
5.93965301278e-06
9.66430800244e-06
1.04479980161e-05
5.21046989358e-07
7.1719627511e-08
1.35526372362e-05
1.89445992483e-05
1.96988006573e-05
1.89702651716e-05
1.7972863918e-05
1.77183280975e-05
1.20680912642e-05
1.83977412641e-05
1.33451196842e-05
8.52576994493e-06
7.67875009893e-06
9.639333555e-06
2.32871067411e-05
1.79349562261e-05
9.77012447958e-06
9.38174425104e-06
6.74541508702e-06
4.72988111135e-06
2.4604793755e-06
1.30482327957e-07
2.53850572108e-07
1.3583914862e-07
3.48841347824e-06
4.40066754945e-07
1.79654279188e-06
3.30275403609e-07
1.2015748211e-05
1.29173690519e-05
8.35907014606e-07
2.49950060333e-05
1.40520465497e-06
2.67705548291e-07
4.0512481575e-07
6.13878913915e-07
2.32469634132e-06
1.11112899544e-06
5.20528336992e-07
3.44170695631e-05
1.89405734179e-05
2.56040152995e-06
2.6705955809e-05
8.18531438976e-08
2.45691097558e-07
3.77168006814e-06
2.7159634411e-06
5.17196951349e-07
1.08386943527e-06
1.67347137298e-06
6.92228135033e-05
1.28092960466e-05
1.50444266771e-05
2.43839697531e-05
4.85698369964e-06
8.79007961858e-06
1.14197014782e-05
7.91314086443e-06
7.65907072515e-06
1.2080039194e-05
1.49494780072e-05
1.02398679372e-05
1.58862707453e-05
1.74038999444e-05
2.20840649146e-05
1.1005596099e-05
6.68279038636e-06
9.71334623892e-06
1.21111045342e-05
2.76045666237e-06
2.64490923936e-05
2.08252826127e-05
2.86557616359e-05
4.7035610724e-06
3.09312643451e-05
4.17130468842e-05
3.9352082194e-05
1.38862212205e-05
3.1623841747e-05
4.6356144737e-05
3.43666726439e-05
2.31423623568e-05
2.83235373869e-05
5.87071036787e-06
1.52803544772e-05
1.39122090364e-05
6.99480378072e-06
8.3285734597e-07
2.63441883842e-05
8.10448891362e-05
9.65564244229e-05
4.47627348466e-05
4.28776757929e-05
6.77657488412e-05
8.46188421952e-05
5.7306747489e-05
1.8321586956e-05
1.78655769884e-06
3.30756238924e-05
4.91675286578e-07
1.48338081798e-05
1.09221754397e-05
2.18288698839e-05
1.13303257246e-05
1.12046997544e-05
6.91926285271e-06
1.21334529309e-05
2.10612098287e-05
4.14525174013e-05
3.41703965864e-05
1.39028837358e-05
3.11941342983e-05
1.09758037848e-05
9.1597258422e-06
1.81119601114e-05
9.54986553242e-06
2.78549123859e-05
3.45742202707e-05
1.74024619725e-05
2.58424312797e-05

