# vtk DataFile Version 3.0
File Name: Molecule/sphere_dip/sphere_dip_0-s3.vtk
ASCII
DATASET UNSTRUCTURED_GRID
FIELD FieldData 1
TIME 1 1 double
0.0
POINTS 642 double
0.850650808352 -0.525731112119 0.0
0.840242354857 -0.471552582683 -0.125
0.887988106264 -0.394298334089 0.0
0.877579652769 -0.340119804654 -0.125
0.829833901363 -0.417374053247 -0.25
0.925325404176 -0.26286555606 0.0
0.867171199275 -0.285941275218 -0.25
0.914916950682 -0.208687026624 -0.125
0.904508497187 -0.154508497188 -0.25
0.819425447869 -0.363195523811 -0.375
0.856762745781 -0.231762745782 -0.375
0.809016994375 -0.309016994375 -0.5
0.962662702088 -0.13143277803 0.0
0.952254248593 -0.077254248594 -0.125
1.0 0.0 0.0
0.809016994375 -0.154508497188 -0.5
0.856762745781 -0.077254248594 -0.375
0.809016994375 0.0 -0.5
0.856762745781 0.077254248594 -0.375
0.904508497187 0.0 -0.25
0.904508497187 0.154508497188 -0.25
0.809016994375 0.154508497188 -0.5
0.856762745781 0.231762745782 -0.375
0.809016994375 0.309016994375 -0.5
0.952254248593 0.077254248594 -0.125
0.738195523811 -0.231762745782 -0.587662702088
0.738195523811 -0.077254248594 -0.587662702088
0.667374053247 -0.154508497188 -0.675325404176
0.667374053247 0.0 -0.675325404176
0.738195523811 0.077254248594 -0.587662702088
0.667374053247 0.154508497188 -0.675325404176
0.596552582683 -0.077254248594 -0.762988106264
0.596552582683 0.077254248594 -0.762988106264
0.525731112119 0.0 -0.850650808352
0.738195523811 0.231762745782 -0.587662702088
0.962662702088 0.13143277803 0.0
0.914916950682 0.208687026624 -0.125
0.925325404176 0.26286555606 0.0
0.867171199275 0.285941275218 -0.25
0.877579652769 0.340119804654 -0.125
0.829833901363 0.417374053247 -0.25
0.819425447869 0.363195523811 -0.375
0.887988106264 0.394298334089 0.0
0.840242354857 0.471552582683 -0.125
0.850650808352 0.525731112119 0.0
0.762988106264 0.596552582683 -0.077254248594
0.752579652769 0.542374053247 -0.202254248594
0.675325404176 0.667374053247 -0.154508497188
0.742171199275 0.488195523811 -0.327254248594
0.664916950682 0.613195523811 -0.279508497188
0.654508497187 0.559016994375 -0.404508497188
0.731762745781 0.434016994375 -0.452254248594
0.587662702088 0.738195523811 -0.231762745782
0.577254248593 0.684016994375 -0.356762745782
0.5 0.809016994375 -0.309016994375
0.684016994375 0.356762745782 -0.577254248593
0.606762745781 0.481762745782 -0.529508497188
0.559016994375 0.404508497188 -0.654508497187
0.481762745782 0.529508497188 -0.606762745781
0.529508497188 0.606762745781 -0.481762745782
0.404508497188 0.654508497187 -0.559016994375
0.434016994375 0.452254248594 -0.731762745781
0.356762745782 0.577254248593 -0.684016994375
0.309016994375 0.5 -0.809016994375
0.452254248594 0.731762745781 -0.434016994375
0.613195523811 0.279508497188 -0.664916950682
0.542374053247 0.202254248594 -0.752579652769
0.488195523811 0.327254248594 -0.742171199275
0.417374053247 0.25 -0.829833901363
0.471552582683 0.125 -0.840242354857
0.363195523811 0.375 -0.819425447869
0.375 0.819425447869 -0.363195523811
0.327254248594 0.742171199275 -0.488195523811
0.25 0.829833901363 -0.417374053247
0.279508497188 0.664916950682 -0.613195523811
0.202254248594 0.752579652769 -0.542374053247
0.154508497188 0.675325404176 -0.667374053247
0.231762745782 0.587662702088 -0.738195523811
0.125 0.840242354857 -0.471552582683
0.077254248594 0.762988106264 -0.596552582683
0.0 0.850650808352 -0.525731112119
0.762988106264 0.596552582683 0.077254248594
0.675325404176 0.667374053247 0.0
0.675325404176 0.667374053247 0.154508497188
0.587662702088 0.738195523811 -0.077254248594
0.587662702088 0.738195523811 0.077254248594
0.5 0.809016994375 0.0
0.5 0.809016994375 -0.154508497188
0.587662702088 0.738195523811 0.231762745782
0.5 0.809016994375 0.154508497188
0.5 0.809016994375 0.309016994375
0.375 0.856762745781 -0.231762745782
0.375 0.856762745781 -0.077254248594
0.25 0.904508497187 -0.154508497188
0.25 0.904508497187 0.0
0.375 0.856762745781 0.077254248594
0.25 0.904508497187 0.154508497188
0.125 0.952254248593 -0.077254248594
0.125 0.952254248593 0.077254248594
0.0 1.0 0.0
0.375 0.856762745781 0.231762745782
0.25 0.867171199275 -0.285941275218
0.125 0.877579652769 -0.340119804654
0.125 0.914916950682 -0.208687026624
0.0 0.925325404176 -0.26286555606
0.0 0.887988106264 -0.394298334089
0.0 0.962662702088 -0.13143277803
0.375 0.819425447869 0.363195523811
0.25 0.867171199275 0.285941275218
0.25 0.829833901363 0.417374053247
0.125 0.914916950682 0.208687026624
0.125 0.877579652769 0.340119804654
0.0 0.925325404176 0.26286555606
0.0 0.962662702088 0.13143277803
0.125 0.840242354857 0.471552582683
0.0 0.887988106264 0.394298334089
0.0 0.850650808352 0.525731112119
-0.125 0.840242354857 0.471552582683
-0.125 0.877579652769 0.340119804654
-0.25 0.829833901363 0.417374053247
-0.125 0.914916950682 0.208687026624
-0.25 0.867171199275 0.285941275218
-0.25 0.904508497187 0.154508497188
-0.125 0.952254248593 0.077254248594
-0.375 0.819425447869 0.363195523811
-0.375 0.856762745781 0.231762745782
-0.5 0.809016994375 0.309016994375
-0.125 0.952254248593 -0.077254248594
-0.25 0.904508497187 0.0
-0.25 0.904508497187 -0.154508497188
-0.375 0.856762745781 -0.077254248594
-0.375 0.856762745781 0.077254248594
-0.5 0.809016994375 0.0
-0.375 0.856762745781 -0.231762745782
-0.5 0.809016994375 -0.154508497188
-0.5 0.809016994375 -0.309016994375
-0.5 0.809016994375 0.154508497188
-0.125 0.914916950682 -0.208687026624
-0.125 0.877579652769 -0.340119804654
-0.25 0.867171199275 -0.285941275218
-0.25 0.829833901363 -0.417374053247
-0.125 0.840242354857 -0.471552582683
-0.375 0.819425447869 -0.363195523811
-0.587662702088 0.738195523811 0.231762745782
-0.587662702088 0.738195523811 0.077254248594
-0.675325404176 0.667374053247 0.154508497188
-0.587662702088 0.738195523811 -0.077254248594
-0.675325404176 0.667374053247 0.0
-0.675325404176 0.667374053247 -0.154508497188
-0.587662702088 0.738195523811 -0.231762745782
-0.762988106264 0.596552582683 0.077254248594
-0.762988106264 0.596552582683 -0.077254248594
-0.850650808352 0.525731112119 0.0
-0.077254248594 0.762988106264 0.596552582683
-0.202254248594 0.752579652769 0.542374053247
-0.154508497188 0.675325404176 0.667374053247
-0.327254248594 0.742171199275 0.488195523811
-0.279508497188 0.664916950682 0.613195523811
-0.404508497188 0.654508497187 0.559016994375
-0.452254248594 0.731762745781 0.434016994375
-0.231762745782 0.587662702088 0.738195523811
-0.356762745782 0.577254248593 0.684016994375
-0.309016994375 0.5 0.809016994375
-0.577254248593 0.684016994375 0.356762745782
-0.529508497188 0.606762745781 0.481762745782
-0.654508497187 0.559016994375 0.404508497188
-0.606762745781 0.481762745782 0.529508497188
-0.481762745782 0.529508497188 0.606762745781
-0.559016994375 0.404508497188 0.654508497187
-0.731762745781 0.434016994375 0.452254248594
-0.684016994375 0.356762745782 0.577254248593
-0.809016994375 0.309016994375 0.5
-0.434016994375 0.452254248594 0.731762745781
-0.664916950682 0.613195523811 0.279508497188
-0.752579652769 0.542374053247 0.202254248594
-0.742171199275 0.488195523811 0.327254248594
-0.829833901363 0.417374053247 0.25
-0.840242354857 0.471552582683 0.125
-0.819425447869 0.363195523811 0.375
-0.363195523811 0.375 0.819425447869
-0.488195523811 0.327254248594 0.742171199275
-0.417374053247 0.25 0.829833901363
-0.613195523811 0.279508497188 0.664916950682
-0.542374053247 0.202254248594 0.752579652769
-0.667374053247 0.154508497188 0.675325404176
-0.738195523811 0.231762745782 0.587662702088
-0.471552582683 0.125 0.840242354857
-0.596552582683 0.077254248594 0.762988106264
-0.525731112119 0.0 0.850650808352
0.077254248594 0.762988106264 0.596552582683
0.0 0.675325404176 0.667374053247
0.154508497188 0.675325404176 0.667374053247
-0.077254248594 0.587662702088 0.738195523811
0.077254248594 0.587662702088 0.738195523811
0.0 0.5 0.809016994375
-0.154508497188 0.5 0.809016994375
0.231762745782 0.587662702088 0.738195523811
0.154508497188 0.5 0.809016994375
0.309016994375 0.5 0.809016994375
-0.231762745782 0.375 0.856762745781
-0.077254248594 0.375 0.856762745781
-0.154508497188 0.25 0.904508497187
0.0 0.25 0.904508497187
0.077254248594 0.375 0.856762745781
0.154508497188 0.25 0.904508497187
-0.077254248594 0.125 0.952254248593
0.077254248594 0.125 0.952254248593
0.0 0.0 1.0
0.231762745782 0.375 0.856762745781
-0.285941275218 0.25 0.867171199275
-0.340119804654 0.125 0.877579652769
-0.208687026624 0.125 0.914916950682
-0.26286555606 0.0 0.925325404176
-0.394298334089 0.0 0.887988106264
-0.13143277803 0.0 0.962662702088
0.363195523811 0.375 0.819425447869
0.285941275218 0.25 0.867171199275
0.417374053247 0.25 0.829833901363
0.208687026624 0.125 0.914916950682
0.340119804654 0.125 0.877579652769
0.26286555606 0.0 0.925325404176
0.13143277803 0.0 0.962662702088
0.471552582683 0.125 0.840242354857
0.394298334089 0.0 0.887988106264
0.525731112119 0.0 0.850650808352
-0.471552582683 -0.125 0.840242354857
-0.340119804654 -0.125 0.877579652769
-0.417374053247 -0.25 0.829833901363
-0.285941275218 -0.25 0.867171199275
-0.208687026624 -0.125 0.914916950682
-0.154508497188 -0.25 0.904508497187
-0.363195523811 -0.375 0.819425447869
-0.231762745782 -0.375 0.856762745781
-0.309016994375 -0.5 0.809016994375
-0.077254248594 -0.125 0.952254248593
-0.154508497188 -0.5 0.809016994375
-0.077254248594 -0.375 0.856762745781
0.0 -0.5 0.809016994375
0.077254248594 -0.375 0.856762745781
0.0 -0.25 0.904508497187
0.154508497188 -0.25 0.904508497187
0.154508497188 -0.5 0.809016994375
0.231762745782 -0.375 0.856762745781
0.309016994375 -0.5 0.809016994375
0.077254248594 -0.125 0.952254248593
-0.231762745782 -0.587662702088 0.738195523811
-0.077254248594 -0.587662702088 0.738195523811
-0.154508497188 -0.675325404176 0.667374053247
0.0 -0.675325404176 0.667374053247
0.077254248594 -0.587662702088 0.738195523811
0.154508497188 -0.675325404176 0.667374053247
-0.077254248594 -0.762988106264 0.596552582683
0.077254248594 -0.762988106264 0.596552582683
0.0 -0.850650808352 0.525731112119
[...]
CELL_DATA 1280
SCALARS cell_data_0 double
LOOKUP_TABLE default
2.61724511611e-06
3.7681267841e-06
2.95621589552e-06
1.69997327448e-06
1.07326090726e-06
3.37060658691e-06
8.94715681552e-07
2.88457034625e-06
2.31031790447e-06
5.0308796909e-06
4.34765789535e-06
1.30879043584e-06
2.43647420292e-06
4.07833226727e-06
2.11609570642e-06
2.67251895655e-06
9.44118532279e-07
3.97431395792e-06
2.53980171155e-07
4.00399127331e-06
3.8880223378e-07
1.81448825539e-06
7.31949954364e-07
1.19050300692e-06
1.92970185338e-06
1.17992374075e-06
9.55202791775e-07
6.92521439463e-07
3.82343980695e-07
1.05163364383e-06
2.74956281344e-07
1.87709765974e-06
1.21768688736e-06
2.93823664885e-07
8.2017584138e-07
1.51256195508e-07
1.10183039643e-06
8.92544554223e-06
2.93556649329e-06
4.1973384574e-06
1.35291653665e-06
2.24739227659e-06
2.39120612701e-06
7.90391948669e-07
1.35198378036e-06
3.93773222972e-06
2.64276798511e-06
1.0072898018e-07
1.62371723268e-06
6.35957402174e-06
4.81611546858e-06
7.71875195567e-06
9.10109882065e-06
1.27869032426e-05
6.204100406e-06
8.90356454247e-06
2.53399971692e-06
3.46771947946e-06
2.51159835434e-07
4.73989253358e-06
6.92313550431e-06
9.09874376873e-06
5.35975192842e-06
7.02082708778e-06
9.36006859897e-06
1.56239615231e-05
8.42498822617e-06
1.28059564139e-05
1.23900060206e-05
1.94672258534e-05
9.86800866449e-06
1.16296907528e-05
7.24387492341e-06
9.52619725677e-06
2.31275046863e-06
7.01295608045e-06
1.2186266747e-05
1.34062985213e-05
5.36247004286e-06
8.65008327907e-06
7.71429540305e-06
2.62244598995e-05
1.64936443859e-05
1.3989938932e-05
2.23427552154e-05
6.56645025637e-05
3.32398030349e-05
3.797746903e-05
1.95647096999e-05
4.50582381813e-05
2.06786342618e-05
2.17877315496e-05
2.28127382456e-05
5.75999472433e-05
4.42963207248e-05
2.50099227779e-05
5.1353863396e-06
2.25626016948e-05
1.09223200298e-05
1.63542271094e-05
1.43287709694e-05
2.19927295377e-05
1.15237216341e-06
1.15434960906e-05
2.96639637025e-06
1.13737836563e-05
1.73361265533e-06
4.32085881721e-06
7.31427087178e-06
1.97228602938e-05
3.35545976207e-06
1.29048711287e-05
4.83309643718e-05
7.01685479027e-05
2.80214537388e-05
4.05435332512e-05
1.37391022895e-05
3.92985109504e-05
2.0539572035e-05
3.20144002585e-05
1.26719989406e-05
1.93350089335e-05
9.49293171972e-06
7.37781082802e-06
3.2437771723e-05
3.83514686938e-05
2.01420421897e-05
1.59370027365e-05
3.15206169582e-05
5.52345735107e-05
2.27085451751e-05
4.95688221474e-05
3.2862119951e-05
6.17998901267e-05
3.87616428494e-05
4.25788480113e-05
2.21889711287e-05
3.17138392975e-05
1.4364383831e-05
2.4709114447e-05
3.49068319035e-05
3.35506295288e-05
2.26851737743e-05
1.35325293271e-05
1.72638746549e-05
3.78731120557e-05
2.83256229899e-05
2.89655402695e-05
2.84509387463e-05
5.05071057083e-05
3.22863236879e-05
3.9698217172e-05
3.9515900989e-05
6.77783482328e-05
5.59278637993e-05
3.5510923413e-05
2.21915112824e-05
2.83414831526e-05
3.03216903395e-05
1.13743069606e-05
3.15860476432e-05
4.25973970048e-05
3.37696438816e-05
1.6172579939e-05
1.00657783056e-05
3.0967131806e-05
2.3974307085e-05
3.11057826534e-05
1.55473833161e-05
2.07568173066e-05
1.68897776649e-05
9.73771451155e-06
5.13419281505e-05
7.85676166137e-05
4.52292390606e-05
4.6684052466e-05
1.42936336778e-05
3.07541071627e-05
2.63866627448e-05
2.44982558803e-05
5.04856951742e-05
6.95573765264e-05
4.25743452162e-05
3.40522673289e-05
5.31313101332e-05
5.79886414476e-05
2.59347726039e-05
3.15052725066e-05
2.52086385764e-05
2.52840691498e-05
1.55352361542e-05
7.46697708384e-06
1.76735094723e-05
2.31736988335e-05
4.35522419288e-06
2.56914371537e-05
8.0427610672e-06
1.00995501472e-05
1.44324357335e-05
7.37344004329e-06
1.22093993101e-05
1.71234160548e-05
1.22251616983e-05
1.72992113901e-05
1.08740744887e-05
9.79601002084e-06
1.05983604273e-05
8.7345318482e-06
8.08690098449e-06
7.01311341575e-06
9.78846033008e-06
1.33618362931e-05
6.85518927647e-06
3.74871254545e-06
1.00894739386e-05
1.21175899628e-05
3.30726997332e-05
4.5598360464e-05
4.82786759739e-05
2.42863276177e-05
1.43082312056e-05
2.49717591289e-05
3.31697882037e-05
2.10081930766e-05
1.84330406422e-05
2.50316034697e-05
2.77585161384e-05
1.46229558053e-05
1.46229006646e-05
1.84472384261e-05
1.73802502961e-05
2.05451795451e-05
1.37661915265e-05
1.40640653426e-05
7.3853892746e-06
1.44824161622e-05
3.9986766633e-05
3.97076270518e-05
1.96616498048e-05
2.96877489507e-05
1.81560058532e-05
2.58897119213e-05
3.29805129595e-05
1.50649767283e-05
1.81314320179e-05
1.2984863053e-05
5.89720165182e-06
1.51775498985e-05
2.80748379429e-05
2.37543406764e-05
1.85576157212e-05
7.30504689058e-06
9.58564454459e-06
5.50390027273e-06
4.19585188579e-06
3.6737836308e-06
1.22427736051e-05
1.47383895889e-05
2.29384542795e-05
8.60232023436e-07
5.46029613324e-06
1.48666073415e-06
5.09260653576e-07
9.35228761663e-07
1.05870610198e-05
7.87649244058e-06
7.03884685653e-06
1.22398750188e-06
2.38198732718e-06
3.23519348827e-06
2.58401694821e-06
3.2591205953e-06
2.28984237901e-06
3.07013888587e-08
9.76973335046e-07
1.17687294073e-06
1.47366103818e-06
3.76390507691e-06
4.18644946566e-06
3.43016091483e-06
1.44249986205e-06
3.60704677923e-07
2.63262636775e-06
2.53993076906e-06
3.86644976686e-06
5.20956973341e-06
4.55051862749e-06
4.58872152275e-06
3.44547676977e-06
2.27608964546e-06
7.31389944158e-06
2.04512942595e-06
4.63254076999e-06
4.90692405581e-08
1.72099647153e-06
1.23614280689e-06
6.49677790357e-06
1.77442235259e-06
2.38876505973e-06
2.60749849293e-06
3.28643045081e-06
1.50743041129e-06
1.91135268889e-06
2.38182541757e-06
5.18501696528e-06
7.30707360564e-06
5.62195550037e-06
7.44951392409e-06
6.079113482e-06
7.2868022102e-06
5.83526822024e-06
8.04967597299e-06
3.0530898877e-06
3.12061407941e-06
6.17003023482e-07
3.84905324329e-06
7.52145616876e-06
6.8802001354e-06
5.53422549805e-06
5.7225980785e-06
1.77175756767e-06
6.64004901346e-06
1.56488898093e-06
7.66809505602e-06
1.01309429145e-05
1.41728986988e-05
6.0381925339e-07
4.32069254828e-06
3.21498376164e-06
1.20336723534e-05
2.65804321086e-06
5.93660407051e-06
7.83135943462e-06
2.42478833418e-05
4.60737266738e-06
1.64131333229e-05
1.11948566681e-05
6.73948727816e-06
1.33472632827e-05
5.5991841121e-06
2.1171857558e-05
1.77544980876e-05
2.02658017146e-05
1.27630977531e-05
2.18155395692e-05
1.28679954872e-05
1.531514754e-05
2.2217485037e-05
4.66438816324e-06
4.80689726534e-06
1.27277838668e-05
1.09091304437e-05
2.03875459504e-06
5.22007342605e-06
8.62994600659e-06
1.05450859248e-05
7.19413155753e-06
1.20028233305e-05
1.74389683606e-05
1.73062911536e-05
7.69083834811e-06
4.50824042573e-06
5.93023142292e-06
9.55837055711e-06
1.78931690003e-05
9.04427384382e-06
1.74034806038e-05
1.14050791942e-05
6.00729182447e-06
4.60815942756e-06
1.04162978952e-05
4.17873978622e-06
1.75588837825e-05
1.3976948166e-05
1.63715689323e-05
1.15891286581e-05
1.77282620256e-05
7.9128333625e-06
1.09979033624e-05
1.67638449754e-05
9.37174902646e-06
9.68334307676e-06
1.3572885812e-05
6.76513232784e-06
3.83462098994e-06
7.50190708169e-06
1.03841256873e-05
1.36023436577e-05
1.37765128768e-05
1.78474844572e-05
1.83948843313e-05
1.73827339169e-05
9.99167249972e-06
1.02804709833e-05
5.86922558834e-06
1.41727064173e-05
1.9067263304e-05
2.06086950154e-05
1.49711180431e-05
1.76104639328e-05
6.95591442207e-06
6.3248922694e-06
6.92751723956e-06
1.4658376777e-05
2.40961996648e-06
4.40473898823e-06
1.70025132857e-05
1.68381870961e-05
1.44782356721e-06
1.96576015934e-05
1.04512511297e-05
8.28617075441e-06
2.22136549145e-05
2.38360432791e-05
2.26781997689e-05
1.84260181431e-05
1.06269421538e-06
2.18329824302e-06
1.35493330062e-06
4.45343409994e-06
1.79169481641e-06
3.85942045948e-06
1.2979284368e-06
3.86192550006e-06
1.38550869699e-06
5.65114147216e-07
2.06904085512e-06
1.24299859912e-06
2.31772854289e-06
2.07430065935e-07
4.19359811328e-06
1.03646307449e-06
1.51789000395e-05
1.95998634666e-05
1.8115043243e-05
1.96628949127e-05
1.42465541088e-05
1.42075318102e-05
1.23004651595e-05
1.55964771384e-05
1.4174978811e-05
1.00745105671e-05
2.45639214372e-06
9.78505203498e-06
1.52524237094e-05
1.27439971786e-05
1.10890701908e-05
8.22731927943e-06
6.25213997198e-06
8.02486421576e-06
9.16642232442e-06
5.91882985852e-06
9.3427312266e-06
7.04780453831e-06
5.93056409606e-06
5.68802261741e-06
8.40893494182e-06
7.34697947649e-06
5.36903275138e-06
6.24632375448e-06
3.16715356929e-06
2.45578031229e-06
3.53830872403e-06
5.3392429417e-07
4.43221840027e-06
5.89995731594e-06
4.70278096541e-06
6.17408200039e-06
4.61746586913e-06
4.6752384757e-06
3.07163705051e-06
5.6251927112e-06
2.75102231579e-06
2.04508597159e-06
2.79720113278e-06
2.02550229687e-06
3.88816016846e-06
2.64137250107e-06
2.17053138703e-06
4.69486322203e-07
3.51718827929e-06
3.84435699571e-06
3.88040581726e-06
2.61621418385e-06
1.967870527e-06
2.32955117097e-06
1.62797743643e-06
1.34724220171e-07
2.2905875492e-06
8.0867281818e-07
1.02543215751e-07
1.47574943709e-06
5.03228714212e-08
2.24188616261e-06
2.22360651911e-06
4.18428771041e-06
5.01462206049e-06
2.04884074336e-06
9.21375556626e-07
2.41763430875e-06
7.93336918628e-07
1.59846908632e-08
2.035497423e-07
1.97401129129e-07
7.34074648719e-07
1.06471346984e-07
3.87197131692e-06
1.84025383119e-07
6.10755863995e-07
1.46374722695e-06
5.75950691546e-07
1.6500272291e-06
8.54501493117e-06
1.17920613447e-05
1.00752349086e-05
1.45571927834e-05
1.35942400268e-05
1.84300846977e-05
1.98365118864e-05
1.83099637446e-05
1.03822820087e-05
1.06172998582e-05
5.31916555073e-06
1.51986323458e-05
1.97693312552e-05
2.11384974412e-05
1.92788545564e-05
1.6498704944e-05
8.00683292093e-06
1.4388547786e-05
1.40889909039e-05
1.82496594008e-05
1.798973935e-05
2.36541194319e-05
2.31706574124e-05
2.39341979124e-05
1.37305916468e-05
1.20741220592e-05
1.81071459637e-06
1.84292566198e-05
2.39688216835e-05
2.62405403522e-05
2.36310866796e-05
2.0458580307e-05
3.09120144394e-06
4.4767325871e-06
2.60798456596e-06
8.39248405935e-06
3.46706553481e-06
3.49916429233e-06
3.9404495662e-06
7.4997617755e-06
1.55338231019e-06
7.67870143207e-07
1.32527255051e-06
1.92875616e-06
6.74046424039e-06
4.00641466887e-06
4.3728337547e-06
1.07536011967e-06
1.60895093407e-05
1.93847872796e-05
1.77017302779e-05
1.55409730503e-05
1.33842748473e-05
1.36961787477e-05
1.13243175523e-05
1.53616861646e-05
1.31285919617e-05
1.03922170019e-05
4.1715915296e-06
9.20965308789e-06
1.08069689665e-05
9.91751733937e-06
1.04934625127e-05
7.44746839849e-06
1.37174616473e-06
1.59035111723e-06
1.18187332172e-06
1.02663275141e-06
5.96501720231e-07
8.4443026435e-07
3.24760298179e-07
5.91069389625e-07
7.65434623599e-07
1.69326630691e-06
2.31548868359e-06
1.19925597255e-06
2.95902667063e-06
2.8480647537e-06
2.90338798595e-07
5.3532425108e-06
1.59266948062e-06
3.30667735725e-07
4.4043816799e-07
6.85099757916e-07
1.63313961777e-06
1.99356203009e-06
2.19429651514e-06
8.08258249756e-07
1.25706394348e-06
1.8402995579e-06
2.8334729041e-06
2.11383517401e-06
3.5855205765e-07
1.42383722928e-06
1.66268794924e-06
1.22469541434e-06
1.74458774379e-06
1.16066106856e-06
1.91409720249e-06
1.13558738633e-07
4.86463472404e-07
4.28670512065e-07
4.15732438206e-07
4.17175402001e-07
4.03807463398e-06
3.06726093097e-06
3.97250205002e-06
1.05314854341e-07
3.81541494792e-07
8.74692258777e-07
6.04647010073e-07
2.443934325e-06
9.42517228389e-07
2.45773896232e-06
2.56709907619e-06
3.01017873549e-06
3.39182418845e-06
4.11197512374e-06
4.52431761713e-06
4.29070605058e-06
2.59741277434e-06
2.89405003374e-06
1.69077840932e-06
3.5337570609e-06
4.83544564321e-06
5.60863144706e-06
4.77136450806e-06
4.98301155877e-06
2.0395702022e-05
1.86753561187e-05
2.51923442721e-05
6.37793023576e-09
2.28702178257e-06
8.72644237155e-07
8.80754308285e-07
6.41872011343e-07
1.14153789634e-05
5.97618862923e-06
8.49403465664e-06
6.15915407971e-07
7.64190346322e-07
1.40000209084e-06
1.0377498243e-06
1.72398396579e-06
1.0630126578e-07
1.38827370158e-06
1.85151901304e-06
6.89498735869e-07
2.31358760607e-06
5.97530115066e-07
2.68799045156e-06
1.84096023525e-07
2.51817811039e-06
3.72207824738e-06
3.92230170641e-06
4.41731044903e-06
4.91263366367e-07
4.64990066188e-07
1.40082798476e-06
2.71811080998e-06
6.31440731856e-06
6.38259849438e-06
9.89346084854e-06
3.8438343067e-07
4.13346718063e-06
2.34444374901e-06
1.30497713849e-07
1.17771183622e-07
9.55719225541e-06
1.3000082693e-05
1.04169021313e-05
4.07462454075e-06
1.04345186053e-06
7.15935616115e-06
6.35064636056e-06
4.12640121628e-06
2.38303529164e-06
2.55111852464e-06
2.93444963887e-06
3.83083006286e-06
4.24907753695e-06
5.03467612839e-06
7.83641595085e-06
5.29542876411e-06
4.10470173985e-06
2.4806091251e-06
1.65198890363e-06
1.12475414074e-06
5.5322348781e-06
6.49773482998e-06
7.82337199359e-06
5.48493773665e-06
4.33717892093e-06
3.97386542192e-06
3.32780524559e-06
4.28437846625e-06
3.79464679716e-06
3.00393769658e-06
2.10416206319e-06
3.56935412568e-06
2.5597982642e-06
1.99385224783e-06
1.35598340763e-06
1.86195598625e-06
7.48998434015e-07
6.98956940453e-06
2.41467772899e-06
9.59040253667e-06
8.83202808054e-06
1.15582439705e-05
1.30752879855e-05
3.09321258714e-06
9.0248303843e-06
1.69788928446e-05
9.53116465858e-06
1.01822772741e-05
3.81023436463e-06
4.59499123699e-06
1.67302842502e-06
4.27003008409e-06
1.01376616036e-05
1.08501443773e-05
5.13717018255e-06
5.98018127846e-06
7.5224059073e-06
3.51178552825e-06
6.5255502073e-07
4.42441151317e-06
5.51883567763e-07
6.93751467757e-07
2.70575000305e-07
6.02889111645e-07
9.37979150284e-08
2.89228421551e-07
1.29318344024e-06
3.53915986253e-07
3.80500720804e-07
5.27034727234e-07
1.91752800096e-07
1.2224868517e-06
7.89600570347e-07
6.91984469857e-07
1.90009709787e-07
3.51483683706e-07
3.98278503062e-07
8.66363994673e-07
4.83121269213e-07
6.45634047609e-07
6.60502332546e-07
4.17849331842e-07
1.07289188914e-06
1.25300422225e-07
1.51327903885e-07
4.84590435695e-07
3.13402653092e-07
6.25375301224e-07
8.79821162624e-07
1.45193145784e-07
3.05729543414e-06
6.57600641002e-06
3.81861872251e-06
3.49288327907e-06
3.45936532244e-06
1.85276384415e-06
4.10232256655e-06
4.89827780199e-06
4.73907522043e-06
3.83425283022e-06
9.74453408019e-06
2.5898409684e-06
2.34164016244e-06
4.59010609231e-06
5.76867706503e-06
5.48594979391e-06
5.56274991561e-06
4.45916911648e-06
5.06213911551e-06
4.07863528034e-06
2.94076186094e-06
3.9923182074e-06
4.30339881147e-06
2.64818202671e-06
1.04631708776e-07
2.08837863016e-06
2.7702676166e-06
1.61232803971e-06
1.41756475861e-06
1.57824213733e-07
6.02064722823e-06
7.06714994111e-06
8.12007712288e-06
5.96814464829e-06
8.16880012802e-06
6.55268463246e-06
5.82294568937e-06
5.96924207177e-06
7.98351222773e-06
7.46659569918e-06
6.64654595226e-06
5.60035173637e-06
4.32581663088e-06
6.14095154788e-07
1.17363454679e-06
3.27910603496e-06
4.28943583021e-06
3.15937761662e-06
3.47650516211e-07
3.10849297236e-06
7.72635496206e-07
1.0469915333e-07
1.66183767586e-07
1.22754744069e-07
5.72858615951e-07
4.97184984707e-07
7.38234931102e-07
1.34585778621e-07
1.81314457587e-06
1.57015411941e-06
4.13800464549e-07
2.26553457393e-06
2.23479200455e-06
1.09824056895e-06
7.89970528624e-07
7.72412778588e-07
5.90032836092e-08
2.23836350813e-08
6.69160544497e-08
2.90893503969e-07
3.76999610581e-07
1.32167922555e-07
4.89702910901e-07
2.46327332681e-07
7.47571071385e-07
6.65614232784e-07
5.0917079892e-07
1.17541528251e-06
5.68080784905e-07
5.46160357584e-07
6.60881510054e-07
2.59251474354e-07
5.41106146672e-07
8.15691621653e-07
7.55557659499e-08
3.77696384937e-07
6.06104867733e-07
1.44101763502e-06
1.99722045685e-06
6.67309285627e-07
2.22349253905e-07
2.10808459142e-08
3.30617410338e-07
8.71207618064e-07
9.83184905223e-07
1.63525490567e-06
8.30075825583e-07
1.21589984198e-06
1.15517805044e-06
4.75298498558e-06
3.57117448092e-06
3.30477345376e-06
1.57035042182e-06
4.45729263264e-06
3.44903202004e-06
3.27788084984e-06
2.50424093648e-06
5.92502771165e-06
5.96860025604e-06
3.80761174002e-06
3.66407872136e-06
3.6464631334e-06
3.18678216949e-07
4.25690536375e-06
1.22307206641e-06
3.07805779821e-06
2.41455800416e-06
1.95416708614e-06
1.15100420141e-06
4.67824612325e-06
4.40572574186e-06
4.36570046218e-06
1.81555940525e-06
4.64398187418e-06
4.55679375783e-06
2.46024043525e-06
4.24347165292e-06
9.20066709865e-06
5.78486710046e-06
8.5218665454e-06
1.09896529492e-05
1.62144891443e-05
8.16339613671e-06
8.97123041563e-06
4.96692017186e-06
9.17761232641e-06
4.25596936762e-06
8.70284533718e-06
5.45852147037e-06
6.99097730896e-06
4.41279372341e-06
3.44021277464e-06
5.21548415094e-06
3.36898541375e-06
1.19027322569e-06
2.64144545807e-06
3.14205128232e-06
3.23754875336e-06
4.69091882331e-06
1.92076593775e-06
4.01879936076e-06
5.63552435345e-06
4.80964895681e-06
5.3637904853e-06
2.8338183662e-08
1.10258013568e-06
4.00507976915e-06
5.54703533846e-07
4.47008771117e-06
3.14178528796e-06
2.7480014927e-06
8.88654501411e-07
1.51706951589e-06
3.10340441516e-06
3.61998284734e-06
3.04400644164e-06
5.02987823354e-07
1.58724396048e-06
7.85299117531e-07
2.98194643008e-06
3.63702172757e-06
2.43667148469e-06
2.28851611346e-06
8.98883697307e-07
1.55848262904e-06
3.51780012644e-06
4.1542611524e-06
4.08774362939e-06
6.0218886815e-06
7.42452550435e-06
8.71886673837e-06
6.3257501845e-06
5.94307514422e-06
6.88594758274e-06
4.50486121012e-06
7.61235875982e-06
6.60049901754e-06
7.64015465411e-06
7.97626996252e-06
5.9676183878e-06
5.4193203696e-06
6.29677029769e-06
5.02607818543e-06
5.65615636217e-06
4.73518434372e-06
4.89916506256e-06
3.62327182552e-06
5.17201210326e-06
3.29903585023e-06
2.0902621395e-07
2.68866033409e-06
4.93924353678e-07
3.72448611948e-06
4.79775046592e-08
3.44557499464e-07
2.19363624635e-06
9.41487479153e-06
1.19068002299e-05
5.17337038385e-06
5.27098982056e-06
5.15370922957e-06
6.1601146207e-06
3.56622102221e-06
8.01146123573e-07
6.75314748768e-06
1.19056474335e-05
7.37179536219e-06
7.12879161351e-06
3.58767093342e-06
6.9427524332e-06
1.62874789122e-06
6.03551294892e-06
3.38943676859e-06
4.30925109821e-06
3.69736885973e-06
3.92361847164e-06
5.34751530794e-06
3.35435147432e-06
2.14144156607e-06
1.33621454603e-06
4.37214840744e-06
1.59662851262e-06
8.4310230703e-07
1.53103714645e-06
2.90426679196e-06
2.89555830166e-06
6.81012791523e-07
2.85221038268e-06
3.02019553282e-06
3.1309984798e-06
1.15234852891e-06
2.46721798101e-06
1.64208626454e-07
7.07985601593e-07
4.94923163092e-07
9.02013555688e-07
2.80600972466e-06
3.25294076159e-06
3.57154648255e-06
5.24090766609e-07
3.20669239992e-06
3.09631908876e-06
8.32172194726e-07
3.70507383591e-06
5.96418719501e-06
6.70250120676e-06
8.71028470094e-06
4.00986008989e-06
8.70980767177e-06
6.11536951387e-06
5.53373648151e-06
4.84584347976e-06
8.11073052964e-06
7.17209828603e-06
4.24739486642e-06
5.89951764114e-06
3.01146300434e-06
2.7382964817e-06
3.89051016221e-06
1.04211283996e-06
4.13566739917e-06
6.03319855279e-06
4.55040761778e-06
5.56864306955e-06
3.88601250671e-06
3.65414499737e-06
2.71929535645e-06
4.58358439683e-06
2.43735529335e-06
1.18410532246e-06
8.0840660763e-08
1.66888243633e-06
3.84230205231e-06
2.62553522401e-06
2.22726964318e-06
1.12159406785e-06
2.46491161913e-06
4.36335004658e-06
3.81679016391e-06
3.71903100112e-06
3.79596036044e-06
3.07820205919e-06
2.34187360196e-06
3.01373184153e-06
2.35158337583e-06
2.31217864686e-07
1.9269994085e-06
7.35990974761e-07
2.10062790033e-06
1.03177356152e-06
1.14878102872e-06
4.9510593388e-07
1.35507813506e-06
1.26435963189e-06
1.35983321984e-06
7.56632241806e-07
1.4617808769e-06
9.29222871778e-07
1.90868582154e-07
5.82622577463e-07
9.47279569718e-07
1.96847998728e-07
5.7554814585e-07
1.9822750819e-07
1.36302576126e-07
4.71874991911e-07
8.18187834033e-07
1.40546376947e-06
1.41288069307e-06
9.42852534029e-07
1.09596785417e-06
1.9481321358e-06
1.07980141358e-06
6.48697233564e-07
8.18746784355e-07
3.30940694043e-07
8.09274271455e-07
4.54597708336e-07
3.72799625392e-07
5.82314545425e-07
2.55648872399e-06
2.13884726637e-06
5.67082402304e-07
3.39419779543e-06
5.93367442537e-07
2.02852806041e-07
1.20550361652e-06
6.11412951918e-07
8.00223406568e-07
5.76833374241e-07
1.09480045427e-06
8.6315239633e-07
1.20589297868e-06
4.26370978539e-07