# vtk DataFile Version 3.0
File Name: Molecule/methanol/methanol_10.0-0.vtk
ASCII
DATASET UNSTRUCTURED_GRID
FIELD FieldData 1
TIME 1 1 double
0.0
POINTS 491 double
1.611 0.0 -0.359
1.574 -0.35 -0.355
1.475 0.0 -0.634
1.441 -0.328 -0.631
1.403 0.0 -0.933
1.369 -0.319 -0.929
1.466 -0.685 -0.344
1.339 -0.641 -0.621
1.271 -0.624 -0.92
1.291 -0.99 -0.327
1.175 -0.927 -0.604
1.111 -0.902 -0.904
1.056 -1.252 -0.304
0.956 -1.172 -0.583
0.898 -1.14 -0.882
0.773 -1.459 -0.275
0.691 -1.366 -0.556
0.639 -1.329 -0.857
0.453 -1.602 -0.243
0.391 -1.5 -0.526
0.348 -1.459 -0.828
0.11 -1.675 -0.209
0.07 -1.568 -0.494
0.036 -1.526 -0.797
-0.241 -1.675 -0.174
-0.258 -1.568 -0.462
-0.284 -1.526 -0.765
-0.583 -1.602 -0.14
-0.579 -1.5 -0.43
-0.596 -1.459 -0.734
-0.903 -1.459 -0.108
-0.878 -1.366 -0.4
-0.887 -1.329 -0.705
-1.187 -1.252 -0.08
-1.144 -1.172 -0.374
-1.146 -1.14 -0.679
-1.421 -0.99 -0.057
-1.363 -0.927 -0.352
-1.359 -0.902 -0.658
-1.597 -0.685 -0.039
-1.527 -0.641 -0.335
-1.519 -0.624 -0.642
-1.705 -0.35 -0.029
-1.629 -0.328 -0.325
-1.617 -0.319 -0.632
-1.742 0.0 -0.025
-1.663 0.0 -0.322
-1.651 0.0 -0.629
-1.705 0.35 -0.029
-1.629 0.328 -0.325
-1.617 0.319 -0.632
-1.597 0.685 -0.039
-1.527 0.641 -0.335
-1.519 0.624 -0.642
-1.421 0.99 -0.057
-1.363 0.927 -0.352
-1.359 0.902 -0.658
-1.187 1.252 -0.08
-1.144 1.172 -0.374
-1.146 1.14 -0.679
-0.903 1.459 -0.108
-0.878 1.366 -0.4
-0.887 1.329 -0.705
-0.583 1.602 -0.14
-0.579 1.5 -0.43
-0.596 1.459 -0.734
-0.241 1.675 -0.174
-0.258 1.568 -0.462
-0.284 1.526 -0.765
0.11 1.675 -0.209
0.07 1.568 -0.494
0.036 1.526 -0.797
0.453 1.602 -0.243
0.391 1.5 -0.526
0.348 1.459 -0.828
0.773 1.459 -0.275
0.691 1.366 -0.556
0.639 1.329 -0.857
1.056 1.252 -0.304
0.956 1.172 -0.583
0.898 1.14 -0.882
1.291 0.99 -0.327
1.175 0.927 -0.604
1.111 0.902 -0.904
1.466 0.685 -0.344
1.339 0.641 -0.621
1.271 0.624 -0.92
1.574 0.35 -0.355
1.441 0.328 -0.631
1.369 0.319 -0.929
1.907 0.0 0.656
1.878 0.328 0.656
1.878 0.164 0.939
1.878 -0.164 0.939
1.878 -0.328 0.656
1.878 -0.164 0.372
1.878 0.164 0.372
1.793 0.559 0.978
1.793 0.323 1.215
1.793 -0.0 1.301
1.793 -0.323 1.215
1.793 -0.559 0.978
1.793 -0.646 0.656
1.793 -0.559 0.333
1.793 -0.323 0.097
1.793 -0.0 0.01
1.793 0.323 0.097
1.793 0.559 0.333
1.793 0.646 0.656
1.654 0.887 0.978
1.654 0.723 1.262
1.654 0.472 1.473
1.654 0.164 1.585
1.654 -0.164 1.585
1.654 -0.472 1.473
1.654 -0.723 1.262
1.654 -0.887 0.978
1.654 -0.944 0.656
1.654 -0.887 0.333
1.654 -0.723 0.049
1.654 -0.472 -0.162
1.654 0.472 -0.162
1.654 0.723 0.049
1.654 0.887 0.333
1.654 0.944 0.656
1.465 1.168 0.983
1.465 1.037 1.286
1.465 0.828 1.542
1.465 0.558 1.733
1.465 0.247 1.843
1.465 -0.083 1.866
1.465 -0.406 1.799
1.465 -0.7 1.647
1.465 -0.941 1.421
1.465 -1.113 1.139
1.465 -1.202 0.821
1.465 -1.202 0.49
1.465 -1.113 0.172
1.465 -0.941 -0.11
1.465 1.037 0.025
1.465 1.168 0.328
1.465 1.213 0.656
1.232 1.41 0.977
1.232 1.303 1.283
1.232 1.13 1.557
1.232 0.902 1.786
1.232 0.627 1.958
1.232 0.322 2.065
1.232 0.0 2.102
1.232 -0.322 2.065
1.232 -0.627 1.958
1.232 -0.902 1.786
1.232 -1.13 1.557
1.232 -1.303 1.283
1.232 -1.41 0.977
1.232 -1.446 0.656
1.232 -1.41 0.334
1.232 -1.303 0.028
1.232 1.303 0.028
1.232 1.41 0.334
1.232 1.446 0.656
0.963 1.603 0.974
0.963 1.51 1.281
0.963 1.359 1.564
0.963 1.156 1.811
0.963 0.908 2.015
0.963 0.626 2.166
0.963 0.319 2.259
0.963 0.0 2.29
0.963 -0.319 2.259
0.963 -0.626 2.166
0.963 -0.908 2.015
0.963 -1.156 1.811
0.963 -1.359 1.564
0.963 -1.51 1.281
0.963 -1.603 0.974
0.963 -1.635 0.656
0.963 -1.603 0.337
0.963 -1.51 0.03
0.963 1.51 0.03
0.963 1.603 0.337
0.963 1.635 0.656
0.665 1.743 0.982
0.665 1.654 1.296
0.665 1.508 1.589
0.665 1.311 1.851
0.665 1.069 2.071
0.665 0.791 2.243
0.665 0.485 2.362
0.665 0.164 2.422
0.665 -0.164 2.422
0.665 -0.485 2.362
0.665 -0.791 2.243
0.665 -1.069 2.071
0.665 -1.311 1.851
0.665 -1.508 1.589
0.665 -1.654 1.296
0.665 -1.743 0.982
0.665 -1.774 0.656
0.665 -1.743 0.33
0.665 -1.654 0.015
0.665 1.654 0.015
0.665 1.743 0.33
0.665 1.774 0.656
0.347 1.831 0.978
0.347 1.747 1.291
0.347 1.61 1.585
0.347 1.424 1.85
0.347 1.195 2.08
0.347 0.929 2.265
0.347 0.636 2.402
0.347 0.323 2.486
0.347 0.0 2.514
0.347 -0.323 2.486
0.347 -0.636 2.402
0.347 -0.929 2.265
0.347 -1.195 2.08
0.347 -1.424 1.85
0.347 -1.61 1.585
0.347 -1.747 1.291
0.347 -1.831 0.978
0.347 -1.859 0.656
0.347 -1.831 0.333
0.347 -1.747 0.02
0.347 1.747 0.02
0.347 1.831 0.333
0.347 1.859 0.656
0.019 1.86 0.975
0.019 1.78 1.284
0.019 1.648 1.576
0.019 1.469 1.841
0.019 1.247 2.072
0.019 0.99 2.263
0.019 0.704 2.407
0.019 0.398 2.501
0.019 0.08 2.541
0.019 -0.24 2.528
0.019 -0.553 2.46
0.019 -0.85 2.341
0.019 -1.122 2.173
0.019 -1.363 1.962
0.019 -1.564 1.713
0.019 -1.72 1.433
0.019 -1.827 1.131
0.019 -1.881 0.816
0.019 -1.881 0.496
0.019 -1.827 0.18
0.019 1.78 0.027
0.019 1.86 0.337
0.019 1.888 0.656
-0.309 1.859 0.656
-0.309 1.831 0.978
-0.309 1.747 1.291
-0.309 1.61 1.585
-0.309 1.424 1.85
-0.309 1.195 2.08
-0.309 0.929 2.265
-0.309 0.636 2.402
-0.309 0.323 2.486
-0.309 0.0 2.514
-0.309 -0.323 2.486
-0.309 -0.636 2.402
-0.309 -0.929 2.265
-0.309 -1.195 2.08
-0.309 -1.424 1.85
-0.309 -1.61 1.585
-0.309 -1.747 1.291
-0.309 -1.831 0.978
-0.309 -1.859 0.656
-0.309 -1.831 0.333
-0.309 -1.747 0.02
-0.309 1.747 0.02
-0.309 1.831 0.333
-0.627 1.774 0.656
-0.627 1.743 0.982
-0.627 1.654 1.296
-0.627 1.508 1.589
-0.627 1.311 1.851
-0.627 1.069 2.071
-0.627 0.791 2.243
-0.627 0.485 2.362
-0.627 0.164 2.422
-0.627 -0.164 2.422
-0.627 -0.485 2.362
-0.627 -0.791 2.243
-0.627 -1.069 2.071
-0.627 -1.311 1.851
-0.627 -1.508 1.589
-0.627 -1.654 1.296
-0.627 -1.743 0.982
-0.627 -1.774 0.656
-0.627 -1.743 0.33
-0.627 1.743 0.33
-0.925 1.635 0.656
-0.925 1.603 0.974
-0.925 1.51 1.281
-0.925 1.359 1.564
-0.925 1.156 1.811
-0.925 0.908 2.015
-0.925 0.626 2.166
-0.925 0.319 2.259
-0.925 0.0 2.29
-0.925 -0.319 2.259
-0.925 -0.626 2.166
-0.925 -0.908 2.015
-0.925 -1.156 1.811
-0.925 -1.359 1.564
-0.925 -1.51 1.281
-0.925 -1.603 0.974
-0.925 -1.635 0.656
-0.925 -1.603 0.337
-0.925 1.603 0.337
-1.194 1.446 0.656
-1.194 1.41 0.977
-1.194 1.303 1.283
-1.194 1.13 1.557
-1.194 0.902 1.786
-1.194 0.627 1.958
-1.194 0.322 2.065
-1.194 0.0 2.102
-1.194 -0.322 2.065
-1.194 -0.627 1.958
-1.194 -0.902 1.786
-1.194 -1.13 1.557
-1.194 -1.303 1.283
-1.194 -1.41 0.977
-1.194 -1.446 0.656
-1.194 -1.41 0.334
-1.194 1.41 0.334
-1.427 1.213 0.656
-1.427 1.168 0.983
-1.427 1.037 1.286
-1.427 0.828 1.542
-1.427 0.558 1.733
-1.427 0.247 1.843
-1.427 -0.083 1.866
-1.427 -0.406 1.799
-1.427 -0.7 1.647
-1.427 -0.941 1.421
-1.427 -1.113 1.139
-1.427 -1.202 0.821
-1.427 -1.202 0.49
-1.427 -1.113 0.172
-1.427 1.168 0.328
-1.616 0.944 0.656
-1.616 0.887 0.978
-1.616 0.723 1.262
-1.616 0.472 1.473
-1.616 0.164 1.585
-1.616 -0.164 1.585
-1.616 -0.472 1.473
-1.616 -0.723 1.262
-1.616 -0.887 0.978
-1.616 -0.944 0.656
-1.616 -0.887 0.333
-1.616 0.887 0.333
-1.755 0.646 0.656
-1.755 0.559 0.978
-1.755 0.323 1.215
-1.755 -0.0 1.301
-1.755 -0.323 1.215
-1.755 -0.559 0.978
-1.755 -0.646 0.656
-1.755 -0.559 0.333
-1.755 0.559 0.333
-1.84 0.328 0.656
-1.84 0.164 0.939
-1.84 -0.164 0.939
-1.84 -0.328 0.656
-1.84 -0.164 0.372
-1.84 0.164 0.372
-1.868 0.0 0.656
1.283 -0.312 -1.278
1.122 -0.544 -1.457
1.122 -0.247 -1.605
1.283 -0.0 -1.362
1.122 0.083 -1.636
1.283 0.312 -1.278
1.122 0.402 -1.545
1.122 0.667 -1.345
1.122 -0.767 -1.212
0.907 -1.095 -1.059
0.907 -0.96 -1.354
0.907 -0.747 -1.599
0.907 -0.474 -1.775
0.907 -0.162 -1.866
0.907 0.162 -1.866
0.907 0.474 -1.775
0.907 0.747 -1.599
0.907 0.96 -1.354
0.648 -1.236 -1.227
0.648 -1.075 -1.519
0.648 -0.847 -1.761
0.648 -0.566 -1.94
0.648 -0.249 -2.043
0.648 0.083 -2.064
0.648 0.411 -2.001
0.648 0.712 -1.86
0.648 0.969 -1.647
0.648 1.165 -1.378
0.907 1.095 -1.059
0.648 1.288 -1.068
0.355 -1.423 -1.062
0.355 -1.315 -1.371
0.355 -1.141 -1.647
0.355 -0.91 -1.879
0.355 -0.633 -2.052
0.355 -0.325 -2.16
0.355 0.0 -2.197
0.355 0.325 -2.16
0.355 0.633 -2.052
0.355 0.91 -1.879
0.355 1.141 -1.647
0.355 1.315 -1.371
0.355 1.423 -1.062
0.041 -1.447 -1.225
0.041 -1.308 -1.524
0.041 -1.108 -1.787
0.041 -0.857 -2.001
0.041 -0.565 -2.155
0.041 -0.247 -2.244
0.041 0.083 -2.262
0.041 0.408 -2.208
0.041 0.715 -2.086
0.041 0.988 -1.901
0.041 1.215 -1.661
0.041 1.385 -1.378
0.041 1.491 -1.065
-0.28 -1.447 -1.225
-0.28 -1.308 -1.524
-0.28 -1.108 -1.787
-0.28 -0.857 -2.001
-0.28 -0.565 -2.155
-0.28 -0.247 -2.244
-0.28 0.083 -2.262
-0.28 0.408 -2.208
-0.28 0.715 -2.086
-0.28 0.988 -1.901
-0.28 1.215 -1.661
-0.28 1.385 -1.378
-0.28 1.491 -1.065
-0.594 -1.423 -1.062
-0.594 -1.315 -1.371
-0.594 -1.141 -1.647
-0.594 -0.91 -1.879
-0.594 -0.633 -2.052
-0.594 -0.325 -2.16
-0.594 0.0 -2.197
-0.594 0.325 -2.16
-0.594 0.633 -2.052
-0.594 0.91 -1.879
-0.594 1.141 -1.647
-0.594 1.315 -1.371
-0.594 1.423 -1.062
-0.887 -1.319 -0.904
-0.887 -1.236 -1.227
-0.887 -1.075 -1.519
-0.887 -0.847 -1.761
-0.887 -0.566 -1.94
-0.887 -0.249 -2.043
-0.887 0.083 -2.064
-0.887 0.411 -2.001
-0.887 0.712 -1.86
-0.887 0.969 -1.647
-0.887 1.165 -1.378
-0.887 1.288 -1.068
-1.147 -1.095 -1.059
-1.147 -0.96 -1.354
-1.147 -0.747 -1.599
-1.147 -0.474 -1.775
-1.147 -0.162 -1.866
-1.147 0.162 -1.866
-1.147 0.474 -1.775
-1.147 0.747 -1.599
-1.147 0.96 -1.354
-1.147 1.095 -1.059
-1.362 -0.887 -0.903
-1.362 -0.767 -1.212
-1.362 -0.544 -1.457
-1.362 -0.247 -1.605
-1.362 0.083 -1.636
-1.362 0.402 -1.545
-1.362 0.667 -1.345
-1.362 0.841 -1.063
-1.522 -0.541 -1.049
-1.522 -0.312 -1.278
-1.522 -0.0 -1.362
-1.522 0.312 -1.278
-1.522 0.541 -1.049
-1.621 -0.16 -1.014
-1.621 0.16 -1.014

CELLS 978 3912
3 0 1 2
3 2 1 3
3 2 3 4
3 4 3 5
3 1 6 3
3 3 6 7
3 3 7 5
3 5 7 8
3 6 9 7
3 7 9 10
3 7 10 8
3 8 10 11
3 9 12 10
3 10 12 13
3 10 13 11
3 11 13 14
3 12 15 13
3 13 15 16
3 13 16 14
3 14 16 17
3 15 18 16
3 16 18 19
3 16 19 17
3 17 19 20
3 18 21 19
3 19 21 22
3 19 22 20
3 20 22 23
3 21 24 22
3 22 24 25
3 22 25 23
3 23 25 26
3 24 27 25
3 25 27 28
3 25 28 26
3 26 28 29
3 27 30 28
3 28 30 31
3 28 31 29
3 29 31 32
3 30 33 31
3 31 33 34
3 31 34 32
3 32 34 35
3 33 36 34
3 34 36 37
[...]
CELL_DATA 978
SCALARS cell_data_0 double
LOOKUP_TABLE default
2.72495197657e-09
4.3625274176e-09
2.59923656795e-09
1.20087738417e-09
2.15611027271e-09
6.09073675442e-10
1.23265573406e-09
4.49835408009e-10
2.05621533997e-10
2.16084048219e-11
1.21457064625e-09
5.71494214279e-10
1.15594903003e-10
6.82032898376e-11
4.23029144683e-10
1.69641481325e-10
1.23316024025e-11
4.93885434789e-12
1.28153758909e-10
7.44573239597e-11
3.51694629271e-11
3.0737371548e-12
1.30999686161e-11
9.98065035579e-11
1.43252282952e-11
3.32027138343e-11
2.11120883058e-10
1.37452307759e-10
6.82176893946e-11
5.23123409471e-11
5.35256222392e-11
1.94014131161e-12
8.64332418124e-11
2.5568957576e-11
1.21495077295e-10
2.51309636333e-10
6.30629834645e-11
3.69718138318e-12
9.3318133026e-11
2.51219583517e-10
1.97484342977e-10
1.36825018875e-10
2.34462678906e-10
3.09502134628e-10
1.52483989605e-10
5.16593326492e-12
8.74608944647e-11
3.54766150317e-10
1.75213539462e-10
4.72307569175e-11
4.16323085242e-10
4.8028520312e-10
2.15660447465e-10
1.52660843576e-10
7.45153938328e-11
1.69941626724e-10
2.63396267713e-10
1.35602617659e-11
2.2956257437e-10
1.20226414825e-10
9.43100565163e-12
1.43211381983e-10
5.09226557791e-11
6.05043034615e-11
1.61147453015e-10
8.56027138631e-12
2.30279025982e-10
2.48428672234e-10
1.5817969787e-10
5.92154554962e-11
1.33335090595e-10
1.14432721459e-10
2.21950622549e-10
1.54699977823e-11
1.4376920752e-10
2.46285097734e-10
9.90160855995e-11
7.66912358229e-12
2.01561941638e-10
1.40523181165e-10
5.9277027129e-11
1.13055402819e-11
3.01792358168e-12
2.03670730024e-10
3.44156150326e-11
5.34855617685e-11
1.52761796507e-10
1.82146755766e-10
7.96365939641e-11
2.11445147304e-11
4.1986985874e-11
1.87429861579e-11
4.27923194215e-11
5.24973079507e-12
1.81645776441e-11
2.72538563464e-11
1.44172104747e-11
5.35688119e-12
1.97851665006e-11
3.59010255941e-11
1.27941106462e-11
3.34511911558e-11
4.582619452e-12
5.24442834195e-11
1.02476120468e-11
2.23160580728e-11
4.02163692267e-12
2.06238968922e-10
2.55485587357e-10
4.208732597e-10
1.05176830085e-09
2.99492794096e-11
2.08784076967e-10
2.00781936695e-10
4.30665340219e-10
1.19380080108e-09
5.72193786541e-10
1.57673901911e-09
9.29017672862e-10
1.22817611148e-09
1.89766087011e-11
7.39188048923e-11
3.83535316909e-11
2.13539724267e-11
1.60131994937e-10
1.13824813592e-10
3.12072275022e-11
1.2441864961e-11
1.06517548885e-11
4.07617737941e-11
2.28104973975e-11
2.08009934138e-12
2.99362085237e-11
4.26425378851e-11
8.21832002795e-11
8.71750454321e-11
9.8687467199e-12
9.61235973839e-12
2.84883440873e-10
2.01900284792e-10
6.8515517341e-11
6.96872780815e-11
9.00447069224e-11
7.57860177941e-11
6.63753532629e-12
2.26866948994e-11
4.43044113438e-11
5.07083243547e-11
9.41324428915e-12
2.91903590155e-12
1.9286281258e-11
5.28124918509e-12
5.00026544716e-12
1.63579715774e-11
3.64845687101e-12
2.28039334707e-11
3.7290254884e-11
3.10119312474e-11
1.09076634585e-11
1.29129434532e-10
7.53397649457e-11
6.65481804608e-11
6.74552654397e-10
2.00405409096e-11
4.41523731919e-11
4.9863865656e-12
5.273436922e-11
4.82583877954e-11
6.99339921857e-12
1.23650979763e-11
1.43686662005e-11
1.32972464672e-11
2.4402352149e-11
2.61900684677e-11
4.28929371807e-12
5.12637843896e-11
2.42305238066e-11
2.51131652987e-11
2.76620348534e-11
2.83426178266e-12
4.61551394342e-12
3.57445660534e-11
1.99902826037e-11
8.36694883878e-12
2.01931311237e-11
1.04352663042e-11
8.5313534888e-12
1.93486120031e-11
1.32946107573e-11
1.85938076195e-12
1.61818316169e-11
9.00742780479e-11
1.90127748505e-10
1.08790193723e-11
4.41845585335e-11
4.23538562714e-11
2.54467740161e-11
1.21192872697e-11
6.92711490191e-12
8.24188360178e-12
7.81492407006e-12
1.65938830874e-13
1.50223434829e-11
7.76664778119e-12
2.55582583254e-12
2.09838808134e-12
3.0966055548e-11
5.04330687879e-11
2.28397574948e-11
1.52315968767e-12
1.37041352807e-12
4.42649403516e-12
1.89660365825e-11
1.93871588855e-11
1.35802802994e-12
1.18216138482e-11
2.6616077373e-11
2.54748244465e-11
2.18275426758e-11
7.57843822897e-13
4.84929520833e-12
1.07410501414e-11
2.1560020015e-11
3.21660344106e-11
4.69325734877e-11
1.06232878399e-11
6.05354861262e-11
2.90416949604e-11
2.35669868518e-12
1.71248799086e-12
1.65276641447e-11
1.29935783812e-11
1.39527777882e-11
6.09340184418e-12
6.51697926702e-12
4.25489516451e-12
1.34520082157e-11
9.99336090823e-12
3.02138100569e-12
9.7815833138e-12
1.05206473114e-12
2.56798337634e-15
1.69732790746e-11
3.08253157653e-12
6.01353458629e-12
7.30820688381e-12
2.08065592983e-11
4.9193242547e-13
1.63494894176e-11
5.62618584435e-12
2.72249065069e-11
4.29015511804e-12
3.79225061936e-12
1.65305353025e-11
2.60906575784e-11
2.61079710416e-11
4.18110539132e-11
1.55630314979e-11
2.37603775931e-11
2.33642639863e-12
1.00708197771e-12
2.19959517715e-12
2.34438576461e-11
2.1504637436e-12
1.78731181671e-11
1.35240780586e-11
1.01515736101e-11
1.6193770085e-11
1.53025922693e-12
1.58831446478e-12
3.59541890842e-13
1.0116360369e-11
4.36596218422e-12
2.94465057756e-12
3.47059644176e-12
7.53445570331e-12
1.27603279569e-11
1.48559284647e-11
1.91511850284e-11
1.33661956285e-11
5.04651122508e-12
5.78737365368e-12
8.59917903295e-12
5.87770095228e-12
9.98312644805e-12
9.16892233972e-12
1.4684748068e-11
3.90193766763e-12
2.56557583275e-11
7.14237469357e-12
3.04169613929e-11
7.34799500756e-12
4.26444075299e-12
2.43751786654e-11
9.2673704591e-12
6.34702883427e-12
3.85583041675e-11
9.44958481242e-12
1.96226264873e-11
2.08029176631e-12
6.45412372288e-12
4.50488108253e-12
2.06565469918e-12
8.63963432437e-12
3.01592084198e-12
8.74532968397e-12
1.55936586146e-11
2.18232027593e-13
2.34460186256e-12
8.87638315567e-12
1.3120731271e-11
1.1055713291e-11
7.65487814844e-12
2.63052455801e-12
2.23127608264e-11
2.34309074521e-11
1.45296461502e-11
1.7426189562e-11
2.0210262608e-14
8.52650961643e-12
5.62064327362e-13
1.75068151536e-11
7.77430659706e-12
7.01622638635e-12
2.69505518655e-11
1.46297915468e-11
1.79623801917e-12
1.78965413491e-11
1.795212252e-12
3.73200198292e-12
3.05863173261e-13
1.07827449553e-11
6.44616128157e-12
1.52922466971e-12
1.53852878143e-11
7.24471232177e-12
8.71844858557e-12
2.62415155614e-11
1.4403720122e-11
1.05717001264e-11
6.56775885856e-13
2.57471827553e-12
5.01929686955e-12
1.22383256247e-11
4.37205523208e-12
4.56039967027e-13
1.69123079761e-12
1.27822607343e-11
1.02688772943e-11
1.46464878436e-13
1.63440011838e-12
5.01239524723e-12
3.69172268524e-13
1.43541709005e-12
3.07831410268e-12
8.40899919068e-12
3.48648064474e-12
1.17379441413e-11
1.59930101519e-11
1.3338201947e-12
3.99342073824e-12
3.75290297133e-12
3.23398528995e-11
3.64466806311e-11
3.24636585092e-12
2.38208559706e-11
1.15596959908e-11
5.75278687646e-12
2.33258151313e-11
1.27474560309e-11
4.05368456754e-12
1.2141564207e-11
4.42408141411e-13
2.92652618213e-13
7.70385748824e-13
6.83655512257e-12
8.29663491993e-12
7.90242301662e-12
3.6611163918e-12
7.26921131763e-12
1.13158393109e-12
2.97817350525e-12
3.38925884881e-12
5.43852682857e-12
4.38462873013e-13
3.30626556644e-12
2.45519613518e-12
1.60168880756e-12
8.7839412164e-13
7.21449026316e-12
7.8026400022e-12
1.63274050734e-11
2.08742651667e-11
5.90622021108e-13
4.76075150574e-13
5.27835828695e-12
9.184659689e-14
5.21664735746e-12
5.58903318961e-12
2.59014457221e-12
2.47129434442e-12
4.76938700059e-12
3.17031672318e-11
2.35753997672e-11
1.91635249097e-11
6.5544666272e-12
1.26330064984e-11
3.03783364598e-11
1.95135137341e-11
2.64212299509e-11
3.18431748498e-11
8.63392411348e-12
1.68254060555e-11
3.76262376723e-12
2.02087777246e-12
2.04560036862e-11
2.17558036663e-11
1.51087999192e-11
5.82629605947e-12
5.04747669465e-12
2.88327067968e-12
1.3113852171e-11
1.17536341738e-11
9.02022346169e-12
1.51114950952e-11
5.24650973e-12
1.38117537495e-11
8.78180478925e-12
1.18583390833e-12
2.92176937781e-11
1.62425545573e-11
6.33603183354e-12
2.14202492312e-12
1.75522095752e-13
1.13291774077e-12
8.79264363264e-12
2.98398723818e-11
1.34307409941e-11
6.2497689308e-12
5.75321041823e-13
1.82747976201e-13
1.84605873875e-12
1.56209667187e-13
1.3096024818e-13
1.28375566307e-13
1.96585495996e-12
3.7819038035e-12
4.2987984874e-12
2.44964296483e-12
9.92251233147e-12
1.45117605624e-12
1.17026955153e-11
1.28182541721e-12
5.24154295466e-12
8.25359261384e-12
5.90373774153e-12
6.10211042917e-12
1.9489950856e-11
7.61897532183e-12
1.6261548323e-11
2.18406703497e-11
6.06939057514e-12
1.16109681722e-11
1.03206249147e-11
1.34982739475e-11
4.07336703534e-12
2.39065482406e-12
5.39430119891e-12
1.8668732254e-11
1.69337289605e-12
1.41195289086e-11
4.35380474153e-12
6.72253528335e-12
2.96297237787e-12
7.78782566213e-12
2.7765752326e-12
2.80777956762e-12
7.6810933524e-12
1.88061326208e-12
2.45820953701e-11
2.66732795211e-11
4.3311338152e-12
6.61506738857e-12
1.12437121091e-11
3.50384429044e-12
1.3239637181e-12
1.73753549393e-12
3.0015609543e-13
4.51085443608e-12
8.48871974309e-12
2.14349886956e-12
1.18153838837e-11
1.35140225894e-11
9.87120599158e-12
3.77116571683e-13
2.13452726995e-12
1.34684582612e-11
1.87790828162e-11
6.26229568613e-12
1.53398167884e-11
1.21737755522e-11
2.02595221103e-12
5.04768988077e-12
3.23276232126e-12
1.30978245102e-11
9.6199523529e-12
1.32781564359e-11
8.04452712847e-12
7.53792870863e-12
8.01958578984e-12
1.04196387662e-11
8.29983101847e-12
5.76134936751e-12
3.87945923207e-12
7.14358148866e-12
1.7466874885e-11
1.15557341073e-11
4.58173825238e-12
1.09643891217e-11
7.99684192182e-12
2.41906698001e-11
6.38750170528e-12
2.26663369372e-12
9.01609400449e-13
4.41722441719e-12
1.4860476001e-12
1.34896371157e-11
6.13126927846e-12
6.31771635644e-12
1.27365105021e-11
1.79610190691e-12
1.12185635454e-11
3.86086122181e-12
8.22654548835e-12
1.43397214235e-11
1.17849484535e-11
4.53835518251e-12
8.06592811854e-12
2.34785451056e-12
8.73446610696e-12
1.42500750692e-11
7.04387010518e-12
9.72854336989e-12
6.20542219062e-12
1.40963063867e-12
2.00010080003e-12
1.68660377423e-12
3.6957431944e-13
6.85174008595e-12
2.54729227342e-11
3.89647993488e-11
5.73668826732e-13
2.91914879299e-11
3.04815441879e-11
1.42006087468e-11
1.72114677674e-11
6.44846482548e-12
3.14691239305e-12
1.46835421669e-12
4.53546726235e-12
4.74011169736e-13
5.8448188316e-12
5.29984845904e-12
1.36001809609e-12
3.69888833947e-12
3.77995574909e-12
8.31769531574e-13
7.76631967924e-12
3.81563395487e-12
1.1790820181e-12
7.38748736102e-12
1.15239767815e-11
7.11851932465e-12
9.34580401254e-12
1.70667906152e-12
1.71055899857e-12
1.65290202684e-12
3.95639201805e-12
9.99971332049e-12
4.54648719076e-11
5.35678808915e-11
2.92212042883e-11
4.22819283164e-11
4.14799314316e-11
8.47642619266e-12
8.40675249546e-12
6.95676831814e-12
3.73982604736e-12
1.36116171353e-12
2.73564695386e-12
4.59556825261e-12
8.80797027301e-13
7.42722502325e-12
6.12850988604e-12
2.92341794742e-13
4.27777393402e-12
3.46161989586e-12
3.023411377e-12
5.1538680714e-13
2.38013677559e-12
3.26984528676e-12
5.9384256136e-12
3.44207091352e-12
3.73688860416e-12
2.52520922163e-11
3.53905428371e-11
2.93037562448e-11
3.28949383737e-11
3.40657306689e-11
2.67615553723e-11
1.02428589315e-11
8.63733165938e-14
7.82099701535e-12
5.7588460528e-12
1.71238839701e-12
5.52212848701e-13
8.8932843406e-13
2.14618448211e-12
1.54630798845e-12
4.40352870351e-12
7.1766909674e-12
4.45150990563e-12
2.3074416676e-11
3.15136445692e-11
2.38348629016e-11
4.06176147874e-11
2.56233584704e-11
3.13050242473e-11
2.62412874046e-11
2.94579108901e-11
1.88856797011e-11
4.94532702223e-12
6.25360461716e-12
8.99845221244e-12
2.90242153513e-12
8.26147730581e-12
3.6315084868e-11
6.73221924179e-11
5.13398974899e-11
4.96002043538e-11
4.65470050973e-11
1.01233411711e-11
4.46519441905e-12
1.17800251257e-11
6.31508561005e-12
9.31094839748e-12
1.82216612892e-12
7.45163404559e-11
1.64179150216e-10
2.11520803942e-11
1.67237819785e-10
5.49673456295e-11
2.4299928039e-10
1.60243739401e-10
3.11328798471e-10
8.4980844908e-11
1.34498101485e-10
1.18040031956e-10
1.73891656719e-10
9.7713449318e-11
1.07189154179e-10
9.47191939984e-11
9.27879819373e-11
2.6875685857e-11
6.93883556087e-12
7.55394864862e-11
2.80887905714e-11
5.50023917108e-11
2.06723325803e-12
9.29607780666e-12
1.84784664889e-12
1.90246148441e-11
5.48219270894e-12
5.68977146474e-11
2.82486258837e-11
3.67199740856e-11
2.25693905652e-10
6.14813808236e-10
8.86757773201e-11
4.15838918162e-10
4.19765445324e-10
1.3118329934e-09
9.64362765087e-10
8.1611719208e-10
1.18678213394e-10
6.15272380246e-10
3.22585311525e-10
3.17811938918e-10
3.75403813768e-10
6.85308247908e-11
3.48302861699e-11
5.61366887598e-11
3.60479566967e-11
9.89978189073e-12
5.38948643453e-12
6.79354941442e-12
4.7111857948e-11
2.50191733109e-11
4.62370184598e-11
1.56841971595e-11
1.10193421049e-11
4.13086374905e-11
4.71100537287e-11
1.21371868521e-10
9.57382557443e-11
1.94100990964e-10
2.51348524309e-11
1.82141371622e-10
6.96343708741e-11
2.55849531558e-10
1.19036587304e-10
2.31448740773e-10
2.85291713235e-09
1.98325235749e-09
7.62785672842e-10
3.10539362771e-09
4.18169002933e-09
5.21255716996e-09
8.11355004403e-09
9.51959212556e-09
1.04796038867e-08
3.98012208564e-10
1.68973634564e-09
1.07192725274e-09
1.11125711726e-09
1.40174985538e-11
7.7481067827e-10
6.26647125363e-10
1.4658946867e-09
2.98510523568e-09
8.97425980492e-10
1.6191457441e-10
2.30419118163e-10
1.0331258857e-10
1.36462563215e-10
8.36703316912e-10
6.46453629759e-10
3.76944963623e-10
1.43901687066e-10
7.95703797129e-10
9.67758872942e-10
4.24302635026e-10
4.28653019539e-10
6.03736055547e-10
2.26886219186e-10
4.950844806e-10
2.28295945111e-10
1.30491614926e-10
1.46726454781e-10
9.28640965436e-11
2.30734065779e-11
2.39405628961e-10
1.20352821066e-10
1.70565284209e-10
7.30268442371e-11
2.36920033706e-10
9.35977885897e-11
9.2174815469e-11
5.12276366415e-11
1.1776466412e-10
3.89018751745e-10
1.42539070684e-10
8.57654959854e-11
8.0956875375e-11
1.27208687111e-10
4.64096163537e-11
3.83207943657e-11
4.54963969097e-12
1.21275059488e-10
5.45950035194e-11
7.04436564356e-11
4.83096490851e-11
5.66529356822e-11
5.18337289836e-11
5.36622469471e-11
5.7137559367e-11
8.01092298794e-11
2.70010674136e-11
2.33328309907e-11
4.91837654841e-11
1.32390683302e-11
2.76538427345e-11
1.94500546462e-11
1.04858909889e-11
2.03750257286e-12
1.50550235203e-11
1.22669636637e-11
9.13535520877e-12
9.84121108169e-12
4.97814640499e-12
1.61029038405e-11
2.10337350638e-11
7.97678273365e-12
4.30579079742e-12
2.47181784987e-12
4.79653309652e-12
2.8920594398e-11
4.34148847631e-11
2.22792565877e-11
4.84614129245e-11
1.07317897247e-11
1.15278116316e-11
1.05398556482e-10
4.31004507091e-12
1.08057972397e-11
6.09989563816e-11
2.26118249608e-11
2.53883487133e-11
2.27655577386e-11
4.31432300444e-11
2.3269105988e-11
2.46385674293e-11
2.50529766271e-12
1.29920143544e-11
1.08201108131e-10
1.28330829043e-11
7.99864600546e-11
3.74696815274e-11
8.85240861448e-11
4.86673107298e-11
8.60693885547e-11
6.38741055416e-11
3.40407593005e-11
2.71446469652e-11
7.76905116883e-11
6.84983864711e-11
5.50024063635e-11
1.26080352472e-11
8.70000764677e-11
7.47350502944e-11
3.01330888315e-11
5.50225551481e-11
4.83048677568e-11
6.26384455211e-11
2.40467014261e-11
2.97280195511e-11
4.20415626466e-11
2.0399985994e-11
9.61537772767e-11
3.62473866171e-11
6.01966277029e-11
2.30261727185e-10
2.61887174527e-11
1.15206868938e-10
2.08255413521e-10
3.7787218933e-11
1.51305459174e-11
3.19365508258e-11
3.40088729857e-11
2.60240275328e-11
7.52449557418e-13
8.14671333412e-11
9.99109780991e-11
1.59641621533e-11
5.64812568185e-11
2.74961342986e-11
5.68345278143e-12
1.6690925299e-12
1.11108882486e-12
8.54508866086e-11
1.16183891523e-10
2.76673076137e-11
3.46971351784e-11
5.51217584688e-11
1.00390665498e-10
2.48493618049e-11
9.7311504173e-11
1.05363788804e-10
1.28777147895e-10
4.57116762795e-11
4.51844426166e-12
1.39568841298e-11
2.54607436581e-11
2.45019703455e-11
1.93420474589e-11
1.40303222652e-10
4.54399318588e-11
5.61830732626e-11
2.45826467474e-11
1.71949754635e-10
5.18489857041e-11
3.18615664764e-12
3.62849081569e-11
6.55976273904e-11
5.37440329942e-11
1.10482831715e-10
8.39606413793e-11
1.15875734489e-10
1.06329979232e-10
5.16864224019e-11
6.89549552241e-11
2.18568536678e-11
4.51509111962e-11
1.74234777574e-10
3.24202597561e-11
5.63747751103e-12
1.08989672886e-10
2.02733173372e-10
1.14159539572e-10
9.6285141935e-11
9.5765015646e-11
7.60639700983e-11
7.2552830693e-11
2.9122708923e-10
5.45158328855e-11
1.9089614575e-11
8.08581087976e-11
8.33584685365e-12
2.05663278211e-11
3.4540450743e-11
2.90003706156e-11
8.35307393132e-11
1.37963806147e-10
1.08492602739e-10
6.2824671859e-11
7.99106497323e-12
1.32310285249e-11
4.21634315745e-11
2.62356273333e-11
2.25684031629e-10
1.91011256962e-10
6.17554133373e-12
1.16918654767e-10
1.99083213878e-11
1.52382034024e-10
1.12630540804e-10
1.83686576588e-10
1.53805388358e-10
7.7296378858e-11
2.04965078321e-11
1.8945530526e-10
4.37194372734e-11
3.34351121483e-12
5.34514279727e-11
2.30405900175e-11
2.47295240958e-11
1.99963680512e-11
2.4939984376e-11
1.74806766728e-11
6.01108740582e-11
6.58674189541e-10
5.88561339517e-10
2.16824189212e-09
9.09568536495e-09
2.39886359651e-09
2.52297715434e-10
3.67973022419e-09
3.00846256974e-10
2.7688199829e-09
1.92377973388e-10
1.23241314031e-08
1.09939608902e-08
8.03558526568e-09
9.14245264319e-09
1.24946086421e-10
7.89723107998e-11
4.10678330543e-11
5.32922920075e-11
2.53052802485e-12
3.75638338032e-11
1.01819893169e-10
1.5365542889e-11
1.05935889506e-10
6.41990872466e-11
1.02680694082e-10
1.90902196031e-10
9.8672781847e-11
5.8768039734e-11
2.12118326636e-10
1.78376349283e-10
7.00193549356e-11
2.08791678208e-10
2.20296690856e-10
2.38968205301e-10
1.77625985116e-11
1.32601130105e-10
2.00972266974e-10
5.58724781808e-11

