# vtk DataFile Version 3.0
File Name: Molecule/methanol/methanol_8.0-0.vtk
ASCII
DATASET UNSTRUCTURED_GRID
FIELD FieldData 1
TIME 1 1 double
0.0
POINTS 373 double
1.611 0.0 -0.359
1.569 -0.375 -0.355
1.403 0.0 -0.933
1.365 -0.341 -0.929
1.445 -0.731 -0.342
1.252 -0.666 -0.918
1.245 -1.05 -0.322
1.07 -0.957 -0.9
0.98 -1.317 -0.296
0.828 -1.2 -0.876
0.662 -1.518 -0.264
0.538 -1.382 -0.847
0.308 -1.642 -0.229
0.216 -1.496 -0.815
-0.065 -1.684 -0.192
-0.124 -1.534 -0.781
-0.438 -1.642 -0.155
-0.464 -1.496 -0.747
-0.793 -1.518 -0.119
-0.787 -1.382 -0.715
-1.11 -1.317 -0.088
-1.076 -1.2 -0.686
-1.376 -1.05 -0.061
-1.318 -0.957 -0.662
-1.576 -0.731 -0.042
-1.5 -0.666 -0.644
-1.7 -0.375 -0.029
-1.613 -0.341 -0.633
-1.742 0.0 -0.025
-1.651 0.0 -0.629
-1.7 0.375 -0.029
-1.613 0.341 -0.633
-1.576 0.731 -0.042
-1.5 0.666 -0.644
-1.376 1.05 -0.061
-1.318 0.957 -0.662
-1.11 1.317 -0.088
-1.076 1.2 -0.686
-0.793 1.518 -0.119
-0.787 1.382 -0.715
-0.438 1.642 -0.155
-0.464 1.496 -0.747
-0.065 1.684 -0.192
-0.124 1.534 -0.781
0.308 1.642 -0.229
0.216 1.496 -0.815
0.662 1.518 -0.264
0.538 1.382 -0.847
0.98 1.317 -0.296
0.828 1.2 -0.876
1.245 1.05 -0.322
1.07 0.957 -0.9
1.445 0.731 -0.342
1.252 0.666 -0.918
1.569 0.375 -0.355
1.365 0.341 -0.929
1.907 0.0 0.656
1.87 0.368 0.656
1.87 0.184 0.974
1.87 -0.184 0.974
1.87 -0.368 0.656
1.87 -0.184 0.337
1.87 0.184 0.337
1.763 0.626 1.017
1.763 0.361 1.281
1.763 -0.0 1.378
1.763 -0.361 1.281
1.763 -0.626 1.017
1.763 -0.722 0.656
1.763 -0.626 0.294
1.763 -0.361 0.03
1.763 -0.0 -0.067
1.763 0.361 0.03
1.763 0.626 0.294
1.763 0.722 0.656
1.588 0.985 1.014
1.588 0.803 1.33
1.588 0.524 1.564
1.588 0.182 1.688
1.588 -0.182 1.688
1.588 -0.524 1.564
1.588 -0.803 1.33
1.588 -0.985 1.014
1.588 -1.049 0.656
1.588 -0.985 0.297
1.588 -0.803 -0.018
1.588 0.803 -0.018
1.588 0.985 0.297
1.588 1.049 0.656
1.354 1.285 1.016
1.354 1.14 1.349
1.354 0.911 1.631
1.354 0.614 1.841
1.354 0.272 1.962
1.354 -0.091 1.987
1.354 -0.447 1.913
1.354 -0.77 1.746
1.354 -1.035 1.498
1.354 -1.224 1.187
1.354 -1.322 0.837
1.354 -1.322 0.474
1.354 -1.224 0.124
1.354 1.14 -0.038
1.354 1.285 0.296
1.354 1.335 0.656
1.068 1.527 1.018
1.068 1.402 1.36
1.068 1.202 1.664
1.068 0.937 1.914
1.068 0.622 2.097
1.068 0.273 2.201
1.068 -0.091 2.222
1.068 -0.45 2.159
1.068 -0.785 2.015
1.068 -1.077 1.797
1.068 -1.311 1.518
1.068 -1.475 1.192
1.068 -1.559 0.838
1.068 -1.559 0.473
1.068 -1.475 0.119
1.068 1.402 -0.049
1.068 1.527 0.294
1.068 1.569 0.656
0.741 1.706 1.018
0.741 1.593 1.365
0.741 1.411 1.681
0.741 1.167 1.952
0.741 0.872 2.166
0.741 0.539 2.314
0.741 0.182 2.39
0.741 -0.182 2.39
0.741 -0.539 2.314
0.741 -0.872 2.166
0.741 -1.167 1.952
0.741 -1.411 1.681
0.741 -1.593 1.365
0.741 -1.706 1.018
0.741 -1.744 0.656
0.741 -1.706 0.293
0.741 -1.593 -0.054
0.741 1.593 -0.054
0.741 1.706 0.293
0.741 1.744 0.656
0.387 1.816 1.017
0.387 1.71 1.364
0.387 1.539 1.684
0.387 1.309 1.965
0.387 1.028 2.195
0.387 0.708 2.366
0.387 0.361 2.471
0.387 0.0 2.507
0.387 -0.361 2.471
0.387 -0.708 2.366
0.387 -1.028 2.195
0.387 -1.309 1.965
0.387 -1.539 1.684
0.387 -1.71 1.364
0.387 -1.816 1.017
0.387 -1.851 0.656
0.387 -1.816 0.294
0.387 -1.71 -0.053
0.387 1.71 -0.053
0.387 1.816 0.294
0.387 1.851 0.656
0.019 1.853 1.013
0.019 1.752 1.357
0.019 1.588 1.676
0.019 1.366 1.958
0.019 1.095 2.193
0.019 0.784 2.373
0.019 0.445 2.49
0.019 0.09 2.541
0.019 -0.269 2.524
0.019 -0.617 2.439
0.019 -0.944 2.29
0.019 -1.236 2.082
0.019 -1.484 1.822
0.019 -1.678 1.521
0.019 -1.811 1.187
0.019 -1.879 0.835
0.019 -1.879 0.476
0.019 -1.811 0.124
0.019 1.853 0.298
0.019 1.888 0.656
-0.349 1.851 0.656
-0.349 1.816 1.017
-0.349 1.71 1.364
-0.349 1.539 1.684
-0.349 1.309 1.965
-0.349 1.028 2.195
-0.349 0.708 2.366
-0.349 0.361 2.471
-0.349 0.0 2.507
-0.349 -0.361 2.471
-0.349 -0.708 2.366
-0.349 -1.028 2.195
-0.349 -1.309 1.965
-0.349 -1.539 1.684
-0.349 -1.71 1.364
-0.349 -1.816 1.017
-0.349 -1.851 0.656
-0.349 -1.816 0.294
-0.349 1.816 0.294
-0.703 1.744 0.656
-0.703 1.706 1.018
-0.703 1.593 1.365
-0.703 1.411 1.681
-0.703 1.167 1.952
-0.703 0.872 2.166
-0.703 0.539 2.314
-0.703 0.182 2.39
-0.703 -0.182 2.39
-0.703 -0.539 2.314
-0.703 -0.872 2.166
-0.703 -1.167 1.952
-0.703 -1.411 1.681
-0.703 -1.593 1.365
-0.703 -1.706 1.018
-0.703 -1.744 0.656
-0.703 -1.706 0.293
-0.703 1.706 0.293
-1.03 1.569 0.656
-1.03 1.527 1.018
-1.03 1.402 1.36
-1.03 1.202 1.664
-1.03 0.937 1.914
-1.03 0.622 2.097
-1.03 0.273 2.201
-1.03 -0.091 2.222
-1.03 -0.45 2.159
-1.03 -0.785 2.015
-1.03 -1.077 1.797
-1.03 -1.311 1.518
-1.03 -1.475 1.192
-1.03 -1.559 0.838
-1.03 -1.559 0.473
-1.03 -1.475 0.119
-1.03 1.527 0.294
-1.316 1.335 0.656
-1.316 1.285 1.016
-1.316 1.14 1.349
-1.316 0.911 1.631
-1.316 0.614 1.841
-1.316 0.272 1.962
-1.316 -0.091 1.987
-1.316 -0.447 1.913
-1.316 -0.77 1.746
-1.316 -1.035 1.498
-1.316 -1.224 1.187
-1.316 -1.322 0.837
-1.316 -1.322 0.474
-1.316 -1.224 0.124
-1.316 1.285 0.296
-1.55 1.049 0.656
-1.55 0.985 1.014
-1.55 0.803 1.33
-1.55 0.524 1.564
-1.55 0.182 1.688
-1.55 -0.182 1.688
-1.55 -0.524 1.564
-1.55 -0.803 1.33
-1.55 -0.985 1.014
-1.55 -1.049 0.656
-1.55 -0.985 0.297
-1.55 0.985 0.297
-1.725 0.722 0.656
-1.725 0.626 1.017
-1.725 0.361 1.281
-1.725 -0.0 1.378
-1.725 -0.361 1.281
-1.725 -0.626 1.017
-1.725 -0.722 0.656
-1.725 -0.626 0.294
-1.725 0.626 0.294
-1.832 0.368 0.656
-1.832 0.184 0.974
-1.832 -0.184 0.974
-1.832 -0.368 0.656
-1.832 -0.184 0.337
-1.832 0.184 0.337
-1.868 -0.0 0.656
1.239 -0.357 -1.355
1.029 -0.613 -1.549
1.029 -0.279 -1.716
1.239 -0.0 -1.451
1.029 0.094 -1.751
1.239 0.357 -1.355
1.029 0.454 -1.648
1.029 0.752 -1.423
1.029 -0.865 -1.273
0.752 -1.212 -1.093
0.752 -1.063 -1.42
0.752 -0.827 -1.692
0.752 -0.525 -1.886
0.752 -0.18 -1.988
0.752 0.18 -1.988
0.752 0.525 -1.886
0.752 0.827 -1.692
0.752 1.063 -1.42
1.029 0.949 -1.105
0.752 1.212 -1.093
0.425 -1.334 -1.266
0.425 -1.161 -1.581
0.425 -0.915 -1.843
0.425 -0.611 -2.036
0.425 -0.269 -2.147
0.425 0.09 -2.17
0.425 0.444 -2.102
0.425 0.769 -1.949
0.425 1.046 -1.72
0.425 1.258 -1.429
0.425 1.39 -1.094
0.065 -1.48 -1.102
0.065 -1.349 -1.445
0.065 -1.141 -1.748
0.065 -0.866 -1.991
0.065 -0.54 -2.162
0.065 -0.184 -2.25
0.065 0.184 -2.25
0.065 0.54 -2.162
0.065 0.866 -1.991
0.065 1.141 -1.748
0.065 1.349 -1.445
0.065 1.48 -1.102
-0.305 -1.48 -1.102
-0.305 -1.349 -1.445
-0.305 -1.141 -1.748
-0.305 -0.866 -1.991
-0.305 -0.54 -2.162
-0.305 -0.184 -2.25
-0.305 0.184 -2.25
-0.305 0.54 -2.162
-0.305 0.866 -1.991
-0.305 1.141 -1.748
-0.305 1.349 -1.445
-0.305 1.48 -1.102
-0.664 -1.424 -0.917
-0.664 -1.334 -1.266
-0.664 -1.161 -1.581
-0.664 -0.915 -1.843
-0.664 -0.611 -2.036
-0.664 -0.269 -2.147
-0.664 0.09 -2.17
-0.664 0.444 -2.102
-0.664 0.769 -1.949
-0.664 1.046 -1.72
-0.664 1.258 -1.429
-0.664 1.39 -1.094
-0.992 -1.212 -1.093
-0.992 -1.063 -1.42
-0.992 -0.827 -1.692
-0.992 -0.525 -1.886
-0.992 -0.18 -1.988
-0.992 0.18 -1.988
-0.992 0.525 -1.886
-0.992 0.827 -1.692
-0.992 1.063 -1.42
-0.992 1.212 -1.093
-1.269 -1.001 -0.924
-1.269 -0.865 -1.273
-1.269 -0.613 -1.549
-1.269 -0.279 -1.716
-1.269 0.094 -1.751
-1.269 0.454 -1.648
-1.269 0.752 -1.423
-1.269 0.949 -1.105
-1.479 -0.618 -1.094
-1.479 -0.357 -1.355
-1.479 -0.0 -1.451
-1.479 0.357 -1.355
-1.479 0.618 -1.094
-1.61 -0.184 -1.055
-1.61 0.184 -1.055

CELLS 742 2968
3 0 1 2
3 2 1 3
3 1 4 3
3 3 4 5
3 4 6 5
3 5 6 7
3 6 8 7
3 7 8 9
3 8 10 9
3 9 10 11
3 10 12 11
3 11 12 13
3 12 14 13
3 13 14 15
3 14 16 15
3 15 16 17
3 16 18 17
3 17 18 19
3 18 20 19
3 19 20 21
3 20 22 21
3 21 22 23
3 22 24 23
3 23 24 25
3 24 26 25
3 25 26 27
3 26 28 27
3 27 28 29
3 28 30 29
3 29 30 31
3 30 32 31
3 31 32 33
3 32 34 33
3 33 34 35
3 34 36 35
3 35 36 37
3 36 38 37
3 37 38 39
3 38 40 39
3 39 40 41
3 40 42 41
3 41 42 43
3 42 44 43
3 43 44 45
3 44 46 45
3 45 46 47
3 46 48 47
3 47 48 49
3 48 50 49
3 49 50 51
3 50 52 51
3 51 52 53
3 52 54 53
3 53 54 55
3 54 0 55
3 55 0 2
3 56 57 58
3 56 58 59
3 56 59 60
3 56 60 61
3 56 61 62
3 56 62 57
3 58 57 63
3 58 63 64
3 58 64 65
3 59 58 65
3 59 65 66
3 59 66 67
3 60 59 67
3 60 67 68
3 60 68 69
3 61 60 69
3 61 69 70
3 61 70 71
3 62 61 71
3 62 71 72
3 62 72 73
3 57 62 73
3 57 73 74
3 57 74 63
3 63 74 75
3 63 75 76
3 64 63 76
3 64 76 77
3 64 77 78
3 65 64 78
3 65 78 79
3 66 65 79
3 66 79 80
3 66 80 81
3 67 66 81
3 67 81 82
3 68 67 82
3 68 82 83
3 68 83 84
3 69 68 84
3 69 84 85
3 70 69 85
3 73 72 86
3 73 86 87
3 74 73 87
3 74 87 88
3 74 88 75
3 75 88 89
3 75 89 90
3 76 75 90
3 76 90 91
3 77 76 91
3 77 91 92
3 78 77 92
3 78 92 93
3 78 93 94
3 79 78 94
3 79 94 95
3 80 79 95
3 80 95 96
3 81 80 96
3 81 96 97
3 81 97 98
3 82 81 98
3 82 98 99
3 83 82 99
3 83 99 100
3 84 83 100
3 84 100 101
3 85 84 101
3 87 86 102
3 87 102 103
3 88 87 103
3 88 103 104
3 88 104 89
3 89 104 105
3 89 105 106
3 90 89 106
3 90 106 107
3 91 90 107
3 91 107 108
3 92 91 108
3 92 108 109
3 93 92 109
3 93 109 110
3 94 93 110
3 94 110 111
3 94 111 112
3 95 94 112
3 95 112 113
3 96 95 113
3 96 113 114
3 97 96 114
3 97 114 115
3 98 97 115
3 98 115 116
3 99 98 116
3 99 116 117
3 99 117 118
3 100 99 118
3 100 118 119
3 101 100 119
3 103 102 120
3 103 120 121
3 104 103 121
3 104 121 122
3 104 122 105
3 105 122 123
3 105 123 124
3 106 105 124
3 106 124 125
3 107 106 125
3 107 125 126
3 108 107 126
3 108 126 127
3 109 108 127
3 109 127 128
3 110 109 128
3 110 128 129
3 111 110 129
3 111 129 130
3 112 111 130
3 112 130 131
3 113 112 131
3 113 131 132
3 113 132 133
3 114 113 133
3 114 133 134
3 115 114 134
3 115 134 135
3 116 115 135
3 116 135 136
3 117 116 136
3 117 136 137
3 118 117 137
3 118 137 138
3 119 118 138
3 119 138 139
3 121 120 140
3 121 140 141
3 122 121 141
3 122 141 142
3 122 142 123
3 123 142 143
3 123 143 144
3 124 123 144
3 124 144 145
3 125 124 145
3 125 145 146
3 126 125 146
3 126 146 147
3 127 126 147
3 127 147 148
3 128 127 148
3 128 148 149
3 129 128 149
3 129 149 150
3 130 129 150
3 130 150 151
3 131 130 151
3 131 151 152
3 132 131 152
3 132 152 153
3 133 132 153
3 133 153 154
3 134 133 154
3 134 154 155
3 135 134 155
3 135 155 156
3 136 135 156
3 136 156 157
3 137 136 157
3 137 157 158
3 137 158 159
3 138 137 159
3 138 159 160
3 139 138 160
3 141 140 161
3 141 161 162
3 142 141 162
3 142 162 163
3 142 163 143
3 143 163 164
3 143 164 165
3 144 143 165
3 144 165 166
3 145 144 166
3 145 166 167
3 146 145 167
3 146 167 168
3 147 146 168
3 147 168 169
3 148 147 169
3 148 169 170
3 149 148 170
3 149 170 171
3 150 149 171
3 150 171 172
3 151 150 172
3 151 172 173
3 152 151 173
3 152 173 174
3 153 152 174
3 153 174 175
3 154 153 175
3 154 175 176
3 155 154 176
3 155 176 177
3 156 155 177
3 156 177 178
3 157 156 178
3 157 178 179
3 158 157 179
3 158 179 180
3 159 158 180
3 159 180 181
3 160 159 181
3 163 162 182
3 163 182 183
3 163 183 164
3 164 183 184
3 164 184 185
3 165 164 185
3 165 185 186
3 166 165 186
3 166 186 187
3 167 166 187
3 167 187 188
3 168 167 188
3 168 188 189
3 169 168 189
3 169 189 190
3 170 169 190
3 170 190 191
3 171 170 191
3 171 191 192
3 172 171 192
3 172 192 193
3 173 172 193
3 173 193 194
3 174 173 194
3 174 194 195
3 175 174 195
3 175 195 196
3 176 175 196
3 176 196 197
3 177 176 197
3 177 197 198
3 178 177 198
3 178 198 199
3 179 178 199
3 179 199 200
3 180 179 200
3 180 200 201
3 181 180 201
3 184 182 202
3 183 182 184
3 185 184 203
3 185 203 204
3 186 185 204
3 186 204 205
3 187 186 205
3 187 205 206
3 188 187 206
3 188 206 207
3 189 188 207
3 189 207 208
3 190 189 208
3 190 208 209
3 191 190 209
3 191 209 210
3 192 191 210
3 192 210 211
3 193 192 211
3 193 211 212
3 194 193 212
3 194 212 213
3 195 194 213
3 195 213 214
3 196 195 214
3 196 214 215
3 197 196 215
3 197 215 216
3 198 197 216
3 198 216 217
3 199 198 217
3 199 217 218
3 200 199 218
3 201 200 218
3 201 218 219
3 203 202 220
3 184 202 203
3 204 203 221
3 204 221 222
3 205 204 222
3 205 222 223
3 206 205 223
3 206 223 224
3 207 206 224
3 207 224 225
3 208 207 225
3 208 225 226
3 209 208 226
3 209 226 227
3 210 209 227
3 210 227 228
3 211 210 228
3 211 228 229
3 212 211 229
3 212 229 230
3 213 212 230
3 214 213 230
3 214 230 231
3 215 214 231
3 215 231 232
3 216 215 232
3 216 232 233
3 217 216 233
3 217 233 234
3 218 217 234
3 218 234 235
3 219 218 235
3 219 235 236
3 221 220 237
3 203 220 221
3 222 221 238
3 222 238 239
3 223 222 239
3 223 239 240
3 224 223 240
3 224 240 241
3 225 224 241
3 225 241 242
3 226 225 242
3 226 242 243
3 227 226 243
3 227 243 244
3 228 227 244
3 229 228 244
3 229 244 245
3 230 229 245
3 230 245 246
3 231 230 246
3 231 246 247
3 232 231 247
3 232 247 248
3 233 232 248
3 233 248 249
3 234 233 249
3 234 249 250
3 235 234 250
3 236 235 250
3 236 250 251
3 238 237 252
3 221 237 238
3 239 238 253
3 239 253 254
3 240 239 254
3 240 254 255
3 241 240 255
3 241 255 256
3 242 241 256
3 242 256 257
3 243 242 257
3 244 243 257
3 244 257 258
3 245 244 258
3 245 258 259
3 246 245 259
3 246 259 260
3 247 246 260
3 248 247 260
3 248 260 261
3 249 248 261
3 249 261 262
3 250 249 262
3 250 262 263
3 251 250 263
3 253 252 264
3 238 252 253
3 254 253 265
3 254 265 266
3 255 254 266
3 255 266 267
3 256 255 267
3 257 256 267
3 257 267 268
3 258 257 268
3 258 268 269
3 259 258 269
3 260 259 269
3 260 269 270
3 261 260 270
3 261 270 271
3 262 261 271
3 263 262 271
3 263 271 272
3 265 264 273
3 253 264 265
3 266 265 274
3 266 274 275
3 267 266 275
3 268 267 275
3 268 275 276
3 269 268 276
3 270 269 276
3 270 276 277
3 271 270 277
3 272 271 277
3 272 277 278
3 274 273 279
3 265 273 274
3 275 274 280
3 276 275 280
3 277 276 280
3 278 277 280
3 279 278 280
3 274 279 280
3 279 273 30
3 279 30 28
3 279 28 278
3 278 28 26
3 278 26 272
3 272 26 24
3 272 24 263
3 263 24 22
3 263 22 251
3 251 22 20
3 251 20 236
3 236 20 18
3 236 18 219
3 219 18 16
3 219 16 201
3 201 16 181
3 181 16 14
3 181 14 12
3 181 12 160
3 160 12 10
3 160 10 139
3 139 10 8
3 139 8 119
3 119 8 101
3 101 8 6
3 101 6 85
3 85 6 4
3 85 4 1
3 85 1 70
3 70 1 71
3 71 1 0
3 71 0 54
3 71 54 72
3 72 54 86
3 86 54 52
3 86 52 50
3 86 50 102
3 102 50 120
3 120 50 48
3 120 48 140
3 140 48 46
3 140 46 161
3 161 46 44
3 161 44 42
3 161 42 182
3 161 182 162
3 182 42 202
3 202 42 40
3 202 40 220
3 220 40 38
3 220 38 237
3 237 38 36
3 237 36 252
3 252 36 34
3 252 34 264
3 264 34 32
3 264 32 273
3 273 32 30
3 281 282 283
3 284 281 283
3 284 283 285
3 286 284 285
3 286 285 287
3 286 287 288
3 289 290 291
3 289 291 292
3 282 289 292
3 282 292 293
3 283 282 293
3 283 293 294
3 285 283 294
3 285 294 295
3 287 285 295
3 287 295 296
3 287 296 297
3 288 287 297
3 288 297 298
3 299 288 298
3 299 298 300
3 291 290 301
3 291 301 302
3 292 291 302
3 292 302 303
3 293 292 303
3 293 303 304
3 293 304 305
3 294 293 305
3 294 305 306
3 295 294 306
3 295 306 307
3 296 295 307
3 296 307 308
3 297 296 308
3 297 308 309
3 298 297 309
3 298 309 310
3 300 298 310
3 300 310 311
3 301 312 313
3 302 301 313
3 302 313 314
3 303 302 314
3 303 314 315
3 304 303 315
3 304 315 316
3 305 304 316
3 305 316 317
3 306 305 317
3 306 317 318
3 307 306 318
3 307 318 319
3 308 307 319
3 308 319 320
3 309 308 320
3 309 320 321
3 310 309 321
3 310 321 322
3 311 310 322
3 311 322 323
3 312 324 325
3 313 312 325
3 313 325 326
3 314 313 326
3 314 326 327
3 315 314 327
3 315 327 328
3 316 315 328
3 316 328 329
3 317 316 329
3 317 329 330
3 318 317 330
3 318 330 331
3 319 318 331
3 319 331 332
3 320 319 332
3 320 332 333
3 321 320 333
3 321 333 334
3 322 321 334
3 322 334 335
3 323 322 335
3 324 336 337
3 325 324 337
3 325 337 338
3 326 325 338
3 326 338 339
3 327 326 339
3 327 339 340
3 328 327 340
3 328 340 341
3 329 328 341
3 329 341 342
3 330 329 342
3 330 342 343
3 331 330 343
3 331 343 344
3 332 331 344
3 332 344 345
3 333 332 345
3 333 345 346
3 334 333 346
3 334 346 347
3 335 334 347
3 337 336 348
3 337 348 349
3 338 337 349
3 338 349 350
3 339 338 350
3 339 350 351
3 340 339 351
3 341 340 351
3 341 351 352
3 342 341 352
3 342 352 353
3 343 342 353
3 343 353 354
3 344 343 354
3 344 354 355
3 345 344 355
3 345 355 356
3 346 345 356
3 346 356 357
3 347 346 357
3 348 358 359
3 349 348 359
3 350 349 359
3 350 359 360
3 351 350 360
3 351 360 361
3 352 351 361
3 352 361 362
3 353 352 362
3 353 362 363
3 354 353 363
3 355 354 363
3 355 363 364
3 356 355 364
3 356 364 365
3 357 356 365
3 359 358 366
3 360 359 366
3 360 366 367
3 361 360 367
3 361 367 368
3 362 361 368
3 362 368 369
3 363 362 369
3 364 363 369
3 364 369 370
3 365 364 370
3 367 366 371
3 368 367 371
3 368 371 372
3 369 368 372
3 370 369 372
3 370 372 31
3 370 31 33
3 370 33 35
3 370 35 365
3 365 35 37
3 365 37 357
3 357 37 39
3 357 39 347
3 347 39 41
3 347 41 335
3 335 41 43
3 335 43 323
3 323 43 45
3 323 45 311
3 311 45 47
3 311 47 300
3 300 47 49
3 300 49 299
3 299 49 51
3 299 51 53
3 299 53 288
3 288 53 286
3 286 53 55
3 286 55 2
3 286 2 284
3 284 2 281
3 281 2 3
3 281 3 5
3 281 5 289
3 281 289 282
3 289 5 7
3 289 7 290
3 290 7 9
3 290 9 11
3 290 11 301
3 301 11 13
3 301 13 312
3 312 13 15
3 312 15 324
3 324 15 17
3 324 17 336
3 336 17 19
3 336 19 348
3 348 19 21
3 348 21 358
3 358 21 23
3 358 23 25
3 358 25 366
3 366 25 27
3 366 27 371
3 371 27 29
3 371 29 372
3 372 29 31

CELL_TYPES 742
5
5
5
5
5
5
5
5
5
5
5
5
5
5
5
5
5
5
5
5
5
5
5
5
5
5
5
5
5
5
5
5
5
5
5
5
5
5
5
5
5
5
5
5
5
5
5
5
5
5
5
5
5
5
5
5
5
5
5
5
5
5
5
5
5
5
5
5
5
5
5
5
5
5
5
5
5
5
5
5
5
5
5
5
5
5
5
5
5
5
5
5
5
5
5
5
5
5
5
5
5
5
5
5
5
5
5
5
5
5
5
5
5
5
5
5
5
5
5
5
5
5
5
5
5
5
5
5
5
5
5
5
5
5
5
5
5
5
5
5
5
5
5
5
5
5
5
5
5
5
5
5
5
5
5
5
5
5
5
5
5
5
5
5
5
5
5
5
5
5
5
5
5
5
5
5
5
5
5
5
5
5
5
5
5
5
5
5
5
5
5
5
5
5
5
5
5
5
5
5
5
5
5
5
5
5
5
5
5
5
5
5
5
5
5
5
5
5
5
5
5
5
5
5
5
5
5
5
5
5
5
5
5
5
5
5
5
5
5
5
5
5
5
5
5
5
5
5
5
5
5
5
5
5
5
5
5
5
5
5
5
5
5
5
5
5
5
5
5
5
5
5
5
5
5
5
5
5
5
5
5
5
5
5
5
5
5
5
5
5
5
5
5
5
5
5
5
5
5
5
5
5
5
5
5
5
5
5
5
5
5
5
5
5
5
5
5
5
5
5
5
5
5
5
5
5
5
5
5
5
5
5
5
5
5
5
5
5
5
5
5
5
5
5
5
5
5
5
5
5
5
5
5
5
5
5
5
5
5
5
5
5
5
5
5
5
5
5
5
5
5
5
5
5
5
5
5
5
5
5
5
5
5
5
5
5
5
5
5
5
5
5
5
5
5
5
5
5
5
5
5
5
5
5
5
5
5
5
5
5
5
5
5
5
5
5
5
5
5
5
5
5
5
5
5
5
5
5
5
5
5
5
5
5
5
5
5
5
5
5
5
5
5
5
5
5
5
5
5
5
5
5
5
5
5
5
5
5
5
5
5
5
5
5
5
5
5
5
5
5
5
5
5
5
5
5
5
5
5
5
5
5
5
5
5
5
5
5
5
5
5
5
5
5
5
5
5
5
5
5
5
5
5
5
5
5
5
5
5
5
5
5
5
5
5
5
5
5
5
5
5
5
5
5
5
5
5
5
5
5
5
5
5
5
5
5
5
5
5
5
5
5
5
5
5
5
5
5
5
5
5
5
5
5
5
5
5
5
5
5
5
5
5
5
5
5
5
5
5
5
5
5
5
5
5
5
5
5
5
5
5
5
5
5
5
5
5
5
5
5
5
5
5
5
5
5
5
5
5
5
5
5
5
5
5
5
5
5
5
5
5
5
5
5
5
5
5
5
5
5
5
5
5
5
5
5
5
5
5
5
5
5
5
5
5
5
5
5
5
5
5
5
5
5
5
5
5
5
5
5
5
5
5
5
5
5
5
5
5
5
5
5
5
5
5
5
5
5
5
5
5
5
5
5
5
5
5
5
5
5
5
5
5
5
5
5
5
5
5
5
5
5
5
5
5
5
5
5
5
5
5
5
5
5
5
5
5
5
5
5
5
5
5
5
5
5
5
5
5
5
5
5
5
5
5
5
5
5
5
5
5
5
5
5
5
5
5
5
5
5
5
5

CELL_DATA 742
SCALARS cell_data_0 double
LOOKUP_TABLE default
1.53101054248e-08
6.54010373911e-09
4.25536933694e-09
8.04729583151e-09
3.02329444035e-09
2.28077354296e-09
6.08150683149e-11
3.22846298112e-10
2.20948237144e-10
7.35635943677e-11
8.51207867863e-12
1.48225266383e-10
6.09261756561e-11
8.06347359324e-11
8.53211319646e-11
4.09824432127e-10
2.49015000355e-10
3.58883120077e-10
1.34766411713e-10
2.77613003346e-10
3.75484642603e-11
3.8384676614e-10
2.19877832769e-10
6.10806993179e-10
1.24900616636e-10
3.84268624357e-10
6.21443260582e-11
1.33803487033e-10
4.12042056862e-11
1.48397152081e-10
1.71683268052e-11
4.43641477332e-10
3.06304742044e-10
4.84550104102e-10
1.2869427136e-10
2.87470015316e-11
6.06396894393e-11
1.55950790876e-10
1.13263382541e-10
2.89456714288e-10
2.0254570399e-10
2.69503516804e-10
2.13312955141e-11
1.31471540239e-10
9.54527243003e-11
4.95701921524e-11
2.99097594469e-11
1.22483250736e-10
1.61196525211e-10
2.45124742215e-10
8.49595847107e-10
2.78904729714e-09
2.92622720314e-09
8.72732769255e-10
1.14444893988e-08
1.28350496592e-08
2.28592267067e-10
6.81427792823e-11
3.21742656602e-10
2.81521881833e-10
1.03374886145e-09
1.98644395899e-10
2.35347008722e-11
4.17203347596e-11
9.90101766579e-12
1.81934843946e-10
1.33665195484e-10
3.67671542664e-11
3.37160387834e-10
1.73990769162e-10
7.54011069402e-10
1.65667969508e-10
2.81831458364e-09
1.42148671726e-09
2.34228421667e-09
9.30046267843e-10
4.78994867523e-10
6.12693430831e-10
5.52925741673e-11
7.36054618804e-11
1.793978091e-11
1.94661949295e-11
5.70070472273e-11
4.1001434157e-11
2.0103923605e-11
2.32465828921e-11
1.13806419518e-11
2.78978159288e-12
4.00988367615e-11
1.2180215356e-10
8.99506568336e-11
3.04253415322e-10
1.78718236524e-10
5.97110490492e-10
6.46190861858e-11
1.74414536147e-09
2.34206198349e-09
4.75757155139e-09
5.7273849116e-11
1.63799588299e-10
9.39671100458e-12
9.65587521408e-13
5.63806428357e-12
2.66716242704e-11
9.06464942482e-12
2.73562793511e-11
1.81587500474e-11
1.41548895803e-12
6.19447768034e-12
2.92883824892e-11
4.24923133921e-12
2.11466021192e-11
1.29925936303e-11
9.11275681851e-12
8.68572027627e-12
2.57017959082e-11
7.90806553062e-11
5.75807898247e-11
6.30988377134e-11
1.11782838358e-10
1.48415473598e-10
3.33131994854e-10
3.46843619217e-10
4.97992562285e-10
9.05385632129e-10
1.28385817236e-09
6.25170543421e-11
1.88528878605e-11
6.82012006296e-11
8.1459815342e-11
4.94227439493e-11
1.24166424589e-11
1.46442260777e-11
4.93784261272e-12
4.06122249238e-12
1.61920256434e-11
2.58509029907e-11
4.42359535114e-13
6.08042727431e-12
2.40610883439e-11
2.00121059341e-11
2.72901431185e-11
9.49473241015e-13
4.96175724533e-12
1.90263463299e-13
2.08819300593e-11
1.2350121493e-11
6.71937321867e-11
4.85668906138e-11
8.82531118975e-11
1.42966825102e-10
6.61287700002e-11
5.15205221701e-11
1.79945425183e-11
1.19803405114e-11
1.40177857637e-10
8.73938600668e-11
2.23851674239e-11
4.94225731559e-11
4.0948008442e-11
9.48321501478e-11
3.55533174685e-11
1.60633444625e-11
4.14216588522e-11
1.04045886143e-11
9.14087645981e-12
7.16995507892e-12
1.35173007038e-12
1.05931966586e-11
2.43441136633e-11
8.17581847757e-12
4.66219989604e-12
2.50741435046e-11
1.85433455381e-11
1.2393188906e-11
8.02260336262e-14
1.26122522946e-11
2.11082479254e-11
3.16230469145e-11
2.70205447313e-11
1.10747897846e-11
4.33887184791e-11
2.90919228901e-11
4.78405284842e-11
4.56664862852e-11
6.66708557419e-11
4.46409068146e-11
5.06954260852e-11
1.34072169149e-11
4.73818072646e-11
2.1642621725e-11
3.50625586638e-11
3.28194084307e-11
7.71334376128e-12
3.48248082666e-12
1.794278975e-12
8.30020739223e-12
2.87171684597e-11
1.4375985405e-11
6.19486732153e-12
1.26297822659e-11
5.78137064024e-12
2.44725033647e-12
8.72038708572e-12
7.84352950933e-12
9.34211339644e-13
1.52345917581e-11
1.21870118747e-11
2.61527899879e-11
4.34598462431e-11
1.9425668265e-11
4.15271050884e-12
1.52223441139e-11
1.18973812013e-11
5.22094226315e-13
1.22792985585e-11
1.04281988303e-11
2.89008546411e-11
2.1084270766e-12
4.09310083253e-11
1.43196036391e-11
4.78682032094e-12
3.74409740715e-11
4.78211406729e-11
4.74241181263e-12
6.99032765463e-12
2.45935244167e-12
6.38819386258e-12
7.81556532765e-13
1.63357495353e-12
2.88789318339e-12
3.09824373518e-11
1.68107525171e-11
1.07112110379e-11
6.40599852542e-12
1.35194594986e-11
2.92617147587e-11
1.04631019774e-11
1.75055434468e-11
1.4577289309e-11
1.13396315468e-11
6.15683575197e-12
4.31762683664e-12
4.4019019665e-13
1.46206092438e-11
1.88639871765e-11
3.32631953698e-12
1.37853490709e-11
1.15612633601e-11
3.03984675312e-12
5.0989822478e-12
1.65788191713e-11
3.87651073311e-12
1.76856740934e-11
1.78428956616e-11
7.34880191142e-12
1.1296605192e-11
2.70664041727e-11
1.73322357436e-12
3.60177045661e-11
1.34109495339e-11
4.36170280366e-11
1.20156480178e-11
1.9241135636e-11
1.35778773027e-11
8.31917586487e-12
1.03295047845e-11
5.52404792503e-12
8.1761244414e-12
6.21146076798e-12
4.28756954893e-11
7.53425784016e-11
2.91455449841e-11
2.08596759812e-11
7.88996517124e-12
1.10796840369e-11
2.93553060022e-12
4.88811687757e-12
6.398347918e-12
7.7047026156e-12
1.73864565485e-11
1.07646553318e-11
9.926170431e-12
1.84271272734e-11
1.39711273259e-11
3.11628738362e-12
1.6592455959e-11
1.12115432606e-11
1.58275104751e-11
1.0653208503e-11
1.86393308484e-11
1.10364588859e-11
2.70208419688e-12
2.01798250169e-11
9.89698776994e-12
1.41690071495e-11
4.60862677547e-11
1.14774693876e-11
2.60983127971e-11
2.89210660818e-11
1.22850970291e-11
6.6176131714e-11
2.35289593578e-11
3.7095618709e-11
4.71759996674e-13
1.16998330244e-11
4.85583493291e-12
1.36224169633e-11
1.25515530017e-12
7.86687407547e-11
1.18895847816e-10
2.30684302862e-12
9.71913320065e-12
3.87161739927e-11
1.32080449745e-11
1.01339243276e-11
3.99437257564e-12
1.48357012598e-11
2.73725410449e-13
1.57923696985e-11
9.31393410582e-12
4.92291484981e-12
5.92403588555e-12
8.87010030341e-12
5.56829180304e-12
1.03585410576e-11
1.28128404534e-11
5.5789093817e-12
1.16674338521e-11
1.04359885407e-16
9.92220391476e-12
1.40337541193e-11
1.44030422762e-11
1.84034358877e-11
1.59686732252e-11
4.02753071371e-11
2.73653009728e-12
5.96843265212e-11
1.36722056541e-11
3.50253955357e-12
1.23838510921e-11
1.40094456927e-11
1.33475351485e-11
2.21451104009e-11
2.2574883895e-11
2.93071612077e-11
5.0148776005e-11
3.84510858255e-11
4.86041039692e-11
8.02298753079e-12
1.19249770926e-12
5.68724107555e-12
8.84747845909e-12
3.68317337292e-13
6.92829287715e-12
1.54884271202e-12
1.37043801164e-12
1.52936692918e-12
4.5126742079e-13
1.22912111445e-12
9.20412679213e-12
7.25690795188e-12
6.68643265237e-13
1.22723716633e-11
6.36914800169e-12
2.49191592768e-12
5.93256363282e-12
1.58854686865e-11
2.69740544943e-11
3.37229953288e-11
1.0969795335e-12
2.71371886152e-11
1.07046799212e-11
9.67058837565e-12
6.51301320715e-12
1.50727659028e-11
4.28152242145e-11
9.89680511169e-12
1.44336277936e-10
4.99394669937e-11
5.66225250339e-11
4.74694408292e-11
3.95049179002e-12
7.39004615157e-12
4.1663722598e-12
7.49260715859e-12
2.72405139513e-12
1.81867200014e-12
5.62533740201e-12
7.56938601173e-12
3.5887067844e-12
1.2375661701e-11
7.48966507945e-12
7.6345364949e-12
3.45108712575e-12
1.69826307003e-11
7.21913388977e-12
1.23024934484e-11
1.07844950376e-11
2.70306084186e-12
1.19195407997e-11
8.19969782799e-12
6.25036156956e-12
2.55852460578e-12
6.91505717685e-12
9.79189827063e-13
5.69234079079e-12
3.65978693038e-11
1.45353952794e-10
4.61311427779e-11
3.91589659116e-11
3.7838362427e-11
1.69356392818e-12
1.19279737829e-11
1.8176373458e-12
1.44641776023e-12
1.04964216434e-12
3.43352563801e-12
2.79393251527e-12
1.21795950852e-11
8.48850208854e-12
8.70779149057e-12
9.12393078192e-12
1.33750203183e-11
5.8641406318e-12
7.0810777278e-12
1.13147979875e-12
1.12011456421e-14
2.42486893891e-12
2.48115619694e-12
2.0065383873e-11
4.46071601322e-11
5.94530569165e-11
7.35193745855e-11
1.97652997176e-11
5.94419396428e-11
5.15981410548e-11
5.92004236689e-12
7.8208179418e-12
2.35817405119e-12
3.49952701793e-13
3.33268070492e-12
1.96055254479e-12
8.77156982021e-12
1.90910668903e-12
6.09881704625e-12
3.06186032143e-12
4.04387176128e-12
6.9694300729e-12
6.08336884961e-12
4.91922624483e-11
6.56179300255e-11
5.04788522605e-11
4.23242630813e-11
5.43083573218e-11
6.32381226005e-11
1.24888768915e-11
9.66058947167e-12
1.23074944902e-12
1.44541838814e-11
7.88812154978e-12
2.98444687032e-13
2.71745121548e-11
6.54937767486e-11
4.37204317347e-11
9.97826229849e-11
9.15100206071e-11
6.34627870517e-11
8.29384689714e-11
2.88935193125e-11
1.02868239911e-10
7.83983261254e-11
7.85539726332e-11
5.53121773888e-11
1.92152438301e-10
1.62972487935e-10
2.90710847217e-10
2.01453471564e-10
2.88693609546e-10
1.75567590261e-10
1.60745925388e-10
1.32020956994e-10
1.34346708613e-10
1.10363641315e-10
1.2279699608e-10
7.90022953639e-11
2.18308061151e-10
1.31589447649e-10
1.40809532952e-10
9.73210989817e-11
6.28252225267e-11
3.8512349499e-11
8.90539713751e-12
1.12592661547e-11
1.75029130425e-11
2.43902080534e-12
6.52519227161e-12
1.22172760611e-10
2.9724164675e-10
1.00760903229e-10
2.24171196668e-10
1.94358175529e-09
9.71893906582e-09
5.86621757469e-09
7.52931450233e-09
6.24828216654e-09
2.67488654372e-10
8.68538495535e-11
8.67350517248e-10
6.32601225096e-10
6.88930264188e-11
1.87970036832e-10
1.00782803993e-10
2.41760879508e-11
5.43606413012e-12
2.70442507598e-12
1.06009737725e-12
1.55381904156e-12
3.89930426077e-11
7.56299583771e-12
5.03902517526e-11
1.31428212255e-10
2.15747820789e-10
1.07740378618e-10
1.62162670523e-10
1.42494462678e-10
1.78581118333e-10
1.56303217264e-10
1.49024532175e-10
1.75355896708e-10
1.71022494813e-10
8.88903552843e-11
3.19019496546e-09
6.14515022136e-09
2.83725665157e-09
1.68727594424e-08
1.61354460397e-08
1.37333627313e-08
1.37131385805e-08
1.7195591678e-08
1.135544732e-08
2.30340458189e-09
9.58697205217e-10
7.267651652e-09
4.55470858975e-09
1.25143973359e-10
5.44828377596e-09
2.94065831647e-09
2.52645124211e-09
4.1141528527e-09
1.49172178985e-09
2.26521566791e-09
1.64377137679e-09
5.06329419822e-10
2.7401303656e-10
1.48298196314e-09
3.22927667483e-10
1.57979712368e-09
2.19160805243e-10
5.15353844628e-10
1.73197833168e-09
1.05978511441e-10
5.83684704217e-10
3.13837142182e-10
2.61756335533e-12
1.1388114923e-10
1.45460890552e-10
7.74925106859e-11
1.57906297208e-09
1.05421693259e-09
1.00873306803e-09
1.73856800065e-11
3.38426949996e-11
1.34047062579e-10
7.53893079547e-11
4.47168591148e-11
5.00569266649e-11
5.87398296045e-11
5.23843850187e-11
1.05964552838e-10
3.18893197881e-11
1.85536594631e-10
7.84321367289e-11
1.72595203522e-10
5.15291189482e-11
4.91312079822e-11
9.39859631373e-12
6.30977666035e-12
2.41849222862e-12
2.53245464528e-12
4.75760325469e-11
7.91004826972e-11
6.33451927401e-11
2.10033083966e-10
4.7989904889e-11
1.59079544865e-10
1.97348430961e-10
1.3934734308e-10
3.2178159254e-10
1.0333623822e-10
1.41946637933e-10
2.69093865643e-11
5.91129294793e-11
2.91513051394e-11
5.22127349644e-11
4.67442940659e-11
6.72723705099e-11
3.99426646988e-11
1.14275925436e-11
2.63865566084e-11
8.30861612315e-12
1.3363477885e-10
1.88595850589e-10
8.95343987621e-11
1.37926641243e-11
1.52126217353e-10
4.63561468298e-11
9.37484933691e-11
5.45827164764e-11
1.67320381183e-12
2.05674706083e-10
1.94089760146e-10
1.30899458815e-10
2.03351581095e-11
6.0331245006e-11
6.01491071268e-11
9.7662719755e-11
1.49549390951e-11
1.02385989662e-10
1.41855616706e-11
1.05856932626e-10
8.5363498219e-11
7.55261756011e-11
2.18644637176e-11
1.23040334063e-10
5.81722492984e-12
1.15878905912e-10
2.1311374395e-10
3.1451874505e-11