# vtk DataFile Version 3.0
File Name: Molecule/methanol/methanol_4.0-0.vtk
ASCII
DATASET UNSTRUCTURED_GRID
FIELD FieldData 1
TIME 1 1 double
0.0
POINTS 181 double
1.611 0.0 -0.359
1.51 -0.576 -0.349
1.403 0.0 -0.933
1.311 -0.525 -0.924
1.219 -1.083 -0.32
1.046 -0.986 -0.897
0.773 -1.459 -0.275
0.639 -1.329 -0.857
0.226 -1.659 -0.221
0.141 -1.511 -0.807
-0.356 -1.659 -0.163
-0.389 -1.511 -0.754
-0.903 -1.459 -0.108
-0.887 -1.329 -0.705
-1.349 -1.083 -0.064
-1.294 -0.986 -0.664
-1.64 -0.576 -0.035
-1.559 -0.525 -0.638
-1.742 -0.0 -0.025
-1.651 -0.0 -0.629
-1.64 0.576 -0.035
-1.559 0.525 -0.638
-1.349 1.083 -0.064
-1.294 0.986 -0.664
-0.903 1.459 -0.108
-0.887 1.329 -0.705
-0.356 1.659 -0.163
-0.389 1.511 -0.754
0.226 1.659 -0.221
0.141 1.511 -0.807
0.773 1.459 -0.275
0.639 1.329 -0.857
1.219 1.083 -0.32
1.046 0.986 -0.897
1.51 0.576 -0.349
1.311 0.525 -0.924
1.907 0.0 0.656
1.83 0.532 0.656
1.83 0.266 1.116
1.83 -0.266 1.116
1.83 -0.532 0.656
1.83 -0.266 0.195
1.83 0.266 0.195
1.607 0.884 1.166
1.607 0.51 1.539
1.607 -0.0 1.676
1.607 -0.51 1.539
1.607 -0.884 1.166
1.607 -1.02 0.656
1.607 -0.884 0.145
1.607 0.884 0.145
1.607 1.02 0.656
1.255 1.33 1.171
1.255 1.054 1.617
1.255 0.636 1.933
1.255 0.132 2.076
1.255 -0.39 2.028
1.255 -0.86 1.794
1.255 -1.213 1.407
1.255 -1.402 0.918
1.255 -1.402 0.393
1.255 1.33 0.14
1.255 1.426 0.656
0.803 1.633 1.186
0.803 1.389 1.665
0.803 1.009 2.045
0.803 0.531 2.288
0.803 -0.0 2.373
0.803 -0.531 2.288
0.803 -1.009 2.045
0.803 -1.389 1.665
0.803 -1.633 1.186
0.803 -1.717 0.656
0.803 -1.633 0.125
0.803 1.633 0.125
0.803 1.717 0.656
0.288 1.793 1.182
0.288 1.572 1.666
0.288 1.223 2.068
0.288 0.776 2.355
0.288 0.266 2.505
0.288 -0.266 2.505
0.288 -0.776 2.355
0.288 -1.223 2.068
0.288 -1.572 1.666
0.288 -1.793 1.182
0.288 -1.868 0.656
0.288 -1.793 0.129
0.288 1.793 0.129
0.288 1.868 0.656
-0.25 1.793 1.182
-0.25 1.572 1.666
-0.25 1.223 2.068
-0.25 0.776 2.355
-0.25 0.266 2.505
-0.25 -0.266 2.505
-0.25 -0.776 2.355
-0.25 -1.223 2.068
-0.25 -1.572 1.666
-0.25 -1.793 1.182
-0.25 -1.868 0.656
-0.25 -1.793 0.129
-0.25 1.793 0.129
-0.25 1.868 0.656
-0.765 1.717 0.656
-0.765 1.633 1.186
-0.765 1.389 1.665
-0.765 1.009 2.045
-0.765 0.531 2.288
-0.765 -0.0 2.373
-0.765 -0.531 2.288
-0.765 -1.009 2.045
-0.765 -1.389 1.665
-0.765 -1.633 1.186
-0.765 -1.717 0.656
-1.217 1.426 0.656
-1.217 1.33 1.171
-1.217 1.054 1.617
-1.217 0.636 1.933
-1.217 0.132 2.076
-1.217 -0.39 2.028
-1.217 -0.86 1.794
-1.217 -1.213 1.407
-1.217 -1.402 0.918
-1.217 -1.402 0.393
-1.569 1.02 0.656
-1.569 0.884 1.166
-1.569 0.51 1.539
-1.569 -0.0 1.676
-1.569 -0.51 1.539
-1.569 -0.884 1.166
-1.569 -1.02 0.656
-1.792 0.532 0.656
-1.792 0.266 1.116
-1.792 -0.266 1.116
-1.792 -0.532 0.656
-1.868 0.0 0.656
1.323 -0.263 -1.192
1.056 -0.854 -1.231
1.056 -0.493 -1.592
1.056 -0.0 -1.724
1.323 0.263 -1.192
1.056 0.493 -1.592
1.056 0.854 -1.231
0.648 -1.228 -1.246
0.648 -0.94 -1.677
0.648 -0.509 -1.965
0.648 0.0 -2.067
0.648 0.509 -1.965
0.648 0.94 -1.677
0.648 1.228 -1.246
0.147 -1.421 -1.254
0.147 -1.158 -1.709
0.147 -0.756 -2.046
0.147 -0.263 -2.226
0.147 0.262 -2.226
0.147 0.756 -2.046
0.147 1.158 -1.709
0.147 1.421 -1.254
-0.386 -1.421 -1.254
-0.386 -1.158 -1.709
-0.386 -0.756 -2.046
-0.386 -0.263 -2.226
-0.386 0.262 -2.226
-0.386 0.756 -2.046
-0.386 1.158 -1.709
-0.386 1.421 -1.254
-0.887 -1.228 -1.246
-0.887 -0.94 -1.677
-0.887 -0.509 -1.965
-0.887 0.0 -2.067
-0.887 0.509 -1.965
-0.887 0.94 -1.677
-0.887 1.228 -1.246
-1.296 -0.854 -1.231
-1.296 -0.493 -1.592
-1.296 -0.0 -1.724
-1.296 0.493 -1.592
-1.296 0.854 -1.231
-1.562 -0.263 -1.192
-1.562 0.263 -1.192

CELLS 358 1432
3 0 1 2
3 2 1 3
3 1 4 3
3 3 4 5
3 4 6 5
3 5 6 7
3 6 8 7
3 7 8 9
3 8 10 9
3 9 10 11
3 10 12 11
3 11 12 13
3 12 14 13
3 13 14 15
3 14 16 15
3 15 16 17
3 16 18 17
3 17 18 19
3 18 20 19
3 19 20 21
3 20 22 21
3 21 22 23
3 22 24 23
3 23 24 25
3 24 26 25
3 25 26 27
3 26 28 27
3 27 28 29
3 28 30 29
3 29 30 31
3 30 32 31
3 31 32 33
3 32 34 33
3 33 34 35
3 34 0 35
3 35 0 2
3 36 37 38
3 36 38 39
3 36 39 40
3 36 40 41
3 36 41 42
3 36 42 37
3 38 37 43
3 38 43 44
3 38 44 45
3 39 38 45
3 39 45 46
3 39 46 47
3 40 39 47
3 40 47 48
3 40 48 49
3 41 40 49
3 37 42 50
3 37 50 51
3 37 51 43
3 43 51 52
3 43 52 53
3 44 43 53
3 44 53 54
3 44 54 55
3 45 44 55
3 45 55 56
3 46 45 56
3 46 56 57
3 47 46 57
3 47 57 58
3 47 58 59
3 48 47 59
3 48 59 60
3 49 48 60
3 51 50 61
3 51 61 62
3 51 62 52
3 52 62 63
3 52 63 64
3 53 52 64
3 53 64 65
3 54 53 65
3 54 65 66
3 55 54 66
3 55 66 67
3 56 55 67
3 56 67 68
3 57 56 68
3 57 68 69
3 57 69 70
3 58 57 70
3 58 70 71
3 59 58 71
3 59 71 72
3 60 59 72
3 60 72 73
3 62 61 74
3 62 74 75
3 62 75 63
3 63 75 76
3 63 76 77
3 64 63 77
3 64 77 78
3 65 64 78
3 65 78 79
3 66 65 79
3 66 79 80
3 67 66 80
3 67 80 81
3 68 67 81
3 68 81 82
3 69 68 82
3 69 82 83
3 70 69 83
3 70 83 84
3 71 70 84
3 71 84 85
3 72 71 85
3 72 85 86
3 72 86 87
3 73 72 87
3 75 74 88
3 75 88 89
3 75 89 76
3 76 89 90
3 76 90 91
3 77 76 91
3 77 91 92
3 78 77 92
3 78 92 93
3 79 78 93
3 79 93 94
3 80 79 94
3 80 94 95
3 81 80 95
3 81 95 96
3 82 81 96
3 82 96 97
3 83 82 97
3 83 97 98
3 84 83 98
3 84 98 99
3 85 84 99
3 85 99 100
3 86 85 100
3 86 100 101
3 87 86 101
3 89 88 102
3 89 102 103
3 89 103 90
3 90 103 104
3 90 104 105
3 91 90 105
3 91 105 106
3 92 91 106
3 92 106 107
3 93 92 107
3 93 107 108
3 94 93 108
3 94 108 109
3 95 94 109
3 95 109 110
3 96 95 110
3 96 110 111
3 97 96 111
3 97 111 112
3 98 97 112
3 98 112 113
3 99 98 113
3 99 113 114
3 100 99 114
3 101 100 114
3 103 102 104
3 105 104 115
3 105 115 116
3 106 105 116
3 106 116 117
3 107 106 117
3 107 117 118
3 108 107 118
3 108 118 119
3 109 108 119
3 109 119 120
3 110 109 120
3 110 120 121
3 111 110 121
3 112 111 121
3 112 121 122
3 113 112 122
3 113 122 123
3 114 113 123
3 114 123 124
3 116 115 125
3 116 125 126
3 117 116 126
3 117 126 127
3 118 117 127
3 119 118 127
3 119 127 128
3 120 119 128
3 120 128 129
3 121 120 129
3 121 129 130
3 122 121 130
3 123 122 130
3 123 130 131
3 124 123 131
3 126 125 132
3 126 132 133
3 127 126 133
3 128 127 133
3 128 133 134
3 129 128 134
3 130 129 134
3 130 134 135
3 131 130 135
3 133 132 136
3 134 133 136
3 135 134 136
3 135 136 18
3 135 18 16
3 135 16 131
3 131 16 14
3 131 14 124
3 124 14 12
3 124 12 114
3 114 12 101
3 101 12 10
3 101 10 8
3 101 8 87
3 87 8 73
3 73 8 6
3 73 6 4
3 73 4 60
3 60 4 49
3 49 4 1
3 49 1 41
3 41 1 0
3 41 0 42
3 42 0 34
3 42 34 50
3 50 34 32
3 50 32 61
3 61 32 30
3 61 30 74
3 74 30 28
3 74 28 88
3 88 28 102
3 102 28 26
3 102 26 24
3 102 24 104
3 104 24 115
3 115 24 22
3 115 22 125
3 125 22 20
3 125 20 132
3 132 20 18
3 132 18 136
3 137 138 139
3 137 139 140
3 141 137 140
3 141 140 142
3 141 142 143
3 138 144 145
3 139 138 145
3 139 145 146
3 140 139 146
3 140 146 147
3 140 147 148
3 142 140 148
3 142 148 149
3 143 142 149
3 143 149 150
3 144 151 152
3 145 144 152
3 145 152 153
3 146 145 153
3 146 153 154
3 147 146 154
3 147 154 155
3 148 147 155
3 148 155 156
3 149 148 156
3 149 156 157
3 150 149 157
3 150 157 158
3 151 159 160
3 152 151 160
3 153 152 160
3 153 160 161
3 153 161 162
3 154 153 162
3 154 162 163
3 155 154 163
3 155 163 164
3 156 155 164
3 156 164 165
3 157 156 165
3 157 165 166
3 158 157 166
3 160 159 167
3 160 167 168
3 161 160 168
3 161 168 169
3 162 161 169
3 162 169 170
3 163 162 170
3 163 170 171
3 164 163 171
3 164 171 172
3 165 164 172
3 165 172 173
3 166 165 173
3 168 167 174
3 168 174 175
3 169 168 175
3 169 175 176
3 170 169 176
3 171 170 176
3 171 176 177
3 172 171 177
3 172 177 178
3 173 172 178
3 175 174 179
3 176 175 179
3 176 179 180
3 177 176 180
3 178 177 180
3 178 180 21
3 178 21 23
3 178 23 173
3 173 23 25
3 173 25 166
3 166 25 27
3 166 27 29
3 166 29 158
3 158 29 31
3 158 31 150
3 150 31 33
3 150 33 143
3 143 33 35
3 143 35 141
3 141 35 2
3 141 2 137
3 137 2 3
3 137 3 138
3 138 3 5
3 138 5 144
3 144 5 7
3 144 7 151
3 151 7 9
3 151 9 159
3 159 9 11
3 159 11 13
3 159 13 167
3 167 13 15
3 167 15 174
3 174 15 17
3 174 17 179
3 179 17 19
3 179 19 180
3 180 19 21

CELL_TYPES 358
5
5
5
5
5
5
5
5
5
5
5
5
5
5
5
5
5
5
5
5
5
5
5
5
5
5
5
5
5
5
5
5
5
5
5
5
5
5
5
5
5
5
5
5
5
5
5
5
5
5
5
5
5
5
5
5
5
5
5
5
5
5
5
5
5
5
5
5
5
5
5
5
5
5
5
5
5
5
5
5
5
5
5
5
5
5
5
5
5
5
5
5
5
5
5
5
5
5
5
5
5
5
5
5
5
5
5
5
5
5
5
5
5
5
5
5
5
5
5
5
5
5
5
5
5
5
5
5
5
5
5
5
5
5
5
5
5
5
5
5
5
5
5
5
5
5
5
5
5
5
5
5
5
5
5
5
5
5
5
5
5
5
5
5
5
5
5
5
5
5
5
5
5
5
5
5
5
5
5
5
5
5
5
5
5
5
5
5
5
5
5
5
5
5
5
5
5
5
5
5
5
5
5
5
5
5
5
5
5
5
5
5
5
5
5
5
5
5
5
5
5
5
5
5
5
5
5
5
5
5
5
5
5
5
5
5
5
5
5
5
5
5
5
5
5
5
5
5
5
5
5
5
5
5
5
5
5
5
5
5
5
5
5
5
5
5
5
5
5
5
5
5
5
5
5
5
5
5
5
5
5
5
5
5
5
5
5
5
5
5
5
5
5
5
5
5
5
5
5
5
5
5
5
5
5
5
5
5
5
5
5
5
5
5
5
5
5
5
5
5
5
5
5
5
5
5
5
5
5
5
5
5
5
5
5
5
5
5
5
5
5
5
5
5
5
5
5
5
5
5
5
5
5
5
5
5
5
5

CELL_DATA 358
SCALARS cell_data_0 double
LOOKUP_TABLE default
1.36488120874e-08
3.19472472233e-08
3.14111612339e-08
1.15583986551e-08
5.81786090959e-10
6.96354704774e-11
3.10309719134e-10
1.75225387852e-10
2.98660547146e-10
4.95636713753e-10
6.23497788374e-10
9.3876802995e-10
1.13649912915e-10
5.89353842354e-10
3.80217751543e-11
5.08938039219e-10
3.86977727479e-10
1.00438081212e-09
4.97134809829e-10
6.30120735822e-10
1.25750330168e-10
6.01420764381e-10
8.72427083071e-11
8.80063712868e-10
1.49425546809e-10
7.77374304443e-10
4.71063948236e-10
4.60817538364e-10
1.85900547983e-10
1.23687485675e-10
2.36678543015e-10
4.6385680736e-10
1.6292383776e-09
5.24815409655e-09
1.16203727474e-08
1.09174964234e-08
3.29707864175e-10
1.45480811726e-10
6.74479312873e-10
2.73569143575e-10
6.32141659244e-10
7.39203794692e-11
1.63309785496e-11
1.11112218231e-10
1.95686416927e-10
1.00836673003e-10
2.51720605974e-10
5.55675078533e-11
7.77384845811e-10
7.97617153481e-11
3.19562530325e-10
1.91650504009e-10
3.53752906396e-10
4.3128208989e-11
3.02507305095e-11
1.86824263206e-11
1.66875582625e-11
7.04454453284e-11
4.15349960605e-11
4.93514128849e-12
1.061925963e-10
6.08662688731e-11
1.30372394874e-11
3.4346301526e-11
2.46569490235e-10
2.75992889897e-10
3.27111600913e-10
3.22956144508e-10
5.9945896491e-10
9.77801345098e-10
1.57469286282e-11
7.75598397374e-12
1.63418156442e-11
1.95837191197e-11
2.45523260504e-11
1.22965997536e-11
1.60003055267e-11
9.83719787357e-12
3.67275392213e-11
4.30767061149e-11
4.08989715613e-12
3.2378740121e-12
4.34854188793e-11
7.54710440382e-11
4.62541749516e-11
2.34648378033e-11
4.7551201389e-11
8.73366539327e-11
2.54708920778e-10
4.49856728828e-11
1.61499034904e-10
2.03967369429e-10
5.46748409762e-11
2.92304638847e-11
9.23119167808e-13
7.1557630947e-12
6.70604141936e-12
1.90104760412e-11
2.75140056039e-11
3.10431545455e-11
4.19800769663e-11
4.24767972819e-11
2.66531920564e-11
1.24066907987e-11
5.30255952812e-12
2.6612890533e-11
1.58600720606e-11
2.69655261573e-11
4.35315152782e-11
2.1975553062e-12
4.10318750754e-11
9.07875429396e-11
2.79223201195e-11
7.42914198994e-11
3.71503577694e-11
4.56254856535e-11
3.42623983478e-11
2.05342316408e-11
6.43357657172e-12
3.21180863308e-12
2.00273702693e-11
2.57212323317e-11
2.12031605032e-11
2.03516210334e-12
1.02042954244e-11
1.21134543604e-11
3.73807208286e-11
5.29805948758e-11
7.51324154546e-12
1.28246440859e-11
4.73969338326e-11
3.59760639522e-11
3.74980445994e-11
3.20764827533e-11
1.55465891468e-11
9.66930319717e-12
9.88863598461e-13
1.18391724196e-11
2.58866704709e-11
4.32424255462e-11
8.55949544274e-11
1.07772750833e-10
8.46303752206e-11
2.70194747274e-11
2.09603772164e-11
4.00730527685e-12
8.55235253951e-12
3.94601550963e-11
1.0455368188e-10
5.29646473976e-12
1.3887665421e-10
8.26094082356e-11
5.73207214815e-11
9.17152361177e-11
4.09589993836e-11
7.57915786393e-12
4.93204279655e-12
4.9881946701e-11
1.91988393431e-11
4.04906121737e-11
8.35710797417e-11
3.73862329781e-11
1.14407989077e-11
6.15309929777e-11
2.12792580222e-11
6.68835296959e-12
6.23583075526e-11
2.2398780876e-10
2.20321130378e-11
1.12367204676e-10
3.61781033069e-12
2.44787317853e-12
5.80775978437e-11
9.5058965867e-11
2.48976132102e-11
1.03362385047e-10
4.19902300386e-11
2.57856946771e-11
4.53612494068e-11
2.78061634215e-11
9.83196220095e-11
1.16220805712e-11
4.9988563707e-11
5.27275684315e-11
4.12995937983e-11
5.81459436126e-11
7.83270600495e-11
4.97054737315e-12
9.46716183335e-11
1.22503431521e-10
4.2926014069e-11
4.17800112149e-11
5.46917043614e-11
8.06330505788e-12
6.45375261259e-11
1.13451328468e-11
6.53856524446e-11
4.40608852028e-13
9.61550099336e-12
3.2312789978e-11
1.00675955976e-10
1.6897833184e-10
7.10282101834e-11
1.24867422351e-10
8.6866948293e-11
8.57989962322e-11
3.23515421166e-11
1.00160859878e-10
4.31345477788e-11
8.50474805689e-11
1.09570552618e-10
1.86795054266e-10
2.74039833373e-10
4.4156486294e-11
2.3821563119e-10
7.68806773275e-10
5.4248842871e-10
9.64146885324e-10
9.54620305442e-10
7.52318106395e-10
4.79254182748e-10
4.8036334276e-10
4.12926156312e-10
7.4725879791e-11
1.59019406058e-10
1.6910291973e-10
8.13932095236e-11
3.62072629895e-11
6.0040010959e-11
4.44507758394e-10
6.12810218309e-10
7.7985009002e-09
8.77900990122e-09
1.12178138156e-08
4.06004503665e-10
8.2734570495e-10
6.24421748719e-10
3.85698187211e-10
3.64710383897e-10
1.45900545294e-10
2.89446804349e-11
4.97472576354e-12
1.23018502264e-11
4.79742098516e-11
5.27954730874e-11
2.23979819506e-12
6.00643639275e-11
5.20723207248e-10
8.70287160474e-10
8.0797546636e-10
8.89466150741e-10
8.14223091166e-10
5.37474393529e-10
7.74130693581e-10
2.74171674641e-08
7.36376250478e-08
6.8327695777e-08
1.50261015513e-08
2.00072957794e-08
1.78144367784e-09
3.74341086045e-09
6.29335474182e-11
2.53380463657e-08
1.34533901751e-08
1.29002847353e-08
1.61968436984e-08
5.33678194596e-09
1.03166861415e-08
2.51048671866e-09
2.48970223727e-10
6.18181838482e-10
2.96957282349e-10
6.7818317221e-10
9.88808820229e-10
5.14972281816e-09
1.72463347179e-09
5.33584883504e-09
1.11702482957e-09
7.27105889515e-10
2.60533625663e-10
6.32210196696e-10
3.04310380608e-10
6.45883145398e-10
1.06517984809e-09
4.09379672047e-10
3.21608817462e-10
3.67999227118e-10
9.83793614247e-10
2.7004523926e-10
9.43017866346e-10
3.52563816369e-10
7.81988768536e-10
1.5003467024e-10
2.81127237565e-10
5.80070690247e-10
8.19080640932e-10
3.79603145702e-10
6.17223280485e-10
3.33862292126e-10
2.05804218548e-10
1.39591511737e-09
2.31700328913e-10
1.58549605323e-09
2.75380346532e-10
1.57427917721e-09
2.84840486169e-10
3.92781666231e-10
5.19837639167e-10
4.23386626362e-10
5.17033819298e-10
2.19259295595e-10
5.00989069492e-10
1.23379446754e-10
8.42598848604e-10
1.30082606431e-09
1.86842311974e-10
7.96317834869e-10
1.43218987857e-10
6.49699993515e-10
2.59358712207e-10
6.2488803684e-11
6.05566124301e-10
3.37701188482e-10
4.43157473869e-10
1.37570272109e-10
9.02189996101e-10
6.81857082776e-10
1.09799145108e-09
1.18873167451e-10
2.71605614699e-10
2.13629376735e-10
2.28163734756e-10
5.14453092569e-10
1.0776073836e-10
8.56638191219e-10
2.03717173868e-09
8.94449817545e-09
1.67685835553e-08
6.86204965435e-09
1.31685506597e-08
8.80153859977e-09
5.21428747653e-09
1.31498184848e-08
1.61363609636e-09
4.100148701e-10
1.39883962735e-10
1.11588709984e-10
5.04182069496e-10
1.92700562818e-10
5.48908767097e-10
4.1864851193e-11
7.01212475919e-10
4.88306392552e-10
7.59725107252e-10
2.43407839704e-10
5.16908524857e-10
3.30455532916e-11
5.38598219138e-10

