# vtk DataFile Version 3.0
File Name: Molecule/methanol/methanol_9.0-0.vtk
ASCII
DATASET UNSTRUCTURED_GRID
FIELD FieldData 1
TIME 1 1 double
0.0
POINTS 410 double
1.611 0.0 -0.359
1.569 -0.375 -0.355
1.403 0.0 -0.933
1.365 -0.341 -0.929
1.445 -0.731 -0.342
1.252 -0.666 -0.918
1.245 -1.05 -0.322
1.07 -0.957 -0.9
0.98 -1.317 -0.296
0.828 -1.2 -0.876
0.662 -1.518 -0.264
0.538 -1.382 -0.847
0.308 -1.642 -0.229
0.216 -1.496 -0.815
-0.065 -1.684 -0.192
-0.124 -1.534 -0.781
-0.438 -1.642 -0.155
-0.464 -1.496 -0.747
-0.793 -1.518 -0.119
-0.787 -1.382 -0.715
-1.11 -1.317 -0.088
-1.076 -1.2 -0.686
-1.376 -1.05 -0.061
-1.318 -0.957 -0.662
-1.576 -0.731 -0.042
-1.5 -0.666 -0.644
-1.7 -0.375 -0.029
-1.613 -0.341 -0.633
-1.742 0.0 -0.025
-1.651 0.0 -0.629
-1.7 0.375 -0.029
-1.613 0.341 -0.633
-1.576 0.731 -0.042
-1.5 0.666 -0.644
-1.376 1.05 -0.061
-1.318 0.957 -0.662
-1.11 1.317 -0.088
-1.076 1.2 -0.686
-0.793 1.518 -0.119
-0.787 1.382 -0.715
-0.438 1.642 -0.155
-0.464 1.496 -0.747
-0.065 1.684 -0.192
-0.124 1.534 -0.781
0.308 1.642 -0.229
0.216 1.496 -0.815
0.662 1.518 -0.264
0.538 1.382 -0.847
0.98 1.317 -0.296
0.828 1.2 -0.876
1.245 1.05 -0.322
1.07 0.957 -0.9
1.445 0.731 -0.342
1.252 0.666 -0.918
1.569 0.375 -0.355
1.365 0.341 -0.929
1.907 0.0 0.656
1.874 0.347 0.656
1.874 0.173 0.956
1.874 -0.173 0.956
1.874 -0.347 0.656
1.874 -0.173 0.355
1.874 0.173 0.355
1.779 0.59 0.997
1.779 0.341 1.246
1.779 -0.0 1.337
1.779 -0.341 1.246
1.779 -0.59 0.997
1.779 -0.682 0.656
1.779 -0.59 0.315
1.779 -0.341 0.065
1.779 -0.0 -0.026
1.779 0.341 0.065
1.779 0.59 0.315
1.779 0.682 0.656
1.624 0.934 0.995
1.624 0.761 1.294
1.624 0.497 1.516
1.624 0.173 1.634
1.624 -0.173 1.634
1.624 -0.497 1.516
1.624 -0.761 1.294
1.624 -0.934 0.995
1.624 -0.994 0.656
1.624 -0.934 0.316
1.624 -0.761 0.017
1.624 0.761 0.017
1.624 0.934 0.316
1.624 0.994 0.656
1.414 1.224 0.999
1.414 1.086 1.316
1.414 0.868 1.585
1.414 0.585 1.785
1.414 0.259 1.901
1.414 -0.087 1.924
1.414 -0.426 1.854
1.414 -0.733 1.694
1.414 -0.986 1.458
1.414 -1.166 1.162
1.414 -1.26 0.829
1.414 -1.26 0.482
1.414 -1.166 0.149
1.414 -0.986 -0.147
1.414 1.086 -0.005
1.414 1.224 0.313
1.414 1.272 0.656
1.156 1.466 1.003
1.156 1.346 1.332
1.156 1.154 1.624
1.156 0.899 1.864
1.156 0.597 2.039
1.156 0.262 2.139
1.156 -0.088 2.159
1.156 -0.432 2.099
1.156 -0.753 1.96
1.156 -1.034 1.751
1.156 -1.258 1.483
1.156 -1.415 1.171
1.156 -1.496 0.83
1.156 -1.496 0.481
1.156 -1.415 0.14
1.156 1.346 -0.02
1.156 1.466 0.308
1.156 1.506 0.656
0.86 1.655 0.996
0.86 1.553 1.322
0.86 1.387 1.621
0.86 1.164 1.88
0.86 0.894 2.089
0.86 0.587 2.24
0.86 0.256 2.326
0.86 -0.086 2.343
0.86 -0.424 2.291
0.86 -0.744 2.173
0.86 -1.034 1.992
0.86 -1.282 1.756
0.86 -1.477 1.476
0.86 -1.612 1.161
0.86 -1.681 0.827
0.86 -1.681 0.485
0.86 -1.612 0.15
0.86 1.553 -0.011
0.86 1.655 0.315
0.86 1.69 0.656
0.536 1.783 0.999
0.536 1.685 1.33
0.536 1.527 1.637
0.536 1.314 1.908
0.536 1.053 2.134
0.536 0.754 2.307
0.536 0.428 2.42
0.536 0.086 2.469
0.536 -0.258 2.453
0.536 -0.594 2.371
0.536 -0.908 2.228
0.536 -1.189 2.028
0.536 -1.427 1.778
0.536 -1.614 1.487
0.536 -1.742 1.167
0.536 -1.807 0.828
0.536 -1.807 0.483
0.536 -1.742 0.144
0.536 1.685 -0.019
0.536 1.783 0.312
0.536 1.815 0.656
0.193 1.847 1.001
0.193 1.753 1.335
0.193 1.598 1.645
0.193 1.389 1.922
0.193 1.133 2.155
0.193 0.838 2.338
0.193 0.514 2.463
0.193 0.173 2.527
0.193 -0.173 2.527
0.193 -0.514 2.463
0.193 -0.838 2.338
0.193 -1.133 2.155
0.193 -1.389 1.922
0.193 -1.598 1.645
0.193 -1.753 1.335
0.193 -1.847 1.001
0.193 -1.879 0.656
0.193 -1.847 0.31
0.193 -1.753 -0.023
0.193 1.753 -0.023
0.193 1.847 0.31
0.193 1.879 0.656
-0.155 1.847 1.001
-0.155 1.753 1.335
-0.155 1.598 1.645
-0.155 1.389 1.922
-0.155 1.133 2.155
-0.155 0.838 2.338
-0.155 0.514 2.463
-0.155 0.173 2.527
-0.155 -0.173 2.527
-0.155 -0.514 2.463
-0.155 -0.838 2.338
-0.155 -1.133 2.155
-0.155 -1.389 1.922
-0.155 -1.598 1.645
-0.155 -1.753 1.335
-0.155 -1.847 1.001
-0.155 -1.879 0.656
-0.155 -1.847 0.31
-0.155 1.847 0.31
-0.155 1.879 0.656
-0.498 1.815 0.656
-0.498 1.783 0.999
-0.498 1.685 1.33
-0.498 1.527 1.637
-0.498 1.314 1.908
-0.498 1.053 2.134
-0.498 0.754 2.307
-0.498 0.428 2.42
-0.498 0.086 2.469
-0.498 -0.258 2.453
-0.498 -0.594 2.371
-0.498 -0.908 2.228
-0.498 -1.189 2.028
-0.498 -1.427 1.778
-0.498 -1.614 1.487
-0.498 -1.742 1.167
-0.498 -1.807 0.828
-0.498 -1.807 0.483
-0.498 -1.742 0.144
-0.498 1.783 0.312
-0.822 1.69 0.656
-0.822 1.655 0.996
-0.822 1.553 1.322
-0.822 1.387 1.621
-0.822 1.164 1.88
-0.822 0.894 2.089
-0.822 0.587 2.24
-0.822 0.256 2.326
-0.822 -0.086 2.343
-0.822 -0.424 2.291
-0.822 -0.744 2.173
-0.822 -1.034 1.992
-0.822 -1.282 1.756
-0.822 -1.477 1.476
-0.822 -1.612 1.161
-0.822 -1.681 0.827
-0.822 -1.681 0.485
-0.822 -1.612 0.15
-0.822 1.655 0.315
-1.118 1.506 0.656
-1.118 1.466 1.003
-1.118 1.346 1.332
-1.118 1.154 1.624
-1.118 0.899 1.864
-1.118 0.597 2.039
-1.118 0.262 2.139
-1.118 -0.088 2.159
-1.118 -0.432 2.099
-1.118 -0.753 1.96
-1.118 -1.034 1.751
-1.118 -1.258 1.483
-1.118 -1.415 1.171
-1.118 -1.496 0.83
-1.118 -1.496 0.481
-1.118 -1.415 0.14
-1.118 1.466 0.308
-1.376 1.272 0.656
-1.376 1.224 0.999
-1.376 1.086 1.316
-1.376 0.868 1.585
-1.376 0.585 1.785
-1.376 0.259 1.901
-1.376 -0.087 1.924
-1.376 -0.426 1.854
-1.376 -0.733 1.694
-1.376 -0.986 1.458
-1.376 -1.166 1.162
-1.376 -1.26 0.829
-1.376 -1.26 0.482
-1.376 -1.166 0.149
-1.376 1.224 0.313
-1.586 0.994 0.656
-1.586 0.934 0.995
-1.586 0.761 1.294
-1.586 0.497 1.516
-1.586 0.173 1.634
-1.586 -0.173 1.634
-1.586 -0.497 1.516
-1.586 -0.761 1.294
-1.586 -0.934 0.995
-1.586 -0.994 0.656
-1.586 -0.934 0.316
-1.586 0.934 0.316
-1.741 0.682 0.656
-1.741 0.59 0.997
-1.741 0.341 1.246
-1.741 -0.0 1.337
-1.741 -0.341 1.246
-1.741 -0.59 0.997
-1.741 -0.682 0.656
-1.741 -0.59 0.315
-1.741 0.59 0.315
-1.836 0.347 0.656
-1.836 0.173 0.956
-1.836 -0.173 0.956
-1.836 -0.347 0.656
-1.836 -0.173 0.355
-1.836 0.173 0.355
-1.868 -0.0 0.656
1.263 -0.333 -1.314
1.08 -0.577 -1.501
1.08 -0.262 -1.658
1.263 -0.0 -1.403
1.08 0.088 -1.69
1.263 0.333 -1.314
1.08 0.427 -1.594
1.08 0.707 -1.382
1.08 -0.814 -1.241
0.837 -1.081 -1.258
0.837 -0.88 -1.553
0.837 -0.6 -1.777
0.837 -0.267 -1.907
0.837 0.09 -1.934
0.837 0.438 -1.854
0.837 0.748 -1.675
0.837 0.992 -1.413
1.08 0.892 -1.083
0.837 1.147 -1.091
0.546 -1.286 -1.246
0.546 -1.119 -1.55
0.546 -0.882 -1.803
0.546 -0.589 -1.989
0.546 -0.259 -2.096
0.546 0.087 -2.117
0.546 0.427 -2.052
0.546 0.741 -1.905
0.546 1.008 -1.684
0.546 1.212 -1.403
0.546 1.34 -1.081
0.222 -1.406 -1.249
0.222 -1.25 -1.56
0.222 -1.027 -1.826
0.222 -0.748 -2.033
0.222 -0.429 -2.171
0.222 -0.087 -2.231
0.222 0.26 -2.211
0.222 0.593 -2.111
0.222 0.894 -1.938
0.222 1.146 -1.699
0.222 1.337 -1.409
0.222 1.456 -1.082
-0.12 -1.497 -1.079
-0.12 -1.383 -1.403
-0.12 -1.2 -1.694
-0.12 -0.957 -1.937
-0.12 -0.666 -2.12
-0.12 -0.342 -2.234
-0.12 0.0 -2.272
-0.12 0.342 -2.234
-0.12 0.666 -2.12
-0.12 0.957 -1.937
-0.12 1.2 -1.694
-0.12 1.383 -1.403
-0.12 1.497 -1.079
-0.461 -1.406 -1.249
-0.461 -1.25 -1.56
-0.461 -1.027 -1.826
-0.461 -0.748 -2.033
-0.461 -0.429 -2.171
-0.461 -0.087 -2.231
-0.461 0.26 -2.211
-0.461 0.593 -2.111
-0.461 0.894 -1.938
-0.461 1.146 -1.699
-0.461 1.337 -1.409
-0.461 1.456 -1.082
-0.786 -1.372 -0.911
-0.786 -1.286 -1.246
-0.786 -1.119 -1.55
-0.786 -0.882 -1.803
-0.786 -0.589 -1.989
-0.786 -0.259 -2.096
-0.786 0.087 -2.117
-0.786 0.427 -2.052
-0.786 0.741 -1.905
-0.786 1.008 -1.684
-0.786 1.212 -1.403
-0.786 1.34 -1.081
-1.077 -1.187 -0.916
-1.077 -1.081 -1.258
-1.077 -0.88 -1.553
-1.077 -0.6 -1.777
-1.077 -0.267 -1.907
-1.077 0.09 -1.934
-1.077 0.438 -1.854
-1.077 0.748 -1.675
-1.077 0.992 -1.413
-1.077 1.147 -1.091
-1.32 -0.941 -0.913
-1.32 -0.814 -1.241
-1.32 -0.577 -1.501
-1.32 -0.262 -1.658
-1.32 0.088 -1.69
-1.32 0.427 -1.594
-1.32 0.707 -1.382
-1.32 0.892 -1.083
-1.503 -0.577 -1.07
-1.503 -0.333 -1.314
-1.503 -0.0 -1.403
-1.503 0.333 -1.314
-1.503 0.577 -1.07
-1.616 -0.171 -1.033
-1.616 0.171 -1.033

CELLS 816 3264
3 0 1 2
3 2 1 3
3 1 4 3
3 3 4 5
3 4 6 5
3 5 6 7
3 6 8 7
3 7 8 9
3 8 10 9
3 9 10 11
3 10 12 11
3 11 12 13
3 12 14 13
3 13 14 15
3 14 16 15
3 15 16 17
3 16 18 17
3 17 18 19
3 18 20 19
3 19 20 21
3 20 22 21
3 21 22 23
3 22 24 23
3 23 24 25
3 24 26 25
3 25 26 27
3 26 28 27
3 27 28 29
3 28 30 29
3 29 30 31
3 30 32 31
3 31 32 33
3 32 34 33
3 33 34 35
3 34 36 35
3 35 36 37
3 36 38 37
3 37 38 39
3 38 40 39
3 39 40 41
3 40 42 41
3 41 42 43
3 42 44 43
3 43 44 45
3 44 46 45
3 45 46 47
3 46 48 47
3 47 48 49
3 48 50 49
3 49 50 51
3 50 52 51
3 51 52 53
3 52 54 53
3 53 54 55
3 54 0 55
3 55 0 2
3 56 57 58
3 56 58 59
3 56 59 60
3 56 60 61
3 56 61 62
3 56 62 57
3 58 57 63
3 58 63 64
3 58 64 65
3 59 58 65
3 59 65 66
3 59 66 67
3 60 59 67
3 60 67 68
3 60 68 69
3 61 60 69
3 61 69 70
3 61 70 71
3 62 61 71
3 62 71 72
3 62 72 73
3 57 62 73
3 57 73 74
3 57 74 63
3 63 74 75
3 63 75 76
3 64 63 76
3 64 76 77
3 64 77 78
3 65 64 78
3 65 78 79
3 66 65 79
3 66 79 80
3 66 80 81
3 67 66 81
3 67 81 82
3 68 67 82
3 68 82 83
3 68 83 84
3 69 68 84
3 69 84 85
3 70 69 85
3 73 72 86
3 73 86 87
3 74 73 87
3 74 87 88
3 74 88 75
3 75 88 89
3 75 89 90
3 76 75 90
3 76 90 91
3 77 76 91
3 77 91 92
3 78 77 92
3 78 92 93
3 78 93 94
3 79 78 94
3 79 94 95
3 80 79 95
3 80 95 96
3 81 80 96
3 81 96 97
3 81 97 98
3 82 81 98
3 82 98 99
3 83 82 99
3 83 99 100
3 84 83 100
3 84 100 101
3 85 84 101
3 85 101 102
3 87 86 103
3 87 103 104
3 88 87 104
3 88 104 105
3 88 105 89
3 89 105 106
3 89 106 107
3 90 89 107
3 90 107 108
3 91 90 108
3 91 108 109
3 92 91 109
3 92 109 110
3 93 92 110
3 93 110 111
3 94 93 111
3 94 111 112
3 94 112 113
3 95 94 113
3 95 113 114
3 96 95 114
3 96 114 115
3 97 96 115
3 97 115 116
3 98 97 116
3 98 116 117
3 99 98 117
3 99 117 118
3 99 118 119
3 100 99 119
3 100 119 120
3 101 100 120
3 104 103 121
3 104 121 122
3 105 104 122
3 105 122 123
3 105 123 106
3 106 123 124
3 106 124 125
3 107 106 125
3 107 125 126
3 108 107 126
3 108 126 127
3 109 108 127
3 109 127 128
3 110 109 128
3 110 128 129
3 111 110 129
3 111 129 130
[...]
CELL_DATA 816
SCALARS cell_data_0 double
LOOKUP_TABLE default
1.30857038229e-08
7.53180189456e-09
7.49486143346e-09
8.69880235459e-09
3.14420658353e-09
2.17258256706e-09
1.85579475896e-10
3.62676559162e-10
2.16429303988e-10
1.03406524313e-10
2.64951734944e-11
1.48786855972e-10
2.50759068764e-10
1.85302937037e-10
1.12773319314e-10
8.81800328121e-11
9.81699523571e-11
1.89004893508e-10
3.9993849307e-10
4.46362539049e-10
2.53069922789e-10
4.99636839111e-10
7.45852635994e-11
2.48338204107e-10
1.91325173588e-11
5.8482922566e-10
2.65201525202e-10
2.9812215102e-10
1.28805586805e-10
2.71117875501e-10
1.87262654297e-10
2.33860187882e-10
2.53953586142e-11
1.61273109523e-10
7.5618279695e-11
2.99764923746e-10
2.40869312651e-10
8.36522421259e-10
4.38996243191e-10
5.36194681608e-10
4.98006902804e-11
2.15555086296e-10
6.46197731493e-11
6.6289227483e-11
1.93009151417e-11
5.48297544889e-11
1.48037849362e-12
5.34765624159e-11
1.74004302195e-10
2.63270403794e-10
7.30761622992e-10
2.69312280469e-09
2.71558756489e-09
1.85791620048e-10
8.46575845212e-09
8.92344480119e-09
2.12445327977e-10
6.38061309425e-11
2.41913626385e-10
2.61694341107e-10
8.37502285552e-10
1.33211734901e-10
4.40534757964e-12
2.76551797472e-11
1.57633114854e-12
1.54165259801e-10
9.72424329e-11
1.75191110582e-11
1.60903959617e-10
1.36923640265e-11
4.35234838319e-10
5.32141775473e-11
2.0208386302e-09
8.94668952905e-10
2.03567096037e-09
6.98368522551e-10
2.40297170883e-10
4.84742318137e-10
3.43651142431e-11
5.30042930545e-11
2.99851540147e-12
1.1809972294e-13
3.23982554341e-11
1.15183228207e-12
7.26193510153e-12
6.93973548236e-11
5.75369691476e-11
3.16086211451e-11
1.91833270538e-12
9.2742660741e-11
1.48675947063e-11
8.19549723068e-11
7.42750966338e-11
4.1131110771e-10
1.55843171433e-10
1.12043779027e-09
1.62514357587e-09
3.52892673983e-09
1.29198031505e-11
1.41148643414e-10
5.01350018764e-11
4.56523201191e-11
1.93559755628e-11
1.28354790339e-11
8.0631146894e-12
5.14097209383e-12
6.47104665708e-13
3.71864168492e-11
2.81628442658e-11
1.26777591911e-11
2.68050894262e-11
2.79055512924e-11
4.50936372823e-12
5.3355116135e-11
2.34843421854e-11
6.29812681961e-11
1.16531003136e-10
4.11629857974e-11
3.75412483176e-11
2.97103460642e-11
1.18526998416e-10
1.32354354623e-10
4.66369315192e-10
6.93354637608e-11
1.24627115952e-09
2.11054448272e-09
1.33087683562e-09
1.21142823222e-10
2.64169156555e-11
8.15331559403e-12
4.3274957296e-11
3.42156703445e-12
1.06170922121e-11
2.64477559602e-12
3.08056015906e-12
7.30676393778e-12
7.35084558244e-12
7.69010543797e-13
5.63431864014e-16
1.16490805113e-11
2.51032614839e-12
1.74750423011e-11
4.41432845933e-11
3.85579237872e-11
2.72751911474e-11
7.08286444727e-11
1.79271660281e-11
4.42702818985e-11
3.33863960932e-11
1.44988801478e-11
1.90519762432e-11
8.41742959363e-11
9.47964749644e-11
1.39658520662e-10
3.24058194508e-11
1.21530537958e-10
1.22434646425e-11
1.94424560033e-11
5.48802427024e-10
4.60654471137e-11
2.60535043064e-11
5.6051321499e-12
3.18250648697e-11
1.18111165235e-11
1.45043343392e-11
1.66469289213e-11
1.94946120717e-12
2.06373665586e-11
2.30309572455e-11
3.47494847229e-11
1.26407736744e-11
2.56170315072e-11
2.04364526382e-12
1.36473223504e-11
1.56314171864e-11
4.06265051815e-11
1.220982177e-10
8.2296106611e-11
1.39260848293e-11
3.98571864608e-11
2.22676798633e-11
1.41380997611e-11
9.96494293932e-12
1.21911678885e-11
1.99070528301e-11
3.50175668313e-11
4.2075649464e-11
2.2824407835e-11
5.65238057808e-11
2.43927457925e-11
1.07269117377e-10
8.95489253332e-11
1.06058360646e-10
1.6512119324e-10
2.05816666991e-10
5.73745356266e-12
1.19787476974e-11
2.96723203703e-11
1.17513525387e-11
1.17889081978e-11
1.39948986856e-11
9.21826291456e-12
1.54308548728e-11
1.68649581075e-11
3.62178754517e-12
5.91094897664e-12
2.40416613877e-11
2.28804737512e-12
2.20091713944e-11
1.60060643912e-11
3.16978938864e-11
2.31680117209e-11
4.99293821262e-11
3.91783269155e-11
4.64911679423e-12
4.0795741204e-11
4.08031479867e-11
1.40518903194e-11
2.02997375418e-11
3.98835761177e-12
8.74466231466e-12
1.36848008149e-11
4.66621828355e-12
9.45019308632e-14
2.3960046604e-11
2.75958235063e-11
6.95893183376e-12
1.96043211194e-11
7.08902095103e-12
4.05009727309e-11
2.52452721722e-11
1.58387148668e-13
4.97712306695e-12
1.15094259876e-11
6.66794294505e-12
1.70208521923e-11
1.35902230747e-11
9.69029757924e-12
1.78737189367e-11
1.25908766867e-11
9.44281080545e-12
7.6740670472e-12
4.28914697554e-12
2.07169176156e-12
1.42891817754e-12
3.09167815231e-11
1.98967692187e-11
2.04495772386e-11
6.80526913661e-12
5.86162024091e-12
1.79352057353e-11
2.03033027478e-11
7.41703596275e-12
5.06198816985e-12
1.59550710564e-11
8.56912687623e-12
1.48684878247e-11
8.98759747773e-12
1.95374149708e-12
4.59817787351e-12
5.79512827907e-12
1.03339589781e-11
1.22879787074e-11
1.3611899019e-11
1.39906597354e-11
3.39091027665e-12
2.52043786006e-12
7.37039387029e-12
1.33666958074e-11
7.33171001253e-12
1.68697268308e-13
2.73709978858e-12
6.07571901749e-11
7.28740586452e-11
1.34502813268e-10
8.02906997125e-12
1.01265647989e-11
2.29801277031e-11
7.14483630923e-12
2.83052976776e-11
1.71908182681e-11
1.92708588699e-11
2.9919956205e-11
1.02485040328e-11
2.29995392491e-11
2.90221667545e-11
4.28731336382e-12
1.53516795574e-11
1.63903945698e-12
6.78019375956e-13
4.34818880547e-12
2.46321433922e-11
1.57161525987e-11
3.12203186966e-12
9.97130268803e-12
4.700512366e-12
7.22730499003e-12
7.78938697016e-14
2.58446221969e-13
7.14895338372e-12
1.01609810911e-13
1.71669710418e-12
2.15592624502e-12
4.42758397481e-12
1.75859310313e-11
1.27108317455e-11
8.66152542297e-12
8.87779535605e-12
1.68077907267e-12
1.30084926183e-12
4.83092902092e-12
3.49751278804e-12
1.03798059744e-11
1.00436876761e-11
7.89632637541e-11
1.28233258769e-11
5.30889100472e-12
3.71153674948e-12
5.41614104685e-12
6.46354904186e-12
8.15768256518e-12
5.86152561436e-12
2.42774774547e-12
5.1258913428e-12
3.49729055965e-11
5.19872344868e-11
8.97467964764e-12
2.87397793283e-11
2.86179220859e-11
1.21083158031e-11
1.41893061147e-12
4.49316649385e-12
7.57733694625e-12
1.26574168083e-11
8.69662557565e-13
2.8618773364e-12
7.28824557187e-13
1.6079688743e-13
6.09514822879e-13
7.49704740405e-12
1.30135168558e-11
1.49068362227e-11
1.38743363625e-11
3.49975414682e-12
2.03880988576e-11
1.98560976354e-11
1.6063469851e-11
3.55007713036e-12
1.12537958165e-13
1.55169274991e-12
1.23823961677e-12
1.32494034644e-11
4.76301665598e-11
6.70032604081e-11
2.23719167743e-11
1.11784262642e-11
1.92607517144e-11
3.63877655301e-11
4.02669460523e-12
5.66463079145e-12
3.56782810998e-12
2.46571756689e-12
4.80156727861e-12
4.94622022636e-12
1.04180891636e-11
1.54059176933e-11
1.59516807552e-11
4.00094026258e-11
2.81092211315e-11
1.41845949758e-11
9.22206042267e-12
1.01621468145e-11
4.24265654118e-12
6.96979505922e-12
8.74207149903e-12
8.87471741992e-13
4.46220375535e-12
1.32062592936e-11
8.54419411033e-12
7.21400638937e-12
6.35067470542e-13
1.64373368496e-11
1.37000228403e-11
1.29519343331e-11
6.116741423e-12
8.83530660545e-12
2.3519032785e-12
3.21378146614e-12
4.9703648072e-12
6.42805575506e-11
1.379721277e-11
1.66513403924e-10
9.69096658699e-11
1.73653836255e-11
4.47005708045e-11
1.87910705711e-11
4.83713213898e-13
2.50200703236e-13
6.28287202973e-12
3.3458973098e-13
1.0817647292e-11
2.136028447e-11
1.80902174783e-14
1.50827335041e-11
2.10149006739e-11
1.01835699495e-11
1.64444858395e-12
7.80745554662e-12
4.29256297627e-12
1.03986387565e-11
4.99391179312e-12
2.14910931951e-12
1.47606074254e-12
6.54231770267e-12
9.37403924068e-12
1.67692104156e-12
7.86442257437e-12
1.62726840992e-11
6.995759266e-12
2.46566455486e-12
1.18014698731e-11
4.37861764882e-12
1.1399628232e-11
5.01245372255e-11
3.06814386877e-12
1.08679929807e-10
7.29825862401e-11
3.2524870932e-11
9.0848631978e-11
3.94711791444e-11
2.29695579178e-12
5.98381697197e-12
6.12378325457e-12
4.14799135596e-13
2.04328149241e-11
2.04805816663e-11
7.13660001275e-12
9.16036432538e-12
4.93013569583e-12
2.01073122749e-12
3.90635112759e-12
9.77052048634e-12
3.34234545393e-12
7.74551723618e-12
1.50233159065e-11
1.17030785971e-11
2.03194641425e-12
1.16595944592e-13
2.12723565144e-12
1.67514802466e-12
2.1211316918e-12
3.57180547963e-11
3.05212958335e-12
3.39215070753e-11
4.72904977348e-11
1.20548838505e-10
8.55516573994e-11
7.26261124843e-11
1.31296127515e-10
2.489479791e-11
1.0545859229e-11
7.39452217548e-12
2.12424102063e-12
5.52468052066e-12
7.66731644425e-12
6.8672430105e-13
4.67974022758e-12
3.09880142658e-12
1.02397410126e-11
1.36573525058e-12
7.45323807518e-12
1.20615847596e-12
1.76009570729e-12
2.385879483e-12
4.23269879303e-12
8.59337325306e-12
1.06855494413e-12
1.08142875901e-11
5.99673304966e-11
9.5530059545e-11
2.09718709031e-11
4.82360419275e-11
1.02271830077e-10
6.70818423142e-11
1.92110805316e-11
2.40402317633e-11
2.22259577127e-12
2.42269768729e-12
2.34503311487e-12
2.09964762349e-12
3.66918369536e-12
2.2156986665e-12
4.95595898638e-12
4.03243422086e-12
2.02603446539e-12
1.50854246859e-12
2.44838130991e-11
4.22411370548e-11
4.72256563712e-11
5.33461956548e-11
8.85616173634e-11
9.77173807059e-11
7.1654468299e-11
2.97589644973e-11
2.67612165753e-12
5.51588828596e-12
1.44172862111e-11
3.85493900698e-12
1.88692029467e-11
3.6856349752e-11
1.07267698171e-10
7.56243654426e-11
1.01236123911e-10
1.00497633715e-10
5.06632927148e-11
7.84275377925e-11
1.16313365391e-11
9.20662480955e-11
7.03884993278e-11
1.0791261482e-10
3.97051452656e-11
2.55062149493e-10
2.49309810271e-10
3.64214573359e-10
3.0297752187e-10
3.75667363607e-10
2.4443249993e-10
2.25470703093e-10
9.69088127734e-11
1.443295098e-10
1.60601454133e-10
2.1495407709e-10
1.17635675786e-11
5.15523248821e-11
1.20288914941e-10
8.60308904898e-11
1.50823343047e-10
2.68401033855e-10
1.10022353783e-10
1.90217675221e-10
1.36143236316e-11
7.71230662812e-13
2.04152341293e-11
7.29787508038e-12
2.2885310842e-11
1.39894145421e-11
1.95740149737e-10
1.12259505101e-09
5.45120060763e-10
1.31934394522e-10
2.33146169589e-10
3.52419400417e-10
7.03419715076e-09
3.78913523577e-09
8.15152790899e-09
5.9102693995e-09
2.09229521077e-10
1.690022088e-10
6.28712095054e-10
5.31273144034e-10
3.03573791624e-10
7.09741672369e-11
7.83471748606e-11
2.58583650318e-11
2.23603879661e-12
1.40989938076e-12
7.37039123725e-12
1.81139834985e-11
4.47874519535e-11
9.29136854291e-11
1.53797959005e-11
1.22867741377e-10
2.59654604908e-10
2.27121844107e-10
2.3544119881e-10
1.50650674867e-10
2.90726143611e-10
1.96175011095e-10
2.61015293434e-10
1.55495855371e-10
2.33074363031e-10
1.30404680696e-10
6.16332186977e-09
6.38802231917e-09
3.09700486732e-09
1.47744821249e-08
1.33486263614e-08
1.05789652585e-08
1.3567989205e-08
1.07948636737e-08
1.55282715325e-09
7.53577347743e-10
6.83127918543e-09
3.66086616306e-09
1.00525868664e-09
1.02917999444e-09
4.23650245118e-09
1.95531577744e-09
3.5841209007e-09
1.93414493272e-09
3.28179490601e-09
2.50285373693e-09
1.30254998317e-11
6.02350393796e-10
2.53647336504e-10
1.82032696851e-09
3.19406671881e-10
1.3544315908e-09
3.9318332544e-11
2.53139111028e-10
5.12520775733e-10
3.75888417987e-10
2.70538663129e-10
2.89833358082e-10
3.66353887119e-10
1.37696166904e-10
1.82126522627e-09
1.41017867476e-09
1.463451628e-09
5.29403527469e-11
7.85809327963e-11
2.56670016949e-11
9.85384829858e-12
7.19309075322e-11
4.35508206703e-11
1.43569085647e-10
7.75479346451e-11
2.59846592194e-10
7.61318442122e-11
1.9329505128e-10
3.58422124284e-11
1.19747201204e-10
3.91255380305e-11
6.68215054764e-11
1.16914035018e-11
3.8366636956e-11
1.59694605023e-11
1.57133923514e-11
6.96803255785e-12
3.31966718896e-11
5.83634057648e-11
8.26030741638e-11
4.6175668751e-11
3.91496016926e-11
9.41529468628e-11
2.71699664742e-11
7.60938514167e-11
3.37266211711e-11
4.69995648482e-11
1.66280191086e-11
3.06749138067e-11
2.84439175812e-11
3.1919676743e-12
2.18632737775e-11
1.85301461935e-11
2.45311858893e-11
4.40105666313e-11
1.55174241539e-12
2.78107158716e-11
2.79544613384e-11
8.64053019032e-12
4.32488698062e-11
3.52490430431e-11
4.83821612452e-11
3.38082342085e-11
1.54033941482e-11
3.04326710077e-11
6.97106245399e-11
1.11429053034e-10
2.00130605477e-12
3.42195855396e-11
1.63356410668e-11
9.54090074598e-11
2.15796093335e-11
1.99088350419e-11
1.32814989328e-10
3.19640832529e-11
6.40869126667e-11
1.3096929005e-10
1.48875144915e-10
4.44593952546e-11
7.94177483923e-11
3.70337531414e-11
9.19840048805e-11
7.48403776206e-11
9.26178472968e-11
3.8022128989e-11
3.15514613896e-10
1.16955907724e-10
3.78764222037e-11
1.35830926463e-10
1.26285155879e-10
3.5368397214e-11
3.32299001645e-11
3.11202000321e-11
1.11357636055e-10
2.04160964462e-10
2.07906818447e-10
2.39662420914e-10
2.96953232636e-11
3.11623235822e-10
2.9273433706e-10
1.16116996011e-10
2.14832125626e-11
7.00422760355e-11
4.79237948569e-11
1.23502302037e-10
2.43616904645e-10
2.45858431211e-10
1.59908900644e-10
1.53323545393e-10
2.57157816598e-10
1.5684610353e-10
7.3830298109e-11
6.10645193866e-11
1.4432395324e-10
6.85568723534e-11
2.54945970357e-10
2.1914647514e-11
5.79313013767e-10
3.09140935098e-10
8.1148376997e-11
3.69476949439e-10
1.17058469841e-10
2.03796459257e-10
9.7277449993e-11
6.50041999585e-11
1.169508812e-11
4.18199863978e-10
4.68109494188e-10
1.41003525211e-10
8.61952353034e-12
3.07718266304e-11
1.73434651553e-10
1.78643134633e-10
5.2405441027e-11
1.6090421867e-10
1.70261238796e-11
2.22242136205e-10
2.93742917892e-10
2.70147960496e-10
5.27836946735e-11
3.11028768436e-10
1.14248569952e-10
2.48087941584e-11
9.44853401214e-11
4.53447072168e-11
1.1330381816e-10
1.68893730485e-10
1.24613499502e-10
9.36308627312e-11
2.63196314104e-10
9.59034202972e-11
1.03664653782e-10
2.36241036284e-10
1.64418074057e-10
2.35370373132e-10
9.74131617647e-11
2.11418461016e-10
1.27820540343e-10
1.06133592889e-10
7.45413156512e-11
1.96986904164e-10
7.2469207757e-11
1.46178677487e-10
4.29065617688e-11
1.75811179715e-10
3.4118864907e-10
1.29291786415e-10
1.06306929073e-10
2.64460982578e-10
7.14081929489e-11
3.27743819842e-11
2.02829173711e-11
2.07170477818e-11
4.02832119844e-11
3.21948231282e-11
1.67664572147e-11
5.90461481625e-11
1.81189331115e-10
2.76668044418e-10
5.56982051526e-11
4.14559185357e-10
1.43053557383e-08
8.40658329916e-09
6.25355024042e-09
1.5335990989e-08
1.57487689045e-09
2.96740798671e-09
1.15845276883e-09
3.12512324022e-08
1.79339209371e-08
1.06499987864e-08
1.28397447427e-08
2.27767591302e-11
2.39409690541e-11
5.75088900682e-11
7.65632901268e-11
3.32301547305e-12
5.16143761593e-11
2.31676664528e-11
1.39450239174e-10
1.64978950316e-10
1.42452614044e-11
2.1544807439e-12
1.50756789402e-10
8.58957857814e-11
5.60249594164e-11
2.83425661994e-10
7.81454560498e-11
2.81080487516e-10
2.20239286896e-10
1.40254128781e-11
2.39872172425e-10
1.58933341215e-10
9.43373671061e-11

