# vtk DataFile Version 3.0
File Name: Molecule/methanol/methanol_16.0-0.vtk
ASCII
DATASET UNSTRUCTURED_GRID
FIELD FieldData 1
TIME 1 1 double
0.0
POINTS 779 double
1.611 0.0 -0.359
1.588 -0.277 -0.357
1.475 0.0 -0.634
1.454 -0.26 -0.632
1.403 0.0 -0.933
1.382 -0.253 -0.931
1.52 -0.547 -0.35
1.39 -0.512 -0.626
1.32 -0.498 -0.925
1.409 -0.802 -0.339
1.286 -0.75 -0.615
1.219 -0.73 -0.914
1.257 -1.035 -0.324
1.144 -0.968 -0.601
1.081 -0.942 -0.901
1.07 -1.239 -0.305
0.969 -1.16 -0.584
0.91 -1.129 -0.884
0.851 -1.41 -0.283
0.764 -1.32 -0.564
0.711 -1.285 -0.864
0.608 -1.543 -0.259
0.536 -1.444 -0.541
0.489 -1.405 -0.842
0.346 -1.633 -0.233
0.291 -1.529 -0.516
0.251 -1.487 -0.818
0.073 -1.679 -0.206
0.036 -1.571 -0.491
0.002 -1.529 -0.793
-0.204 -1.679 -0.178
-0.223 -1.571 -0.465
-0.25 -1.529 -0.768
-0.477 -1.633 -0.151
-0.479 -1.529 -0.44
-0.499 -1.487 -0.743
-0.739 -1.543 -0.125
-0.724 -1.444 -0.415
-0.737 -1.405 -0.72
-0.982 -1.41 -0.101
-0.952 -1.32 -0.393
-0.959 -1.285 -0.698
-1.201 -1.239 -0.079
-1.157 -1.16 -0.372
-1.158 -1.129 -0.678
-1.388 -1.035 -0.06
-1.332 -0.968 -0.355
-1.329 -0.942 -0.661
-1.54 -0.802 -0.045
-1.474 -0.75 -0.341
-1.467 -0.73 -0.647
-1.651 -0.547 -0.034
-1.578 -0.512 -0.33
-1.568 -0.498 -0.637
-1.719 -0.277 -0.027
-1.641 -0.26 -0.324
-1.63 -0.253 -0.631
-1.742 -0.0 -0.025
-1.663 -0.0 -0.322
-1.651 -0.0 -0.629
-1.719 0.277 -0.027
-1.641 0.26 -0.324
-1.63 0.253 -0.631
-1.651 0.547 -0.034
-1.578 0.512 -0.33
-1.568 0.498 -0.637
-1.54 0.802 -0.045
-1.474 0.75 -0.341
-1.467 0.73 -0.647
-1.388 1.035 -0.06
-1.332 0.968 -0.355
-1.329 0.942 -0.661
-1.201 1.239 -0.079
-1.157 1.16 -0.372
-1.158 1.129 -0.678
-0.982 1.41 -0.101
-0.952 1.32 -0.393
-0.959 1.285 -0.698
-0.739 1.543 -0.125
-0.724 1.444 -0.415
-0.737 1.405 -0.72
-0.477 1.633 -0.151
-0.479 1.529 -0.44
-0.499 1.487 -0.743
-0.204 1.679 -0.178
-0.223 1.571 -0.465
-0.25 1.529 -0.768
0.073 1.679 -0.206
0.036 1.571 -0.491
0.002 1.529 -0.793
0.346 1.633 -0.233
0.291 1.529 -0.516
0.251 1.487 -0.818
0.608 1.543 -0.259
0.536 1.444 -0.541
0.489 1.405 -0.842
0.851 1.41 -0.283
0.764 1.32 -0.564
0.711 1.285 -0.864
1.07 1.239 -0.305
0.969 1.16 -0.584
0.91 1.129 -0.884
1.257 1.035 -0.324
1.144 0.968 -0.601
1.081 0.942 -0.901
1.409 0.802 -0.339
1.286 0.75 -0.615
1.219 0.73 -0.914
1.52 0.547 -0.35
1.39 0.512 -0.626
1.32 0.498 -0.925
1.588 0.277 -0.357
1.454 0.26 -0.632
1.382 0.253 -0.931
1.907 0.0 0.656
1.889 0.257 0.656
1.889 0.129 0.878
1.889 -0.129 0.878
1.889 -0.257 0.656
1.889 -0.129 0.433
1.889 0.129 0.433
1.837 0.441 0.91
1.837 0.255 1.097
1.837 -0.0 1.165
1.837 -0.255 1.097
1.837 -0.441 0.91
1.837 -0.509 0.656
1.837 -0.441 0.401
1.837 -0.255 0.215
1.837 -0.0 0.146
1.837 0.255 0.215
1.837 0.441 0.401
1.837 0.509 0.656
1.75 0.707 0.913
1.75 0.576 1.139
1.75 0.376 1.307
1.75 0.131 1.396
1.75 -0.131 1.396
1.75 -0.376 1.307
1.75 -0.576 1.139
1.75 -0.707 0.913
1.75 -0.752 0.656
1.75 -0.707 0.398
1.75 -0.576 0.172
1.75 -0.376 0.004
1.75 -0.131 -0.085
1.75 0.131 -0.085
1.75 0.376 0.004
1.75 0.576 0.172
1.75 0.707 0.398
1.75 0.752 0.656
1.632 0.947 0.909
1.632 0.849 1.146
1.632 0.693 1.349
1.632 0.49 1.505
1.632 0.254 1.603
1.632 0.0 1.636
1.632 -0.254 1.603
1.632 -0.49 1.505
1.632 -0.693 1.349
1.632 -0.849 1.146
1.632 -0.947 0.909
1.632 -0.981 0.656
1.632 -0.947 0.402
1.632 -0.849 0.165
1.632 -0.693 -0.038
1.632 -0.49 -0.194
1.632 0.49 -0.194
1.632 0.693 -0.038
1.632 0.849 0.165
1.632 0.947 0.402
1.632 0.981 0.656
1.483 1.163 0.912
1.483 1.081 1.156
1.483 0.948 1.376
1.483 0.771 1.563
1.483 0.558 1.708
1.483 0.319 1.803
1.483 0.064 1.845
1.483 -0.193 1.831
1.483 -0.441 1.762
1.483 -0.668 1.642
1.483 -0.865 1.475
1.483 -1.021 1.27
1.483 -1.129 1.036
1.483 -1.184 0.784
1.483 -1.184 0.527
1.483 -1.129 0.275
1.483 -1.021 0.041
1.483 -0.865 -0.164
1.483 0.948 -0.065
1.483 1.081 0.155
1.483 1.163 0.4
1.483 1.191 0.656
1.307 1.356 0.909
1.307 1.286 1.154
1.307 1.173 1.382
1.307 1.019 1.585
1.307 0.831 1.756
1.307 0.615 1.89
1.307 0.378 1.982
1.307 0.127 2.029
1.307 -0.127 2.029
1.307 -0.378 1.982
1.307 -0.615 1.89
1.307 -0.831 1.756
1.307 -1.019 1.585
1.307 -1.173 1.382
1.307 -1.286 1.154
1.307 -1.356 0.909
1.307 -1.379 0.656
1.307 -1.356 0.402
1.307 -1.286 0.157
1.307 -1.173 -0.071
1.307 1.173 -0.071
1.307 1.286 0.157
1.307 1.356 0.402
1.307 1.379 0.656
1.107 1.521 0.909
1.107 1.458 1.156
1.107 1.356 1.39
1.107 1.217 1.603
1.107 1.044 1.79
1.107 0.843 1.947
1.107 0.619 2.068
1.107 0.379 2.15
1.107 0.127 2.192
1.107 -0.127 2.192
1.107 -0.379 2.15
1.107 -0.619 2.068
1.107 -0.843 1.947
1.107 -1.044 1.79
1.107 -1.217 1.603
1.107 -1.356 1.39
1.107 -1.458 1.156
1.107 -1.521 0.909
1.107 -1.542 0.656
1.107 -1.521 0.402
1.107 -1.458 0.155
1.107 -1.356 -0.078
1.107 1.356 -0.078
1.107 1.458 0.155
1.107 1.521 0.402
1.107 1.542 0.656
0.887 1.656 0.911
0.887 1.598 1.161
0.887 1.502 1.399
0.887 1.371 1.62
0.887 1.208 1.818
0.887 1.016 1.988
0.887 0.801 2.128
0.887 0.566 2.233
0.887 0.319 2.301
0.887 0.064 2.33
0.887 -0.192 2.32
0.887 -0.444 2.272
0.887 -0.686 2.185
0.887 -0.911 2.062
0.887 -1.115 1.907
0.887 -1.293 1.722
0.887 -1.441 1.512
0.887 -1.554 1.282
0.887 -1.632 1.037
0.887 -1.671 0.784
0.887 -1.671 0.527
0.887 -1.632 0.274
0.887 -1.554 0.029
0.887 1.502 -0.088
0.887 1.598 0.15
0.887 1.656 0.4
0.887 1.676 0.656
0.651 1.76 0.909
0.651 1.706 1.157
0.651 1.618 1.394
0.651 1.496 1.617
0.651 1.344 1.82
0.651 1.165 2.0
0.651 0.962 2.152
0.651 0.739 2.273
0.651 0.501 2.362
0.651 0.253 2.416
0.651 0.0 2.434
0.651 -0.253 2.416
0.651 -0.501 2.362
0.651 -0.739 2.273
0.651 -0.962 2.152
0.651 -1.165 2.0
0.651 -1.344 1.82
0.651 -1.496 1.617
0.651 -1.618 1.394
0.651 -1.706 1.157
0.651 -1.76 0.909
0.651 -1.779 0.656
0.651 -1.76 0.402
0.651 -1.706 0.155
0.651 -1.618 -0.083
0.651 1.618 -0.083
0.651 1.706 0.155
0.651 1.76 0.402
0.651 1.779 0.656
0.403 1.831 0.907
0.403 1.779 1.154
0.403 1.695 1.392
0.403 1.579 1.616
0.403 1.434 1.822
0.403 1.261 2.006
0.403 1.066 2.165
0.403 0.85 2.296
0.403 0.619 2.397
0.403 0.376 2.465
0.403 0.126 2.499
0.403 -0.126 2.499
0.403 -0.376 2.465
0.403 -0.619 2.397
0.403 -0.85 2.296
0.403 -1.066 2.165
0.403 -1.261 2.006
0.403 -1.434 1.822
0.403 -1.579 1.616
0.403 -1.695 1.392
0.403 -1.779 1.154
0.403 -1.831 0.907
0.403 -1.848 0.656
0.403 -1.831 0.404
0.403 -1.779 0.157
0.403 -1.695 -0.081
0.403 1.695 -0.081
0.403 1.779 0.157
0.403 1.831 0.404
0.403 1.848 0.656
0.148 1.866 0.912
0.148 1.813 1.164
0.148 1.727 1.406
0.148 1.609 1.634
0.148 1.461 1.844
0.148 1.285 2.032
0.148 1.086 2.194
0.148 0.866 2.328
0.148 0.631 2.43
0.148 0.383 2.499
0.148 0.129 2.534
0.148 -0.129 2.534
0.148 -0.383 2.499
0.148 -0.631 2.43
0.148 -0.866 2.328
0.148 -1.086 2.194
0.148 -1.285 2.032
0.148 -1.461 1.844
0.148 -1.609 1.634
0.148 -1.727 1.406
0.148 -1.813 1.164
0.148 -1.866 0.912
0.148 -1.883 0.656
0.148 -1.866 0.399
0.148 -1.813 0.148
0.148 1.813 0.148
0.148 1.866 0.399
0.148 1.883 0.656
-0.11 1.866 0.912
-0.11 1.813 1.164
-0.11 1.727 1.406
-0.11 1.609 1.634
-0.11 1.461 1.844
-0.11 1.285 2.032
-0.11 1.086 2.194
-0.11 0.866 2.328
-0.11 0.631 2.43
-0.11 0.383 2.499
-0.11 0.129 2.534
-0.11 -0.129 2.534
-0.11 -0.383 2.499
-0.11 -0.631 2.43
-0.11 -0.866 2.328
-0.11 -1.086 2.194
-0.11 -1.285 2.032
-0.11 -1.461 1.844
-0.11 -1.609 1.634
-0.11 -1.727 1.406
-0.11 -1.813 1.164
-0.11 -1.866 0.912
-0.11 -1.883 0.656
-0.11 -1.866 0.399
-0.11 -1.813 0.148
-0.11 1.813 0.148
-0.11 1.866 0.399
-0.11 1.883 0.656
-0.365 1.831 0.907
-0.365 1.779 1.154
-0.365 1.695 1.392
-0.365 1.579 1.616
-0.365 1.434 1.822
-0.365 1.261 2.006
-0.365 1.066 2.165
-0.365 0.85 2.296
-0.365 0.619 2.397
-0.365 0.376 2.465
-0.365 0.126 2.499
-0.365 -0.126 2.499
-0.365 -0.376 2.465
-0.365 -0.619 2.397
-0.365 -0.85 2.296
-0.365 -1.066 2.165
-0.365 -1.261 2.006
-0.365 -1.434 1.822
-0.365 -1.579 1.616
-0.365 -1.695 1.392
-0.365 -1.779 1.154
-0.365 -1.831 0.907
-0.365 -1.848 0.656
-0.365 -1.831 0.404
-0.365 -1.779 0.157
-0.365 1.779 0.157
-0.365 1.831 0.404
-0.365 1.848 0.656
-0.613 1.779 0.656
-0.613 1.76 0.909
-0.613 1.706 1.157
-0.613 1.618 1.394
-0.613 1.496 1.617
-0.613 1.344 1.82
-0.613 1.165 2.0
-0.613 0.962 2.152
-0.613 0.739 2.273
-0.613 0.501 2.362
-0.613 0.253 2.416
-0.613 0.0 2.434
-0.613 -0.253 2.416
-0.613 -0.501 2.362
-0.613 -0.739 2.273
-0.613 -0.962 2.152
-0.613 -1.165 2.0
-0.613 -1.344 1.82
-0.613 -1.496 1.617
-0.613 -1.618 1.394
-0.613 -1.706 1.157
-0.613 -1.76 0.909
-0.613 -1.779 0.656
-0.613 -1.76 0.402
-0.613 -1.706 0.155
-0.613 1.706 0.155
-0.613 1.76 0.402
-0.849 1.676 0.656
-0.849 1.656 0.911
-0.849 1.598 1.161
-0.849 1.502 1.399
-0.849 1.371 1.62
-0.849 1.208 1.818
-0.849 1.016 1.988
-0.849 0.801 2.128
-0.849 0.566 2.233
-0.849 0.319 2.301
-0.849 0.064 2.33
-0.849 -0.192 2.32
-0.849 -0.444 2.272
-0.849 -0.686 2.185
-0.849 -0.911 2.062
-0.849 -1.115 1.907
-0.849 -1.293 1.722
-0.849 -1.441 1.512
-0.849 -1.554 1.282
-0.849 -1.632 1.037
-0.849 -1.671 0.784
-0.849 -1.671 0.527
-0.849 -1.632 0.274
-0.849 -1.554 0.029
-0.849 1.598 0.15
-0.849 1.656 0.4
-1.069 1.542 0.656
-1.069 1.521 0.909
-1.069 1.458 1.156
-1.069 1.356 1.39
-1.069 1.217 1.603
-1.069 1.044 1.79
-1.069 0.843 1.947
-1.069 0.619 2.068
-1.069 0.379 2.15
-1.069 0.127 2.192
-1.069 -0.127 2.192
-1.069 -0.379 2.15
-1.069 -0.619 2.068
-1.069 -0.843 1.947
-1.069 -1.044 1.79
-1.069 -1.217 1.603
-1.069 -1.356 1.39
-1.069 -1.458 1.156
-1.069 -1.521 0.909
-1.069 -1.542 0.656
-1.069 -1.521 0.402
-1.069 -1.458 0.155
-1.069 1.458 0.155
-1.069 1.521 0.402
-1.269 1.379 0.656
-1.269 1.356 0.909
-1.269 1.286 1.154
-1.269 1.173 1.382
-1.269 1.019 1.585
-1.269 0.831 1.756
-1.269 0.615 1.89
-1.269 0.378 1.982
-1.269 0.127 2.029
-1.269 -0.127 2.029
-1.269 -0.378 1.982
-1.269 -0.615 1.89
-1.269 -0.831 1.756
-1.269 -1.019 1.585
-1.269 -1.173 1.382
-1.269 -1.286 1.154
-1.269 -1.356 0.909
-1.269 -1.379 0.656
-1.269 -1.356 0.402
-1.269 -1.286 0.157
-1.269 1.286 0.157
-1.269 1.356 0.402
-1.445 1.191 0.656
-1.445 1.163 0.912
-1.445 1.081 1.156
-1.445 0.948 1.376
-1.445 0.771 1.563
-1.445 0.558 1.708
-1.445 0.319 1.803
-1.445 0.064 1.845
-1.445 -0.193 1.831
[...]
CELL_DATA 1554
SCALARS cell_data_0 double
LOOKUP_TABLE default
1.08176743126e-09
1.98627161111e-09
1.28055291096e-09
6.10927463915e-10
1.0836494212e-09
8.75073776301e-10
1.24741174984e-10
5.05673385279e-10
1.71227598102e-10
2.14334415355e-10
5.33584630431e-10
2.41884942439e-10
1.27368998746e-11
6.82220497899e-11
9.09156498423e-11
5.48559954714e-11
4.04303755942e-11
5.99064068818e-11
6.92299798846e-11
1.03548817922e-11
1.1415794131e-11
1.31732203659e-11
3.04608320162e-11
1.69213855409e-11
5.60710600463e-12
1.27812985963e-12
8.57658686117e-13
7.50425214345e-13
3.0647331237e-11
3.38707758488e-11
7.63473995841e-12
6.65538099646e-11
5.87497214577e-11
1.82218269203e-12
1.12656070978e-10
9.28549656431e-11
3.17563419423e-11
5.7401528081e-11
5.70892091971e-11
8.56288714942e-12
1.01258386653e-10
3.26610830999e-12
9.55379059538e-11
2.0154142218e-10
9.06552888524e-11
9.95107348845e-11
9.76605644699e-11
1.87565193152e-10
2.65425401559e-10
8.87430608305e-11
1.75888701349e-10
3.00458948501e-10
2.27406051785e-10
1.25941079805e-10
1.38974234967e-10
2.65056455481e-10
2.12624719589e-10
7.95581045528e-11
1.33019575134e-10
3.45736520427e-10
9.60028433552e-11
2.88020844023e-11
1.98741174419e-10
2.66596769367e-10
2.89244141376e-10
1.89076523894e-10
1.4548210382e-10
1.38214594839e-10
2.78555170866e-10
7.28441865636e-11
1.6720224813e-10
2.05758671502e-10
2.71203207657e-10
2.63914622821e-10
1.286200284e-10
7.8522498462e-11
2.91880726131e-10
1.04063491909e-10
9.58180227954e-11
2.5054522713e-10
8.37870077677e-11
1.15003505104e-10
2.324548403e-10
1.21051342578e-10
2.92595799223e-10
1.69380531177e-11
6.71989380251e-11
1.02406444093e-10
1.48059918279e-10
9.88762102037e-11
7.03444959333e-11
9.24682983068e-11
1.21134297023e-10
3.30674268146e-11
1.24588302423e-11
6.33772008695e-11
1.6343087152e-10
9.53179330861e-11
8.88427537941e-11
2.46760681606e-10
8.79997448152e-11
9.35887554465e-11
4.51007015405e-11
7.19944157101e-11
1.15431433406e-10
9.95342133801e-11
5.76576538288e-11
1.80752027796e-10
9.62531329549e-11
1.32690992857e-10
7.6135660851e-11
1.33385496905e-10
1.05505627026e-10
3.49412682278e-11
7.98863872936e-11
1.25257535492e-10
2.47337083635e-11
4.62982629948e-11
4.98253860688e-11
4.63196101731e-11
2.54265077047e-11
7.59818728365e-12
2.25316733011e-11
3.54965463226e-11
6.11351358613e-12
4.61652280563e-12
2.77004028753e-11
1.80692275308e-11
1.06787501295e-11
3.42411616452e-11
2.13230368549e-11
1.86889002006e-11
4.86219556651e-12
4.36764709351e-11
1.63673557697e-13
4.50134395611e-11
1.30842011803e-10
1.7507584188e-11
5.89867408031e-12
1.46897933274e-10
3.0570622414e-10
8.24795617837e-11
4.12640815841e-10
1.6907394028e-10
4.07935164133e-10
2.42302112373e-10
2.14256592492e-10
1.43160175434e-09
5.87074727897e-10
8.61670240049e-10
1.1239670522e-09
1.42339138328e-09
4.69229862647e-12
3.05990109735e-11
6.23932218523e-12
1.31684432041e-11
4.82413942171e-12
1.62749021539e-11
1.7758308775e-11
5.44230282613e-12
1.77898819543e-11
2.35034643516e-11
2.52099683707e-11
2.04966266721e-11
2.97001374701e-11
2.95376398051e-11
6.22664934773e-11
7.74263501295e-11
1.04457624682e-11
2.54173070466e-11
9.36301473575e-11
9.16259048867e-11
2.74845124967e-12
1.92924829443e-11
6.79915965533e-12
2.31007840549e-12
5.99887845615e-12
3.61838508981e-12
9.81506439327e-12
9.81439128224e-12
9.06022102961e-12
3.36391026888e-11
1.93893445916e-11
1.80677803953e-12
1.7615324573e-11
1.7318237793e-11
7.80502063954e-12
1.34658704447e-11
1.30133444219e-11
4.84888919615e-11
1.18903103772e-11
6.56612163252e-11
9.95115950361e-11
2.17867264507e-11
6.1048568232e-11
1.64355070319e-10
3.56913180878e-11
1.85201528781e-11
9.17203113689e-11
6.55461715234e-11
3.44250309241e-11
1.50927634213e-11
2.83588434735e-11
9.42349190066e-12
1.61130625347e-11
1.05575209468e-11
7.35448412858e-12
2.86215434386e-12
2.31616684806e-11
3.80135907203e-12
2.17386965827e-11
2.33039641897e-11
5.18526654514e-13
2.80078058935e-12
3.04986249677e-12
1.45006802696e-12
1.82221737439e-11
1.75900116872e-11
2.23336435822e-11
1.13792320313e-11
5.534218153e-12
6.58477191286e-12
1.79724360254e-12
9.24711953957e-12
3.30948480206e-11
2.96983908051e-11
1.9659338579e-11
1.6990643257e-11
8.78816485558e-11
1.08753750154e-10
1.05053437502e-10
2.1144862786e-10
5.30349584409e-10
1.38606439014e-11
8.04792380324e-12
2.46304311079e-11
1.73654829499e-11
2.54102612588e-12
1.67750547014e-11
8.56180285666e-12
8.73736659005e-12
8.1646028544e-12
2.23218329185e-12
7.05254644762e-12
1.75780431113e-11
3.34361777046e-12
1.53656827997e-11
1.17319334866e-11
8.39776008546e-13
8.28475815924e-12
4.34255703258e-12
4.88556519879e-12
2.07850167344e-12
2.34315253595e-14
1.23295806268e-11
2.72403528163e-12
9.6381062535e-12
1.60214570109e-12
6.50987094704e-12
1.16273744578e-11
4.97339113503e-12
3.45892299069e-12
2.93894500261e-12
8.57867674044e-12
1.6187645238e-11
1.67151939333e-11
1.05008278475e-11
2.16274091356e-11
2.93072709705e-11
5.81563498357e-11
1.0950567592e-11
6.44671905336e-11
1.95654798624e-10
2.83132911498e-11
1.80166199318e-11
2.32211358855e-12
2.02510085302e-11
1.38969565007e-11
2.15216222557e-11
1.67571816082e-11
6.67728809433e-13
2.91833752301e-11
8.06836530266e-12
6.70247745962e-13
1.77764157034e-11
4.15038902476e-12
7.88528878978e-12
7.33960849425e-12
3.31988937358e-12
1.01848246675e-11
1.02613510109e-11
9.51154887863e-12
1.51376068723e-11
1.55988758671e-11
4.26994105117e-12
4.16629643622e-12
1.02841211454e-11
8.1765754558e-12
2.58719931375e-12
2.97587531513e-12
2.14524319173e-13
6.46192345428e-12
4.72238557913e-12
7.91835826867e-12
1.61068409932e-11
5.96386124218e-12
2.79610930145e-12
1.35720624567e-12
3.59572152467e-12
2.60013210977e-12
1.58020276285e-11
7.81441292013e-12
1.0276591037e-11
1.93751068574e-11
4.81169935243e-11
6.02579230481e-11
1.06492547229e-11
3.67578062823e-12
3.18867638424e-11
1.34259516438e-11
1.01001554322e-11
7.48208843773e-12
1.35289501864e-11
2.51106672456e-11
5.4106717908e-12
2.11074914562e-11
6.63086206113e-12
6.46633151722e-12
6.15017869164e-12
9.37140312395e-13
3.23719031654e-12
1.00900700126e-13
4.98287141354e-12
1.98905563203e-11
1.2623090661e-11
2.81831710336e-12
4.99034016271e-12
9.91087264993e-12
1.9926874001e-11
2.04729903819e-11
1.08488670719e-12
1.89211240343e-11
2.01714827765e-11
5.18976931784e-12
4.52842574654e-12
1.65443225697e-11
7.25277578948e-12
8.1880433823e-12
1.23297043033e-11
7.33007530703e-12
8.46432414482e-12
3.92750460791e-12
3.38919285781e-12
5.70739905528e-12
4.11696483976e-12
4.59412518476e-13
7.3357993e-13
6.3899975544e-12
3.73837728772e-12
3.27512818882e-12
2.6529573866e-12
1.74315630833e-11
3.70979524821e-12
7.22139578198e-12
4.98500973991e-12
2.82636863889e-12
9.36419131747e-12
1.65044348815e-11
1.16564387736e-11
8.07281562529e-14
6.8357547044e-12
1.19316270612e-12
1.15520576131e-11
2.55864410658e-11
1.35151994208e-11
4.34181233821e-12
1.49269811558e-11
5.3426675373e-12
1.18460843999e-11
4.57169940044e-12
6.16589281587e-12
2.60891420603e-12
2.67060362305e-12
3.64051682247e-12
3.07507937732e-12
8.24426839578e-12
9.83906493626e-12
3.40214054003e-12
9.62632450825e-12
3.27791730029e-13
7.01341875705e-12
4.94920251058e-12
2.00195983651e-12
1.30023939248e-11
1.01093869161e-11
1.4482504967e-11
5.05899245448e-12
3.04439794254e-12
5.90490370473e-12
2.32282146094e-12
1.39797782033e-13
1.21177226889e-12
3.62076316742e-12
3.42395268242e-12
8.369198718e-13
5.01327225725e-12
3.86823855376e-12
2.23442451875e-12
4.63794247933e-12
8.22551966341e-12
1.27547896366e-11
8.52625227647e-12
1.09882496235e-12
3.56454742266e-12
6.97697142514e-12
7.1699294656e-12
1.36665024969e-11
1.77135239288e-11
3.38219583142e-13
1.4082035372e-11
1.41574729938e-11
5.32651972352e-12
4.01845084075e-12
1.17702373681e-11
3.5131312633e-11
2.0977434621e-11
1.52125891062e-11
2.70591790409e-11
9.1634749459e-12
4.20964881593e-12
7.86884258763e-12
2.85522570843e-12
3.65283183483e-12
7.47284950435e-12
5.11061434197e-12
1.79047840056e-12
6.38483838916e-13
3.24359804723e-12
2.59996224174e-12
6.06038733442e-13
3.55899232296e-13
7.06316797272e-12
4.6434363791e-12
1.11071195872e-12
5.63029694573e-12
6.5213109649e-13
7.01714982236e-12
1.9654608444e-13
2.80238220636e-12
3.06450729496e-13
4.76438250887e-12
5.35092955486e-12
1.6599291438e-12
7.39541992316e-13
4.16489880906e-12
1.77692342565e-12
5.46665892066e-12
3.5798370552e-12
1.97477283197e-12
5.59420076914e-12
1.03255655333e-12
1.22292788791e-12
1.65508468778e-12
5.39750611922e-12
5.15309486444e-13
1.36921250256e-13
1.69282042183e-12
3.08723674648e-13
1.26894332013e-12
2.63370780678e-13
5.2324197632e-12
5.9250033212e-12
4.15143422734e-12
1.31090779468e-11
6.36244986153e-12
2.34455913688e-12
1.66475461735e-12
2.4611059076e-11
4.14939834597e-11
1.43382835122e-11
3.14484710611e-11
5.6661600495e-11
1.57633666263e-11
1.17354945278e-11
1.06093096745e-11
1.87088374304e-11
8.02089954222e-13
7.71812809148e-12
7.86933410615e-12
1.28421901559e-11
7.82844273186e-13
2.45958470332e-12
3.78178772868e-12
5.64591719993e-14
3.62241616747e-12
1.3252550294e-11
3.82821854518e-12
1.72303278322e-12
3.44824908646e-12
1.28641886611e-13
1.70930531639e-12
1.46953695547e-11
7.2923076689e-12
1.05077295879e-12
1.03272319482e-11
4.14883394953e-12
2.81805123213e-12
3.84999999982e-12
3.28316764486e-12
1.18286878651e-12
5.08016348361e-12
3.56265940683e-12
6.22212895998e-12
4.38443899247e-12
4.45153499603e-12
2.40870521532e-13
2.11453064878e-12
9.76271166011e-13
3.83124742378e-12
3.24116405402e-12
7.68675482416e-13
1.26984326585e-12
3.50254596136e-12
6.45107193306e-12
2.12891769508e-11
1.33422799014e-11
8.4714100534e-14
2.22950835766e-13
7.3849885412e-13
5.06982331898e-13
9.38516718832e-13
3.11557026586e-12
9.01746839489e-12
3.84713769628e-12
1.03662411053e-11
2.00589891349e-11
1.64848383362e-11
6.01247298542e-12
2.29172336521e-11
2.60162164924e-11
2.07511365762e-11
6.41342298252e-12
5.62987606864e-12
7.69494395202e-12
1.5640971812e-11
3.83209529988e-12
8.80930218002e-12
9.51284483912e-14
1.15289198118e-11
2.94412762821e-12
5.3719279909e-12
9.45036617671e-12
2.48036197593e-12
2.5122292963e-12
5.63787304322e-12
1.4060644098e-11
1.17793160192e-12
7.8935462581e-12
5.05945799663e-12
1.01412868274e-11
7.83106842902e-12
3.98131274707e-12
1.15212647971e-12
3.41698838994e-13
4.36482812016e-12
3.58573694887e-13
3.39589403416e-12
4.61393346055e-12
1.78396514879e-12
3.05320115676e-13
1.52888619809e-12
1.18703027491e-14
2.57458626518e-13
6.4266571229e-13
5.59366933365e-13
1.81462945192e-12
9.27946461273e-13
8.65921928072e-13
9.23792986826e-13
1.60727883274e-13
9.87814095146e-12
2.5863093903e-12
2.34707598428e-13
1.48926466951e-12
2.46053915789e-12
3.4094724689e-13
9.31523869829e-13
1.75545063926e-12
5.74139906198e-12
3.63058904745e-12
1.31731808472e-11
7.86338128497e-12
9.86389763744e-12
4.32048100717e-13
1.31616134864e-11
8.88893320481e-12
1.80179437747e-11
4.17754399457e-12
1.90572949908e-11
1.22742562886e-12
1.04818222526e-11
9.04037508507e-12
8.43301456544e-12
2.47131456812e-12
9.17729222689e-12
6.48987811409e-12
1.70170376742e-11
1.12725450772e-11
7.24235044248e-12
2.71799402535e-11
1.47370322136e-11
9.7552103947e-13
6.31453182478e-12
2.24962163888e-12
7.09557265998e-14
4.41777640677e-12
1.85265998263e-12
6.66322634151e-12
2.472572728e-12
1.38285183912e-12
4.33007548698e-12
9.51150892337e-13
2.07372186808e-12
8.34471108309e-12
6.90395491601e-12
2.09590175811e-12
4.91068568337e-12
4.22695473121e-12
7.1454526572e-13
8.73939667523e-13
7.11916085627e-13
1.35784784393e-12
1.94575999486e-12
7.62037600212e-12
5.74401533996e-12
8.38871031197e-12
9.34796172626e-12
8.19735867988e-12
1.97341725101e-12
3.11815831876e-12
1.10473762987e-12
3.40657453596e-13
1.24791969241e-12
6.98856785927e-14
1.46590572595e-12
3.14336404714e-12
3.51238271277e-12
2.95066654911e-12
2.59522935522e-12
7.09519135751e-12
5.99573868398e-13
9.14893028423e-12
4.4013790659e-12
1.55670877911e-11
1.53483551488e-12
9.95474952421e-12
5.91567353751e-12
2.3893251699e-11
1.12526737651e-11
2.48197970671e-13
1.62538775117e-11
1.60749430409e-11
6.00465601603e-13
6.23083563947e-12
1.54685852983e-11
5.99185851277e-12
3.87037764098e-12
5.17319950188e-12
4.4280407861e-12
2.42737441539e-13
2.3348223236e-12
1.15285373161e-12
7.56250108618e-12
9.23818001828e-12
7.3465149424e-12
2.04930447169e-12
6.08620468623e-13
1.79824257075e-11
1.25563479609e-11
4.19132981787e-12
4.89461606474e-12
2.70177753675e-12
1.74708358138e-12
3.70493913702e-13
1.54027529535e-12
5.12491675689e-12
9.78571342836e-12
1.68576921732e-11
3.78871088277e-13
1.19364640551e-11
2.45894073262e-11
9.63812408285e-12
6.1421950782e-12
1.68610095245e-12
1.63238281659e-12
4.60249716716e-13
1.97266113108e-12
2.25049160364e-12
5.36124795246e-13
3.82947868083e-13
3.16913113521e-12
5.85924896374e-12
6.26140743433e-12
2.1213168015e-12
1.08381569976e-11
1.07876449495e-11
1.51661840294e-11
7.9149248331e-13
4.23840196517e-12
7.41254281021e-12
1.39312594709e-11
1.50694839281e-12
2.52205836778e-11
5.54449132302e-12
7.13673044131e-12
4.05509517194e-11
3.39288592728e-11
4.92338439319e-12
6.95499321289e-12
1.01258330727e-11
5.70171689754e-12
4.64652441344e-13
3.14523910631e-12
1.01870701764e-11
5.87384698346e-12
5.3768564541e-12
4.03077812145e-13
4.35304278548e-12
7.77383100906e-12
6.73953601501e-12
3.01939196501e-12
1.00927104612e-11
2.61654720838e-11
1.11634328837e-11
2.76393513026e-12
1.2572755166e-11
4.50742195288e-12
6.43768571167e-14
2.41284145284e-13
4.475604154e-12
6.21289585606e-12
1.01189617171e-11
1.56181169208e-11
3.89126581701e-11
5.48037059119e-11
1.32960859274e-11
1.48420166354e-11
1.24672406562e-11
3.22813999793e-12
1.31263296479e-12
3.17571941251e-12
2.52511686743e-12
1.57095467535e-12
1.54335240718e-12
1.39685560699e-12
4.48816769045e-12
3.39766876553e-12
4.08979527817e-13
5.66836706903e-13
1.93324780981e-12
3.24158983215e-12
1.11853397744e-11
2.90984359327e-12
9.72187997228e-12
4.22138974465e-12
1.10422577266e-11
9.69667230738e-12
2.46709605158e-11
1.41406759251e-11
5.79256757652e-13
7.80252571065e-12
6.80527061144e-12
2.59422921507e-12
5.60763006126e-12
3.36535536092e-13
2.00511564964e-12
7.71705760257e-14
6.87884670298e-12
1.57228775611e-12
5.56233049803e-12
9.91266608515e-12
3.38550565806e-13
1.56856804538e-11
9.82742677036e-12
7.72454281334e-12
1.05972017538e-11
5.90443177062e-12
1.98520852566e-12
8.84447235934e-13
3.24850657948e-12
2.69129179631e-12
1.75342160418e-11
9.17093242887e-12
6.90378331946e-12
4.10313877079e-11
7.59784600467e-11
2.04578121477e-11
1.27959825839e-11
1.26200586674e-11
1.01851344547e-11
3.96535045055e-12
2.37807903822e-12
2.63001250555e-12
6.32160294852e-13
3.47359789731e-13
1.04758384442e-12
2.28126153337e-12
1.13588911757e-11
7.50304055861e-12
1.82411877113e-12
6.32501634201e-12
1.90555233479e-12
2.86227024687e-13
7.58256518578e-13
3.59312244069e-12
1.63373368205e-12
4.67927398418e-12
7.00712948773e-12
1.65824147393e-12
6.03794270269e-12
2.46701471655e-12
1.63409898312e-12
2.23097674362e-12
4.27655822318e-12
8.99594957758e-12
3.19297704258e-12
1.01859992674e-11
8.92447428056e-12
5.49950768879e-12
1.69934678474e-12
1.92572992878e-12
3.20370548314e-12
5.20091315085e-12
3.9481273652e-13
2.3469908835e-12
1.5067834929e-12
1.07424004862e-12
4.90115765911e-12
3.33921105963e-12
2.20062714834e-11
7.23075930645e-12
1.4073752065e-12
7.26435456603e-11
9.41010424903e-11
7.5630745463e-12
2.64706206524e-11
8.83139458772e-12
9.91240712361e-12
9.5542550144e-12
2.6383634307e-12
1.61405300601e-12
3.09715668918e-12
1.64964172053e-12
8.09532665031e-13
5.02971760945e-12
5.29923020249e-12
6.75872577069e-12
1.48960699879e-13
2.60643414035e-12
3.2589364168e-12
3.44721347803e-12
4.1027515854e-12
3.89858775122e-13
6.73172029225e-12
7.31077222068e-12
1.2252508125e-12
6.62930857756e-12
7.56149760252e-12
4.57268754301e-12
4.5720786112e-12
5.82665926745e-12
5.12018660142e-12
5.21243996378e-12
2.16049538188e-12
1.1468710438e-12
5.10125692597e-12
1.53542529027e-12
3.01267131547e-12
2.52340588149e-13
1.18404306376e-12
2.59570635339e-12
3.6810640519e-12
7.2024580474e-12
1.82989113592e-11
7.7139418675e-12
3.94654101786e-11
9.60233503319e-11
5.34759808613e-11
3.41719778128e-11
1.75259718181e-11
1.09139108083e-12
1.21359773027e-11
5.61566720735e-12
1.10682052621e-11
8.23841503618e-12
5.49644990552e-12
1.91151573358e-12
8.39392230361e-13
3.76064057804e-13
2.04028734316e-12
3.49166898367e-12
2.06002404406e-12
2.64111544277e-12
1.82858683838e-13
9.25784105388e-13
5.23192741161e-12
8.34553390618e-12
4.40287583268e-12
1.19208910489e-12
3.88437901537e-12
4.4581765486e-12
5.78657872975e-12
5.09648957416e-13
6.97886419751e-12
3.92115128203e-12
1.15541811526e-12
5.94935386799e-12
4.26748517023e-12
3.72951637282e-13
1.12953952374e-12
2.31919969108e-12
7.19799860212e-12
4.82824474267e-12
3.77172163672e-12
1.54252112272e-11
5.97117266478e-11
4.17498088796e-11
9.46227826541e-11
4.25632583697e-11
4.38855611502e-12
9.79539140104e-13
7.36088593925e-12
1.19610546234e-11
9.46804130943e-12
6.67902482888e-12
2.37948456596e-12
8.99055641083e-13
1.25448779428e-12
2.13523988933e-13
5.18225099591e-13
3.25248668463e-12
5.94710172187e-13
2.65623666713e-12
2.71993571382e-12
2.77441324622e-12
1.09235789748e-12
2.98414003104e-12
1.12613704418e-12
2.58257101742e-12
3.66665803472e-12
3.14949395283e-12
1.04865134516e-12
1.61487854899e-13
7.07484416479e-13
2.244100313e-12
4.9331558533e-12
1.1657651959e-12
1.58542019886e-11
2.34936762941e-11
3.07855456511e-12
2.60533044413e-11
3.28399439221e-11
2.85501753817e-12
3.32314140391e-11
4.93044951265e-12
1.503140116e-11
1.56279975213e-11
7.77506557265e-12
8.50166793994e-12
3.02118677419e-12
1.70660846796e-12
1.31363082005e-12
5.45881751475e-13
8.74209704234e-13
1.52205373208e-12
3.73692103059e-13
2.543881233e-12
1.91270719694e-12
1.25748261466e-12
1.58104706246e-12
4.04785039852e-12
3.83597867219e-12
7.88435158889e-12
5.59803476346e-12
9.34240199563e-12
6.52700752913e-13
3.43668848556e-11
2.74287498233e-11
3.52190455533e-11
9.31948680481e-11
7.88654130248e-11
1.37769766963e-11
1.63257661662e-11
1.38945258423e-11
1.24803596833e-11
1.58605748378e-11
1.54597527317e-11
9.12096055332e-13
1.00834392549e-11
8.84506771103e-12
2.50956440838e-12
2.45372787272e-12
5.37414329499e-12
3.73200248919e-12
6.85567262813e-12
1.05331150509e-11
1.00205395515e-11
1.33525873833e-11
1.37249406237e-11
1.49171085886e-11
3.61318252449e-13
6.50824986377e-11
5.5133677579e-11
2.99378673057e-11
5.38314061162e-11
1.05561650677e-11
1.37947005301e-11
7.11629923269e-12
1.1775599453e-11
7.56889733168e-13
1.35882585415e-12
1.4408411612e-11
8.63688424617e-12
7.57773202978e-12
1.70337191778e-11
2.10988728811e-11
8.91157334728e-12
8.25269398983e-11
4.45510195939e-11
5.75180415096e-11
9.73714686412e-11
1.55385565408e-11
7.1504816438e-12
7.15007215358e-12
4.91135097126e-13
7.39906740982e-12
4.67737078255e-12
5.13046085454e-12
5.09720994657e-11
4.993988397e-11
9.58095212662e-12
7.24393067016e-11
9.06755791076e-12
1.2884477239e-10
1.81969690947e-10
5.82115095428e-11
4.82359337102e-11
1.12075006916e-10
1.10012682309e-10
6.16514399881e-11
5.149946427e-11
3.41010883461e-12
3.24255236295e-12
1.25983795899e-10
5.58937413331e-11
1.70766068598e-10
2.53342112885e-11
6.14281744472e-11
8.65629908827e-12
8.95265939963e-11
3.76007234441e-11
3.6130873426e-11
1.40486709971e-11
4.92735422891e-11
2.19527535842e-11
1.77106900274e-11
2.7351710883e-12
7.45525177044e-12
1.3216084077e-11
3.12220926452e-13
3.9434652728e-12
2.85256433617e-12
2.93255863355e-12
1.3128651222e-11
1.37568990551e-11
3.63031015037e-11
1.07302816457e-10
1.20949108897e-10
5.89318534331e-11
1.09408466013e-10
4.49645181713e-10
4.44407017152e-10
1.52035321242e-10
3.33360086073e-10
4.26151996326e-10
2.06124377284e-10
1.23740825774e-10
2.90143969326e-10
3.61907332941e-10
6.64704659152e-12
4.14747221632e-10
2.21255941663e-10
3.32857314415e-10
4.74558186903e-11
1.23295065742e-10
8.3629723476e-11
3.81820499355e-11
2.49608750407e-11
1.97867333217e-11
5.81282411699e-12
2.38338865784e-12
5.15550839367e-13
2.72554542122e-12
1.04547857237e-11
2.12228234459e-11
8.13794438159e-12
3.11401573543e-11
7.39230729176e-11
6.20404871995e-11
7.55432049921e-11
2.44423468041e-11
1.40367453847e-11
1.60695349743e-11
8.60413192127e-11