# vtk DataFile Version 3.0
File Name: Molecule/methanol/methanol_20.0-0.vtk
ASCII
DATASET UNSTRUCTURED_GRID
FIELD FieldData 1
TIME 1 1 double
0.0
POINTS 981 double
1.611 0.0 -0.359
1.594 -0.24 -0.357
1.475 0.0 -0.634
1.459 -0.224 -0.633
1.403 0.0 -0.933
1.387 -0.218 -0.931
1.543 -0.475 -0.352
1.412 -0.444 -0.628
1.341 -0.432 -0.927
1.459 -0.7 -0.344
1.333 -0.655 -0.62
1.265 -0.637 -0.919
1.345 -0.911 -0.332
1.226 -0.852 -0.61
1.16 -0.83 -0.909
1.201 -1.103 -0.318
1.092 -1.033 -0.596
1.03 -1.005 -0.896
1.032 -1.273 -0.301
0.934 -1.192 -0.58
0.876 -1.16 -0.88
0.841 -1.417 -0.282
0.754 -1.326 -0.563
0.701 -1.291 -0.863
0.631 -1.532 -0.261
0.558 -1.434 -0.543
0.51 -1.396 -0.844
0.407 -1.616 -0.239
0.348 -1.513 -0.522
0.306 -1.472 -0.824
0.173 -1.667 -0.216
0.129 -1.561 -0.5
0.093 -1.519 -0.802
-0.065 -1.684 -0.192
-0.094 -1.577 -0.478
-0.124 -1.534 -0.781
-0.304 -1.667 -0.168
-0.317 -1.561 -0.456
-0.341 -1.519 -0.759
-0.538 -1.616 -0.145
-0.536 -1.513 -0.434
-0.554 -1.472 -0.738
-0.762 -1.532 -0.123
-0.746 -1.434 -0.413
-0.758 -1.396 -0.718
-0.972 -1.417 -0.102
-0.942 -1.326 -0.394
-0.95 -1.291 -0.699
-1.163 -1.273 -0.083
-1.121 -1.192 -0.376
-1.124 -1.16 -0.681
-1.332 -1.103 -0.066
-1.28 -1.033 -0.36
-1.278 -1.005 -0.666
-1.475 -0.911 -0.051
-1.414 -0.852 -0.347
-1.408 -0.83 -0.653
-1.59 -0.7 -0.04
-1.521 -0.655 -0.336
-1.513 -0.637 -0.642
-1.674 -0.475 -0.032
-1.599 -0.444 -0.328
-1.589 -0.432 -0.635
-1.724 -0.24 -0.027
-1.647 -0.224 -0.323
-1.635 -0.218 -0.63
-1.742 -0.0 -0.025
-1.663 -0.0 -0.322
-1.651 -0.0 -0.629
-1.724 0.24 -0.027
-1.647 0.224 -0.323
-1.635 0.218 -0.63
-1.674 0.475 -0.032
-1.599 0.444 -0.328
-1.589 0.432 -0.635
-1.59 0.7 -0.04
-1.521 0.655 -0.336
-1.513 0.637 -0.642
-1.475 0.911 -0.051
-1.414 0.852 -0.347
-1.408 0.83 -0.653
-1.332 1.103 -0.066
-1.28 1.033 -0.36
-1.278 1.005 -0.666
-1.163 1.273 -0.083
-1.121 1.192 -0.376
-1.124 1.16 -0.681
-0.972 1.417 -0.102
-0.942 1.326 -0.394
-0.95 1.291 -0.699
-0.762 1.532 -0.123
-0.746 1.434 -0.413
-0.758 1.396 -0.718
-0.538 1.616 -0.145
-0.536 1.513 -0.434
-0.554 1.472 -0.738
-0.304 1.667 -0.168
-0.317 1.561 -0.456
-0.341 1.519 -0.759
-0.065 1.684 -0.192
-0.094 1.577 -0.478
-0.124 1.534 -0.781
0.173 1.667 -0.216
0.129 1.561 -0.5
0.093 1.519 -0.802
0.407 1.616 -0.239
0.348 1.513 -0.522
0.306 1.472 -0.824
0.631 1.532 -0.261
0.558 1.434 -0.543
0.51 1.396 -0.844
0.841 1.417 -0.282
0.754 1.326 -0.563
0.701 1.291 -0.863
1.032 1.273 -0.301
0.934 1.192 -0.58
0.876 1.16 -0.88
1.201 1.103 -0.318
1.092 1.033 -0.596
1.03 1.005 -0.896
1.345 0.911 -0.332
1.226 0.852 -0.61
1.16 0.83 -0.909
1.459 0.7 -0.344
1.333 0.655 -0.62
1.265 0.637 -0.919
1.543 0.475 -0.352
1.412 0.444 -0.628
1.341 0.432 -0.927
1.594 0.24 -0.357
1.459 0.224 -0.633
1.387 0.218 -0.931
1.907 0.0 0.656
1.893 0.228 0.656
1.893 0.114 0.853
1.893 -0.114 0.853
1.893 -0.228 0.656
1.893 -0.114 0.459
1.893 0.114 0.459
1.852 0.391 0.881
1.852 0.226 1.047
1.852 -0.0 1.107
1.852 -0.226 1.047
1.852 -0.391 0.881
1.852 -0.452 0.656
1.852 -0.391 0.43
1.852 -0.226 0.264
1.852 -0.0 0.204
1.852 0.226 0.264
1.852 0.391 0.43
1.852 0.452 0.656
1.784 0.629 0.885
1.784 0.513 1.086
1.784 0.335 1.235
1.784 0.116 1.315
1.784 -0.116 1.315
1.784 -0.335 1.235
1.784 -0.513 1.086
1.784 -0.629 0.885
1.784 -0.669 0.656
1.784 -0.629 0.427
1.784 -0.513 0.225
1.784 -0.335 0.076
1.784 -0.116 -0.004
1.784 0.116 -0.004
1.784 0.335 0.076
1.784 0.513 0.225
1.784 0.629 0.427
1.784 0.669 0.656
1.69 0.847 0.883
1.69 0.76 1.094
1.69 0.62 1.276
1.69 0.439 1.415
1.69 0.227 1.503
1.69 0.0 1.533
1.69 -0.227 1.503
1.69 -0.439 1.415
1.69 -0.62 1.276
1.69 -0.76 1.094
1.69 -0.847 0.883
1.69 -0.877 0.656
1.69 -0.847 0.429
1.69 -0.76 0.217
1.69 -0.62 0.035
1.69 -0.439 -0.104
1.69 -0.227 -0.192
1.69 -0.0 -0.222
1.69 0.227 -0.192
1.69 0.439 -0.104
1.69 0.62 0.035
1.69 0.76 0.217
1.69 0.847 0.429
1.69 0.877 0.656
1.572 1.049 0.879
1.572 0.98 1.092
1.572 0.867 1.286
1.572 0.717 1.452
1.572 0.536 1.584
1.572 0.331 1.675
1.572 0.112 1.722
1.572 -0.112 1.722
1.572 -0.331 1.675
1.572 -0.536 1.584
1.572 -0.717 1.452
1.572 -0.867 1.286
1.572 -0.98 1.092
1.572 -1.049 0.879
1.572 -1.072 0.656
1.572 -1.049 0.433
1.572 -0.98 0.219
1.572 -0.867 0.025
1.572 -0.717 -0.141
1.572 0.717 -0.141
1.572 0.867 0.025
1.572 0.98 0.219
1.572 1.049 0.433
1.572 1.072 0.656
1.432 1.232 0.879
1.432 1.172 1.095
1.432 1.074 1.298
1.432 0.943 1.479
1.432 0.78 1.634
1.432 0.593 1.758
1.432 0.387 1.846
1.432 0.168 1.896
1.432 -0.056 1.906
1.432 -0.279 1.876
1.432 -0.492 1.807
1.432 -0.69 1.7
1.432 -0.865 1.56
1.432 -1.013 1.391
1.432 -1.128 1.199
1.432 -1.207 0.989
1.432 -1.247 0.768
1.432 -1.247 0.543
1.432 -1.207 0.323
1.432 -1.128 0.113
1.432 -1.013 -0.08
1.432 0.943 -0.168
1.432 1.074 0.014
1.432 1.172 0.216
1.432 1.232 0.432
1.432 1.252 0.656
1.271 1.395 0.882
1.271 1.34 1.103
1.271 1.251 1.312
1.271 1.129 1.504
1.271 0.979 1.675
1.271 0.803 1.818
1.271 0.606 1.932
1.271 0.393 2.013
1.271 0.17 2.058
1.271 -0.057 2.067
1.271 -0.283 2.04
1.271 -0.501 1.977
1.271 -0.706 1.879
1.271 -0.894 1.75
1.271 -1.058 1.592
1.271 -1.194 1.411
1.271 -1.3 1.209
1.271 -1.372 0.994
1.271 -1.408 0.769
1.271 -1.408 0.542
1.271 -1.372 0.317
1.271 -1.3 0.102
1.271 -1.194 -0.1
1.271 1.129 -0.193
1.271 1.251 -0.001
1.271 1.34 0.208
1.271 1.395 0.429
1.271 1.413 0.656
1.091 1.537 0.882
1.091 1.488 1.103
1.091 1.407 1.315
1.091 1.296 1.513
1.091 1.157 1.692
1.091 0.994 1.85
1.091 0.809 1.982
1.091 0.608 2.085
1.091 0.393 2.158
1.091 0.17 2.2
1.091 -0.057 2.208
1.091 -0.282 2.183
1.091 -0.502 2.126
1.091 -0.71 2.037
1.091 -0.904 1.919
1.091 -1.078 1.774
1.091 -1.229 1.605
1.091 -1.355 1.416
1.091 -1.451 1.211
1.091 -1.516 0.993
1.091 -1.549 0.769
1.091 -1.549 0.542
1.091 -1.516 0.318
1.091 -1.451 0.101
1.091 -1.355 -0.105
1.091 1.296 -0.202
1.091 1.407 -0.004
1.091 1.488 0.208
1.091 1.537 0.429
1.091 1.553 0.656
0.896 1.656 0.883
0.896 1.609 1.107
0.896 1.533 1.321
0.896 1.428 1.524
0.896 1.296 1.71
0.896 1.141 1.877
0.896 0.964 2.021
0.896 0.769 2.14
0.896 0.56 2.23
0.896 0.34 2.292
0.896 0.114 2.323
0.896 -0.114 2.323
0.896 -0.34 2.292
0.896 -0.56 2.23
0.896 -0.769 2.14
0.896 -0.964 2.021
0.896 -1.141 1.877
0.896 -1.296 1.71
0.896 -1.428 1.524
0.896 -1.533 1.321
0.896 -1.609 1.107
0.896 -1.656 0.883
0.896 -1.671 0.656
0.896 -1.656 0.428
0.896 -1.609 0.205
0.896 -1.533 -0.01
0.896 1.533 -0.01
0.896 1.609 0.205
0.896 1.656 0.428
0.896 1.671 0.656
0.688 1.75 0.881
0.688 1.707 1.103
0.688 1.636 1.318
0.688 1.538 1.522
0.688 1.414 1.711
0.688 1.268 1.883
0.688 1.1 2.035
0.688 0.915 2.165
0.688 0.714 2.269
0.688 0.502 2.347
0.688 0.282 2.398
0.688 0.057 2.42
0.688 -0.169 2.412
0.688 -0.393 2.376
0.688 -0.61 2.312
0.688 -0.816 2.22
0.688 -1.01 2.103
0.688 -1.187 1.962
0.688 -1.344 1.8
0.688 -1.479 1.618
0.688 -1.59 1.421
0.688 -1.675 1.212
0.688 -1.732 0.993
0.688 -1.761 0.769
0.688 -1.761 0.543
0.688 -1.732 0.318
0.688 -1.675 0.099
0.688 -1.59 -0.11
0.688 1.636 -0.007
0.688 1.707 0.208
0.688 1.75 0.43
0.688 1.765 0.656
0.471 1.819 0.881
0.471 1.777 1.103
0.471 1.709 1.318
0.471 1.615 1.523
0.471 1.496 1.714
0.471 1.354 1.89
0.471 1.192 2.047
0.471 1.012 2.183
0.471 0.817 2.296
0.471 0.609 2.384
0.471 0.392 2.446
0.471 0.169 2.48
0.471 -0.056 2.487
0.471 -0.281 2.467
0.471 -0.502 2.418
0.471 -0.714 2.343
0.471 -0.916 2.243
0.471 -1.104 2.118
0.471 -1.276 1.971
0.471 -1.428 1.805
0.471 -1.558 1.62
0.471 -1.665 1.422
0.471 -1.746 1.211
0.471 -1.801 0.992
0.471 -1.829 0.768
0.471 -1.829 0.543
0.471 -1.801 0.319
0.471 -1.746 0.1
0.471 -1.665 -0.11
0.471 1.709 -0.006
0.471 1.777 0.209
0.471 1.819 0.43
0.471 1.833 0.656
0.247 1.86 0.881
0.247 1.819 1.104
0.247 1.752 1.32
0.247 1.659 1.526
0.247 1.542 1.72
0.247 1.403 1.898
0.247 1.243 2.058
0.247 1.064 2.198
0.247 0.871 2.315
0.247 0.664 2.408
0.247 0.448 2.475
0.247 0.226 2.516
0.247 -0.0 2.529
0.247 -0.226 2.516
0.247 -0.448 2.475
0.247 -0.664 2.408
0.247 -0.871 2.315
0.247 -1.064 2.198
0.247 -1.243 2.058
0.247 -1.403 1.898
0.247 -1.542 1.72
0.247 -1.659 1.526
0.247 -1.752 1.32
0.247 -1.819 1.104
0.247 -1.86 0.881
0.247 -1.874 0.656
0.247 -1.86 0.43
0.247 -1.819 0.207
0.247 -1.752 -0.009
0.247 1.752 -0.009
0.247 1.819 0.207
0.247 1.86 0.43
0.247 1.874 0.656
0.019 1.874 0.879
0.019 1.835 1.099
0.019 1.769 1.313
0.019 1.679 1.517
0.019 1.566 1.71
0.019 1.43 1.888
0.019 1.274 2.048
0.019 1.1 2.189
0.019 0.911 2.309
0.019 0.709 2.405
0.019 0.498 2.476
0.019 0.279 2.522
0.019 0.056 2.542
0.019 -0.168 2.536
0.019 -0.389 2.503
0.019 -0.605 2.444
0.019 -0.812 2.36
0.019 -1.008 2.252
0.019 -1.189 2.121
0.019 -1.354 1.97
0.019 -1.5 1.801
0.019 -1.625 1.615
0.019 -1.727 1.416
0.019 -1.805 1.207
0.019 -1.858 0.989
0.019 -1.884 0.767
0.019 -1.884 0.544
0.019 -1.858 0.322
0.019 -1.805 0.104
0.019 1.769 -0.002
0.019 1.835 0.212
0.019 1.874 0.432
0.019 1.888 0.656
-0.209 1.874 0.656
-0.209 1.86 0.881
-0.209 1.819 1.104
-0.209 1.752 1.32
-0.209 1.659 1.526
-0.209 1.542 1.72
-0.209 1.403 1.898
-0.209 1.243 2.058
-0.209 1.064 2.198
-0.209 0.871 2.315
-0.209 0.664 2.408
-0.209 0.448 2.475
-0.209 0.226 2.516
-0.209 -0.0 2.529
-0.209 -0.226 2.516
-0.209 -0.448 2.475
-0.209 -0.664 2.408
-0.209 -0.871 2.315
-0.209 -1.064 2.198
-0.209 -1.243 2.058
-0.209 -1.403 1.898
-0.209 -1.542 1.72
-0.209 -1.659 1.526
-0.209 -1.752 1.32
-0.209 -1.819 1.104
-0.209 -1.86 0.881
-0.209 -1.874 0.656
-0.209 -1.86 0.43
-0.209 -1.819 0.207
-0.209 -1.752 -0.009
-0.209 1.752 -0.009
-0.209 1.819 0.207
-0.209 1.86 0.43
-0.433 1.833 0.656
-0.433 1.819 0.881
-0.433 1.777 1.103
-0.433 1.709 1.318
-0.433 1.615 1.523
-0.433 1.496 1.714
-0.433 1.354 1.89
-0.433 1.192 2.047
-0.433 1.012 2.183
-0.433 0.817 2.296
-0.433 0.609 2.384
-0.433 0.392 2.446
-0.433 0.169 2.48
-0.433 -0.056 2.487
-0.433 -0.281 2.467
-0.433 -0.502 2.418
-0.433 -0.714 2.343
-0.433 -0.916 2.243
-0.433 -1.104 2.118
-0.433 -1.276 1.971
-0.433 -1.428 1.805
-0.433 -1.558 1.62
-0.433 -1.665 1.422
-0.433 -1.746 1.211
-0.433 -1.801 0.992
-0.433 -1.829 0.768
-0.433 -1.829 0.543
-0.433 -1.801 0.319
-0.433 -1.746 0.1
-0.433 1.709 -0.006
-0.433 1.777 0.209
[...]
CELL_DATA 1958
SCALARS cell_data_0 double
LOOKUP_TABLE default
7.3057875546e-10
9.59653125651e-10
6.16530451006e-10
4.80676430692e-10
6.46574259518e-10
4.59715548725e-10
3.56070022647e-10
5.87054145078e-10
1.87929776159e-10
3.37045266413e-10
4.13723368341e-10
1.11167082798e-10
1.19690454915e-10
1.25677193624e-10
1.02379869064e-10
1.03350762298e-10
5.83534176249e-11
7.36669745598e-11
1.43741172546e-10
1.14123089683e-10
1.25385387187e-11
3.18136169757e-11
7.60195832336e-11
6.49206486353e-11
9.02899377436e-12
8.90216227718e-12
2.30928041128e-11
5.73362065597e-12
4.54141654098e-12
1.06748294566e-11
1.10439296141e-11
8.18282035234e-12
1.10668223822e-11
2.54982120351e-13
3.14230165055e-11
6.55735312316e-11
5.88427022274e-11
6.55895014072e-11
3.6869273159e-11
9.96948276106e-11
7.18536055039e-11
6.46181095838e-12
5.8858784879e-11
7.4043246337e-11
7.63198367938e-11
3.85102919263e-11
4.99071555497e-11
9.78362587719e-11
6.94050281254e-11
7.20025638138e-12
8.87130830044e-11
9.86707255856e-11
8.25450865017e-11
6.28490374719e-11
3.96103441045e-11
1.63926448076e-10
1.20152197438e-10
6.40363504637e-11
1.18740398084e-10
1.9639548299e-10
1.75173414432e-10
3.78958804032e-11
1.56943030151e-10
2.51499597758e-10
1.18495735295e-10
1.19782670553e-10
5.2693528603e-11
3.64942680025e-10
1.94578534635e-10
1.70163754705e-10
2.13847232853e-10
2.28610321744e-10
1.03312621368e-10
7.27877506369e-11
1.40071796027e-10
1.80870256039e-10
2.17773211616e-10
1.5143507655e-10
3.16783938399e-10
3.08767487116e-10
1.8210070918e-10
1.57215527472e-11
4.0366501187e-11
1.48647315004e-10
1.91634098759e-10
1.60652263087e-10
1.59475456216e-10
1.95788643127e-10
1.92428198139e-10
3.54025863438e-11
1.08960659116e-10
1.30807406937e-10
1.40173828667e-10
2.70641350204e-11
1.85121737343e-10
1.85230060086e-10
1.60682789509e-10
9.81926703311e-11
3.96401886203e-11
1.76004367821e-10
1.85198311268e-10
1.2121615275e-10
9.82385857269e-11
1.91416039597e-10
5.57454691228e-11
8.98523296761e-12
3.05697849984e-11
1.11894382603e-10
3.88020499732e-11
5.02008110783e-11
7.71133512647e-11
5.07572779579e-11
1.32562006397e-10
3.20943005409e-11
3.13571714076e-11
1.00364130357e-10
8.4597873237e-11
4.2570992828e-11
7.83672459155e-11
1.87358387538e-10
1.37342153317e-10
7.57374681322e-11
1.28847538764e-10
1.6571526847e-10
1.33894063962e-10
4.31331347988e-11
5.91835772537e-11
1.42953773871e-10
8.60306892695e-11
3.72337937102e-11
8.91993653925e-11
1.11626212868e-10
5.00136789189e-11
6.83033698995e-11
3.91783012121e-11
9.62339864564e-11
6.69126285007e-11
6.01091769677e-11
5.51489843185e-11
1.41648162508e-10
5.25910556034e-12
2.01289312719e-11
3.36023995465e-12
4.52813414891e-11
3.93875554417e-12
7.2574792724e-12
8.39643552967e-12
1.49537178788e-11
8.89286079765e-12
1.21996555478e-11
9.68226501142e-12
1.91510514841e-11
3.21083348472e-12
2.87455900549e-11
6.32191913261e-12
5.02596774084e-11
5.60568254783e-11
1.31376245536e-11
2.27197418632e-11
2.5900438634e-11
1.50523825682e-10
1.23890730189e-10
6.22067618598e-11
8.63140963095e-11
2.53359438843e-10
2.02257586635e-11
1.33821010722e-10
2.06114872345e-10
2.73925153303e-10
4.83972419553e-10
1.82471463064e-10
1.06942949693e-09
7.06305485568e-10
5.89865544613e-10
8.48856442303e-10
9.46390988922e-10
2.24925134574e-12
9.11788304123e-12
1.66418896208e-12
1.02054553608e-11
1.27215638974e-11
1.24502063735e-11
2.36701935752e-11
8.49308415386e-12
6.21604473266e-11
2.43088370292e-11
9.12605337971e-11
6.39733853696e-12
8.07864911421e-11
2.20416938287e-11
1.28901477129e-10
4.75338291805e-11
4.14330007334e-11
4.55488958949e-11
4.73127452892e-11
4.36094472025e-11
1.41768195735e-13
2.23752868241e-12
3.94217765659e-13
8.49181961477e-12
3.1104380902e-12
9.97098029284e-12
3.60218428133e-11
4.4124536972e-11
2.089635429e-12
4.72967971184e-11
1.60954449983e-12
9.21012521967e-11
3.73257539429e-11
4.83164201655e-11
2.06801143805e-13
6.12451919555e-11
2.38944227414e-11
7.59055809932e-11
2.56219158294e-11
8.44676196892e-11
1.25810994826e-11
4.59342431655e-11
3.2701409489e-11
2.34146928295e-11
6.25074913737e-12
3.8899717405e-11
1.39261572714e-11
8.39954326126e-11
4.54773787296e-11
2.30943596762e-11
1.12458469245e-11
1.12537915231e-11
1.38210694915e-11
8.62408804202e-12
3.3564850423e-12
7.45095817788e-12
1.07610059175e-11
2.2470132399e-11
3.54987585119e-11
3.29472671418e-12
6.04198577898e-12
1.74858334564e-11
1.88929328993e-11
4.76014405426e-11
7.80724121881e-12
1.13068031643e-11
6.0618359757e-12
6.17822341846e-12
1.32604201114e-11
6.41658732343e-12
6.44323780543e-12
1.98125024391e-12
4.42826637799e-12
1.97950071722e-12
2.16891635729e-11
8.3957173813e-11
5.06907242106e-11
3.47674282788e-11
4.74888777537e-12
3.11931562907e-11
1.57014546982e-11
2.58847427942e-10
1.74844300918e-10
2.92771999523e-10
5.46359810864e-11
1.28501021636e-10
1.1451391534e-10
1.44577809424e-11
5.51710084027e-11
5.11212002169e-12
1.16559137066e-11
2.67107712752e-11
2.16976935694e-11
5.5393475489e-12
1.13703626053e-11
1.75356118451e-12
9.51034680449e-13
3.82416969096e-12
1.42064663488e-11
1.10772367688e-12
1.84578076003e-11
1.4199754529e-11
1.04464309756e-11
1.43906047765e-11
5.14402874746e-12
1.01982733831e-11
2.76376608101e-12
1.69037871602e-12
1.67576015639e-11
1.16865316352e-12
7.6264281215e-13
8.43394007736e-12
1.45943254676e-11
1.36021903181e-12
1.27296913031e-11
9.75955393014e-12
2.52171007963e-12
1.0949093543e-11
8.13247861393e-12
6.77257350108e-12
5.05277977469e-12
1.01006500927e-11
8.73459227781e-12
1.60184270195e-11
1.18292292686e-11
4.10234954893e-11
2.63720810893e-11
4.75588208396e-11
1.39911592411e-10
1.29932878251e-10
7.53257845631e-11
4.18672019208e-11
3.24814599931e-11
1.75158476354e-11
3.54807120658e-11
1.86101640634e-12
4.313511672e-12
1.33812212408e-11
1.92581032781e-12
1.94741431879e-12
4.75984452618e-12
3.62813917051e-12
7.54675520422e-12
2.00425269875e-11
3.1401396943e-11
8.82053474824e-12
7.29153133706e-12
6.26198944551e-12
1.69529114769e-12
4.79531961161e-12
1.10778347332e-11
4.24817556246e-12
1.80155730895e-12
1.05887616012e-11
2.75122480755e-11
1.19950665518e-11
2.4454806648e-12
1.2068378872e-11
7.08123209952e-12
9.50658111311e-12
6.30233488409e-12
8.9334958974e-12
2.16074271949e-12
1.03522024916e-11
4.95742990107e-12
9.48176985612e-12
2.99932349901e-12
2.53647274264e-12
3.87248491006e-12
8.52988847408e-12
1.92924815793e-12
9.67058715171e-12
8.60668726394e-12
3.5409038203e-11
3.39550253757e-13
4.18011909859e-11
1.38127615017e-10
4.62346390978e-12
1.63505510376e-11
1.2489081519e-11
7.52256021795e-12
9.27700276008e-12
1.16511082422e-11
1.04494590931e-11
1.29173686085e-11
6.83320800384e-12
3.74933388656e-12
6.34357043347e-12
6.63712480656e-12
6.91736267814e-12
1.56892764842e-11
1.24672234079e-11
8.65361731957e-12
9.73266848784e-12
1.53457723723e-11
1.44860608134e-11
3.57207538769e-12
3.27110066102e-12
7.84645076762e-12
2.44203837761e-12
3.62152581461e-12
9.79481102646e-12
1.92816727332e-11
8.6184554682e-12
1.70397227901e-12
1.96496679035e-12
1.16867246624e-11
1.24009303895e-11
1.19137743801e-12
4.15828347656e-12
5.59509367942e-12
3.21675163059e-12
8.15199808771e-12
1.59051110378e-12
2.05103220523e-13
1.89487684783e-12
2.17975174054e-12
7.39915467102e-12
1.10384682401e-12
1.15647005648e-11
1.23841131394e-11
2.07612791349e-11
1.36552173886e-11
5.63385242029e-12
1.80002787437e-11
9.452431621e-12
3.30966723414e-11
1.67452765199e-11
6.71497048146e-11
1.96120516601e-12
2.6866735673e-12
1.16873858366e-11
1.02328486922e-11
1.20838488549e-11
5.99362651085e-12
4.89091468552e-12
5.07410843441e-12
9.69576086359e-12
1.00483308049e-12
7.80849377575e-12
2.17083574755e-11
1.01327629373e-11
5.06740484241e-12
1.84502950577e-11
2.11467144732e-11
2.39641335878e-11
1.74793522141e-11
3.5496292603e-12
3.52878924959e-12
2.73744718484e-11
1.67922205908e-11
1.09666559604e-11
7.59478986871e-12
3.1220739082e-12
1.30726314388e-11
1.74025691071e-11
3.62605058318e-12
7.95939128977e-12
1.03456455549e-11
5.7386823443e-12
3.75559204696e-12
1.3757370986e-12
3.95614336275e-12
3.54896602103e-12
1.33892682457e-13
4.90389583745e-12
6.52525672397e-12
1.24899875748e-11
1.32453965211e-11
7.62526159157e-12
2.59353797608e-12
4.59073049739e-12
3.93078756139e-12
5.5020614494e-12
7.42426626852e-12
1.07574853634e-11
8.07193547787e-12
8.3105506693e-12
1.44136286342e-11
8.06028853142e-12
3.76325534827e-12
1.23523441131e-11
8.09253398475e-12
2.28150227827e-13
1.43624199774e-11
4.22220276631e-12
9.13445745076e-12
2.68148730774e-12
7.27071262504e-12
9.51933120725e-12
6.48376505853e-12
3.26861071086e-12
1.65231127638e-11
8.73468549047e-12
4.85016983681e-12
2.65125845559e-13
2.23292406532e-11
1.30569726319e-11
1.2972304134e-11
2.62631680154e-11
1.66794223769e-11
9.88558171204e-13
6.00459648232e-13
3.84519649501e-12
1.43381607406e-11
2.48714801944e-12
2.24845765899e-11
1.76877877685e-11
1.76940461969e-11
6.77479271355e-12
9.37655898641e-12
7.89343442588e-13
9.95985041779e-12
2.40261711571e-12
1.63442155128e-12
8.14405062314e-12
4.62895055449e-13
2.04746905993e-12
1.65367190313e-12
3.31732172739e-12
6.50541987729e-12
4.47622240495e-13
3.88164516293e-12
2.59219600887e-12
3.39720543319e-13
4.57650584458e-12
5.88266226836e-12
2.6691977734e-12
6.55750501444e-12
1.70980802577e-11
1.5854040644e-11
2.50339305419e-12
3.3501462163e-12
9.41576536084e-12
1.13817893638e-11
7.60168786131e-12
1.74685147812e-12
4.95009493978e-12
2.6550241681e-12
5.09568142331e-12
3.23776599969e-12
7.32790386193e-13
7.77535592639e-12
4.81629317159e-12
6.9711401653e-12
4.60953029553e-12
1.72328652015e-11
9.34732875731e-12
9.96489145867e-12
5.15460180961e-12
1.92364744738e-12
6.2042747951e-12
2.81299486073e-11
2.60636910396e-11
2.02182007886e-11
1.58794589671e-11
2.49409030379e-11
8.97016946251e-12
6.25796214327e-12
4.40980827324e-12
4.29000062404e-12
2.17118315059e-12
3.44939470298e-12
6.43808154671e-12
2.55709604158e-12
1.88755860738e-12
1.07676196071e-11
2.74822730099e-12
6.13954845814e-12
5.1882043934e-12
1.81451482083e-12
1.52912125959e-11
3.65996471569e-13
1.14732072404e-11
1.64293430418e-11
2.44732719788e-13
3.07722531581e-12
4.36186102635e-13
6.4599344891e-12
9.68968894504e-12
7.09080937414e-12
3.92136031714e-12
1.71830897192e-12
2.65329998043e-12
3.48082848681e-12
1.09070222878e-12
1.41490977484e-11
1.04229941272e-11
6.26591929976e-12
1.07704738789e-11
1.07516975841e-11
7.60065219066e-14
4.92296748437e-12
1.99301129541e-12
1.04173563733e-12
2.00832459627e-12
3.60528764958e-13
4.73454287181e-13
4.39839147995e-12
1.12831963108e-12
1.09889360063e-12
6.86495951438e-13
1.7037425599e-12
1.09921835142e-12
5.77553505121e-12
1.55227728687e-12
7.49272728024e-12
1.4786962629e-12
2.0557380387e-12
2.58834644099e-12
1.72024254864e-11
1.72443661701e-12
1.41338245539e-11
2.23800014842e-11
1.57244680813e-13
3.67669815279e-13
1.22345792549e-11
2.09857592421e-13
1.1473960576e-12
1.17982588563e-11
2.19806104921e-11
4.05970496994e-12
1.7975843959e-11
8.68603484274e-12
2.40467347395e-11
8.6039292973e-12
2.19259892493e-11
7.47616162912e-12
1.93690610497e-11
2.04350147237e-12
1.71323491759e-11
1.4707463833e-11
9.55912442741e-12
1.10976420409e-11
1.12698575137e-11
5.17772075491e-12
8.64650752349e-12
5.6317186356e-12
4.17877800994e-12
7.66868881239e-12
2.91135469489e-12
6.08008262087e-13
1.33383745544e-12
4.39766523009e-12
8.14725450051e-13
4.49863929306e-12
8.64266622742e-13
6.93807440997e-12
1.22802873847e-11
3.82853988414e-12
6.37036386378e-12
5.21813833747e-12
2.10266199458e-12
6.67638491582e-12
2.27567993351e-14
1.47582209655e-13
1.49075522163e-12
3.75313255594e-12
2.05653632054e-12
1.44984010091e-12
1.76328524627e-12
1.88621519427e-14
2.2442574548e-14
5.55917922647e-14
2.54831068364e-12
3.89108828975e-12
5.25054565204e-13
7.80437101453e-13
4.49678822418e-13
3.31396912212e-13
1.85947449898e-12
8.3151969499e-12
1.38661276187e-11
4.34497597636e-12
8.3436509649e-12
8.81772767603e-12
2.01388486221e-11
1.9594047494e-12
1.72194190125e-11
5.4687445358e-12
1.51857694244e-12
1.49274349253e-11
1.14797813084e-13
1.58986104568e-12
1.29526480677e-11
9.11629485942e-12
1.35714463859e-11
4.64938806221e-12
1.49569652579e-11
5.37491508049e-12
1.69303943303e-11
2.03347747647e-11
3.7440703742e-12
1.46871961242e-11
2.3004850875e-11
4.92620792989e-11
3.3603300579e-11
4.69261872948e-13
2.31069832733e-11
4.28440315541e-11
4.68184774808e-12
3.54422128334e-12
1.57916108653e-12
9.47692766563e-13
1.60868227298e-13
6.13985976341e-13
1.31953042403e-12
6.68174854257e-13
1.51245699024e-13
4.10145031773e-12
1.18635512189e-13
4.85338534099e-12
1.42196024513e-12
1.00656786109e-11
1.01287050014e-11
5.63967903521e-14
8.04169218525e-12
1.1747465361e-12
1.89526164436e-12
2.42889899047e-12
2.56584621967e-12
4.93615356021e-13
1.4075568253e-12
9.50679446541e-15
9.04942752442e-14
6.65283208196e-13
5.58735840249e-14
1.26282831149e-11
1.34335248016e-11
3.18997967622e-11
1.34916555089e-11
6.12389363673e-13
8.88288591886e-13
1.80192408214e-12
1.10342971603e-12
4.6486183491e-12
2.76447331221e-12
1.61392324907e-13
4.942390438e-12
2.36963254271e-12
3.96071313476e-12
1.18770428848e-12
5.65321657228e-12
8.2489167094e-13
2.89891369e-12
4.97215097135e-12
1.03784337199e-12
3.54870135488e-12
1.12393991907e-11
7.54086728927e-12
1.6391532736e-11
4.24345284712e-13
1.0061200684e-11
5.34027408237e-12
2.00496292683e-11
2.54022565216e-12
2.44820216205e-11
2.18777567786e-11
5.80741635433e-14
2.68419574849e-12
3.79210268034e-11
2.00554917586e-11
1.13785167599e-12
1.4217632493e-11
3.25854693739e-11
3.50859852643e-12
2.11336786306e-11
2.32249478572e-11
6.76162855749e-12
1.06734271236e-11
2.56857909001e-12
2.80100471961e-14
4.92931628247e-12
1.04282772275e-12
1.08379279435e-12
5.59901128782e-12
1.93236057569e-12
1.55007712427e-13
5.96280096889e-12
1.14712069913e-11
5.72369755991e-12
1.35781005271e-12
6.63793308655e-13
1.80729328263e-12
2.14227524678e-12
1.45768001526e-12
1.80508196304e-13
9.1689167503e-13
5.79192489426e-13
7.2115785743e-13
1.06857217082e-12
4.45416990991e-12
1.47320246326e-11
1.46470952584e-11
3.46873629157e-11
3.73775191732e-12
5.26223800067e-12
5.60550173964e-14
2.89294736237e-13
2.52731353536e-12
3.9099861442e-13
3.51586517429e-12
1.13179401057e-12
9.30795956389e-13
1.43026761989e-12
1.98630226788e-13
3.46528197936e-12
2.29300324492e-12
3.51604613081e-12
9.80833528537e-13
3.0925845338e-12
7.07109449035e-13
3.19655073299e-12
1.39881896985e-12
2.19282218404e-12
4.06666846597e-12
1.05463336169e-11
1.3640409891e-11
8.04504853012e-12
3.76830488224e-13
3.67258571289e-12
7.1801704174e-12
3.03025886009e-12
4.98647339543e-12
3.24017861265e-11
2.2927966318e-11
9.91618675623e-12
1.30249393694e-11
2.96461578436e-11
6.50413035459e-12
9.09278446233e-12
2.22457917904e-11
1.90894125004e-11
9.88583575769e-12
1.93169781975e-12
1.49826415855e-11
4.8492194539e-12
9.86415062973e-12
1.269937531e-12
6.68962188529e-12
3.7790272558e-13
2.51158381618e-12
4.31524854771e-12
9.56518939116e-13
1.24010566039e-12
1.96817775248e-12
6.37947428673e-13
4.61667135818e-12
3.21599686892e-12
1.34383766553e-12
2.50599337611e-12
8.015201964e-13
8.18016833709e-14
1.08681327878e-12
6.0281385727e-14
1.02219369027e-12
5.6649808206e-12
1.4539389693e-11
1.93101095558e-11
1.62310987266e-11
2.87207203256e-11
7.79615591534e-12
7.63960790564e-12
5.46015240546e-12
2.85154553279e-12
7.19507540247e-13
1.04445683623e-12
2.64407161575e-13
1.33950186498e-15
5.57733967638e-13
2.22199657304e-13
2.02599070755e-12
7.55693513532e-13
4.45566471716e-12
6.75374908297e-14
5.39133544018e-12
1.21290310844e-12
2.30434255811e-12
3.45135272094e-12
1.25796062119e-11
2.80082825816e-12
1.22183329222e-11
3.77931414065e-12
1.37573611158e-11
6.68700569346e-12
9.2609609111e-12
3.41979963995e-12
6.82075905069e-12
7.58390719169e-13
1.42722777651e-11
1.36528824878e-11
6.0500288671e-12
1.73567851859e-11
1.95130370755e-11
8.98731932303e-12
2.43598761905e-12
1.81281728493e-11
9.76969741128e-12
1.4273788422e-11
7.48857857176e-12
1.27733549478e-11
4.11064656704e-12
6.40435928539e-12
3.53697716492e-12
6.44618814825e-12
1.01546003176e-12
4.22555610523e-13
2.64276910188e-12
6.1262743086e-12
6.5541016048e-12
4.59719060179e-12
3.09415717354e-12
2.6505511578e-12
1.32671239746e-12
6.76633771782e-13
2.91318629006e-13
1.79470404573e-13
3.38839582841e-12
5.15930368611e-13
1.57446523025e-12
6.81746962757e-12
1.05108051628e-11
6.86073032308e-12
1.883081939e-11
6.16149770402e-12
2.73623979672e-13
4.66177653138e-13
7.72759173573e-13
2.53358392412e-12
1.01447956764e-12
2.03503842474e-12
1.30227369209e-13
3.25230417548e-13
2.49745748864e-12
8.01040032902e-14
1.62149952905e-12
6.14758787639e-12
2.17807835584e-13
9.05649959218e-13
1.04957710865e-12
1.10132909754e-11
4.30088224806e-14
1.92211949095e-11
1.13098336879e-12
2.32700620134e-11
3.83101056057e-12
2.24785428037e-11
3.09719001045e-12
1.76155577806e-11
2.49381782336e-12
5.69308417847e-12
9.56994949251e-12
3.85576868423e-12
8.92527875307e-13
9.87430115758e-12
7.33829027946e-12
9.11390879893e-12
9.57117994937e-12
8.91460717781e-12
1.2862952299e-11
7.91383981573e-12
1.59825620255e-12
2.60160026459e-12
3.09593140785e-12
6.11271876181e-14
1.61034553064e-12
6.01202248019e-13
1.51534835555e-12
9.9424964778e-13
1.61651861563e-12
1.48112217591e-12
1.14470908538e-11
8.04861175661e-12
2.70403139346e-12
1.81254584998e-12
5.03111512787e-13
1.20511353087e-12
6.29193581642e-14
2.63363769532e-12
8.91924191689e-13
1.45796411577e-12
1.42599300683e-11
3.72942090818e-11
4.27557328254e-11
5.90306481995e-11
1.9139691778e-12
1.7779656515e-11
5.72729925103e-12
3.32048620661e-13
3.26780986456e-12
1.64931902252e-12
9.84384680519e-13
5.2918579929e-13
3.59815483998e-13
1.76189123814e-12
1.38282003986e-12
5.32450992374e-12
2.07567882337e-12
3.0999381211e-12
6.38508723142e-12
4.66132053116e-12
6.32364152662e-13
2.31961021812e-11
1.96758020687e-12
1.9130554266e-11
5.95902471559e-14
2.04210181041e-11
4.68362485186e-12
1.93327046003e-11
2.42162840328e-12
2.12308576518e-12
1.09357458673e-11
8.81071473276e-12
9.73340339181e-12
7.52244076534e-12
1.30562997055e-12
2.33932586268e-12
1.57048735577e-11
4.5031700486e-12
8.58005501587e-13
8.97760932449e-12
6.67156186454e-14
3.90260094937e-12
3.33198831619e-12
1.2098052487e-12
1.66266192247e-13
1.39373470579e-12
5.76679658971e-13
4.27094571838e-13
3.22598139561e-12
1.51170424451e-12
9.60660938024e-13
1.78857574883e-12
1.58165916477e-13
1.59767746822e-12
3.28437832898e-12
1.09638139387e-11
1.06954842383e-11
4.57158592891e-12
7.42370447532e-12
1.62842165661e-11
1.2280243033e-11
5.08611878344e-11
2.01852816325e-11
6.19912409257e-12
9.45579373461e-12
3.34890852298e-12
1.01673204514e-12
1.5814654929e-13
1.13043318324e-12
3.05927653044e-13
7.42734470297e-13
2.90824746291e-13
5.69839054932e-13
2.23563929893e-12
2.85007336745e-12
1.5405253809e-12
9.86316105781e-12
2.68889774744e-12
6.40800220729e-12
6.13412072128e-12
2.53433290931e-12
1.41151074027e-12
1.06906046155e-11
1.25736137789e-11
1.79687345136e-11
1.25846861422e-11
5.14930981165e-12
1.34445637099e-12
4.59688618384e-12
2.84218403539e-12
8.2429722603e-13
2.3542906689e-12
1.45051007457e-11
1.70625860548e-12
6.44252957964e-12
1.72019316793e-11
1.35264752554e-11
9.41036742859e-13
9.46915134466e-14
4.9737639794e-13
6.95519028965e-12
5.06295850137e-12
2.26692451509e-12
9.98380504469e-13
1.01103871881e-12
7.72982892315e-14
1.70407628484e-12
3.85239044439e-12
8.83126893891e-12
1.1739044775e-11
1.85784179396e-11
2.19674943085e-12
4.44957467464e-12
2.21739226711e-11
3.28096152211e-11
2.44739329632e-11
3.13330577932e-11
1.33117054182e-11
6.93009144615e-12
1.19329310864e-11
2.98367067042e-12
3.4412342452e-12
1.78846806633e-12
1.7721201074e-13
4.74646353811e-13
3.59692396814e-12
1.45647008778e-12
3.93307207455e-12
7.74078539076e-12
5.57984026497e-12
1.37234001621e-12
6.24455126607e-12
9.34882015865e-12
1.27272384874e-11
1.3776272316e-12
1.24097739063e-11
4.8307875812e-12
7.10509409692e-13
6.92259131155e-12
6.36019658607e-13
2.18089522952e-12
4.51626465571e-12
1.21231577831e-12
2.11617086851e-12
8.71382396898e-12
8.59912316396e-13
1.10043697161e-12
4.61642924442e-12
1.74464917008e-11
6.31662805978e-12
2.86502891056e-12
2.30788455432e-12
2.83913437087e-12
1.2550120497e-12
1.68652163708e-12
4.559863679e-13
2.06709517672e-12