# vtk DataFile Version 3.0
File Name: Molecule/arg/arg_5.0-1.vtk
ASCII
DATASET UNSTRUCTURED_GRID
FIELD FieldData 1
TIME 1 1 double
0.0
POINTS 896 double
-3.403 0.327 1.604
-3.45 0.103 1.078
-3.138 0.005 1.702
-3.183 -0.208 1.2
-2.981 -0.361 1.858
-3.028 -0.584 1.332
-3.298 -0.003 0.536
-3.038 -0.309 0.683
-2.876 -0.691 0.79
-2.971 0.024 0.066
-2.725 -0.284 0.235
-2.549 -0.664 0.32
-2.984 0.046 0.042
-2.617 -0.045 -0.207
-2.63 -0.024 -0.229
-2.351 -0.22 -0.527
-2.365 -0.198 -0.55
-2.2 -0.483 -0.862
-2.216 -0.458 -0.889
-3.25 0.578 -0.258
-2.686 0.062 -0.328
-2.904 0.498 -0.574
-2.48 -0.047 -0.742
-2.684 0.361 -0.973
-2.39 -0.269 -1.153
-2.617 0.185 -1.409
-3.173 1.207 -0.458
-2.84 1.014 -0.738
-2.625 0.846 -1.127
-2.55 0.723 -1.58
-2.776 1.74 -0.497
-2.515 1.451 -0.77
-2.319 1.256 -1.157
-2.211 1.177 -1.613
-2.622 1.932 -0.429
-2.434 1.563 -0.734
-2.291 1.743 -0.67
-2.16 1.459 -1.077
-2.01 1.647 -1.011
-1.982 1.439 -1.492
-1.81 1.654 -1.416
-2.666 2.281 -0.134
-2.046 2.135 -0.548
-2.085 2.448 -0.283
-2.622 2.533 0.247
-2.045 2.674 0.059
-1.659 2.787 -0.585
-1.614 3.039 -0.203
-2.495 2.657 0.67
-1.932 2.785 0.438
-1.488 3.163 0.22
-2.925 2.572 1.071
-2.251 2.77 1.005
-2.634 2.694 1.361
-2.033 3.002 1.293
-2.411 2.928 1.645
-1.863 3.333 1.507
-2.279 3.251 1.894
-3.186 2.284 1.521
-2.865 2.437 1.761
-2.64 2.674 2.039
-2.53 2.972 2.328
-3.419 1.801 1.788
-2.888 2.359 1.917
-3.122 1.876 2.185
-2.717 2.558 2.345
-2.979 2.017 2.644
-3.567 1.179 1.827
-3.202 1.735 2.161
-3.333 1.184 2.196
-3.094 1.732 2.585
-3.223 1.188 2.619
-3.107 1.793 3.017
-3.25 1.192 3.055
-3.408 0.559 1.798
-3.191 0.635 2.17
-3.084 0.647 2.593
-3.095 0.593 3.027
-3.105 0.348 2.085
-3.1 0.088 1.867
-2.97 0.105 2.152
-3.02 0.504 2.546
-2.901 0.29 2.606
-2.978 0.383 3.085
-2.865 -0.346 2.113
-2.52 -0.7 2.425
-2.789 -0.06 2.411
-2.48 -0.378 2.69
-2.828 0.19 2.745
-2.523 -0.123 3.02
-2.645 0.041 3.387
-2.46 -1.117 2.184
-2.148 -0.9 2.844
-2.09 -1.3 2.613
-2.003 -1.142 3.367
-1.937 -1.6 3.103
-2.268 -1.45 1.888
-1.906 -1.62 2.328
-1.726 -1.965 2.777
-1.967 -1.659 1.57
-1.617 -1.821 2.023
-1.396 -2.195 2.428
-1.592 -1.721 1.268
-1.257 -1.88 1.733
-0.984 -2.263 2.097
-2.026 -1.588 0.931
-1.351 -1.766 0.91
-1.757 -1.641 0.594
-1.133 -1.941 0.578
-1.555 -1.812 0.25
-0.96 -2.23 0.303
-1.437 -2.084 -0.068
-2.342 -1.257 0.596
-2.053 -1.332 0.28
-1.861 -1.491 -0.075
-1.784 -1.721 -0.435
-2.487 -0.785 0.321
-2.189 -0.889 0.022
-2.002 -1.032 -0.342
-1.943 -1.202 -0.738
-2.264 -0.668 -0.026
-2.322 -0.554 -0.027
-2.141 -0.611 -0.433
-2.203 -0.492 -0.433
-2.131 -0.618 -0.861
-2.114 -0.682 -1.181
-1.927 -1.264 -1.052
-2.312 -0.441 -1.376
-2.121 -0.506 -1.916
-2.042 -0.816 -1.214
-1.838 -0.886 -1.79
-1.682 -1.348 -1.746
-1.975 -0.256 -2.322
-1.864 -0.768 -1.888
-1.897 0.192 -2.527
-1.672 -0.441 -2.421
-1.57 0.147 -2.691
-1.996 0.646 -2.441
-1.495 0.306 -2.776
-1.602 0.798 -2.682
-1.198 0.386 -3.152
-1.328 0.981 -3.039
-2.011 1.039 -2.18
-1.619 1.224 -2.399
-1.348 1.496 -2.696
-1.72 1.257 -2.235
-1.479 1.817 -1.75
-1.107 2.057 -2.211
-1.346 2.153 -1.415
-1.642 2.007 -1.116
-1.319 2.584 -1.178
-1.615 2.438 -0.879
-0.816 3.013 -1.267
-1.111 2.259 -1.642
-0.623 2.675 -1.729
-0.543 2.537 -2.312
0.466 3.148 -0.891
-0.416 2.926 -1.599
0.331 3.005 -1.38
-0.131 2.956 -2.042
0.328 3.005 -1.907
-0.002 3.1 -2.533
0.456 3.148 -2.398
-0.048 3.337 -3.001
0.833 2.913 -0.61
0.619 2.806 -1.364
0.976 2.577 -1.092
0.892 2.689 -1.891
1.303 2.425 -1.576
1.057 2.557 -0.305
1.192 2.232 -0.796
1.553 2.026 -1.234
0.979 2.767 0.195
1.24 2.204 -0.113
1.167 2.404 0.362
1.539 1.918 0.039
1.462 2.128 0.539
0.737 2.845 0.68
0.936 2.478 0.823
1.22 2.206 1.024
0.406 3.093 0.833
0.71 2.572 1.142
0.419 2.789 1.277
0.841 2.425 1.643
0.539 2.651 1.783
1.112 2.426 2.108
0.748 2.699 2.276
0.011 3.456 0.651
0.142 3.058 1.218
-0.201 3.373 1.06
-0.01 3.117 1.656
-0.348 3.428 1.5
-0.034 3.266 2.099
-0.415 3.616 1.924
-0.504 3.599 0.465
-0.648 3.497 0.898
-0.789 3.55 1.341
-0.913 3.754 1.744
-1.038 3.495 0.311
-1.112 3.406 0.765
-1.247 3.461 1.209
-1.429 3.653 1.595
-1.502 3.118 0.685
-1.632 3.177 1.131
-0.05 3.403 2.531
0.304 2.919 2.221
0.288 3.057 2.654
0.729 2.855 2.766
-0.175 3.437 2.964
0.162 3.091 3.09
0.587 2.894 3.259
-0.395 3.364 3.353
-0.059 3.019 3.48
0.337 2.812 3.701
-0.687 3.194 3.654
-0.352 2.847 3.783
0.006 2.617 4.044
-1.13 3.18 3.766
-0.58 2.815 3.881
-1.094 2.799 4.011
-1.584 3.151 3.721
-1.62 2.766 3.959
-1.995 3.111 3.523
-2.096 2.719 3.73
-2.312 3.063 3.198
-2.464 2.664 3.352
-2.498 3.015 2.783
-2.679 2.608 2.871
-0.832 2.373 4.277
-0.242 2.183 4.431
-1.061 1.806 4.483
-0.466 1.628 4.634
-1.364 2.231 4.354
-1.452 1.611 4.604
-1.713 1.977 4.492
-1.735 2.528 4.103
-2.033 2.233 4.276
-2.128 2.66 3.763
-2.373 2.347 3.982
-2.496 2.611 3.374
-2.69 2.305 3.646
-2.791 2.388 2.985
-2.945 2.113 3.311
-1.464 1.095 4.666
-0.956 1.592 4.533
-0.968 1.074 4.596
-0.48 1.041 4.705
-1.655 0.731 4.634
-1.079 0.886 4.596
-1.26 0.541 4.565
-0.689 0.687 4.666
-0.881 0.322 4.633
-0.333 0.517 4.869
-0.555 0.096 4.831
-2.027 0.463 4.516
-1.383 0.368 4.531
-1.728 0.119 4.423
-1.114 -0.009 4.584
-1.476 -0.27 4.469
-0.878 -0.357 4.785
-1.3 -0.661 4.651
-2.342 0.241 4.242
-2.019 -0.087 4.169
-1.783 -0.487 4.202
-1.658 -0.914 4.34
-2.557 0.093 3.848
-2.219 -0.224 3.803
-1.993 -0.631 3.818
-1.903 -1.082 3.892
-2.301 -0.273 3.375
-2.078 -0.682 3.368
-0.557 -0.612 4.999
-0.228 -0.165 5.05
-0.202 -0.89 5.102
0.134 -0.447 5.155
0.164 -1.171 5.088
0.507 -0.734 5.141
0.37 -1.612 4.973
0.615 -0.976 5.092
0.811 -1.395 4.983
1.043 -0.806 5.264
1.249 -1.247 5.15
0.578 -1.993 4.725
1.008 -1.757 4.747
1.457 -1.629 4.901
0.77 -2.282 4.364
1.191 -2.031 4.405
1.649 -1.918 4.541
0.93 -2.454 3.923
1.343 -2.194 3.985
1.809 -2.089 4.099
1.044 -2.494 3.437
1.451 -2.232 3.524
1.923 -2.129 3.613
1.103 -2.399 2.949
1.506 -2.141 3.061
1.981 -2.034 3.126
1.1 -2.176 2.501
1.504 -1.93 2.635
1.979 -1.811 2.678
1.037 -1.846 2.131
1.444 -1.616 2.284
1.916 -1.481 2.307
0.647 -2.269 2.118
0.836 -1.714 1.711
0.512 -2.064 1.7
0.77 -1.662 1.233
0.47 -1.987 1.224
0.848 -1.697 0.757
0.525 -2.047 0.746
1.061 -1.813 0.337
0.67 -2.236 0.324
0.119 -2.499 2.107
0.075 -2.255 1.691
0.064 -2.164 1.215
0.088 -2.237 0.737
0.142 -2.466 0.313
-0.457 -2.497 2.099
-0.401 -2.253 1.685
-0.378 -2.162 1.209
-0.389 -2.235 0.73
-0.434 -2.464 0.306
-0.837 -2.059 1.682
-0.782 -1.983 1.207
-0.825 -2.042 0.728
1.48 -1.078 0.031
1.032 -1.487 0.709
1.333 -0.958 0.489
1.12 -1.273 1.146
1.358 -0.854 0.972
1.315 -1.197 1.595
1.553 -0.779 1.421
1.592 -1.27 1.999
1.893 -0.741 1.779
2.335 -0.746 2.002
1.639 -0.712 -0.547
1.476 -0.549 0.311
1.615 -0.229 -0.195
1.697 -0.118 0.66
1.842 0.216 0.134
1.696 -1.15 -0.796
1.805 -0.426 -1.067
1.856 -0.818 -1.29
2.201 -0.141 -1.444
2.256 -0.562 -1.683
1.615 -1.54 -1.111
1.784 -1.167 -1.572
2.179 -0.936 -1.985
1.405 -1.841 -1.462
1.595 -1.437 -1.886
1.977 -1.225 -2.321
1.085 -2.024 -1.812
1.309 -1.6 -2.199
1.67 -1.4 -2.657
0.689 -2.07 -2.126
0.955 -1.641 -2.48
1.29 -1.444 -2.958
0.256 -1.974 -2.373
0.567 -1.556 -2.702
0.875 -1.352 -3.195
-0.171 -1.746 -2.529
0.186 -1.352 -2.841
0.466 -1.134 -3.344
-0.336 -0.591 -3.197
-0.669 -0.831 -2.739
-0.616 -0.466 -3.125
-1.322 -0.31 -2.728
-0.95 -0.071 -3.189
0.104 -0.811 -3.39
-0.311 -0.212 -3.619
0.128 -0.454 -3.788
-0.16 0.24 -3.931
0.27 -0.03 -4.081
0.101 0.716 -4.098
0.516 0.418 -4.238
-0.411 1.252 -3.909
0.377 1.347 -4.4
-0.398 1.946 -3.588
0.11 1.626 -4.301
-0.712 2.237 -2.975
-0.106 2.463 -3.53
-0.314 2.656 -3.124
0.028 3.029 -3.665
-0.135 3.18 -3.347
-0.202 2.855 -2.684
0.173 2.486 -3.833
0.9 3.106 -3.671
0.85 2.546 -3.838
0.117 1.987 -4.134
1.267 2.733 -3.406
0.819 3.383 -2.845
1.204 2.948 -2.765
1.749 2.404 -3.353
0.902 2.914 -2.485
0.699 3.415 -2.782
0.749 2.956 -2.405
1.123 2.627 -2.01
1.688 2.19 -1.733
1.668 2.681 -2.526
2.133 1.624 -1.992
1.962 2.454 -2.382
2.141 1.301 -1.585
2.428 1.273 -2.257
2.435 0.969 -1.874
2.042 0.907 -1.262
2.342 0.599 -1.57
1.911 1.516 -1.257
1.884 0.909 -0.851
1.768 1.444 -0.847
1.861 0.913 -0.411
1.75 1.425 -0.407
1.976 0.918 0.014
1.858 1.462 0.018
1.454 1.892 -0.826
1.449 1.855 -0.388
1.867 0.812 -0.4
1.753 0.215 -0.299
1.896 0.717 -0.83
1.788 0.151 -0.734
2.06 0.644 -1.234
1.942 0.027 -1.129
2.566 1.229 -2.871
2.241 1.687 -2.422
2.339 1.656 -2.857
2.194 2.159 -2.516
2.341 1.264 -3.459
2.179 1.681 -3.275
2.27 2.135 -2.856
1.83 1.363 -3.817
1.817 1.751 -3.528
2.146 2.154 -3.181
1.863 2.209 -3.379
1.605 0.935 -4.222
1.413 1.57 -3.947
1.254 1.267 -4.234
1.103 1.869 -4.167
0.979 1.632 -4.39
1.11 0.579 -4.381
0.902 1.014 -4.346
0.482 0.901 -4.245
0.705 1.435 -4.478
0.989 2.064 -4.14
1.404 2.01 -3.684
1.315 2.161 -3.664
2.007 0.383 0.735
1.733 -0.159 1.085
2.004 0.279 1.15
1.861 -0.287 1.473
2.124 0.139 1.536
2.068 -0.489 1.788
2.355 -0.024 1.857
2.675 -0.196 2.083
2.074 0.941 0.928
2.063 0.767 1.319
2.181 0.613 1.7
2.417 0.492 2.036
2.749 0.417 2.295
1.884 1.434 1.198
1.897 1.199 1.555
2.02 1.032 1.93
2.241 0.95 2.287
2.541 0.959 2.592
1.624 1.884 1.117
1.755 1.469 1.75
1.503 1.904 1.671
1.842 1.579 2.299
1.557 2.073 2.21
1.11 2.216 1.58
1.886 1.845 2.759
2.132 1.224 2.493
2.174 1.477 2.929
2.585 1.225 3.051
1.814 2.002 3.263
2.105 1.625 3.407
2.513 1.382 3.555
1.633 2.033 3.763
1.933 1.655 3.881
2.331 1.413 4.055
1.359 1.937 4.21
1.674 1.563 4.305
2.058 1.316 4.502
1.021 1.721 4.561
1.354 1.359 4.638
1.72 1.101 4.853
0.651 1.408 4.781
1.002 1.062 4.847
1.35 0.788 5.074
0.073 1.245 4.841
0.82 0.891 4.947
0.23 0.725 5.008
0.672 0.387 5.179
1.205 0.294 5.301
0.564 -0.173 5.245
1.099 -0.256 5.367
-1.834 2.927 0.971
1.396 -0.602 0.696
1.678 -0.195 -0.741
-0.988 -0.705 -2.664
-0.822 -1.287 -2.506
-2.913 1.955 -0.341
-3.327 1.641 -0.268
-3.327 2.032 -0.008
-2.913 2.297 -0.026
-3.327 2.292 0.383
-2.913 2.519 0.384
-3.327 2.384 0.843
-3.656 1.544 0.048
-3.656 1.916 0.37
-3.656 2.055 0.843
-3.656 1.916 1.316
-3.867 1.641 0.843
-3.867 1.411 1.241
-3.656 0.342 1.089
-3.656 0.609 1.504
-3.867 0.951 1.241
-3.867 0.721 0.843
-3.656 0.342 0.597
-3.867 0.951 0.445
-3.656 0.609 0.182
[...]
CELL_DATA 1788
SCALARS cell_data_0 double
LOOKUP_TABLE default
5.66217058034e-08
9.82716373147e-08
3.32058882544e-08
1.130756215e-08
8.58482209554e-07
7.99558693913e-07
5.2020662514e-08
2.78231298116e-08
7.60482736744e-07
9.85254237974e-07
1.06646747896e-06
1.10705926545e-06
2.03095177301e-09
3.02857502727e-09
1.14341919447e-08
1.29066731199e-08
1.32371111731e-08
1.88783454247e-09
2.77291284536e-07
3.09694206693e-07
3.35678283122e-07
1.61401053349e-07
9.90565016588e-08
1.18279460839e-07
2.0458492664e-07
1.65666810796e-07
1.49303380753e-07
1.52526991454e-07
1.82661864702e-07
2.24429947382e-07
1.24073920286e-07
8.20044653167e-08
1.56935432968e-07
1.53342995339e-07
1.76182754055e-07
1.4918571441e-07
2.18742049663e-08
1.83492855148e-08
1.50506871122e-08
3.76832706341e-08
4.67140983479e-08
2.00499667138e-08
1.70065626002e-07
7.1234874823e-08
4.73456730887e-09
2.07892605848e-07
4.07925297868e-07
1.55409036334e-07
2.06848818729e-07
4.53207132498e-07
1.70773519128e-07
1.78356055531e-07
1.96637086994e-07
1.29773923416e-06
1.05789370293e-06
9.05148144523e-07
2.47534277895e-07
3.31477826096e-08
2.96340721398e-08
2.36790022463e-08
3.70650432168e-08
1.10183058032e-07
1.99557027802e-07
9.57069621618e-08
1.21830601283e-07
8.57779597034e-08
1.84827240956e-08
3.55090774864e-08
1.53547033893e-09
3.20275919093e-09
6.0011855708e-09
2.30915977305e-08
1.58901814301e-08
2.47806657506e-08
2.80570811961e-08
8.5994692116e-09
9.75556427253e-09
6.28961158924e-10
4.03243956385e-08
5.277167227e-09
1.4060757158e-09
8.83656617891e-09
1.47597138796e-08
2.19963032234e-08
2.2861331838e-08
2.13592356111e-08
8.95358964241e-09
3.02309202576e-08
1.5542437694e-08
1.3121819682e-08
1.74875875211e-08
1.80299775677e-08
1.48937851797e-08
7.78276179995e-09
9.77748058345e-09
4.74366499152e-08
5.03019291379e-08
1.07358368394e-08
1.58324705184e-08
1.18861307552e-08
7.89263400532e-09
5.62320165597e-09
3.2132627174e-09
1.60716010335e-09
1.623909294e-09
6.15567003237e-08
5.74914548473e-08
1.9745009823e-09
4.36378404688e-08
4.10467689888e-08
4.52577014747e-09
4.29615992442e-10
8.81273266875e-10
2.77405351372e-08
3.87274821273e-08
1.6439153217e-08
7.23839782979e-09
3.80193120879e-09
7.67057534535e-10
8.20259893347e-09
1.24992478832e-08
4.10048905843e-08
3.86087462408e-08
1.01154167889e-08
9.50876485134e-09
1.34169219463e-09
1.3547254798e-09
7.89491940532e-09
4.3419769208e-10
1.63057919406e-09
1.33186165845e-09
8.07775444105e-09
6.96911951186e-09
3.98095596546e-08
4.66667020609e-08
2.02986426635e-08
1.7684346336e-08
4.07881860542e-07
3.63175622277e-07
3.99214641328e-08
8.91055145157e-08
2.28895692733e-07
4.18626187389e-08
1.07947670219e-08
5.76625342406e-08
1.50730771814e-09
5.16426615302e-08
6.21435942425e-08
6.45862820741e-08
6.98657613882e-08
2.24665319606e-09
1.61793866544e-08
1.01666839012e-07
5.55384836352e-08
3.28667647601e-08
1.88947665949e-08
9.80219732516e-09
3.27630891714e-09
6.92034620389e-09
1.93243504838e-08
1.26835328847e-08
1.26996579326e-08
8.75387706895e-09
3.03197500281e-08
1.29134781702e-08
1.51079160548e-09
9.6605347567e-10
1.35408622012e-09
1.03756283643e-09
4.10424789626e-09
5.55307947235e-09
3.66256902528e-09
2.27690413678e-09
5.4043820302e-09
7.57235818963e-09
5.36421519217e-09
5.459042089e-09
3.49054050985e-09
9.29756368369e-09
6.71859318044e-09
6.10974331913e-09
7.87204270445e-09
4.41963644112e-09
5.48452518526e-09
8.83210340253e-09
5.9691268388e-09
9.27475875356e-09
6.10232435241e-09
2.3611113012e-09
2.61676699997e-09
1.42945246688e-09
4.65546103147e-09
8.7077627164e-09
7.6389220876e-10
1.89370503605e-09
2.5720730995e-09
3.84619107865e-09
4.64543231078e-09
5.79531040888e-09
5.11837963172e-09
5.41940895127e-09
4.23631710396e-09
2.83787968371e-09
2.96290296625e-09
4.68811098526e-09
5.63476629242e-09
4.62224981733e-09
3.79087047334e-09
3.39555955338e-09
3.66168966812e-09
1.66048063515e-09
6.67605924287e-08
5.48135746493e-08
2.98523146646e-09
3.20001204018e-09
1.40040014188e-09
7.27662685397e-08
6.7781300832e-09
3.14274146542e-09
5.0349189779e-09
5.03627408906e-09
5.77736662354e-09
1.06049721985e-08
7.40934106361e-09
1.84833593783e-08
2.21775068023e-08
3.82101188413e-08
3.52041170471e-08
2.79938169152e-08
3.7648845463e-08
2.45108421139e-08
1.51984438783e-08
8.79042637823e-10
2.67767451248e-09
9.92517681824e-11
2.69590589782e-09
7.03864112619e-10
1.61477680463e-09
8.94868517524e-10
1.86852301231e-09
3.14781042219e-09
2.69023226081e-09
8.62847783396e-10
4.85536072485e-08
7.14842881845e-08
6.32748979735e-09
9.28246696797e-09
7.00860540361e-09
1.29803284719e-08
1.61729540336e-08
1.67410504136e-08
1.59409974125e-08
1.77654647966e-08
3.34066783442e-08
4.87234088691e-08
5.57257282967e-08
3.66406977804e-08
3.5938795654e-08
1.95947403067e-08
2.80460551627e-08
2.06679985591e-08
8.00872607066e-09
1.38832490224e-08
1.1736228281e-08
1.71431363293e-08
6.08246789217e-09
2.98177143235e-09
1.24584961659e-10
1.49926041263e-10
3.51860716581e-11
3.40212792244e-09
1.92040768148e-10
2.79273298565e-09
3.0753592935e-09
1.29418926233e-09
1.91019765939e-09
1.58505918698e-08
5.57798960646e-09
2.94864591984e-08
2.3126501489e-08
3.7203606367e-08
2.33809449684e-08
5.0634357575e-08
4.75716107733e-08
3.64053196127e-08
3.4180044356e-08
9.72971079694e-09
2.98639240538e-08
2.43576705104e-08
1.49203228076e-08
1.15093010414e-08
8.78188359935e-09
2.40304593116e-08
1.57222139791e-08
5.35109590271e-08
7.35678886479e-09
3.34196763865e-10
7.58763976044e-11
1.81328592544e-08
2.50803757349e-08
2.56118488112e-08
2.28761044383e-08
2.68908858285e-08
2.38647591162e-08
2.85284136529e-08
4.16022379705e-08
5.7876639459e-08
4.73230094146e-08
6.1408265156e-08
6.56041227494e-08
4.68347239962e-08
5.38503378241e-08
3.59488578368e-08
3.23714645723e-08
1.93505198952e-08
1.62168724322e-08
3.59762622281e-09
4.03100335676e-09
2.59145842783e-08
2.87221054649e-08
5.4173326781e-08
5.19044910015e-08
6.67194303423e-08
6.55161904366e-08
4.75818681428e-08
5.48800560667e-08
5.89284734138e-08
5.35173914163e-08
6.46739744546e-08
6.14460656454e-08
4.2832812868e-08
4.70534647463e-08
2.36836730043e-08
8.19562289623e-10
2.88686871932e-09
2.89416918054e-08
4.61203152417e-08
4.22406427093e-08
1.70384884841e-08
1.30216643317e-08
2.00695370015e-08
3.0414113741e-08
2.23292288954e-08
2.15959908373e-08
3.91581376089e-08
4.02627325364e-08
4.97365769102e-08
2.7946047075e-08
2.07933980231e-08
8.7621402312e-08
8.68747368166e-08
5.55931740066e-08
4.70861038789e-08
3.97381605565e-08
8.37056880408e-08
8.58478329079e-08
8.17866611547e-08
2.28215308955e-07
1.32074829534e-07
2.0335085432e-08
9.16255445012e-08
2.08219435998e-07
3.08563881427e-08
1.58492002768e-07
3.74552236866e-07
1.04940938826e-07
1.16359086404e-07
1.77933093736e-07
1.02427712941e-07
1.65109973657e-08
9.39492264284e-08
1.18948485459e-07
2.36979904506e-08
3.86178359787e-08
1.49929704621e-08
1.86690029536e-07
3.12736034559e-08
4.98804682445e-08
9.23855665812e-08
3.41332835265e-07
1.00535323959e-07
3.39629470079e-07
5.04039147823e-07
2.8348478737e-07
9.88910178908e-07
1.27835112879e-06
1.10928767042e-06
2.00670657368e-06
4.14511507e-06
2.89675906611e-06
3.19962332458e-06
2.78610683591e-06
1.24299383861e-06
3.00454641718e-06
1.49314604834e-07
1.16296048141e-06
2.47179830461e-07
3.06992238111e-07
3.42398032813e-06
6.88362279958e-07
2.98980206553e-06
6.40743409065e-06
6.97752030459e-06
2.25868788085e-06
2.46510681644e-06
1.50113911488e-06
4.62161493582e-08
1.38348703345e-07
2.21869239542e-07
1.4809765548e-08
8.25928577667e-08
4.04007890411e-08
3.61746469096e-08
6.41273997462e-08
5.27350387744e-08
1.1021735037e-07
1.41908111446e-07
3.36117320959e-08
4.87251792994e-09
1.47147937551e-09
3.30745536627e-08
1.99127101587e-08
3.58406347824e-08
8.27674922828e-08
6.59754616613e-08
9.55697509752e-08
8.15944088203e-08
1.24912035033e-07
1.06216269766e-07
2.06130672452e-08
3.16369274144e-08
2.90753953182e-08
1.78677963202e-07
2.90803773859e-07
9.36952160046e-08
1.42008124169e-07
1.23680893632e-07
1.79617971801e-08
6.0245093984e-07
6.5707382539e-07
1.93640983874e-07
2.8332138597e-07
3.47774501433e-07
7.55093582609e-07
5.79758045006e-07
1.29775686383e-06
1.94182393887e-06
1.72173039041e-06
5.95123565568e-07
1.98098809423e-07
1.29851059107e-07
9.08243194414e-07
7.89551106214e-07
9.27340234341e-07
1.4234360385e-06
1.46124172219e-06
1.6970006183e-06
1.5927623523e-07
4.80618892658e-07
5.65266936431e-07
8.61862213379e-08
1.20626597119e-06
1.43543536338e-06
1.96893885584e-07
2.03787585559e-06
2.95335808753e-08
1.02826499406e-08
1.81597470341e-08
4.12642862921e-08
3.79629956178e-09
5.01916193745e-08
3.25064952652e-08
1.07235941377e-08
1.12455001939e-08
6.94645642195e-09
1.29496681135e-08
1.44032288173e-11
1.46305365156e-09
2.81331966006e-08
2.04990704486e-09
3.43215078341e-09
9.32482530402e-09
9.55680448768e-09
1.09692972818e-08
9.4803853814e-09
6.04468991981e-09
1.84992156182e-09
1.0478102815e-09
1.76416757868e-08
1.92965477426e-08
2.36896553112e-08
2.60314330596e-08
1.39870851167e-08
1.02933001944e-08
2.31749397481e-10
3.92416908917e-08
3.6822150854e-08
4.72357774621e-08
2.03974377473e-08
2.21288579527e-08
2.98027554729e-08
4.48441424694e-08
5.85522754335e-08
8.51217998454e-08
6.93099113512e-08
7.71558435194e-08
5.85936709961e-08
8.72632820931e-08
1.13221951683e-07
1.1478932234e-07
7.71557426469e-08
6.85708608498e-08
7.07371824763e-08
5.89071758692e-08
6.12412821128e-08
1.64438214595e-08
3.85057858716e-08
3.29962291483e-08
1.1591871606e-08
7.56782625085e-09
7.53822505307e-09
3.61386253076e-10
8.52631792476e-10
1.92067826954e-09
2.36407351866e-09
3.90591158306e-09
8.71735284149e-10
2.22787709795e-09
1.71815285578e-09
9.74192789122e-10
6.23212491802e-10
1.28286685459e-09
2.69386065534e-09
1.08646259228e-09
4.49105975559e-08
5.35795241476e-08
1.82357604893e-09
8.46465016964e-09
2.5444369563e-07
2.33950322808e-07
1.0414422778e-07
6.20398013144e-08
2.13270702795e-07
1.51901124339e-07
8.58506893123e-08
7.89574921314e-09
2.58276747938e-08
3.33742635347e-09
1.31420855142e-09
9.59305231397e-10
7.11669508208e-07
1.127564997e-06
1.97710693227e-07
1.128446801e-07
1.15469821751e-07
8.15411343544e-07
3.82333688562e-08
4.65974142263e-08
1.48308885447e-07
6.25914911882e-08
4.77112110677e-08
6.64926296021e-08
5.95967743787e-08
7.07711622361e-08
1.99608272417e-08
6.83798034329e-09
1.97322265572e-08
1.11973280762e-07
5.30973116213e-09
7.21943879032e-08
8.03448640784e-08
1.26432352364e-08
8.35644062005e-08
6.51197544983e-09
5.12783803976e-07
6.49133374162e-07
7.93433731221e-07
2.61909972181e-07
2.24154920512e-07
4.34286727798e-08
3.35904866827e-08
5.26064312437e-09
4.38188027514e-09
1.47251409136e-08
9.07672125263e-09
2.55202240244e-09
9.31361517221e-09
1.05933485584e-08
4.49732070913e-09
4.64282386764e-09
1.08158775606e-08
5.0810971572e-09
5.95966672437e-09
2.06908751641e-08
2.46884139555e-08
2.24505405335e-08
2.70815299161e-08
5.68707930845e-08
4.11668644328e-08
5.33899496688e-08
1.37186577041e-08
9.24296146629e-08
6.463341037e-08
3.26855412415e-07
2.2376151719e-07
8.4411323442e-08
1.22437737778e-07
1.53755043163e-07
3.05306396316e-08
2.70707528191e-08
1.10509834769e-08
6.71066169373e-09
1.68555723399e-08
8.50707853275e-09
5.58452142541e-09
5.08776399945e-08
2.16081756906e-09
4.57791892892e-09
5.34481019659e-09
2.12958103775e-08
3.57583816763e-09
1.0223100357e-09
4.05665673388e-09
4.89003573053e-08
1.28926038365e-08
1.060584767e-08
2.67913454666e-08
6.28682613288e-09
6.37443687248e-09
1.09602558713e-08
1.0732886105e-08
3.16037149026e-08
4.05719421526e-09
2.15249726095e-09
1.04812738395e-09
9.6306564154e-07
9.03623884372e-07
8.72223441266e-08
5.62294125979e-08
8.69394044218e-09
4.79241755325e-08
1.96749137862e-08
2.31385793228e-08
7.26728942689e-09
5.93972268396e-09
5.37742597044e-09
4.61228394236e-09
6.08937419374e-09
2.75815014546e-09
8.62508097299e-10
1.54538633429e-10
1.99983838107e-09
2.80309219999e-09
2.24272395236e-09
2.12584382032e-09
3.95528217487e-09
9.59883233367e-09
3.03845762995e-09
4.38436767575e-09
8.058180257e-09
1.16292766981e-09
4.49210641598e-09
1.59944105568e-09
6.12260288347e-10
1.03016075253e-08
1.2224333763e-08
2.51153016826e-09
6.672497946e-09
1.59163713799e-07
9.76236778987e-08
7.64559072914e-09
4.48046477042e-08
8.90384358874e-08
1.54019175052e-08
2.34487314726e-08
6.51883309682e-09
1.51532912696e-08
1.89463495488e-09
3.65333273051e-08
1.20255878853e-08
3.94703466362e-08
1.24665743896e-08
7.84032527196e-08
2.61572964965e-08
6.3161896373e-08
4.47891229315e-08
7.54473644939e-07
8.62507811432e-07
5.75874836648e-07
7.23835700941e-08
4.86254119771e-08
1.54348653654e-07
1.47973641595e-08
8.67810709542e-08
3.47234807118e-08
5.52685593914e-08
9.9732730011e-09
1.05880953424e-08
3.1442903113e-08
1.84476272977e-08
4.18512276464e-08
2.95992283878e-08
6.81997115236e-08
3.44647680758e-08
8.88606226309e-08
1.2279894134e-07
8.24928304154e-08
7.49688811751e-08
1.92198868656e-07
1.82096038463e-07
6.50695550205e-07
7.53513708779e-07
4.9065869801e-09
3.45159569199e-08
1.31142337949e-09
2.32989247698e-08
1.5624449308e-08
5.5982927426e-09
5.35468351587e-08
3.52504716579e-08
3.86953679783e-08
3.73001499395e-08
9.60528670656e-08
1.20365233936e-07
3.88093263697e-08
2.06516379324e-08
5.16357220367e-08
7.7550394726e-08
1.56579173958e-08
1.35860223364e-08
9.15880249766e-09
1.32741951599e-08
1.46378210933e-08
1.03732652748e-08
1.30583361767e-08
1.12021847576e-08
1.30750932747e-08
1.01271892002e-08
1.02364820325e-08
1.19787295644e-08
6.42491611866e-09
8.78831076798e-09
6.70492412248e-09
7.76998788653e-09
9.87037322465e-09
1.26152594719e-08
1.23588310336e-08
1.28271785169e-08
1.35118181135e-08
1.61026687905e-08
1.32498663755e-08
8.90827374873e-09
7.5021539024e-09
8.12677852148e-09
7.8615772048e-09
7.67119178983e-09
9.4734516649e-09
4.72404663697e-10
4.24470571714e-09
4.86598988247e-08
1.86412377344e-08
2.44048516282e-08
1.69531011088e-08
1.01328929382e-08
4.47385619166e-08
5.44453353598e-08
2.32135438681e-08
8.14404382945e-11
1.59716203672e-08
9.80686456462e-09
6.64196232429e-09
3.71097679946e-08
8.75637797021e-09
1.00553438805e-08
3.65513999256e-08
2.87981171947e-08
1.42792487191e-08
1.34077925057e-07
2.96668569213e-08
5.39579192053e-08
1.17777228829e-06
5.77352378736e-07
7.73019169182e-07
2.81035108842e-08
3.46687815746e-08
1.89670395763e-09
4.2251301095e-09
1.4838314795e-08
5.07931734539e-08
1.51475718546e-08
1.48648989055e-07
8.89187272354e-08
7.82268897318e-08
1.22933831681e-07
8.92291300409e-09
3.58706759195e-09
1.38132544837e-08
7.98575430717e-09
5.3152498073e-10
6.24886189467e-08
7.31372963524e-08
1.24129924435e-07
7.2955284485e-08
9.97473531961e-09
1.19876329384e-09
6.29310389335e-08
6.11280713323e-09
1.82545967165e-08
3.69465610602e-10
4.54413437352e-08
9.35643502682e-09
4.5074777552e-10
8.59817983504e-08
5.25683972239e-08
4.19979422915e-08
2.99169480279e-08
3.00205731294e-08
4.25494240983e-08
1.63381696263e-07
2.96430415492e-07
6.11656882435e-07
1.56461002893e-08
4.51853185378e-08
9.93530064646e-08
4.92713964773e-08
1.68987660947e-07
9.03337594654e-08
1.52940550578e-08
1.21587514187e-09
3.36386601992e-08
8.40832454091e-08
1.05071279368e-07
8.35799609391e-08
6.07864081899e-08
5.1176530626e-08
5.40355339747e-08
6.84030026365e-08
1.2150165881e-07
5.14540814377e-08
1.25681868243e-07
9.69574912281e-09
1.12442998383e-08
1.109122835e-08
1.78251614504e-08
1.37168634742e-07
5.68302796714e-08
4.85146489192e-08
9.56766530248e-09
7.12121577835e-09
8.97841488821e-08
1.26875847584e-07
1.0814420012e-07
1.14831837284e-08
3.5240544967e-08
3.31715607409e-08
2.55782410825e-08
3.80047872371e-08
9.56647436283e-08
3.70722490157e-08
3.98070157074e-08
6.92090456119e-08
9.39306741643e-09
2.70699490095e-08
5.30504797184e-08
6.8924530855e-08
3.93193792991e-08
2.99725823067e-09
2.91484994603e-09
5.35836820193e-09
7.88338151915e-09
2.23334805447e-08
1.85374552021e-07
9.45671474075e-09
9.80918432809e-09
7.79609143286e-09
8.33527995025e-09
5.38199085011e-09
7.6901502013e-09
1.1262279305e-08
6.26455238214e-09
5.1296553037e-09
3.88211305006e-09
4.15149943229e-09
3.04130243509e-09
4.73944593122e-09
3.75537908813e-09
4.11443010341e-09
5.39951683832e-09
1.83592996838e-09
1.9318045411e-09
2.14550477282e-09
1.74779763285e-09
1.24413931631e-07
2.33333956568e-07
5.35584453342e-08
1.78930926651e-09
2.50021750839e-09
2.494667118e-09
1.45179902215e-09
2.10610276375e-09
6.83709446366e-09
1.07848939478e-08
1.47350522711e-08
3.84079131313e-09
1.25525976378e-08
5.00758901104e-09
1.05515088946e-08
1.63559646606e-09
3.96845251372e-09
2.34139195674e-09
6.63204661472e-09
7.14511412988e-10
1.97316347873e-09
2.58996229427e-09
5.29841026073e-09
8.37900900737e-08
2.68837629008e-07
7.91626581357e-09
1.34297878557e-08
1.211583533e-08
1.79049674366e-08
2.26658833961e-09
1.65519924627e-09
2.60430334755e-09
1.85199909758e-09
4.13575875026e-09
2.24410565164e-09
1.94091833245e-08
1.74738978806e-08
4.82015481307e-08
1.76915624508e-09
2.95891247154e-09
2.2414150663e-09
2.98772974934e-09
2.79354353984e-09
3.3627497425e-09
2.02836531338e-09
2.69284394384e-09
3.24883066129e-09
4.09194244373e-09
4.17611965311e-09
2.53140626446e-09
3.37909755521e-08
2.3258462205e-08
2.0457027576e-08
4.992375245e-08
2.1145991236e-08
2.23897625445e-08
4.13167877869e-08
2.5679606315e-08
4.44433464744e-08
3.68706448586e-08
2.09440204506e-08
4.91776402276e-08
2.20562708138e-08
2.97672653487e-08
1.77872285608e-09
1.86730492339e-08
2.15245567496e-08
5.1459794996e-09
4.35893442012e-09
2.26718550938e-09
5.16019675855e-09
1.04607703469e-09
6.43408570228e-09
2.95234890095e-09
7.3309810045e-09
7.69030786199e-09
1.75883006616e-09
1.36212981655e-08
1.43834918994e-08
2.99034732385e-08
1.99423049612e-08
2.66625980961e-09
6.01738958102e-09
1.13582157157e-08
2.55828706712e-08
4.73780280366e-08
2.21441494137e-08
5.72461084361e-09
1.93265508534e-08
9.41429521021e-09
2.29438248831e-08
1.55753691757e-08
2.79130854203e-08
3.80774344874e-09
3.4496047619e-09
5.46108178953e-09
3.6749084688e-09
3.68195399098e-10
1.15192983677e-08
2.71550598744e-09
1.30822401318e-08
5.42171391719e-09
2.41974774409e-08
1.50272289034e-08
2.71267323347e-08
3.67229589957e-09
5.2969540551e-09
1.10261225551e-09
4.095836544e-09
7.51655329156e-09
9.19476385605e-09
9.25013836995e-09
8.58352186231e-09
9.04932574625e-09
7.91479927842e-09
8.10684092165e-09
4.71817754344e-09
5.27936856259e-09
3.32847422245e-09
3.31432131565e-09
5.3365917454e-09
3.02763796875e-09
4.30403001828e-09
1.20979889447e-09
6.90254769226e-09
6.65747695421e-09
6.92317107292e-09
5.75033825531e-09
7.9039148667e-09
8.13103268427e-09
8.90436520541e-09
1.13269448491e-08
1.03350251553e-08
8.93491976806e-09
2.99545112116e-09
1.20183027584e-08
1.07829175715e-08
5.30961155219e-09
3.73541062666e-09
3.4886724349e-09
2.209544472e-08
1.04346768193e-08
2.14055138546e-08
2.04483501616e-09
1.02335314684e-11
2.84386596643e-10
1.2047559274e-08
1.02058779316e-08
3.01824339871e-08
3.14153038717e-08
3.1790719678e-08
2.1702629744e-08
2.6947995561e-08
1.84787665697e-08
1.42274105819e-08
2.16762614391e-08
1.79769146411e-08
1.14523952733e-08
3.1085958576e-08
2.68141777625e-08
1.41717941441e-07
9.76021574535e-08
1.78335632949e-07
3.71085011783e-08
3.39461093578e-08
1.61084167311e-08
1.35033417463e-08
3.93290450009e-08
1.76841149222e-08
1.62419730795e-08
9.65189382914e-10
5.44464397914e-09
2.29189847441e-08
3.4564648441e-08
3.87179867998e-08
2.04232809642e-08
3.62201777447e-08
1.20817621609e-08
1.46556716422e-08
2.62000604362e-09
8.49714922785e-09
1.26462417939e-08
1.17409947788e-08
6.49429964249e-09
4.11925418927e-10
3.81746970016e-09
2.52002306124e-09
1.60999799385e-08
3.158126886e-08
1.84336165235e-08
1.02250700481e-08
3.09067062481e-08
4.75205266332e-08
1.69530330371e-08
2.59844625358e-08
3.56870640266e-08
2.37584960905e-08
2.42414383711e-08
2.30175578732e-08
2.33892680985e-08
2.43843905639e-08
1.9659514058e-08
1.69049700558e-08
2.0765050645e-08
1.73562703346e-08
2.00751166408e-08
1.35884931209e-08
1.363472076e-08
1.6177389537e-08
1.61694240822e-08
1.71528652113e-08
1.68305560533e-08
3.30563347335e-08
1.52674676456e-08
1.36871527037e-08
1.61081282745e-08
1.74007071974e-08
1.96689629337e-08
1.71564808326e-08
3.11600990254e-08
1.91801405173e-08
5.61241657044e-08
1.01641690891e-07
2.24415366364e-08