# vtk DataFile Version 3.0
File Name: Molecule/arg/arg_9.0-16_06.vtk
ASCII
DATASET UNSTRUCTURED_GRID
FIELD FieldData 1
TIME 1 1 double
0.0
POINTS 1601 double
-3.403 0.327 1.604
-3.456 0.18 1.295
-3.138 0.005 1.702
-3.188 -0.134 1.407
-2.981 -0.361 1.858
-3.034 -0.507 1.549
-3.435 0.072 0.968
-3.169 -0.238 1.095
-3.014 -0.616 1.222
-3.344 0.007 0.641
-3.081 -0.299 0.784
-2.922 -0.68 0.895
-3.186 -0.009 0.334
-2.93 -0.315 0.491
-2.764 -0.697 0.588
-2.971 0.024 0.066
-2.725 -0.284 0.235
-2.549 -0.664 0.32
-2.984 0.046 0.042
-2.699 -0.017 -0.133
-2.712 0.004 -0.155
-2.471 -0.12 -0.363
-2.484 -0.099 -0.385
-2.302 -0.279 -0.611
-2.316 -0.256 -0.635
-2.2 -0.483 -0.862
-2.216 -0.458 -0.889
-3.183 0.343 -0.145
-2.753 0.07 -0.229
-2.923 0.323 -0.389
-2.57 0.022 -0.532
-2.724 0.253 -0.678
-2.446 -0.093 -0.847
-2.6 0.138 -0.992
-2.39 -0.269 -1.153
-2.559 -0.016 -1.312
-3.263 0.702 -0.308
-2.991 0.63 -0.528
-2.786 0.532 -0.805
-2.663 0.417 -1.12
-2.628 0.291 -1.452
-3.216 1.083 -0.43
-2.951 0.955 -0.632
-2.75 0.829 -0.899
-2.626 0.714 -1.214
-2.587 0.616 -1.556
-3.047 1.443 -0.495
-2.807 1.262 -0.688
-2.618 1.109 -0.95
-2.495 0.993 -1.265
-2.443 0.924 -1.611
-2.776 1.74 -0.497
-2.575 1.516 -0.689
-2.407 1.34 -0.951
-2.283 1.225 -1.266
-2.211 1.177 -1.613
-2.622 1.932 -0.429
-2.515 1.601 -0.663
-2.37 1.782 -0.599
-2.287 1.501 -0.894
-2.142 1.682 -0.83
-2.106 1.446 -1.176
-1.952 1.639 -1.108
-1.982 1.439 -1.492
-1.81 1.654 -1.416
-2.663 2.202 -0.218
-2.227 2.054 -0.482
-2.264 2.299 -0.29
-1.881 2.228 -0.637
-1.918 2.473 -0.445
-1.615 2.438 -0.879
-1.656 2.708 -0.668
-2.655 2.421 0.048
-2.257 2.498 -0.049
-1.911 2.672 -0.204
-1.647 2.927 -0.402
-2.597 2.577 0.351
-2.204 2.639 0.226
-1.858 2.813 0.071
-1.59 3.083 -0.1
-2.495 2.657 0.67
-2.111 2.713 0.516
-1.765 2.886 0.361
-1.488 3.163 0.22
-2.797 2.625 0.927
-2.251 2.77 1.005
-2.52 2.741 1.234
-2.033 3.002 1.293
-2.299 2.974 1.519
-1.863 3.333 1.507
-2.155 3.302 1.755
-3.035 2.497 1.22
-2.731 2.627 1.494
-2.507 2.861 1.775
-2.385 3.178 2.038
-3.186 2.284 1.521
-2.865 2.437 1.761
-2.64 2.674 2.039
-2.53 2.972 2.328
-3.324 2.06 1.667
-2.975 2.319 1.779
-3.111 2.099 1.924
-2.815 2.412 2.059
-2.958 2.183 2.21
-2.717 2.558 2.345
-2.872 2.307 2.509
-3.419 1.801 1.788
-3.205 1.843 2.043
-3.055 1.917 2.334
-2.979 2.017 2.644
-3.552 1.393 1.822
-3.202 1.735 2.161
-3.319 1.374 2.191
-3.094 1.732 2.585
-3.21 1.376 2.614
-3.107 1.793 3.017
-3.235 1.399 3.05
-3.548 0.964 1.825
-3.316 0.994 2.194
-3.206 1.001 2.617
-3.231 0.984 3.053
-3.408 0.559 1.798
-3.191 0.635 2.17
-3.084 0.647 2.593
-3.095 0.593 3.027
-3.105 0.348 2.085
-3.1 0.088 1.867
-2.97 0.105 2.152
-3.031 0.459 2.387
-2.908 0.238 2.449
-3.027 0.542 2.707
-2.911 0.332 2.766
-2.978 0.383 3.085
-2.865 -0.346 2.113
-2.52 -0.7 2.425
-2.789 -0.06 2.411
-2.48 -0.378 2.69
-2.828 0.19 2.745
-2.523 -0.123 3.02
-2.645 0.041 3.387
-2.483 -1.039 2.238
-2.249 -0.827 2.688
-2.214 -1.15 2.51
-2.072 -0.978 3.011
-2.036 -1.312 2.826
-2.003 -1.142 3.367
-1.962 -1.514 3.162
-2.359 -1.33 2.011
-2.096 -1.427 2.294
-1.914 -1.599 2.602
-1.826 -1.833 2.912
-2.159 -1.55 1.761
-1.905 -1.637 2.055
-1.716 -1.817 2.356
-1.606 -2.075 2.638
-1.897 -1.684 1.507
-1.655 -1.765 1.813
-1.457 -1.949 2.105
-1.318 -2.222 2.359
-1.592 -1.721 1.268
-1.365 -1.8 1.585
-1.156 -1.986 1.869
-0.984 -2.263 2.097
-1.863 -1.667 1.068
-1.351 -1.766 0.91
-1.605 -1.715 0.723
-1.133 -1.941 0.578
-1.396 -1.889 0.384
-0.96 -2.23 0.303
-1.258 -2.17 0.083
-2.101 -1.536 0.862
-1.827 -1.593 0.529
-1.627 -1.762 0.183
-1.519 -2.027 -0.144
-2.291 -1.337 0.66
-2.006 -1.406 0.34
-1.812 -1.569 -0.013
-1.728 -1.808 -0.365
-2.422 -1.081 0.476
-2.129 -1.167 0.168
-1.939 -1.32 -0.192
-1.872 -1.528 -0.567
-2.487 -0.785 0.321
-2.189 -0.889 0.022
-2.002 -1.032 -0.342
-1.943 -1.202 -0.738
-2.264 -0.668 -0.026
-2.322 -0.554 -0.027
-2.141 -0.611 -0.433
-2.203 -0.492 -0.433
-2.131 -0.618 -0.861
-2.114 -0.682 -1.181
-2.003 -0.9 -0.803
-1.987 -0.962 -1.114
-1.927 -1.264 -1.052
-2.312 -0.441 -1.376
-2.242 -0.501 -1.651
-2.116 -0.68 -1.269
-2.044 -0.743 -1.552
-1.985 -0.96 -1.159
-1.906 -1.028 -1.469
-1.837 -1.343 -1.406
-2.121 -0.506 -1.916
-1.92 -0.747 -1.824
-1.77 -1.033 -1.766
-1.682 -1.348 -1.746
-1.975 -0.256 -2.322
-1.864 -0.768 -1.888
-1.672 -0.441 -2.421
-1.897 0.192 -2.527
-1.57 0.147 -2.691
-1.971 0.497 -2.491
-1.495 0.306 -2.776
-1.576 0.637 -2.736
-1.198 0.386 -3.152
-1.296 0.786 -3.104
-2.011 0.787 -2.372
-1.619 0.951 -2.607
-1.347 1.167 -2.948
-2.011 1.039 -2.18
-1.619 1.224 -2.399
-1.348 1.496 -2.696
-1.72 1.257 -2.235
-1.631 1.561 -2.005
-1.505 1.361 -2.45
-1.417 1.659 -2.224
-1.259 1.801 -2.466
-1.479 1.817 -1.75
-1.268 1.91 -1.974
-1.107 2.057 -2.211
-1.379 2.028 -1.517
-1.683 1.878 -1.211
-1.325 2.288 -1.323
-1.617 2.145 -1.029
-1.319 2.584 -1.178
-1.091 2.821 -1.245
-1.159 2.356 -1.471
-0.94 2.583 -1.535
-1.087 2.175 -1.825
-0.858 2.412 -1.893
-0.852 2.322 -2.287
-0.816 3.013 -1.267
-0.676 2.767 -1.557
-0.583 2.604 -1.915
-0.543 2.537 -2.312
-0.463 3.323 -1.084
-0.539 2.942 -1.474
-0.291 3.16 -1.345
-0.306 2.923 -1.738
-0.135 3.073 -1.649
-0.131 2.956 -2.042
-0.005 3.067 -1.976
-0.026 3.04 -2.368
0.091 3.143 -2.307
0.002 3.17 -2.695
0.146 3.297 -2.62
-0.048 3.337 -3.001
0.158 3.517 -2.895
0.018 3.374 -0.943
0.047 3.196 -1.246
0.098 3.097 -1.58
0.167 3.085 -1.926
0.251 3.16 -2.26
0.343 3.317 -2.562
0.438 3.547 -2.812
0.466 3.148 -0.891
0.362 3.037 -1.209
0.315 2.988 -1.555
0.328 3.005 -1.907
0.4 3.085 -2.243
0.526 3.225 -2.541
0.699 3.415 -2.782
0.725 3.006 -0.709
0.553 2.897 -1.196
0.801 2.761 -1.021
0.699 2.74 -1.539
0.958 2.598 -1.356
0.892 2.689 -1.891
1.182 2.53 -1.686
0.926 2.805 -0.509
0.994 2.568 -0.829
1.159 2.397 -1.156
1.407 2.305 -1.463
1.057 2.557 -0.305
1.12 2.33 -0.634
1.29 2.148 -0.952
1.553 2.026 -1.234
1.025 2.711 0.026
1.24 2.204 -0.113
1.21 2.35 0.201
1.539 1.918 0.039
1.507 2.071 0.37
0.916 2.809 0.362
1.106 2.444 0.521
1.398 2.17 0.706
0.737 2.845 0.68
0.936 2.478 0.823
1.22 2.206 1.024
0.406 3.093 0.833
0.701 2.629 1.02
0.405 2.851 1.157
0.756 2.48 1.392
0.466 2.698 1.526
0.897 2.411 1.765
0.584 2.646 1.91
1.112 2.426 2.108
0.748 2.699 2.276
0.16 3.357 0.714
0.198 3.058 1.115
-0.02 3.292 1.009
0.05 3.076 1.433
-0.157 3.299 1.333
-0.029 3.146 1.769
-0.243 3.376 1.665
-0.034 3.266 2.099
-0.271 3.52 1.984
-0.152 3.531 0.588
-0.298 3.447 0.896
-0.422 3.446 1.225
-0.515 3.528 1.554
-0.572 3.688 1.862
-0.504 3.599 0.465
-0.612 3.508 0.787
-0.72 3.504 1.122
-0.823 3.588 1.447
-0.913 3.754 1.744
-0.865 3.557 0.357
-0.933 3.47 0.691
-1.026 3.468 1.03
-1.137 3.551 1.353
-1.261 3.713 1.639
-1.202 3.407 0.273
-1.234 3.337 0.616
-1.312 3.341 0.958
-1.432 3.42 1.279
-1.587 3.569 1.558
-1.488 3.12 0.569
-1.554 3.135 0.914
-1.681 3.207 1.233
-0.038 3.383 2.443
0.177 3.023 2.187
0.173 3.139 2.526
0.443 2.83 2.247
0.439 2.952 2.602
0.743 2.833 2.666
-0.112 3.436 2.794
0.099 3.191 2.873
0.361 3.007 2.966
0.658 2.893 3.065
-0.253 3.42 3.128
-0.039 3.176 3.204
0.216 2.991 3.311
0.499 2.875 3.445
-0.449 3.338 3.421
-0.233 3.094 3.494
0.013 2.905 3.616
0.276 2.781 3.779
-0.687 3.194 3.654
-0.468 2.951 3.724
-0.233 2.756 3.857
0.006 2.617 4.044
-1.016 3.185 3.753
-0.58 2.815 3.881
-0.962 2.805 3.996
-1.359 3.167 3.763
-1.359 2.784 4.008
-1.693 3.142 3.685
-1.746 2.755 3.917
-1.995 3.111 3.523
-2.096 2.719 3.73
-2.244 3.076 3.289
-2.384 2.678 3.458
-2.423 3.039 2.998
-2.593 2.636 3.121
-2.521 3.004 2.671
-2.706 2.595 2.741
-0.749 2.537 4.164
-0.29 2.688 3.939
-0.455 2.418 4.213
-0.16 2.345 4.321
-0.912 2.194 4.368
-0.613 2.086 4.412
-0.321 2.009 4.521
-1.061 1.806 4.483
-0.757 1.709 4.523
-0.466 1.628 4.634
-1.28 2.135 4.399
-1.452 1.611 4.604
-1.641 1.894 4.531
-1.543 2.398 4.242
-1.868 2.121 4.396
-1.833 2.577 4.025
-2.118 2.276 4.208
-2.128 2.66 3.763
-2.373 2.347 3.982
-2.409 2.64 3.473
-2.615 2.33 3.732
-2.655 2.52 3.176
-2.827 2.227 3.476
-2.849 2.307 2.894
-2.995 2.043 3.232
-1.464 1.095 4.666
-1.124 1.592 4.538
-1.135 1.082 4.6
-0.789 1.598 4.548
-0.801 1.064 4.613
-0.48 1.041 4.705
-1.655 0.731 4.634
-1.177 0.938 4.601
-1.359 0.592 4.57
-0.882 0.784 4.614
-1.066 0.434 4.582
-0.595 0.641 4.705
-0.793 0.265 4.671
-0.333 0.517 4.869
-0.555 0.096 4.831
-1.956 0.515 4.553
-1.452 0.461 4.543
-1.733 0.259 4.468
-1.246 0.178 4.538
-1.527 -0.025 4.463
-1.051 -0.1 4.621
-1.352 -0.318 4.54
-0.878 -0.357 4.785
-1.219 -0.603 4.693
-2.226 0.322 4.369
-1.985 0.079 4.295
-1.78 -0.205 4.29
-1.624 -0.511 4.354
-1.526 -0.822 4.484
-2.442 0.172 4.097
-2.187 -0.062 4.041
-1.982 -0.346 4.035
-1.841 -0.663 4.081
-1.772 -0.993 4.174
-2.586 0.075 3.76
-2.321 -0.152 3.726
-2.117 -0.436 3.72
-1.986 -0.76 3.742
-1.935 -1.103 3.791
-2.377 -0.184 3.377
-2.172 -0.468 3.371
-2.045 -0.795 3.367
-0.642 -0.546 4.955
-0.314 -0.097 5.005
-0.383 -0.749 5.065
-0.05 -0.304 5.117
-0.111 -0.96 5.11
0.227 -0.52 5.163
0.164 -1.171 5.088
0.507 -0.734 5.141
0.313 -1.496 5.018
0.465 -1.039 5.071
0.607 -1.35 5.005
0.763 -0.915 5.131
0.905 -1.226 5.065
1.043 -0.806 5.264
1.192 -1.132 5.195
0.466 -1.795 4.876
0.753 -1.635 4.869
1.051 -1.511 4.928
1.345 -1.43 5.052
0.615 -2.054 4.667
0.895 -1.882 4.669
1.194 -1.758 4.729
1.494 -1.689 4.843
0.754 -2.261 4.401
1.028 -2.08 4.415
1.327 -1.956 4.475
1.633 -1.896 4.577
0.877 -2.406 4.09
1.145 -2.219 4.118
1.444 -2.095 4.178
1.756 -2.041 4.267
0.978 -2.484 3.749
1.242 -2.293 3.792
1.54 -2.169 3.852
1.857 -2.119 3.925
1.052 -2.491 3.392
1.313 -2.3 3.451
1.611 -2.176 3.511
1.931 -2.126 3.568
1.096 -2.426 3.036
1.355 -2.237 3.111
1.654 -2.114 3.171
1.975 -2.061 3.213
1.109 -2.292 2.698
1.367 -2.11 2.788
1.665 -1.986 2.848
1.988 -1.927 2.874
1.089 -2.096 2.391
1.348 -1.922 2.495
1.646 -1.798 2.555
1.968 -1.731 2.567
1.037 -1.846 2.131
1.299 -1.683 2.246
1.597 -1.56 2.306
1.916 -1.481 2.307
0.796 -2.146 2.122
0.866 -1.735 1.801
0.66 -1.991 1.794
0.779 -1.673 1.428
0.591 -1.907 1.421
0.784 -1.666 1.039
0.596 -1.899 1.033
0.88 -1.714 0.666
0.674 -1.97 0.659
1.061 -1.813 0.337
0.819 -2.113 0.328
0.482 -2.37 2.114
0.391 -2.182 1.787
0.347 -2.08 1.414
0.352 -2.073 1.026
0.406 -2.161 0.652
[...]
CELL_DATA 3198
SCALARS cell_data_0 double
LOOKUP_TABLE default
2.01036654329e-07
2.11279931049e-07
8.30929987895e-08
3.71222340619e-08
3.23403363499e-07
1.18456866217e-07
1.44087857703e-07
4.9335260413e-08
2.87512296323e-07
5.26029788934e-07
2.81430360628e-07
4.14319009189e-07
1.15625584262e-06
8.44297160409e-07
4.5106027443e-07
3.0429996742e-07
3.70037727305e-07
2.33952842309e-07
4.1509880835e-08
2.34794059699e-07
2.032053946e-08
1.76912544783e-07
2.91861987361e-07
5.10046309252e-07
2.01179750266e-07
2.51901541771e-07
1.71462158754e-08
1.29503426877e-07
2.61706290956e-06
3.47545607037e-06
1.30443166532e-06
1.98914095727e-07
9.16722491294e-08
2.3765350846e-09
4.37859575109e-07
3.83237103597e-07
3.01706454681e-06
1.01273876222e-06
5.82952805229e-07
1.88482881421e-07
1.58948788346e-07
1.65347296806e-07
1.48802643518e-07
3.27608688351e-08
9.53001158767e-07
7.51593885979e-07
6.16021475981e-07
4.84943154143e-07
2.76337976725e-07
2.53096062852e-08
1.77591755141e-07
2.23120991741e-07
1.41837050645e-06
9.76942257963e-07
6.10107017586e-07
5.08081140087e-07
1.68310605707e-07
2.58233504412e-08
2.0568376833e-07
2.27975534929e-07
6.32987689952e-07
1.5869944069e-07
5.67660339226e-07
7.66357071114e-08
1.76675284526e-08
3.94698620806e-07
3.62980298728e-07
8.24281534197e-07
2.33718369408e-08
3.80335796279e-08
3.24880322843e-08
1.82836613302e-07
3.90136050991e-07
5.46908504809e-07
7.00440172631e-07
8.56803941786e-07
2.60029950268e-07
3.67830123934e-07
3.09690536832e-08
7.08206433117e-08
2.38470872907e-07
1.064024959e-07
1.31995754556e-06
1.14427147798e-06
5.3889484469e-07
6.26526982759e-07
4.57195575104e-07
7.75115677586e-07
2.20287652215e-06
2.14860770734e-06
1.55221814694e-06
1.81618735969e-06
1.21564215701e-06
1.81427215024e-06
2.19203283261e-06
1.83143763999e-06
2.39733162579e-06
1.88251119157e-06
1.88445955586e-06
1.18757277397e-06
1.81600946054e-06
2.41109695862e-06
2.44120278317e-06
3.21271486163e-06
2.39897288678e-06
2.70706525825e-06
3.43389472809e-06
2.51026271581e-06
2.75736054209e-06
2.6878588824e-06
3.24331450666e-06
3.42865881912e-06
2.32758691856e-06
1.8771830013e-06
2.34982616697e-06
2.3325500744e-06
2.55698722747e-06
1.85596106219e-06
2.10809895345e-06
2.72784849166e-06
2.71337628288e-06
3.4660528495e-06
2.2733877378e-06
2.4936908642e-06
2.43566049365e-06
2.78414220212e-06
3.81066904073e-06
4.37996382385e-06
3.89146100671e-06
3.25561748861e-06
4.93196915731e-06
6.18435367948e-06
6.62660398004e-06
7.02871979809e-06
5.76732273497e-06
6.18585163941e-06
8.03747173919e-06
8.16888761921e-06
7.71965988543e-06
8.03193329746e-06
7.09064538244e-06
7.88553219293e-06
7.21062923602e-06
6.07480115644e-06
8.243801132e-06
8.23540541932e-06
8.06490597868e-06
7.1496901026e-06
1.74647167689e-06
8.81609024977e-07
2.08907628002e-06
2.50628817255e-06
3.77528375903e-06
3.79560721567e-06
3.02484474714e-06
1.70837817061e-06
1.8666941993e-07
8.26037588065e-08
1.40555802702e-06
1.97584626231e-06
3.91884593255e-06
2.63854686981e-06
1.76916992287e-06
1.32528589128e-06
2.91472881039e-07
4.82518019267e-07
7.62355735441e-07
5.39964395279e-07
1.64985061841e-06
2.42880184201e-07
2.76957790451e-06
1.44906095053e-06
6.05867758108e-07
3.98987693185e-07
1.04993632197e-06
2.27265646907e-06
3.98362926662e-06
1.54746757511e-06
1.54068082109e-07
2.64698789853e-07
1.42601981584e-06
1.71351823001e-06
2.81757651475e-06
8.27118455831e-07
4.30412978576e-07
1.28990478464e-06
1.12622323955e-06
1.74904706899e-06
1.50202747704e-06
1.79643081569e-06
2.28863936231e-06
2.76076378994e-06
1.97711833486e-06
1.81642633108e-06
1.06319242535e-05
1.87863395469e-05
1.30308118018e-05
8.0195520208e-06
1.89153319991e-06
2.80258083328e-07
1.56830540485e-05
6.98901099767e-06
5.63120253433e-06
9.81667109086e-07
5.94862500849e-07
3.23597110276e-06
9.0900515991e-06
7.44565634492e-06
1.212793605e-06
1.06006692293e-06
3.16191195817e-06
3.89508845806e-06
8.52500953133e-06
2.10462380498e-06
1.72119570908e-06
5.3042403851e-06
4.44441208722e-06
1.44962340071e-05
1.99393719911e-06
9.49924815739e-07
4.39006413468e-06
3.24393988045e-06
1.17441534674e-05
6.00292433675e-06
2.81819035899e-08
3.73348781301e-07
1.06270910463e-06
1.91014056893e-06
1.03514338181e-06
2.37718770887e-07
4.73449446964e-07
7.68262783782e-07
4.56280183702e-07
1.7713631149e-07
9.21925972079e-07
6.13783250609e-07
4.79836362007e-07
9.10924527741e-07
7.11878775011e-07
9.76740630532e-07
1.01651836823e-06
1.4638843432e-06
5.49004674592e-07
3.58256134349e-07
9.05132628896e-07
8.87484450451e-07
1.05685320572e-06
6.19436640471e-07
2.85774797058e-07
1.78239298163e-07
4.6786447266e-07
1.38992362897e-06
6.38432857139e-07
7.96397919644e-07
9.88949669477e-07
1.17767893326e-06
6.04284066387e-07
9.60370823866e-07
1.05482574351e-06
1.35672605427e-06
9.40595062556e-07
1.40209677959e-06
1.24521563658e-06
1.71789985742e-06
2.19179813379e-06
3.07673738851e-06
1.30947149317e-06
1.10561165509e-06
1.26066904792e-06
1.20170544769e-06
1.13914395199e-06
1.26286981745e-06
1.09411495579e-06
1.13659287883e-06
1.2414982846e-06
1.09284628966e-06
8.75031631605e-07
7.64549655951e-07
6.3869945942e-07
5.56304645224e-07
7.00773339577e-07
8.05413321335e-07
1.01240856131e-06
1.23806202646e-06
1.33545910227e-06
1.52801544889e-06
7.17663937779e-07
1.09837406278e-06
1.03887770648e-06
1.307949142e-06
1.44039115867e-06
2.61942825195e-06
1.10351015904e-06
6.97233470444e-07
7.58821154517e-07
5.48831652226e-07
6.37620447767e-07
5.30581081415e-07
5.66315278485e-07
6.04417880933e-07
6.7162234388e-07
9.97303678168e-07
1.17395204697e-06
1.60315582678e-06
7.59828009932e-07
6.24736462589e-07
6.86147334277e-07
6.34910529023e-07
6.6702849547e-07
5.89873573016e-07
5.82321003883e-07
5.97332060553e-07
6.10634857031e-07
9.16947277709e-07
1.00032636587e-06
1.52379475412e-06
8.89021265026e-07
8.95400323624e-07
9.81580260663e-07
8.44235808185e-07
8.44240999543e-07
7.3363649596e-07
6.795902679e-07
7.86757082529e-07
7.3895520126e-07
1.33193787168e-06
1.31355761604e-06
2.14001405254e-06
7.92586174112e-07
8.38612729122e-07
1.07134754633e-06
1.36184768365e-06
2.04950801703e-06
3.18987636127e-06
6.7090780958e-07
8.45588212429e-07
9.90378764653e-07
1.30466237535e-06
2.17377567184e-06
3.22506904185e-06
8.66858070769e-07
1.13816159049e-06
1.02785577387e-06
1.24580685947e-06
2.00779180283e-06
2.39331910638e-06
7.15063577578e-07
9.51785665898e-07
7.84769952289e-07
7.45713385695e-07
7.61453385688e-07
6.06580051596e-07
7.02072475361e-07
7.25456412475e-07
9.59993946787e-08
2.79861440925e-07
7.02779993224e-07
5.45235648526e-07
1.82548843619e-07
3.76244223889e-07
3.20299255657e-07
4.77139540452e-07
6.05276624899e-07
9.87825860806e-07
9.60490589677e-07
9.06141588964e-07
4.66999357827e-07
6.38724048203e-07
6.62141602259e-07
6.11588704158e-07
5.90258654612e-07
5.78077741971e-07
2.32868814732e-07
1.36985137625e-07
6.93494373516e-07
5.71945711792e-07
5.70210140371e-07
4.67213951849e-07
4.9808087117e-07
3.50865380035e-07
3.43125072668e-07
1.76302990125e-07
3.39394447373e-07
9.57837531057e-08
2.68941441916e-07
1.57381917764e-07
2.1591565744e-07
5.45145030302e-08
4.95309540164e-08
1.96023092253e-09
1.33968287257e-08
9.70722039324e-09
7.07340048057e-09
4.7330738622e-08
3.48455684327e-08
9.59937255904e-09
4.05529745467e-08
1.19965665394e-07
1.92728762987e-07
2.41464947751e-07
3.38974792089e-08
1.82390613872e-07
1.561471792e-07
3.37851649673e-07
2.68091976333e-07
2.97746690186e-07
2.9855618748e-07
3.15638193618e-07
4.93666895762e-07
5.07127962389e-07
4.42013240163e-07
4.70035848833e-07
3.88657009616e-07
5.42519889281e-08
2.31501501904e-07
5.80243137979e-07
7.18801937189e-07
7.94178253556e-07
6.6177677451e-07
7.50032343612e-07
3.61362086535e-07
3.17464792257e-07
4.7827303371e-07
3.45272615465e-07
4.81413215792e-07
2.9315378828e-07
1.16531883633e-07
1.50002859899e-07
1.86485328873e-07
2.36467958816e-07
1.44751530511e-07
4.20541645454e-07
5.73950718858e-08
6.88793370666e-08
1.46899290548e-07
1.408052834e-07
2.5371356791e-07
2.75602960862e-07
3.75573626223e-07
4.16135232402e-07
1.15660676373e-09
7.95050086583e-09
5.11808427372e-08
2.24449040302e-07
8.9899466725e-07
5.17660280093e-07
2.77781107404e-07
4.37623003057e-07
4.78747335856e-07
4.48284436575e-07
3.43073418162e-07
9.70699409381e-08
1.29165161592e-08
1.1744584147e-08
1.82122934151e-07
5.29557397954e-07
6.24836723863e-07
4.31441697792e-07
3.86335062476e-07
3.46511459263e-07
5.87081102248e-07
6.7705862088e-07
7.70884195118e-07
1.37921602472e-06
1.02365327414e-06
9.18525460811e-07
1.23810569523e-06
1.20357925843e-06
7.36904805366e-07
1.28426414725e-06
1.4905001046e-06
1.46037047964e-06
2.89939425832e-06
3.92974533116e-06
5.43647617696e-06
4.93455746182e-06
1.05243282385e-05
6.59678325203e-06
4.15956034325e-06
4.95158400442e-08
2.76058396161e-08
6.45703289719e-08
1.79049510172e-08
7.40261967179e-08
3.59495588357e-08
5.3397254889e-08
6.97113775708e-07
1.85099678301e-06
3.82841075915e-07
7.60149490556e-08
2.1761780533e-08
6.17068996543e-08
2.60277883872e-07
5.27385404527e-07
1.15983732526e-07
1.04123886738e-07
1.64065201081e-09
1.49089373241e-07
1.66703364864e-07
3.24697098001e-07
3.47952505562e-07
4.46298406203e-07
1.47934221661e-06
3.07996667208e-06
2.60748397899e-06
2.97326255854e-06
1.64014951112e-06
2.58970492029e-06
1.59381199968e-06
3.74388234317e-06
6.67484586908e-06
7.29720531175e-06
4.36108385445e-06
4.15956798826e-06
3.64538355435e-06
6.96388954873e-06
7.70851020131e-06
1.34938121221e-05
7.85437458174e-06
5.29241230791e-06
5.0643757217e-06
7.88494766796e-06
9.86494819348e-06
1.16351034169e-05
1.19406520771e-05
1.01698865037e-05
5.43576042708e-06
5.87966384211e-06
8.89403506609e-06
7.23393688207e-06
7.03816698909e-06
3.2042601688e-06
3.87597778931e-06
2.064690402e-06
4.42950182843e-06
3.3562415077e-06
3.81375528814e-06
1.02738874574e-06
5.89978000898e-07
5.44426945701e-07
1.5798729814e-07
8.3118465376e-07
1.15389741841e-06
1.84190888782e-06
2.10101711419e-06
1.55430435346e-06
1.04984107416e-06
8.45013638039e-07
9.8339235505e-07
9.28101644799e-07
3.57758128325e-07
8.21015140483e-08
8.05954270097e-08
1.01814968626e-07
2.71558520911e-07
2.76799039928e-07
7.0368303391e-08
2.89671744787e-07
2.7355129646e-07
5.45709641212e-07
2.80376093486e-07
1.38196005081e-06
7.48514526624e-07
2.06411617037e-06
1.81927658823e-06
2.54820767113e-06
2.18300932715e-06
2.98855754114e-06
1.55502694576e-06
4.83002823395e-07
1.27049556047e-06
5.0825206209e-08
7.84540391718e-07
7.69357578786e-08
8.17795635428e-07
8.06466300231e-07
4.56941105403e-07
7.05989649152e-07
6.60094917655e-07
1.04753796064e-06
1.50169623242e-06
1.16355435489e-06
1.14126285873e-06
1.1783424775e-06
1.3463690069e-06
1.74566335315e-06
1.2822548599e-06
1.06988709903e-06
8.38889880674e-07
6.97844263643e-07
1.37533996004e-06
1.36968102151e-06
1.12458125352e-06
7.95507940565e-07
6.57952597507e-07
7.7424368965e-07
8.35658648315e-07
8.37274857535e-07
4.16264878536e-07
2.54797501832e-07
3.4398518892e-07
2.16415146482e-07
4.40280355645e-07
2.19403586014e-07
9.75757803407e-08
3.96912301896e-09
1.71291610869e-08
1.47280206798e-07
3.71733790566e-07
6.91577396334e-07
1.28556577259e-07
2.90507979525e-08
4.01638039155e-07
9.81629483341e-07
9.62990705884e-07
5.03637134409e-07
1.11634961328e-06
1.73489984445e-06
2.07995953127e-06
6.67326875072e-07
6.20836491209e-07
9.16214666524e-08
3.2180829644e-07
7.05316186822e-07
1.17011128259e-06
8.92674870355e-07
5.55955995748e-07
1.22085364854e-07
1.85264590036e-07
4.03257197515e-08
8.49074949705e-08
2.11347515998e-07
3.89348703004e-07
2.72684860314e-07
5.52203998033e-07
2.06826381459e-07
2.61792014517e-07
3.8205386768e-07
6.06371744265e-08
7.1933823443e-09
9.32890341287e-09
1.42941034735e-07
4.06950849846e-09
3.21324974258e-07
6.49095812611e-08
1.22951554336e-07
1.79428663795e-06
1.71254500458e-06
6.24935447216e-07
7.09286009578e-07
7.22418952884e-08
8.8853368743e-08
1.53465465063e-07
2.50045308759e-07
3.28317118234e-07
2.21381877881e-08
2.45004625278e-06
1.57241820387e-06
1.61027968813e-06
1.08827793076e-06
7.15067773516e-07
2.23167581757e-07
7.63047614994e-09
3.63303922486e-07
3.22548957799e-07
3.90882097011e-07
1.42705924997e-06
4.60789011495e-07
5.10651094949e-07
1.97249354857e-07
6.9343240012e-08
2.48226778276e-07
4.59656729602e-07
1.26908152623e-07
4.76574405804e-07
4.37972235693e-07
3.06241051198e-07
6.24747191134e-07
2.77927071757e-07
4.8660144426e-07
2.6376868898e-07
9.44493320465e-08
5.02071209514e-07
4.24650929251e-07
4.22359821636e-07
6.03295259513e-07
3.79401015581e-07
6.45838397956e-07
1.47627222166e-07
2.36891786659e-07
8.06747817332e-07
6.64001999153e-07
1.08965705816e-06
9.65055319326e-07
6.9436087922e-07
6.901443651e-07
2.43450170131e-08
6.18166435493e-08
3.4161054436e-07
3.54906857563e-07
7.3799244586e-07
9.34863550454e-07
6.84880792839e-07
2.59900562477e-07
1.6924257488e-07
1.17800726815e-06
9.90559340156e-07
9.4243498747e-07
2.4323562379e-08
7.85386645257e-08
3.95382468299e-07
4.29083442968e-07
1.12533558722e-06
9.87705786233e-07
8.16420284883e-07
5.63548231788e-07
1.10050104025e-07
5.19383030375e-07
3.87420229244e-07
2.63963701499e-07
5.32476934623e-08
1.62714226252e-07
4.43989438447e-07
1.1290126615e-07
5.18394871119e-07
5.81288270662e-07
2.2455728281e-07
4.594619994e-07
1.65339427469e-07
2.15090979348e-08
9.29047950214e-08
7.36149069374e-08
6.41315876771e-08
1.05604950234e-06
4.61817968555e-07
1.00322228896e-06
4.79503984695e-07
1.30723820428e-06
1.22173154438e-06
3.95622631035e-06
1.59801879762e-06
2.0442292056e-06
2.71913689593e-06
2.68525042025e-06
3.45894352604e-06
4.44890333687e-06
2.1354815404e-06
3.00574639734e-06
3.02145420006e-06
3.45812862669e-06
3.57945100661e-06
4.20243659209e-06
3.17951912004e-06
3.26089827832e-06
3.74571179621e-06
3.66987595105e-06
3.54601729794e-06
4.53614519639e-06
3.36654495338e-06
3.80487792828e-06
3.86805532392e-06
4.36907028163e-06
4.71435110844e-06
6.05276654338e-06
4.64272690595e-06
4.42912858378e-06
4.34400594481e-06
4.98699209576e-06
5.75333469992e-06
5.1809316747e-06
1.86872206556e-06
7.42641467598e-07
3.21573072505e-06
1.37808736689e-06
1.73982727576e-06
9.27772900364e-07
7.80875421383e-08
1.10820165782e-07
3.7833850858e-08
3.24519206421e-07
1.17245417847e-06
1.91036530996e-06
2.54948468356e-07
7.79724330246e-07
2.12590082425e-06
5.86106433221e-06
2.34658417482e-06
7.31315976085e-07
1.04183325647e-05
1.50505382343e-05
4.61579592889e-06
3.04889202467e-06
1.56381154797e-05
1.02589420709e-05
7.27212263255e-06
1.18470813457e-05
7.20993522565e-06
9.20516459588e-06
1.76891329134e-05
1.30567118422e-05
2.2994633072e-06
5.24784164659e-06
1.67336094307e-06
3.22605035029e-06
6.786457239e-06
1.00905203063e-05
1.08204074657e-05
1.53772287335e-05
6.89152315692e-06
4.67544507682e-06
1.12362602554e-05
3.34755066896e-06
2.14585634896e-06
1.02165888166e-05
2.79472565745e-05
2.95285341246e-05
2.87391058053e-05
3.10937770675e-05
1.6725509002e-05
6.7157795725e-06
2.36957696785e-06
5.58800646982e-06
7.35718515056e-07
1.16573828518e-06
1.08237829911e-05
1.01883874481e-05
4.98358207305e-06
2.47831838581e-06
9.23135578441e-07
1.91101343904e-06
3.40872290343e-06
3.08586313827e-06
1.27518540008e-06
5.39812443198e-06
4.07370500441e-06
1.95338800314e-06
4.25316485184e-06
2.87076371602e-06
1.05602122125e-05
9.32016133927e-06
4.64401149265e-06
5.64635742724e-06
1.87910148854e-06
1.04023342275e-06
6.34013950691e-06
1.96175605761e-06
9.24844544157e-06
7.28511391245e-06
4.45138101977e-06
2.29718265763e-06
6.6496472722e-06
5.47263097003e-08
6.98531242297e-08
2.59513473023e-08
5.38808302427e-06
6.83102739516e-06
5.68383529052e-06
5.58452368587e-06
9.07530330145e-08
1.03180831935e-06
2.37071211855e-06
8.35579652052e-06
1.12922446475e-05
2.29515861157e-06
3.47601684397e-06
5.06369719187e-06
5.83407450325e-06
9.72843762903e-06
1.14802218257e-05
1.08334164416e-05
5.04628069666e-06
7.57624603978e-06
6.52490163925e-06
1.09112139026e-05
7.5543547057e-07
9.48915627452e-07
2.63609213695e-07
2.03698966318e-07
2.20023842462e-07
1.17715766875e-06
2.2694891804e-06
2.63956462938e-06
5.46432654431e-06
4.04394257702e-06
2.89547003705e-06
3.54287534908e-06
4.88100427561e-06
3.36955902786e-06
3.41793812747e-06
2.62093299941e-06
3.49783835611e-06
2.64853542522e-06
1.32623415752e-06
3.51166759233e-08
2.24375009424e-07
1.5224110037e-06
2.5116130784e-07
3.09460976339e-07
4.61507936804e-07
5.32641074765e-07
9.29883122758e-07
8.34893432296e-07
4.16680599972e-07
4.50480862406e-07
2.69713833131e-07
2.98637448235e-07
2.0741778055e-07
3.79050586829e-07
1.87716268068e-07
2.73004932729e-07
1.51959907663e-07
1.17405723794e-07
1.62292755412e-08
8.43294070774e-08
1.17743483203e-06
1.30606468155e-06
1.07774113717e-06
1.04787252833e-06
7.01276909579e-07
6.47582049626e-07
4.56901573003e-07
2.6395123695e-07
3.38578795926e-08
4.95505760429e-07
1.96636273754e-07
2.2868164365e-07
6.89258876123e-07
1.34575401114e-06
6.81404446806e-07
5.72547555187e-06
4.28065161981e-06
4.47624619902e-06
2.30990233346e-08
1.85708053841e-07
5.16277916872e-07
5.16817253159e-06
5.49262476733e-06
3.67984825849e-06
4.13743502131e-06
6.75563794592e-06
7.21057916533e-06
1.74921769111e-06
7.10446184023e-06
7.72989164071e-06
1.15324380446e-06
4.36818213593e-06
1.83279863315e-05
2.41381056834e-05
2.158072367e-06
3.80616143713e-06
2.50559428449e-05
7.16385353693e-07
3.44015399968e-06
2.4474252285e-06
8.20591429803e-06
1.52673132808e-05
2.0253734813e-06
1.49532835069e-06
3.02057532084e-05
2.62811882521e-05
1.61071022238e-05
2.40065341539e-06
2.12758363325e-05
3.25387742109e-06
8.3969446812e-07
2.65509645278e-06
2.2768710218e-06
1.61095930702e-06
1.27176557218e-06
1.21869469801e-06
1.42489943013e-06
1.8707387165e-06
3.87591433633e-07
1.33927652962e-07
1.36504831115e-07
7.71977108212e-08
6.9042385238e-08
4.08629504482e-08
2.05541989966e-08
1.22062709427e-08
1.55698541158e-08
1.92847065748e-08
5.37144032826e-08
3.67901347665e-08
3.3808317296e-08
7.19874027899e-09
1.84733800966e-08
1.7353058601e-08
5.12068455865e-09
3.73203312671e-08
9.92353428746e-09
2.7254759561e-08
3.6075563888e-09
7.69387821616e-09
7.06896376247e-09
2.89993800481e-08
2.02326359115e-08
6.04588530003e-08
3.18713057405e-08
1.04727630721e-07
5.23496145346e-08
1.95493196079e-07
3.1090058415e-08
4.45951792059e-08
4.8693927033e-08
8.1439320376e-08
6.73337810776e-08
1.25046248246e-07
1.02085139771e-07
2.35013575025e-07
2.33405895791e-07
5.74959148445e-07
1.45429087353e-07
1.71959358132e-07
3.53108396791e-08
5.76484165198e-09
7.1272129996e-08
1.65515059034e-08
9.3729750557e-08
7.19530484592e-08
3.29327490781e-07
3.82195784748e-07
1.34456956432e-07
4.10779083849e-07
2.41926687435e-07
5.5479747582e-08
4.98753565974e-07
7.17343126932e-07
8.6221284249e-07
2.46473213974e-07
5.31020726186e-08
9.79382022959e-08
1.86610833815e-07
1.64347372567e-08
9.56829114555e-07
8.2317831309e-07
2.68035219834e-07
8.50364293146e-07
1.07374648542e-06
5.1029208043e-07
8.54198252385e-07
6.15087421109e-07
8.56117843637e-07
1.37702707272e-06
4.18294650848e-07
4.59355898671e-07
8.74981827204e-07
1.79926057168e-06
1.90261509971e-06
1.18998990692e-06
5.12498474838e-07
1.30383361644e-07
1.21911463066e-06
1.18823538793e-06
9.97408948277e-07
7.21079501947e-09
4.2507313444e-07
1.13932073801e-06
4.30359841917e-07
3.40594189513e-07
4.8878006206e-07
9.4842891238e-07
1.17846316165e-06
1.68670767076e-06
2.88764952224e-07
8.35432714388e-07
1.01068250594e-06
9.77578160091e-07
1.14597791664e-06
1.22388608755e-06
3.65100480353e-07
6.14676544734e-07
7.39545382169e-07
6.14915736061e-07
6.98948585e-07
6.29088565756e-07
2.22076229203e-07
2.96791409256e-07
3.72682937362e-07
3.07273337224e-07
3.30173637599e-07
2.4786262365e-07
9.0828049754e-08
1.20021399135e-07
1.62356638229e-07
1.40702823854e-07
1.26762432632e-07
6.7915621145e-08
3.45078263869e-08
5.43238183924e-08
5.70160983524e-08
4.86389055272e-08
3.61995678127e-08
4.84319407243e-08
3.70222934163e-07
2.91268866317e-07
1.12902284186e-07
4.76963871714e-10
3.13890064812e-07
6.29360090778e-07
3.43763323529e-07
1.57139533681e-07
1.42766708155e-09
2.30671138328e-08
3.79385074394e-09
2.74141410867e-08
5.26621206988e-09
2.67483142748e-08
1.62249999349e-07
3.83807906431e-07
4.17237999177e-09
6.31728887685e-08
3.44310744242e-07
1.8539702365e-06
3.44912756843e-06