# vtk DataFile Version 3.0
File Name: Molecule/arg/arg_0.5-0.vtk
ASCII
DATASET UNSTRUCTURED_GRID
FIELD FieldData 1
TIME 1 1 double
0.0
POINTS 143 double
-3.403 0.327 1.604
-2.971 0.024 0.066
-2.981 -0.361 1.858
-2.549 -0.664 0.32
-2.984 0.046 0.042
-2.2 -0.483 -0.862
-2.216 -0.458 -0.889
-2.776 1.74 -0.497
-2.39 -0.269 -1.153
-2.211 1.177 -1.613
-2.622 1.932 -0.429
-1.982 1.439 -1.492
-1.81 1.654 -1.416
-2.495 2.657 0.67
-1.615 2.438 -0.879
-1.488 3.163 0.22
-3.186 2.284 1.521
-1.863 3.333 1.507
-2.53 2.972 2.328
-3.419 1.801 1.788
-2.717 2.558 2.345
-2.979 2.017 2.644
-3.408 0.559 1.798
-3.107 1.793 3.017
-3.095 0.593 3.027
-3.105 0.348 2.085
-3.1 0.088 1.867
-2.97 0.105 2.152
-2.978 0.383 3.085
-2.865 -0.346 2.113
-2.52 -0.7 2.425
-2.645 0.041 3.387
-1.592 -1.721 1.268
-2.003 -1.142 3.367
-0.984 -2.263 2.097
-2.487 -0.785 0.321
-0.96 -2.23 0.303
-1.943 -1.202 -0.738
-2.131 -0.618 -0.861
-2.114 -0.682 -1.181
-1.927 -1.264 -1.052
-2.312 -0.441 -1.376
-2.121 -0.506 -1.916
-1.682 -1.348 -1.746
-1.897 0.192 -2.527
-1.864 -0.768 -1.888
-1.57 0.147 -2.691
-2.011 1.039 -2.18
-1.198 0.386 -3.152
-1.348 1.496 -2.696
-1.72 1.257 -2.235
-1.479 1.817 -1.75
-1.107 2.057 -2.211
-1.319 2.584 -1.178
-0.816 3.013 -1.267
-0.543 2.537 -2.312
0.466 3.148 -0.891
-0.048 3.337 -3.001
0.699 3.415 -2.782
1.057 2.557 -0.305
0.892 2.689 -1.891
1.553 2.026 -1.234
0.737 2.845 0.68
1.539 1.918 0.039
1.22 2.206 1.024
0.406 3.093 0.833
1.112 2.426 2.108
0.748 2.699 2.276
-0.034 3.266 2.099
-0.687 3.194 3.654
0.006 2.617 4.044
-1.995 3.111 3.523
-0.58 2.815 3.881
-2.096 2.719 3.73
-1.061 1.806 4.483
-0.466 1.628 4.634
-2.128 2.66 3.763
-1.452 1.611 4.604
-2.373 2.347 3.982
-1.464 1.095 4.666
-0.48 1.041 4.705
-1.655 0.731 4.634
-0.333 0.517 4.869
-0.555 0.096 4.831
-0.878 -0.357 4.785
0.164 -1.171 5.088
0.507 -0.734 5.141
0.93 -2.454 3.923
1.043 -0.806 5.264
1.809 -2.089 4.099
1.037 -1.846 2.131
1.916 -1.481 2.307
1.061 -1.813 0.337
1.48 -1.078 0.031
2.335 -0.746 2.002
1.639 -0.712 -0.547
1.697 -0.118 0.66
1.842 0.216 0.134
1.085 -2.024 -1.812
2.201 -0.141 -1.444
1.67 -1.4 -2.657
-0.548 -1.409 -2.576
0.104 -0.811 -3.39
-0.822 -1.287 -2.506
-0.336 -0.591 -3.197
-0.616 -0.466 -3.125
-0.988 -0.705 -2.664
0.101 0.716 -4.098
0.516 0.418 -4.238
-0.398 1.946 -3.588
0.377 1.347 -4.4
0.117 1.987 -4.134
0.028 3.029 -3.665
0.9 3.106 -3.671
0.989 2.064 -4.14
0.819 3.383 -2.845
1.749 2.404 -3.353
1.668 2.681 -2.526
1.123 2.627 -2.01
2.133 1.624 -1.992
2.194 2.159 -2.516
2.042 0.907 -1.262
2.428 1.273 -2.257
2.342 0.599 -1.57
1.976 0.918 0.014
1.83 1.363 -3.817
1.863 2.209 -3.379
1.103 1.869 -4.167
1.884 1.434 1.198
2.541 0.959 2.592
1.842 1.579 2.299
0.651 1.408 4.781
1.35 0.788 5.074
0.82 0.891 4.947
-3.94 1.181 0.843
-1.891 3.826 2.497
-2.589 1.578 4.495
-1.092 -1.939 4.665
0.786 -2.653 -0.834
3.668 -0.309 3.703
2.756 0.481 5.071
2.756 -1.099 5.071
2.093 -0.513 -4.015

CELLS 282 1128
3 0 1 2
3 2 1 3
3 1 4 5
3 5 4 6
3 4 7 8
3 8 7 9
3 7 10 11
3 11 10 12
3 10 13 14
3 14 13 15
3 13 16 17
3 17 16 18
3 16 19 20
3 20 19 21
3 19 22 23
3 23 22 24
3 22 0 25
3 25 0 26
3 25 27 24
3 24 27 28
3 27 26 29
3 29 26 2
3 29 30 28
3 28 30 31
3 30 32 33
3 33 32 34
3 32 35 36
3 36 35 37
3 35 3 38
3 38 3 5
3 38 39 37
3 37 39 40
3 39 6 41
3 41 6 8
3 41 42 40
3 40 42 43
3 42 44 45
3 45 44 46
3 44 47 48
3 48 47 49
3 47 9 50
3 50 9 11
3 50 51 49
3 49 51 52
3 51 12 53
3 53 12 14
3 53 54 52
3 52 54 55
3 54 56 57
3 57 56 58
3 56 59 60
3 60 59 61
3 59 62 63
3 63 62 64
3 62 65 66
3 66 65 67
3 65 15 68
3 68 15 17
3 68 69 67
3 67 69 70
3 69 71 72
3 72 71 73
3 71 18 73
3 73 18 20
3 72 74 70
3 70 74 75
3 74 76 77
3 77 76 78
3 76 21 78
3 78 21 23
3 77 79 75
3 75 79 80
3 79 81 82
3 82 81 83
3 81 31 84
3 84 31 33
3 84 85 83
3 83 85 86
3 85 87 88
3 88 87 89
3 87 90 89
3 89 90 91
3 90 34 92
3 92 34 36
3 92 93 91
3 91 93 94
3 93 95 96
3 96 95 97
3 95 98 99
3 99 98 100
3 98 101 100
3 100 101 102
3 101 103 104
3 104 103 105
3 103 43 106
3 106 43 45
3 106 46 105
3 105 46 48
3 104 107 102
3 102 107 108
3 107 109 110
3 110 109 111
3 109 55 112
3 112 55 57
3 112 113 111
3 111 113 114
3 113 115 116
3 116 115 117
3 115 58 118
3 118 58 60
3 118 119 117
3 117 119 120
3 119 121 122
3 122 121 123
3 121 61 124
3 124 61 63
3 124 97 123
3 123 97 99
3 122 125 120
3 120 125 126
3 125 108 127
3 127 108 110
3 127 114 126
3 126 114 116
3 96 128 94
3 94 128 129
3 128 64 130
3 130 64 66
3 130 131 129
3 129 131 132
3 131 80 133
3 133 80 82
3 133 86 132
3 132 86 88
3 26 0 2
3 5 3 1
3 8 6 4
3 11 9 7
3 14 12 10
3 17 15 13
3 20 18 16
3 23 21 19
3 25 24 22
3 29 28 27
3 33 31 30
3 36 34 32
3 38 37 35
3 41 40 39
3 45 43 42
3 48 46 44
3 50 49 47
3 53 52 51
3 57 55 54
3 60 58 56
3 63 61 59
3 66 64 62
3 68 67 65
3 72 70 69
3 77 75 74
3 82 80 79
3 84 83 81
3 88 86 85
3 92 91 90
3 96 94 93
3 99 97 95
3 104 102 101
3 106 105 103
3 110 108 107
3 112 111 109
3 116 114 113
3 118 117 115
3 122 120 119
3 124 123 121
3 127 126 125
3 130 129 128
3 133 132 131
3 0 22 134
3 0 134 4
3 0 4 1
3 4 134 7
3 7 134 13
3 7 13 10
3 13 134 16
3 16 134 19
3 19 134 22
3 3 35 2
3 2 35 32
3 2 32 30
3 2 30 29
3 6 39 38
3 6 38 5
3 9 47 42
3 9 42 8
3 8 42 41
3 42 47 44
3 12 51 11
3 11 51 50
3 15 65 56
3 15 56 54
3 15 54 53
3 15 53 14
3 56 65 62
3 56 62 59
3 71 69 135
3 71 135 18
3 18 135 17
3 17 135 68
3 68 135 69
3 76 74 73
3 76 73 20
3 76 20 21
3 73 74 72
3 24 28 136
3 24 136 23
3 23 136 78
3 78 136 77
3 77 136 79
3 79 136 81
3 81 136 31
3 31 136 28
3 26 27 25
3 34 90 87
3 34 87 137
3 34 137 33
3 33 137 84
3 84 137 85
3 85 137 87
3 37 40 36
3 36 40 43
3 36 43 138
3 36 138 92
3 92 138 93
3 93 138 98
3 93 98 95
3 98 138 101
3 101 138 43
3 101 43 103
3 46 106 45
3 49 52 109
3 49 109 48
3 48 109 107
3 48 107 105
3 105 107 104
3 109 52 55
3 58 115 113
3 58 113 57
3 57 113 112
3 61 121 119
3 61 119 118
3 61 118 60
3 64 128 63
3 63 128 124
3 124 128 97
3 97 128 96
3 67 70 66
3 66 70 130
3 130 70 131
3 131 70 75
3 131 75 80
3 83 86 82
3 82 86 133
3 139 140 141
3 139 141 89
3 139 89 91
3 139 91 94
3 139 94 129
3 139 129 140
3 140 129 132
3 140 132 88
3 140 88 141
3 141 88 89
3 102 108 142
3 102 142 100
3 100 142 99
3 99 142 123
3 123 142 122
3 122 142 125
3 125 142 108
3 111 114 110
3 110 114 127
3 117 120 116
3 116 120 126

CELL_TYPES 282
5
5
5
5
5
5
5
5
5
5
5
5
5
5
5
5
5
5
5
5
5
5
5
5
5
5
5
5
5
5
5
5
5
5
5
5
5
5
5
5
5
5
5
5
5
5
5
5
5
5
5
5
5
5
5
5
5
5
5
5
5
5
5
5
5
5
5
5
5
5
5
5
5
5
5
5
5
5
5
5
5
5
5
5
5
5
5
5
5
5
5
5
5
5
5
5
5
5
5
5
5
5
5
5
5
5
5
5
5
5
5
5
5
5
5
5
5
5
5
5
5
5
5
5
5
5
5
5
5
5
5
5
5
5
5
5
5
5
5
5
5
5
5
5
5
5
5
5
5
5
5
5
5
5
5
5
5
5
5
5
5
5
5
5
5
5
5
5
5
5
5
5
5
5
5
5
5
5
5
5
5
5
5
5
5
5
5
5
5
5
5
5
5
5
5
5
5
5
5
5
5
5
5
5
5
5
5
5
5
5
5
5
5
5
5
5
5
5
5
5
5
5
5
5
5
5
5
5
5
5
5
5
5
5
5
5
5
5
5
5
5
5
5
5
5
5
5
5
5
5
5
5
5
5
5
5
5
5
5
5
5
5
5
5
5
5
5
5
5
5
5
5
5
5
5
5
5
5
5
5
5
5

CELL_DATA 282
SCALARS cell_data_0 double
LOOKUP_TABLE default
1.02204919884e-07
8.49000014318e-08
2.78265819477e-07
2.25033276908e-07
3.62653377873e-07
9.07169068253e-07
3.45280734443e-07
6.08272316203e-07
2.23775534286e-07
2.12611768265e-07
9.02576668016e-08
2.29051152417e-07
7.95819789901e-09
1.36942482105e-08
2.11204871604e-08
1.96813975944e-08
1.52596958791e-08
3.63188112028e-08
7.76526742763e-08
9.92316917342e-08
6.57291305429e-08
2.10240526897e-09
8.70849605998e-08
1.83844307586e-07
8.38152371996e-06
1.45239533654e-05
5.97433405797e-08
4.46553221006e-07
1.90677980182e-07
3.53767097828e-07
7.57173433019e-08
9.6554041641e-08
1.55857857096e-07
1.06968378251e-07
4.60221535367e-07
9.0580148859e-07
3.4164713992e-07
5.22223211052e-07
8.63574193774e-07
4.86339113737e-07
7.66184716884e-07
1.64651701838e-08
2.96238955321e-07
9.83767185925e-08
1.85513239451e-09
1.19843442668e-07
3.92436341414e-07
1.62638955685e-06
1.25793241944e-06
1.05610456467e-05
1.05242707789e-06
2.37049275843e-06
1.09137591245e-06
1.98544254645e-08
1.76821301398e-07
7.40191518491e-07
8.05632063719e-07
1.84960806948e-07
7.58524853305e-07
4.64901389703e-06
1.3608311482e-07
2.08778119754e-07
1.77820238894e-07
1.00753661753e-07
9.96478850185e-07
5.56115622629e-07
8.39652186584e-08
1.88110913571e-08
7.62613673336e-08
6.28769007494e-08
1.38377234302e-07
1.35057890267e-07
9.78173067362e-08
1.10946833321e-07
1.26112621647e-06
3.69443327356e-06
1.26442630552e-06
1.95860614896e-07
3.22825749666e-05
5.93355414583e-05
1.07251788402e-05
4.06888601895e-05
2.56410226602e-06
9.47007193201e-06
3.84828250816e-07
5.04306148912e-06
4.15948271435e-07
1.24612674734e-06
2.55224323741e-06
4.02926164606e-06
5.26718203191e-06
1.35916782385e-06
1.42386717964e-07
1.93057844321e-07
3.35638245111e-07
5.39618570432e-07
2.64774462719e-08
4.83282312815e-07
7.01609330673e-07
8.29636275822e-07
1.34577024579e-05
2.49439115502e-06
2.52468881727e-06
2.89100233748e-06
1.04892820691e-05
7.71548924293e-06
1.15579237826e-05
3.64897979228e-06
5.64791294064e-07
1.04058898075e-06
9.59622610492e-06
1.88797407825e-06
6.0718193768e-07
1.97388548026e-06
3.31349932946e-07
1.85620454584e-06
1.00295850785e-06
3.89181573242e-06
5.47721657097e-06
4.10093990183e-06
1.79091348559e-05
1.25744879493e-05
3.22856988295e-07
7.82038466072e-07
1.9420025574e-06
3.49460026376e-06
1.49421340296e-06
1.08337740739e-05
6.83849103389e-05
6.29496705813e-05
6.90045587296e-07
1.56378908447e-07
1.30142500133e-06
1.28906177275e-06
7.65922846752e-08
2.83287197088e-07
2.35757677334e-07
1.69866070454e-07
5.27485263578e-07
5.9695079353e-07
7.47071748082e-08
1.03468294428e-07
1.29451213385e-07
1.10934518037e-08
3.83369797909e-06
5.505414357e-06
3.7322155191e-07
8.2784754747e-08
2.48978476361e-07
3.72248511891e-07
4.07978614998e-07
9.14154864281e-07
9.50926265147e-06
4.50133667131e-06
9.98873636739e-07
1.49659061319e-06
7.78691781745e-07
2.29163335445e-07
3.80219562517e-08
1.27674947912e-08
4.9254609867e-07
5.25920633554e-07
2.6989967269e-06
2.41860800187e-06
2.6501845958e-06
2.54147872273e-07
1.72426002961e-07
1.09561023601e-05
4.915785533e-06
1.13044583567e-05
4.43921601788e-06
4.44951296577e-06
8.11541314586e-08
7.10658378714e-06
9.3839271803e-06
6.71386586089e-07
9.27370350795e-08
3.71200636754e-08
7.5439112098e-08
2.54052121085e-07
6.54162619015e-07
1.40910781607e-08
2.00943853237e-08
1.61813961652e-07
1.79643204807e-08
5.55078651837e-08
2.15929583248e-07
1.46561880425e-06
3.61459122558e-08
1.35617503907e-07
4.07916796961e-09
8.69963078136e-07
1.81613025321e-06
4.89579996109e-07
2.76779881551e-07
3.26235986429e-07
6.55058973659e-07
1.73340863644e-06
4.45850846044e-06
2.3491928613e-07
1.24152982885e-08
7.02429430923e-08
7.96218653107e-09
9.89913457769e-08
2.09030691038e-07
2.51876485019e-07
6.18755406084e-08
4.68701298384e-07
3.67660895358e-08
1.03552982814e-07
1.8263545933e-07
4.19071389463e-07
2.13288544899e-08
1.35989162898e-07
2.11683648162e-07
1.20794106843e-07
7.64200904307e-08
9.73627742172e-08
4.41117212835e-07
4.18449572019e-07
5.34100501088e-08
0.000143066717573
0.000461105385109
2.49578242355e-05
3.14659359877e-05
7.89768752296e-07
3.18905886858e-05
6.61924476123e-07
5.60433917928e-07
2.10986644584e-06
7.68331503381e-06
2.21146569928e-07
2.77029884363e-06
2.54411988912e-06
7.90175462576e-07
1.22246774975e-06
3.58196698099e-07
8.692452129e-07
1.82901745653e-06
6.69499207108e-07
5.44121247113e-06
6.61008058702e-07
1.06502436405e-07
2.25819232655e-06
2.921900878e-06
2.30260764447e-05
2.28506942402e-07
2.52673933208e-08
2.7527693202e-06
1.80523253281e-06
4.11315265684e-06
1.42108015475e-06
1.63231767105e-06
1.65632244516e-06
1.62436191718e-06
5.41802279157e-05
0.000224002617561
6.00852273178e-06
4.97244799485e-07
5.83431844024e-07
8.98752277515e-07
1.2622879945e-05
8.25642518836e-05
0.000135090183373
7.31754407903e-06
1.04997852874e-05
8.03740830968e-05
8.07954886467e-05
6.5271431541e-06
3.28655022098e-06
8.35927342972e-05
4.42677714023e-06
3.37792720073e-06
1.14473187568e-06
1.08638089027e-06
6.67747986393e-06
9.00533375013e-06
4.30929954049e-06
1.4003750938e-05
1.46745583113e-06
9.60252147507e-06
4.08939643402e-06

