# vtk DataFile Version 3.0
File Name: Molecule/arg/arg_4.5-0.vtk
ASCII
DATASET UNSTRUCTURED_GRID
FIELD FieldData 1
TIME 1 1 double
0.0
POINTS 758 double
-3.403 0.327 1.604
-3.45 0.103 1.078
-2.981 -0.361 1.858
-3.028 -0.584 1.332
-3.298 -0.003 0.536
-2.876 -0.691 0.79
-2.971 0.024 0.066
-2.549 -0.664 0.32
-2.984 0.046 0.042
-2.617 -0.045 -0.207
-2.63 -0.024 -0.229
-2.351 -0.22 -0.527
-2.365 -0.198 -0.55
-2.2 -0.483 -0.862
-2.216 -0.458 -0.889
-3.25 0.578 -0.258
-2.686 0.062 -0.328
-2.904 0.498 -0.574
-2.48 -0.047 -0.742
-2.684 0.361 -0.973
-2.39 -0.269 -1.153
-2.617 0.185 -1.409
-3.173 1.207 -0.458
-2.84 1.014 -0.738
-2.625 0.846 -1.127
-2.55 0.723 -1.58
-2.776 1.74 -0.497
-2.515 1.451 -0.77
-2.319 1.256 -1.157
-2.211 1.177 -1.613
-2.622 1.932 -0.429
-2.434 1.563 -0.734
-2.291 1.743 -0.67
-2.16 1.459 -1.077
-2.01 1.647 -1.011
-1.982 1.439 -1.492
-1.81 1.654 -1.416
-2.655 2.421 0.048
-2.046 2.135 -0.548
-2.075 2.574 -0.12
-1.615 2.438 -0.879
-1.647 2.927 -0.402
-2.495 2.657 0.67
-1.932 2.785 0.438
-1.488 3.163 0.22
-2.925 2.572 1.071
-2.137 2.872 1.156
-2.512 2.798 1.506
-1.863 3.333 1.507
-2.279 3.251 1.894
-3.186 2.284 1.521
-2.739 2.546 1.897
-2.53 2.972 2.328
-3.419 1.801 1.788
-2.888 2.359 1.917
-3.122 1.876 2.185
-2.717 2.558 2.345
-2.979 2.017 2.644
-3.567 1.179 1.827
-3.133 1.725 2.369
-3.262 1.186 2.403
-3.107 1.793 3.017
-3.25 1.192 3.055
-3.408 0.559 1.798
-3.123 0.649 2.378
-3.095 0.593 3.027
-3.105 0.348 2.085
-3.1 0.088 1.867
-2.97 0.105 2.152
-3.02 0.504 2.546
-2.901 0.29 2.606
-2.978 0.383 3.085
-2.865 -0.346 2.113
-2.52 -0.7 2.425
-2.794 0.071 2.575
-2.491 -0.24 2.849
-2.645 0.041 3.387
-2.46 -1.117 2.184
-2.148 -0.9 2.844
-2.09 -1.3 2.613
-2.003 -1.142 3.367
-1.937 -1.6 3.103
-2.268 -1.45 1.888
-1.906 -1.62 2.328
-1.726 -1.965 2.777
-1.967 -1.659 1.57
-1.617 -1.821 2.023
-1.396 -2.195 2.428
-1.592 -1.721 1.268
-1.257 -1.88 1.733
-0.984 -2.263 2.097
-2.026 -1.588 0.931
-1.237 -1.838 0.739
-1.646 -1.713 0.421
-0.96 -2.23 0.303
-1.437 -2.084 -0.068
-2.342 -1.257 0.596
-1.944 -1.402 0.106
-1.784 -1.721 -0.435
-2.487 -0.785 0.321
-2.08 -0.956 -0.154
-1.943 -1.202 -0.738
-2.189 -0.632 -0.224
-2.248 -0.516 -0.225
-2.131 -0.618 -0.861
-2.114 -0.682 -1.181
-1.927 -1.264 -1.052
-2.312 -0.441 -1.376
-2.121 -0.506 -1.916
-2.042 -0.816 -1.214
-1.838 -0.886 -1.79
-1.682 -1.348 -1.746
-1.975 -0.256 -2.322
-1.864 -0.768 -1.888
-1.672 -0.441 -2.421
-1.897 0.192 -2.527
-1.57 0.147 -2.691
-1.996 0.646 -2.441
-1.495 0.306 -2.776
-1.602 0.798 -2.682
-1.198 0.386 -3.152
-1.328 0.981 -3.039
-2.011 1.039 -2.18
-1.619 1.224 -2.399
-1.348 1.496 -2.696
-1.72 1.257 -2.235
-1.479 1.817 -1.75
-1.107 2.057 -2.211
-1.346 2.153 -1.415
-1.642 2.007 -1.116
-1.319 2.584 -1.178
-0.816 3.013 -1.267
-1.111 2.259 -1.642
-0.623 2.675 -1.729
-0.543 2.537 -2.312
0.466 3.148 -0.891
-0.416 2.926 -1.599
0.331 3.005 -1.38
-0.131 2.956 -2.042
0.328 3.005 -1.907
-0.002 3.1 -2.533
0.456 3.148 -2.398
-0.048 3.337 -3.001
0.699 3.415 -2.782
0.833 2.913 -0.61
0.619 2.806 -1.364
0.976 2.577 -1.092
0.892 2.689 -1.891
1.303 2.425 -1.576
1.057 2.557 -0.305
1.192 2.232 -0.796
1.553 2.026 -1.234
0.979 2.767 0.195
1.24 2.204 -0.113
1.167 2.404 0.362
1.539 1.918 0.039
1.462 2.128 0.539
0.737 2.845 0.68
0.936 2.478 0.823
1.22 2.206 1.024
0.406 3.093 0.833
0.71 2.572 1.142
0.419 2.789 1.277
0.841 2.425 1.643
0.539 2.651 1.783
1.112 2.426 2.108
0.748 2.699 2.276
0.011 3.456 0.651
0.142 3.058 1.218
-0.201 3.373 1.06
-0.01 3.117 1.656
-0.348 3.428 1.5
-0.034 3.266 2.099
-0.415 3.616 1.924
-0.504 3.599 0.465
-0.648 3.497 0.898
-0.789 3.55 1.341
-0.913 3.754 1.744
-1.038 3.495 0.311
-1.112 3.406 0.765
-1.247 3.461 1.209
-1.429 3.653 1.595
-1.502 3.118 0.685
-1.632 3.177 1.131
-0.05 3.403 2.531
0.304 2.919 2.221
0.288 3.057 2.654
0.729 2.855 2.766
-0.175 3.437 2.964
0.162 3.091 3.09
0.587 2.894 3.259
-0.395 3.364 3.353
-0.059 3.019 3.48
0.337 2.812 3.701
-0.687 3.194 3.654
-0.352 2.847 3.783
0.006 2.617 4.044
-1.13 3.18 3.766
-0.58 2.815 3.881
-1.094 2.799 4.011
-1.584 3.151 3.721
-1.62 2.766 3.959
-1.995 3.111 3.523
-2.096 2.719 3.73
-2.312 3.063 3.198
-2.464 2.664 3.352
-2.498 3.015 2.783
-2.679 2.608 2.871
-0.832 2.373 4.277
-0.242 2.183 4.431
-1.061 1.806 4.483
-0.466 1.628 4.634
-1.364 2.231 4.354
-1.452 1.611 4.604
-1.713 1.977 4.492
-1.735 2.528 4.103
-2.033 2.233 4.276
-2.128 2.66 3.763
-2.373 2.347 3.982
-2.496 2.611 3.374
-2.69 2.305 3.646
-2.791 2.388 2.985
-2.945 2.113 3.311
-1.464 1.095 4.666
-0.956 1.592 4.533
-0.968 1.074 4.596
-0.48 1.041 4.705
-1.655 0.731 4.634
-0.882 0.784 4.614
-1.066 0.434 4.582
-0.333 0.517 4.869
-0.555 0.096 4.831
-2.14 0.383 4.441
-1.383 0.368 4.531
-1.833 0.044 4.353
-1.114 -0.009 4.584
-1.587 -0.349 4.396
-0.878 -0.357 4.785
-1.429 -0.753 4.566
-2.498 0.133 3.99
-2.165 -0.188 3.934
-1.936 -0.593 3.956
-1.836 -1.037 4.053
-2.301 -0.273 3.375
-2.078 -0.682 3.368
-0.557 -0.612 4.999
-0.228 -0.165 5.05
-0.202 -0.89 5.102
0.134 -0.447 5.155
0.164 -1.171 5.088
0.507 -0.734 5.141
0.37 -1.612 4.973
0.615 -0.976 5.092
0.811 -1.395 4.983
1.043 -0.806 5.264
1.249 -1.247 5.15
0.578 -1.993 4.725
1.008 -1.757 4.747
1.457 -1.629 4.901
0.77 -2.282 4.364
1.191 -2.031 4.405
1.649 -1.918 4.541
0.93 -2.454 3.923
1.343 -2.194 3.985
1.809 -2.089 4.099
1.044 -2.494 3.437
1.451 -2.232 3.524
1.923 -2.129 3.613
1.103 -2.399 2.949
1.506 -2.141 3.061
1.981 -2.034 3.126
1.1 -2.176 2.501
1.504 -1.93 2.635
1.979 -1.811 2.678
1.037 -1.846 2.131
1.444 -1.616 2.284
1.916 -1.481 2.307
0.647 -2.269 2.118
0.836 -1.714 1.711
0.512 -2.064 1.7
0.77 -1.662 1.233
0.47 -1.987 1.224
0.848 -1.697 0.757
0.525 -2.047 0.746
1.061 -1.813 0.337
0.67 -2.236 0.324
0.119 -2.499 2.107
0.075 -2.255 1.691
0.064 -2.164 1.215
0.088 -2.237 0.737
0.142 -2.466 0.313
-0.457 -2.497 2.099
-0.401 -2.253 1.685
-0.378 -2.162 1.209
-0.389 -2.235 0.73
-0.434 -2.464 0.306
-0.837 -2.059 1.682
-0.782 -1.983 1.207
-0.825 -2.042 0.728
1.48 -1.078 0.031
1.032 -1.487 0.709
1.333 -0.958 0.489
1.12 -1.273 1.146
1.358 -0.854 0.972
1.315 -1.197 1.595
1.553 -0.779 1.421
1.592 -1.27 1.999
1.893 -0.741 1.779
2.335 -0.746 2.002
1.639 -0.712 -0.547
1.476 -0.549 0.311
1.615 -0.229 -0.195
1.697 -0.118 0.66
1.842 0.216 0.134
1.696 -1.15 -0.796
1.805 -0.426 -1.067
1.856 -0.818 -1.29
2.201 -0.141 -1.444
2.256 -0.562 -1.683
1.615 -1.54 -1.111
1.784 -1.167 -1.572
2.179 -0.936 -1.985
1.405 -1.841 -1.462
1.595 -1.437 -1.886
1.977 -1.225 -2.321
1.085 -2.024 -1.812
1.309 -1.6 -2.199
1.67 -1.4 -2.657
0.689 -2.07 -2.126
0.955 -1.641 -2.48
1.29 -1.444 -2.958
0.256 -1.974 -2.373
0.567 -1.556 -2.702
0.875 -1.352 -3.195
-0.171 -1.746 -2.529
0.186 -1.352 -2.841
0.466 -1.134 -3.344
-0.548 -1.409 -2.576
-0.152 -1.05 -2.884
0.104 -0.811 -3.39
-0.822 -1.287 -2.506
-0.408 -0.948 -2.806
-0.669 -0.831 -2.739
-0.336 -0.591 -3.197
-0.616 -0.466 -3.125
-1.31 -1.347 -2.194
-0.988 -0.705 -2.664
-1.485 -0.767 -2.346
-1.322 -0.31 -2.728
-0.95 -0.071 -3.189
-0.311 -0.212 -3.619
0.128 -0.454 -3.788
-0.16 0.24 -3.931
0.27 -0.03 -4.081
0.101 0.716 -4.098
0.516 0.418 -4.238
-0.411 1.252 -3.909
0.377 1.347 -4.4
0.11 1.626 -4.301
-0.398 1.946 -3.588
0.117 1.987 -4.134
-0.712 2.237 -2.975
-0.106 2.463 -3.53
-0.314 2.656 -3.124
0.028 3.029 -3.665
-0.135 3.18 -3.347
-0.202 2.855 -2.684
0.9 3.106 -3.671
0.173 2.486 -3.833
0.85 2.546 -3.838
0.989 2.064 -4.14
0.819 3.383 -2.845
1.267 2.733 -3.406
1.204 2.948 -2.765
1.749 2.404 -3.353
1.668 2.681 -2.526
0.902 2.914 -2.485
0.749 2.956 -2.405
1.123 2.627 -2.01
1.688 2.19 -1.733
1.962 2.454 -2.382
2.133 1.624 -1.992
2.194 2.159 -2.516
2.141 1.301 -1.585
2.428 1.273 -2.257
2.435 0.969 -1.874
2.042 0.907 -1.262
2.342 0.599 -1.57
1.911 1.516 -1.257
1.855 0.911 -0.632
1.743 1.428 -0.628
1.976 0.918 0.014
1.858 1.462 0.018
1.44 1.861 -0.608
1.861 0.778 -0.544
1.751 0.201 -0.446
1.991 0.665 -1.105
1.878 0.074 -1.004
2.497 1.237 -3.182
2.241 1.687 -2.422
2.29 1.662 -3.078
2.232 2.14 -3.028
1.83 1.363 -3.817
1.817 1.751 -3.528
1.863 2.209 -3.379
1.382 0.739 -4.338
1.413 1.57 -3.947
1.095 1.128 -4.316
1.103 1.869 -4.167
0.855 1.524 -4.455
0.482 0.901 -4.245
1.404 2.01 -3.684
1.315 2.161 -3.664
2.007 0.383 0.735
1.766 -0.192 1.22
2.031 0.236 1.284
1.991 -0.414 1.693
2.267 0.032 1.759
2.675 -0.196 2.083
2.074 0.941 0.928
2.088 0.713 1.449
2.326 0.528 1.931
2.749 0.417 2.295
1.884 1.434 1.198
1.926 1.135 1.68
2.158 0.967 2.172
2.541 0.959 2.592
1.624 1.884 1.117
1.755 1.469 1.75
1.503 1.904 1.671
1.842 1.579 2.299
1.557 2.073 2.21
1.11 2.216 1.58
1.886 1.845 2.759
2.132 1.224 2.493
2.174 1.477 2.929
2.585 1.225 3.051
1.814 2.002 3.263
2.105 1.625 3.407
2.513 1.382 3.555
1.633 2.033 3.763
1.933 1.655 3.881
2.331 1.413 4.055
1.359 1.937 4.21
1.674 1.563 4.305
2.058 1.316 4.502
1.021 1.721 4.561
1.354 1.359 4.638
1.72 1.101 4.853
0.651 1.408 4.781
1.002 1.062 4.847
1.35 0.788 5.074
0.073 1.245 4.841
0.82 0.891 4.947
0.23 0.725 5.008
0.672 0.387 5.179
1.205 0.294 5.301
0.564 -0.173 5.245
1.099 -0.256 5.367
-2.386 -0.309 -0.179
-1.834 2.861 0.759
0.558 2.832 -1.902
1.396 -0.602 0.696
1.678 -0.195 -0.741
-3.196 1.674 -0.347
-3.592 1.181 -0.113
-3.592 1.659 0.015
-3.196 2.092 -0.068
-3.592 2.009 0.365
-3.196 2.371 0.35
-3.592 2.137 0.843
-3.196 2.469 0.843
-3.592 2.009 1.321
-3.85 1.69 0.843
-3.85 1.435 1.283
-3.592 0.353 0.365
-3.85 0.672 0.843
-3.85 0.927 0.403
-3.592 0.703 0.015
-3.85 1.435 0.403
-3.94 1.181 0.843
-3.85 0.927 1.283
-2.722 -1.065 0.889
-2.722 -1.193 1.367
-2.722 -1.065 1.845
-2.326 -1.525 1.367
-2.215 0.056 -2.317
-2.52 0.083 -1.912
-2.52 0.561 -1.912
-2.215 0.588 -2.317
0.763 3.18 -0.086
0.367 3.414 -0.579
0.367 3.512 -0.086
0.367 3.414 0.407
-0.118 3.6 -0.587
-0.118 3.688 -0.086
-0.634 3.6 -0.587
-0.634 3.688 -0.086
-1.119 3.512 -0.086
-1.119 3.414 -0.579
-1.119 3.135 -0.997
-0.505 3.722 2.986
-0.505 3.826 2.497
-0.957 3.899 2.99
-0.957 3.634 3.417
-0.957 3.899 2.004
-0.957 3.991 2.497
-1.439 3.899 2.99
-1.439 3.634 3.417
-1.439 3.899 2.004
-1.439 3.991 2.497
-1.891 3.826 2.497
-1.891 3.722 2.986
-1.891 3.429 3.39
-1.891 3.722 2.008
-2.261 3.517 2.497
-2.261 3.375 2.979
-1.138 2.539 4.21
[...]
CELL_DATA 1512
SCALARS cell_data_0 double
LOOKUP_TABLE default
6.44161789126e-10
1.4126355786e-08
1.74115936987e-08
2.19700717571e-08
4.36989721209e-09
3.63147833067e-09
6.85784109499e-10
6.10829384468e-10
2.89644817229e-10
4.74874484651e-10
6.2968244708e-11
1.58065325121e-09
1.71156651235e-08
1.0989708806e-08
1.38967891597e-08
1.28650279787e-08
1.44604371118e-08
1.89131092584e-08
4.54353330613e-08
2.98075891738e-08
1.71384304467e-09
1.11381180578e-07
1.22559862289e-07
2.00864539707e-07
1.64968447349e-07
1.1893943807e-07
9.25540263656e-08
1.11545106833e-07
1.95772428537e-07
1.40457266793e-07
9.85502090771e-09
3.24540175235e-08
1.96020088259e-08
2.14419055108e-08
1.03622232652e-08
2.00403316027e-08
1.23499614066e-07
1.14981758042e-08
3.46970954093e-08
3.47120589647e-08
1.23262801682e-08
1.79662441009e-09
8.91308496424e-10
1.87367456592e-08
1.78614860986e-10
1.8997283896e-11
1.01180044725e-09
9.43235272838e-10
1.88940733447e-11
6.24460465852e-10
5.57149281868e-10
9.6572374877e-09
1.72366507384e-09
6.12155064525e-10
2.58996077538e-09
9.76753237909e-10
7.67066159203e-09
4.94355578873e-09
2.53582212458e-09
1.00428157457e-08
5.56956723087e-09
3.65934545427e-09
2.59159103605e-09
4.07772901436e-09
1.24774281423e-09
3.50327272346e-09
1.01736136359e-10
8.28955487145e-10
9.75118770373e-10
9.17627468064e-10
3.30791951502e-09
2.51567936672e-09
1.25582076693e-10
2.06639091155e-09
3.24901853593e-09
2.59585486308e-09
4.15604316225e-09
1.58246253429e-09
2.98364186719e-09
3.79102216535e-09
4.33608568259e-10
2.15937049656e-09
6.95997010423e-11
2.27107965562e-09
1.28695564405e-09
3.21769766904e-10
1.3186282242e-09
1.91868010096e-09
2.14374295465e-09
2.76164471494e-09
1.58554992501e-11
4.94516930975e-09
2.44905386059e-09
2.43808308698e-09
9.39873509595e-09
8.78067024138e-09
9.34113368865e-10
2.09780028748e-10
5.84732157838e-10
1.56121898799e-09
8.84885073351e-10
5.17703050991e-10
3.66938931053e-10
1.44085701348e-09
1.03689344791e-09
9.30620044028e-10
2.17968165002e-10
1.34226791373e-09
8.6429134346e-10
3.59972725595e-10
1.37764057699e-08
1.86668206288e-09
9.12010940589e-10
2.09942783383e-09
2.60937219081e-11
1.76992764644e-10
1.26800092589e-09
1.07893472319e-09
4.32913950452e-10
8.01475580584e-10
1.50363769817e-09
1.088066315e-09
3.85678743628e-10
1.24265389772e-09
9.90319674393e-11
3.5314590461e-10
7.06275278066e-10
5.326226686e-10
2.73197425298e-08
5.09473805666e-08
3.47667583119e-09
9.56841022688e-10
2.04678976182e-08
1.67222552929e-08
6.92275580393e-10
1.12178955193e-08
3.34213117628e-09
1.80568680377e-09
7.38564751398e-09
8.33021441015e-09
1.48749328713e-08
6.49083014191e-09
6.24855629846e-09
7.95506408828e-10
1.69112660444e-09
7.56726254995e-10
3.32202433913e-10
4.23112771871e-10
2.16694884952e-10
2.95999496332e-10
1.94751308401e-09
3.58039802051e-09
4.00097907508e-11
1.34679564025e-09
5.43735620183e-10
1.4905773636e-09
5.41358366267e-09
1.92901194986e-09
4.00981141186e-09
2.7058055941e-09
2.73842104012e-09
3.54170723549e-09
2.13926277218e-09
9.06361395935e-10
4.11963327627e-09
2.46506106645e-09
5.10669467376e-11
8.83054748353e-11
1.13820714871e-09
5.41595586812e-09
1.31440920216e-09
2.91966930398e-11
5.30437335674e-11
2.20013944645e-09
6.2785479324e-10
1.50219919251e-09
1.18382720631e-09
3.17053463117e-10
1.55029828598e-09
1.08677506629e-09
1.21123186747e-09
8.90635135217e-10
2.03853897577e-09
1.58101494771e-09
1.24967770765e-10
6.3970358566e-10
1.13987035707e-09
3.3414350439e-10
6.63014367781e-09
5.58752043352e-09
6.38821723364e-10
1.29986434068e-09
1.44320552175e-09
8.32080155572e-10
2.22523729678e-09
5.23027220697e-09
7.62609046293e-09
1.29156865346e-08
5.91686519488e-09
3.39294510901e-09
5.53559200938e-09
7.12309525949e-10
8.40671992295e-12
4.33995607701e-10
1.10709713419e-10
3.18452131764e-10
2.84308223317e-09
1.79292896436e-09
4.3614543757e-10
7.13653580789e-09
3.66377625943e-09
8.67062916034e-10
2.7761328656e-10
9.12589118951e-10
3.59896481413e-09
3.10988650485e-09
4.957522941e-09
9.74973201494e-10
6.31807167415e-09
2.09483929134e-09
4.79169389903e-09
9.20760202835e-09
6.50869471509e-09
6.03165321987e-09
1.72057095531e-08
1.59897568073e-08
3.68562046218e-09
6.79741117625e-09
4.83792242392e-10
4.23867152444e-09
6.33370936402e-09
2.94718151155e-09
2.35432687429e-09
4.58971950728e-10
1.07696247985e-09
9.83999816875e-10
1.67955843062e-09
1.90066780034e-09
8.09239434778e-09
1.70358889515e-09
3.72275901811e-09
4.52790687587e-09
8.03749815937e-09
1.26965060734e-09
1.52312471012e-08
1.3998345885e-08
6.84305850786e-09
2.12226921637e-09
2.80582732688e-09
1.58754730226e-09
9.45859684207e-09
9.3467181635e-09
6.89817347831e-09
8.7569603699e-09
1.33248861794e-10
2.41531805407e-10
3.47808399971e-09
1.45967486809e-10
7.02727490742e-09
1.97192193177e-09
3.56897095687e-09
2.54790998527e-09
1.88593247416e-09
2.49281377737e-09
1.93351175219e-08
5.82545505466e-09
9.52151036621e-10
3.08431494103e-10
1.09022853021e-09
6.36427597424e-09
1.59249788923e-10
3.32737781632e-09
9.21381721846e-09
7.99559957716e-09
1.549823012e-09
1.36668457189e-09
1.68014170143e-09
4.85905030896e-09
4.36268128833e-09
1.43081871447e-09
2.20831821789e-09
2.03866075222e-09
2.29591297228e-09
6.31968356367e-10
3.75542460282e-10
2.61760198248e-09
3.32689957403e-09
3.60653747966e-10
4.72768544153e-09
7.05601775904e-09
5.98560550774e-10
1.63648456696e-09
3.4297627734e-09
3.51778741019e-09
5.17572312205e-10
3.00216775652e-09
1.2843189755e-09
2.21705718693e-10
2.21731462174e-09
1.85277403747e-09
1.57518748505e-09
2.37377228901e-09
4.6921250131e-10
1.8241900832e-09
4.02660267603e-09
2.78222973892e-09
6.86449174451e-10
9.39772414993e-10
2.1669907871e-09
5.81741519871e-10
3.05809631581e-10
7.00430446077e-10
1.41401661512e-09
1.28883696521e-09
1.25226654904e-09
8.84385664185e-10
2.02788100827e-11
1.27894430786e-11
3.17599205518e-10
1.70548276319e-10
1.15920711126e-09
8.51116294204e-10
6.39477962469e-10
9.40205996121e-10
1.06419589827e-09
1.71953452895e-09
2.30138267619e-09
4.31480399866e-09
1.84424303326e-09
3.0389415521e-10
2.21963255477e-09
4.21126799641e-09
3.13549641344e-09
6.17065951477e-09
3.82382570251e-09
4.4270857832e-09
2.82099970748e-09
6.88962902665e-10
6.03769658337e-09
4.41172129055e-09
2.48635674168e-09
8.36378026997e-09
1.13004167853e-08
7.90580741046e-09
1.37300007058e-09
4.04243396085e-10
2.34980050459e-10
7.06414847936e-10
6.0546659283e-11
7.57836700735e-10
5.05259858935e-10
2.06439087206e-09
1.3154038321e-09
7.49997172487e-09
4.22769140855e-09
1.45825472174e-09
1.29617911961e-09
1.1946244313e-08
9.41107142703e-09
6.77238639536e-09
2.95540087853e-08
9.06856129496e-08
4.54169816195e-08
5.79058899935e-09
9.46792910814e-08
5.84655357936e-08
5.15766068362e-09
1.07197298947e-07
2.32512143263e-09
3.68488887309e-07
3.19970530247e-07
2.47316269718e-07
4.19562797697e-07
4.89507990322e-07
3.98530960029e-07
1.36634831191e-07
1.31824049419e-07
7.3217386955e-09
6.00067072011e-08
4.99806610684e-08
7.57658407803e-08
1.32503842049e-08
1.44715075767e-08
9.29017038439e-08
5.65388410521e-08
2.69364092523e-07
2.56813599975e-07
2.67947040378e-07
5.21492573012e-08
1.8176191931e-07
1.71398888554e-07
1.00157489345e-07
2.16564273018e-08
4.72685138891e-08
7.395685714e-08
8.63483677307e-08
3.9345566241e-09
4.56641106054e-09
9.74952849787e-09
6.50013050424e-10
2.66054934415e-08
1.19096370886e-08
1.41029863204e-08
1.29240041579e-08
1.61248225802e-08
1.37110642134e-08
9.52111353818e-09
1.98318079137e-09
1.76313379947e-09
4.05470841659e-09
6.19904770406e-08
2.55889229476e-08
1.47496440192e-08
8.06218996093e-08
5.03430055251e-08
2.92662171918e-08
5.69964989071e-09
5.88910797581e-09
5.45866507928e-09
1.39386582154e-10
1.28336877013e-08
1.47807901844e-08
6.99831966188e-08
1.6135162361e-09
8.42802573374e-09
4.23224204511e-09
9.87467030188e-09
4.85459285038e-09
3.63808152508e-10
5.07295083358e-09
1.42853061394e-08
6.18728836096e-08
7.07483744319e-08
1.33837100185e-07
7.528855996e-08
7.8285684591e-08
1.19874183822e-07
1.94320794885e-07
1.06589944968e-08
2.70890743125e-08
3.85371984763e-07
3.27151774244e-07
3.24847059571e-07
6.30410715638e-08
3.49828136907e-07
6.2639462467e-08
1.53556056258e-07
9.51394781059e-08
9.33375404901e-09
2.26334399582e-07
1.33839856411e-07
7.71138901005e-08
9.13057264996e-09
6.15304694886e-09
1.29036654716e-09
4.16021421699e-09
2.17493432143e-09
2.47489435367e-09
8.16308573927e-10
6.26401975656e-10
1.04097031129e-08
8.58669144549e-09
2.20184741923e-09
4.04311363181e-09
5.07362202217e-10
3.32126330309e-10
6.71370481874e-10
4.27723491798e-10
2.6586685372e-10
1.8725487847e-09
7.52171057975e-10
3.26656686866e-09
1.86439547558e-09
1.06183995071e-09
1.68899092597e-09
3.76137899039e-09
3.61028688688e-09
4.54430683093e-09
1.02308056831e-09
3.26954910402e-09
1.90841361509e-09
1.27764196714e-08
1.02808931972e-08
5.05103748394e-09
5.54980891327e-09
7.29583050937e-09
1.41975712744e-09
7.85263531703e-09
4.04102710865e-09
9.99796961165e-09
1.12991387214e-08
6.92362793737e-09
2.41495148098e-09
1.60705004158e-08
6.11631412984e-10
2.02760059213e-09
9.17162600102e-09
1.15063699e-08
2.65276529823e-09
1.47530178116e-09
4.53019235383e-09
8.18909603189e-09
2.10237368286e-09
1.75846777959e-09
1.91539225621e-09
2.43448648146e-09
1.18556600097e-09
8.93185997125e-10
8.5659478519e-10
6.43675313177e-10
3.78239920644e-09
2.88254554293e-09
2.3263321013e-11
1.65609486691e-08
1.05331673519e-08
1.32467901959e-08
9.32670170333e-10
1.51004648867e-08
1.01139377277e-08
1.93210860716e-08
9.0193934983e-11
3.09333683851e-10
4.22388013936e-09
1.18860352744e-09
3.10779221454e-09
1.30627944456e-08
8.13336366125e-09
5.39736644179e-10
1.2789896055e-08
2.04520666726e-08
1.71311488066e-09
3.61828431537e-09
1.42778060322e-08
1.12367092973e-08
6.19309311821e-09
2.44459533307e-09
4.32403458035e-08
6.77833989727e-09
1.1766819118e-08
7.8576552239e-09
2.34862499388e-08
2.01905974208e-08
1.40085920072e-09
2.13899284815e-08
6.87587556397e-09
5.94778723839e-08
9.44843794706e-09
1.42904536915e-09
8.70579478822e-10
1.12066330681e-09
5.2482644943e-10
1.33830149826e-10
1.62314790147e-09
5.24751391938e-09
1.91594156282e-10
1.1796810524e-10
8.99721066349e-10
3.26288623246e-11
2.85151710586e-10
2.59049090282e-10
5.03199584787e-10
1.94473060893e-09
9.80348783007e-10
5.43917887355e-11
2.02846944617e-09
8.21074889682e-11
6.29020525439e-10
1.95672045453e-09
3.05636966879e-09
4.56215070861e-09
4.09662740697e-09
1.89361575078e-10
1.86262523527e-09
1.08952319983e-09
3.70635782734e-09
6.93131930181e-09
3.16516132577e-09
2.045975067e-09
1.19001179894e-09
1.95786286145e-10
2.40496677117e-10
1.70890871517e-10
4.40508575575e-10
3.28305770337e-10
3.60755692766e-10
2.26392955832e-10
1.22370266122e-10
2.78071731191e-09
3.4368705471e-10
2.33343427876e-11
9.08946434876e-11
3.28995790811e-10
1.08273991372e-09
4.98410754115e-09
1.23792115417e-09
3.28949447513e-09
6.77955788629e-10
1.40965467041e-08
1.17581250372e-08
1.21771611882e-08
1.43802306816e-08
7.35340494311e-10
1.05825875849e-08
1.00429069299e-08
5.98862759364e-09
4.3506969657e-09
2.14866506862e-09
4.79443705363e-10
8.01446884648e-09
3.83560209671e-09
6.44239930012e-09
3.06361664584e-10
9.27832453876e-10
1.60178407054e-09
3.02402734076e-09
4.12193817796e-10
9.77932978423e-12
1.30479658935e-09
6.23829693162e-10
2.63142377644e-09
1.60263020619e-09
3.0323862316e-09
1.04689655973e-09
1.31170077448e-08
7.43786917762e-10
1.12746020796e-09
1.63215564685e-08
7.30479185688e-10
1.52087646001e-09
1.54452243824e-09
6.25557863153e-10
1.76961754507e-09
6.95601901052e-09
3.80794261798e-09
1.27130323638e-09
6.78122372018e-09
6.94149031747e-09
3.75708937723e-09
1.59914078524e-09
2.05646127548e-10
1.71794520315e-09
1.19839010753e-09
1.27223658781e-09
7.26723791415e-11
2.73820656191e-09
4.22575301625e-09
3.06932146849e-09
9.60830370907e-10
1.59410527451e-09
2.24520943444e-09
1.13499073743e-10
9.72654372359e-09
5.24913194026e-09
2.18061740497e-08
2.83692372635e-08
4.0556201813e-08
3.66119645889e-09
4.44216766049e-09
9.04795175054e-08
1.31663559144e-07
1.3392591414e-07
1.03085473918e-07
1.02648947541e-07
1.80004635686e-09
2.01418564766e-09
1.35068978955e-08
1.74040714286e-08
2.39456863598e-08
2.60794605585e-08
3.15200330685e-09
6.58235457214e-09
7.39076942384e-09
4.40701013272e-08
4.29799103234e-09
1.80925506128e-08
2.19190834965e-08
2.11143859053e-08
1.59252780593e-07
1.53881313259e-07
9.17172597146e-08
1.61467599523e-09
1.46615761408e-08
1.53255336022e-08
1.15813864299e-09
2.54635178354e-09
2.00699160045e-09
3.96494980328e-09
4.64870220856e-09
1.82135916403e-09
6.02449768638e-09
3.60862587145e-09
4.20187161321e-09
2.67937211458e-10
3.21288819682e-10
4.19199773695e-10
8.84614095808e-10
6.5121499329e-10
7.36205004474e-10
3.7646745988e-09
2.84819689516e-09
6.91681461777e-09
3.75805186752e-10
2.42585240268e-11
6.42485225979e-10
1.28729280844e-10
3.11741235974e-10
2.7239474582e-09
2.50838093809e-09
3.39034815101e-09
6.85048771232e-10
2.78810594114e-09
2.99585731279e-09
1.44413106517e-09
4.37965226477e-09
1.0849969199e-08
6.04862706024e-09
2.64020593773e-09
4.87200620154e-10
2.22685937583e-09
4.07050528363e-09
9.99338658056e-09
4.00487773321e-09
1.13326008993e-09
1.97457866509e-09
6.01596459702e-10
1.06021079359e-09
3.87480881844e-10
1.19825645852e-09
5.00245435922e-09
3.77795218802e-09
9.65176692519e-08
1.54827175504e-08
6.43023111002e-08
8.13419051365e-08
4.26597974675e-09
3.48280226786e-08
1.52789917676e-08
1.54391024238e-08
5.02943524252e-08
1.22710417389e-08
2.19354324448e-10
8.41949280263e-10
1.0446453974e-09
3.09299772032e-09
1.27007509896e-08
2.26378561676e-08
1.90549443754e-08
1.46695855782e-08
1.53958138558e-09
1.20834663595e-10
1.6036809034e-09
4.58960117853e-10
6.4861551352e-09
6.53970296478e-09
9.63078154835e-10
6.39821790707e-10
3.09772966082e-09
9.28018181722e-10
5.48920285763e-09
2.78790614386e-09
8.39291235489e-09
6.20571009605e-09
3.11409521704e-10
4.26907420692e-09
6.07425224888e-09
5.59285626122e-09
4.55346989544e-10
7.32127677646e-10
1.40716143576e-09
4.88670628381e-10
3.81693250632e-10
2.74640702339e-09
3.11082708327e-09
2.51047631748e-09
7.12137292574e-09
5.19067990145e-08
8.63267122135e-08
5.33519953738e-08
2.06507256269e-08
1.69739714886e-08
1.75323838499e-08
5.00290992707e-09
2.6352155841e-09
1.59134757995e-09
1.47351601652e-09
2.28045161763e-09
2.5488515886e-09
8.5793919123e-10
3.00365676985e-09
4.75891371895e-09
1.58967382661e-08
7.03233536725e-09
3.59787416705e-09
3.35129462598e-09
3.88062360266e-09
1.89458641975e-09
3.34368833947e-10
3.04935170971e-09
3.48620368216e-09
4.75950931563e-09
1.87886075833e-09
9.04295771919e-09
1.00038229886e-08
9.58554497976e-10
1.94271988143e-09
2.09253337521e-10
1.14349013716e-09
1.32438293058e-09
1.54313520307e-09
4.10299809452e-10
1.96305494811e-09
2.84175361074e-10
3.76353829099e-08
1.52632980193e-08
2.70174454054e-09
4.13905386738e-10
7.52395051365e-10
3.75710453874e-10
1.57465366686e-10
2.70156616886e-10
8.82336985613e-10
6.7213601503e-10
8.89918085806e-10
3.20389805268e-10
2.28227649919e-10
6.79706882319e-10
7.56808463113e-10
8.97954992524e-10
8.2261382488e-11
7.17816947724e-10
7.78650250444e-10
4.83617162284e-10
4.35435807536e-10
1.05088834794e-09
3.32436468043e-10
5.13045704807e-10
7.7554548647e-09
2.556976249e-09
3.82939585297e-09
4.55579384883e-09
2.40751913294e-09
4.76711215224e-09
3.22725374964e-09
2.53354310161e-10
4.3747764537e-11
9.75185702127e-10
3.77680487968e-09
4.14641317908e-09
1.55716912675e-09
4.35433112523e-11
6.98703582367e-10
1.37105724699e-09
3.60928364672e-09
3.21061194671e-10
1.73549584033e-10
1.00518639732e-09
7.80341190201e-10
1.03949473081e-10
5.77640121268e-10
3.24559608276e-10
4.7583587643e-09
7.73891607744e-09
1.55929491663e-10
2.56470624069e-09
1.69305220635e-09
1.14683721353e-09
8.46552864108e-11
6.26832482582e-11
7.36559444732e-10
1.3459541478e-10
7.58868377107e-10
2.23895571722e-09
2.84150072445e-09
1.99784250507e-09
5.28899925978e-10
3.5922196116e-09
9.25800388331e-11
1.01599261793e-10
5.14456785077e-10
5.5045124058e-10
1.17646599222e-09
3.28221309942e-10
2.83755075911e-10
2.90161971626e-10
1.11948337166e-09
1.08106040456e-09
7.99058182453e-11
6.80122316265e-10
3.18680615353e-10
3.36136244122e-10
6.71389684421e-10
1.01121344641e-10
6.70404579527e-11
2.00046062453e-09
1.04668740442e-09
1.18365539358e-09
1.10731580584e-10
2.38426703545e-09
1.49160434195e-09
1.65309967945e-09
3.78546032055e-09
2.14088462492e-09
4.97143192236e-09
4.51455484595e-09
4.58907226969e-09
4.53519297285e-09
1.41516201584e-10
4.30742370733e-09
5.63328167605e-09
2.1039724744e-09
9.34673320535e-09
5.65131693254e-09
5.50445849641e-09
3.01203531441e-09
4.39361016908e-09
2.40369689201e-09
1.71862837625e-09
1.85767505882e-10
1.06677003613e-10
3.36467508384e-10
1.79560550873e-09
4.80998531588e-09
3.22757430205e-09
1.597401733e-09
1.23393634252e-08
2.03177141427e-08
6.55673592657e-09
5.0566008719e-09
3.72485543142e-10
1.35914981022e-09
1.18855296659e-09
2.3991516566e-09
5.94214307323e-09
3.54796477873e-09
3.39162627038e-09
6.68626873737e-11
5.9494434173e-11
6.81177850428e-10
1.56147428024e-10
4.69512793061e-10
1.03273855173e-10
1.06031994574e-10
2.6297151196e-09
2.02133343214e-09
8.42090773882e-10
3.31642602192e-09
5.00683812694e-09
1.01936698684e-09
1.40271321697e-09
2.94610565835e-10
1.46779416443e-09
2.86532954119e-10
1.10060752135e-09
8.22033419966e-10
4.26766763079e-10
4.02058780429e-11
6.71459977405e-10
1.62573048605e-09
3.67206218915e-10
2.96813483026e-10
8.96851739932e-11
3.34322467779e-10
9.52238363439e-10
8.46387492074e-10
1.91057645246e-09
7.89586229094e-10
2.48446443447e-11
7.39117342847e-10
1.03837190405e-09
1.29227715767e-10
3.30915687354e-10
2.3055755667e-09
4.72683530376e-10
2.07497428292e-10
5.5658522987e-10
2.58549604647e-09
1.24156188005e-09
2.33911939953e-09
1.50252038764e-09
1.39165930266e-09
4.38912394658e-09
1.02224932741e-09
3.30982872278e-09
1.04090188277e-09
3.51317213607e-09
7.26252092311e-09
2.21547545664e-08
6.36758747448e-09
8.31827456387e-09
8.10566157798e-09
1.38068515405e-09
1.04013182842e-09
4.16795882534e-09
2.23567747142e-09
1.64534593113e-09
1.56464914966e-09
2.5208903215e-10
2.28932928483e-10
4.17903455425e-10
1.44585209747e-09
1.1062635316e-09
2.00955361035e-10
1.26453453047e-09
5.74217530447e-09
6.18731438289e-09
1.52835862734e-08
9.74569566529e-09
1.039866582e-08
1.93943611512e-08
1.22544285354e-10
2.71620638544e-09
3.18113540869e-09
2.88646937096e-09
7.68490741143e-09
4.5269810008e-09
1.20638046272e-09
8.59976633328e-11
5.58831010102e-10
1.19931968008e-09
3.66889248819e-10
1.51275186279e-08
1.32267671385e-08
7.48872999785e-10
7.69949354839e-11
8.89246409313e-09
3.1060441734e-09
8.63803027948e-09
1.58030305161e-08
1.74171650657e-08
1.10607523093e-09
3.79497942664e-09
2.82154627177e-09
2.42633223727e-10
2.36100307172e-09
2.63823990437e-10
5.52954711443e-10
9.02456547244e-10
3.40707228574e-10
1.16256458748e-09
3.91923987182e-09
3.00815484201e-09
4.37803561399e-10
1.76841472997e-10
4.56064502647e-10
9.45220629157e-10
3.21723653015e-10
9.84857407841e-10
1.88908745654e-09
2.46301808586e-09
7.39494726106e-10
5.51504357866e-10
6.47828733063e-10
2.54762447529e-10
7.11578390856e-10
5.24347205856e-11
6.80600764935e-10
2.39248561964e-09
2.43623513151e-09
9.23187417986e-10
7.83740650436e-11
3.71301903908e-10
8.72212428227e-11
1.25139510326e-10
8.56326377625e-10
6.56228448821e-10
6.10168664529e-10
2.02317514632e-09
1.78775429069e-09
9.74587158868e-10
1.53114123221e-10
8.50248878821e-10
8.83146166813e-10
6.68016833252e-10
1.33420874358e-09
1.25027051746e-10
4.64288886149e-10
8.87431067432e-10
1.56792431682e-09
9.41490180542e-10
1.53063230783e-09
3.24933175147e-09
1.74445618251e-09
3.23165226956e-09
3.45017206823e-10
4.1195304459e-09
5.4772692463e-11
3.55026985666e-10
5.13184504714e-09
4.00942437265e-09
6.02321443651e-08
5.69166738784e-08
2.4423760975e-08
1.59499694571e-09
1.36292505101e-09
2.43563699129e-08
2.63527202127e-08
1.79054549212e-08
4.11548376698e-09
2.48719131708e-08
1.06409561853e-08
2.51908553848e-08
4.45645838382e-08
3.22608141431e-08
9.90710202461e-09
9.0212468688e-09
6.36849550412e-09
1.34829195813e-09
9.58438759571e-11
1.04846573682e-08
2.33940340027e-10
2.5496970507e-10
5.84717061012e-10
6.34376950681e-11