# vtk DataFile Version 3.0
File Name: Molecule/arg/arg_3.0-1.vtk
ASCII
DATASET UNSTRUCTURED_GRID
FIELD FieldData 1
TIME 1 1 double
0.0
POINTS 591 double
-3.403 0.327 1.604
-3.398 0.034 0.803
-2.981 -0.361 1.858
-2.976 -0.654 1.057
-2.971 0.024 0.066
-2.549 -0.664 0.32
-2.984 0.046 0.042
-2.471 -0.12 -0.363
-2.484 -0.099 -0.385
-2.2 -0.483 -0.862
-2.216 -0.458 -0.889
-3.255 0.893 -0.375
-2.57 0.022 -0.532
-2.776 1.74 -0.497
-2.781 0.681 -0.857
-2.407 1.34 -0.951
-2.621 0.454 -1.509
-2.211 1.177 -1.613
-2.622 1.932 -0.429
-2.287 1.501 -0.894
-2.142 1.682 -0.83
-1.982 1.439 -1.492
-1.81 1.654 -1.416
-2.655 2.421 0.048
-2.046 2.135 -0.548
-2.075 2.574 -0.12
-1.615 2.438 -0.879
-1.647 2.927 -0.402
-2.495 2.657 0.67
-1.932 2.785 0.438
-1.488 3.163 0.22
-3.186 2.284 1.521
-2.137 2.872 1.156
-2.739 2.546 1.897
-1.863 3.333 1.507
-2.53 2.972 2.328
-3.419 1.801 1.788
-2.717 2.558 2.345
-2.979 2.017 2.644
-3.567 1.179 1.827
-3.133 1.725 2.369
-3.262 1.186 2.403
-3.107 1.793 3.017
-3.25 1.192 3.055
-3.408 0.559 1.798
-3.123 0.649 2.378
-3.095 0.593 3.027
-3.105 0.348 2.085
-3.1 0.088 1.867
-2.97 0.105 2.152
-2.978 0.383 3.085
-2.865 -0.346 2.113
-2.52 -0.7 2.425
-2.794 0.071 2.575
-2.491 -0.24 2.849
-2.645 0.041 3.387
-2.41 -1.24 2.09
-2.148 -0.9 2.844
-2.042 -1.418 2.522
-2.003 -1.142 3.367
-1.882 -1.734 2.999
-2.078 -1.605 1.676
-1.723 -1.769 2.124
-1.517 -2.136 2.544
-1.592 -1.721 1.268
-1.257 -1.88 1.733
-0.984 -2.263 2.097
-2.203 -1.444 0.759
-1.237 -1.838 0.739
-1.813 -1.578 0.259
-0.96 -2.23 0.303
-1.631 -1.926 -0.256
-2.487 -0.785 0.321
-2.08 -0.956 -0.154
-1.943 -1.202 -0.738
-2.189 -0.632 -0.224
-2.248 -0.516 -0.225
-2.131 -0.618 -0.861
-2.114 -0.682 -1.181
-1.927 -1.264 -1.052
-2.312 -0.441 -1.376
-2.39 -0.269 -1.153
-2.121 -0.506 -1.916
-1.682 -1.348 -1.746
-1.897 0.192 -2.527
-1.864 -0.768 -1.888
-1.57 0.147 -2.691
-2.011 1.039 -2.18
-1.198 0.386 -3.152
-1.348 1.496 -2.696
-1.72 1.257 -2.235
-1.479 1.817 -1.75
-1.107 2.057 -2.211
-1.319 2.584 -1.178
-0.816 3.013 -1.267
-1.111 2.259 -1.642
-0.623 2.675 -1.729
-0.543 2.537 -2.312
0.466 3.148 -0.891
-0.306 2.923 -1.738
0.315 2.988 -1.555
-0.026 3.04 -2.368
0.4 3.085 -2.243
-0.048 3.337 -3.001
1.057 2.557 -0.305
0.619 2.806 -1.364
1.192 2.232 -0.796
0.892 2.689 -1.891
1.553 2.026 -1.234
0.737 2.845 0.68
1.539 1.918 0.039
1.22 2.206 1.024
0.406 3.093 0.833
0.756 2.48 1.392
0.466 2.698 1.526
1.112 2.426 2.108
0.748 2.699 2.276
-0.152 3.531 0.588
0.05 3.076 1.433
-0.422 3.446 1.225
-0.034 3.266 2.099
-0.572 3.688 1.862
-0.865 3.557 0.357
-1.026 3.468 1.03
-1.261 3.713 1.639
-1.554 3.135 0.914
-0.08 3.426 2.677
0.695 2.881 2.933
-0.313 3.4 3.231
0.431 2.852 3.563
-0.687 3.194 3.654
0.006 2.617 4.044
-1.359 3.167 3.763
-0.58 2.815 3.881
-1.359 2.784 4.008
-1.995 3.111 3.523
-2.096 2.719 3.73
-2.423 3.039 2.998
-2.593 2.636 3.121
-0.832 2.373 4.277
-0.242 2.183 4.431
-1.061 1.806 4.483
-0.466 1.628 4.634
-1.543 2.398 4.242
-1.452 1.611 4.604
-1.868 2.121 4.396
-2.128 2.66 3.763
-2.373 2.347 3.982
-2.655 2.52 3.176
-2.827 2.227 3.476
-1.464 1.095 4.666
-0.48 1.041 4.705
-1.655 0.731 4.634
-0.882 0.784 4.614
-1.246 0.178 4.538
-1.7 -0.148 4.358
-0.878 -0.357 4.785
-1.429 -0.753 4.566
-2.14 0.383 4.441
-2.498 0.133 3.99
-2.035 -0.382 3.936
-1.836 -1.037 4.053
-2.172 -0.468 3.371
-0.383 -0.749 5.065
-0.555 0.096 4.831
-0.05 -0.304 5.117
0.164 -1.171 5.088
0.507 -0.734 5.141
0.44 -1.748 4.904
1.043 -0.806 5.264
1.319 -1.383 5.081
0.709 -2.198 4.495
1.588 -1.833 4.672
0.93 -2.454 3.923
1.809 -2.089 4.099
1.07 -2.477 3.273
1.949 -2.112 3.449
1.108 -2.263 2.644
1.987 -1.899 2.82
1.037 -1.846 2.131
1.916 -1.481 2.307
0.482 -2.37 2.114
0.798 -1.688 1.555
0.356 -2.104 1.542
0.806 -1.676 0.912
0.365 -2.092 0.898
1.061 -1.813 0.337
0.505 -2.337 0.32
-0.266 -2.524 2.101
-0.238 -2.226 1.532
-0.229 -2.214 0.888
-0.243 -2.491 0.308
-0.808 -2.019 1.528
-0.8 -2.007 0.885
1.48 -1.078 0.031
1.043 -1.422 0.814
1.323 -0.93 0.61
1.205 -1.217 1.373
1.436 -0.812 1.205
1.517 -1.238 1.905
1.797 -0.747 1.701
1.085 -2.024 -1.812
0.547 -2.053 -2.217
1.309 -1.6 -2.199
-0.032 -1.836 -2.488
0.827 -1.627 -2.562
0.31 -1.432 -2.805
-0.548 -1.409 -2.576
-0.152 -1.05 -2.884
0.599 -1.22 -3.306
0.104 -0.811 -3.39
-0.822 -1.287 -2.506
-0.336 -0.591 -3.197
-0.616 -0.466 -3.125
-1.31 -1.347 -2.194
-0.988 -0.705 -2.664
-1.485 -0.767 -2.346
-0.251 0.008 -3.791
0.185 -0.248 -3.95
0.101 0.716 -4.098
0.516 0.418 -4.238
-0.398 1.946 -3.588
0.377 1.347 -4.4
0.117 1.987 -4.134
-0.106 2.463 -3.53
-0.202 2.855 -2.684
0.028 3.029 -3.665
0.173 2.486 -3.833
0.9 3.106 -3.671
0.85 2.546 -3.838
1.267 2.733 -3.406
0.819 3.383 -2.845
1.204 2.948 -2.765
1.749 2.404 -3.353
1.668 2.681 -2.526
0.902 2.914 -2.485
0.699 3.415 -2.782
0.749 2.956 -2.405
1.123 2.627 -2.01
2.133 1.624 -1.992
2.194 2.159 -2.516
2.042 0.907 -1.262
2.428 1.273 -2.257
2.342 0.599 -1.57
1.855 0.911 -0.632
1.44 1.861 -0.608
1.976 0.918 0.014
1.842 0.216 0.134
1.861 0.778 -0.544
1.751 0.201 -0.446
1.991 0.665 -1.105
1.878 0.074 -1.004
2.201 -0.141 -1.444
2.497 1.237 -3.182
2.232 2.14 -3.028
1.83 1.363 -3.817
1.863 2.209 -3.379
1.382 0.739 -4.338
1.103 1.869 -4.167
0.855 1.524 -4.455
0.989 2.064 -4.14
1.404 2.01 -3.684
1.315 2.161 -3.664
1.697 -0.118 0.66
2.073 0.663 0.819
1.861 -0.287 1.473
2.18 0.376 1.607
1.884 1.434 1.198
2.02 1.032 1.93
2.748 0.111 2.175
2.541 0.959 2.592
1.755 1.469 1.75
1.11 2.216 1.58
1.842 1.579 2.299
1.881 1.886 2.857
2.58 1.266 3.15
1.754 2.03 3.466
2.452 1.41 3.759
1.478 1.99 4.04
2.177 1.37 4.333
1.093 1.773 4.5
1.791 1.153 4.793
0.651 1.408 4.781
1.35 0.788 5.074
0.073 1.245 4.841
0.82 0.891 4.947
0.23 0.725 5.008
-0.333 0.517 4.869
0.613 0.111 5.233
1.146 0.023 5.355
-1.909 1.923 -0.799
1.099 -1.46 1.828
1.615 -0.229 -0.195
1.805 -0.426 -1.067
-3.022 2.038 -0.231
-3.504 1.618 -0.113
-3.504 2.066 0.275
-3.022 2.419 0.247
-3.504 2.232 0.843
-3.504 2.066 1.411
-3.827 1.75 0.843
-3.827 1.466 1.336
-3.504 1.031 -0.198
-3.504 0.492 0.048
-3.827 0.896 0.35
-3.827 1.466 0.35
-3.94 1.181 0.843
-3.827 0.896 1.336
-3.827 0.612 0.843
-2.634 -1.246 1.071
-2.634 -1.246 1.663
-2.419 0.645 -2.059
-2.419 -0.001 -2.059
0.193 3.598 -0.086
-0.376 3.598 -0.655
-0.376 3.711 -0.086
-0.945 3.598 -0.086
-0.945 3.462 -0.682
-1.427 3.109 -0.654
0.675 3.275 -0.086
-0.333 3.709 2.497
-0.889 3.977 2.497
-0.889 3.843 3.084
-1.507 3.843 3.084
-1.507 3.468 3.554
-0.889 3.468 3.554
-1.507 3.843 1.91
-1.507 3.977 2.497
-2.063 3.709 2.497
-2.063 3.537 3.083
-2.204 1.508 4.671
-2.76 1.657 4.339
-2.76 1.053 4.426
-2.204 0.906 4.671
-2.76 0.497 4.173
-2.76 2.119 3.939
-3.145 1.508 3.874
-3.145 0.906 3.874
0.137 -2.047 4.853
-0.497 -2.047 4.853
-0.497 -2.525 4.452
0.137 -2.525 4.452
-0.497 -2.837 3.911
0.137 -2.837 3.911
-0.497 -2.945 3.297
0.137 -2.945 3.297
-0.497 -2.837 2.683
-0.497 -1.461 5.066
-1.092 -1.149 4.877
-1.092 -1.753 4.756
-1.092 -2.266 4.414
-1.092 -2.608 3.901
-1.092 -2.729 3.297
-1.092 -2.608 2.693
-1.577 -1.735 4.312
-1.577 -2.164 3.883
-1.577 -2.321 3.297
-1.894 -1.461 3.837
0.137 -2.837 2.683
0.732 -2.608 2.693
1.271 -2.245 -0.834
1.271 -2.088 -0.248
0.786 -2.532 -0.23
0.786 -2.653 -0.834
0.786 -2.532 -1.438
0.191 -2.761 -0.22
0.191 -2.869 -0.834
0.191 -2.761 -1.448
-0.443 -2.761 -0.22
-0.443 -2.869 -0.834
-0.443 -2.761 -1.448
-0.443 -2.449 -1.989
0.191 -2.449 -1.989
-1.038 -2.532 -0.23
-1.038 -2.653 -0.834
-1.038 -2.532 -1.438
-1.038 -2.19 -1.951
-0.443 -1.971 -2.39
-1.038 -1.677 -2.293
-1.523 -2.245 -0.834
-1.523 -2.088 -1.42
1.488 -1.753 -1.343
1.684 -1.288 -0.895
1.588 -1.385 -0.294
1.639 -0.712 -0.547
-1.152 1.82 -2.825
-1.152 1.343 -3.239
-0.729 0.877 -3.763
-0.729 0.286 -3.645
1.993 1.475 0.623
1.147 2.236 4.146
1.147 2.578 3.633
0.552 2.495 4.184
0.552 2.017 4.585
1.147 2.699 3.029
0.025 0.329 5.098
3.668 -0.309 3.703
3.558 0.315 3.703
3.558 0.003 4.243
3.558 -0.621 4.243
3.558 -0.933 3.703
3.558 -0.621 3.163
3.558 0.003 3.163
3.241 0.706 4.289
3.241 0.277 4.718
3.241 -0.309 4.875
3.241 -0.895 4.718
3.241 -1.324 4.289
3.241 -1.481 3.703
3.241 -1.324 3.117
3.241 -0.895 2.688
3.241 -0.309 2.531
3.241 0.863 3.703
2.756 1.15 4.307
2.756 0.808 4.82
2.756 0.295 5.162
2.756 -0.309 5.283
2.756 -0.913 5.162
2.756 -1.426 4.82
2.756 -1.768 4.307
2.756 -1.889 3.703
2.756 -1.768 3.099
2.756 -1.426 2.586
2.756 -0.913 2.244
2.161 1.067 4.858
2.161 0.589 5.259
2.161 0.003 5.472
2.161 -0.621 5.472
2.161 -1.207 5.259
2.161 -1.685 4.858
1.527 0.003 5.472
1.527 -0.621 5.472
2.161 -1.997 4.317
3.241 0.277 2.688
2.923 0.206 -2.769
2.823 0.774 -2.769
2.823 0.49 -2.277
2.823 -0.078 -2.277
2.823 -0.362 -2.769
2.823 -0.078 -3.261
2.823 0.49 -3.261
2.535 0.054 -1.712
2.535 -0.493 -1.962
2.535 -0.819 -2.468
2.535 -0.819 -3.07
2.535 -0.493 -3.576
2.535 0.054 -3.826
2.535 0.65 -3.74
2.093 -1.201 -3.068
2.093 -0.958 -3.615
2.093 -0.513 -4.015
2.093 0.056 -4.2
2.093 0.651 -4.137
1.55 -1.185 -3.63
1.55 -0.78 -4.075
1.55 -0.242 -4.343
1.55 0.357 -4.398
0.974 -0.78 -4.075
0.974 -0.242 -4.343
0.431 -0.513 -4.015
0.974 -1.185 -3.63
-2.6755 0.3515 -0.6945
-2.48 -0.1235 -0.8425
-2.5855 0.206 -1.005
-2.5055 0.0925 -1.331
-2.701 0.5675 -1.183
0.3255 3.376 -2.8915
-1.066 0.434 4.582
-0.974 0.609 4.598
-0.6075 0.6505 4.7415
-0.6995 0.4755 4.7255
-0.444 0.3065 4.85
-0.8105 0.265 4.7065
-1.8975 0.557 4.5375
-1.4505 0.4545 4.586
-1.693 0.2805 4.4895
1.4015 -1.004 0.3205
1.8565 -1.114 2.004
2.1255 -1.1135 2.1545
2.066 -0.7465 1.8515
2.335 -0.746 2.002
1.5595 -0.895 -0.258
1.478 -0.8135 0.171
1.5575 -0.6305 -0.118
1.476 -0.549 0.311
1.5455 -0.389 0.058
1.627 -0.4705 -0.371
1.5865 -0.3335 0.4855
1.656 -0.1735 0.2325
1.7445 -0.857 -0.981
1.8255 -0.6835 -1.223
1.765 -1.1145 -1.137
1.846 -0.941 -1.379
2.003 -0.2835 -1.2555
2.0235 -0.541 -1.4115
2.223 -0.4175 -1.611
2.0455 -0.8175 -1.5785
2.245 -0.694 -1.778
1.586 -1.5205 -1.119
1.667 -1.347 -1.361
1.758 -1.1495 -1.5795
1.579 -1.5555 -1.5615
1.67 -1.358 -1.78
1.9575 -1.026 -1.779
2.151 -0.917 -1.9925
1.8635 -1.249 -1.9935
2.057 -1.14 -2.207
1.4895 -1.479 -1.9895
1.683 -1.37 -2.203
1.8635 -1.27 -2.432
1.4895 -1.5 -2.428
1.67 -1.4 -2.657
[...]
CELL_DATA 1178
SCALARS cell_data_0 double
LOOKUP_TABLE default
3.48748674042e-08
2.35779065252e-08
2.71998209803e-08
7.78875158501e-08
1.10267293627e-08
5.19566373108e-09
5.64038764136e-09
7.04591249172e-09
3.24727054989e-07
5.72072987923e-07
4.64438345888e-07
4.43850079165e-08
1.64533624802e-07
2.57345856867e-09
6.63501130363e-09
5.42718723867e-08
9.59643571362e-09
6.22250216884e-09
1.88062620888e-07
2.12500541291e-07
2.58201653582e-07
2.3513390605e-07
1.0565053775e-08
3.42665402081e-07
1.27615836293e-06
5.67328652885e-07
2.11084545553e-07
2.09177779316e-07
8.13143271956e-07
3.45132076282e-07
2.79525130473e-08
1.40169945028e-08
1.98388196401e-08
1.53717668463e-08
1.49843742702e-08
1.35446648501e-08
8.88177064366e-09
2.47854360718e-08
1.69127924101e-09
8.95712737894e-10
2.38953982687e-08
1.80058396076e-08
6.95204348833e-09
6.65209865857e-09
1.23205449575e-08
2.4398964804e-10
3.42721289524e-09
5.25999361279e-09
1.44043088096e-08
4.14280881074e-08
4.66049897898e-08
1.39678361277e-07
1.70731705368e-08
8.98735493086e-10
1.26034857821e-07
1.21485865023e-07
3.13860162816e-08
1.36223448312e-08
1.80469991216e-08
9.3583002515e-09
2.68122276994e-08
3.36991035336e-08
2.53462097109e-08
6.71037114614e-08
3.05323247125e-08
9.44169327397e-09
4.44226947443e-08
3.62778735964e-08
8.4379389853e-09
8.52406072318e-09
9.58357385137e-09
3.88689119038e-09
7.04760860259e-09
4.21704950961e-09
1.60722363821e-09
1.67003287103e-07
6.4744104827e-09
5.49423383556e-09
7.82842210483e-09
1.5183957265e-08
5.07865193071e-08
9.84555527255e-08
2.03127113332e-08
2.98604127633e-08
2.80973888616e-08
3.48272348248e-08
1.72699782728e-07
4.41346544993e-07
2.05526793812e-08
2.42657166027e-08
1.83075858368e-08
3.46170006472e-08
5.61790775527e-08
4.4608548111e-08
3.17152237186e-08
1.01958560198e-08
2.57870401164e-09
2.32901375216e-07
2.77258356332e-07
3.2858251507e-07
1.10549364992e-07
6.14616987298e-08
5.54817412104e-08
6.18324700864e-08
3.09677897464e-07
3.07943209524e-07
2.68296478596e-07
1.93058732072e-07
1.49200488903e-07
8.53431817135e-08
2.3886261039e-08
5.66377200561e-08
2.29356113057e-08
7.65876992201e-09
4.6604881189e-08
5.73161839557e-07
5.25881327913e-07
1.86612866026e-08
1.62637131183e-07
9.8867546101e-08
1.00372015507e-07
6.67340480544e-08
2.86446120494e-08
2.86476994461e-08
5.00133980086e-08
1.18878051174e-08
7.56439226004e-09
3.11290270717e-09
8.13882635839e-09
1.65558903457e-08
3.45044931594e-08
1.37899015788e-08
3.62296991315e-08
3.55756048868e-07
3.02294745505e-07
3.06705645595e-07
5.41618849534e-08
2.5967575438e-07
3.2540682742e-07
7.40905111201e-08
8.69503584758e-08
1.61557255778e-07
7.78653045902e-09
6.70109486416e-08
2.73706579008e-08
1.26195712228e-08
6.1210132238e-08
1.86790385901e-08
2.3185209944e-07
1.27316511868e-07
1.51176337905e-07
8.83734566914e-08
4.75132564056e-08
1.45816948165e-07
1.58948723166e-07
6.23826408662e-08
8.30623437469e-08
5.19137901442e-08
1.42884866066e-07
7.76812611494e-09
3.81056169383e-08
2.79439178249e-07
9.75537561366e-08
5.67724841571e-08
7.70256203866e-08
7.85728169338e-08
3.80354903089e-08
5.47930580947e-08
8.94372873082e-08
1.93769137115e-07
4.49292090025e-07
1.35586417894e-07
3.18490021657e-07
5.2075737758e-07
1.30128379582e-06
8.35287864145e-07
1.11562952279e-06
2.60306972222e-07
7.27175292805e-08
1.05576237307e-06
1.06392721335e-06
4.89865162245e-07
3.94797170162e-07
4.2044551117e-07
5.90358206877e-07
6.66918328117e-07
1.1983644367e-07
3.01710573868e-07
9.64194194069e-09
6.20792447303e-07
2.07093549726e-07
1.59728543482e-07
1.76756594531e-06
2.07516791279e-06
5.67007913726e-07
6.09718401569e-07
3.87270666898e-08
3.63798621401e-08
4.31544722996e-09
7.12291526656e-08
3.83241458204e-08
8.6563608027e-07
8.80020839164e-07
8.30434789696e-07
9.86921303873e-08
3.89542849689e-08
3.95354975753e-08
5.52663599333e-07
4.82345301472e-07
3.70780768685e-07
8.54015060857e-08
8.9658637332e-08
3.34709975197e-07
2.64662970287e-07
3.86812329461e-07
9.69389402758e-08
1.84242783891e-07
1.74372746738e-07
6.9816371883e-07
2.61567607812e-07
3.18822773979e-07
3.00466274036e-07
6.03139512899e-07
4.38974607714e-08
1.33379885135e-07
2.04711184178e-07
2.31602059046e-08
1.83978340631e-08
6.63859547287e-09
1.43408168007e-08
1.32481693055e-09
2.48785295e-08
2.19860408473e-08
3.37812430462e-07
1.91847301581e-08
1.10182603415e-07
1.43228584057e-07
3.48127985595e-07
2.98706685652e-07
4.95488840818e-07
4.35719669705e-08
3.63648077906e-08
1.5387086403e-07
2.3512748749e-07
1.65535874225e-07
2.84719689305e-07
7.31661586977e-08
3.52746765553e-09
8.04611562463e-09
6.95191896252e-08
7.2785162218e-09
9.70629537454e-09
1.21734407499e-08
5.82953980329e-09
2.68449465127e-08
9.67293710187e-08
1.11293330345e-07
1.17018269104e-07
6.15936442525e-08
1.29547786232e-08
8.30504328262e-08
7.75585935714e-08
7.8462062636e-08
1.22355944462e-08
3.75877870124e-08
2.10407196219e-09
3.41734590997e-08
3.65529840622e-08
1.65093813413e-08
8.13768604632e-09
2.73135588286e-09
5.33520020568e-10
1.51474860072e-09
2.25194794706e-09
4.39598488033e-08
5.42432597012e-08
7.01557051399e-08
1.47243421374e-07
5.06919892989e-08
1.43454690562e-07
3.30970022795e-09
7.00352058346e-10
2.31607107749e-08
2.87627198733e-08
1.63215749262e-08
4.0136496977e-08
2.94111808478e-08
5.29649859321e-09
1.22035628484e-07
3.7577283923e-07
1.02096581572e-07
3.7165629669e-09
7.60522811317e-09
6.27641940039e-08
3.95313317541e-07
2.94249644491e-09
1.18924777382e-07
2.45039249836e-07
1.13775029761e-08
2.47451003724e-07
6.33425812467e-08
8.48392824602e-08
1.5029211423e-08
3.8223736656e-09
3.3284143634e-09
8.88776752148e-09
2.34546781396e-09
2.70031322026e-08
1.57718560197e-08
2.50760297518e-08
5.28234980924e-08
5.36796538377e-08
6.70004291762e-08
1.70219849326e-07
1.96417671357e-07
1.32629128253e-09
1.41440538012e-08
1.36946864861e-08
2.78422041678e-09
1.9327829518e-09
5.51149359564e-09
8.7638755856e-09
1.71465524353e-08
2.0771578058e-08
1.95160192753e-07
1.94609049595e-07
3.03541631291e-08
2.25360269086e-08
1.62027218673e-08
2.74137881234e-08
2.67603185352e-08
2.59817161396e-08
1.05578992462e-07
1.05298747752e-07
1.00695173597e-07
1.12826773981e-07
2.16698903168e-07
5.66021416279e-08
5.12120502773e-08
8.83477861313e-08
4.80033057646e-07
2.18555555506e-07
2.26774631884e-07
1.44723356619e-08
1.80394060292e-08
3.16295230426e-08
1.9721822032e-07
1.74133812723e-07
1.54788214068e-07
5.01259380532e-08
4.47630859422e-07
5.75619097811e-07
1.54981573872e-06
1.50468423113e-06
9.78183762267e-07
1.66500053622e-07
4.63607455002e-09
1.56219327552e-08
2.47975750639e-08
1.05154710774e-07
5.57524788358e-08
6.26890089351e-07
6.53690339295e-07
5.52924565658e-08
1.23225002396e-07
9.12139416532e-08
5.39214333632e-08
7.03712898977e-08
1.46701984282e-07
1.69037653994e-07
5.3266823613e-08
1.86399638576e-07
1.13268371934e-07
1.09247173861e-07
9.73207403516e-08
3.93474413849e-08
5.02439813979e-08
1.26264815454e-07
1.40610805866e-07
1.19368370924e-07
2.04709564267e-08
2.54112889492e-08
5.53199214939e-10
3.99514142812e-08
4.10824482964e-08
6.20674881362e-09
1.09158531914e-07
2.04656772194e-08
7.03692062475e-09
1.9643839983e-08
3.58421026911e-08
2.36592686514e-08
2.68671002266e-08
6.90107377517e-08
1.04668298402e-07
3.8522164513e-08
2.27170803742e-08
2.85518293117e-08
1.56570113685e-08
1.6957059018e-08
1.85396115199e-08
1.5968454453e-08
2.78531520387e-08
2.03068556964e-08
6.41013721248e-08
5.51382100227e-08
1.76202862371e-08
7.40770232647e-11
2.08411182519e-09
9.22951856733e-09
8.56627438862e-09
6.80900214807e-10
2.19394819284e-07
2.25031061021e-07
1.40855515523e-06
3.47594652553e-07
1.69590054075e-07
6.05443296691e-09
4.17230045668e-09
1.1399664677e-07
3.97830998546e-07
7.81567841773e-07
1.43902449501e-08
3.24489910086e-08
2.02270789958e-07
1.79135588807e-07
1.19213608803e-08
4.03681958452e-09
1.29425963408e-08
2.98302646801e-09
1.68375908613e-08
8.10806326184e-09
1.06936700187e-08
5.48797665038e-09
3.08030060291e-08
2.69586447883e-08
5.06333866872e-08
6.78549860419e-08
8.837865377e-09
1.40558656004e-09
3.77091485871e-10
3.39942393885e-08
2.81565934379e-08
1.14105777297e-09
2.05482140578e-09
3.05951134158e-10
1.88521364764e-08
3.87042431737e-08
3.24632958041e-08
6.65029148737e-09
5.76027089017e-09
6.58652083209e-09
5.46834746628e-09
5.03835500705e-07
3.16896040127e-07
8.58357339075e-09
5.27257377823e-08
4.63422455559e-08
8.30854064745e-08
1.58901163976e-08
4.04742588044e-10
1.34395675967e-08
3.63421069999e-08
1.85225189499e-09
2.03555034329e-09
1.23453865704e-08
1.71668326993e-07
1.2828406247e-07
2.06466118691e-07
5.74263488575e-10
3.97806146919e-09
3.20813306288e-09
6.12400299952e-09
4.18635301467e-09
5.72594257745e-09
4.35794604344e-09
5.51846857483e-09
4.15860636818e-09
3.86399806318e-10
1.20736340577e-08
1.77968210491e-08
6.64724351211e-10
1.91598861512e-07
2.7700441066e-07
1.86750921592e-09
2.55359822225e-08
2.32264965423e-08
2.05714507444e-08
5.75257445638e-09
3.06589173325e-09
4.04468299541e-09
3.59369304816e-09
1.41579757023e-10
1.84765735943e-09
1.85316645217e-08
2.46310366226e-08
2.88087801623e-08
6.84507808765e-09
2.88771566667e-08
7.36782772072e-10
9.89578685105e-08
7.02432211591e-07
5.12338240297e-07
2.47867501703e-07
5.31715095933e-09
4.03171020974e-08
6.42769721122e-08
2.98897734803e-08
2.88534837746e-07
3.64305097561e-07
2.48256394195e-08
2.50901810603e-08
3.92527221663e-08
3.62125294748e-08
7.66350792493e-09
1.26403110152e-08
1.24867263322e-08
1.03777494147e-08
6.92808994194e-08
7.45182408792e-08
2.45679842351e-07
4.89474101851e-08
6.36258062098e-08
1.91309060255e-10
1.86485171381e-07
2.11867834893e-07
3.30314963502e-07
7.40760904632e-08
4.77639304439e-09
4.83266108259e-08
9.24490246905e-08
6.19658652624e-09
5.60043892772e-09
2.34350666139e-08
9.16048478368e-09
8.82790778326e-09
2.13472881247e-09
9.19303933547e-08
3.00610334357e-08
5.52504385686e-08
3.39901754737e-08
6.82633959215e-08
2.52631869436e-08
9.31243310551e-08
1.99288556694e-07
1.72487382768e-07
9.29009435429e-08
3.78670160997e-08
6.03253064801e-08
1.45957033167e-08
9.29453207286e-09
3.62812559287e-08
7.10528108975e-08
5.50164128078e-08
8.27743773889e-09
1.80787417257e-08
3.55284622874e-08
1.51634012815e-08
2.53591333196e-08
2.9605376335e-08
1.35065693196e-07
1.48281828359e-07
1.57790120615e-07
3.18675977047e-08
3.35864115822e-09
2.3963101022e-08
3.91908999235e-07
3.25297588995e-07
1.41979340178e-06
1.00130835056e-06
8.50603549341e-08
4.35726419068e-08
5.36817386799e-10
1.15423072769e-08
3.61743202368e-08
8.78184219761e-08
1.28456555545e-07
5.05678017043e-08
1.53889169616e-08
1.58214120087e-07
4.42343629861e-08
9.4162494728e-08
7.31255859237e-08
1.14094644255e-07
4.43080554642e-08
4.33278861243e-08
7.73292514795e-08
1.4136500531e-06
5.68652139664e-09
3.94775312604e-08
1.9961053997e-08
3.69480193734e-08
3.62890906138e-08
1.05804975249e-08
2.95821963153e-08
2.72751911424e-07
1.09960441681e-07
1.00065110228e-07
8.09524864112e-08
1.09577277507e-07
1.2294194044e-07
1.37775116463e-07
2.681555648e-07
8.39735796956e-08
1.02027503822e-07
1.10574482318e-07
1.08245626285e-07
9.88810602154e-08
6.93884598224e-10
2.9000937676e-08
9.66603862095e-08
1.86834942815e-07
2.07000181102e-07
5.20419408975e-07
2.86074604839e-08
6.50533834571e-08
2.55716128699e-08
1.46581030667e-08
8.09629233997e-09
2.81429621235e-08
6.37798107546e-08
1.21931233181e-07
2.48071150378e-09
4.43124833439e-08
6.41749802187e-08
5.75539738648e-09
1.44201449683e-08
1.39676624685e-08
3.6721635533e-07
2.90294466228e-07
9.34828797308e-07
1.74885779785e-07
2.07372839955e-07
1.40571783135e-07
4.01308879963e-08
2.78405738986e-08
4.00626704974e-08
4.52044096826e-09
4.41611686517e-07
4.23031290343e-07
3.55147136199e-08
6.39142332419e-08
6.49810692551e-07
5.96994067812e-07
1.19871678287e-08
8.22509218354e-09
2.37610370978e-08
6.988152894e-09
4.45505673081e-10
6.99385442074e-08
2.87947193441e-07
1.80329584345e-07
4.17318965363e-07
1.03013053946e-07
8.95923741122e-08
2.41456111894e-07
2.1922360167e-07
4.62626542667e-07
2.66254449665e-08
1.60295202488e-08
6.47685840721e-08
1.95141373759e-08
1.28834913612e-09
2.96545788239e-08
1.57205026155e-07
1.3348177944e-07
1.06057343877e-07
1.21931268636e-08
2.69564729746e-08
3.55274562154e-08
1.6251844051e-08
1.83651367323e-08
8.3122542066e-09
1.61795017896e-08
8.41511023701e-08
7.95054748498e-08
7.37869812302e-08
2.37057419258e-08
3.86028747216e-08
7.97578204787e-08
9.14600276023e-08
2.33176474904e-08
1.76299045299e-08
1.18218920608e-08
5.23450201562e-08
1.75839906332e-07
1.44825409925e-08
6.38788000498e-08
2.24040847407e-08
1.85913614353e-08
6.34665912381e-08
7.76836768153e-09
5.27120396137e-08
1.06466701328e-07
9.23351553432e-09
1.8242523378e-08
4.07470535961e-08
3.2049829742e-08
3.90342620146e-08
2.79116438665e-08
1.29171537398e-07
3.56181999384e-08
3.0811551564e-07
9.75456909635e-08
1.6738519598e-07
1.34411810702e-08
2.78828559602e-08
1.16242770417e-09
1.77103189422e-08
6.42525083778e-09
1.87584440541e-09
1.0641965599e-08
1.97964545165e-08
2.16665320739e-08
1.00623637927e-07
5.60331061354e-08
4.69072636254e-08
5.78160199841e-08
1.20078366886e-07
7.35832744931e-08
1.0637630132e-07
4.23654994686e-07
1.07979464788e-07
3.21055609008e-08
2.77858956566e-08
3.62832024563e-08
8.59123997141e-09
7.04777703875e-09
1.55309445291e-08
5.67053753433e-09
2.96800083579e-10
9.21888489572e-08
1.23682405995e-07
1.30658416369e-07
2.87859724595e-08
2.08545546864e-08
3.26210317414e-08
2.25933200512e-07
2.03954582995e-07
4.91584298157e-07
3.06334030576e-08
3.12974551549e-08
3.73720424224e-08
3.88075084643e-08
6.13553907519e-09
1.26657096012e-08
1.90943192684e-08
1.80521470872e-08
7.91970129186e-10
4.08812893499e-07
4.61400419466e-07
4.7079836601e-07
2.11450610549e-10
4.42880854205e-09
1.47416615695e-08
3.40078936965e-08
2.30159620333e-08
2.06888057155e-08
8.40799040356e-09
1.13196784455e-08
9.53232699098e-09
3.24324259491e-08
5.08742568554e-08
3.87351021341e-08
6.99348198486e-08
7.48582012294e-09
3.04485120838e-08
2.40808408641e-08
2.04403702338e-08
2.42172820341e-08
3.17005489341e-08
3.28895440004e-08
2.51837582365e-08
2.25093262414e-08
3.29982535296e-08
2.4987108286e-08
2.50973905356e-08
2.25095658507e-08
2.94016186735e-08
4.50892022693e-08
2.01222079865e-08
1.58265568621e-08
5.08383651663e-07
2.02870387914e-07
3.43336669168e-07
5.90618243469e-07
6.56377904565e-07
1.92388942964e-07
1.00466320134e-07
2.75430351357e-06
3.88882025192e-08
1.08124845203e-07
4.27198225325e-07
3.46695418803e-07
3.95397362525e-08
2.38738438829e-06
5.29603348308e-07
5.09351163692e-07
4.16028177752e-07
1.74032970869e-07
7.87763405034e-08
2.22713923512e-07
1.67295368472e-07
1.07768332694e-07
2.10611546104e-08
2.97604614224e-09
6.80461126255e-08
2.21360421489e-08
6.66342566798e-09
2.79239316792e-08
1.18247557666e-08
8.08900404285e-09
1.22814442029e-07
1.58262543034e-07
3.02353822665e-08
6.21424679957e-08
1.67739357173e-07
3.32532655845e-08
1.67646232288e-07
1.7654509771e-07
1.29015454719e-07
7.37821544788e-08
1.23255794171e-08
2.01735019439e-07
1.51197106429e-07
8.34259719621e-08
7.32849753493e-08
2.35156694115e-08
4.37960242506e-08
4.12683990764e-08
4.01533327214e-08
3.35956779828e-08
3.9609485924e-09
4.47186455981e-08
1.49191224661e-07
2.31927771727e-07
4.21248886362e-08
2.19296452551e-07
3.01358827474e-08
1.29367365216e-08
7.90043805761e-09
5.82519222363e-08
1.85015803625e-08
1.75876493327e-09
6.61394140959e-08
2.0673817413e-08
4.48759977757e-08
1.16852755235e-07
6.36660958769e-07
6.68524944418e-07
5.53068583754e-08
6.87483204903e-08
5.80631684406e-08
1.97309816904e-08
8.60237175418e-09
1.3760009833e-09
7.17940367249e-09
7.98596842561e-09
3.85574665941e-09
2.08099854061e-09
3.2096666451e-09
3.32253401026e-09
3.83014468762e-10
5.51332360899e-09
5.01050975933e-09
3.08996383697e-08
4.08345898053e-08
4.15053968858e-08
1.10334773671e-07
8.95858725822e-08
2.86958735499e-07
2.67490111821e-07
1.34027950128e-07
1.14632938818e-07
1.09008289262e-07
4.42437010298e-08
1.78496462423e-08
1.83912327732e-08
4.58203730176e-08
7.26689807164e-09
2.41314000035e-08
2.35838175206e-08
3.49602699288e-08
3.22671569338e-08
1.31691767073e-08
5.01400510488e-08
6.71587233277e-08
6.90349276464e-08
7.78086226938e-08
5.07540552959e-08
5.04290063138e-08
6.7917108214e-09
5.56557257924e-08
7.43513015035e-08
6.81815855066e-08
8.73886128913e-08
5.71771115442e-08
6.77205571361e-08
9.7672720393e-08
3.7831946524e-08
3.61002186516e-08
3.41744809271e-08
7.85595130609e-08
1.09202428803e-07
3.89123894157e-09
8.40784035389e-09
1.63975046417e-08
3.49616253893e-08
4.93529737991e-08
1.26552489406e-08
2.04624699783e-08
3.20835596121e-08
3.81549289762e-08
4.49305133714e-08
2.39475278457e-08
2.24776987991e-07
2.47146766031e-07
2.33876278218e-07
9.92608026272e-08
7.89010476113e-07
1.10877706197e-06
3.42987243738e-07
1.44549221015e-06
1.4087370856e-06
4.24101668077e-07
5.98727744494e-07
3.04787162268e-07
3.25800544654e-07
3.1874998055e-07
3.50521847124e-07
1.86067219895e-07
3.64092301314e-07
3.03719562645e-07
2.54943666859e-07
7.34223601328e-08
7.68312669591e-08
3.25303166141e-07
3.01717034038e-07
2.0242578622e-07
2.52385947549e-07
2.65375764133e-07
2.28635625857e-08
3.94840076136e-08
7.13935008093e-08
2.94649180603e-07
3.09413110113e-07
2.54301813444e-07
2.08337220113e-07
4.9764714207e-08
2.51064077776e-07
2.59131084442e-07
3.05728557894e-07
6.15442409465e-09
3.71343246983e-08
3.52722734497e-08
1.20927649355e-08
3.21307669732e-08
1.99570474028e-08
7.89353839838e-09
3.52135668743e-08
1.1905024783e-08
8.41378403961e-08
1.15531177852e-07
7.88659248219e-08
8.78309315059e-08
1.14785378516e-07
1.37803697342e-07
2.17380429408e-08
9.07380275678e-08
9.20124879135e-08
7.10460485864e-09
3.9002248786e-09
7.39407470123e-08
7.30284110899e-08
6.66176630461e-08
8.91021783813e-08
7.95547383297e-08
2.75774598323e-07
2.02409489284e-07
3.92600268113e-09
1.22265177858e-07
2.1726936305e-08
1.57952794115e-07
2.77036982902e-07
2.41502354791e-07
8.23259652258e-08
9.36117865995e-08
2.73316894911e-07
1.4125793832e-07
2.54805704384e-07
5.83446624532e-08
1.71801325066e-07
8.77254366296e-08
1.54608963893e-07
1.27490084402e-07
1.25399122117e-07
2.61924476822e-07
2.6295354373e-07
7.51117807167e-07
7.57963177422e-07
1.96879542976e-08
1.89735263142e-08
2.97984322127e-08
1.6671782599e-08
1.76031030227e-07
2.55436804588e-07
3.09516706752e-08
2.70601086217e-07
1.20065155901e-07
9.19902124162e-08
2.22881006629e-07
2.03042443658e-07
3.73703992594e-07
3.12016883323e-07
1.1304727793e-07
2.37535893798e-08
1.00131829506e-07
2.74801504466e-07
2.31795613485e-07
2.75737551409e-07
2.45732809696e-09
1.39455728533e-08
9.09297545056e-09
9.94785261273e-09
1.42894139132e-07
3.93895697078e-08
5.11440091377e-08
2.04709551806e-08
3.04737674492e-07
3.41872382325e-07
3.10309118555e-07
3.2185873502e-08
4.51659619537e-08
1.8489133077e-07
1.30275271069e-07
1.40454023886e-07
7.77464610466e-08
3.51447912458e-07
6.91547488374e-08
5.52023659489e-07
5.39880500548e-07
1.39904061248e-06
1.06982171412e-06
9.71406891536e-07
1.23148238195e-07
1.8718610936e-07
1.84618252456e-09
4.60781388745e-07
3.22472158851e-08
6.21451309816e-08
1.36361239112e-07
1.48113041629e-07
3.09923124502e-08
1.52101692331e-07
1.82526454385e-08
7.74735416212e-08
5.31729967611e-08
7.10882688763e-08
2.84502472625e-08
9.9982338447e-08
1.0303015728e-07
6.05231294607e-08
4.38803213127e-07
3.1759132453e-07
1.23359028168e-07
3.06058231025e-07
9.60914373908e-08
1.37195195023e-07
7.0310434244e-07
6.49206798643e-07
1.35743905139e-07
1.60797510552e-07
6.76532368638e-08
6.80895780816e-08
1.11654044612e-07
1.30882887371e-07
1.31885848483e-07
8.6924985548e-08
1.24717178085e-08
1.74203054205e-08
1.57416129594e-07
1.32218329323e-07
8.0639289133e-08
8.15014547535e-08
4.28126772703e-07
2.44101340617e-07
4.12638557182e-07
3.95427165567e-07
3.00165833703e-07
2.9657828586e-08
8.23689334393e-08
1.22152083416e-07
4.22027490043e-07
3.47591544326e-07
1.77793873686e-07
1.02582389218e-07
4.24280228255e-07
3.65684963032e-07
8.13114211389e-08
2.08420896764e-07
5.24973134207e-08
2.86832473266e-08
3.64823441431e-08
1.65633421256e-08
2.94147742222e-07
2.74161146488e-07
2.02670699966e-07
2.15891824872e-07
1.31811434032e-07
5.2407294635e-08
5.97094279576e-08
9.50516374199e-08
1.27944325122e-07