# vtk DataFile Version 3.0
File Name: Molecule/arg/arg_6.0-16_06.vtk
ASCII
DATASET UNSTRUCTURED_GRID
FIELD FieldData 1
TIME 1 1 double
0.0
POINTS 1051 double
-3.403 0.327 1.604
-3.458 0.149 1.214
-3.138 0.005 1.702
-3.19 -0.164 1.33
-2.981 -0.361 1.858
-3.036 -0.538 1.468
-3.398 0.034 0.803
-3.133 -0.274 0.938
-2.976 -0.654 1.057
-3.231 -0.009 0.408
-2.974 -0.315 0.561
-2.809 -0.697 0.662
-2.971 0.024 0.066
-2.725 -0.284 0.235
-2.549 -0.664 0.32
-2.984 0.046 0.042
-2.617 -0.045 -0.207
-2.63 -0.024 -0.229
-2.351 -0.22 -0.527
-2.365 -0.198 -0.55
-2.2 -0.483 -0.862
-2.216 -0.458 -0.889
-3.215 0.428 -0.189
-2.686 0.062 -0.328
-2.875 0.375 -0.517
-2.48 -0.047 -0.742
-2.657 0.246 -0.92
-2.39 -0.269 -1.153
-2.586 0.057 -1.35
-3.255 0.893 -0.375
-2.908 0.756 -0.67
-2.688 0.604 -1.063
-2.621 0.454 -1.509
-3.1 1.357 -0.484
-2.781 1.137 -0.759
-2.569 0.961 -1.147
-2.488 0.85 -1.602
-2.776 1.74 -0.497
-2.515 1.451 -0.77
-2.319 1.256 -1.157
-2.211 1.177 -1.613
-2.622 1.932 -0.429
-2.434 1.563 -0.734
-2.291 1.743 -0.67
-2.16 1.459 -1.077
-2.01 1.647 -1.011
-1.982 1.439 -1.492
-1.81 1.654 -1.416
-2.666 2.281 -0.134
-2.227 2.054 -0.482
-2.267 2.371 -0.214
-1.881 2.228 -0.637
-1.921 2.545 -0.369
-1.615 2.438 -0.879
-1.659 2.787 -0.585
-2.622 2.533 0.247
-2.227 2.6 0.132
-1.881 2.773 -0.023
-1.614 3.039 -0.203
-2.495 2.657 0.67
-2.111 2.713 0.516
-1.765 2.886 0.361
-1.488 3.163 0.22
-2.925 2.572 1.071
-2.251 2.77 1.005
-2.634 2.694 1.361
-2.033 3.002 1.293
-2.411 2.928 1.645
-1.863 3.333 1.507
-2.279 3.251 1.894
-3.186 2.284 1.521
-2.865 2.437 1.761
-2.64 2.674 2.039
-2.53 2.972 2.328
-3.419 1.801 1.788
-2.888 2.359 1.917
-3.122 1.876 2.185
-2.717 2.558 2.345
-2.979 2.017 2.644
-3.552 1.393 1.822
-3.202 1.735 2.161
-3.319 1.374 2.191
-3.094 1.732 2.585
-3.21 1.376 2.614
-3.107 1.793 3.017
-3.235 1.399 3.05
-3.548 0.964 1.825
-3.316 0.994 2.194
-3.206 1.001 2.617
-3.231 0.984 3.053
-3.408 0.559 1.798
-3.191 0.635 2.17
-3.084 0.647 2.593
-3.095 0.593 3.027
-3.105 0.348 2.085
-3.1 0.088 1.867
-2.97 0.105 2.152
-3.02 0.504 2.546
-2.901 0.29 2.606
-2.978 0.383 3.085
-2.865 -0.346 2.113
-2.52 -0.7 2.425
-2.789 -0.06 2.411
-2.48 -0.378 2.69
-2.828 0.19 2.745
-2.523 -0.123 3.02
-2.645 0.041 3.387
-2.483 -1.039 2.238
-2.249 -0.827 2.688
-2.214 -1.15 2.51
-2.072 -0.978 3.011
-2.036 -1.312 2.826
-2.003 -1.142 3.367
-1.962 -1.514 3.162
-2.359 -1.33 2.011
-2.096 -1.427 2.294
-1.914 -1.599 2.602
-1.826 -1.833 2.912
-2.159 -1.55 1.761
-1.905 -1.637 2.055
-1.716 -1.817 2.356
-1.606 -2.075 2.638
-1.897 -1.684 1.507
-1.655 -1.765 1.813
-1.457 -1.949 2.105
-1.318 -2.222 2.359
-1.592 -1.721 1.268
-1.365 -1.8 1.585
-1.156 -1.986 1.869
-0.984 -2.263 2.097
-1.926 -1.641 1.017
-1.351 -1.766 0.91
-1.664 -1.691 0.675
-1.133 -1.941 0.578
-1.457 -1.864 0.334
-0.96 -2.23 0.303
-1.327 -2.142 0.027
-2.203 -1.444 0.759
-1.923 -1.507 0.433
-1.726 -1.673 0.084
-1.631 -1.926 -0.256
-2.396 -1.15 0.52
-2.103 -1.231 0.209
-1.913 -1.387 -0.149
-1.843 -1.603 -0.519
-2.487 -0.785 0.321
-2.189 -0.889 0.022
-2.002 -1.032 -0.342
-1.943 -1.202 -0.738
-2.264 -0.668 -0.026
-2.322 -0.554 -0.027
-2.141 -0.611 -0.433
-2.203 -0.492 -0.433
-2.131 -0.618 -0.861
-2.114 -0.682 -1.181
-1.927 -1.264 -1.052
-2.312 -0.441 -1.376
-2.121 -0.506 -1.916
-2.042 -0.816 -1.214
-1.838 -0.886 -1.79
-1.682 -1.348 -1.746
-1.975 -0.256 -2.322
-1.864 -0.768 -1.888
-1.672 -0.441 -2.421
-1.897 0.192 -2.527
-1.57 0.147 -2.691
-1.996 0.646 -2.441
-1.495 0.306 -2.776
-1.602 0.798 -2.682
-1.198 0.386 -3.152
-1.328 0.981 -3.039
-2.011 1.039 -2.18
-1.619 1.224 -2.399
-1.348 1.496 -2.696
-1.72 1.257 -2.235
-1.631 1.561 -2.005
-1.259 1.801 -2.466
-1.479 1.817 -1.75
-1.107 2.057 -2.211
-1.346 2.153 -1.415
-1.642 2.007 -1.116
-1.319 2.584 -1.178
-0.816 3.013 -1.267
-1.159 2.356 -1.471
-0.676 2.767 -1.557
-1.087 2.175 -1.825
-0.583 2.604 -1.915
-0.543 2.537 -2.312
-0.229 3.384 -1.004
-0.488 2.934 -1.522
-0.105 3.176 -1.351
-0.228 2.93 -1.855
0.02 3.086 -1.745
-0.059 3.001 -2.236
0.134 3.123 -2.15
0.003 3.141 -2.63
0.229 3.284 -2.529
-0.048 3.337 -3.001
0.294 3.553 -2.848
0.466 3.148 -0.891
0.348 3.022 -1.277
0.313 2.987 -1.697
0.364 3.045 -2.112
0.497 3.193 -2.485
0.699 3.415 -2.782
0.833 2.913 -0.61
0.553 2.897 -1.196
0.905 2.671 -0.926
0.699 2.74 -1.539
1.067 2.504 -1.257
0.892 2.689 -1.891
1.303 2.425 -1.576
1.057 2.557 -0.305
1.12 2.33 -0.634
1.29 2.148 -0.952
1.553 2.026 -1.234
0.979 2.767 0.195
1.24 2.204 -0.113
1.167 2.404 0.362
1.539 1.918 0.039
1.462 2.128 0.539
0.737 2.845 0.68
0.936 2.478 0.823
1.22 2.206 1.024
0.406 3.093 0.833
0.701 2.629 1.02
0.405 2.851 1.157
0.756 2.48 1.392
0.466 2.698 1.526
0.897 2.411 1.765
0.584 2.646 1.91
1.112 2.426 2.108
0.748 2.699 2.276
0.102 3.399 0.689
0.142 3.058 1.218
-0.121 3.323 1.093
-0.01 3.117 1.656
-0.27 3.379 1.533
-0.034 3.266 2.099
-0.327 3.561 1.96
-0.29 3.571 0.538
-0.462 3.472 0.961
-0.606 3.526 1.403
-0.705 3.727 1.814
-0.721 3.587 0.398
-0.837 3.486 0.84
-0.976 3.54 1.283
-1.123 3.742 1.679
-1.138 3.445 0.287
-1.199 3.363 0.744
-1.333 3.418 1.189
-1.525 3.605 1.572
-1.502 3.118 0.685
-1.632 3.177 1.131
-0.05 3.403 2.531
0.304 2.919 2.221
0.288 3.057 2.654
0.729 2.855 2.766
-0.175 3.437 2.964
0.162 3.091 3.09
0.587 2.894 3.259
-0.395 3.364 3.353
-0.059 3.019 3.48
0.337 2.812 3.701
-0.687 3.194 3.654
-0.352 2.847 3.783
0.006 2.617 4.044
-1.13 3.18 3.766
-0.58 2.815 3.881
-1.094 2.799 4.011
-1.584 3.151 3.721
-1.62 2.766 3.959
-1.995 3.111 3.523
-2.096 2.719 3.73
-2.312 3.063 3.198
-2.464 2.664 3.352
-2.498 3.015 2.783
-2.679 2.608 2.871
-0.749 2.537 4.164
-0.16 2.345 4.321
-0.912 2.194 4.368
-0.321 2.009 4.521
-1.061 1.806 4.483
-0.466 1.628 4.634
-1.364 2.231 4.354
-1.452 1.611 4.604
-1.713 1.977 4.492
-1.735 2.528 4.103
-2.033 2.233 4.276
-2.128 2.66 3.763
-2.373 2.347 3.982
-2.496 2.611 3.374
-2.69 2.305 3.646
-2.791 2.388 2.985
-2.945 2.113 3.311
-1.464 1.095 4.666
-0.956 1.592 4.533
-0.968 1.074 4.596
-0.48 1.041 4.705
-1.655 0.731 4.634
-1.079 0.886 4.596
-1.26 0.541 4.565
-0.689 0.687 4.666
-0.881 0.322 4.633
-0.333 0.517 4.869
-0.555 0.096 4.831
-2.027 0.463 4.516
-1.383 0.368 4.531
-1.728 0.119 4.423
-1.114 -0.009 4.584
-1.476 -0.27 4.469
-0.878 -0.357 4.785
-1.3 -0.661 4.651
-2.342 0.241 4.242
-2.019 -0.087 4.169
-1.783 -0.487 4.202
-1.658 -0.914 4.34
-2.557 0.093 3.848
-2.219 -0.224 3.803
-1.993 -0.631 3.818
-1.903 -1.082 3.892
-2.301 -0.273 3.375
-2.078 -0.682 3.368
-0.557 -0.612 4.999
-0.228 -0.165 5.05
-0.202 -0.89 5.102
0.134 -0.447 5.155
0.164 -1.171 5.088
0.507 -0.734 5.141
0.347 -1.566 4.993
0.615 -0.976 5.092
0.789 -1.35 5.001
1.043 -0.806 5.264
1.226 -1.201 5.169
0.533 -1.916 4.791
0.965 -1.683 4.809
1.412 -1.551 4.967
0.709 -2.198 4.495
1.133 -1.951 4.529
1.588 -1.833 4.672
0.864 -2.393 4.127
1.28 -2.136 4.179
1.743 -2.029 4.303
0.987 -2.488 3.71
1.397 -2.227 3.783
1.866 -2.124 3.886
1.07 -2.477 3.273
1.475 -2.216 3.368
1.949 -2.112 3.449
1.107 -2.36 2.845
1.511 -2.104 2.962
1.986 -1.995 3.021
1.096 -2.144 2.456
1.5 -1.9 2.592
1.975 -1.78 2.632
1.037 -1.846 2.131
1.444 -1.616 2.284
1.916 -1.481 2.307
0.647 -2.269 2.118
0.836 -1.714 1.711
0.512 -2.064 1.7
0.77 -1.662 1.233
0.47 -1.987 1.224
0.848 -1.697 0.757
0.525 -2.047 0.746
1.061 -1.813 0.337
0.67 -2.236 0.324
0.119 -2.499 2.107
0.075 -2.255 1.691
0.064 -2.164 1.215
0.088 -2.237 0.737
0.142 -2.466 0.313
-0.457 -2.497 2.099
-0.401 -2.253 1.685
-0.378 -2.162 1.209
-0.389 -2.235 0.73
-0.434 -2.464 0.306
-0.837 -2.059 1.682
-0.782 -1.983 1.207
-0.825 -2.042 0.728
1.48 -1.078 0.031
1.028 -1.535 0.641
1.346 -0.978 0.409
1.078 -1.33 0.996
1.331 -0.887 0.812
1.205 -1.217 1.373
1.436 -0.812 1.205
1.4 -1.205 1.737
1.652 -0.762 1.553
1.644 -1.296 2.058
1.961 -0.739 1.826
2.335 -0.746 2.002
1.639 -0.712 -0.547
1.451 -0.719 0.207
1.594 -0.39 -0.313
1.526 -0.39 0.423
1.664 -0.072 -0.079
1.697 -0.118 0.66
1.842 0.216 0.134
1.696 -1.103 -0.765
1.721 -0.524 -0.905
1.774 -0.881 -1.103
1.914 -0.328 -1.213
1.966 -0.68 -1.408
2.201 -0.141 -1.444
2.257 -0.517 -1.652
1.645 -1.46 -1.037
1.727 -1.206 -1.352
1.92 -1.0 -1.653
2.207 -0.859 -1.914
1.488 -1.753 -1.343
1.584 -1.473 -1.631
1.779 -1.262 -1.928
2.057 -1.14 -2.207
1.239 -1.959 -1.658
1.357 -1.661 -1.918
1.555 -1.448 -2.211
1.818 -1.338 -2.51
0.916 -2.062 -1.958
1.063 -1.755 -2.191
1.266 -1.54 -2.479
1.509 -1.437 -2.797
0.547 -2.053 -2.217
0.726 -1.747 -2.428
0.934 -1.532 -2.712
1.154 -1.428 -3.046
0.159 -1.934 -2.416
0.372 -1.638 -2.609
0.586 -1.425 -2.891
0.782 -1.314 -3.237
-0.216 -1.714 -2.539
0.031 -1.437 -2.721
0.25 -1.227 -3.001
0.423 -1.103 -3.355
-0.548 -1.409 -2.576
-0.272 -1.16 -2.755
-0.048 -0.954 -3.034
0.104 -0.811 -3.39
-0.822 -1.287 -2.506
-0.408 -0.948 -2.806
-0.669 -0.831 -2.739
-0.336 -0.591 -3.197
-0.616 -0.466 -3.125
-1.31 -1.347 -2.194
-0.988 -0.705 -2.664
-1.485 -0.767 -2.346
-1.322 -0.31 -2.728
-0.95 -0.071 -3.189
-0.33 -0.315 -3.523
0.111 -0.551 -3.697
-0.251 0.008 -3.791
0.185 -0.248 -3.95
-0.104 0.358 -3.987
0.323 0.082 -4.134
0.101 0.716 -4.098
0.516 0.418 -4.238
-0.411 1.252 -3.909
0.252 1.048 -4.202
-0.118 1.435 -4.065
0.377 1.347 -4.4
0.11 1.626 -4.301
-0.398 1.946 -3.588
-0.108 1.937 -3.833
0.117 1.987 -4.134
-0.712 2.237 -2.975
-0.187 2.28 -3.528
-0.425 2.5 -3.065
-0.042 2.651 -3.554
-0.227 2.824 -3.192
0.028 3.029 -3.665
-0.135 3.18 -3.347
-0.298 2.727 -2.563
-0.128 3.001 -2.799
0.9 3.106 -3.671
0.147 2.667 -3.761
0.845 2.729 -3.765
0.177 2.31 -3.921
0.876 2.372 -3.926
0.989 2.064 -4.14
0.819 3.383 -2.845
1.128 2.855 -3.473
1.063 3.077 -2.811
1.418 2.615 -3.364
1.354 2.837 -2.702
1.749 2.404 -3.353
1.668 2.681 -2.526
0.858 3.054 -2.621
0.721 3.091 -2.55
0.962 2.795 -2.335
0.787 2.842 -2.245
1.123 2.627 -2.01
1.688 2.19 -1.733
1.386 2.606 -2.284
1.794 2.29 -2.083
1.962 2.454 -2.382
2.133 1.624 -1.992
2.116 1.881 -2.27
2.194 2.159 -2.516
2.141 1.301 -1.585
2.428 1.273 -2.257
2.435 0.969 -1.874
2.042 0.907 -1.262
2.342 0.599 -1.57
1.981 1.32 -1.261
1.884 0.909 -0.851
1.83 1.271 -0.85
1.861 0.913 -0.411
1.81 1.26 -0.41
1.976 0.918 0.014
1.921 1.286 0.015
1.815 1.702 -1.251
1.684 1.607 -0.842
1.669 1.581 -0.402
[...]
CELL_DATA 2098
SCALARS cell_data_0 double
LOOKUP_TABLE default
1.24079034875e-06
1.7944377426e-06
6.36375607432e-07
3.25264810015e-07
1.74679967467e-06
1.51510467087e-06
1.1565660775e-06
1.17264734287e-06
2.25634985607e-06
2.35497340611e-06
1.68412568914e-06
1.64630071255e-06
1.34730311006e-06
4.21408307476e-07
1.15052895097e-06
2.40736492625e-07
3.89787183547e-08
5.93289989047e-08
1.53081162749e-08
1.15240157675e-07
1.12472044498e-07
1.59931499087e-07
2.57539226406e-07
4.33900212792e-07
1.36725159994e-07
1.87948395241e-07
7.68272924319e-07
6.98247169266e-07
2.05602376186e-06
1.38950964613e-06
4.47696846848e-07
2.30357173026e-07
4.13526163709e-08
1.06736579517e-07
3.1236728833e-06
2.30362383956e-06
1.24350112875e-06
1.10596666853e-06
4.31673290123e-07
4.66571971133e-07
2.10391547274e-06
6.39455818636e-07
1.27639065846e-06
3.88269873148e-07
3.39963664337e-07
1.07156017812e-06
2.51824435022e-07
3.46809044281e-07
2.64382686811e-07
3.00297776952e-07
8.42721234923e-07
1.05973593267e-06
1.66903653756e-06
2.4594666491e-06
1.6942086374e-06
2.4039637985e-06
8.61904547204e-07
1.52387501616e-06
4.60160191889e-06
5.00697740992e-06
4.25439607162e-06
4.45051159631e-06
3.32904134619e-06
4.18881753863e-06
4.84844420135e-06
3.68029271957e-06
4.68408869719e-06
4.85538691776e-06
5.28520167824e-06
3.77545266691e-06
7.50562904361e-06
1.02089324206e-05
1.0473135071e-05
1.05624571218e-05
6.20815385743e-06
8.04843450029e-06
9.51011022015e-06
7.60256116258e-06
9.64641437261e-06
7.51422592851e-06
9.75823382705e-06
9.3084087667e-06
3.14255769054e-06
2.05146273514e-06
3.83741337228e-06
7.07795985466e-06
4.98748080775e-06
8.14225871344e-06
6.1123611627e-06
8.61798204343e-06
5.74072352158e-06
5.06955496535e-06
8.50191769649e-06
4.59209657591e-06
7.63958938774e-06
6.03388476752e-06
5.5958262616e-06
3.04061274322e-06
3.3175467981e-06
3.71253998618e-06
4.06215714453e-06
4.18410798801e-06
3.0980326502e-06
1.90889287051e-06
1.09566234548e-06
3.23630058933e-07
3.53652344443e-06
4.79838649024e-06
4.04499836404e-06
2.52622458678e-06
2.22697229067e-07
1.66902271873e-07
9.44787269779e-06
9.38604717394e-06
2.37255132306e-05
9.60522316157e-06
1.22518992257e-05
2.23947616223e-06
3.3321135026e-06
7.43298560965e-06
3.34815171738e-06
1.86293300664e-06
1.47400842473e-06
1.17239437816e-06
8.30508325848e-06
5.43927460601e-06
3.51905834587e-06
9.23472616617e-07
1.19688019349e-07
3.1648526031e-06
4.06940341998e-06
2.91527181151e-06
1.87397890087e-06
9.47268674377e-07
3.1912572008e-06
4.5021820287e-06
3.08517803031e-06
8.57791736673e-07
3.11942337237e-07
3.94957468059e-07
1.64951706524e-06
1.55123913199e-06
6.46987122466e-07
1.9072429822e-07
1.0722531822e-07
1.16817880564e-07
2.31900138543e-07
8.08501659246e-09
2.46375215578e-07
2.62675239769e-07
4.55903911681e-07
3.94128377476e-07
3.87610722791e-07
2.26896605875e-07
5.04252928136e-08
1.12267888136e-07
2.08867490379e-07
1.34362789821e-07
1.68723692898e-07
6.21688176044e-08
4.38568923473e-07
3.42967314704e-07
9.98853878921e-09
1.9377420596e-07
2.16380484453e-07
2.7359484729e-07
3.43817289782e-07
3.44752535528e-07
4.06591554735e-07
6.34840602023e-07
5.39796150365e-07
4.90198017968e-07
1.6947931137e-07
2.59835649928e-07
2.65736453789e-07
3.04309815628e-07
3.12739788664e-07
3.81943073312e-07
4.27389906993e-08
1.02728467482e-06
7.14072756911e-07
5.89924864778e-07
1.13154041761e-06
1.44106470986e-06
1.2602887263e-06
4.74634244575e-07
6.61841861864e-07
1.17265341153e-06
9.2360804737e-07
8.90814073455e-07
1.73851389374e-06
1.99288292341e-06
2.36105222607e-06
2.7903885143e-06
1.84685503069e-06
2.39361701527e-06
2.18785183917e-06
2.5842157117e-06
1.75500378932e-06
2.52720215775e-06
2.29103307546e-06
2.49684515274e-06
2.60452002121e-06
3.01132018546e-06
2.24192502795e-06
2.0264402666e-06
1.64930462729e-06
1.08470085507e-06
1.52903910346e-06
1.64599828393e-06
1.87844879998e-06
3.3106530022e-06
4.07475786099e-06
5.08402078057e-06
1.44987005366e-06
1.11067192665e-06
1.38379267366e-06
1.05763904458e-06
1.75657527457e-06
1.47269759722e-06
1.59974201998e-06
6.67130815777e-07
1.31163294663e-06
2.26101460356e-06
1.36405633835e-06
1.31252024579e-06
1.63591547465e-06
1.25522920681e-06
1.15938338493e-06
1.10700564256e-06
5.83569928681e-07
1.42405176153e-06
1.36104359954e-06
3.82168933077e-06
1.89862891267e-06
2.63621139625e-06
3.30303110129e-06
3.67237552503e-06
3.74795535981e-06
4.15134513452e-06
2.26636665652e-06
1.91785494702e-06
2.19825318566e-06
1.02809922137e-06
2.04906377538e-06
2.47757448942e-06
5.85472310236e-07
1.23056408037e-07
9.60988255831e-07
4.13197284338e-07
5.3413601407e-07
1.23499590584e-06
3.85145791923e-07
5.83049885823e-07
8.98849736835e-07
9.27086832028e-07
1.03494730611e-06
1.11056657151e-06
1.17007908134e-06
1.31286144252e-06
1.2726376521e-06
1.45330232904e-06
1.10971488573e-06
1.0118867602e-06
1.06062037132e-06
8.09926921472e-07
6.78030539004e-07
4.18059976137e-07
7.0435499331e-07
3.05327948654e-07
4.42252240016e-07
3.26868560582e-07
3.79925128884e-07
2.69094175121e-07
2.26024153191e-07
2.1696072966e-07
2.34522868197e-07
2.68575984885e-07
2.44631184652e-07
1.31125476729e-07
3.77402334329e-07
3.55705912476e-07
3.04100302015e-07
2.82107603689e-07
1.69264061865e-07
3.66369087727e-08
2.73974008859e-07
2.51274231832e-07
3.94331217141e-07
3.18665720489e-07
1.56500298217e-07
2.15043477209e-07
2.32568404553e-07
2.85584424073e-07
6.8699663517e-07
1.47256775452e-06
1.70295645266e-07
2.54542476045e-07
6.97785838387e-07
1.0100010593e-06
7.26813989483e-07
1.48132298602e-06
3.72607297338e-07
1.13320510588e-06
1.87559954886e-06
2.43421334303e-06
3.66013670672e-06
1.96465570153e-06
4.10184861208e-06
4.28664613223e-06
3.76781764935e-06
7.8446678149e-08
4.51163607034e-08
1.18586732617e-07
2.15296345888e-08
5.48891114371e-08
5.31316706362e-08
4.97034764406e-08
1.39364633415e-06
3.31360313261e-06
1.41351848051e-07
8.37631991156e-08
4.48261485386e-07
1.24061505329e-06
1.45594977937e-06
1.08316146163e-06
7.7698868872e-07
2.76514627627e-06
5.33804086617e-06
7.28377682121e-06
1.23890546175e-05
1.2194679388e-05
2.03528458695e-05
1.99754909467e-05
2.26843614016e-05
2.08369289915e-05
1.60041497921e-05
1.14434217842e-05
4.4640752252e-06
7.63077786888e-06
7.98799732837e-06
2.70839659224e-06
2.62422243556e-06
3.38703634761e-06
5.54814407031e-06
3.37579058341e-06
2.32895266856e-06
1.07581179835e-06
6.06933753584e-07
4.79067892536e-07
5.11324864596e-07
4.5700900223e-07
6.32036853593e-07
4.43308403278e-07
1.92706854008e-07
1.35326104047e-08
2.33111899644e-07
2.72276932131e-07
4.3984929832e-08
1.33685997773e-06
8.2419903552e-07
3.43796276514e-06
2.33576818813e-06
3.87824846398e-06
2.64443966242e-06
5.70546731469e-06
3.46428100881e-06
2.93413161728e-06
4.49135468892e-06
1.396686341e-07
6.84948847884e-07
1.37587646344e-06
6.22604624077e-07
1.45333151868e-06
4.50613859018e-06
6.90381676157e-06
5.18282993016e-06
1.8756380638e-06
3.9301424159e-07
7.45187898254e-07
7.45118189947e-07
2.44402862571e-06
1.62204065173e-06
1.52233543535e-06
2.25037014005e-06
2.42462213818e-06
1.09333865969e-06
1.17189700551e-06
1.35157903439e-06
3.03987705223e-06
2.89197551097e-07
3.17629398111e-07
1.56138901421e-06
1.22073587765e-07
1.96018316925e-06
1.50013596185e-06
1.31590499648e-06
2.24316263509e-06
1.83762908496e-06
1.17887523184e-06
1.2825072262e-06
1.14903934318e-06
3.32161905852e-07
5.79665746588e-07
9.18578750409e-07
7.47449270896e-07
1.32773249953e-07
1.12841700264e-06
1.26194309921e-06
2.17905052712e-06
2.7183167131e-07
1.02208421978e-07
1.60336082676e-06
2.68235974635e-07
8.34171179342e-07
2.93311132359e-07
6.02512252044e-07
6.63562086307e-07
1.57631373856e-06
2.25863358016e-07
1.22368410466e-06
2.11051059117e-06
6.80759331155e-07
7.32235976581e-07
3.2445993389e-07
2.37496589553e-10
1.65290874909e-06
3.40134295221e-06
4.48915380288e-06
2.23119864194e-06
1.13913918075e-06
4.49543855852e-07
3.63275382136e-07
2.79208936008e-06
4.26520307657e-06
2.69609344003e-06
5.08799610863e-07
2.62797126025e-06
2.36576774982e-07
6.57231499769e-07
3.26754866272e-06
4.74421550216e-06
2.81131703425e-06
2.04659131657e-07
2.34088656129e-06
2.20952142279e-06
4.11772814025e-06
1.59531497857e-06
9.02385358549e-07
4.14973538422e-06
5.84012182224e-06
2.87584679865e-06
6.29361462152e-08
1.99265680901e-06
1.64577966958e-06
8.42802922768e-07
7.49233483126e-07
7.35243419404e-07
5.44213932145e-07
5.91693669853e-07
6.75774196286e-07
1.82922972401e-06
1.59745988121e-06
1.20834998694e-06
4.355509679e-07
1.05368103606e-07
4.72002166607e-08
1.47205202429e-08
1.71855907374e-07
5.49855410111e-07
1.22277208077e-07
6.9998040265e-07
3.06251769856e-07
9.76676264152e-07
7.85394730171e-07
3.31877435766e-06
1.62453170277e-06
2.52428578461e-06
2.8664596619e-06
3.49504908915e-06
3.79001865257e-06
6.27401713268e-06
3.30399206295e-06
3.18693176456e-06
3.25915662954e-06
1.36273518007e-06
2.79482815116e-06
2.47886317343e-06
1.28071827783e-06
6.37125020643e-07
7.41955901079e-07
9.11763265853e-08
1.61497609506e-08
2.55562538616e-06
2.36427443753e-09
2.35737855674e-06
2.53814137407e-06
8.23470086733e-06
7.8137006109e-06
2.30194881512e-05
1.37951671024e-05
2.76374422212e-05
2.13936974697e-05
2.47790923905e-05
2.51774116342e-05
2.92982213902e-05
6.02290872288e-05
4.15570301198e-05
1.93816964381e-05
1.56016499054e-05
2.25059782453e-05
2.33115649503e-05
2.57991033487e-05
5.72102238602e-06
1.36396103522e-05
1.56712664269e-05
1.68221736499e-05
9.07550190538e-06
1.00460129577e-05
1.9590300589e-05
1.98490972983e-05
4.26834914656e-06
2.94207325605e-06
1.31799972542e-05
1.49303891016e-05
7.91364311608e-06
2.15487614577e-05
3.88260680475e-05
4.03128500584e-05
6.03181308261e-06
3.17480723437e-06
1.11053565054e-05
2.32468941098e-05
5.03822280308e-05
7.93621771083e-05
7.11095620621e-05
2.83959134844e-05
2.05542291446e-06
4.55034241461e-06
9.18100057781e-06
2.18532317923e-07
3.13867252685e-06
3.02579084813e-06
1.94991549334e-06
1.89450662428e-05
1.26364845526e-06
1.60346014672e-06
3.32453415032e-06
7.58076949415e-07
2.53876946675e-07
5.00410337044e-06
4.90027463886e-06
2.52413724497e-07
7.8807406723e-07
3.11489422705e-06
1.09157446649e-06
2.91145842053e-06
5.57306383725e-06
2.52650246668e-05
1.83198764617e-05
1.23912636326e-05
1.48881662833e-05
1.92079157199e-05
3.14820072131e-05
1.70702700058e-05
8.2887742927e-06
5.6337474997e-07
1.1059268558e-06
6.32861315749e-06
2.29624333297e-05
1.06890918068e-06
1.07109732106e-06
1.3959435093e-06
2.77317294351e-06
4.4001315239e-06
5.62535694696e-06
1.32767413281e-05
4.3387949247e-06
8.87385813666e-06
5.64444267885e-06
7.48006186845e-06
5.74670611935e-06
4.45589113053e-06
6.52263533269e-06
5.03817321275e-06
5.06884588525e-06
2.69754901992e-06
2.42771846945e-06
9.28388525055e-08
1.80902829758e-07
1.67504385444e-07
4.01632190733e-07
1.44275731916e-06
9.17032776953e-07
6.856535556e-07
1.20792908974e-06
8.12313138456e-07
8.19089605266e-07
4.24415088738e-07
1.63066502382e-07
2.22771194532e-06
1.70649424702e-06
1.02296379012e-06
3.82977324095e-07
2.99492677804e-07
2.58198719017e-07
7.96946212286e-06
1.52918865953e-05
1.49680463401e-05
3.97636375503e-06
1.24543540844e-07
4.3452224411e-06
7.16665442201e-06
6.39898649822e-06
9.08855842712e-06
5.17151235326e-06
1.82107237367e-06
4.46946278812e-06
1.49932035131e-05
2.02018818644e-05
1.78119844784e-06
3.41610244165e-06
2.37927433021e-05
1.71965770063e-06
3.2516340556e-06
4.31624984427e-06
8.78604056235e-06
1.24635425534e-05
3.78396668928e-07
4.67936977271e-07
2.81638647798e-05
2.23566205298e-05
1.17906350166e-05
1.27089310141e-06
1.99703742519e-05
2.59183704878e-06
3.12486149495e-07
2.79236110258e-06
2.78091061143e-06
1.82513384834e-06
1.16836713964e-06
9.37501635276e-07
2.23542990043e-06
3.01910370101e-06
5.54371932683e-07
1.74519623558e-07
8.31334705321e-08
4.75635165541e-08
7.50081793848e-08
5.08497677701e-09
6.49578928291e-08
5.55046600963e-08
2.52794154551e-08
1.52221818615e-08
6.02172401982e-08
1.81942424849e-09
4.46395156867e-08
6.07284308774e-08
1.04277930568e-07
4.86090219179e-07
1.09914082113e-07
1.51407114705e-07
8.89479979467e-08
2.23232372711e-07
1.49871137786e-07
6.72797243638e-07
6.41534779277e-07
7.86917688836e-07
2.01421746368e-07
1.23333550513e-07
2.38269105942e-07
1.0611990263e-07
4.0148600608e-07
6.93610909509e-07
7.78203071576e-07
4.05624003696e-07
7.91300737891e-07
3.1865335404e-06
1.97189348079e-06
8.82341362904e-07
9.47255388631e-07
2.2344391953e-06
4.2281717768e-06
1.95492382191e-07
1.24191546243e-06
3.21535640674e-06
1.00495190355e-06
2.0212028657e-06
1.76890986465e-06
1.42025963199e-07
1.46168335329e-06
1.04075976201e-06
2.43198118007e-06
2.29100385105e-06
1.35627186988e-06
3.08715118861e-06
2.89771492014e-06
1.96043120825e-06
2.23160608216e-06
2.66381236074e-06
1.38247761649e-06
9.8281950476e-07
1.20474621427e-06
9.81466848749e-07
4.6333901141e-07
4.06496001658e-07
4.37184028631e-07
2.22311772576e-07
4.91512797293e-07
3.86917424492e-07
8.45348629651e-08
4.07960750594e-07
2.35109807803e-06
7.41536864782e-07
4.43951163874e-07
1.97025910634e-07
1.38822933768e-06
7.49655136378e-07
7.01694487443e-09
2.79072015108e-08
1.05694736737e-08
3.31336267657e-08
3.9912963749e-08
1.55430654091e-07
1.62442780653e-07
9.58274184878e-08
6.37946065623e-07
7.94941887971e-07
1.07571771493e-06
6.98167886602e-07
8.12089656658e-07
1.7922854794e-07
1.02930314431e-06
7.48897066997e-07
4.03950358744e-07
7.74176674896e-08
6.49667845385e-08
1.35079492526e-06
7.74203577593e-07
3.39414513824e-08
1.08751453374e-07
8.67099151523e-08
1.7470731656e-06
8.62441219466e-07
8.88074642229e-07
1.02465855279e-06
5.67201706434e-07
4.45737415941e-07
6.04893339718e-07
2.06624733353e-07
1.28627519004e-06
2.70048354366e-06
6.12680203988e-06
2.41001033595e-06
4.21020627294e-06
1.9472415924e-06
4.08141452858e-06
3.31252863985e-06
2.51686632433e-06
1.59528688074e-06
1.53391451861e-06
3.13496446353e-06
3.08179487076e-06
1.43294154257e-06
8.58553164017e-07
1.64707436357e-06
2.56554545917e-06
4.55594308518e-06
2.75345470455e-06
5.72846280219e-06
1.11432667483e-05
1.13763471821e-05
6.58937969672e-06
1.28187596495e-06
1.36516034943e-06
4.77609853723e-07
1.21962348207e-06
1.49031734774e-06
7.20794459224e-07
7.97094855041e-07
4.73132157699e-07
8.77256536728e-07
6.93303951434e-08
9.73574305307e-08
4.52652219654e-07
8.63870081963e-07
4.48654115173e-07
1.17671544282e-06
8.84359475254e-07
8.99737368701e-07
3.35694532905e-07
1.53056966239e-07
8.66798989028e-07
9.60061366243e-07
8.43699063919e-07
4.24688588093e-07
3.0844072e-07
4.93043172909e-08
9.64254340024e-08
6.00270209814e-08
2.0996146662e-08
4.07300279329e-07
3.31130239396e-07
5.7333297611e-07
5.47621645814e-07
2.25273635511e-06
2.1375898538e-06
1.00303492372e-06
8.25060679214e-07
3.21117053468e-06
4.47064232856e-06
1.87632788634e-06
3.30867309692e-06
3.89851160477e-06
2.8166872715e-06
2.45274479026e-06
1.1371269988e-06
6.35514428871e-07
2.81269142726e-06
3.34501224032e-06
4.88186534184e-06
4.68452248798e-06
4.10425993022e-06
3.20581643486e-06
2.40784968326e-06
1.28104583419e-06
8.19188721888e-07
1.38131667516e-06
9.926129968e-07
9.93883085826e-08
6.88329464494e-07
1.05880963502e-06
1.05083554517e-06
9.44313671174e-07
8.83751640006e-07
7.9242732776e-07
5.87148953065e-07
5.21644317191e-07
1.51144298445e-06
8.52712259235e-07
7.81457210551e-07
7.633661103e-07
8.28320682257e-07
1.61718391571e-06
6.50583789675e-07
1.77750082205e-06
9.74983694619e-07
8.00714801993e-07
5.35520963886e-07
5.48641042182e-07
2.07252454592e-06
1.83555872369e-06
1.23546090866e-06
2.89105114047e-06
3.68871780308e-06
2.59553719571e-06
6.06323484708e-07
1.31034935193e-06
1.59233188663e-06
1.10639804711e-06
4.52803699994e-07
1.52330996188e-07
1.73831372151e-07
5.93435293138e-07
1.72048084928e-07
9.93849246188e-07
3.47751125964e-07
2.06260481119e-07
2.23357302737e-07
1.22209325986e-06
1.74864267735e-06
8.40635762516e-07
1.39219149968e-06
5.45837298705e-07
6.25340734379e-08
2.15529190086e-07
1.07155700619e-07
8.95094554641e-08
1.72172495985e-07
3.6648281238e-07
6.07087206023e-07
1.17720235014e-07
4.22137031184e-07
1.27388422826e-06
1.52033711679e-06
8.1242374537e-07
7.09122561457e-08
8.31606834914e-07
2.11651621128e-07
4.08799450169e-07
1.16520374645e-06
1.3510636103e-06
1.00415358196e-06
8.01783453403e-07
2.36111394859e-06
1.79552385174e-07
1.70943856183e-06
3.13916854002e-06
2.22040817743e-06
2.09646750652e-07
4.7026273123e-07
1.40802509588e-06
9.63549011541e-07
6.64065480966e-07
3.75832451688e-06
2.23402086411e-05
1.69687309453e-05
1.10786460551e-05
3.97541237759e-06
4.21136844728e-06
9.03880124264e-07
1.20652215964e-07
3.85448638857e-07
5.72433657238e-06
9.13149616822e-07
2.54434019753e-06
1.61887456658e-06
2.57953265545e-06
2.34485140274e-08
7.29391449597e-06
6.91121831094e-06
4.44725171822e-06
3.0825274575e-06
1.0372275782e-06
2.11414509609e-06
4.39065977733e-06
5.77690007629e-06
2.77825001777e-06
4.65400360517e-06
2.98296220377e-06
8.26111147136e-06
2.72579595459e-06
1.11098300295e-06
7.2793516801e-07
1.97358007616e-06
3.67236498371e-06
8.11313701635e-07
1.27918048627e-06
8.20431612089e-06
1.14103091368e-06
2.98268396299e-07
1.33033472736e-07
1.32729707005e-06
1.4089950113e-06
2.10634911496e-06
5.60788021571e-06
3.66385238953e-06
5.74111003817e-06
6.22595951401e-06
5.52435271451e-07
1.0854296377e-06
8.88040810916e-07
7.37028851107e-08
1.43184320724e-07
2.55820793744e-07
3.17776925395e-07
4.16581361574e-07
1.47998984669e-07
5.60115014196e-07
5.56743835294e-07
1.48468749861e-07
1.0231021361e-07
8.15859577487e-09
6.65914753543e-08
1.12445874972e-07
1.05663928318e-07
1.12146042211e-07
1.71187636612e-07
1.85571926772e-07
1.78797698644e-07
1.42912504646e-07
1.53986412272e-07
1.20474634357e-07
5.23513327572e-08
5.23579184645e-08
1.76787858979e-07
1.48646892969e-07
1.30549620956e-07
1.31560824914e-07
2.13980320121e-07
2.1840049463e-07
1.63194767852e-07
1.01260300259e-07
2.818871149e-08
1.79521578211e-08
4.94829433439e-08
4.49543170337e-08
8.87396094151e-08
8.24898968658e-08
4.76412649367e-08
5.80433332753e-08
8.24033881235e-09
3.91681561637e-08
9.76822631412e-08
5.53056446331e-08
7.86120424223e-08
3.51401255934e-08
1.0453772038e-09
1.28405326985e-09
1.47716485988e-08
3.1590244786e-07
6.45427893631e-07
6.18632967148e-07
8.95929157455e-07
1.5113876322e-07
6.34651005798e-07
2.30172221405e-07
5.1769970787e-07
6.6449768063e-08
1.84316389222e-07
8.82438550385e-07
5.55401246909e-07
7.07863539406e-07
5.81493152986e-07
2.11641732858e-06
5.75458631474e-07
2.28495462587e-06
1.7609508612e-06
1.98773993449e-06
3.32854534198e-07
3.24929991005e-07
1.31864434776e-06
3.62537000332e-06
1.67147767923e-06
1.09910794465e-07
2.18311078123e-06
7.00074866769e-07
2.64160769681e-06
1.41468736249e-06
2.72305045589e-06
5.48928229156e-07
9.31252820061e-07
3.72296067812e-08
7.97120543138e-07
6.70837950068e-07
4.15138227156e-07
1.13727337223e-06
1.73622188896e-08
4.35333430567e-08
4.62370869767e-09
1.34310649418e-07
8.45461829991e-08
7.80325456479e-07
1.44366003743e-06
4.38930994336e-07
8.17199987032e-08
6.0580029158e-08
1.41820515085e-06
1.69581579159e-06
1.54827117327e-06
2.43848932947e-06
3.67953269967e-06
3.1043154681e-06
1.79396558916e-07
1.31248278858e-07
4.79847229002e-08
1.21676543555e-07
2.92734602922e-07
5.16752693119e-07
1.0363780359e-06
2.23989412228e-06
9.95094028526e-07
8.12609424478e-07
1.59380024207e-07
8.16175590899e-07
4.08523266387e-09
3.36635470433e-07
2.36493168165e-08
2.96123605609e-07
3.97149398415e-07
6.9755594205e-09
1.78677313292e-07
4.58741872283e-08
6.92487073962e-07
1.05433345425e-06
8.23233851541e-07
1.21145665555e-06
8.90527354896e-07
9.09267486474e-07
7.88403222319e-07
6.76464592608e-07
5.37003764422e-07
5.89470625983e-07
5.46965917542e-07
5.03974035264e-07
2.72753105918e-07
4.41727085404e-07
2.54098688516e-07
5.26811638509e-07
1.82333012998e-06
1.50996604483e-06
2.34622663701e-06
2.42103470597e-08
1.08475997063e-07
1.88281910102e-07
5.49739043727e-08
1.15798438412e-08
1.30941760569e-07
1.18674524657e-07
8.55437216353e-08
8.36372115747e-08
3.24343602355e-08
4.3289676525e-08
1.07965296658e-07
1.86449681724e-07
6.97641257402e-08
1.61483843222e-07
2.32046311885e-07
1.60743296991e-07
1.25755421641e-07
5.65347019147e-08
1.80071652549e-07
1.19509178013e-06
1.28552197785e-06