# vtk DataFile Version 3.0
File Name: Molecule/arg/arg_4.0-16_06.vtk
ASCII
DATASET UNSTRUCTURED_GRID
FIELD FieldData 1
TIME 1 1 double
0.0
POINTS 661 double
-3.403 0.327 1.604
-3.45 0.103 1.078
-2.981 -0.361 1.858
-3.028 -0.584 1.332
-3.298 -0.003 0.536
-2.876 -0.691 0.79
-2.971 0.024 0.066
-2.549 -0.664 0.32
-2.984 0.046 0.042
-2.471 -0.12 -0.363
-2.484 -0.099 -0.385
-2.2 -0.483 -0.862
-2.216 -0.458 -0.889
-3.25 0.578 -0.258
-2.57 0.022 -0.532
-2.777 0.436 -0.766
-2.39 -0.269 -1.153
-2.617 0.185 -1.409
-3.173 1.207 -0.458
-2.716 0.926 -0.921
-2.55 0.723 -1.58
-2.776 1.74 -0.497
-2.407 1.34 -0.951
-2.211 1.177 -1.613
-2.622 1.932 -0.429
-2.287 1.501 -0.894
-2.142 1.682 -0.83
-1.982 1.439 -1.492
-1.81 1.654 -1.416
-2.655 2.421 0.048
-2.046 2.135 -0.548
-2.075 2.574 -0.12
-1.615 2.438 -0.879
-1.647 2.927 -0.402
-2.495 2.657 0.67
-1.932 2.785 0.438
-1.488 3.163 0.22
-2.925 2.572 1.071
-2.137 2.872 1.156
-2.512 2.798 1.506
-1.863 3.333 1.507
-2.279 3.251 1.894
-3.186 2.284 1.521
-2.739 2.546 1.897
-2.53 2.972 2.328
-3.419 1.801 1.788
-2.888 2.359 1.917
-3.122 1.876 2.185
-2.717 2.558 2.345
-2.979 2.017 2.644
-3.567 1.179 1.827
-3.133 1.725 2.369
-3.262 1.186 2.403
-3.107 1.793 3.017
-3.25 1.192 3.055
-3.408 0.559 1.798
-3.123 0.649 2.378
-3.095 0.593 3.027
-3.105 0.348 2.085
-3.1 0.088 1.867
-2.97 0.105 2.152
-3.02 0.504 2.546
-2.901 0.29 2.606
-2.978 0.383 3.085
-2.865 -0.346 2.113
-2.52 -0.7 2.425
-2.794 0.071 2.575
-2.491 -0.24 2.849
-2.645 0.041 3.387
-2.46 -1.117 2.184
-2.148 -0.9 2.844
-2.09 -1.3 2.613
-2.003 -1.142 3.367
-1.937 -1.6 3.103
-2.268 -1.45 1.888
-1.906 -1.62 2.328
-1.726 -1.965 2.777
-1.967 -1.659 1.57
-1.617 -1.821 2.023
-1.396 -2.195 2.428
-1.592 -1.721 1.268
-1.257 -1.88 1.733
-0.984 -2.263 2.097
-2.026 -1.588 0.931
-1.237 -1.838 0.739
-1.646 -1.713 0.421
-0.96 -2.23 0.303
-1.437 -2.084 -0.068
-2.342 -1.257 0.596
-1.944 -1.402 0.106
-1.784 -1.721 -0.435
-2.487 -0.785 0.321
-2.08 -0.956 -0.154
-1.943 -1.202 -0.738
-2.189 -0.632 -0.224
-2.248 -0.516 -0.225
-2.131 -0.618 -0.861
-2.114 -0.682 -1.181
-1.927 -1.264 -1.052
-2.312 -0.441 -1.376
-2.121 -0.506 -1.916
-2.042 -0.816 -1.214
-1.838 -0.886 -1.79
-1.682 -1.348 -1.746
-1.975 -0.256 -2.322
-1.864 -0.768 -1.888
-1.672 -0.441 -2.421
-1.897 0.192 -2.527
-1.57 0.147 -2.691
-1.996 0.646 -2.441
-1.495 0.306 -2.776
-1.602 0.798 -2.682
-1.198 0.386 -3.152
-1.328 0.981 -3.039
-2.011 1.039 -2.18
-1.619 1.224 -2.399
-1.348 1.496 -2.696
-1.72 1.257 -2.235
-1.479 1.817 -1.75
-1.107 2.057 -2.211
-1.346 2.153 -1.415
-1.642 2.007 -1.116
-1.319 2.584 -1.178
-0.816 3.013 -1.267
-1.111 2.259 -1.642
-0.623 2.675 -1.729
-0.543 2.537 -2.312
0.466 3.148 -0.891
-0.416 2.926 -1.599
0.331 3.005 -1.38
-0.131 2.956 -2.042
0.328 3.005 -1.907
-0.002 3.1 -2.533
0.456 3.148 -2.398
-0.048 3.337 -3.001
0.699 3.415 -2.782
0.833 2.913 -0.61
0.619 2.806 -1.364
0.976 2.577 -1.092
0.892 2.689 -1.891
1.303 2.425 -1.576
1.057 2.557 -0.305
1.192 2.232 -0.796
1.553 2.026 -1.234
0.979 2.767 0.195
1.539 1.918 0.039
1.462 2.128 0.539
0.737 2.845 0.68
1.22 2.206 1.024
0.406 3.093 0.833
0.71 2.572 1.142
0.419 2.789 1.277
0.841 2.425 1.643
0.539 2.651 1.783
1.112 2.426 2.108
0.748 2.699 2.276
0.011 3.456 0.651
0.05 3.076 1.433
-0.284 3.383 1.279
-0.034 3.266 2.099
-0.415 3.616 1.924
-0.504 3.599 0.465
-0.72 3.504 1.122
-0.913 3.754 1.744
-1.038 3.495 0.311
-1.173 3.416 0.991
-1.429 3.653 1.595
-1.554 3.135 0.914
-0.08 3.426 2.677
0.304 2.919 2.221
0.258 3.08 2.801
0.695 2.881 2.933
-0.313 3.4 3.231
0.024 3.055 3.358
0.431 2.852 3.563
-0.687 3.194 3.654
-0.352 2.847 3.783
0.006 2.617 4.044
-1.222 3.175 3.77
-0.58 2.815 3.881
-1.2 2.794 4.016
-1.756 3.136 3.659
-1.82 2.748 3.887
-2.199 3.083 3.341
-2.333 2.687 3.518
-2.473 3.025 2.87
-2.65 2.619 2.973
-0.832 2.373 4.277
-0.242 2.183 4.431
-1.061 1.806 4.483
-0.466 1.628 4.634
-1.434 2.302 4.313
-1.452 1.611 4.604
-1.773 2.038 4.456
-1.892 2.602 3.976
-2.169 2.297 4.166
-2.355 2.652 3.532
-2.568 2.341 3.783
-2.74 2.445 3.06
-2.9 2.162 3.376
-1.464 1.095 4.666
-0.956 1.592 4.533
-0.968 1.074 4.596
-0.48 1.041 4.705
-1.655 0.731 4.634
-0.882 0.784 4.614
-1.066 0.434 4.582
-0.333 0.517 4.869
-0.555 0.096 4.831
-2.14 0.383 4.441
-1.246 0.178 4.538
-1.7 -0.148 4.358
-0.878 -0.357 4.785
-1.429 -0.753 4.566
-2.498 0.133 3.99
-2.035 -0.382 3.936
-1.836 -1.037 4.053
-2.172 -0.468 3.371
-0.383 -0.749 5.065
-0.05 -0.304 5.117
0.164 -1.171 5.088
0.507 -0.734 5.141
0.4 -1.671 4.946
0.615 -0.976 5.092
0.839 -1.451 4.956
1.043 -0.806 5.264
1.279 -1.306 5.122
0.636 -2.087 4.632
1.063 -1.845 4.659
1.514 -1.722 4.808
0.844 -2.371 4.183
1.26 -2.115 4.232
1.723 -2.007 4.359
1.002 -2.493 3.648
1.411 -2.231 3.724
1.881 -2.129 3.824
1.092 -2.439 3.086
1.496 -2.18 3.191
1.971 -2.075 3.263
1.104 -2.215 2.561
1.508 -1.967 2.692
1.983 -1.85 2.738
1.037 -1.846 2.131
1.444 -1.616 2.284
1.916 -1.481 2.307
0.647 -2.269 2.118
0.798 -1.688 1.555
0.487 -2.024 1.545
0.806 -1.676 0.912
0.496 -2.012 0.902
1.061 -1.813 0.337
0.67 -2.236 0.324
0.119 -2.499 2.107
0.068 -2.206 1.536
0.076 -2.194 0.893
0.142 -2.466 0.313
-0.457 -2.497 2.099
-0.39 -2.205 1.53
-0.381 -2.193 0.887
-0.434 -2.464 0.306
-0.808 -2.019 1.528
-0.8 -2.007 0.885
1.48 -1.078 0.031
1.043 -1.422 0.814
1.323 -0.93 0.61
1.205 -1.217 1.373
1.436 -0.812 1.205
1.517 -1.238 1.905
1.797 -0.747 1.701
2.335 -0.746 2.002
1.639 -0.712 -0.547
1.476 -0.549 0.311
1.615 -0.229 -0.195
1.697 -0.118 0.66
1.842 0.216 0.134
1.693 -1.21 -0.838
1.805 -0.426 -1.067
1.853 -0.872 -1.327
2.201 -0.141 -1.444
2.253 -0.62 -1.722
1.568 -1.637 -1.21
1.741 -1.254 -1.66
2.133 -1.029 -2.079
1.279 -1.936 -1.614
1.483 -1.521 -2.022
1.857 -1.315 -2.467
0.866 -2.068 -1.998
1.113 -1.639 -2.366
1.46 -1.442 -2.835
0.381 -2.015 -2.311
0.679 -1.593 -2.646
0.995 -1.392 -3.136
-0.112 -1.786 -2.513
0.238 -1.387 -2.827
0.523 -1.172 -3.329
-0.548 -1.409 -2.576
-0.152 -1.05 -2.884
0.104 -0.811 -3.39
-0.822 -1.287 -2.506
-0.408 -0.948 -2.806
-0.669 -0.831 -2.739
-0.336 -0.591 -3.197
-0.616 -0.466 -3.125
-1.31 -1.347 -2.194
-0.988 -0.705 -2.664
-1.485 -0.767 -2.346
-1.322 -0.31 -2.728
-0.95 -0.071 -3.189
-0.311 -0.212 -3.619
0.128 -0.454 -3.788
-0.16 0.24 -3.931
0.27 -0.03 -4.081
0.101 0.716 -4.098
0.516 0.418 -4.238
-0.411 1.252 -3.909
0.377 1.347 -4.4
0.11 1.626 -4.301
-0.398 1.946 -3.588
0.117 1.987 -4.134
-0.106 2.463 -3.53
-0.202 2.855 -2.684
0.028 3.029 -3.665
0.9 3.106 -3.671
0.173 2.486 -3.833
0.85 2.546 -3.838
0.989 2.064 -4.14
0.819 3.383 -2.845
1.267 2.733 -3.406
1.204 2.948 -2.765
1.749 2.404 -3.353
1.668 2.681 -2.526
0.902 2.914 -2.485
0.749 2.956 -2.405
1.123 2.627 -2.01
1.688 2.19 -1.733
1.962 2.454 -2.382
2.133 1.624 -1.992
2.194 2.159 -2.516
2.141 1.301 -1.585
2.428 1.273 -2.257
2.435 0.969 -1.874
2.042 0.907 -1.262
2.342 0.599 -1.57
1.911 1.516 -1.257
1.855 0.911 -0.632
1.743 1.428 -0.628
1.976 0.918 0.014
1.858 1.462 0.018
1.44 1.861 -0.608
1.861 0.778 -0.544
1.751 0.201 -0.446
1.991 0.665 -1.105
1.878 0.074 -1.004
2.497 1.237 -3.182
2.241 1.687 -2.422
2.29 1.662 -3.078
2.232 2.14 -3.028
1.83 1.363 -3.817
1.817 1.751 -3.528
1.863 2.209 -3.379
1.382 0.739 -4.338
1.413 1.57 -3.947
1.095 1.128 -4.316
1.103 1.869 -4.167
0.855 1.524 -4.455
0.482 0.901 -4.245
1.404 2.01 -3.684
1.315 2.161 -3.664
2.007 0.383 0.735
1.766 -0.192 1.22
2.031 0.236 1.284
1.991 -0.414 1.693
2.267 0.032 1.759
2.675 -0.196 2.083
2.074 0.941 0.928
2.088 0.713 1.449
2.326 0.528 1.931
2.749 0.417 2.295
1.884 1.434 1.198
1.926 1.135 1.68
2.158 0.967 2.172
2.541 0.959 2.592
1.624 1.884 1.117
1.755 1.469 1.75
1.503 1.904 1.671
1.842 1.579 2.299
1.557 2.073 2.21
1.11 2.216 1.58
1.886 1.845 2.759
2.132 1.224 2.493
2.174 1.477 2.929
2.585 1.225 3.051
1.814 2.002 3.263
2.105 1.625 3.407
2.513 1.382 3.555
1.633 2.033 3.763
1.933 1.655 3.881
2.331 1.413 4.055
1.359 1.937 4.21
1.674 1.563 4.305
2.058 1.316 4.502
1.021 1.721 4.561
1.354 1.359 4.638
1.72 1.101 4.853
0.651 1.408 4.781
1.002 1.062 4.847
1.35 0.788 5.074
0.073 1.245 4.841
0.82 0.891 4.947
0.23 0.725 5.008
0.672 0.387 5.179
1.205 0.294 5.301
0.564 -0.173 5.245
1.099 -0.256 5.367
-1.999 2.782 0.776
-1.065 -1.824 1.176
1.419 -0.545 0.696
1.7 -0.166 -0.791
-3.196 2.043 -0.114
-3.592 1.578 -0.026
-3.592 1.985 0.326
-3.196 2.357 0.319
-3.592 2.137 0.843
-3.196 2.469 0.843
-3.592 1.985 1.36
-3.85 1.69 0.843
-3.85 1.435 1.283
-3.592 0.264 0.574
-3.85 0.672 0.843
-3.85 0.927 0.403
-3.592 0.555 0.121
-3.592 1.045 -0.103
-3.85 1.435 0.403
-3.94 1.181 0.843
-3.85 0.927 1.283
-3.592 0.555 1.565
-2.722 -1.154 1.098
-2.722 -1.154 1.636
-2.722 -0.863 2.089
-2.326 -1.497 1.099
-2.482 0.597 -1.975
-2.482 0.047 -1.975
0.763 3.18 -0.086
0.367 3.4 -0.61
0.367 3.512 -0.086
0.367 3.4 0.438
-0.118 3.59 -0.615
-0.118 3.688 -0.086
-0.634 3.59 -0.615
-0.634 3.688 -0.086
-1.119 3.512 -0.086
-1.119 3.4 -0.61
-1.119 3.086 -1.043
-0.667 3.796 3.018
-0.667 3.906 2.497
-1.198 3.918 2.998
-1.198 3.65 3.431
-1.198 3.918 1.996
-1.198 4.012 2.497
-1.729 3.906 2.497
-1.729 3.796 3.018
-1.729 3.482 3.449
-1.729 3.796 1.976
-2.179 3.606 2.497
-2.179 3.474 2.987
-1.895 1.335 4.734
-2.426 1.603 4.572
-2.426 1.073 4.627
-2.426 2.064 4.305
-2.876 2.056 3.843
-2.876 1.697 4.202
-2.876 1.207 4.334
-2.876 0.717 4.202
-2.426 0.566 4.463
-3.176 1.738 3.353
-3.176 1.472 3.813
-3.176 0.942 3.813
-2.876 0.358 3.843
-3.176 0.676 3.353
-3.282 1.207 3.353
0.578 -2.491 4.272
0.08 -2.472 4.525
0.08 -2.776 4.08
0.578 -2.727 3.81
0.08 -2.934 3.566
0.578 -2.808 3.297
0.08 -2.934 3.028
0.578 -2.727 2.784
0.08 -2.776 2.514
0.08 -2.052 4.861
-0.44 -2.052 4.861
-0.44 -2.472 4.525
-0.44 -2.776 4.08
-0.44 -2.934 3.566
-0.44 -2.934 3.028
-0.44 -2.776 2.514
-0.44 -1.551 5.057
-0.938 -1.149 4.956
-0.938 -1.662 4.875
-0.938 -2.124 4.639
-0.938 -2.491 4.272
-0.938 -2.727 3.81
-0.938 -2.808 3.297
-0.938 -2.727 2.784
-0.938 -2.491 2.322
-1.374 -1.149 4.675
-1.374 -1.677 4.571
-1.374 -2.124 4.272
-1.374 -2.423 3.825
-1.374 -2.527 3.297
-1.374 -2.423 2.769
-1.714 -1.289 4.273
-1.714 -1.795 4.042
-1.714 -2.095 3.575
-1.93 -1.406 3.742
1.624 -1.33 -0.389
1.408 -1.719 -0.089
1.408 -2.019 -0.556
[...]
CELL_DATA 1318
SCALARS cell_data_0 double
LOOKUP_TABLE default
7.67371626385e-06
9.98861217794e-06
1.69697205993e-05
8.11872197054e-06
5.38362037333e-06
1.12137427514e-06
3.85456622345e-08
5.26522531847e-08
1.12138030451e-07
1.95168715188e-07
1.3481156753e-05
2.76375338452e-05
1.28200969529e-05
2.58105506602e-05
3.07093137515e-05
1.60231598502e-05
3.27581708912e-05
1.79967609921e-05
4.5203872803e-06
9.18575962804e-06
1.08419733444e-05
7.20815840757e-06
1.74119355032e-06
1.24478104966e-06
1.3217653113e-06
5.78973013764e-07
6.47956742225e-06
6.9615826087e-06
2.40609611921e-06
1.35640782636e-06
8.42671510032e-06
2.75635555491e-06
1.50309015604e-06
1.71934644979e-06
3.8708778158e-06
1.35268072811e-06
2.18123760366e-06
3.15651020956e-06
2.33170110962e-06
1.71216246929e-06
1.62481703099e-06
1.71776548529e-06
2.81468556529e-06
2.13420188089e-06
2.39933016318e-06
2.43882841756e-06
5.94546048835e-06
3.06366521805e-06
5.06356876337e-06
4.50517474997e-06
3.19087287822e-06
1.15762834322e-06
6.68580925376e-07
9.98776025981e-07
9.46105438888e-07
5.04839246136e-07
1.34341668213e-06
4.74034988991e-07
1.21118359953e-08
8.68988042636e-07
5.84070846386e-07
1.51749061055e-07
7.17618724274e-07
8.96262084903e-07
8.32850048759e-07
2.18959047216e-06
1.5641772893e-06
2.07411479769e-06
3.46559252597e-06
3.18687408118e-06
1.15600132674e-06
1.77480539569e-06
2.21760489306e-06
1.88700055056e-06
8.83362587003e-07
1.20792371943e-06
1.44308172413e-06
1.12704561008e-06
8.89018594032e-07
1.34284642493e-06
1.2570004112e-06
8.10367122458e-07
2.07766708079e-06
1.73496161848e-06
1.88799108349e-06
1.20060088593e-06
1.47650996184e-06
1.27275992605e-06
6.39709829574e-07
1.22252132279e-06
1.51444945182e-06
1.84542494737e-06
2.06252307259e-06
2.50860550173e-06
4.68646508812e-07
6.77637232535e-07
8.34798860809e-07
8.66416393207e-07
1.47202087178e-06
1.10030812037e-06
1.06877557399e-06
7.01459084555e-07
2.75128257262e-06
3.1147689548e-06
2.74047057554e-06
2.43235341567e-06
1.75780973681e-06
1.79050657878e-06
1.40457111492e-06
1.77081240777e-06
9.3425840854e-07
5.58989651777e-07
3.32470962876e-07
1.82546807972e-06
1.0930973888e-06
1.88465207746e-06
1.26573637825e-06
4.16522101229e-06
2.8775035519e-06
3.43003180118e-06
7.24274337624e-06
8.69498588947e-06
4.00010224447e-06
3.41469302406e-06
2.64043490872e-06
2.18763553949e-06
4.29764944848e-06
5.14863760551e-06
6.73113030409e-06
8.43954168827e-06
6.63231256664e-06
4.46472350526e-06
5.83607081977e-06
2.93585919953e-06
3.5794392747e-06
2.52287475755e-06
4.64722480043e-06
9.61389154329e-06
2.39287182302e-06
1.86080169492e-06
2.62759885413e-06
4.70338415011e-06
2.82304831865e-06
3.4032870423e-06
3.28113089742e-06
5.57864667496e-06
3.67932590644e-06
3.19804529346e-06
2.55869456813e-06
2.61871354626e-06
5.73948236046e-07
6.00986276619e-07
8.87027787502e-07
6.2841928909e-07
9.51148638801e-07
1.05400074375e-06
2.76013875588e-07
6.01063138777e-08
2.41497469345e-07
3.9282014785e-06
1.69096638047e-07
2.80261186822e-07
2.73149882407e-06
2.09946920361e-06
2.91312319559e-07
3.93990222729e-07
2.64215756932e-07
1.49562728976e-07
1.6713827501e-08
1.07194105018e-07
2.26465038243e-07
1.08372119452e-06
2.91184579388e-07
7.05734609916e-08
3.8997804032e-07
1.17066683806e-07
2.25378456795e-06
8.34532884459e-06
5.37253362491e-06
7.42028673966e-06
1.87589329e-05
2.68114121512e-05
1.70999217939e-05
1.10635375494e-05
2.64166695175e-05
2.24591991163e-05
2.79454232781e-05
2.47627011062e-05
1.96319180569e-05
1.13953160047e-05
5.83565562225e-06
5.59290529214e-06
1.47518805658e-06
2.48053463858e-06
1.02631950547e-05
1.79701835552e-06
9.64636862703e-06
2.55732663166e-05
7.05480347847e-06
7.2763531091e-07
2.05445832484e-07
2.61344269254e-07
8.00860251601e-07
5.15087608378e-06
9.01728917927e-06
1.32440831898e-05
8.59609483008e-06
7.08148803376e-06
6.10277452255e-06
4.96115882405e-06
1.30555621781e-05
1.49063263056e-05
3.14662868389e-06
3.23058676471e-06
3.07637220911e-06
5.68077199124e-06
4.32246572734e-06
2.95880063986e-06
5.03817219291e-06
6.31331918785e-06
2.51895175852e-06
2.72494808008e-06
3.15985708635e-06
6.77441193444e-06
3.26947218181e-06
2.12991218973e-06
2.84344524223e-06
2.90333765877e-07
1.21450889838e-05
1.6868530888e-05
1.32256488681e-05
7.65746981661e-06
2.36456500194e-06
2.40086802931e-06
1.88590502382e-06
1.40935199648e-06
5.64667545574e-07
5.12888449465e-07
1.30979253085e-06
2.49914172723e-06
6.5406277294e-07
7.19856582207e-07
5.4596440881e-07
8.12440412493e-07
3.59498697335e-06
3.08795249547e-06
2.30881503613e-06
3.10403399909e-06
1.71394951613e-06
2.03448324017e-06
1.50777048595e-07
2.56688577877e-07
3.12853418349e-06
3.95291534345e-06
2.77146628743e-06
3.86815331788e-07
6.38677477676e-07
6.36241085962e-07
7.45323361981e-07
9.23857900483e-07
1.01754073015e-06
5.14803212985e-06
4.12926352578e-06
4.66179360052e-07
4.56471895173e-06
4.23237915593e-06
6.03628965739e-06
3.23350350385e-06
1.75104534089e-07
2.80967481785e-06
2.34587026751e-06
1.25394199194e-06
3.23334340111e-08
1.40968993811e-06
1.90489859626e-06
7.4490817717e-07
2.1881510018e-06
1.25983565462e-06
6.51221223138e-07
9.1769173836e-07
1.07009189059e-06
1.7096109336e-06
1.6410558391e-06
2.34056237236e-06
6.19365050014e-06
4.32713887697e-06
4.02170504364e-06
1.66093480197e-06
9.16938362729e-07
4.45774534132e-07
2.00539244971e-06
5.21298956056e-06
2.55138292738e-06
2.47465287313e-06
2.2932936179e-06
1.97612984085e-06
4.44237916015e-07
1.85430665059e-07
3.9175399061e-07
3.93296095291e-06
8.09073718839e-08
1.97384948609e-06
5.87261909125e-06
3.44454096547e-05
2.04295849957e-05
3.38761388666e-05
3.79767580486e-05
0.000103776089898
4.04028657692e-05
2.48190613625e-05
7.70063234736e-05
0.000130139801413
8.99631364656e-05
6.73336662811e-05
4.40408369742e-05
4.22159172933e-05
0.000121661021988
9.2903440387e-05
4.79993917244e-05
5.67138419194e-05
9.37243962803e-05
4.28156542883e-05
4.73075437166e-05
3.30546121468e-06
1.85645769533e-05
3.8131574937e-05
3.85694942699e-05
1.53995462854e-05
3.31272381147e-06
8.47704729155e-06
6.36857923073e-06
1.39577286011e-06
3.809515947e-06
6.69587251723e-06
1.98202738082e-06
2.01087489363e-06
1.91196166709e-05
2.20320409556e-05
3.93889232497e-05
1.84544570928e-05
1.28118727603e-05
3.16030625536e-06
7.32881174219e-06
1.40145874958e-06
6.03100077851e-07
5.9527410284e-06
2.02977104065e-05
6.21284180436e-06
1.21229271019e-05
1.00143109388e-05
2.72429166358e-05
1.71401759623e-05
1.74521037119e-05
2.80259220637e-05
2.46256927733e-05
1.33110343022e-05
1.42962635361e-05
2.7367194075e-05
2.00456553322e-06
2.91126149669e-06
3.25360631155e-06
4.87324258006e-06
1.98035505925e-05
1.00429845329e-05
1.22950978414e-05
7.85337507393e-06
1.61862342903e-06
2.37487387272e-06
1.98337461237e-06
4.66292155204e-06
1.78685993336e-06
2.82924792918e-07
5.64015831815e-07
3.00104134764e-05
2.17968607806e-06
1.97336295009e-06
1.68011813889e-05
1.4239189212e-05
6.05449120468e-06
6.60295130485e-07
5.86062700345e-06
8.01851869015e-06
1.83936206783e-05
1.57390873824e-05
1.75085662194e-05
3.24912625465e-05
2.51444093559e-06
1.27529708965e-06
6.20484328115e-05
2.5946192645e-05
1.06534019283e-05
5.5197547077e-06
1.15100575951e-05
3.7368561087e-06
1.54222932287e-06
3.56751068144e-06
2.89019911007e-06
8.3434178986e-07
1.93246821445e-06
4.0673220904e-06
4.22512966168e-06
1.91326681653e-06
2.01864311715e-06
4.06571121536e-06
4.60691437527e-07
2.26504279114e-07
2.40235735864e-07
9.80793514005e-08
6.84044591458e-07
1.55061013299e-06
8.43630250486e-08
5.88329229404e-07
4.86592318784e-07
8.7924616102e-07
5.17559476947e-07
1.02763386145e-06
2.09776204066e-06
1.35953491448e-06
5.10975375589e-07
5.03354664227e-07
8.41472403451e-07
2.18551373292e-06
1.70152538926e-06
3.99306283535e-06
3.34667203474e-06
2.2981423521e-06
1.85871433004e-06
3.49880216124e-06
5.12548663218e-06
9.09821383582e-07
3.2130693062e-06
4.34096209334e-06
2.26571991192e-06
4.07538613148e-06
6.18512897849e-07
1.5285073627e-06
1.31873916515e-06
1.02485899291e-06
3.98730932195e-06
2.93441553404e-06
2.90900450338e-06
4.26441643876e-06
2.40296875975e-06
1.57015394055e-06
2.0856516385e-06
1.79015068595e-06
7.34703043038e-07
6.11612344809e-07
6.84843743787e-07
3.52991050378e-07
1.65338407536e-06
1.4352860824e-06
9.06776111773e-08
3.33632648531e-07
6.83412972266e-06
2.67749816356e-06
3.36052049819e-06
4.38853825795e-06
3.56685466075e-06
7.50435437345e-07
3.0932515196e-08
3.84906756874e-08
9.88802210943e-07
1.75441044467e-06
1.38097272116e-07
7.12629489529e-07
1.07831001537e-06
6.6459325584e-07
1.79952347123e-07
1.10850896293e-06
1.9723500165e-06
2.61866900544e-06
3.78523388546e-06
4.43890490134e-06
2.39505899393e-06
7.15246942544e-07
9.01557985767e-07
1.16434786652e-06
6.48425384273e-07
1.02013921201e-07
1.05228541303e-07
1.7606361163e-06
1.39618010624e-06
1.19098195103e-06
1.56033364813e-06
9.41780467938e-07
6.78897860552e-07
2.94144330966e-06
5.71461030083e-07
1.06746892097e-06
7.55400765254e-08
3.17445097407e-07
1.28766967099e-06
5.10226613779e-07
2.66713268182e-07
6.13368766123e-07
4.27167646777e-07
3.85232322612e-06
4.85903327428e-06
2.27348976013e-06
9.63075770571e-07
1.03845533898e-06
8.29914743085e-07
1.14956179446e-06
2.11748407953e-06
1.34930007954e-06
1.25992317017e-06
2.88451272976e-06
2.12498486524e-06
1.60346098554e-06
3.80747429283e-07
3.3953336644e-07
2.52135833065e-07
3.19845781208e-07
4.151140792e-07
3.5560657643e-07
8.49638331166e-07
8.07479300014e-07
4.89021434433e-06
2.28963889542e-06
2.13232790883e-06
2.3310175025e-06
1.30130128167e-06
1.06964201541e-06
6.64333994985e-06
3.14656388713e-06
2.33418276732e-06
3.91883107314e-06
3.02349133049e-06
7.04081195692e-06
2.91043991649e-06
9.19911394765e-07
1.55863491923e-06
2.14079684737e-06
1.79461741552e-06
2.61743406784e-06
5.15222430231e-07
2.96743117086e-07
1.17648394835e-07
1.76641115935e-06
6.12450325641e-07
7.02071546804e-07
5.50063017005e-07
4.96598521832e-07
4.87649296457e-07
5.63184405521e-06
1.03543528196e-05
9.06982336856e-06
4.09400027251e-06
4.01138128346e-06
1.66768327627e-06
1.13420468148e-06
7.38600787642e-06
5.08821139834e-06
4.16956651383e-06
1.52763473728e-06
1.29436964691e-06
3.48617997993e-07
7.18806888889e-07
1.45791126467e-07
6.69646539242e-07
1.4225768407e-06
2.96280875492e-06
3.21287520853e-06
9.97587336791e-07
3.31382360577e-07
2.40359980714e-07
5.48596171735e-07
4.50145651238e-07
6.02716942274e-07
1.0349885697e-06
2.30447058251e-06
9.76015880439e-07
6.89875554347e-07
9.51622801032e-07
1.05809080976e-06
1.10188705481e-06
3.92314990182e-06
4.66091722698e-07
1.5568751973e-06
6.12594896625e-06
2.22566809593e-05
2.16537934152e-05
1.45532235178e-05
1.47372222167e-05
2.4385218851e-07
2.46307996372e-06
8.48273920048e-06
7.30722559911e-06
1.3710908886e-05
7.61891235684e-06
7.28312244467e-06
7.46165301863e-06
9.8342356482e-06
1.52533896345e-05
6.32069201482e-06
5.7144703755e-06
2.14509079419e-06
5.55723410484e-07
5.91768045525e-06
2.33509741928e-06
1.47266295555e-06
7.78809946698e-07
4.79285955718e-06
4.80688005389e-07
3.7733367722e-06
8.18720012759e-06
2.46645054552e-06
1.25558847105e-06
2.982015553e-07
2.48911551881e-07
1.0397751466e-06
1.15050558949e-06
2.07774409588e-06
9.35817268556e-09
7.40792993341e-08
2.85882479813e-08
1.17555695044e-07
1.08208745912e-07
1.71900105867e-07
1.45721978462e-07
2.22341429795e-07
2.0905786325e-07
1.22542717472e-07
3.33452709076e-08
6.4944566899e-08
5.77782592895e-08
1.18686230898e-07
2.51850906387e-07
2.92462442761e-07
1.52190799539e-07
4.75075280567e-08
7.35300738165e-08
1.41901139207e-07
4.56554279572e-06
7.21981049183e-06
1.78739025638e-08
1.05989891783e-06
1.33872008073e-06
3.6999555464e-06
1.28169380279e-06
1.68295890949e-06
6.67662123472e-07
9.92438341976e-07
1.11635793971e-06
1.88173338994e-06
1.82999057199e-06
6.8757584466e-06
2.46865073521e-06
2.82451295883e-06
2.03552112634e-08
1.01360575631e-06
5.63195124667e-07
3.93159623963e-07
5.55856236291e-06
3.32962921892e-06
5.23333960996e-06
2.45246183841e-06
7.63953474054e-07
5.50265416245e-06
4.4233841348e-09
1.17681923526e-06
1.85387530849e-07
2.78528583328e-06
6.41780302615e-08
1.19888580557e-07
8.62112389235e-07
2.77233885525e-06
1.39610865846e-06
1.21462883195e-06
5.24385327696e-07
1.97563876024e-07
3.9181922179e-07
3.67382622252e-07
1.88951248569e-07
4.98782743519e-07
4.18317301382e-07
5.2266558594e-07
4.70344046947e-07
1.0235259206e-06
7.18906837921e-07
5.16360144277e-07
1.49737646417e-07
5.07619624523e-07
2.72130168111e-08
3.6415757693e-06
4.13609160364e-07
8.14449066191e-06
9.41265316125e-06
7.44190796424e-06
2.04869681307e-06
2.6784414173e-06
2.33692337342e-06
2.90467195798e-06
3.10694325333e-06
1.96464019045e-06
2.88041282773e-06
1.61680598714e-06
6.95339507507e-06
4.47963555588e-08
1.59828778914e-07
7.58000996643e-08
1.37076298018e-07
4.90785922966e-08
1.05467433061e-07
1.24671894242e-07
3.04995562731e-09
8.86925789152e-07
1.02878825189e-06
4.76182140268e-08
2.43798128413e-08
1.28293030017e-08
1.44510212134e-07
2.30632382005e-07
5.34293818533e-07
2.69779740487e-07
5.3636183287e-07
1.32672203929e-07
1.97535051229e-07
7.63412415358e-07
1.31788082402e-06
1.66990941572e-06
1.09878562311e-06
1.27062692158e-06
5.36648126757e-07
5.5446848035e-06
1.21877544062e-06
8.69457628865e-07
1.1395971382e-07
5.62718840809e-07
3.7729869114e-07
1.12365215863e-06
1.3207281587e-06
2.96631860921e-08
1.43671968627e-07
1.19812566845e-07
4.81532269172e-08
1.59299202366e-08
3.54904233369e-10
1.06705530054e-07
1.09542998377e-07
5.92132420204e-08
9.58007354746e-08
9.34297286075e-09
7.60984280361e-09
2.8655790129e-09
1.65276443866e-08
9.29796247872e-07
1.06574155891e-06
1.25753016596e-06
7.16664585362e-07
1.90021364213e-06
1.21748179353e-06
1.05665912172e-05
1.83900937366e-05
8.1362328864e-06
2.11065695165e-05
1.1000759967e-05
1.09210974152e-05
1.33885800763e-06
3.12480311923e-08
3.90738441808e-06
2.45026511302e-06
1.58682389773e-07
1.28159108898e-07
7.36714734902e-08
9.04548807218e-07
2.60400408197e-06
2.57091864972e-06
8.43730522135e-06
4.21689490816e-06
3.19980318712e-06
2.81431335185e-06
3.56166664714e-06
3.02297141554e-07
4.54950769232e-07
2.08305704242e-06
2.83389063521e-06
7.19685287065e-06
1.25482423858e-05
3.70309454668e-08
3.33478711734e-08
4.47693383305e-08
1.04578935717e-07
8.30143042927e-08
8.38631716074e-08
2.91343573974e-08
6.70225500278e-08
1.86569966526e-08
1.07256526574e-07
2.760184979e-07
2.56301871816e-07
1.00074978565e-07
4.4964653558e-08
1.4404446403e-08
1.71541312287e-07
1.34013612704e-07
2.14330202817e-07
4.45889460024e-07
7.06071845062e-07
1.71507351216e-06
2.74652575578e-06
1.35333231152e-06
9.08652651365e-07
1.29067310899e-06
8.76169646129e-07
4.49203919156e-07
7.129976683e-07
8.34102755695e-07
1.8944873415e-06
2.15850172922e-06
6.23713523408e-07
9.21617930173e-08
6.6557013753e-08
4.65129368819e-07
3.52063178047e-06
2.71085566146e-06
6.03621544491e-06
2.63363817697e-06
4.30581711233e-06
1.978690655e-06
1.83495303576e-07
8.13503937186e-07
3.44815065026e-06
7.08843993776e-06
7.54888342797e-06
9.02535317008e-06
4.22504837257e-06
3.472273818e-06
2.9650592392e-06
9.05193146882e-06
1.67612065759e-05
6.77889640724e-06
3.74734886318e-06
1.42508055795e-06
3.20634312091e-06
1.41462668527e-06
1.71779057535e-06
3.82810595881e-07
6.78696197226e-07
9.79361647827e-09
4.18801715169e-07
3.02388701637e-07
1.39647560327e-06
7.57276403998e-07
1.34020261036e-06
4.27714930295e-07
3.65353094529e-10
1.73234728276e-07
3.30236315419e-07
1.11027512303e-07
6.26917084736e-08
2.68896832054e-08
1.43626226853e-08
1.32923031147e-08
9.97598168365e-09
1.36786008267e-08
2.39043551423e-08
1.44072515663e-08
2.57145509704e-08
1.01831079368e-08
4.01936265365e-08
1.61757357592e-08
2.18772428284e-08
6.18379071647e-09
3.56926397969e-08
6.6400602679e-08
4.44929525593e-08
1.47602466345e-08
5.51549016947e-08
3.76541475193e-08
6.04230565462e-08
4.34716651774e-08
1.57552021e-06
1.26278466752e-06
1.69307419011e-07
1.00304529838e-07
3.79715683122e-07
1.69877585977e-07
1.97271273957e-07
5.43744870682e-08
1.35260892781e-07
5.32586276017e-07
2.30060084793e-07
2.13862710629e-06
2.15005835523e-06
1.29631929126e-06
4.14946252387e-07
2.02597836069e-07
7.2092166146e-06
9.68944947153e-06
7.16093592505e-06
3.40020292452e-06
7.33548825085e-07
3.9433218595e-06
1.19621165628e-05
5.74335011949e-06
1.16803712257e-05
7.70664233434e-06
1.79219288089e-06
7.52322169261e-06
5.13038148616e-06
8.24297044345e-06
4.53993382951e-06
7.90971927241e-07
9.81076350039e-07
2.72782397689e-06
7.84255696251e-07
4.37116690727e-08
2.08037828542e-06
8.48948341063e-07
3.57801528262e-08
3.46781828452e-07
3.12656560772e-07
3.52724308373e-07
2.49183184161e-07
3.37015330221e-07
7.82617591658e-08
5.48076264918e-08
7.43257937484e-08
4.18803229624e-09
5.51695879189e-08
1.23081449993e-08
3.42126267774e-09
5.04920515318e-09
6.01054541399e-09
2.52969515548e-09
5.17617458894e-09
4.56925151745e-09
5.41472903335e-09
2.18140473303e-08
7.52459550059e-09
6.58773574001e-09
3.97200944036e-09
5.92931870822e-09
3.03256763369e-09
1.27910215059e-09
2.48446000347e-08
1.3544292373e-08
9.41855239855e-09
1.70842460708e-09
4.37941526037e-09
4.3399096739e-10
1.71775367243e-09
4.83410566377e-09
2.05248210237e-09
1.15370487919e-08
3.41274421085e-08
9.02928442682e-10
1.82533867549e-09
5.19992103148e-10
1.93471593565e-09
1.06569059018e-09
2.86125311381e-08
8.04660968606e-09
9.69277739247e-09
1.80595625432e-08
4.22999451803e-08
2.97000077573e-08
1.69143922013e-06
1.75418531172e-06
1.14345316795e-06
1.36041327152e-06
5.72875029721e-07
6.17434465829e-07
1.84614872933e-05
2.16374245982e-05
8.7627518367e-05
3.47802257143e-05
4.74018094609e-05
4.37787823162e-06
2.10029378562e-05
9.56473931052e-06
7.88398241298e-06
3.06061077766e-07
2.3645792852e-07
1.88769414802e-07
1.96103867345e-07
1.31482888454e-06
7.74108692364e-07
2.40920211669e-06
1.45356622308e-06
3.24419446779e-06
1.75583657361e-06
1.78243778509e-06
2.7954712614e-08
1.20732318351e-07
3.77243182497e-07
2.93651537541e-07
1.48368384609e-06
6.96170704569e-07
7.28614269681e-07
2.95484318009e-07
6.25556736433e-07
4.53749035882e-07
2.35843165675e-06
9.27734839041e-07
1.24354563863e-06
4.39470559229e-07
1.03197465516e-06
7.39525762577e-06
3.26723103799e-06
6.49492280708e-07
3.39122440217e-07
9.10790254137e-07
9.0704106776e-06
1.78928645464e-05
3.62713720006e-06
1.03849380282e-06
1.25081840862e-08
1.97611006874e-06
3.37785838434e-06
2.98830755478e-06
5.1175958904e-06
3.42100465208e-06
1.06150963628e-06
3.22557571521e-05
1.93559145153e-05
1.02388947902e-05
4.95101841153e-05
1.55378358605e-05
4.66391373782e-06
2.37712836253e-05
6.15026048345e-06
2.9450721254e-05
2.29310538743e-05
8.78717518832e-05
0.000100793881276
2.22461612967e-06
5.11713823451e-07
4.17899490549e-06
4.56704773766e-06
4.27014818706e-06
5.96893299633e-06
3.53944438877e-06
6.35969422691e-07
3.0565128993e-07
1.01316659575e-06
9.00835871649e-07
1.6979452113e-05
1.90960299703e-05
2.73242423053e-05
2.80729661558e-06
2.8839841473e-06
1.83292456737e-06
6.33682841684e-07
1.027914627e-06
7.2438538322e-07
1.55856341957e-06
1.80381820063e-06
1.90526276429e-06
2.3443329866e-07
1.85195389838e-07
3.39269071854e-07
1.86115585358e-08
3.70774037163e-06
4.56014735072e-06
1.93518109748e-06
1.1802609364e-06
8.44713272433e-08
3.9301611109e-07
7.20137918033e-07
2.99675346892e-06
1.79548243218e-06
3.26203495088e-06
3.67453427599e-06
5.27826153543e-06
4.9129318392e-06
4.50006822545e-06
6.62671581739e-06
1.21860725198e-06
3.63746749645e-07
2.96714034276e-06
3.69271921265e-06
2.33913822473e-06
4.64316049335e-07
5.57194830416e-07
6.90645374476e-06
1.69648344746e-05
1.64387737387e-05
1.60951085742e-05
1.67215244211e-06
1.18466500326e-06
7.03370125967e-07
6.93577218079e-07
5.64298600366e-06
3.08374101776e-06
5.33030737842e-06
7.33741520676e-06
7.38267204368e-06
2.0658778362e-06
8.86600240308e-08
1.29527444304e-08
8.25222872163e-09
8.91729005531e-09
1.97712873274e-08
8.99128645777e-08
7.90711243545e-07
4.91107679429e-07
2.84769181584e-09
9.7512828965e-08
2.85974040524e-07
1.70637729656e-07
1.63365644118e-08
4.78103210601e-08
7.45145968584e-09
1.73573926324e-08
9.01651157826e-08
1.60373537786e-07
1.40762234179e-06
3.52588357425e-06
1.84374017091e-06
1.15840819952e-07
2.02659778478e-06