# vtk DataFile Version 3.0
File Name: Molecule/arg/arg_3.0-2.vtk
ASCII
DATASET UNSTRUCTURED_GRID
FIELD FieldData 1
TIME 1 1 double
0.0
POINTS 645 double
-3.403 0.327 1.604
-3.398 0.034 0.803
-2.981 -0.361 1.858
-2.976 -0.654 1.057
-2.971 0.024 0.066
-2.549 -0.664 0.32
-2.984 0.046 0.042
-2.471 -0.12 -0.363
-2.484 -0.099 -0.385
-2.2 -0.483 -0.862
-2.216 -0.458 -0.889
-3.255 0.893 -0.375
-2.57 0.022 -0.532
-2.781 0.681 -0.857
-2.776 1.74 -0.497
-2.407 1.34 -0.951
-2.621 0.454 -1.509
-2.211 1.177 -1.613
-2.622 1.932 -0.429
-2.287 1.501 -0.894
-2.142 1.682 -0.83
-1.982 1.439 -1.492
-1.81 1.654 -1.416
-2.655 2.421 0.048
-2.046 2.135 -0.548
-2.075 2.574 -0.12
-1.615 2.438 -0.879
-1.647 2.927 -0.402
-2.495 2.657 0.67
-1.932 2.785 0.438
-1.488 3.163 0.22
-3.186 2.284 1.521
-2.137 2.872 1.156
-2.739 2.546 1.897
-1.863 3.333 1.507
-2.53 2.972 2.328
-3.419 1.801 1.788
-2.717 2.558 2.345
-2.979 2.017 2.644
-3.567 1.179 1.827
-3.133 1.725 2.369
-3.262 1.186 2.403
-3.107 1.793 3.017
-3.25 1.192 3.055
-3.408 0.559 1.798
-3.123 0.649 2.378
-3.095 0.593 3.027
-3.105 0.348 2.085
-3.1 0.088 1.867
-2.97 0.105 2.152
-2.978 0.383 3.085
-2.865 -0.346 2.113
-2.52 -0.7 2.425
-2.794 0.071 2.575
-2.491 -0.24 2.849
-2.645 0.041 3.387
-2.41 -1.24 2.09
-2.148 -0.9 2.844
-2.042 -1.418 2.522
-2.003 -1.142 3.367
-1.882 -1.734 2.999
-2.078 -1.605 1.676
-1.723 -1.769 2.124
-1.517 -2.136 2.544
-1.592 -1.721 1.268
-1.257 -1.88 1.733
-0.984 -2.263 2.097
-2.203 -1.444 0.759
-1.237 -1.838 0.739
-1.813 -1.578 0.259
-0.96 -2.23 0.303
-1.631 -1.926 -0.256
-2.487 -0.785 0.321
-2.08 -0.956 -0.154
-1.943 -1.202 -0.738
-2.189 -0.632 -0.224
-2.248 -0.516 -0.225
-2.131 -0.618 -0.861
-2.114 -0.682 -1.181
-1.927 -1.264 -1.052
-2.312 -0.441 -1.376
-2.39 -0.269 -1.153
-2.121 -0.506 -1.916
-1.682 -1.348 -1.746
-1.897 0.192 -2.527
-1.864 -0.768 -1.888
-1.57 0.147 -2.691
-2.011 1.039 -2.18
-1.198 0.386 -3.152
-1.348 1.496 -2.696
-1.72 1.257 -2.235
-1.479 1.817 -1.75
-1.107 2.057 -2.211
-1.319 2.584 -1.178
-0.816 3.013 -1.267
-1.111 2.259 -1.642
-0.623 2.675 -1.729
-0.543 2.537 -2.312
0.466 3.148 -0.891
-0.306 2.923 -1.738
0.315 2.988 -1.555
-0.026 3.04 -2.368
0.4 3.085 -2.243
-0.048 3.337 -3.001
1.057 2.557 -0.305
0.619 2.806 -1.364
1.192 2.232 -0.796
0.892 2.689 -1.891
1.553 2.026 -1.234
0.737 2.845 0.68
1.539 1.918 0.039
1.22 2.206 1.024
0.406 3.093 0.833
0.756 2.48 1.392
0.466 2.698 1.526
1.112 2.426 2.108
0.748 2.699 2.276
-0.152 3.531 0.588
0.05 3.076 1.433
-0.422 3.446 1.225
-0.034 3.266 2.099
-0.572 3.688 1.862
-0.865 3.557 0.357
-1.026 3.468 1.03
-1.261 3.713 1.639
-1.554 3.135 0.914
-0.08 3.426 2.677
0.695 2.881 2.933
-0.313 3.4 3.231
0.431 2.852 3.563
-0.687 3.194 3.654
0.006 2.617 4.044
-1.359 3.167 3.763
-0.58 2.815 3.881
-1.359 2.784 4.008
-1.995 3.111 3.523
-2.096 2.719 3.73
-2.423 3.039 2.998
-2.593 2.636 3.121
-0.832 2.373 4.277
-0.242 2.183 4.431
-1.061 1.806 4.483
-0.466 1.628 4.634
-1.543 2.398 4.242
-1.452 1.611 4.604
-1.868 2.121 4.396
-2.128 2.66 3.763
-2.373 2.347 3.982
-2.655 2.52 3.176
-2.827 2.227 3.476
-1.464 1.095 4.666
-0.48 1.041 4.705
-1.655 0.731 4.634
-0.882 0.784 4.614
-1.066 0.434 4.582
-0.333 0.517 4.869
-0.555 0.096 4.831
-1.246 0.178 4.538
-1.7 -0.148 4.358
-0.878 -0.357 4.785
-1.429 -0.753 4.566
-2.14 0.383 4.441
-2.498 0.133 3.99
-2.035 -0.382 3.936
-1.836 -1.037 4.053
-2.172 -0.468 3.371
-0.383 -0.749 5.065
-0.05 -0.304 5.117
0.164 -1.171 5.088
0.507 -0.734 5.141
0.44 -1.748 4.904
1.043 -0.806 5.264
1.319 -1.383 5.081
0.709 -2.198 4.495
1.588 -1.833 4.672
0.93 -2.454 3.923
1.809 -2.089 4.099
1.07 -2.477 3.273
1.949 -2.112 3.449
1.108 -2.263 2.644
1.987 -1.899 2.82
1.037 -1.846 2.131
1.916 -1.481 2.307
0.482 -2.37 2.114
0.798 -1.688 1.555
0.356 -2.104 1.542
0.806 -1.676 0.912
0.365 -2.092 0.898
1.061 -1.813 0.337
0.505 -2.337 0.32
-0.229 -2.214 0.888
-0.243 -2.491 0.308
-0.8 -2.007 0.885
1.205 -1.217 1.373
1.436 -0.812 1.205
1.517 -1.238 1.905
1.797 -0.747 1.701
2.335 -0.746 2.002
0.547 -2.053 -2.217
-0.032 -1.836 -2.488
0.827 -1.627 -2.562
0.31 -1.432 -2.805
1.154 -1.428 -3.046
0.599 -1.22 -3.306
-0.548 -1.409 -2.576
-0.152 -1.05 -2.884
0.104 -0.811 -3.39
-0.822 -1.287 -2.506
-0.336 -0.591 -3.197
-0.616 -0.466 -3.125
-1.31 -1.347 -2.194
-0.988 -0.705 -2.664
-1.485 -0.767 -2.346
-0.251 0.008 -3.791
0.185 -0.248 -3.95
0.101 0.716 -4.098
-0.106 2.463 -3.53
-0.202 2.855 -2.684
0.028 3.029 -3.665
0.173 2.486 -3.833
0.9 3.106 -3.671
0.85 2.546 -3.838
0.117 1.987 -4.134
0.989 2.064 -4.14
1.267 2.733 -3.406
0.819 3.383 -2.845
1.204 2.948 -2.765
1.749 2.404 -3.353
1.668 2.681 -2.526
0.902 2.914 -2.485
0.699 3.415 -2.782
0.749 2.956 -2.405
1.123 2.627 -2.01
2.133 1.624 -1.992
2.194 2.159 -2.516
2.042 0.907 -1.262
2.428 1.273 -2.257
2.342 0.599 -1.57
1.855 0.911 -0.632
1.44 1.861 -0.608
1.976 0.918 0.014
1.842 0.216 0.134
1.861 0.778 -0.544
1.751 0.201 -0.446
1.991 0.665 -1.105
1.878 0.074 -1.004
2.201 -0.141 -1.444
2.497 1.237 -3.182
2.232 2.14 -3.028
1.83 1.363 -3.817
1.863 2.209 -3.379
1.382 0.739 -4.338
1.103 1.869 -4.167
0.855 1.524 -4.455
0.516 0.418 -4.238
0.377 1.347 -4.4
1.404 2.01 -3.684
1.315 2.161 -3.664
1.697 -0.118 0.66
2.073 0.663 0.819
1.861 -0.287 1.473
2.18 0.376 1.607
2.748 0.111 2.175
1.884 1.434 1.198
2.02 1.032 1.93
2.541 0.959 2.592
1.755 1.469 1.75
1.11 2.216 1.58
1.842 1.579 2.299
1.881 1.886 2.857
1.754 2.03 3.466
1.478 1.99 4.04
2.452 1.41 3.759
2.177 1.37 4.333
1.093 1.773 4.5
1.791 1.153 4.793
0.651 1.408 4.781
1.35 0.788 5.074
0.073 1.245 4.841
0.82 0.891 4.947
0.23 0.725 5.008
0.613 0.111 5.233
1.146 0.023 5.355
-1.909 1.923 -0.799
-0.808 -2.019 1.528
1.099 -1.46 1.828
1.323 -0.93 0.61
1.615 -0.229 -0.195
1.805 -0.426 -1.067
-3.022 2.038 -0.231
-3.504 1.618 -0.113
-3.504 2.066 0.275
-3.022 2.419 0.247
-3.504 2.232 0.843
-3.504 2.066 1.411
-3.827 1.75 0.843
-3.827 1.466 1.336
-3.504 1.031 -0.198
-3.504 0.492 0.048
-3.827 0.896 0.35
-3.827 1.466 0.35
-3.94 1.181 0.843
-3.827 0.896 1.336
-3.827 0.612 0.843
-2.634 -1.246 1.071
-2.634 -1.246 1.663
-2.419 0.645 -2.059
-2.419 -0.001 -2.059
0.193 3.598 -0.086
-0.376 3.598 -0.655
-0.376 3.711 -0.086
-0.945 3.598 -0.086
-0.945 3.462 -0.682
-1.427 3.109 -0.654
0.675 3.275 -0.086
-0.333 3.709 2.497
-0.889 3.977 2.497
-0.889 3.843 3.084
-1.507 3.843 3.084
-1.507 3.468 3.554
-0.889 3.468 3.554
-1.507 3.843 1.91
-1.507 3.977 2.497
-2.063 3.709 2.497
-2.063 3.537 3.083
-2.204 1.508 4.671
-2.76 1.657 4.339
-2.76 1.053 4.426
-2.204 0.906 4.671
-2.76 0.497 4.173
-2.76 2.119 3.939
-3.145 1.508 3.874
-3.145 0.906 3.874
0.137 -2.047 4.853
-0.497 -2.047 4.853
-0.497 -2.525 4.452
0.137 -2.525 4.452
-0.497 -2.837 3.911
0.137 -2.837 3.911
-0.497 -2.945 3.297
0.137 -2.945 3.297
-0.497 -2.837 2.683
0.137 -2.837 2.683
-0.497 -1.461 5.066
-1.092 -1.149 4.877
-1.092 -1.753 4.756
-1.092 -2.266 4.414
-1.092 -2.608 3.901
-1.092 -2.729 3.297
-1.092 -2.608 2.693
-1.577 -1.735 4.312
-1.577 -2.164 3.883
-1.577 -2.321 3.297
-1.894 -1.461 3.837
0.732 -2.608 2.693
1.271 -2.245 -0.834
1.271 -2.088 -0.248
0.786 -2.532 -0.23
0.786 -2.653 -0.834
0.786 -2.532 -1.438
0.191 -2.761 -0.22
0.191 -2.869 -0.834
0.191 -2.761 -1.448
-0.443 -2.761 -0.22
-0.443 -2.869 -0.834
-0.443 -2.761 -1.448
-0.443 -2.449 -1.989
0.191 -2.449 -1.989
-1.038 -2.532 -0.23
-1.038 -2.653 -0.834
-1.038 -2.532 -1.438
-1.038 -2.19 -1.951
-0.443 -1.971 -2.39
-1.038 -1.677 -2.293
-1.523 -2.245 -0.834
-1.523 -2.088 -1.42
1.085 -2.024 -1.812
1.488 -1.753 -1.343
1.684 -1.288 -0.895
1.588 -1.385 -0.294
1.639 -0.712 -0.547
-1.152 1.82 -2.825
-1.152 1.343 -3.239
-0.729 0.877 -3.763
-0.729 0.286 -3.645
1.993 1.475 0.623
1.147 2.236 4.146
1.147 2.578 3.633
0.552 2.495 4.184
0.552 2.017 4.585
1.147 2.699 3.029
0.025 0.329 5.098
3.668 -0.309 3.703
3.558 0.315 3.703
3.558 0.003 4.243
3.558 -0.621 4.243
3.558 -0.933 3.703
3.558 -0.621 3.163
3.558 0.003 3.163
3.241 0.706 4.289
3.241 0.277 4.718
3.241 -0.309 4.875
3.241 -0.895 4.718
3.241 -1.324 4.289
3.241 -1.481 3.703
3.241 -1.324 3.117
3.241 -0.895 2.688
3.241 -0.309 2.531
3.241 0.277 2.688
3.241 0.706 3.117
3.241 0.863 3.703
2.756 1.15 4.307
2.756 0.808 4.82
2.756 0.295 5.162
2.756 -0.309 5.283
2.756 -0.913 5.162
2.756 -1.426 4.82
2.756 -1.768 4.307
2.756 -1.889 3.703
2.756 -1.768 3.099
2.756 -1.426 2.586
2.756 -0.913 2.244
2.161 1.067 4.858
2.161 0.589 5.259
2.161 0.003 5.472
2.161 -0.621 5.472
2.161 -1.207 5.259
2.161 -1.685 4.858
1.527 0.003 5.472
1.527 -0.621 5.472
2.161 -1.997 4.317
2.58 1.266 3.15
2.923 0.206 -2.769
2.823 0.774 -2.769
2.823 0.49 -2.277
2.823 -0.078 -2.277
2.823 -0.362 -2.769
2.823 -0.078 -3.261
2.823 0.49 -3.261
2.535 0.054 -1.712
2.535 -0.493 -1.962
2.535 -0.819 -2.468
2.535 -0.819 -3.07
2.535 -0.493 -3.576
2.535 0.054 -3.826
2.535 0.65 -3.74
2.093 -1.201 -3.068
2.093 -0.958 -3.615
2.093 -0.513 -4.015
2.093 0.056 -4.2
2.093 0.651 -4.137
1.55 -1.185 -3.63
1.55 0.357 -4.398
0.974 -1.185 -3.63
0.431 -0.513 -4.015
-2.5855 0.206 -1.005
-2.5055 0.0925 -1.331
-2.701 0.5675 -1.183
0.3255 3.376 -2.8915
-1.8975 0.557 4.5375
-1.4505 0.4545 4.586
-1.693 0.2805 4.4895
1.48 -1.078 0.031
1.5595 -0.895 -0.258
1.478 -0.8135 0.171
1.5575 -0.6305 -0.118
1.476 -0.549 0.311
1.5455 -0.389 0.058
1.627 -0.4705 -0.371
1.5865 -0.3335 0.4855
1.656 -0.1735 0.2325
1.7445 -0.857 -0.981
1.8255 -0.6835 -1.223
1.765 -1.1145 -1.137
1.846 -0.941 -1.379
2.003 -0.2835 -1.2555
2.0235 -0.541 -1.4115
2.223 -0.4175 -1.611
2.0455 -0.8175 -1.5785
2.245 -0.694 -1.778
1.586 -1.5205 -1.119
1.667 -1.347 -1.361
1.758 -1.1495 -1.5795
1.579 -1.5555 -1.5615
1.67 -1.358 -1.78
1.9575 -1.026 -1.779
2.151 -0.917 -1.9925
1.8635 -1.249 -1.9935
2.057 -1.14 -2.207
1.4895 -1.479 -1.9895
1.309 -1.6 -2.199
1.683 -1.37 -2.203
1.8635 -1.27 -2.432
1.4895 -1.5 -2.428
1.67 -1.4 -2.657
1.068 -1.6135 -2.3805
1.2485 -1.5135 -2.6095
0.9905 -1.5275 -2.804
1.412 -1.414 -2.8515
-0.01 3.183 -3.333
0.8595 3.2445 -3.258
0.759 3.399 -2.8135
2.5605 1.1125 2.871
0.732 -2.729 3.297
0.4345 -2.783 3.604
0.4345 -2.783 2.99
0.732 -2.6685 2.995
0.4345 -2.7225 2.688
0.831 -2.5915 3.61
0.5335 -2.6455 3.917
0.4885 -2.4905 -1.7135
0.369 -2.251 -2.103
[...]
CELL_DATA 1286
SCALARS cell_data_0 double
LOOKUP_TABLE default
7.85239023329e-08
1.05186514191e-07
6.71012089939e-08
5.22580080165e-08
7.87655303373e-09
6.3229122517e-09
2.75819683445e-09
1.01394970022e-08
3.0090630957e-07
4.65287081673e-08
1.67226654575e-06
1.20524157294e-06
2.93057236219e-07
2.36997577408e-07
1.35276168382e-07
3.87199077696e-08
4.8745556415e-08
3.60885667285e-07
1.94481693015e-08
1.88575675323e-08
2.93259435604e-08
6.25407708156e-07
5.66458804346e-07
2.55297711621e-08
2.64364128632e-07
1.96137600927e-06
5.55511037112e-07
2.41480213213e-07
2.25975332763e-07
9.69829047147e-07
8.45107630289e-07
9.77865753598e-08
2.83717995511e-08
1.68356765731e-08
1.31869978741e-08
3.77273805613e-08
3.71159877203e-08
2.71285012325e-08
6.45458599995e-08
3.15975934075e-09
7.7123162263e-09
4.48996414821e-08
2.96570472668e-08
2.46157809384e-08
1.79827133327e-08
3.85276547533e-08
4.23471380567e-08
3.3879672123e-08
4.12559946005e-08
1.25337617177e-07
1.96946668586e-07
1.09598834435e-07
1.72303666916e-08
2.35581339156e-07
1.5037887709e-07
3.26312199716e-08
3.09694064349e-07
8.68619787005e-08
2.00657987066e-07
5.53602742682e-08
9.17281503256e-08
1.53557956607e-07
7.96017764281e-08
1.83709156125e-07
5.3318581949e-07
1.75997341034e-07
3.36754148738e-07
5.40939633883e-07
2.87010688618e-07
1.58095368745e-08
3.90357731961e-08
4.00873627637e-08
2.91333906891e-08
2.10550104656e-08
1.18727001402e-08
2.59321781241e-08
3.24046137479e-08
1.89795641199e-08
2.50552090944e-08
8.01403077779e-09
3.90280925655e-08
1.36790290748e-07
2.56833085317e-07
1.26129794208e-07
2.79996519198e-08
9.98407597887e-08
1.28580304634e-07
1.37254919154e-07
3.17104359573e-08
7.30459701809e-08
4.62644612232e-08
4.1949801885e-08
1.07494121256e-07
3.79696118358e-07
1.97907374041e-07
8.95016347562e-08
5.92143115048e-08
5.22465256435e-08
2.72515203046e-07
2.52832496422e-07
5.24247894216e-07
7.83563678942e-07
1.47894791128e-07
3.74916044714e-07
2.18383038649e-07
3.44865120256e-09
4.23039262908e-07
2.54281900303e-07
3.06507715573e-07
3.46083415693e-07
2.26824696632e-07
4.91457427217e-07
2.78704477866e-07
3.61594463276e-08
7.51082953501e-08
1.65110018518e-07
3.43193821888e-07
2.42434168886e-07
7.9142732375e-08
2.83710061473e-07
6.65995016811e-07
5.52592372988e-07
9.09690235451e-07
1.3719070395e-06
1.40567177976e-06
6.23579034764e-09
3.61195975108e-07
4.58856411171e-07
1.55846470756e-07
1.67484191375e-07
7.09540333736e-07
9.19722895799e-07
7.82284245064e-07
3.05854213955e-07
3.77984009163e-07
1.70452576556e-07
2.3789934059e-07
2.63511885287e-08
1.1282405004e-07
1.20302052362e-08
2.50173973717e-07
9.5969388297e-08
2.43765749471e-07
9.60941756611e-08
1.26074089944e-08
2.09082099523e-07
3.15552061384e-07
4.38130275409e-07
3.25695622333e-07
2.09613608163e-07
2.14690105738e-07
4.41019833357e-08
1.55403710742e-07
2.73617301664e-07
2.87153102072e-07
2.82077076655e-07
2.46637860914e-07
3.46105112732e-07
2.96237465523e-07
3.33023732594e-07
3.7265710113e-07
1.73777046632e-07
3.07434487691e-07
3.35224203949e-09
9.90725186971e-08
4.36912787363e-07
1.6320633194e-07
4.35740259718e-07
8.18775973818e-07
4.08500706562e-06
3.56040451271e-06
6.76923928159e-06
1.18961950625e-05
7.90906165679e-07
5.42748697595e-06
7.14239233349e-06
4.13621809642e-06
1.35042797733e-07
8.60279610118e-07
1.64601883668e-06
1.71696674189e-06
1.8108154972e-06
1.82383542799e-06
2.2702200702e-06
3.52773734225e-07
1.62600617806e-07
2.30298138694e-07
2.62509636366e-07
9.71767653237e-08
1.97064254015e-06
1.70602575727e-06
5.07944539664e-07
7.4123446144e-07
6.66933571085e-08
1.13960156898e-08
5.53862058493e-08
6.91642049282e-07
3.74000790504e-07
5.9498817489e-07
4.02878231429e-10
3.38093474611e-08
4.70162541714e-08
4.27774828214e-07
4.64069975739e-07
1.61770099546e-07
5.84449441655e-08
2.82525055457e-07
1.91778804265e-07
2.12031592094e-07
2.20124496136e-08
3.50588214564e-07
1.10135112576e-07
2.83862177743e-07
1.85098925906e-06
3.06132050568e-07
2.60678837614e-07
3.95487657661e-07
2.90806900496e-07
9.92358224354e-08
1.84844322464e-07
1.68032287956e-07
9.23217171297e-07
6.08242723986e-07
4.77486808885e-07
4.01173459391e-07
3.75118667853e-08
4.4359514773e-08
8.90333200341e-08
8.01517601889e-08
5.56906633537e-08
6.31477439645e-07
1.00083303222e-07
1.05229997983e-07
2.54354544272e-07
6.00264823256e-08
1.29823617673e-07
2.43493589245e-08
9.48099029116e-08
9.80865826551e-07
9.43188959697e-08
4.67539946817e-08
7.0078869507e-08
4.96894710363e-08
2.0119063321e-07
1.32918670064e-06
2.55529747653e-07
7.36125624294e-07
1.93149425955e-06
4.21352036507e-07
3.20578838896e-07
3.77160854403e-08
7.18471489121e-08
3.05218268506e-08
9.28895419148e-08
5.40245278503e-07
5.13388389746e-08
4.86892337864e-08
1.18431851341e-07
1.36124398723e-07
1.78932922323e-07
9.66480129361e-08
5.01764354637e-08
3.92149583725e-09
1.54104430516e-08
5.73068428896e-08
1.40779950057e-07
2.45625927356e-08
3.16573879884e-08
3.06380693898e-07
3.56399985186e-07
1.00064143549e-08
8.07024838882e-08
5.60576441796e-08
8.73641178864e-11
6.72537453049e-08
3.90283666029e-08
5.03173916037e-08
2.86220310913e-08
3.6743309239e-08
3.1646751605e-07
3.84009070046e-08
2.36234964869e-08
1.30715306362e-10
2.66416081939e-07
7.61069231993e-09
2.11402768256e-07
9.57802517622e-08
2.34706967092e-07
5.68629818177e-07
2.47587782317e-08
2.66454073749e-07
1.21495694623e-07
2.02860247333e-07
3.55226327572e-08
1.10796845134e-08
3.66527696974e-09
2.81091486398e-08
1.17146282038e-07
1.14670696516e-07
8.39232546884e-08
4.70033226575e-08
2.29113303645e-07
4.90598931222e-08
2.7947612768e-08
4.93786646992e-08
5.3462285314e-08
5.17237641214e-08
8.94682228637e-09
4.91011474472e-09
2.00674709432e-08
2.3803377357e-08
6.66878874303e-08
8.11610886643e-08
7.79658636659e-08
4.02591980475e-08
1.32516500866e-07
5.60231693586e-08
3.55665848452e-08
5.30801279325e-07
5.20010565893e-07
2.02036580599e-07
1.20472454344e-07
1.27424750228e-07
2.98409910013e-07
1.97514024377e-07
2.16081245238e-07
1.84208545346e-07
4.17359035101e-07
4.64257687709e-07
2.44351660655e-07
8.05352889545e-08
3.47666757909e-07
1.07278524548e-07
1.36637049823e-07
3.51046466431e-07
4.00541290425e-07
2.44934258973e-07
1.9396527567e-08
2.71348173262e-07
4.36176924253e-07
1.51135425819e-07
1.11855372385e-07
1.78383604595e-07
2.51564197059e-07
1.38644275918e-07
2.79498803861e-07
1.29019942809e-06
9.93404946075e-07
1.65306729123e-07
4.32333966751e-07
7.11419910198e-08
3.40860293353e-08
1.10979444234e-07
3.97879369329e-07
3.04721057412e-08
1.48709512092e-07
1.02363326699e-06
8.93636967802e-07
4.99801606706e-07
3.0963847116e-07
6.65108717102e-07
5.39206073277e-07
2.84547719157e-08
7.59444847824e-08
1.29506606921e-07
3.85195978244e-08
4.20108643953e-08
1.89312308061e-07
2.1401928838e-07
6.22402544659e-08
5.2850865912e-08
5.28040571114e-08
2.11630525986e-08
1.62108669867e-07
6.83888825522e-08
1.128488353e-07
2.13414230527e-07
2.00987302296e-07
7.43912366458e-08
3.87480951459e-08
1.05831958507e-07
1.2253768625e-07
1.19512759413e-07
1.75459842947e-07
8.97210452037e-08
4.85158440579e-08
3.47795471458e-08
2.97939592251e-08
2.07513581353e-08
6.11287854136e-08
6.35772812816e-08
1.73994090824e-07
9.08312102001e-08
3.35295478097e-08
3.5025012258e-09
7.46418478414e-10
3.13378656848e-08
4.39854179722e-08
5.00486366091e-08
1.9947030034e-07
1.27326579334e-07
2.12217999227e-06
8.60174342578e-07
4.58107551955e-07
2.19027424215e-10
2.85320724572e-07
1.69120692378e-07
7.44449845827e-07
1.55086036655e-06
3.83046958028e-08
2.32982989907e-08
1.40026514757e-07
3.79209023655e-08
7.56007149963e-09
6.87281858014e-09
4.76752178822e-09
3.97055069517e-08
3.25652602427e-08
1.26345536164e-08
2.80006996435e-08
8.16686236857e-08
1.06777581407e-07
3.93801816739e-09
6.7020939866e-08
3.8284395126e-08
8.689322141e-08
9.55729111752e-09
1.23675773016e-09
1.7467446261e-07
1.91744757954e-07
3.83604485762e-09
1.24951350468e-07
3.36858853233e-09
4.49371773792e-09
1.77047592397e-08
2.8273406785e-08
2.77137360375e-08
1.18130465764e-07
3.21405404625e-08
1.62346985827e-08
2.46861885644e-08
7.31746616685e-08
5.68316629428e-07
3.24229647065e-07
5.50313520818e-08
1.26532103869e-07
1.27594477493e-07
1.98979236925e-07
3.31315838818e-08
1.23679435619e-07
3.42999305196e-07
5.59207484746e-07
8.92658160816e-08
1.05508342324e-08
6.01200040572e-08
1.85421026864e-11
2.32311049365e-08
1.74623246799e-07
2.06664977515e-07
1.0002166128e-08
1.08492721785e-08
5.50863474567e-08
1.13107259099e-07
5.0919154897e-07
4.74707490276e-07
3.162600081e-07
2.38074557028e-07
3.61531819855e-07
3.53877413838e-07
6.71855393012e-07
4.46588913138e-07
7.87658737383e-07
6.17766211428e-07
7.46364297347e-07
3.415028729e-07
6.76123021597e-07
3.28470525672e-07
3.96556622276e-07
5.60514829954e-07
2.540488468e-07
3.78383458507e-07
7.20180777009e-07
9.94715820529e-07
4.68020983909e-07
2.52978920106e-07
4.64338441507e-07
1.88104696002e-07
2.02216739273e-07
1.69228933794e-07
2.25630436021e-07
3.17646052866e-07
2.59078208691e-07
7.97369927901e-09
4.07974785239e-08
8.19750036936e-08
1.89399044767e-07
1.49370245735e-07
6.97141227499e-08
4.91468040567e-07
1.8948017606e-07
1.72303719682e-07
3.91371017765e-08
6.03658118907e-09
6.40737443887e-09
7.77301802523e-08
3.62118537925e-08
9.27195754707e-08
2.01322901986e-08
1.704291408e-07
1.65516063426e-07
7.61314154562e-08
3.86292627969e-07
5.11741183956e-07
4.12092662027e-07
2.23048939135e-07
1.7002749064e-11
1.95727865359e-08
3.9586965274e-08
4.86518260612e-08
6.18078121902e-08
2.63766935486e-08
1.12190933928e-07
1.50748497261e-07
5.79005273705e-08
7.49478226077e-08
6.14728226234e-09
7.34940617214e-08
8.8787264838e-08
8.22325064047e-08
1.52340225073e-07
1.7776195465e-07
2.11716779797e-07
5.58889499584e-10
4.69043919527e-08
5.39933626491e-08
2.06082546923e-08
2.0727863809e-09
6.935818811e-08
3.23597313637e-08
3.77419722152e-08
4.65011609605e-08
4.74175782631e-08
4.14709751629e-08
4.14550111006e-08
4.77993096552e-09
1.52400915304e-08
4.23640378919e-08
2.78033370713e-08
3.0737446477e-08
3.53316020115e-08
1.62632532291e-08
1.48072206084e-07
1.12946296739e-07
4.19753079046e-07
3.76478200182e-07
2.87910554096e-07
2.23273298215e-06
1.09671798105e-06
3.83459222528e-06
8.01420548676e-07
4.0590947957e-07
7.55893648383e-08
1.74338607167e-08
1.31083065208e-08
6.27427016446e-08
5.81956359347e-08
3.80529027915e-07
3.29035602327e-07
9.45072775823e-08
4.44314286222e-08
6.09472791064e-08
4.87925782229e-08
5.95129593295e-08
6.63978312057e-08
3.57096946704e-06
4.29127390989e-08
5.32242879116e-08
9.62249855342e-09
2.75647890079e-08
2.22082957598e-07
4.2318379504e-07
7.83466747165e-07
5.22996630377e-07
4.29081528751e-07
6.03861521032e-07
3.77331216679e-07
9.6641458901e-07
2.79096769411e-06
6.79266800631e-07
4.06083149503e-07
2.45246029251e-07
2.10980575772e-07
3.96419151167e-07
4.34860769618e-07
2.25181867561e-07
7.59402984051e-08
1.78963945963e-07
3.85197894914e-07
3.8708975601e-07
2.44564223538e-07
3.49962140261e-09
2.49125852311e-08
4.85444537439e-09
3.08970255373e-07
2.75964174941e-07
2.9809228431e-08
5.21204047822e-07
2.49929281064e-06
1.76040814765e-06
9.41276974875e-08
2.00733071768e-07
3.48109224644e-08
3.69032277346e-08
2.23615019149e-08
1.2424143557e-06
9.41788934373e-07
1.71261298068e-06
9.5812731451e-07
1.02058615882e-06
6.76541360723e-07
3.14473220961e-07
4.51542130469e-07
3.75978330515e-07
7.13715352025e-08
1.04974416532e-07
1.42803109215e-09
1.3195868322e-07
8.55228730162e-08
1.05212930801e-07
6.13369459877e-09
4.87403141582e-08
1.58551225169e-08
3.61769334394e-07
1.7895572854e-07
9.71608936276e-08
3.48473260799e-07
8.55160409012e-07
5.15782507767e-07
2.24564988503e-07
9.08363842953e-08
2.46603555278e-07
1.33624485833e-07
1.21614209989e-06
1.43062627083e-06
7.9821177498e-07
9.09166836184e-07
4.0968480978e-08
6.28324414625e-08
5.95038680365e-08
1.7419904614e-09
2.5584454137e-08
1.98298772877e-07
8.21038474717e-08
1.52297129814e-07
9.48528734808e-08
8.94653010642e-08
2.9487353901e-07
2.11895700622e-07
9.39158360374e-08
9.70562292185e-08
8.61909918205e-08
1.1928640353e-07
4.55082043227e-07
7.8601372046e-08
5.45605600371e-08
4.32593881836e-08
5.48698078562e-08
1.32607493698e-08
3.97223823791e-09
6.09056327646e-07
1.61912940799e-07
2.17503413518e-07
1.07149271573e-07
5.29900238288e-08
4.83673530096e-07
7.1983565608e-07
4.45447192738e-07
7.18093280859e-07
4.1640243698e-07
6.10641696975e-07
2.27443588097e-07
5.92200091287e-08
1.13122017701e-07
1.1211480916e-08
5.79182569243e-08
6.5761346906e-09
3.87698772127e-08
4.6118992644e-08
5.34264429817e-08
5.05225051838e-07
4.50049309555e-07
5.30947322336e-07
1.14930160695e-07
9.1865626728e-08
3.75877905148e-07
2.08870554909e-07
5.81012458226e-07
9.88422814261e-07
1.9410039876e-06
1.13655997891e-06
5.17504264972e-07
6.73484143196e-09
1.81033019368e-07
2.2431991864e-07
1.60392294065e-07
8.23787741856e-08
8.08976507626e-08
7.49364096825e-08
1.13601479733e-07
7.21354116882e-08
4.77505088074e-08
2.0828034404e-07
1.90550570362e-07
1.70333514096e-07
5.76465532332e-07
4.98630187296e-07
1.2136761869e-06
3.12416922623e-07
3.0812465443e-07
6.54915453667e-08
1.51757384885e-07
2.21966991005e-07
4.6446322203e-08
2.12252488066e-08
1.90333999325e-09
1.13640524764e-07
2.10905958446e-07
8.59005342377e-07
6.96613013331e-07
4.71231983928e-07
1.40874007757e-06
3.88027428101e-07
4.64571620907e-07
1.37228619612e-07
2.30069679414e-07
2.11807822508e-07
6.05606569023e-08
7.44232008443e-09
5.58044580721e-08
3.70322238301e-10
4.23745719747e-08
8.17204880888e-08
7.5084854135e-08
1.39126873869e-07
2.64709914284e-07
4.23909923865e-07
8.24809680236e-08
4.36814709058e-08
6.03436840288e-09
9.23767227337e-08
1.14592130953e-07
6.63907460164e-08
9.86448528583e-08
3.44386585767e-07
5.01508695118e-07
2.50818100447e-07
6.23845589604e-07
4.5940796913e-07
1.74878450377e-06
1.07576654411e-06
1.23239964251e-08
1.96908695604e-06
9.53268910699e-07
2.14234005109e-06
6.54679865185e-08
3.77458376044e-08
1.27106362734e-06
4.06253130425e-07
2.67962078756e-06
4.1915202816e-06
3.16382036499e-07
4.14413106733e-07
6.58184017203e-08
3.50965302842e-07
1.2175328295e-07
7.516869834e-07
9.96820343598e-07
8.41113873308e-07
4.45385792329e-07
2.79696564531e-07
2.09284122445e-07
4.59823107856e-08
7.90854555885e-07
1.00939438561e-06
8.55511040399e-07
1.98085242285e-07
6.9952498098e-07
9.94491852943e-08
2.70757307009e-08
1.08501098567e-07
6.25218787366e-07
8.85685548784e-08
5.80656473746e-08
7.5678920124e-08
7.13901861575e-08
1.01803646698e-07
1.1670657456e-07
4.32224274397e-08
1.17822214678e-07
1.12505123653e-07
1.67988387189e-07
2.1803950995e-07
2.77852598994e-07
1.63669444241e-07
1.18412395911e-07
6.43703470102e-08
3.87318331986e-08
1.16908255773e-07
4.92030257275e-08
1.12174325334e-08
5.42837476569e-08
4.72130621827e-08
1.01840255849e-08
4.45467879558e-08
3.55521262438e-09
4.31212358929e-08
4.81642869734e-08
1.07972938417e-08
5.3552120065e-08
1.47842791303e-07
2.39218116461e-07
3.44726148261e-07
4.84857607326e-07
5.34786982452e-07
1.40231698219e-07
5.72459272693e-08
1.24105315141e-07
4.20820005906e-08
3.20978873252e-08
5.28735863417e-08
2.47163578451e-08
3.60297156559e-08
1.60714616804e-07
7.54525263993e-08
4.87461292152e-08
1.24996060125e-07
1.17630987255e-07
8.82442072009e-08
4.72274343778e-08
6.44963709379e-09
1.71078519286e-07
8.63925943678e-08
2.39847802517e-08
1.04282634816e-07
1.87864075632e-07
1.35407723961e-06
1.42981385943e-06
1.16246354143e-06
5.12691307552e-07
3.86982288174e-06
4.28302496068e-06
1.81326202297e-06
2.25147121302e-07
1.3076722291e-07
8.20137308321e-07
6.85172846143e-07
1.46850784395e-06
1.59768605159e-06
2.85199567766e-07
2.42477424232e-06
2.06838323804e-07
8.74588049083e-07
4.30742108711e-07
9.56855229995e-07
8.18536466187e-07
8.37286325943e-07
2.17471123268e-07
2.82332934791e-07
4.95500245065e-07
2.0967368047e-07
2.66004293476e-07
4.89028370057e-07
7.54753720953e-07
2.2834401475e-09
3.42504664993e-09
4.50262638689e-06
5.76261851294e-07
5.53488596918e-07
2.86774699094e-06
1.23854518028e-07
1.17047039171e-07
6.24737699839e-08
2.19855778466e-07
2.02938962615e-08
8.0844793759e-09
1.34045194775e-07
9.92739183855e-08
5.46313613396e-08
2.35527463123e-07
6.27870160803e-08
2.03426524461e-07
2.430122431e-07
3.00561663822e-06
3.1003084926e-06
5.98627888859e-07
6.57041990767e-07
1.37936722231e-07
2.02301207647e-07
1.91425033008e-07
3.64964653917e-07
4.22881532478e-09
4.18473370303e-08
1.31778277629e-07
1.23669572474e-07
5.01343956309e-07
2.32668907946e-06
2.2227643386e-06
1.86271537421e-06
2.26568445579e-06
1.90782344879e-06
3.7054192166e-06
8.27553592109e-07
3.2940322269e-07
2.21924939701e-06
1.2782782635e-06
4.20485093284e-07
1.77008412633e-07
2.56726869369e-07
2.77422592122e-08
4.0707558828e-08
3.31278473558e-07
4.12041104121e-07
4.1589864551e-07
1.46512251554e-08
1.36543679649e-08
1.7743444452e-07
1.00100562206e-08
2.21949225666e-07
1.15560176701e-07
2.20039537251e-07
3.16630702403e-06
4.73201713011e-07
7.1176110336e-07
6.12625838254e-07
1.75123057737e-07
5.33302389012e-07
5.23752536e-07
2.88809426953e-07
3.45515135473e-07
2.81843799199e-07
6.59633183972e-08
1.49064044021e-08
4.8654607941e-07
3.69584638799e-07
3.631599508e-07
3.89109020544e-08
2.86882677794e-07
1.2098381205e-06
1.17317862482e-06
3.38286300699e-07
5.75115961087e-07
1.78368199623e-07
1.8452661227e-08
4.37544588911e-07
4.33416112253e-07
4.20182018734e-08
2.99859266972e-07
4.54080611384e-08
2.89385893026e-08
1.17379247038e-08
1.81927314726e-08
5.18405660177e-08
2.0774936779e-08
2.72119705544e-08
3.16620515619e-08
6.12031730397e-09
1.44008286917e-08
1.70566578288e-07
7.77448546568e-07
2.95775934961e-07
8.99060837847e-07
1.86889198429e-06
4.0564741557e-07
1.71088195565e-06
5.95793490493e-07
4.4010332688e-07
4.43020247969e-07
1.84245486913e-07
3.29471374143e-07
3.49113153258e-07
1.31970226281e-07
4.57718994001e-08
1.21185046578e-06
1.06617975276e-06
1.34631466195e-06
1.52862925592e-07
1.13968169271e-07
2.5112241212e-07
5.78044467281e-08
8.5859602422e-07
2.62144790079e-07
3.7410978454e-07
6.64255902519e-07
1.06003252039e-06
3.82882505672e-07
4.18932958437e-07
6.1077976546e-07
9.91625913233e-07
6.50821199299e-08
3.04617669987e-07
3.92147117895e-07
1.14791620764e-07
3.29539014739e-08
1.71558826354e-07
3.6610785824e-07
1.55317361849e-07
8.81672290558e-08
3.01730520246e-07
3.24871487227e-08
7.73262771664e-07
3.57888190123e-07
5.24194768638e-07
6.65340413463e-07
7.82430499363e-08
2.24879490606e-07
4.49185073591e-07
5.92189998949e-07
6.38279263912e-07
3.40343619212e-07
4.51355318561e-07
1.7271962747e-07
4.12157588767e-09
1.50078562566e-07
7.31686557541e-07
6.62122130766e-07
4.81779739046e-08
4.63023020916e-07
6.8354675255e-08
1.83724015974e-07
4.11401454686e-07
3.82003960954e-07
6.34609787889e-08
2.15214428526e-07
1.21891630002e-07
1.62983519907e-08
6.12777359331e-08
7.90012442203e-08
1.96156120723e-07
2.35644891354e-07
2.21860068006e-08
1.25937673914e-07
1.1760190258e-07
1.21996183996e-07
4.11749471974e-08
2.68936466809e-07
6.23107632865e-07
3.88811856437e-07
5.64769223228e-07
7.63165167185e-07
1.41884476524e-06
7.86980953983e-07
1.12789745255e-06
1.4481224038e-06
1.48697888278e-06
4.68256554452e-07
7.51223458522e-07
2.49443344939e-07
1.56396830768e-07
3.50185569677e-07
1.10964036531e-07
1.90660961651e-06
1.97368909401e-06
3.412085056e-06
2.75505701364e-06
3.7272185585e-06
3.32911691046e-07
8.59421705149e-08
1.23962415857e-06
1.86944591555e-06
1.60866483609e-06
1.89531082026e-06
4.34624272419e-07
3.23281260436e-07
1.57958609733e-07
9.42182979271e-08
7.36139515592e-08
8.34941013923e-07
8.41938432498e-07
9.09046235785e-08
1.61813266851e-07
1.25717216837e-07
1.0940200275e-07
2.13636878098e-07
1.1495898182e-06
5.98332438439e-07
5.70350782576e-07
2.45845820262e-07
4.26962379707e-07
2.57011681038e-08
3.86314717428e-08
1.38997984015e-07
9.4460854153e-08
1.13695474023e-06
5.92278879157e-07
2.48933721919e-07
3.46467578843e-07
2.69716064164e-07
1.0972581152e-06
1.18310873507e-06
1.81550627956e-06
1.05226743527e-07
6.60725290079e-08
4.12604570262e-07
3.06554667848e-07
2.90061056802e-08
1.3381122263e-06
4.52999995632e-07
2.14419859629e-06
7.99231740915e-08
1.8864045787e-06
1.15005479079e-06
1.28377788494e-06
7.74469533427e-08
1.03799107092e-07
3.87332618e-09