# vtk DataFile Version 3.0
File Name: Molecule/arg/arg_4.0-1.vtk
ASCII
DATASET UNSTRUCTURED_GRID
FIELD FieldData 1
TIME 1 1 double
0.0
POINTS 684 double
-3.403 0.327 1.604
-3.45 0.103 1.078
-2.981 -0.361 1.858
-3.028 -0.584 1.332
-3.298 -0.003 0.536
-2.876 -0.691 0.79
-2.971 0.024 0.066
-2.549 -0.664 0.32
-2.984 0.046 0.042
-2.471 -0.12 -0.363
-2.484 -0.099 -0.385
-2.2 -0.483 -0.862
-2.216 -0.458 -0.889
-3.25 0.578 -0.258
-2.57 0.022 -0.532
-2.777 0.436 -0.766
-2.39 -0.269 -1.153
-2.617 0.185 -1.409
-3.173 1.207 -0.458
-2.716 0.926 -0.921
-2.55 0.723 -1.58
-2.776 1.74 -0.497
-2.407 1.34 -0.951
-2.211 1.177 -1.613
-2.622 1.932 -0.429
-2.287 1.501 -0.894
-2.142 1.682 -0.83
-1.982 1.439 -1.492
-1.81 1.654 -1.416
-2.655 2.421 0.048
-2.046 2.135 -0.548
-2.075 2.574 -0.12
-1.615 2.438 -0.879
-1.647 2.927 -0.402
-2.495 2.657 0.67
-1.932 2.785 0.438
-1.488 3.163 0.22
-2.925 2.572 1.071
-2.137 2.872 1.156
-2.512 2.798 1.506
-1.863 3.333 1.507
-2.279 3.251 1.894
-3.186 2.284 1.521
-2.739 2.546 1.897
-2.53 2.972 2.328
-3.419 1.801 1.788
-2.888 2.359 1.917
-3.122 1.876 2.185
-2.717 2.558 2.345
-2.979 2.017 2.644
-3.567 1.179 1.827
-3.133 1.725 2.369
-3.262 1.186 2.403
-3.107 1.793 3.017
-3.25 1.192 3.055
-3.408 0.559 1.798
-3.123 0.649 2.378
-3.095 0.593 3.027
-3.105 0.348 2.085
-3.1 0.088 1.867
-2.97 0.105 2.152
-3.02 0.504 2.546
-2.901 0.29 2.606
-2.978 0.383 3.085
-2.865 -0.346 2.113
-2.52 -0.7 2.425
-2.794 0.071 2.575
-2.491 -0.24 2.849
-2.645 0.041 3.387
-2.46 -1.117 2.184
-2.148 -0.9 2.844
-2.09 -1.3 2.613
-2.003 -1.142 3.367
-1.937 -1.6 3.103
-2.268 -1.45 1.888
-1.906 -1.62 2.328
-1.726 -1.965 2.777
-1.967 -1.659 1.57
-1.617 -1.821 2.023
-1.396 -2.195 2.428
-1.592 -1.721 1.268
-1.257 -1.88 1.733
-0.984 -2.263 2.097
-2.026 -1.588 0.931
-1.237 -1.838 0.739
-1.646 -1.713 0.421
-0.96 -2.23 0.303
-1.437 -2.084 -0.068
-2.342 -1.257 0.596
-1.944 -1.402 0.106
-1.784 -1.721 -0.435
-2.487 -0.785 0.321
-2.08 -0.956 -0.154
-1.943 -1.202 -0.738
-2.189 -0.632 -0.224
-2.248 -0.516 -0.225
-2.131 -0.618 -0.861
-2.114 -0.682 -1.181
-1.927 -1.264 -1.052
-2.312 -0.441 -1.376
-2.121 -0.506 -1.916
-2.042 -0.816 -1.214
-1.838 -0.886 -1.79
-1.682 -1.348 -1.746
-1.975 -0.256 -2.322
-1.864 -0.768 -1.888
-1.672 -0.441 -2.421
-1.897 0.192 -2.527
-1.57 0.147 -2.691
-1.996 0.646 -2.441
-1.495 0.306 -2.776
-1.602 0.798 -2.682
-1.198 0.386 -3.152
-1.328 0.981 -3.039
-2.011 1.039 -2.18
-1.619 1.224 -2.399
-1.348 1.496 -2.696
-1.72 1.257 -2.235
-1.479 1.817 -1.75
-1.107 2.057 -2.211
-1.346 2.153 -1.415
-1.642 2.007 -1.116
-1.319 2.584 -1.178
-0.816 3.013 -1.267
-1.111 2.259 -1.642
-0.623 2.675 -1.729
-0.543 2.537 -2.312
0.466 3.148 -0.891
-0.416 2.926 -1.599
0.331 3.005 -1.38
-0.131 2.956 -2.042
0.328 3.005 -1.907
-0.002 3.1 -2.533
0.456 3.148 -2.398
-0.048 3.337 -3.001
0.699 3.415 -2.782
0.833 2.913 -0.61
0.619 2.806 -1.364
0.976 2.577 -1.092
0.892 2.689 -1.891
1.303 2.425 -1.576
1.057 2.557 -0.305
1.192 2.232 -0.796
1.553 2.026 -1.234
0.979 2.767 0.195
1.539 1.918 0.039
1.462 2.128 0.539
0.737 2.845 0.68
1.22 2.206 1.024
0.406 3.093 0.833
0.71 2.572 1.142
0.419 2.789 1.277
0.841 2.425 1.643
0.539 2.651 1.783
1.112 2.426 2.108
0.748 2.699 2.276
0.011 3.456 0.651
0.05 3.076 1.433
-0.284 3.383 1.279
-0.034 3.266 2.099
-0.415 3.616 1.924
-0.504 3.599 0.465
-0.72 3.504 1.122
-0.913 3.754 1.744
-1.038 3.495 0.311
-1.173 3.416 0.991
-1.429 3.653 1.595
-1.554 3.135 0.914
-0.08 3.426 2.677
0.304 2.919 2.221
0.258 3.08 2.801
0.695 2.881 2.933
-0.313 3.4 3.231
0.024 3.055 3.358
0.431 2.852 3.563
-0.687 3.194 3.654
-0.352 2.847 3.783
0.006 2.617 4.044
-1.222 3.175 3.77
-0.58 2.815 3.881
-1.2 2.794 4.016
-1.756 3.136 3.659
-1.82 2.748 3.887
-2.199 3.083 3.341
-2.333 2.687 3.518
-2.473 3.025 2.87
-2.65 2.619 2.973
-0.832 2.373 4.277
-0.242 2.183 4.431
-1.061 1.806 4.483
-0.466 1.628 4.634
-1.434 2.302 4.313
-1.452 1.611 4.604
-1.773 2.038 4.456
-1.892 2.602 3.976
-2.169 2.297 4.166
-2.355 2.652 3.532
-2.568 2.341 3.783
-2.74 2.445 3.06
-2.9 2.162 3.376
-1.464 1.095 4.666
-0.956 1.592 4.533
-0.968 1.074 4.596
-0.48 1.041 4.705
-1.655 0.731 4.634
-0.882 0.784 4.614
-1.066 0.434 4.582
-0.333 0.517 4.869
-0.555 0.096 4.831
-2.14 0.383 4.441
-1.246 0.178 4.538
-1.7 -0.148 4.358
-0.878 -0.357 4.785
-1.429 -0.753 4.566
-2.498 0.133 3.99
-2.035 -0.382 3.936
-1.836 -1.037 4.053
-2.172 -0.468 3.371
-0.383 -0.749 5.065
-0.05 -0.304 5.117
0.164 -1.171 5.088
0.507 -0.734 5.141
0.4 -1.671 4.946
0.615 -0.976 5.092
0.839 -1.451 4.956
1.043 -0.806 5.264
1.279 -1.306 5.122
0.636 -2.087 4.632
1.063 -1.845 4.659
1.514 -1.722 4.808
0.844 -2.371 4.183
1.26 -2.115 4.232
1.723 -2.007 4.359
1.002 -2.493 3.648
1.411 -2.231 3.724
1.881 -2.129 3.824
1.092 -2.439 3.086
1.496 -2.18 3.191
1.971 -2.075 3.263
1.104 -2.215 2.561
1.508 -1.967 2.692
1.983 -1.85 2.738
1.037 -1.846 2.131
1.444 -1.616 2.284
1.916 -1.481 2.307
0.647 -2.269 2.118
0.798 -1.688 1.555
0.487 -2.024 1.545
0.806 -1.676 0.912
0.496 -2.012 0.902
1.061 -1.813 0.337
0.67 -2.236 0.324
0.119 -2.499 2.107
0.068 -2.206 1.536
0.076 -2.194 0.893
0.142 -2.466 0.313
-0.457 -2.497 2.099
-0.39 -2.205 1.53
-0.381 -2.193 0.887
-0.434 -2.464 0.306
-0.808 -2.019 1.528
-0.8 -2.007 0.885
1.48 -1.078 0.031
1.043 -1.422 0.814
1.323 -0.93 0.61
1.205 -1.217 1.373
1.436 -0.812 1.205
1.517 -1.238 1.905
1.797 -0.747 1.701
2.335 -0.746 2.002
1.639 -0.712 -0.547
1.476 -0.549 0.311
1.615 -0.229 -0.195
1.697 -0.118 0.66
1.842 0.216 0.134
1.693 -1.21 -0.838
1.805 -0.426 -1.067
1.853 -0.872 -1.327
2.201 -0.141 -1.444
2.253 -0.62 -1.722
1.568 -1.637 -1.21
1.741 -1.254 -1.66
2.133 -1.029 -2.079
1.279 -1.936 -1.614
1.483 -1.521 -2.022
1.857 -1.315 -2.467
0.866 -2.068 -1.998
1.113 -1.639 -2.366
1.46 -1.442 -2.835
0.381 -2.015 -2.311
0.679 -1.593 -2.646
0.995 -1.392 -3.136
-0.112 -1.786 -2.513
0.238 -1.387 -2.827
0.523 -1.172 -3.329
-0.548 -1.409 -2.576
-0.152 -1.05 -2.884
0.104 -0.811 -3.39
-0.822 -1.287 -2.506
-0.408 -0.948 -2.806
-0.669 -0.831 -2.739
-0.336 -0.591 -3.197
-0.616 -0.466 -3.125
-1.31 -1.347 -2.194
-0.988 -0.705 -2.664
-1.485 -0.767 -2.346
-1.322 -0.31 -2.728
-0.95 -0.071 -3.189
-0.311 -0.212 -3.619
0.128 -0.454 -3.788
-0.16 0.24 -3.931
0.27 -0.03 -4.081
0.101 0.716 -4.098
0.516 0.418 -4.238
-0.411 1.252 -3.909
0.377 1.347 -4.4
0.11 1.626 -4.301
-0.398 1.946 -3.588
-0.106 2.463 -3.53
-0.202 2.855 -2.684
0.028 3.029 -3.665
1.267 2.733 -3.406
1.204 2.948 -2.765
1.749 2.404 -3.353
0.819 3.383 -2.845
0.902 2.914 -2.485
0.749 2.956 -2.405
1.123 2.627 -2.01
1.688 2.19 -1.733
1.668 2.681 -2.526
1.962 2.454 -2.382
2.133 1.624 -1.992
2.194 2.159 -2.516
2.141 1.301 -1.585
2.428 1.273 -2.257
2.435 0.969 -1.874
2.042 0.907 -1.262
2.342 0.599 -1.57
1.911 1.516 -1.257
1.855 0.911 -0.632
1.743 1.428 -0.628
1.976 0.918 0.014
1.858 1.462 0.018
1.44 1.861 -0.608
1.861 0.778 -0.544
1.751 0.201 -0.446
1.991 0.665 -1.105
1.878 0.074 -1.004
2.497 1.237 -3.182
2.241 1.687 -2.422
2.29 1.662 -3.078
2.232 2.14 -3.028
1.83 1.363 -3.817
1.817 1.751 -3.528
1.863 2.209 -3.379
1.382 0.739 -4.338
1.413 1.57 -3.947
1.095 1.128 -4.316
1.103 1.869 -4.167
0.855 1.524 -4.455
0.482 0.901 -4.245
0.989 2.064 -4.14
1.404 2.01 -3.684
1.315 2.161 -3.664
2.007 0.383 0.735
1.766 -0.192 1.22
2.031 0.236 1.284
1.991 -0.414 1.693
2.267 0.032 1.759
2.675 -0.196 2.083
2.074 0.941 0.928
2.088 0.713 1.449
2.326 0.528 1.931
2.749 0.417 2.295
1.884 1.434 1.198
1.926 1.135 1.68
2.158 0.967 2.172
2.541 0.959 2.592
1.624 1.884 1.117
1.755 1.469 1.75
1.503 1.904 1.671
1.842 1.579 2.299
1.557 2.073 2.21
1.11 2.216 1.58
1.886 1.845 2.759
2.132 1.224 2.493
2.174 1.477 2.929
2.585 1.225 3.051
1.814 2.002 3.263
2.105 1.625 3.407
2.513 1.382 3.555
1.633 2.033 3.763
1.933 1.655 3.881
2.331 1.413 4.055
1.359 1.937 4.21
1.674 1.563 4.305
2.058 1.316 4.502
1.021 1.721 4.561
1.354 1.359 4.638
1.72 1.101 4.853
0.651 1.408 4.781
1.002 1.062 4.847
1.35 0.788 5.074
0.073 1.245 4.841
0.82 0.891 4.947
0.23 0.725 5.008
0.672 0.387 5.179
1.205 0.294 5.301
0.564 -0.173 5.245
1.099 -0.256 5.367
-1.999 2.782 0.776
-1.065 -1.824 1.176
1.419 -0.545 0.696
1.7 -0.166 -0.791
0.85 2.546 -3.838
-3.196 2.043 -0.114
-3.592 1.578 -0.026
-3.592 1.985 0.326
-3.196 2.357 0.319
-3.592 2.137 0.843
-3.196 2.469 0.843
-3.592 1.985 1.36
-3.85 1.69 0.843
-3.85 1.435 1.283
-3.592 0.264 0.574
-3.85 0.672 0.843
-3.85 0.927 0.403
-3.592 0.555 0.121
-3.592 1.045 -0.103
-3.85 1.435 0.403
-3.94 1.181 0.843
-3.85 0.927 1.283
-3.592 0.555 1.565
-2.722 -1.154 1.098
-2.722 -1.154 1.636
-2.722 -0.863 2.089
-2.326 -1.497 1.099
-2.482 0.597 -1.975
-2.482 0.047 -1.975
0.763 3.18 -0.086
0.367 3.4 -0.61
0.367 3.512 -0.086
0.367 3.4 0.438
-0.118 3.59 -0.615
-0.118 3.688 -0.086
-0.634 3.59 -0.615
-0.634 3.688 -0.086
-1.119 3.512 -0.086
-1.119 3.4 -0.61
-1.119 3.086 -1.043
-0.667 3.796 3.018
-0.667 3.906 2.497
-1.198 3.918 2.998
-1.198 3.65 3.431
-1.198 3.918 1.996
-1.198 4.012 2.497
-1.729 3.906 2.497
-1.729 3.796 3.018
-1.729 3.482 3.449
-1.729 3.796 1.976
-2.179 3.606 2.497
-2.179 3.474 2.987
-1.895 1.335 4.734
-2.426 1.603 4.572
-2.426 1.073 4.627
-2.426 2.064 4.305
-2.876 2.056 3.843
-2.876 1.697 4.202
-2.876 1.207 4.334
-2.876 0.717 4.202
-2.426 0.566 4.463
-3.176 1.738 3.353
-3.176 1.472 3.813
-3.176 0.942 3.813
-2.876 0.358 3.843
-3.176 0.676 3.353
-3.282 1.207 3.353
0.578 -2.491 4.272
0.08 -2.472 4.525
0.08 -2.776 4.08
0.578 -2.727 3.81
0.08 -2.934 3.566
0.578 -2.808 3.297
0.08 -2.934 3.028
0.578 -2.727 2.784
0.08 -2.776 2.514
0.08 -2.052 4.861
-0.44 -2.052 4.861
-0.44 -2.472 4.525
-0.44 -2.776 4.08
-0.44 -2.934 3.566
-0.44 -2.934 3.028
-0.44 -2.776 2.514
-0.44 -1.551 5.057
-0.938 -1.149 4.956
-0.938 -1.662 4.875
-0.938 -2.124 4.639
-0.938 -2.491 4.272
-0.938 -2.727 3.81
-0.938 -2.808 3.297
-0.938 -2.727 2.784
-0.938 -2.491 2.322
-1.374 -1.149 4.675
-1.374 -1.677 4.571
-1.374 -2.124 4.272
-1.374 -2.423 3.825
-1.374 -2.527 3.297
-1.374 -2.423 2.769
-1.714 -1.289 4.273
-1.714 -1.795 4.042
-1.714 -2.095 3.575
-1.93 -1.406 3.742
1.624 -1.33 -0.389
1.408 -1.719 -0.089
1.408 -2.019 -0.556
1.068 -2.347 -0.306
1.068 -2.451 -0.834
1.408 -2.019 -1.112
[...]
CELL_DATA 1364
SCALARS cell_data_0 double
LOOKUP_TABLE default
3.31682294753e-08
7.68540282485e-09
1.8881944975e-08
3.03811628564e-08
2.67077979995e-08
1.73872572755e-09
4.60371305219e-08
1.29668564354e-08
1.18360788184e-08
4.04008248618e-09
1.61364275271e-07
1.0692934624e-07
1.32573750385e-08
7.18089698461e-08
1.20018111785e-07
5.50074943169e-08
8.97059958447e-08
2.44412289097e-08
9.10624889315e-08
3.53334315965e-09
6.79548383151e-08
4.42846718754e-09
8.61235942765e-08
2.49123574563e-10
6.1216338742e-08
4.42743356313e-08
7.09658899514e-08
4.92164128448e-08
8.47832516156e-09
7.47707822569e-08
3.9191312342e-08
4.05336888141e-08
2.06137838713e-08
2.23762897106e-09
2.75612462652e-08
1.20018463525e-08
3.48299122008e-08
1.10315849112e-08
2.56326732153e-08
1.14656319276e-08
8.5434403988e-10
1.71804181319e-09
6.27407696343e-09
4.16373790889e-09
1.42286409064e-08
1.36165054154e-09
1.85730392584e-08
1.18435965736e-08
3.60367442462e-08
1.94263318241e-08
2.27405445305e-08
1.9013820442e-08
1.74668314273e-08
1.78558323243e-08
1.14171972922e-08
1.01343316036e-09
7.75989843083e-09
8.49638173768e-09
1.49265298055e-08
2.2407794551e-08
7.09077197106e-10
3.77856085951e-09
7.30011528626e-09
7.47602178347e-08
1.01225355141e-07
1.11861492334e-07
9.46679205191e-07
9.11358098295e-07
1.43956831001e-06
5.10100205079e-07
7.53967270553e-07
5.30032816922e-07
3.58573383102e-07
2.36105830595e-07
3.26405129744e-07
1.5698330982e-07
1.83592556644e-07
2.06335045533e-08
1.28711597278e-07
9.0164215763e-09
1.76819155462e-08
7.43326052524e-08
1.37050150183e-07
9.67582815595e-08
1.18176825186e-07
1.63761756554e-08
9.52206593945e-08
1.58624036375e-08
2.82330088998e-08
2.02365366099e-08
8.26045662629e-08
2.1105169857e-08
9.35840943075e-09
1.68344839026e-08
7.39979180192e-08
1.4285178781e-08
1.27111348659e-08
2.33604788099e-08
6.05695424526e-08
9.65939985069e-08
3.91477268395e-09
4.456045948e-08
1.50501357281e-08
9.41933788532e-08
1.972934887e-08
1.25671476736e-08
9.10568015789e-09
2.65748696121e-08
5.56453705478e-08
8.41150980421e-08
8.85079339369e-08
1.5670198244e-08
1.56980107198e-07
4.12415243213e-08
1.06486427118e-07
1.45619747103e-07
3.20900197414e-09
6.77666429022e-08
9.52354696006e-08
6.68890714275e-08
2.56184266908e-07
1.50545495304e-07
5.74010202368e-08
5.77954610225e-08
1.68293583122e-08
6.10230121116e-09
2.79233237655e-07
5.93984227786e-08
1.01809802746e-07
8.75103603538e-07
2.73577325607e-08
5.50207899171e-08
5.86376665981e-08
4.61364418622e-08
4.63711061808e-08
2.27502242762e-07
3.78268596512e-07
1.66456671211e-06
2.95169744501e-07
2.14001295756e-08
1.78498493898e-07
2.31295043826e-07
2.05567495131e-07
8.26072473104e-08
1.46892492702e-07
7.37370269749e-08
1.55066019258e-09
2.05380704124e-08
2.78049325168e-08
2.78328514799e-08
4.93199662412e-09
7.05583395242e-09
6.88140188222e-09
1.89411679318e-08
3.81581512347e-08
1.2670112849e-07
1.64017837884e-08
1.4118982159e-08
3.82025485354e-08
4.9029703143e-09
2.41281918777e-08
1.02979402807e-08
1.0194105727e-08
1.44036342035e-08
9.46631077481e-09
9.22402549429e-09
1.52276582302e-08
9.92162266796e-09
8.54289580794e-09
1.21370622352e-10
4.50254784179e-09
1.7420638121e-08
1.17151010167e-08
2.06271221414e-08
1.05763157719e-07
1.49579613912e-07
1.00039631223e-10
2.15313725368e-08
2.53569630801e-07
2.39844618498e-07
4.12136429947e-09
2.88347375533e-08
1.26818840402e-07
1.21845215933e-07
5.99408320747e-09
1.52857309629e-08
2.97480672341e-09
1.46686447588e-09
3.36651707405e-10
5.40275210772e-09
4.1962306449e-09
3.21284056761e-10
4.95063364541e-09
1.35326819114e-08
1.29882734211e-08
2.30236618138e-08
3.93220015711e-09
2.0558495487e-08
2.29776332913e-08
5.86173657057e-09
6.25561933713e-10
2.62260975788e-09
1.17260394697e-09
5.28443586333e-09
9.55265249215e-10
4.23863738867e-09
1.1484926893e-08
5.44704827418e-09
8.40241826018e-09
1.85656287691e-08
2.4654660163e-08
2.27462944031e-08
6.23022482906e-09
1.8065442416e-08
1.75481273746e-08
7.43247239628e-09
1.92179250834e-09
2.54883905576e-09
4.13002547795e-08
1.52334990325e-07
1.99638656585e-08
8.5617265539e-08
8.52996534079e-08
3.43026302581e-07
1.28103103901e-07
5.18832219461e-07
5.64505525339e-08
8.31534345314e-07
4.26462160484e-08
5.71283032441e-08
4.48064446934e-08
1.89972526245e-08
2.36521000099e-08
2.41675902765e-08
3.31499122722e-08
6.53389886945e-08
1.6729460735e-07
1.73270654794e-07
5.7173734426e-08
1.54784629552e-07
4.72329221988e-07
5.41699905384e-07
5.30742398654e-08
3.19806381376e-07
3.67935708443e-07
5.07730886055e-07
7.04495793296e-08
8.29231503075e-07
4.38686251563e-07
9.6600910004e-08
1.40267212499e-06
1.63858151411e-06
2.79146693325e-07
1.77696566273e-08
1.64551916602e-07
3.27320841963e-07
7.34767918412e-08
4.07262442123e-08
5.87201981484e-08
7.2022600967e-08
1.23716786684e-07
4.47695014014e-08
2.74238463587e-07
2.13721342878e-07
4.61981968801e-07
1.31603607654e-07
1.16753549813e-07
1.89388438728e-08
3.65022533726e-07
2.04664404932e-07
1.92064596216e-07
1.46389645559e-07
7.59340906372e-08
2.13532343842e-09
2.46356001152e-07
1.0144331888e-07
1.36702441475e-07
6.80861478737e-08
6.99461342091e-08
1.16156884077e-09
1.84596371296e-07
7.23591271151e-08
7.62819211007e-08
5.63002500619e-08
5.64034989522e-07
3.04222507129e-07
3.31436471257e-07
1.90148040257e-07
2.23869579206e-08
5.7431228039e-08
2.28679894034e-08
1.47855092779e-07
4.78204432624e-08
1.63516955887e-07
5.49351076677e-08
5.31479452959e-08
5.97754910082e-08
8.8106402561e-08
1.40312840552e-07
1.6640751407e-07
8.04921555375e-08
5.807732143e-08
1.17990075026e-07
1.96175586735e-07
4.23517923797e-08
5.3230144152e-08
1.44610595957e-07
2.02632221908e-07
4.19929479058e-08
5.13419957755e-08
1.45178884162e-07
2.0085844687e-07
3.52296112507e-08
5.03980045072e-08
1.61128624325e-07
2.51806974128e-07
3.11094867169e-08
5.54292372422e-08
2.19033333479e-07
3.14845709706e-07
2.9009810658e-08
1.38181136646e-08
2.76501519254e-07
3.68161328318e-07
2.08352289327e-08
2.23332190671e-08
1.96057626169e-08
4.21899207172e-08
9.67413087513e-08
8.51144280798e-08
5.53192795413e-08
5.0854435232e-08
9.37821729048e-08
2.75063901805e-08
1.24593337862e-08
2.02374141693e-08
2.29290140795e-07
2.31101707736e-07
3.40138119012e-07
3.4420108513e-07
5.14714916368e-07
4.48547283522e-07
1.67546193061e-06
1.17010574895e-06
1.31375978358e-06
8.29892626634e-07
1.47577849233e-06
1.15723086812e-06
7.67840819628e-07
6.81059311104e-07
7.26362378536e-08
2.21808425961e-08
8.34941238215e-07
5.39873005312e-07
1.9463092549e-06
1.61567464698e-06
2.46945693954e-07
1.88176899595e-07
2.22409501009e-07
2.89464648377e-07
1.23042734694e-08
4.71471626561e-08
2.27822462522e-08
1.70753773289e-07
2.62661020631e-09
4.98510948251e-08
1.14106729842e-07
1.90572817441e-07
4.56275550576e-08
1.53967832291e-08
5.53988061359e-08
3.22318281281e-09
2.35443652461e-07
4.5187746005e-07
1.38819052598e-06
1.36167802071e-06
2.63186247567e-07
1.42658479647e-06
1.10282365783e-06
7.7208150535e-07
7.81530199247e-07
1.06453485878e-06
1.73626334475e-06
1.66146946459e-06
1.93600331124e-07
1.57550292889e-06
1.26643887316e-06
7.54535679204e-07
5.56945323563e-07
1.083320675e-07
9.23296220881e-08
3.05823126122e-07
1.2581948002e-07
6.47756386754e-07
2.58313791903e-08
2.74586470234e-08
2.13101380386e-08
1.71489021736e-08
4.62842382423e-08
8.01674622856e-08
2.93930653487e-08
2.48492643803e-09
1.26991169257e-09
2.32751354306e-08
3.05143255015e-08
1.19696116234e-07
1.00032343346e-08
3.17670179241e-08
2.64369995531e-09
1.81097347578e-08
2.4834684363e-08
1.78105506858e-07
6.48924754107e-09
8.21402661342e-09
6.14383588725e-08
1.08128162041e-07
2.90594202475e-08
8.46012296135e-09
2.8869142279e-07
8.68479574044e-08
4.67950511319e-07
5.41975006948e-07
1.0410552684e-07
3.12845169332e-07
1.07603185311e-06
5.47333769646e-07
1.24222872146e-07
7.33615263558e-07
3.55247747927e-07
3.60578549375e-08
1.10829819841e-06
7.60564155709e-07
3.59047220544e-07
1.13665755371e-08
2.68825255889e-07
3.11750023251e-07
1.74259662969e-07
3.95496515308e-08
1.31934753063e-07
1.16300982815e-07
3.5693479597e-08
6.0131459572e-09
1.73111605047e-08
4.09268261842e-08
1.80714959375e-08
4.15963699939e-09
4.31025995759e-08
2.64392805879e-08
8.48226577054e-09
3.21570213134e-08
2.65591278762e-08
4.02532462772e-08
1.17145974574e-08
3.43758624133e-08
1.06458266109e-08
1.90331865809e-08
7.17871122853e-09
1.06249808587e-07
1.60988973227e-08
4.49552509364e-08
3.5913105363e-09
1.76324597364e-07
4.8954459646e-08
3.32844310519e-08
2.78246548313e-08
3.61403588419e-08
7.75886447223e-08
5.8548129902e-08
2.22140171039e-08
2.15663654051e-08
2.80674032436e-08
1.1288299295e-08
3.30363253363e-09
1.10238855731e-08
1.1417963131e-08
3.86706876396e-09
1.74530854321e-08
1.70281791235e-08
5.05348539096e-09
1.67724369822e-08
2.86683268299e-09
9.47615984996e-09
1.37717557801e-08
3.97680518584e-08
2.23145169702e-08
3.59298384213e-08
6.97381730175e-07
5.10330462007e-07
7.51703082574e-07
9.59532064777e-07
3.5346342346e-08
8.52503029975e-09
8.36337825022e-08
1.16686380323e-07
4.63251731291e-09
9.2017945345e-09
3.88424254296e-08
7.33434740676e-08
9.26869562457e-09
3.81952036829e-08
3.41946961842e-08
3.35198058919e-08
5.80732132452e-08
5.29350415791e-08
7.98272203199e-08
4.90301421341e-08
1.63939528692e-07
1.01086309553e-07
5.2806477111e-07
1.03085167365e-07
5.40892826535e-08
6.60923789179e-07
1.2533255421e-07
1.93865280172e-06
4.44509171166e-08
8.44853446582e-08
2.67801735357e-07
2.24520599079e-06
2.03915839469e-07
2.09618349214e-07
5.88284176326e-08
8.41301019937e-08
1.46993577724e-07
1.1536381246e-08
3.54650657797e-08
8.34547740021e-08
1.53663407551e-08
1.40565190759e-08
6.24180721698e-08
1.02594799798e-09
1.27224487417e-07
1.86843643768e-08
1.6795724301e-08
3.60172954817e-08
4.20184814911e-09
6.62374852304e-09
4.58455833589e-09
3.34221411598e-09
2.60931817294e-09
3.39639200379e-08
1.89303961056e-09
2.30100043931e-09
5.12439341616e-08
6.26141666965e-10
3.13565069835e-09
5.89387706249e-09
2.2307715334e-09
2.13028114176e-08
1.08786852413e-08
5.48246888502e-08
1.91068894556e-08
1.69602964584e-07
2.48589520101e-07
2.16657829584e-08
3.26208444676e-08
7.52951217842e-09
2.10020441688e-08
8.09726874799e-08
1.20863187484e-07
5.40404217566e-08
1.82483257337e-07
1.97149047621e-07
4.21196442176e-08
9.74690283392e-08
8.94667858804e-08
3.34770581558e-09
3.86506021443e-08
2.29503356215e-07
7.55507143121e-08
4.43819627701e-08
1.61361987724e-07
3.8109300011e-10
4.13712087683e-09
8.24136374704e-09
3.39731315578e-08
5.59415863416e-07
1.71383248357e-06
3.96950009315e-07
1.74362776524e-06
2.43332906925e-07
7.96401915706e-07
2.46166976809e-07
2.22122300813e-06
4.50410648517e-07
1.02980515107e-07
6.38603809923e-09
2.40210972903e-08
5.25678768495e-08
1.40657455629e-07
1.45351892109e-07
8.44742369734e-07
1.08940115067e-06
9.67528718781e-08
5.08759583116e-09
1.7441067086e-07
8.90014778716e-08
1.83257740965e-08
3.61010719639e-10
1.11101744104e-08
1.88115092102e-08
1.96130761043e-08
1.23200091719e-09
2.15901694204e-08
4.72921079605e-09
6.74757572081e-09
2.70326384754e-09
1.42394267954e-08
1.69940647038e-08
3.86880922342e-09
1.09243285305e-08
4.41012107025e-09
6.32642915203e-09
1.74181172919e-10
6.32398211058e-09
6.1820505065e-09
8.32027126447e-09
2.54889396763e-09
2.91834124001e-09
2.15403949015e-10
2.00552147792e-08
8.44546878448e-09
1.46577180711e-08
3.81248085389e-09
1.45818349215e-08
4.20156351276e-09
1.07545346241e-08
1.6555975754e-09
4.1616082384e-09
3.45014106307e-09
2.10922592688e-09
8.52411994301e-09
9.55593034043e-09
4.87497462478e-09
3.2238091449e-08
8.57040658175e-10
2.54426871232e-08
1.50508035525e-08
8.22343050025e-09
2.37485295788e-08
3.38741841101e-08
1.93027832583e-08
2.33362415201e-08
2.92700840766e-09
1.49475572018e-08
1.26248055065e-08
7.79964533316e-09
1.10798093504e-08
9.49997379532e-09
7.17942522638e-09
2.8700557362e-09
2.37383697884e-08
1.10103916042e-08
9.1720365504e-09
2.33129097418e-08
7.3186698251e-08
1.19945334709e-08
3.24151892796e-08
4.07829653277e-09
6.90771420183e-09
2.84272088779e-09
7.20676522558e-08
1.51936959753e-09
2.53035180767e-08
3.79299421833e-08
5.79684382236e-08
1.49221097625e-09
2.85538486218e-08
4.35119227229e-08
8.00555310166e-08
1.61002098513e-08
1.15451422205e-07
5.37456819706e-08
1.51623475071e-08
1.5156305589e-07
4.92849288312e-08
5.45484518737e-08
5.08393300544e-08
7.74939126671e-08
2.95331914992e-08
1.409620306e-07
8.67806827048e-08
7.82165214569e-08
6.47794379771e-08
2.09757136714e-07
1.30937110894e-08
2.65180182323e-08
4.35671969484e-08
2.50558703816e-08
6.89649295723e-08
1.8209979426e-08
2.35189989913e-08
3.7332939039e-09
1.35191757466e-08
1.52089220089e-08
8.17819826629e-09
1.44149683521e-08
1.327181022e-08
1.37767640339e-08
1.95416900971e-08
1.27814570808e-09
6.52668245067e-09
1.16789303375e-08
2.52563050312e-09
1.08216657002e-08
4.42110244932e-08
5.86361650807e-08
1.12248514534e-08
3.44922662776e-08
5.14932582522e-08
1.25478856902e-07
2.7256592624e-07
1.20437697202e-07
9.92498669155e-08
1.57509580724e-08
2.91573784134e-08
3.04486160528e-08
1.4053630562e-08
5.6558436668e-08
1.46124944225e-08
1.16557487522e-08
6.96017771117e-09
4.0693462434e-09
1.29212494482e-09
4.51682901832e-09
4.65913899158e-09
3.9020701583e-09
9.58726508175e-09
7.39736172047e-11
6.00887212571e-09
6.29936500964e-09
3.00221420489e-09
1.41746866819e-08
4.2614961385e-09
1.3235917106e-08
2.27151530639e-09
1.32849281241e-08
2.4887519124e-09
1.69617534767e-10
5.40651657682e-09
1.27573331456e-09
5.20380788627e-09
9.35013830906e-09
2.21765218399e-08
1.20221571615e-09
9.29294917702e-09
1.98509561495e-08
2.97496179635e-09
7.19693580414e-09
1.67193280183e-09
1.1284697703e-08
1.36457339905e-08
7.1009546968e-09
7.31123848975e-09
1.80126091121e-08
1.75000152848e-08
4.72548616148e-09
2.5141525999e-09
2.84235727097e-10
2.30002844109e-09
6.16497497276e-09
3.53653090627e-09
3.63647519972e-09
1.17513364037e-08
2.19557657902e-08
1.28362418471e-08
1.90380373071e-08
1.09296197387e-09
7.41918042607e-09
2.22004951055e-09
1.16598961479e-08
3.97665541543e-09
2.40656211351e-08
1.00011200653e-09
1.91374586231e-09
5.20267142999e-09
4.41910288555e-09
1.59962156481e-09
2.07574362642e-08
1.8388879411e-08
6.33944660486e-09
4.00343740757e-09
3.46651476513e-09
4.10543924563e-09
1.05670279213e-08
1.6819444955e-08
1.14389609154e-08
1.22686212414e-08
2.86511047571e-08
3.51247630937e-08
8.4398851428e-09
5.62902072044e-09
1.39598036814e-09
8.1640081238e-09
2.61632416663e-09
5.53653479925e-09
1.00196540762e-09
1.44435105181e-09
1.34372437349e-08
3.53761661814e-09
2.719461141e-09
3.89812417221e-09
3.43188670794e-09
5.02691088562e-09
4.59466878334e-09
9.8031457552e-09
1.02978446273e-08
3.59734439042e-09
1.62894752378e-08
4.38980065086e-07
1.56002536613e-07
2.40292669181e-07
5.11948044536e-07
1.04132989206e-07
4.36447750165e-07
2.50867474272e-08
4.44456723094e-09
2.42174316362e-07
4.07145299723e-08
4.67084679988e-07
3.50185970518e-07
2.78528890972e-07
9.76447841309e-07
7.64423063255e-07
3.59903783336e-07
3.15692757542e-07
2.0600669548e-08
3.68399906325e-08
3.25111626295e-08
1.07341144519e-07
1.1331418919e-07
2.28807104887e-07
2.45200352039e-07
2.12372498667e-07
2.18777129972e-07
1.70172561038e-07
6.55014296406e-08
7.88049144768e-08
3.08399752336e-08
1.62706981707e-08
1.53564810296e-08
1.52582967516e-08
1.57717470827e-08
2.56872017516e-08
2.27248787673e-08
2.89169616194e-08
2.15530679142e-08
4.27787387634e-08
2.83082204592e-08
2.77073737456e-08
4.66383043767e-09
3.49449663723e-08
7.02862984899e-08
4.51073924883e-08
2.64001402765e-08
5.11289570473e-08
5.36663639349e-08
4.75751567844e-08
7.78948085535e-08
8.05092381243e-07
6.71576075377e-07
4.29074045802e-07
2.57594530633e-07
7.3964748337e-08
3.81495229573e-08
3.04569319021e-08
1.29867481801e-08
3.16564408908e-08
7.35574841425e-08
9.80973181936e-08
1.86049893465e-07
4.41943362142e-07
2.64528287582e-07
1.55427601974e-07
5.29974719326e-07
1.61489735555e-07
5.99722146789e-09
4.26784443236e-07
5.40995908401e-07
1.6894065633e-07
3.33085905762e-07
1.94956759363e-07
9.0551007294e-08
1.40246246603e-07
1.11277205357e-07
6.95520869096e-08
3.65730320221e-08
1.94223941348e-08
4.28475610707e-08
7.64797485535e-08
2.60278986538e-08
2.88815709685e-08
1.31479295742e-07
1.31452386457e-07
1.18163392128e-06
5.63150298953e-07
1.3229869049e-07
2.46637275334e-08
4.56019204339e-08
5.03019459591e-08
2.61679647299e-08
6.76249108144e-09
1.90814187552e-08
1.04952868088e-09
1.70262462888e-08
7.25669254804e-09
4.99308637793e-09
5.18046502126e-08
1.51645725305e-08
7.33011364538e-09
4.95017122e-09
6.31212595367e-09
7.38421022509e-10
3.89446538116e-09
1.12494134009e-09
6.13328664109e-09
1.56441939368e-08
1.14303439006e-10
1.27810894325e-09
2.942014018e-09
4.43429788395e-09
2.83217843707e-09
4.06968552601e-10
2.13705771672e-08
9.97039947596e-09
9.63609949492e-09
3.4876611457e-09
6.1469751005e-09
2.62206148956e-09
3.5219085981e-09
6.19479769327e-09
1.49399745729e-09
1.18563459806e-08
2.23317516928e-08
4.41028387286e-09
4.25146848553e-09
7.2584882172e-10
2.21882536885e-10
1.75408116509e-09
2.3383212482e-08
1.65893732559e-09
8.57374927134e-09
2.05749671631e-08
3.4180441876e-08
2.7138556011e-08
1.63941416813e-08
3.73659838183e-08
3.19811980808e-08
1.8784636957e-08
1.11392888081e-08
1.70785824493e-08
3.11521977361e-08
5.78000192379e-09
7.84533846203e-09
1.2236276423e-08
1.01005186691e-08
3.06489622511e-09
4.52704561571e-09
4.73605210407e-09
9.2750285063e-09
4.24720260536e-08
6.09078374833e-08
3.97048794687e-08
5.46629779648e-08
1.5233425772e-07
2.24276271261e-07
2.73110588287e-08
4.40288586129e-07
3.84180546388e-07
2.96147190703e-07
1.58189399507e-07
6.88482815151e-08
1.24064685213e-07
4.92578634108e-08
1.10467696796e-07
6.56980778131e-08
1.14565503686e-07
1.23129806614e-08
3.94476980876e-08
1.26104155823e-08
4.98166994219e-08
2.57977322298e-08
6.88222832885e-08
1.22886526866e-08
8.46104873242e-09
1.2140754402e-08
8.52479316913e-08
1.57236156853e-07
6.01699805406e-08
7.9281776053e-08
3.85548378687e-07
6.77065155023e-07
9.32888636413e-08
9.78860619509e-07
2.45339356177e-07
3.77584784416e-07
1.26707454149e-07
1.74712544279e-08
3.09446056348e-07
2.08717331076e-08
1.1816171407e-07
1.9135843533e-07
6.67776585796e-09
8.40715512151e-08
6.77118293459e-08
1.52249099456e-07
2.69029258797e-07
1.14039823655e-07
1.04377964981e-06
2.31870903474e-08
1.61599671381e-07
1.44073356527e-07
2.68932840939e-07
2.55745655674e-07
1.95236272162e-07
6.46820844814e-09
1.57364468841e-10
3.58582615785e-08
1.90224605494e-08
3.99562027922e-08
5.06089763976e-09
2.45938252266e-08
2.10349857429e-08
3.14856872524e-08
1.97680657081e-08
1.13935500637e-08
2.17574814048e-08
1.04126410444e-08
2.08681813003e-08
5.18045147986e-07
7.64308585091e-07
9.96801831675e-07
3.4619922162e-07
2.51515659556e-07
1.81115219618e-07
6.59886964508e-08
3.11095055094e-08
1.37138751157e-08
2.43530185558e-08
3.76020298625e-08
5.06209216443e-08
9.32136403342e-08
9.45982730723e-08
1.34225284775e-07
3.88339076154e-07
1.99889941409e-07
8.00793594216e-07
1.55129598645e-06
7.58690399464e-07
7.20919268856e-07
7.33928486506e-08
2.04821053579e-07
1.64559280704e-07
1.03532973407e-07
4.02081585563e-07
7.57978472829e-08
3.7880707435e-08
4.87983931457e-08
5.20081513625e-08
2.65900472641e-08
1.19409121713e-08
2.57306791446e-08
5.28195139156e-07
2.30018972394e-07
2.51602171813e-07
9.97661554745e-09
1.06812927746e-08
2.1862187934e-08
7.29836521027e-08
7.86254978675e-08
3.25037160175e-08
5.64720088582e-09
9.73523975335e-08
1.8232104824e-08
1.36800653437e-08
1.27211791499e-08
2.20938544716e-08
9.47116684402e-08
1.53974954807e-07
3.15047328819e-07
4.31726774891e-08
3.18760890369e-08
2.61770924627e-08
9.36288976254e-08
6.91529458333e-08
4.4045713359e-08
3.37775389328e-08
5.16535146482e-08
1.71790690228e-08
3.54824349493e-08
5.57524518875e-08
2.58244908838e-07
1.33612112169e-07
4.52436818772e-07
4.68927518275e-07
2.32769787915e-07
6.23004152605e-07
2.03626727421e-07
1.35871312142e-07
5.33036991576e-08
5.55641163017e-08
2.65332232791e-08
1.0062178831e-08
1.22763596927e-07
3.59041964795e-07
3.49242613573e-07
9.35230532699e-08
2.07932204432e-07
1.89669745962e-07
1.12158787075e-07
1.02239406813e-07
2.47276405656e-08
1.23316965499e-08
1.58164959697e-08
4.68402625077e-08