# vtk DataFile Version 3.0
File Name: Molecule/arg/argU_4.0-0.vtk
ASCII
DATASET UNSTRUCTURED_GRID
FIELD FieldData 1
TIME 1 1 double
0.0
POINTS 661 double
-3.403 0.327 1.604
-3.45 0.103 1.078
-2.981 -0.361 1.858
-3.028 -0.584 1.332
-3.298 -0.003 0.536
-2.876 -0.691 0.79
-2.971 0.024 0.066
-2.549 -0.664 0.32
-2.984 0.046 0.042
-2.471 -0.12 -0.363
-2.484 -0.099 -0.385
-2.2 -0.483 -0.862
-2.216 -0.458 -0.889
-3.25 0.578 -0.258
-2.57 0.022 -0.532
-2.777 0.436 -0.766
-2.39 -0.269 -1.153
-2.617 0.185 -1.409
-3.173 1.207 -0.458
-2.716 0.926 -0.921
-2.55 0.723 -1.58
-2.776 1.74 -0.497
-2.407 1.34 -0.951
-2.211 1.177 -1.613
-2.622 1.932 -0.429
-2.287 1.501 -0.894
-2.142 1.682 -0.83
-1.982 1.439 -1.492
-1.81 1.654 -1.416
-2.655 2.421 0.048
-2.046 2.135 -0.548
-2.075 2.574 -0.12
-1.615 2.438 -0.879
-1.647 2.927 -0.402
-2.495 2.657 0.67
-1.932 2.785 0.438
-1.488 3.163 0.22
-2.925 2.572 1.071
-2.137 2.872 1.156
-2.512 2.798 1.506
-1.863 3.333 1.507
-2.279 3.251 1.894
-3.186 2.284 1.521
-2.739 2.546 1.897
-2.53 2.972 2.328
-3.419 1.801 1.788
-2.888 2.359 1.917
-3.122 1.876 2.185
-2.717 2.558 2.345
-2.979 2.017 2.644
-3.567 1.179 1.827
-3.133 1.725 2.369
-3.262 1.186 2.403
-3.107 1.793 3.017
-3.25 1.192 3.055
-3.408 0.559 1.798
-3.123 0.649 2.378
-3.095 0.593 3.027
-3.105 0.348 2.085
-3.1 0.088 1.867
-2.97 0.105 2.152
-3.02 0.504 2.546
-2.901 0.29 2.606
-2.978 0.383 3.085
-2.865 -0.346 2.113
-2.52 -0.7 2.425
-2.794 0.071 2.575
-2.491 -0.24 2.849
-2.645 0.041 3.387
-2.46 -1.117 2.184
-2.148 -0.9 2.844
-2.09 -1.3 2.613
-2.003 -1.142 3.367
-1.937 -1.6 3.103
-2.268 -1.45 1.888
-1.906 -1.62 2.328
-1.726 -1.965 2.777
-1.967 -1.659 1.57
-1.617 -1.821 2.023
-1.396 -2.195 2.428
-1.592 -1.721 1.268
-1.257 -1.88 1.733
-0.984 -2.263 2.097
-2.026 -1.588 0.931
-1.237 -1.838 0.739
-1.646 -1.713 0.421
-0.96 -2.23 0.303
-1.437 -2.084 -0.068
-2.342 -1.257 0.596
-1.944 -1.402 0.106
-1.784 -1.721 -0.435
-2.487 -0.785 0.321
-2.08 -0.956 -0.154
-1.943 -1.202 -0.738
-2.189 -0.632 -0.224
-2.248 -0.516 -0.225
-2.131 -0.618 -0.861
-2.114 -0.682 -1.181
-1.927 -1.264 -1.052
-2.312 -0.441 -1.376
-2.121 -0.506 -1.916
-2.042 -0.816 -1.214
-1.838 -0.886 -1.79
-1.682 -1.348 -1.746
-1.975 -0.256 -2.322
-1.864 -0.768 -1.888
-1.672 -0.441 -2.421
-1.897 0.192 -2.527
-1.57 0.147 -2.691
-1.996 0.646 -2.441
-1.495 0.306 -2.776
-1.602 0.798 -2.682
-1.198 0.386 -3.152
-1.328 0.981 -3.039
-2.011 1.039 -2.18
-1.619 1.224 -2.399
-1.348 1.496 -2.696
-1.72 1.257 -2.235
-1.479 1.817 -1.75
-1.107 2.057 -2.211
-1.346 2.153 -1.415
-1.642 2.007 -1.116
-1.319 2.584 -1.178
-0.816 3.013 -1.267
-1.111 2.259 -1.642
-0.623 2.675 -1.729
-0.543 2.537 -2.312
0.466 3.148 -0.891
-0.416 2.926 -1.599
0.331 3.005 -1.38
-0.131 2.956 -2.042
0.328 3.005 -1.907
-0.002 3.1 -2.533
0.456 3.148 -2.398
-0.048 3.337 -3.001
0.699 3.415 -2.782
0.833 2.913 -0.61
0.619 2.806 -1.364
0.976 2.577 -1.092
0.892 2.689 -1.891
1.303 2.425 -1.576
1.057 2.557 -0.305
1.192 2.232 -0.796
1.553 2.026 -1.234
0.979 2.767 0.195
1.539 1.918 0.039
1.462 2.128 0.539
0.737 2.845 0.68
1.22 2.206 1.024
0.406 3.093 0.833
0.71 2.572 1.142
0.419 2.789 1.277
0.841 2.425 1.643
0.539 2.651 1.783
1.112 2.426 2.108
0.748 2.699 2.276
0.011 3.456 0.651
0.05 3.076 1.433
-0.284 3.383 1.279
-0.034 3.266 2.099
-0.415 3.616 1.924
-0.504 3.599 0.465
-0.72 3.504 1.122
-0.913 3.754 1.744
-1.038 3.495 0.311
-1.173 3.416 0.991
-1.429 3.653 1.595
-1.554 3.135 0.914
-0.08 3.426 2.677
0.304 2.919 2.221
0.258 3.08 2.801
0.695 2.881 2.933
-0.313 3.4 3.231
0.024 3.055 3.358
0.431 2.852 3.563
-0.687 3.194 3.654
-0.352 2.847 3.783
0.006 2.617 4.044
-1.222 3.175 3.77
-0.58 2.815 3.881
-1.2 2.794 4.016
-1.756 3.136 3.659
-1.82 2.748 3.887
-2.199 3.083 3.341
-2.333 2.687 3.518
-2.473 3.025 2.87
-2.65 2.619 2.973
-0.832 2.373 4.277
-0.242 2.183 4.431
-1.061 1.806 4.483
-0.466 1.628 4.634
-1.434 2.302 4.313
-1.452 1.611 4.604
-1.773 2.038 4.456
-1.892 2.602 3.976
-2.169 2.297 4.166
-2.355 2.652 3.532
-2.568 2.341 3.783
-2.74 2.445 3.06
-2.9 2.162 3.376
-1.464 1.095 4.666
-0.956 1.592 4.533
-0.968 1.074 4.596
-0.48 1.041 4.705
-1.655 0.731 4.634
-0.882 0.784 4.614
-1.066 0.434 4.582
-0.333 0.517 4.869
-0.555 0.096 4.831
-2.14 0.383 4.441
-1.246 0.178 4.538
-1.7 -0.148 4.358
-0.878 -0.357 4.785
-1.429 -0.753 4.566
-2.498 0.133 3.99
-2.035 -0.382 3.936
-1.836 -1.037 4.053
-2.172 -0.468 3.371
-0.383 -0.749 5.065
-0.05 -0.304 5.117
0.164 -1.171 5.088
0.507 -0.734 5.141
0.4 -1.671 4.946
0.615 -0.976 5.092
0.839 -1.451 4.956
1.043 -0.806 5.264
1.279 -1.306 5.122
0.636 -2.087 4.632
1.063 -1.845 4.659
1.514 -1.722 4.808
0.844 -2.371 4.183
1.26 -2.115 4.232
1.723 -2.007 4.359
1.002 -2.493 3.648
1.411 -2.231 3.724
1.881 -2.129 3.824
1.092 -2.439 3.086
1.496 -2.18 3.191
1.971 -2.075 3.263
1.104 -2.215 2.561
1.508 -1.967 2.692
1.983 -1.85 2.738
1.037 -1.846 2.131
1.444 -1.616 2.284
1.916 -1.481 2.307
0.647 -2.269 2.118
0.798 -1.688 1.555
0.487 -2.024 1.545
0.806 -1.676 0.912
0.496 -2.012 0.902
1.061 -1.813 0.337
0.67 -2.236 0.324
0.119 -2.499 2.107
0.068 -2.206 1.536
0.076 -2.194 0.893
0.142 -2.466 0.313
-0.457 -2.497 2.099
-0.39 -2.205 1.53
-0.381 -2.193 0.887
-0.434 -2.464 0.306
-0.808 -2.019 1.528
-0.8 -2.007 0.885
1.48 -1.078 0.031
1.043 -1.422 0.814
1.323 -0.93 0.61
1.205 -1.217 1.373
1.436 -0.812 1.205
1.517 -1.238 1.905
1.797 -0.747 1.701
2.335 -0.746 2.002
1.639 -0.712 -0.547
1.476 -0.549 0.311
1.615 -0.229 -0.195
1.697 -0.118 0.66
1.842 0.216 0.134
1.693 -1.21 -0.838
1.805 -0.426 -1.067
1.853 -0.872 -1.327
2.201 -0.141 -1.444
2.253 -0.62 -1.722
1.568 -1.637 -1.21
1.741 -1.254 -1.66
2.133 -1.029 -2.079
1.279 -1.936 -1.614
1.483 -1.521 -2.022
1.857 -1.315 -2.467
0.866 -2.068 -1.998
1.113 -1.639 -2.366
1.46 -1.442 -2.835
0.381 -2.015 -2.311
0.679 -1.593 -2.646
0.995 -1.392 -3.136
-0.112 -1.786 -2.513
0.238 -1.387 -2.827
0.523 -1.172 -3.329
-0.548 -1.409 -2.576
-0.152 -1.05 -2.884
0.104 -0.811 -3.39
-0.822 -1.287 -2.506
-0.408 -0.948 -2.806
-0.669 -0.831 -2.739
-0.336 -0.591 -3.197
-0.616 -0.466 -3.125
-1.31 -1.347 -2.194
-0.988 -0.705 -2.664
-1.485 -0.767 -2.346
-1.322 -0.31 -2.728
-0.95 -0.071 -3.189
-0.311 -0.212 -3.619
0.128 -0.454 -3.788
-0.16 0.24 -3.931
0.27 -0.03 -4.081
0.101 0.716 -4.098
0.516 0.418 -4.238
-0.411 1.252 -3.909
0.377 1.347 -4.4
0.11 1.626 -4.301
-0.398 1.946 -3.588
0.117 1.987 -4.134
-0.106 2.463 -3.53
-0.202 2.855 -2.684
0.028 3.029 -3.665
0.9 3.106 -3.671
0.173 2.486 -3.833
0.85 2.546 -3.838
0.989 2.064 -4.14
0.819 3.383 -2.845
1.267 2.733 -3.406
1.204 2.948 -2.765
1.749 2.404 -3.353
1.668 2.681 -2.526
0.902 2.914 -2.485
0.749 2.956 -2.405
1.123 2.627 -2.01
1.688 2.19 -1.733
1.962 2.454 -2.382
2.133 1.624 -1.992
2.194 2.159 -2.516
2.141 1.301 -1.585
2.428 1.273 -2.257
2.435 0.969 -1.874
2.042 0.907 -1.262
2.342 0.599 -1.57
1.911 1.516 -1.257
1.855 0.911 -0.632
1.743 1.428 -0.628
1.976 0.918 0.014
1.858 1.462 0.018
1.44 1.861 -0.608
1.861 0.778 -0.544
1.751 0.201 -0.446
1.991 0.665 -1.105
1.878 0.074 -1.004
2.497 1.237 -3.182
2.241 1.687 -2.422
2.29 1.662 -3.078
2.232 2.14 -3.028
1.83 1.363 -3.817
1.817 1.751 -3.528
1.863 2.209 -3.379
1.382 0.739 -4.338
1.413 1.57 -3.947
1.095 1.128 -4.316
1.103 1.869 -4.167
0.855 1.524 -4.455
0.482 0.901 -4.245
1.404 2.01 -3.684
1.315 2.161 -3.664
2.007 0.383 0.735
1.766 -0.192 1.22
2.031 0.236 1.284
1.991 -0.414 1.693
2.267 0.032 1.759
2.675 -0.196 2.083
2.074 0.941 0.928
2.088 0.713 1.449
2.326 0.528 1.931
2.749 0.417 2.295
1.884 1.434 1.198
1.926 1.135 1.68
2.158 0.967 2.172
2.541 0.959 2.592
1.624 1.884 1.117
1.755 1.469 1.75
1.503 1.904 1.671
1.842 1.579 2.299
1.557 2.073 2.21
1.11 2.216 1.58
1.886 1.845 2.759
2.132 1.224 2.493
2.174 1.477 2.929
2.585 1.225 3.051
1.814 2.002 3.263
2.105 1.625 3.407
2.513 1.382 3.555
1.633 2.033 3.763
1.933 1.655 3.881
2.331 1.413 4.055
1.359 1.937 4.21
1.674 1.563 4.305
2.058 1.316 4.502
1.021 1.721 4.561
1.354 1.359 4.638
1.72 1.101 4.853
0.651 1.408 4.781
1.002 1.062 4.847
1.35 0.788 5.074
0.073 1.245 4.841
0.82 0.891 4.947
0.23 0.725 5.008
0.672 0.387 5.179
1.205 0.294 5.301
0.564 -0.173 5.245
1.099 -0.256 5.367
-1.999 2.782 0.776
-1.065 -1.824 1.176
1.419 -0.545 0.696
1.7 -0.166 -0.791
-3.196 2.043 -0.114
-3.592 1.578 -0.026
-3.592 1.985 0.326
-3.196 2.357 0.319
-3.592 2.137 0.843
-3.196 2.469 0.843
-3.592 1.985 1.36
-3.85 1.69 0.843
-3.85 1.435 1.283
-3.592 0.264 0.574
-3.85 0.672 0.843
-3.85 0.927 0.403
-3.592 0.555 0.121
-3.592 1.045 -0.103
-3.85 1.435 0.403
-3.94 1.181 0.843
-3.85 0.927 1.283
-3.592 0.555 1.565
-2.722 -1.154 1.098
-2.722 -1.154 1.636
-2.722 -0.863 2.089
-2.326 -1.497 1.099
-2.482 0.597 -1.975
-2.482 0.047 -1.975
0.763 3.18 -0.086
0.367 3.4 -0.61
0.367 3.512 -0.086
0.367 3.4 0.438
-0.118 3.59 -0.615
-0.118 3.688 -0.086
-0.634 3.59 -0.615
-0.634 3.688 -0.086
-1.119 3.512 -0.086
-1.119 3.4 -0.61
-1.119 3.086 -1.043
-0.667 3.796 3.018
-0.667 3.906 2.497
-1.198 3.918 2.998
-1.198 3.65 3.431
-1.198 3.918 1.996
-1.198 4.012 2.497
-1.729 3.906 2.497
-1.729 3.796 3.018
-1.729 3.482 3.449
-1.729 3.796 1.976
-2.179 3.606 2.497
-2.179 3.474 2.987
-1.895 1.335 4.734
-2.426 1.603 4.572
-2.426 1.073 4.627
-2.426 2.064 4.305
-2.876 2.056 3.843
-2.876 1.697 4.202
-2.876 1.207 4.334
-2.876 0.717 4.202
-2.426 0.566 4.463
-3.176 1.738 3.353
-3.176 1.472 3.813
-3.176 0.942 3.813
-2.876 0.358 3.843
-3.176 0.676 3.353
-3.282 1.207 3.353
0.578 -2.491 4.272
0.08 -2.472 4.525
0.08 -2.776 4.08
0.578 -2.727 3.81
0.08 -2.934 3.566
0.578 -2.808 3.297
0.08 -2.934 3.028
0.578 -2.727 2.784
0.08 -2.776 2.514
0.08 -2.052 4.861
-0.44 -2.052 4.861
-0.44 -2.472 4.525
-0.44 -2.776 4.08
-0.44 -2.934 3.566
-0.44 -2.934 3.028
-0.44 -2.776 2.514
-0.44 -1.551 5.057
-0.938 -1.149 4.956
-0.938 -1.662 4.875
-0.938 -2.124 4.639
-0.938 -2.491 4.272
-0.938 -2.727 3.81
-0.938 -2.808 3.297
-0.938 -2.727 2.784
-0.938 -2.491 2.322
-1.374 -1.149 4.675
-1.374 -1.677 4.571
-1.374 -2.124 4.272
-1.374 -2.423 3.825
-1.374 -2.527 3.297
-1.374 -2.423 2.769
-1.714 -1.289 4.273
-1.714 -1.795 4.042
-1.714 -2.095 3.575
-1.93 -1.406 3.742
1.624 -1.33 -0.389
1.408 -1.719 -0.089
1.408 -2.019 -0.556
[...]
CELL_DATA 1318
SCALARS cell_data_0_real double
LOOKUP_TABLE default
0.000319430091448
0.000330942280271
0.000318968332379
0.000337004724258
0.000353834433936
0.000383692862359
0.000415324495242
0.000447948892349
0.000482431326438
0.000498665118238
0.000385179576696
0.000398410756556
0.000444878291228
0.000441467739531
0.000356909210379
0.000384960776554
0.000416130979755
0.000432249525773
0.000375314543696
0.000419461956915
0.000443654967956
0.000480197229123
0.000409788871081
0.000450414083546
0.000502445763737
0.000531143431068
0.000383401318681
0.000380897446451
0.000422965362664
0.000401128501018
0.000332827524382
0.000340593096315
0.00035660299278
0.000347403411256
0.000301978504235
0.000294929371566
0.000302363544277
0.000284739019031
0.000272099041819
0.000275393202416
0.000278457855811
0.000269825807799
0.000263597086445
0.000269887317802
0.000276406879143
0.000275042447331
0.000264259767833
0.000274286811626
0.000274022065105
0.00026948493345
0.000283993121034
0.000305732704697
0.000295035876156
0.000302820554396
0.000317626271666
0.000334203872731
0.000354270226322
0.000363321341434
0.000345240308168
0.000340142924972
0.000366797466111
0.000363503865809
0.000419697679309
0.000453457387999
0.000404997677113
0.000399617709583
0.000521033206122
0.000565723122419
0.000652378262613
0.000609898953619
0.000474720643575
0.000503805226796
0.000559776489521
0.000515270739057
0.00044405884579
0.000461870898983
0.000482714500048
0.00044679270764
0.000442437535772
0.000457414862515
0.000445673943782
0.000420553738391
0.000447097167383
0.000445992966956
0.000466377844146
0.000441384733584
0.000409961535339
0.000421472125103
0.000430875737989
0.000420358050412
0.00041176671654
0.000439651458668
0.000439988937655
0.000446724301689
0.000436823201549
0.000463257741356
0.000491523771051
0.000497087271588
0.000480369336805
0.000455276522365
0.00048556401398
0.000481438525284
0.000465614593916
0.000462771438358
0.000456809176772
0.000431072667947
0.000455035631136
0.000461461394245
0.000473461148183
0.000495333800351
0.000513550256238
0.000538196055763
0.000540660244051
0.00054548168983
0.000537617780534
0.000569994044963
0.000575698167701
0.000588823464694
0.000554353957942
0.000563500581688
0.000611520911132
0.000631810039126
0.000583418363786
0.000559464701296
0.000539020897171
0.000500779757179
0.00053288794932
0.000572664309846
0.000629218444915
0.000653002164825
0.000522797631055
0.000546911368768
0.000581715963931
0.000604629425266
0.000632554943622
0.000665070448258
0.000720120853674
0.000791738420008
0.000537536730445
0.000580734485627
0.000658584193685
0.000682801272034
0.000531909654662
0.000570156728924
0.000624548692781
0.000632625371163
0.000475451370286
0.000455077163644
0.000429051418084
0.000433591168913
0.000408531579021
0.000410011065407
0.000427474133084
0.000426961393471
0.000450822829602
0.000458001287553
0.000367239688535
0.000353393411897
0.000360001028104
0.000337554620311
0.000331069416767
0.000322442684049
0.000321626194544
0.000304468872728
0.000315371448265
0.000312310095323
0.000304541958907
0.000292987132201
0.000319908500278
0.00032330713707
0.000308228628404
0.000301589196286
0.000363232684169
0.000369812083108
0.000412852335322
0.000434388116707
0.000323271129095
0.000324297680662
0.000374170285581
0.000378260984243
0.00027713463308
0.000270957166964
0.000300397145466
0.000285537360508
0.000239059626844
0.000231415703077
0.000225134093549
0.000225163375347
0.000226219071392
0.000231240454213
0.000235759317036
0.000244041077081
0.00025199232281
0.000263466044912
0.000231355739067
0.000220956471143
0.000205218893967
0.00019842592666
0.000213879648597
0.000214651893452
0.000219104914465
0.000218635506894
0.000227719421244
0.000226624816073
0.00023935732369
0.000238966204578
0.000256365593186
0.000257591196085
0.000215998896615
0.000216761846634
0.000204376714604
0.000204823542365
0.000230327185974
0.000237613208209
0.000233975792409
0.000236638208521
0.000252812112556
0.000269530652164
0.000253274992172
0.000247104042769
0.000293790178747
0.000335193872312
0.000316408910868
0.00033908346129
0.00037300733569
0.000450716308547
0.000461196481378
0.000536597594324
0.000211732781685
0.00021503197223
0.000204699070501
0.000216440320156
0.000246805714103
0.000272961896907
0.000249808767199
0.000267361761617
0.000348009698626
0.000391427504582
0.00034873113195
0.000390356619208
0.000508716431609
0.000548577493255
0.000502345105378
0.000560687362354
0.000646966697797
0.000642573383603
0.000630893771782
0.000667620518729
0.000636362552735
0.000594883724233
0.000624812064795
0.000608496802932
0.000521484877155
0.000487093577696
0.000516351239974
0.000481141448501
0.000437167242882
0.000426910499457
0.000429124638956
0.000406972789614
0.000429928402981
0.000440286775029
0.000494331776408
0.000517672084697
0.000562222526694
0.000536306853094
0.000411723756243
0.000418440187746
0.000461586969776
0.00048389819882
0.000517030047187
0.000495691070224
0.000392631844002
0.000405947156149
0.000443842427484
0.000467394335883
0.0004884936299
0.000472245046878
0.000392291615664
0.000420824456502
0.000448507394598
0.0004769549763
0.00048329445084
0.000473764901226
0.000571975772536
0.000574357694963
0.000551966877075
0.000519467167874
0.000472792677094
0.000444294774945
0.000404940963527
0.000371600027874
0.000518940269143
0.000514237200677
0.000514834137442
0.000483637950398
0.000407155948082
0.000346990980588
0.000310119492084
0.000241557753023
0.000319457808817
0.000268037294348
0.000227486689905
0.000169553851194
0.000257343361243
0.000215932868437
0.00017091878282
0.000123629796356
0.000221897395611
0.00019037031046
0.00014089782753
0.000103425473987
0.000212626611049
0.000192050422243
0.000137661497275
0.000109586708874
0.000231251039016
0.00022382482987
0.000163731901306
0.000146034925938
0.000281990982567
0.000292315344454
0.000225170427968
0.000219516870394
0.000359675052718
0.000385907900899
0.000377981852473
0.000389518614769
0.000400357787478
0.00042476553565
0.000408866519032
0.000434774859856
0.000446792020899
0.000450198620518
0.000488718811354
0.000498279979157
0.00030337761644
0.00026032310178
0.000311471587425
0.000280542870912
0.000366090966978
0.0003479292711
0.000597854115839
0.000683143856569
0.000699004462919
0.000774758323121
0.000754514031064
0.000748920001392
0.000794883711084
0.000801778678938
0.000879419209869
0.000839204108851
0.000862600792526
0.000941282185705
0.000896581973358
0.000854560906148
0.000881208651025
0.000966197530394
0.000768393914025
0.000774500025948
0.00078671007951
0.000765019271674
0.000784399457111
0.000785112503529
0.000677161735848
0.000701901174566
0.000461394515399
0.0003887848966
0.000409735897244
0.00035797221269
0.000483436603522
0.000505642866751
0.000475692803806
0.000463324034856
0.000559203361291
0.000568249211834
0.000514941443909
0.00049860586641
0.000450580669695
0.000465587162372
0.000458703895825
0.000437178666233
0.000380723231797
0.000321212544199
0.000413539154882
0.000467837750156
0.000625795396344
0.000668107441965
0.000410722075094
0.00053162250661
0.00062722372468
0.000729494797063
0.000440738243434
0.000472459279047
0.000652963895392
0.00066773966786
0.000359334942787
0.000449174656978
0.000572297633635
0.000653956808923
0.000788675024855
0.000805233198572
0.000796327191806
0.000806888726079
0.000451465237745
0.000428911614034
0.000422704591364
0.000396339642915
0.00036968040729
0.000343313218434
0.000414179138853
0.000413163799002
0.000403720456775
0.000399879413492
0.000370745638097
0.000371274080866
0.000423450497912
0.000439230019793
0.000432204100253
0.000451932183742
0.000431887276757
0.000467357157622
0.000449809460817
0.00046479518382
0.000503494486759
0.000531480361448
0.000448107262253
0.000456997748171
0.000487712155024
0.00050121756199
0.000595612337682
0.00061836971861
0.000582115005982
0.000611393766461
0.000684952774396
0.000686800325215
0.000672564196565
0.000703387470047
0.000686626532167
0.000648596163524
0.000677825694304
0.000669044195314
0.000562269394716
0.000514398869025
0.000562167228401
0.000518225254421
0.000410935110988
0.00037596800093
0.000411997694632
0.000366258974226
0.000302305006659
0.00028579968554
0.000302078686318
0.000270712006795
0.000241361817779
0.000235841278893
0.000219062257011
0.000226967148729
0.000235099505233
0.000215501118551
0.000210470346176
0.000197228867801
0.000209665854455
0.000208788263204
0.000339841416921
0.000459191046806
0.000487994374196
0.00042333718244
0.000478079232598
0.000475431710522
0.000431273824201
0.000511326844585
0.000495262932596
0.000438701715993
0.000527364494892
0.000489615428932
0.000481632593973
0.000440385825851
0.000335173348812
0.000338895334875
0.000332229842778
0.000315822645346
0.000325549955853
0.000333209723297
0.000271703508398
0.000276826343785
0.00027082216954
0.000269414661628
0.000275054458146
0.000268588888551
0.000332444471369
0.000340727243839
0.00032584873212
0.000368308862333
0.00038013565263
0.000383886065419
0.000475695601741
0.000574883955761
0.000633332262739
0.000537685394096
0.00043522783814
0.000468149040855
0.000481614020734
0.000497824328336
0.00048560879919
0.000479364065773
0.000469803492829
0.000475113803776
0.000485775158953
0.000457057100652
0.00046343588945
0.00047291027723
0.000430115120775
0.000446825292285
0.00052152002559
0.000513038684413
0.000590296555721
0.000572827690483
0.000623031668628
0.000601772596736
0.00056300839922
0.000665009713137
0.000661469841446
0.000690708712624
0.000637590037988
0.000593235470117
0.000549946910199
0.000738254599114
0.000699888907535
0.000718790671072
0.000672582402858
0.000611642783459
0.00056419503924
0.000594650931151
0.000561968767769
0.000521108858388
0.000443081663086
0.000443659181573
0.000462340626368
0.000429098943599
0.000425277954835
0.000402287736621
0.000379416878177
0.000405277194733
0.00039247973659
0.000250875581595
0.000248885396125
0.000202365891244
0.000210475110829
0.000223364130024
0.000218753081746
0.000223387636289
0.00023362910434
0.000242969855688
0.000246016784465
0.000226303115067
0.000227036463
0.000408075412685
0.000423914988722
0.000441550902232
0.000469376152103
0.000513896545776
0.000549533800248
0.000573303787776
0.000385147123846
0.000423457048183
0.000456796607763
0.000498845835736
0.00049323254599
0.000526922746868
0.000559205774035
0.000552234065279
0.000537364485378
0.000480348197108
0.00048489305714
0.000452998195523
0.00042050917322
0.000353027620844
0.000437167925993
0.000480073908995
0.000293997983095
0.000341524064306
0.000339900779354
0.000421271104796
0.000409568416038
0.00043955089559
0.000551456942332
0.000778860839948
0.000750469715381
0.000760929409497
0.00080713140826
0.000815964296181
0.000819477508465
0.000783779277451
0.000808095218661
0.000810525840647
0.000788768482453
0.000600475679082
0.000495341615661
0.000395459019341
0.000450506283128
0.000462082606211
0.000459191025822
0.000739513417704
0.000691336816954
0.000735360167402
0.000562301940228
0.000522240315538
0.000536304489318
0.000498386775638
0.000494886919252
0.000459048467701
0.000253963437033
0.000260084382616
0.000273251089751
0.000273573847213
0.000253867928942
0.000255727399794
0.00023538478943
0.00023392365166
0.000265466351767
0.00027686428962
0.000275742286506
0.000260297384726
0.000265711867138
0.000254825960815
0.000241792646225
0.000240024205318
0.000233458485707
0.00023848808943
0.000245490984673
0.000247856624813
0.000244234148434
0.000236643964588
0.000281245781869
0.000278677451114
0.000260274568283
0.000263876070074
0.000247600219184
0.000250422574977
0.000242150669044
0.000250877721346
0.000244778874842
0.000251046100496
0.000262277682323
0.000282354731456
0.000282679126092
0.000304633943456
0.000300538800916
0.000338086724183
0.000351423494886
0.000338087898538
0.000304801333406
0.000298429431062
0.000320875419085
0.000303932567982
0.000335937609109
0.00033115487698
0.0003030189077
0.000304718426432
0.000366021477827
0.000282011908828
0.000296404954583
0.000296318756758
0.00039264600823
0.000386429860238
0.000364870867535
0.000345146210589
0.000346654555355
0.000360280194832
0.000360364350848
0.000378993896969
0.000417737306981
0.000443540377622
0.000397821754602
0.000407692795361
0.00038335099203
0.000403375387312
0.000399385917021
0.000426431981617
0.000389520647349
0.000370598797229
0.000360270876158
0.000497937742993
0.000502670384831
0.000505250984153
0.000474792060741
0.000440964645616
0.000431581884462
0.000445097742003
0.000461117515085
0.000449403844227
0.000444932486917
0.000460442002375
0.000478454389799
0.00045956915331
0.000497676738445
0.000573886995991
0.000593607083097
0.000402326649033
0.000377318117349
0.000393793998249
0.000366453562192
0.000364421263437
0.000345286273409
0.000349314959712
0.000338098431581
0.00035129418466
0.000342360568886
0.000324422813255
0.000321540828867
0.000319694224365
0.000328057864793
0.000332558057215
0.000344820913075
0.000354443935528
0.000360733791527
0.000384557541173
0.00039078057732
0.000414087862941
0.000448499262808
0.000469237930487
0.000444639497224
0.000476649192468
0.000440937950728
0.000475110917631
0.000421861974684
0.000430640600406
0.000389649641688
0.000387672864733
0.000422497144338
0.000463695911625
0.000476578646352
0.000244989785538
0.000231495087676
0.000253804739725
0.000241085760633
0.000228510593883
0.00022135209678
0.000219507134634
0.000216130970038
0.000245179941071
0.000240922959588
0.000222540632806
0.000220252622074
0.000215509501698
0.000235005327557
0.000249952415028
0.000253003121966
0.000244262093065
0.000229800706777
0.000229474716619
0.000220179526721
0.00022128037684
0.000221196975515
0.000220945156097
0.000232631807505
0.000242048094515
0.000260401490523
0.000285579306718
0.00027858515957
0.000301598226493
0.000288447050432
0.000271316843692
0.000277075785034
0.000264258522957
0.000276573350124
0.000272141485122
0.000333476941281
0.000212310800045
0.000217872247885
0.000222537300306
0.000225287172503
0.000230544562266
0.000235179343721
0.000242999991186
0.000247580553621
0.00026061582198
0.000268320876265
0.00022619784849
0.000208350688433
0.000209219585541
0.000204348670644
0.0002060471215
0.000208436231216
0.000220530265829
0.000230412873563
0.000224258298034
0.000213563817661
0.000212315021532
0.000223007243896
0.000228639298611
0.000252669365298
0.000268219005419
0.000234737163863
0.000235085741339
0.000255251444762
0.000265842516974
0.000287180522606
0.000310161781516
0.000304611568181
0.000338705210786
0.000332206464145
0.000277153995488
0.00026403317661
0.000273329862671
0.000247617693591
0.000233120213413
0.000222205486151
0.000224510218212
0.000216657643589
0.000213201785835
0.000209437411123
0.000208104977442
0.000212754591983
0.00021642974791
0.000215873141517
0.000226920974628
0.000230550965848
0.000245001933976
0.000254462741489
0.000250656485503
0.000354906893623
0.000570070853014
0.000674087888999
0.000682537153482
0.000704923361438
0.000622132834335
0.000575134007099
0.000490178108437
0.000317591529716
0.000378555668589
0.000425948726473
0.000507546740901
0.000512743031092
0.000579103436606
0.000504213565527
0.00052613464851
0.000433069859949
0.000434668415206
0.000198482329516
0.000222195032981
0.00023501549746
0.000283011720961
0.000293875902496
0.000358707815478
0.000352759103587
0.000410544926865
0.000378400942159
0.000406856127164
0.000368391702909
0.000376572098789
0.000359759949128
0.000202377783474
0.000215074985535
0.000222803262193
0.000239794667969
0.000262912725936
0.000278811360135
0.000305546179221
0.000313095184695
0.000331438744104
0.000338413566096
0.000341965218061
0.000355359537722
0.000246871853522
0.000272946870054
0.000259352701709
0.000280740955254
0.000306663987195
0.0003153808502
0.000340473995961
0.000356406510499
0.0004400490421
0.000449140356729
0.000371260224579
0.000373662438173
0.000407009706523
0.000376039973558
0.000387844562216
0.000376445256992
0.000367658017872
0.000385325563685
0.000390190262064
0.000437052649509
0.00043111024595
0.000457076101532
0.000519053773984
0.000594567690539
0.000664825371401
0.000718720100509
0.000708624983417
0.000670676859458
0.000565064230589
0.000512873602867
0.000414481670823
0.000356689883993
0.000269656940433
0.000260466939348
0.000237046237233
0.000200494354013
0.00019022885628
0.00019369711617
0.000210144893704
0.000216595936776
0.000258293996439
0.000305921973303
0.000368543448571
0.000482337031702
0.00054333265256
0.000426956147774
0.000414995184311
0.000402621345787
0.000353643068747
0.000327008701815
0.000295860760733
0.000354715142266
0.000331452866731
0.000298639033868
0.000286601754265
0.000262703530963
0.000363559004321
0.000335365943565
0.000309354137702
0.000289720234874
0.000274069670075
0.000260362751449
0.000252711996271
0.000370206855387
0.000351645499988
0.000316485181343
0.000303447680352
0.000283070587458
0.000273749671732
0.000265597141925
0.000258679942824
0.000262663775837
0.000358538179877
0.000334759072213
0.000312138545927
0.000299738035381
0.000284801553791
0.000282553194915
0.000273851754314
0.000282421995554
0.000279839285925
0.000302932263954
0.000354989205648
0.000335853096539
0.000313634728529
0.000312377257498
0.000296555275745
0.000304998155623
0.000300075432946
0.000362036112366
0.000353253878011
0.000330756031546
0.000339296832742
0.000329425752206
0.0003553483338
0.000334147412725
0.000339690840165
0.000367212435291
0.00034801814423
0.000315106849111
0.000293127332559
0.000263277908246
0.000251014585108
0.000243341350048
0.000236733804102
0.000249396865958
0.000250741388082
0.000273110031805
0.000280711458798
0.000322529774039
0.000348634566341
0.000388443896757
0.000422648053144
0.000476758725319
0.000473673997657
0.000525866087
0.000464688256522
0.000482175668556
0.000418869412686
0.00042449058376
0.000457378968456
0.00041727204819
0.000437848858915
0.000400438553803
0.000426076426053
0.00039950594546
0.00041799191701
0.00038930016296
0.000402348231031
0.000380932114234
0.000400698211072
0.000382772020826
0.000401549495006
0.000382020752425
0.000434209747464
0.000456022017386
0.000459441576999
0.000490115820403
0.000457136198572
0.000556403500089
0.000633112210253
0.000679706029475
0.000641613292533
0.000565818403174
0.000517262999672
0.000517060927437
0.000548629375926
0.000576751560365
0.000626057664179
0.000517168863057
0.000477777933514
0.000428416722652
0.000405528175784
0.000362779711533
0.000399091312948
0.000485785206787
0.000496877848072
0.000718650432945
0.000823760265372
0.000795750805259
0.000770951576388
0.00102510298579
0.00106565239346
0.000477770156677
0.000510690639583
0.000590883638335
0.000607151850871
0.000658800163182
0.000729574413649
0.000742019052231
0.000431315037505
0.000432009943275
0.000438775762103
0.000446864668897
0.00045272515337
0.000429269739849
0.000432043346649
0.00041744507753
0.000419527605223
0.000435688806212
0.000453062489183
0.000418922604907
0.000422667048177
0.000631132395716
0.000530741775354
0.000590730149901
0.000418064962765
0.000338918581975
0.000352794423566
0.000290779069054
0.000238710156418
0.000219203408318
0.000235170761907
0.000273677669808
0.000306969563072
0.000380951827788
0.000422312029761
0.000520466915299
0.000577604956948
0.000688438281954
0.000718490294375
0.000736758758413
0.000692059953234
0.000627203856953
0.000553333527374
0.000491037800059
0.000501088791254
0.000447864173984
0.000394402686878
0.000310369276075
0.00028191524233
0.000242664811334
0.000224531040782
0.0001996712946
0.000202282614527
0.000202993462683
0.000522155349829
0.000553684621162
0.000626171462371
0.000604575082956
0.000219626466407
0.000223897276525
0.000233009918694
0.000235679403052
0.000232719910824
0.000237683796929
0.00033422786239
0.000297107883262
0.000284899175121
0.000285535105207
0.000302659364987
0.000338267572239
0.000389800057939
0.000357225967013
0.000293731471627
0.00028388296042
0.000276180701972
0.000299974560657
0.000295389383494
0.000314145493531
0.00028915088946
0.000287422414244
0.000279963990599
0.000296875380002
0.000319186827325
0.000382302684003
0.000401349489395
0.000478168046243