# vtk DataFile Version 3.0
File Name: Molecule/arg/Error_  16.00.vtk
ASCII
DATASET UNSTRUCTURED_GRID
FIELD FieldData 1
TIME 1 1 double
0.0
POINTS 2894 double
-3.403 0.327 1.604
-3.452 0.202 1.348
-3.215 0.119 1.662
-3.262 -0.0 1.417
-3.073 -0.113 1.748
-3.12 -0.233 1.503
-2.981 -0.361 1.858
-3.03 -0.485 1.602
-3.45 0.103 1.078
-3.261 -0.095 1.158
-3.118 -0.328 1.244
-3.028 -0.584 1.332
-3.398 0.034 0.803
-3.211 -0.162 0.894
-3.068 -0.394 0.98
-2.976 -0.654 1.057
-3.298 -0.003 0.536
-3.114 -0.197 0.638
-2.972 -0.43 0.724
-2.876 -0.691 0.79
-3.153 -0.007 0.286
-2.976 -0.201 0.399
-2.833 -0.433 0.485
-2.731 -0.694 0.541
-2.971 0.024 0.066
-2.801 -0.171 0.187
-2.658 -0.404 0.273
-2.549 -0.664 0.32
-2.984 0.046 0.042
-2.75 -0.004 -0.09
-2.763 0.017 -0.113
-2.556 -0.072 -0.268
-2.569 -0.051 -0.29
-2.396 -0.177 -0.461
-2.409 -0.155 -0.484
-2.276 -0.316 -0.661
-2.29 -0.293 -0.686
-2.2 -0.483 -0.862
-2.216 -0.458 -0.889
-3.137 0.25 -0.093
-2.796 0.071 -0.172
-2.93 0.25 -0.291
-2.637 0.05 -0.409
-2.759 0.213 -0.517
-2.512 -0.016 -0.658
-2.63 0.141 -0.762
-2.429 -0.124 -0.909
-2.549 0.037 -1.016
-2.39 -0.269 -1.153
-2.52 -0.095 -1.268
-3.233 0.491 -0.219
-3.014 0.461 -0.401
-2.835 0.406 -0.617
-2.703 0.326 -0.859
-2.624 0.226 -1.115
-2.601 0.111 -1.376
-3.264 0.756 -0.329
-3.042 0.694 -0.497
-2.86 0.617 -0.705
-2.727 0.53 -0.943
-2.649 0.435 -1.201
-2.628 0.337 -1.469
-3.23 1.029 -0.415
-3.012 0.933 -0.573
-2.833 0.835 -0.774
-2.702 0.739 -1.01
-2.623 0.65 -1.27
-2.6 0.57 -1.544
-3.133 1.294 -0.474
-2.927 1.166 -0.625
-2.756 1.047 -0.821
-2.627 0.943 -1.055
-2.546 0.859 -1.316
-2.517 0.796 -1.594
-2.979 1.536 -0.502
-2.791 1.378 -0.649
-2.632 1.24 -0.843
-2.508 1.129 -1.076
-2.425 1.049 -1.338
-2.385 1.003 -1.617
-2.776 1.74 -0.497
-2.613 1.557 -0.645
-2.47 1.404 -0.839
-2.352 1.286 -1.072
-2.264 1.21 -1.334
-2.211 1.177 -1.613
-2.622 1.932 -0.429
-2.565 1.626 -0.624
-2.419 1.808 -0.56
-2.373 1.536 -0.795
-2.23 1.716 -0.731
-2.208 1.473 -1.002
-2.061 1.658 -0.936
-2.076 1.44 -1.237
-1.919 1.637 -1.168
-1.982 1.439 -1.492
-1.81 1.654 -1.416
-2.659 2.151 -0.265
-2.381 1.999 -0.448
-2.415 2.203 -0.295
-2.153 2.085 -0.505
-2.186 2.283 -0.357
-1.945 2.19 -0.598
-1.978 2.387 -0.45
-1.764 2.309 -0.724
-1.798 2.513 -0.571
-1.615 2.438 -0.879
-1.652 2.657 -0.715
-2.664 2.341 -0.064
-2.42 2.38 -0.107
-2.191 2.453 -0.176
-1.982 2.558 -0.269
-1.803 2.69 -0.383
-1.657 2.846 -0.514
-2.637 2.492 0.166
-2.395 2.521 0.108
-2.167 2.589 0.031
-1.958 2.694 -0.062
-1.778 2.831 -0.169
-1.63 2.998 -0.285
-2.58 2.599 0.414
-2.342 2.621 0.339
-2.115 2.686 0.254
-1.907 2.79 0.161
-1.724 2.932 0.063
-1.573 3.105 -0.037
-2.495 2.657 0.67
-2.262 2.676 0.579
-2.038 2.738 0.485
-1.83 2.843 0.392
-1.645 2.986 0.302
-1.488 3.163 0.22
-2.727 2.643 0.859
-2.347 2.709 0.875
-2.56 2.696 1.049
-2.205 2.807 1.067
-2.408 2.794 1.233
-2.074 2.947 1.24
-2.276 2.934 1.405
-1.959 3.124 1.389
-2.167 3.111 1.559
-1.863 3.333 1.507
-2.087 3.319 1.689
-2.925 2.572 1.071
-2.744 2.631 1.244
-2.583 2.732 1.419
-2.449 2.873 1.59
-2.347 3.048 1.75
-2.279 3.251 1.894
-3.081 2.451 1.295
-2.887 2.519 1.452
-2.72 2.625 1.617
-2.585 2.767 1.786
-2.487 2.938 1.952
-2.43 3.133 2.111
-3.186 2.284 1.521
-2.983 2.365 1.659
-2.812 2.479 1.815
-2.676 2.621 1.982
-2.581 2.787 2.155
-2.53 2.972 2.328
-3.324 2.06 1.667
-3.023 2.305 1.712
-3.16 2.085 1.856
-2.888 2.359 1.917
-3.027 2.135 2.064
-2.785 2.444 2.131
-2.93 2.21 2.284
-2.717 2.558 2.345
-2.872 2.307 2.509
-3.419 1.801 1.788
-3.253 1.829 1.975
-3.122 1.876 2.185
-3.029 1.939 2.41
-2.979 2.017 2.644
-3.531 1.499 1.816
-3.277 1.754 2.004
-3.38 1.477 2.029
-3.171 1.729 2.243
-3.269 1.465 2.268
-3.106 1.727 2.498
-3.203 1.466 2.522
-3.084 1.749 2.759
-3.185 1.478 2.784
-3.107 1.793 3.017
-3.215 1.501 3.044
-3.567 1.179 1.827
-3.413 1.182 2.04
-3.3 1.185 2.277
-3.235 1.188 2.532
-3.217 1.19 2.794
-3.25 1.192 3.055
-3.525 0.859 1.821
-3.374 0.888 2.034
-3.264 0.905 2.272
-3.198 0.91 2.527
-3.18 0.902 2.789
-3.209 0.883 3.049
-3.408 0.559 1.798
-3.266 0.612 2.013
-3.161 0.643 2.252
-3.096 0.65 2.507
-3.074 0.633 2.768
-3.095 0.593 3.027
-3.242 0.46 1.931
-3.237 0.217 1.727
-3.105 0.348 2.085
-3.1 0.088 1.867
-2.97 0.105 2.152
-3.043 0.433 2.309
-2.917 0.208 2.372
-3.02 0.504 2.546
-2.901 0.29 2.606
-3.038 0.558 2.788
-2.922 0.349 2.846
-2.978 0.383 3.085
-2.901 -0.116 2.123
-3.023 -0.132 1.856
-2.865 -0.346 2.113
-2.719 -0.541 2.278
-2.805 -0.172 2.286
-2.67 -0.352 2.438
-2.787 -0.007 2.475
-2.658 -0.179 2.621
-2.811 0.144 2.676
-2.682 -0.027 2.821
-2.875 0.275 2.882
-2.743 0.099 3.031
-2.837 0.195 3.245
-2.52 -0.7 2.425
-2.486 -0.5 2.574
-2.482 -0.32 2.751
-2.508 -0.167 2.95
-2.563 -0.046 3.164
-2.645 0.041 3.387
-2.507 -0.916 2.313
-2.309 -0.792 2.616
-2.297 -0.999 2.509
-2.148 -0.9 2.844
-2.136 -1.107 2.737
-2.044 -1.018 3.098
-2.032 -1.236 2.986
-2.003 -1.142 3.367
-1.989 -1.379 3.245
-2.46 -1.117 2.184
-2.251 -1.192 2.386
-2.09 -1.3 2.613
-1.984 -1.439 2.855
-1.937 -1.6 3.103
-2.379 -1.297 2.041
-2.174 -1.364 2.248
-2.013 -1.473 2.475
-1.903 -1.62 2.711
-1.848 -1.797 2.945
-2.268 -1.45 1.888
-2.068 -1.51 2.101
-1.906 -1.62 2.328
-1.791 -1.774 2.557
-1.726 -1.965 2.777
-2.129 -1.572 1.729
-1.935 -1.627 1.95
-1.773 -1.737 2.176
-1.651 -1.897 2.397
-1.574 -2.099 2.603
-1.967 -1.659 1.57
-1.78 -1.711 1.797
-1.617 -1.821 2.023
-1.487 -1.985 2.236
-1.396 -2.195 2.428
-1.786 -1.709 1.415
-1.606 -1.759 1.649
-1.443 -1.869 1.874
-1.305 -2.036 2.08
-1.197 -2.25 2.258
-1.592 -1.721 1.268
-1.42 -1.77 1.508
-1.257 -1.88 1.733
-1.109 -2.047 1.932
-0.984 -2.263 2.097
-1.82 -1.681 1.103
-1.446 -1.732 1.052
-1.662 -1.694 0.895
-1.304 -1.791 0.841
-1.518 -1.754 0.686
-1.173 -1.896 0.641
-1.391 -1.858 0.482
-1.057 -2.044 0.459
-1.288 -2.004 0.292
-0.96 -2.23 0.303
-1.211 -2.186 0.121
-2.026 -1.588 0.931
-1.858 -1.605 0.731
-1.711 -1.666 0.524
-1.589 -1.769 0.318
-1.497 -1.91 0.118
-1.437 -2.084 -0.068
-2.203 -1.444 0.759
-2.026 -1.469 0.568
-1.876 -1.532 0.364
-1.758 -1.632 0.154
-1.675 -1.765 -0.055
-1.631 -1.926 -0.256
-2.342 -1.257 0.596
-2.158 -1.291 0.413
-2.006 -1.357 0.211
-1.891 -1.453 -0.002
-1.816 -1.576 -0.22
-1.784 -1.721 -0.435
-2.438 -1.034 0.448
-2.25 -1.079 0.272
-2.096 -1.148 0.073
-1.982 -1.24 -0.144
-1.913 -1.35 -0.37
-1.889 -1.476 -0.598
-2.487 -0.785 0.321
-2.296 -0.842 0.151
-2.142 -0.915 -0.046
-2.029 -1.001 -0.266
-1.962 -1.098 -0.499
-1.943 -1.202 -0.738
-2.342 -0.708 0.122
-2.401 -0.593 0.121
-2.231 -0.652 -0.104
-2.289 -0.537 -0.105
-2.157 -0.617 -0.348
-2.217 -0.5 -0.349
-2.123 -0.606 -0.604
-2.187 -0.482 -0.604
-2.131 -0.618 -0.861
-2.114 -0.682 -1.181
-2.003 -0.9 -0.803
-1.987 -0.962 -1.114
-1.927 -1.264 -1.052
-2.312 -0.441 -1.376
-2.242 -0.501 -1.651
-2.159 -0.616 -1.296
-2.088 -0.678 -1.575
-2.042 -0.816 -1.214
-1.967 -0.881 -1.508
-1.964 -1.034 -1.131
-1.882 -1.105 -1.451
-1.837 -1.343 -1.406
-2.121 -0.506 -1.916
-1.966 -0.682 -1.844
-1.838 -0.886 -1.79
-1.742 -1.11 -1.758
-1.682 -1.348 -1.746
-2.018 -0.367 -2.203
-1.864 -0.768 -1.888
-1.729 -0.586 -2.265
-1.939 -0.122 -2.418
-1.625 -0.265 -2.547
-1.897 0.192 -2.527
-1.57 0.147 -2.691
-1.956 0.421 -2.508
-1.686 0.252 -2.633
-1.746 0.487 -2.613
-1.495 0.306 -2.776
-1.559 0.554 -2.755
-1.331 0.351 -2.95
-1.401 0.622 -2.927
-1.198 0.386 -3.152
-1.276 0.687 -3.126
-1.996 0.646 -2.441
-1.787 0.717 -2.545
-1.602 0.798 -2.682
-1.448 0.887 -2.848
-1.328 0.981 -3.039
-2.015 0.855 -2.33
-1.806 0.93 -2.431
-1.623 1.024 -2.562
-1.47 1.134 -2.717
-1.352 1.255 -2.893
-2.011 1.039 -2.18
-1.803 1.119 -2.278
-1.619 1.224 -2.399
-1.466 1.351 -2.54
-1.348 1.496 -2.696
-2.106 1.164 -1.908
-1.72 1.257 -2.235
-1.844 1.421 -1.879
-1.668 1.465 -2.085
-1.505 1.361 -2.45
-1.453 1.565 -2.303
-1.296 1.704 -2.546
-1.587 1.653 -1.922
-1.374 1.749 -2.143
-1.215 1.892 -2.383
-1.479 1.817 -1.75
-1.268 1.91 -1.974
-1.107 2.057 -2.211
-1.659 1.742 -1.594
-1.4 1.97 -1.572
-1.568 1.9 -1.426
-1.346 2.153 -1.415
-1.507 2.086 -1.275
-1.319 2.36 -1.282
-1.477 2.294 -1.144
-1.319 2.584 -1.178
-1.48 2.517 -1.038
-1.71 1.818 -1.26
-1.642 2.007 -1.116
-1.61 2.216 -0.988
-1.091 2.821 -1.245
-1.213 2.442 -1.345
-0.993 2.671 -1.41
-1.137 2.315 -1.538
-0.918 2.543 -1.602
-1.094 2.207 -1.751
-0.869 2.441 -1.817
-1.084 2.12 -1.977
-0.846 2.366 -2.048
-0.852 2.322 -2.287
-0.816 3.013 -1.267
-0.727 2.857 -1.431
-0.654 2.728 -1.624
-0.597 2.63 -1.839
-0.56 2.566 -2.071
-0.543 2.537 -2.312
-0.463 3.323 -1.084
-0.605 2.955 -1.416
-0.333 3.194 -1.275
-0.416 2.926 -1.599
-0.21 3.106 -1.492
-0.256 2.926 -1.811
-0.1 3.064 -1.729
-0.131 2.956 -2.042
-0.005 3.067 -1.976
-0.046 3.015 -2.286
0.07 3.117 -2.225
-0.002 3.1 -2.533
0.124 3.211 -2.467
-0.003 3.208 -2.774
0.153 3.346 -2.693
-0.048 3.337 -3.001
0.158 3.517 -2.895
0.018 3.374 -0.943
0.038 3.233 -1.166
0.07 3.136 -1.41
0.114 3.086 -1.667
0.167 3.085 -1.926
0.229 3.134 -2.179
0.296 3.229 -2.416
0.367 3.368 -2.63
0.438 3.547 -2.812
0.466 3.148 -0.891
0.383 3.059 -1.126
0.331 3.005 -1.38
0.312 2.986 -1.644
0.328 3.005 -1.907
0.376 3.059 -2.162
0.456 3.148 -2.398
0.565 3.268 -2.607
0.699 3.415 -2.782
0.665 3.048 -0.756
0.51 2.987 -1.068
0.703 2.89 -0.938
0.578 2.858 -1.262
0.769 2.761 -1.133
0.665 2.763 -1.468
0.862 2.664 -1.335
0.771 2.706 -1.68
0.978 2.602 -1.54
0.892 2.689 -1.891
1.115 2.576 -1.739
0.833 2.913 -0.61
0.865 2.76 -0.797
0.931 2.631 -0.992
1.028 2.531 -1.191
1.153 2.461 -1.388
1.303 2.425 -1.576
0.965 2.747 -0.458
0.993 2.6 -0.65
1.058 2.472 -0.846
1.158 2.368 -1.041
1.29 2.289 -1.23
1.451 2.24 -1.405
1.057 2.557 -0.305
1.081 2.416 -0.502
1.146 2.289 -0.699
1.248 2.18 -0.891
1.385 2.092 -1.071
1.553 2.026 -1.234
1.04 2.677 -0.058
1.165 2.316 -0.174
1.149 2.431 0.062
1.328 2.1 -0.057
1.312 2.215 0.179
1.539 1.918 0.039
1.523 2.038 0.286
0.979 2.767 0.195
1.091 2.517 0.304
1.254 2.301 0.421
1.462 2.128 0.539
0.877 2.824 0.444
0.993 2.571 0.542
1.156 2.355 0.659
1.36 2.185 0.788
0.737 2.845 0.68
0.859 2.592 0.768
1.023 2.375 0.884
1.22 2.206 1.024
0.406 3.093 0.833
0.703 2.695 0.902
0.398 2.923 1.043
0.71 2.572 1.142
0.419 2.789 1.277
0.756 2.48 1.392
[...]
CELL_DATA 5784
SCALARS cell_data_0 double
LOOKUP_TABLE default
1.30270644421e-05
1.01647726398e-05
1.05874803036e-05
1.00613546884e-05
1.78099810271e-05
2.59986851986e-06
5.79776399757e-06
7.22436857818e-06
8.873099643e-06
4.03464546634e-06
3.71998314435e-06
1.07793700434e-06
4.55821177091e-06
4.3237053926e-06
5.03505663103e-06
3.40272597439e-07
6.09281875833e-07
3.03351908667e-06
4.19648712413e-07
2.26697190956e-06
4.34292616621e-07
4.39975787191e-07
1.48275814527e-06
4.74349033348e-06
8.76867761776e-07
1.07784911133e-06
1.27647693087e-06
6.7741984753e-06
8.21251636244e-06
7.35225610473e-06
7.62820199489e-07
1.14423294819e-07
5.19529275744e-06
8.08960558236e-06
1.31572823358e-05
2.66175961171e-06
2.2643187749e-05
3.42977724681e-05
4.03208678963e-05
4.76695007496e-05
5.23562317587e-05
6.32852651122e-05
7.68066881376e-05
8.48246473671e-05
0.000100546940858
9.14912046058e-05
3.5248093738e-05
2.50204044273e-05
2.60142931751e-05
2.7742367157e-05
1.05107266285e-05
2.10134973944e-05
7.27675067261e-06
7.24558978844e-06
1.94620366073e-06
4.54101452879e-06
1.38151637856e-05
1.95670636578e-05
2.46058025067e-05
2.19175246041e-05
2.28226474625e-05
1.97936492336e-05
1.66353357935e-05
1.14029467764e-05
3.77837148489e-06
2.86891307245e-07
1.22239687872e-05
1.82837452224e-05
2.03425234381e-05
1.81936699255e-05
1.83722332501e-05
1.73785699601e-05
1.20135398432e-05
6.03909445335e-06
3.12001722935e-06
5.4511386627e-06
1.1365936932e-05
1.55049779387e-05
1.63987488276e-05
1.70137444181e-05
1.52014105279e-05
1.6509487965e-05
9.90159695674e-06
3.64305475932e-06
9.40124519084e-07
1.08695551662e-05
8.803275408e-06
1.5864046594e-05
1.76548809825e-05
1.47601990317e-05
1.34916894577e-05
1.28782767296e-05
7.69694027075e-06
1.44650044268e-06
3.09789477632e-06
1.6284967183e-05
9.14753510943e-06
1.72950963567e-05
1.73389471569e-05
1.24692729993e-05
1.21109132765e-05
1.09517842532e-05
6.84426825272e-06
7.25077230371e-07
7.97359898914e-06
2.13309833834e-05
3.07555019119e-06
1.2499463645e-06
1.31380252768e-05
2.50926630483e-06
9.26709414405e-06
9.34853330408e-06
5.89340772438e-06
3.12980301049e-06
9.46777225985e-06
1.52307036507e-05
1.02703352071e-05
1.68961485549e-06
2.3750194161e-05
1.10614560344e-05
1.36967109725e-05
1.50562585401e-05
1.19540919263e-05
9.01383103578e-06
7.19086027387e-06
4.8024348933e-06
2.27659677982e-06
1.42417576842e-05
1.170139943e-05
1.75128119823e-05
7.41277293462e-06
1.87893691372e-05
8.41385831241e-06
1.59520769631e-05
7.24512678714e-06
8.98002414515e-06
9.17009976886e-06
1.49316482342e-05
1.82993063966e-05
1.48979719678e-05
1.77619990472e-05
1.14485476272e-05
1.29460439096e-05
1.43647510111e-05
1.22086765479e-05
7.40590719833e-06
6.97465419041e-06
1.15837294575e-05
1.48436672366e-05
1.03652583587e-05
1.23204375111e-05
8.84602709064e-06
1.18651811521e-05
7.02018486422e-06
9.96424642254e-06
3.24378198341e-06
5.74353575013e-06
8.81039486567e-06
1.13251275323e-05
7.24569963971e-06
8.78543134673e-06
6.09960250515e-06
6.48006744172e-06
3.42227542797e-06
3.6971667677e-06
1.14781679499e-06
5.56923896607e-06
4.74992936974e-06
5.95156361988e-06
1.025157939e-06
4.38874271889e-06
1.60593546378e-08
3.44146054823e-06
1.87409681607e-07
1.39583231853e-06
3.63976121212e-07
2.96984285479e-06
1.03074656025e-05
1.10135295189e-05
8.29401979716e-06
4.91044896626e-06
5.20318673774e-06
3.59686233515e-06
1.96689019055e-06
8.57261368124e-07
1.55801529444e-06
7.20938468882e-06
9.01955025337e-06
6.59516645911e-06
4.00462289881e-06
5.08532996261e-06
1.46275565515e-06
2.01505853153e-06
1.27430468472e-06
1.08997324224e-06
2.13126672065e-06
6.97542002878e-06
4.96313455173e-06
6.72117785637e-06
3.45921518635e-06
3.75784399395e-06
5.24128167409e-07
9.82587160942e-07
3.22825719726e-06
1.86524544447e-06
2.86158645648e-06
2.36053819126e-07
4.91451589598e-06
2.35937578892e-06
1.97170861882e-06
2.28446841683e-07
6.91450063235e-07
2.1555172742e-06
5.7107044003e-06
5.2124707512e-06
3.6770189784e-06
9.6859720441e-06
5.65348111948e-06
1.23811383946e-05
4.0716900712e-06
5.37662911571e-06
4.99965854156e-07
5.82926075049e-06
2.26874376253e-07
2.4770639439e-06
6.57486841796e-06
4.28135577554e-07
8.29952997314e-06
1.39709813111e-06
4.02260460862e-06
1.45052940455e-06
2.83111134411e-06
1.08089043076e-05
5.32461495503e-06
7.84294822268e-06
3.158206362e-06
1.81604072253e-06
9.29619192709e-07
1.74934369981e-06
5.06335750774e-06
1.02918426775e-06
2.66234575282e-06
2.21980925584e-06
8.70630319902e-07
2.50427593917e-06
1.30034473836e-06
2.24235938644e-07
4.20587764476e-06
3.98237158048e-06
7.92815863399e-06
6.7030493491e-06
5.08602447776e-06
3.51645779646e-07
1.74806059455e-06
1.3247748202e-06
4.75301520728e-06
4.24194116618e-06
8.10207754739e-06
8.14913723698e-06
1.19533897457e-05
9.25784910958e-06
7.11869982249e-06
3.21046545394e-06
6.41480435083e-06
4.54935717887e-06
2.50519038855e-06
7.14784818249e-06
6.70447696497e-06
1.20342159672e-05
1.85501179755e-05
1.30036673653e-05
1.70049960755e-05
2.25122444191e-06
5.37926119312e-06
4.21468578001e-06
7.42949835523e-06
2.0040826134e-06
2.34326881678e-06
2.47811848927e-06
4.07487524955e-06
3.17394020717e-06
1.89735537297e-05
3.73104310232e-06
1.58946213227e-05
2.80573982042e-06
4.94373860345e-06
6.82226759079e-06
4.03356301769e-06
2.84176359777e-06
1.1655013133e-05
5.63473528942e-06
1.62588649716e-05
9.9631464864e-06
2.1625958178e-05
6.2046195474e-06
2.027632399e-05
1.80090173502e-06
1.15932002876e-05
8.6679663987e-06
1.10287363315e-05
2.27314884608e-05
3.12506279225e-05
2.675740451e-05
2.55486429612e-05
2.61350552566e-05
2.07254571113e-05
2.3153163053e-05
8.49418534314e-06
1.27227456469e-06
4.80648771142e-05
1.55332912116e-05
4.12339714402e-05
1.90826052487e-05
3.55260905493e-05
2.28294958207e-05
3.16975769355e-05
1.59490422261e-05
4.7960991017e-05
2.86999118758e-05
5.14281366334e-05
1.61696245979e-05
9.26605708244e-06
8.35486170242e-06
3.01035509036e-05
1.37807853248e-05
4.22520747124e-05
3.089079018e-05
3.60572732983e-05
1.97338758094e-05
6.22200427133e-06
1.16343760102e-05
1.1784550393e-05
1.25927270179e-05
3.20579567853e-05
2.2283664571e-05
2.91092227427e-05
1.24960024414e-05
1.55132752261e-06
5.3788420895e-06
7.17594420757e-06
1.23434971185e-05
2.33142732463e-05
1.76220527851e-05
1.63107883068e-05
6.36885223851e-06
4.33757524123e-06
4.59628375339e-07
7.17453378393e-06
7.99969286626e-06
1.51029613343e-05
1.08598750237e-05
5.74666956211e-06
1.38189315022e-06
4.03365746349e-06
4.82744106985e-06
5.82848302592e-06
4.12714281763e-06
7.94999671462e-06
5.55420143556e-06
1.74375347319e-06
1.58829377869e-07
1.03777221528e-05
5.5356865646e-06
6.39133823349e-06
3.40323821283e-06
4.95687900629e-06
6.30823616194e-07
4.12807032143e-06
6.23947609382e-06
9.45486711635e-06
9.58791835689e-06
7.13921701186e-07
3.06032192394e-06
1.83599010557e-05
9.74816603422e-06
1.28533299893e-05
3.80188082054e-06
8.97883085115e-06
8.716136513e-06
5.71015432025e-06
1.00432500053e-05
3.81568567376e-06
1.21458000608e-05
1.57751682666e-05
1.51867515264e-05
1.26360953385e-05
9.23380432526e-06
3.34755802126e-06
5.75355194144e-06
2.06997750499e-06
3.05576403836e-06
3.23205409539e-06
1.18432363982e-05
1.26804545335e-05
1.19268940401e-05
8.66831197089e-06
6.21937715549e-06
4.20511496562e-06
3.28931162454e-06
5.18067500146e-06
3.70248402308e-06
4.99856246779e-06
9.4947576463e-06
9.05430262036e-06
9.80524938151e-06
5.998262188e-06
3.42099525474e-06
1.69313922622e-07
2.22688216177e-06
9.03707748565e-06
6.52635856686e-06
8.2063383193e-06
6.68804386583e-06
5.9311036342e-06
8.77802048373e-06
1.34647106299e-06
1.20428617116e-06
3.31619063489e-06
4.66569857323e-06
1.20941230262e-05
1.02603790021e-05
1.54706597692e-05
1.45204819711e-06
3.1932428893e-06
1.50856662669e-06
4.99956623209e-06
3.62683156153e-06
1.11726396925e-05
1.22713900559e-05
1.71211686495e-05
1.60293250356e-05
3.90372968753e-06
6.8829261681e-06
1.73572112371e-05
1.10845184665e-05
6.77859412236e-06
1.58818939564e-05
2.03037049156e-05
1.86573640949e-05
4.03315414578e-06
2.1983313316e-05
2.07195915985e-05
5.99404750741e-06
6.93609440572e-05
1.56585184838e-05
4.56173635146e-05
6.29036323446e-05
2.41857403798e-06
2.43093267922e-05
1.34945077671e-05
5.86832702856e-05
1.21903657628e-05
5.844840231e-05
7.07654734203e-06
2.05020309855e-05
7.46948379626e-07
4.68607129978e-07
2.09021692221e-05
1.62187496161e-05
6.84244178742e-05
1.99170950789e-05
6.75638248968e-05
2.40822184828e-05
1.26744993903e-05
3.3867260625e-05
6.5924644019e-06
4.71171425994e-06
1.27202627891e-05
1.73585136339e-05
6.603681081e-05
2.14478644573e-05
1.47177269789e-05
4.32404479134e-05
1.74109722182e-05
8.80696530487e-05
5.03990113809e-08
5.03844758498e-05
1.60384202537e-06
6.06864739962e-06
1.13188740377e-05
1.68545427742e-06
8.82168987588e-06
1.2245732678e-05
2.24540865429e-05
2.1693065109e-05
2.62842683834e-05
1.69458042261e-05
1.71572681027e-05
8.16530423434e-06
1.11265725816e-06
1.94729729148e-06
1.0659810795e-05
1.40315189263e-05
1.17099879081e-05
1.31633988582e-05
2.40016307561e-05
6.2784786177e-06
5.65628265786e-05
2.28890816628e-05
0.000112569379357
2.197764833e-05
5.45594005579e-05
5.82019013202e-05
3.24807350556e-05
2.01564230871e-05
7.36267460198e-06
7.84031287955e-05
9.23846855418e-06
0.00010134792134
1.47067393052e-06
2.85429762144e-06
5.03469605733e-06
4.00150613152e-07
2.41115842718e-05
6.97883640308e-06
1.23926314438e-05
6.17806895881e-06
3.74956513554e-06
6.57408529825e-06
3.83332224084e-06
1.13858037236e-05
4.24006280817e-06
1.10450299671e-05
5.94655843133e-06
5.41358422351e-06
7.34823354152e-06
2.26905966305e-05
7.35753937622e-06
2.96488300764e-06
1.6312869753e-05
5.32761787556e-06
2.25152959376e-06
9.83658568352e-06
1.45790870493e-06
2.4337631056e-05
3.18434130549e-05
3.89235693161e-05
3.15950769036e-05
2.67283566331e-05
3.18022524317e-05
5.79082021382e-05
9.03603814314e-06
8.29209620322e-06
1.67270983944e-05
9.86166779938e-06
7.72312560206e-06
1.70166937974e-05
1.13806605469e-05
2.07133003165e-05
7.13985565609e-06
1.12242296012e-05
8.44741817924e-06
1.76433268823e-06
5.64228994666e-06
5.1221733485e-05
5.69472878906e-05
4.60220651496e-05
6.10014556932e-05
4.00681557198e-05
5.96822064885e-05
3.85240815214e-05
5.82543013293e-05
3.95353107782e-05
6.11360271119e-05
2.23021707232e-05
8.05750867301e-05
3.81470904601e-05
6.52644595217e-05
5.66880844045e-05
3.00776360053e-05
4.54043160773e-05
2.56583775404e-05
5.60927194878e-05
3.26331932346e-05
6.02970544236e-05
4.23977073966e-05
6.54287492441e-05
4.19857935303e-05
6.00369483444e-05
4.42922533006e-05
6.88606966426e-05
6.03909120463e-05
4.65462635616e-05
5.05318829371e-05
2.05814172735e-05
0.000110551163313
7.35701360932e-06
5.96314791448e-06
1.43313420669e-05
1.17958202909e-05
2.73797901633e-05
2.15846413007e-05
3.78399679968e-05
2.23253230881e-05
3.67971327551e-05
3.72000697397e-05
4.26296730548e-05
4.61047695538e-05
2.28374752547e-05
2.55015072167e-05
6.65264077247e-05
9.28130788455e-05
1.07630996392e-05
2.85678956017e-05
2.87060270636e-05
3.23794570416e-05
1.56791645465e-05
3.83167677348e-05
4.46940992526e-05
4.28665801606e-05
5.25534789191e-05
2.32617073197e-05
1.00531313034e-05
2.67536475414e-05
2.72088216005e-05
3.1236240122e-05
3.03960421265e-05
2.9810506322e-05
3.18303743389e-05
3.01112434751e-05
3.11530637152e-05
8.73966711783e-06
1.46699346813e-05
2.26443031002e-05
2.5748224922e-05
2.74862876549e-05
3.13719969254e-05
2.66092057309e-05
3.4212033854e-05
2.7549017182e-05
3.11762143945e-05
1.34533815057e-07
1.01357830851e-05
1.55087801955e-05
2.03602151502e-05
1.42490555272e-05
2.22742218546e-05
9.96716874065e-06
1.35189898068e-05
5.9142111254e-06
7.99671781864e-06
7.82422811659e-06
2.9361322829e-06
2.1520859809e-05
2.28142529952e-05
1.27696733145e-05
4.66945230251e-06
3.33437993597e-06
1.69360148557e-05
1.71614490016e-05
1.43701030172e-05
6.99062620047e-06
5.30227088682e-06
2.04875521486e-06
9.1742516812e-06
1.28856269441e-05
1.29156094067e-05
4.9512328268e-06
3.00311275768e-06
8.52586203957e-07
5.72697453207e-06
3.69049817606e-06
4.46438024466e-06
6.01344418813e-06
1.03200243659e-06
5.0761110519e-06
1.06674416456e-05
1.02896281188e-05
1.25643422773e-05
3.6162407782e-06
5.73854860007e-06
4.5166622877e-06
1.14819820611e-05
1.80589709288e-05
1.50413506355e-05
3.48816595383e-05
3.55757534613e-05
3.45100456152e-05
5.84256084216e-06
7.43435422582e-06
1.52512654784e-06
5.43069141521e-06
4.32581816498e-06
6.40985098432e-06
1.64741075885e-06
1.18807823398e-06
2.09930814047e-07
5.13157516766e-07
5.62010350811e-06
6.12020215338e-06
6.92132511813e-06
2.0098190904e-06
9.50208057942e-06
7.12450974269e-06
6.76128131151e-07
1.86914952271e-06
2.09726844344e-07
2.12369237434e-06
3.47207856751e-06
3.29134303455e-06
3.00720785424e-06
1.1364235336e-06
3.22165427303e-06
3.45654344432e-06
3.25718184814e-06
3.3696597348e-06
3.14725001847e-06
5.13254990901e-06
2.99225125643e-06
2.04579522992e-06
1.39305267023e-06
3.61078159282e-07
8.8091371583e-07
3.90331823391e-06
5.46335304082e-06
4.46690004019e-06
4.25687096803e-06
3.57896564116e-06
1.16524706279e-06
4.21646171208e-07
3.03330072041e-07
1.95743655285e-06
2.39546771037e-06
3.29356570422e-06
2.40270162992e-06
4.98415776532e-06
5.97518894346e-06
5.04462868069e-06
1.25404869779e-06
7.77109326239e-07
2.0535393582e-06
3.00055125899e-06
4.05698327756e-06
5.39541344369e-06
5.66985614562e-06
9.22434372832e-06
8.08716936972e-06
7.76015645662e-06
1.15522470168e-06
2.5913888036e-06
3.75718829365e-06
5.18224358846e-06
5.89501508946e-06
6.73033806747e-06
7.84022711699e-06
1.0406099215e-05
9.81263513447e-06
6.82399235146e-06
2.48118597984e-06
2.37554969217e-06
5.11358496242e-06
3.57047220253e-06
7.21050546137e-06
5.08436427999e-06
9.28602813958e-06
7.20550225061e-06
9.40038229847e-06
2.762981185e-06
1.43236523861e-06
1.33129792827e-05
1.32289306362e-05
1.59566786933e-05
1.03408457532e-05
1.87068894692e-05
6.53143538122e-06
1.55458818083e-05
8.57630678486e-06
1.3929871861e-05
1.42367559639e-05
1.76785653443e-05
1.4606750089e-05
2.20117830484e-05
1.35254798679e-05
1.81527163547e-05
7.20675706796e-06
1.40017880797e-05
1.52408448597e-05
1.92311069721e-05
1.48688196247e-05
2.63807398793e-05
1.87418171523e-05
2.45312479071e-05
6.46282293975e-06
1.15777982724e-05
1.46555213736e-05
1.7616866326e-05
1.64692386769e-05
2.66101029946e-05
1.91377154973e-05
1.23293929466e-05
6.05722644197e-06
1.08306182676e-05
1.22875134062e-05
1.42228276529e-05
1.45351104351e-05
2.15076255107e-05
1.62078469525e-05
1.8123205746e-05
5.94339543249e-06
7.58951726777e-06
9.35123581492e-06
1.08760613711e-05
1.06439276705e-05
1.6000852652e-05
1.17104030272e-05
1.04474489394e-05
3.93319016756e-06
7.58614760892e-07
6.7004285566e-06
4.16140583978e-06
7.0347249428e-06
6.94476008675e-06
7.27140079547e-06
8.03132951821e-07
4.44126224419e-06
2.98196882264e-06
4.18441873636e-06
9.38035433031e-07
1.50030510453e-06
8.77366427823e-07
1.73883730922e-06
8.64723324026e-08
1.09123794703e-06
3.90637692321e-07
1.2613487571e-06
1.98868858691e-07
5.50861484423e-07
1.06547123042e-06
9.72709338044e-07
4.39642722015e-07
2.61702964724e-06
7.41754118494e-07
2.03122956216e-07
1.91074422513e-06
1.16684518695e-06
3.52580183365e-07
1.48144415661e-06
9.69946197365e-06
7.04469914501e-07
7.76386887694e-07
6.43570890382e-08
1.51405278637e-05
9.23337845062e-07
1.11222272197e-06
9.39961238494e-07
1.12448879825e-05
2.95440986293e-06
7.21580225198e-08
2.24350115356e-06
5.73291440682e-06
1.31689297634e-06
8.38776153382e-07
2.63959388073e-06
3.60219848372e-06
1.57745037196e-06
2.29769588391e-06
4.32029569046e-06
1.82440725844e-06
2.41429554863e-06
7.99148140773e-06
3.99001257421e-06
4.43606104252e-06
4.02346647513e-06
6.61661086074e-06
2.5543215819e-06
2.46423453843e-06
2.67488167357e-06
5.0448412577e-06
1.21089138038e-06
2.67811428265e-06
2.5583394949e-06
2.78282188411e-06
3.17046457816e-08
1.63528823318e-06
1.89201535548e-06
9.82358235744e-07
9.47546292278e-07
1.29296867883e-06
3.2073741029e-06
1.37272006108e-06
4.11497550228e-06
9.95398933655e-07
3.16340800758e-07
6.02194607212e-07
5.65867277021e-07
8.75888357369e-08
6.14292763885e-07
1.48438844928e-07
7.06302924924e-07
3.61807091468e-07
1.19386958609e-06
2.12883474122e-07
9.85428327481e-07
8.06178161866e-07
2.78364123893e-06
3.35290204394e-07
1.62316257417e-06
1.60542212267e-06
8.93419612591e-06
5.27888468333e-08
2.3464005222e-06
1.64583655954e-06
1.40784709403e-05
2.08063360281e-06
4.49414548297e-06
2.13152047138e-06
8.68734245651e-06
1.92292511275e-06
2.74645920541e-06
2.09300968239e-06
7.6627503554e-07
2.14221906537e-06
2.64487011831e-06
2.47230683031e-06
4.37401955188e-07
2.26232593797e-06
4.01284121443e-06
3.40899118895e-06
2.58561544825e-06
6.63055973533e-06
4.91651857978e-06
3.00809473189e-06
3.06286502605e-06
3.38318206885e-07
7.56600792813e-07
1.08214770647e-06
1.7710687744e-06
1.77992838305e-06
2.37627543344e-06
8.39822915763e-07
2.39626672507e-06
6.6187283439e-06
1.8150011363e-06
3.84291294851e-06
3.00009258458e-06
6.91403718135e-07
3.26657599528e-06
2.16992833693e-06
2.12741905171e-06
7.63726649151e-06
3.57044451904e-06
8.31718229887e-06
5.94368758764e-06
3.51764869133e-06
3.54616579791e-06
2.07016659755e-06
6.03879371629e-07
1.38698043222e-06
4.86466548359e-06
4.97532268542e-06
3.16920901281e-06
1.6548426946e-06
2.24975944879e-06
5.09681289983e-06
2.83622565997e-06
4.63084559932e-06
4.66293088015e-06
2.23780479584e-06
1.99384682442e-06
3.86569212479e-06
4.11712892844e-06
5.27853340482e-07
6.96104146529e-07
6.75589555913e-06
4.31867267306e-06
1.15373358021e-05
9.59394429795e-06
4.42333134453e-06
4.21214225449e-06
4.72676079149e-06
2.77839017637e-06
1.18241860634e-06
2.83555699203e-06
1.02821998517e-05
8.67407849318e-06
1.67184282149e-05
1.44305850166e-05
8.42039553785e-06
2.54289474366e-06
4.7782443949e-06
1.8284241852e-06
2.6287879569e-07
5.50624048932e-06
1.19372951283e-05
1.41452582563e-05
2.46777973791e-05
1.99437023688e-05
1.50086268281e-05
1.08487388431e-06
5.0444527729e-06
1.60817306479e-06
1.61401317005e-06
8.48449504865e-06
1.28149023671e-05
2.09535725285e-05
3.36128123834e-05
3.05643065671e-05
2.45843046421e-05
2.47667657684e-06
9.13302932678e-06
2.81766618735e-06
2.96897033558e-06
4.65880250984e-06
1.78853841911e-05
2.11551347441e-05
5.57933719445e-05
3.63086598097e-05
2.57209056794e-05
2.63859550627e-06
9.3016619758e-06
6.26251365e-06
7.732867407e-06
4.76567380114e-06
5.03062047691e-06
3.08103322624e-05
6.15229853652e-05
4.46637116794e-05
4.08721417063e-05
1.05290732434e-06
5.00972866923e-06
7.35345405243e-06
2.03139818951e-06
8.76144161952e-07
3.74086213919e-06
2.74989040987e-06
1.23795498251e-06
2.76006512935e-07
2.26189952986e-06
1.8273842287e-06
5.80657537992e-07
1.80528770122e-06
1.72020975076e-06
6.48827636253e-07
2.09181620938e-06
1.88080485916e-06
6.68368127153e-07
2.34975194803e-06
9.13664849781e-07
9.62034397751e-07
7.45693939302e-07
5.97839802472e-07
4.43554210375e-06
2.09206830373e-06
6.78687730469e-06
4.75668580159e-06
3.49260532968e-06
3.56640952986e-06
5.63097515667e-06
7.21697802307e-06
9.15491583683e-06
8.49682992461e-06
1.18851956238e-05
9.77802410179e-06
7.3600463574e-06
8.59897066417e-06
7.61698075508e-06
1.27833087922e-05
1.31634492766e-05
1.41033062684e-05
1.74783667748e-05
1.53153891864e-05
9.93135354183e-06
4.41976701499e-07
1.22135418819e-05
2.1475352836e-05
1.9101358323e-05
2.03714675507e-05
2.05710723166e-05
2.11847678241e-05
1.71071483008e-05
1.73381798825e-05
1.34947465703e-05
3.32507700124e-05
2.25100014292e-05
2.80860576313e-05
2.90703797622e-05
2.68877357056e-05
3.09547682863e-06
5.42276939607e-06
1.39384515467e-05
4.34746341562e-05
2.29624020314e-05
3.10978232235e-05
2.47754757223e-05
3.56125015914e-05
2.15977427475e-05
1.98547046249e-06
5.8403989047e-06
4.46532525399e-05
1.53589106838e-05
3.06657250562e-05
5.48587458405e-06
3.36016537141e-05
4.93854808012e-05
3.64848956286e-05
8.32459356835e-06
3.91240265455e-05
6.90268165821e-07
2.32188066031e-05
1.0717277904e-05
1.77610106689e-05
1.21283699897e-05
5.77344390407e-07
1.0514781822e-05
1.56498248015e-05
2.06310059734e-05
6.65973106007e-06
3.3054846672e-05
7.98434246833e-06
1.82537713044e-05
2.57296261798e-06
1.5696530186e-05
5.76582532494e-06
2.69495533131e-05
1.19669812462e-05