# vtk DataFile Version 3.0
File Name: Molecule/arg/normals_  16.00.vtk
ASCII
DATASET UNSTRUCTURED_GRID
FIELD FieldData 1
TIME 1 1 double
0.0
POINTS 2894 double
-3.403 0.327 1.604
-3.452 0.202 1.348
-3.215 0.119 1.662
-3.262 -0.0 1.417
-3.073 -0.113 1.748
-3.12 -0.233 1.503
-2.981 -0.361 1.858
-3.03 -0.485 1.602
-3.45 0.103 1.078
-3.261 -0.095 1.158
-3.118 -0.328 1.244
-3.028 -0.584 1.332
-3.398 0.034 0.803
-3.211 -0.162 0.894
-3.068 -0.394 0.98
-2.976 -0.654 1.057
-3.298 -0.003 0.536
-3.114 -0.197 0.638
-2.972 -0.43 0.724
-2.876 -0.691 0.79
-3.153 -0.007 0.286
-2.976 -0.201 0.399
-2.833 -0.433 0.485
-2.731 -0.694 0.541
-2.971 0.024 0.066
-2.801 -0.171 0.187
-2.658 -0.404 0.273
-2.549 -0.664 0.32
-2.984 0.046 0.042
-2.75 -0.004 -0.09
-2.763 0.017 -0.113
-2.556 -0.072 -0.268
-2.569 -0.051 -0.29
-2.396 -0.177 -0.461
-2.409 -0.155 -0.484
-2.276 -0.316 -0.661
-2.29 -0.293 -0.686
-2.2 -0.483 -0.862
-2.216 -0.458 -0.889
-3.137 0.25 -0.093
-2.796 0.071 -0.172
-2.93 0.25 -0.291
-2.637 0.05 -0.409
-2.759 0.213 -0.517
-2.512 -0.016 -0.658
-2.63 0.141 -0.762
-2.429 -0.124 -0.909
-2.549 0.037 -1.016
-2.39 -0.269 -1.153
-2.52 -0.095 -1.268
-3.233 0.491 -0.219
-3.014 0.461 -0.401
-2.835 0.406 -0.617
-2.703 0.326 -0.859
-2.624 0.226 -1.115
-2.601 0.111 -1.376
-3.264 0.756 -0.329
-3.042 0.694 -0.497
-2.86 0.617 -0.705
-2.727 0.53 -0.943
-2.649 0.435 -1.201
-2.628 0.337 -1.469
-3.23 1.029 -0.415
-3.012 0.933 -0.573
-2.833 0.835 -0.774
-2.702 0.739 -1.01
-2.623 0.65 -1.27
-2.6 0.57 -1.544
-3.133 1.294 -0.474
-2.927 1.166 -0.625
-2.756 1.047 -0.821
-2.627 0.943 -1.055
-2.546 0.859 -1.316
-2.517 0.796 -1.594
-2.979 1.536 -0.502
-2.791 1.378 -0.649
-2.632 1.24 -0.843
-2.508 1.129 -1.076
-2.425 1.049 -1.338
-2.385 1.003 -1.617
-2.776 1.74 -0.497
-2.613 1.557 -0.645
-2.47 1.404 -0.839
-2.352 1.286 -1.072
-2.264 1.21 -1.334
-2.211 1.177 -1.613
-2.622 1.932 -0.429
-2.565 1.626 -0.624
-2.419 1.808 -0.56
-2.373 1.536 -0.795
-2.23 1.716 -0.731
-2.208 1.473 -1.002
-2.061 1.658 -0.936
-2.076 1.44 -1.237
-1.919 1.637 -1.168
-1.982 1.439 -1.492
-1.81 1.654 -1.416
-2.659 2.151 -0.265
-2.381 1.999 -0.448
-2.415 2.203 -0.295
-2.153 2.085 -0.505
-2.186 2.283 -0.357
-1.945 2.19 -0.598
-1.978 2.387 -0.45
-1.764 2.309 -0.724
-1.798 2.513 -0.571
-1.615 2.438 -0.879
-1.652 2.657 -0.715
-2.664 2.341 -0.064
-2.42 2.38 -0.107
-2.191 2.453 -0.176
-1.982 2.558 -0.269
-1.803 2.69 -0.383
-1.657 2.846 -0.514
-2.637 2.492 0.166
-2.395 2.521 0.108
-2.167 2.589 0.031
-1.958 2.694 -0.062
-1.778 2.831 -0.169
-1.63 2.998 -0.285
-2.58 2.599 0.414
-2.342 2.621 0.339
-2.115 2.686 0.254
-1.907 2.79 0.161
-1.724 2.932 0.063
-1.573 3.105 -0.037
-2.495 2.657 0.67
-2.262 2.676 0.579
-2.038 2.738 0.485
-1.83 2.843 0.392
-1.645 2.986 0.302
-1.488 3.163 0.22
-2.727 2.643 0.859
-2.347 2.709 0.875
-2.56 2.696 1.049
-2.205 2.807 1.067
-2.408 2.794 1.233
-2.074 2.947 1.24
-2.276 2.934 1.405
-1.959 3.124 1.389
-2.167 3.111 1.559
-1.863 3.333 1.507
-2.087 3.319 1.689
-2.925 2.572 1.071
-2.744 2.631 1.244
-2.583 2.732 1.419
-2.449 2.873 1.59
-2.347 3.048 1.75
-2.279 3.251 1.894
-3.081 2.451 1.295
-2.887 2.519 1.452
-2.72 2.625 1.617
-2.585 2.767 1.786
-2.487 2.938 1.952
-2.43 3.133 2.111
-3.186 2.284 1.521
-2.983 2.365 1.659
-2.812 2.479 1.815
-2.676 2.621 1.982
-2.581 2.787 2.155
-2.53 2.972 2.328
-3.324 2.06 1.667
-3.023 2.305 1.712
-3.16 2.085 1.856
-2.888 2.359 1.917
-3.027 2.135 2.064
-2.785 2.444 2.131
-2.93 2.21 2.284
-2.717 2.558 2.345
-2.872 2.307 2.509
-3.419 1.801 1.788
-3.253 1.829 1.975
-3.122 1.876 2.185
-3.029 1.939 2.41
-2.979 2.017 2.644
-3.531 1.499 1.816
-3.277 1.754 2.004
-3.38 1.477 2.029
-3.171 1.729 2.243
-3.269 1.465 2.268
-3.106 1.727 2.498
-3.203 1.466 2.522
-3.084 1.749 2.759
-3.185 1.478 2.784
-3.107 1.793 3.017
-3.215 1.501 3.044
-3.567 1.179 1.827
-3.413 1.182 2.04
-3.3 1.185 2.277
-3.235 1.188 2.532
-3.217 1.19 2.794
-3.25 1.192 3.055
-3.525 0.859 1.821
-3.374 0.888 2.034
-3.264 0.905 2.272
-3.198 0.91 2.527
-3.18 0.902 2.789
-3.209 0.883 3.049
-3.408 0.559 1.798
-3.266 0.612 2.013
-3.161 0.643 2.252
-3.096 0.65 2.507
-3.074 0.633 2.768
-3.095 0.593 3.027
-3.242 0.46 1.931
-3.237 0.217 1.727
-3.105 0.348 2.085
-3.1 0.088 1.867
-2.97 0.105 2.152
-3.043 0.433 2.309
-2.917 0.208 2.372
-3.02 0.504 2.546
-2.901 0.29 2.606
-3.038 0.558 2.788
-2.922 0.349 2.846
-2.978 0.383 3.085
-2.901 -0.116 2.123
-3.023 -0.132 1.856
-2.865 -0.346 2.113
-2.719 -0.541 2.278
-2.805 -0.172 2.286
-2.67 -0.352 2.438
-2.787 -0.007 2.475
-2.658 -0.179 2.621
-2.811 0.144 2.676
-2.682 -0.027 2.821
-2.875 0.275 2.882
-2.743 0.099 3.031
-2.837 0.195 3.245
-2.52 -0.7 2.425
-2.486 -0.5 2.574
-2.482 -0.32 2.751
-2.508 -0.167 2.95
-2.563 -0.046 3.164
-2.645 0.041 3.387
-2.507 -0.916 2.313
-2.309 -0.792 2.616
-2.297 -0.999 2.509
-2.148 -0.9 2.844
-2.136 -1.107 2.737
-2.044 -1.018 3.098
-2.032 -1.236 2.986
-2.003 -1.142 3.367
-1.989 -1.379 3.245
-2.46 -1.117 2.184
-2.251 -1.192 2.386
-2.09 -1.3 2.613
-1.984 -1.439 2.855
-1.937 -1.6 3.103
-2.379 -1.297 2.041
-2.174 -1.364 2.248
-2.013 -1.473 2.475
-1.903 -1.62 2.711
-1.848 -1.797 2.945
-2.268 -1.45 1.888
-2.068 -1.51 2.101
-1.906 -1.62 2.328
-1.791 -1.774 2.557
-1.726 -1.965 2.777
-2.129 -1.572 1.729
-1.935 -1.627 1.95
-1.773 -1.737 2.176
-1.651 -1.897 2.397
-1.574 -2.099 2.603
-1.967 -1.659 1.57
-1.78 -1.711 1.797
-1.617 -1.821 2.023
-1.487 -1.985 2.236
-1.396 -2.195 2.428
-1.786 -1.709 1.415
-1.606 -1.759 1.649
-1.443 -1.869 1.874
-1.305 -2.036 2.08
-1.197 -2.25 2.258
-1.592 -1.721 1.268
-1.42 -1.77 1.508
-1.257 -1.88 1.733
-1.109 -2.047 1.932
-0.984 -2.263 2.097
-1.82 -1.681 1.103
-1.446 -1.732 1.052
-1.662 -1.694 0.895
-1.304 -1.791 0.841
-1.518 -1.754 0.686
-1.173 -1.896 0.641
-1.391 -1.858 0.482
-1.057 -2.044 0.459
-1.288 -2.004 0.292
-0.96 -2.23 0.303
-1.211 -2.186 0.121
-2.026 -1.588 0.931
-1.858 -1.605 0.731
-1.711 -1.666 0.524
-1.589 -1.769 0.318
-1.497 -1.91 0.118
-1.437 -2.084 -0.068
-2.203 -1.444 0.759
-2.026 -1.469 0.568
-1.876 -1.532 0.364
-1.758 -1.632 0.154
-1.675 -1.765 -0.055
-1.631 -1.926 -0.256
-2.342 -1.257 0.596
-2.158 -1.291 0.413
-2.006 -1.357 0.211
-1.891 -1.453 -0.002
-1.816 -1.576 -0.22
-1.784 -1.721 -0.435
-2.438 -1.034 0.448
-2.25 -1.079 0.272
-2.096 -1.148 0.073
-1.982 -1.24 -0.144
-1.913 -1.35 -0.37
-1.889 -1.476 -0.598
-2.487 -0.785 0.321
-2.296 -0.842 0.151
-2.142 -0.915 -0.046
-2.029 -1.001 -0.266
-1.962 -1.098 -0.499
-1.943 -1.202 -0.738
-2.342 -0.708 0.122
-2.401 -0.593 0.121
-2.231 -0.652 -0.104
-2.289 -0.537 -0.105
-2.157 -0.617 -0.348
-2.217 -0.5 -0.349
-2.123 -0.606 -0.604
-2.187 -0.482 -0.604
-2.131 -0.618 -0.861
-2.114 -0.682 -1.181
-2.003 -0.9 -0.803
-1.987 -0.962 -1.114
-1.927 -1.264 -1.052
-2.312 -0.441 -1.376
-2.242 -0.501 -1.651
-2.159 -0.616 -1.296
-2.088 -0.678 -1.575
-2.042 -0.816 -1.214
-1.967 -0.881 -1.508
-1.964 -1.034 -1.131
-1.882 -1.105 -1.451
-1.837 -1.343 -1.406
-2.121 -0.506 -1.916
-1.966 -0.682 -1.844
-1.838 -0.886 -1.79
-1.742 -1.11 -1.758
-1.682 -1.348 -1.746
-2.018 -0.367 -2.203
-1.864 -0.768 -1.888
-1.729 -0.586 -2.265
-1.939 -0.122 -2.418
-1.625 -0.265 -2.547
-1.897 0.192 -2.527
-1.57 0.147 -2.691
-1.956 0.421 -2.508
-1.686 0.252 -2.633
-1.746 0.487 -2.613
-1.495 0.306 -2.776
-1.559 0.554 -2.755
-1.331 0.351 -2.95
-1.401 0.622 -2.927
-1.198 0.386 -3.152
-1.276 0.687 -3.126
-1.996 0.646 -2.441
-1.787 0.717 -2.545
-1.602 0.798 -2.682
-1.448 0.887 -2.848
-1.328 0.981 -3.039
-2.015 0.855 -2.33
-1.806 0.93 -2.431
-1.623 1.024 -2.562
-1.47 1.134 -2.717
-1.352 1.255 -2.893
-2.011 1.039 -2.18
-1.803 1.119 -2.278
-1.619 1.224 -2.399
-1.466 1.351 -2.54
-1.348 1.496 -2.696
-2.106 1.164 -1.908
-1.72 1.257 -2.235
-1.844 1.421 -1.879
-1.668 1.465 -2.085
-1.505 1.361 -2.45
-1.453 1.565 -2.303
-1.296 1.704 -2.546
-1.587 1.653 -1.922
-1.374 1.749 -2.143
-1.215 1.892 -2.383
-1.479 1.817 -1.75
-1.268 1.91 -1.974
-1.107 2.057 -2.211
-1.659 1.742 -1.594
-1.4 1.97 -1.572
-1.568 1.9 -1.426
-1.346 2.153 -1.415
-1.507 2.086 -1.275
-1.319 2.36 -1.282
-1.477 2.294 -1.144
-1.319 2.584 -1.178
-1.48 2.517 -1.038
-1.71 1.818 -1.26
-1.642 2.007 -1.116
-1.61 2.216 -0.988
-1.091 2.821 -1.245
-1.213 2.442 -1.345
-0.993 2.671 -1.41
-1.137 2.315 -1.538
-0.918 2.543 -1.602
-1.094 2.207 -1.751
-0.869 2.441 -1.817
-1.084 2.12 -1.977
-0.846 2.366 -2.048
-0.852 2.322 -2.287
-0.816 3.013 -1.267
-0.727 2.857 -1.431
-0.654 2.728 -1.624
-0.597 2.63 -1.839
-0.56 2.566 -2.071
-0.543 2.537 -2.312
-0.463 3.323 -1.084
-0.605 2.955 -1.416
-0.333 3.194 -1.275
-0.416 2.926 -1.599
-0.21 3.106 -1.492
-0.256 2.926 -1.811
-0.1 3.064 -1.729
-0.131 2.956 -2.042
-0.005 3.067 -1.976
-0.046 3.015 -2.286
0.07 3.117 -2.225
-0.002 3.1 -2.533
0.124 3.211 -2.467
-0.003 3.208 -2.774
0.153 3.346 -2.693
-0.048 3.337 -3.001
0.158 3.517 -2.895
0.018 3.374 -0.943
0.038 3.233 -1.166
0.07 3.136 -1.41
0.114 3.086 -1.667
0.167 3.085 -1.926
0.229 3.134 -2.179
0.296 3.229 -2.416
0.367 3.368 -2.63
0.438 3.547 -2.812
0.466 3.148 -0.891
0.383 3.059 -1.126
0.331 3.005 -1.38
0.312 2.986 -1.644
0.328 3.005 -1.907
0.376 3.059 -2.162
0.456 3.148 -2.398
0.565 3.268 -2.607
0.699 3.415 -2.782
0.665 3.048 -0.756
0.51 2.987 -1.068
0.703 2.89 -0.938
0.578 2.858 -1.262
0.769 2.761 -1.133
0.665 2.763 -1.468
0.862 2.664 -1.335
0.771 2.706 -1.68
0.978 2.602 -1.54
0.892 2.689 -1.891
1.115 2.576 -1.739
0.833 2.913 -0.61
0.865 2.76 -0.797
0.931 2.631 -0.992
1.028 2.531 -1.191
1.153 2.461 -1.388
1.303 2.425 -1.576
0.965 2.747 -0.458
0.993 2.6 -0.65
1.058 2.472 -0.846
1.158 2.368 -1.041
1.29 2.289 -1.23
1.451 2.24 -1.405
1.057 2.557 -0.305
1.081 2.416 -0.502
1.146 2.289 -0.699
1.248 2.18 -0.891
1.385 2.092 -1.071
1.553 2.026 -1.234
1.04 2.677 -0.058
1.165 2.316 -0.174
1.149 2.431 0.062
1.328 2.1 -0.057
1.312 2.215 0.179
1.539 1.918 0.039
1.523 2.038 0.286
0.979 2.767 0.195
1.091 2.517 0.304
1.254 2.301 0.421
1.462 2.128 0.539
0.877 2.824 0.444
0.993 2.571 0.542
1.156 2.355 0.659
1.36 2.185 0.788
0.737 2.845 0.68
0.859 2.592 0.768
1.023 2.375 0.884
1.22 2.206 1.024
0.406 3.093 0.833
0.703 2.695 0.902
0.398 2.923 1.043
0.71 2.572 1.142
0.419 2.789 1.277
0.756 2.48 1.392
[...]
POINT_DATA 2894
SCALARS point_data_0 double
LOOKUP_TABLE default
23.0582362984
14.2143077229
32.0044996826
13.525632053
16.5241854799
8.92908378886
32.384359312
39.4233258805
15.2637571586
10.8948690189
14.6338919243
26.284161481
16.7085710452
31.1492491214
19.8425459493
15.9318781349
12.2814114036
26.0393672254
35.2692018282
34.6353651991
12.3988056959
30.375289851
54.6393375893
11.7124462409
37.6448184158
12.5540676429
32.6281418787
30.6475372958
29.9299431901
15.4102078695
47.6632780109
15.3824918044
15.7436099318
16.2727241646
17.5723672422
27.6197032083
13.4625874333
25.1301680989
23.6545788875
32.4181538722
36.5206153087
10.8167925999
33.7579655499
26.268118593
10.5127720051
21.0027115432
16.8279512649
28.5457836918
36.7687978232
12.5048872062
7.42771453148
23.8995893394
18.5052477382
34.554119132
16.1537411687
51.9390939225
26.1599711302
31.0109655641
17.3116792674
27.8869875328
12.7257080337
12.2326438199
12.8016156849
31.4799105048
25.3379386727
26.8524935841
25.8730447455
10.8573241999
18.324872407
20.9979038791
20.4836001546
29.8367531952
22.3844245803
35.9801626276
25.851856143
27.2628239316
28.5002967596
26.2456078292
19.3542926346
14.8821722151
27.9986649538
17.4631178032
62.9144300563
25.2266494856
15.904887897
15.2296267293
16.9502304247
17.3657434998
10.1235693085
12.8033481309
13.978831528
15.2980463558
13.076458661
15.8941607837
14.6727147272
22.1220728641
13.8468732542
26.634319449
13.9794774929
15.5881077634
15.3490861544
14.847825768
14.8903277215
17.5765279845
21.2209835079
15.4643662899
11.7217277056
15.233042097
11.5714736092
9.39925118281
13.750768977
21.6378140601
6.34951285229
12.0549251183
32.4750199585
17.4030827594
26.9970444356
19.0852841749
16.9121357739
34.3729972681
29.1238364486
24.2131730145
13.7661844116
19.703908683
17.2969728677
14.2411687193
9.85450078561
16.2957731253
15.0964015184
19.9291181831
19.9616072012
12.9942759544
13.6958385397
19.9011037227
19.9662543324
18.4127153222
13.7668943199
19.9073330966
19.9809772052
15.1652026213
16.7856872364
19.9171770783
19.9844852382
17.0935449855
15.6824206874
19.935486804
19.9589636269
28.5990030204
21.2340778768
35.360791629
15.4741802011
17.2809804575
15.3265234657
15.3786207925
55.0639880413
57.1013614009
39.629406732
31.2538099967
12.5955947315
13.1823447676
13.8318516266
14.3947854675
21.0329977967
21.4018850646
23.3394901256
24.1894046065
23.779123978
13.3233414785
17.1022750517
21.4482001849
23.3327673876
24.2332751508
23.7907280322
30.2032019683
13.6028419109
21.4029149141
23.3414925432
24.2474982311
23.7739910732
21.7355985441
12.3663412595
21.426454144
23.3323669024
24.2179488109
23.715099017
19.8086948487
17.5077158978
21.4167041727
23.3370209028
24.1841806732
23.7975419662
12.820718078
18.8808258112
21.4391087587
23.3305765823
24.2089487895
23.8004965335
22.8797107696
29.5445525627
25.4411765661
22.2093608247
19.6757189824
10.127729974
14.9446060259
15.3456470594
15.6105197023
23.6235299425
22.5800896885
19.2537254613
20.5052313712
15.7318876352
10.4094332384
30.9169741901
18.8794279534
16.5567604799
21.4750836126
22.178578216
22.2625860173
21.6839578519
16.9316440453
15.5749550032
21.4486122194
22.205222844
22.2384817653
21.6625296184
18.128686432
15.1170714649
21.4895084947
22.1898711827
22.3138011149
21.62990016
19.7745981024
18.9079002948
21.4623663278
22.1676206293
22.2758534213
21.6161963829
14.6881379419
34.3154930735
14.7318133732
21.5008925967
19.8005536362
18.1310786261
20.2506406906
10.9913619468
16.0670947677
12.5621917825
20.1928899077
21.0680434519
21.2367886622
20.7769085744
19.9876085121
11.2533354092
20.1836928965
21.050785912
21.2663593743
20.7697540793
18.5964427613
11.6465013327
20.132688321
21.0385361719
21.2815267439
20.7784509055
11.0773129226
27.4470295917
23.3706368621
25.1141313759
24.1716240255
9.71930554735
17.5808017545
36.4960174776
8.06804573331
19.1493169177
18.94206907
18.4115439457
25.0303833213
14.7707677162
23.7863545499
20.1893439873
14.2654083095
14.888995299
15.4404486409
20.4665885081
8.38969085217
18.9065983618
19.7643675008
20.0152197785
19.4666606846
16.5838967153
13.4412670461
18.8921516238
19.8096190784
19.9558091046
19.4542003854
29.7215655774
24.5828034039
18.9056688435
19.7641624361
19.9359443467
19.4780194367
16.4303606941
21.3270394508
20.2624014634
22.953352739
26.2798150605
10.4599376251
13.8134904196
20.2535608307
21.055675577
10.7466203842
22.4794564006
27.3789257125
17.0267205599
14.236307016
14.1800545447
13.24652365
19.5629967224
19.7316421351
19.9961851351
13.8178462188
20.5085984263
21.3190228521
21.4936905652
21.0376993297
10.4137865759
22.3132866771
24.6793719236
22.7678868808
21.2758153617
22.6346805816
15.2556317458
15.9070830034
17.4932832563
23.0297098999
23.0621600732
22.0905299608
29.0288059738
19.0088485715
22.99609853
22.9956230983
22.0891077886
16.4523150383
12.2348267695
23.0746592791
23.0120512854
22.1566476125
18.1706268355
30.5335771943
23.0775042008
23.0626271452
22.1366281691
17.352494913
15.9535028929
23.056498616
23.0477509399
22.0904775821
19.6452580316
12.6501261598
23.0256454482
23.0144182883
22.1095234365
18.1060523305
16.8732687329
22.9949998543
23.0242569911
22.1201796562
17.4193275038
22.9263014417
21.3252911129
22.0760782708
11.5928331052
15.0589348189
19.7665995381
15.0770346377
24.4316992237
20.5675415803
20.8153792788
20.5282939347
19.6784675439
18.0691272536
23.0510982736
20.4624495106
20.8337840038
20.544453043
19.6510885605
12.2735700725
10.4616396081
20.507803133
20.8672069655
20.5291056592
19.6879451547
16.93007907
25.9449008428
20.5117573448
20.8557499776
20.5500597822
19.6544296171
20.127194533
17.4541594698
20.5433065107
20.8970963713
20.5359313773
19.6539855211
15.2078339389
23.5403650028
19.2637298948
13.9686023384
34.536887611
9.37409931426
25.7150877063
14.4256185257
18.7611117361
29.7281559995
28.5256355083
32.0815348049
33.7298811474
10.533141254
28.3028611969
24.8705007646
11.5858318432
2.97221985827
11.0298617209
19.3992817627
18.7191172086
17.5862554215
22.8875984983
18.195392184
27.1196452883
13.437132862
7.52329773228
15.5126829497
22.0531355412
25.141442916
19.2984267845
15.6055900472
4.9559043409
19.900637493
22.8027920609
21.8207496047
20.3895070883
34.3195936014
18.1614021308
22.8675199983
21.8103848364
20.3920767179
14.2146272021
16.3791311385
22.8948414663
21.8210386833
20.4019389974
28.8021589833
17.2179307923
28.0449947543
15.1272005665
24.4077378117
17.7844994284
8.09963569299
11.81073253
21.0176251254
9.98893804049
28.9704196746
21.057152595
38.854878463
24.2486001223
18.4190846455
21.5699390075
22.2276808331
20.8962214791
23.4819065939
24.4320014817
24.8492886257
15.7592708252
23.3247085228
25.6037176935
23.4350671766
9.42929547236
18.8045579315
39.8954419572
13.4210346002
11.1908581286
17.9372098614
18.0743365646
17.7442936134
17.0890168185
12.154983474
12.4622676917
18.7705282449
31.0235658194
19.7202602654
14.1588806675
14.9697573522
19.1807412812
17.782602081
10.9660642379
21.7414349922
11.8892092641
20.6702513762
15.1914758682
18.9972950043
23.9996073203
29.1721786454
31.5430708078
29.5241585417
24.6843240015
19.8175886503
11.1264083957
15.2021090272
18.9880138483
23.9872134105
29.1114123913
31.5080388983
29.5418149897
24.7293961897
15.9916614215
19.7080032563
18.0150694518
17.4908314382
20.2134090391
22.8097785036
40.6789530615
15.1326776592
10.1747168668
17.1941485126
32.4590369657
11.7092660997
10.2476060194
22.0476742828
22.204939048
21.7597084925
20.9006512892
15.2958098805
34.4630360684
22.0938522343
22.1857816239
21.8319073196
20.8861094805
14.1838624763
13.6472107668
22.0157898149
22.2103079075
21.8102817523
20.9561254922
20.0880374655
36.2125513291
12.7867124365
22.6305512895
24.1663631115
17.0399233494
9.25986108644
58.9190113063
20.6888199252
20.7401201898
19.4689589665
11.7640432184
20.6773613758
20.7467645124
12.2618871251
14.0026033163
20.6879628511
20.7738540378
29.5110437844
22.1141268705
14.125789638
14.2374673475
18.0286235618
18.4808545909
14.9697420793
11.0841455225
18.3495493944
11.1397396618
19.6342825572
32.894712852
10.3266276123
12.7668750679
16.7152769684
13.6082146821
13.5721029794
12.5071975073
21.083400053
22.2582638262
22.5076856794
21.7551547339
17.0622383001
19.5946725347
21.1011283359
22.2753456377
22.4763029212
21.7126687332
20.9225069842
8.5700805588
21.0889577762
22.2148734313
22.5271433313
21.7119388641
15.3998848742
29.9753501321
21.1036019656
22.2667891136
22.4480441792
21.6786380964
16.1163837474
16.6440798881
21.0906595634
22.213362883
22.491337522
21.7460132316
21.6200750214
10.3663740342
21.0631906092
22.2878224869
22.5134129291
21.7241941639
15.4033609585
16.3892031368
21.1470072627
22.2733562659
22.4625404028
21.6880944088
16.8735370776
20.4613162504
23.0499341612
20.0390591574
19.8855017317
32.7227803063
11.123127049
17.4927575062
17.66262352
21.7610607359
21.4520510824
20.578990129
17.0937319294
9.62350416002
21.6526629563
21.402826482
20.6034972566
16.0153364775
30.1829099413
21.7424128074
21.4052361527
20.6266929457
20.239474251
10.2150977252
21.7319735681
21.4421358156
20.6007519423
14.329790266
33.724328397
21.7135281314
21.4230645991
20.5986433871
20.1867040332
14.3487840604
21.6693553402
21.4277725465
20.6200152328
24.1579410185
25.6878758936
23.8940531784
14.4012559135
11.195292248
14.1402037714
21.477930071
15.3830832586
16.6092980624
21.4698854749
17.8285318122
18.0902300047
21.4540961897
17.1833711676
19.49506791
21.3963028548
16.8912754862
12.8068212089
21.4628210166
22.2620917149
18.1441434032
21.4065877208
23.8636479151
11.3623519727
21.4095798735
22.8142721627
20.0883140148
21.4456779445
19.8060873004
20.9126320531
21.412246967
37.4570250069
14.9721441238
21.4653903721
12.8755917327
23.6799738127
12.7696449984
15.3967410646
21.3825723522
20.3453958378
19.0812727067
21.4174804954
16.8085260387
8.54351464941
21.4111779534
17.2863457539
21.5443298088
21.4292663001
19.1244774644
27.9518178196
12.1973846017
18.73607073
20.9296164875
14.8397092286
11.0250182475
20.9482802454
17.6219414335
16.3563281421
20.8695522711
11.1869694317
23.2192322137
20.8971694189
22.7154769533
21.6208112709
20.8909716461
18.8336467159
17.4463612886
20.9156297273
18.0354914555
13.1548594947
20.9212366146
11.9791909827
12.3271939506
20.934937641
21.5415043737
17.3680842781
20.9065132677
19.2156572111
10.2530489031
20.9004516951
16.123049496
14.2585703019
13.0786735299
17.9543976339
8.00335386455
16.7671986972
21.5574261197
21.2835773152
20.5270034097
17.1168245389
15.4791974031
23.0241277907
18.8059793574
13.8388996732
14.8502333573
28.6091414379
11.8589628794
11.2060758699
17.9766187561
15.3613826239
15.4644436765
12.4583207617
13.6393021997
26.1259284682
12.3539453679
10.5971599048
21.3235663928
21.7424215666
21.2189394061
20.0250203885
15.4419245391
32.9160595093
21.3902059643
21.6891858107
21.161907123
20.0232790005
15.0143609248
11.9269564317
21.3644508464
21.6842298929
21.2281138526
19.9850831465
17.5412590987
13.2427000919
21.316880335
21.7189658405
21.1842891444
20.0290678666
17.9520485412
19.5429694674
21.3548098142
21.6785975673
21.1995164121
20.0527767623
29.4936642824
8.38552824442
21.3569598822
21.7245864479
21.2311046505
20.0219959452
20.9064632538
22.7454503878
23.2678998043
22.8690066701
19.8865159155
9.95893053137
16.8383219562
20.0201378944
30.655968148
12.6922586426
20.023716093
13.5983270458
12.828240541
20.001052187
16.4185658082
7.92068314416
20.0065945882
17.0136249715
23.8517607951
10.9916773576
29.130629863
11.2619139419
12.7580796449
21.6293417516
21.8994920693
21.6558257772
21.337530199
27.205074152
21.594032075
21.8880736292
21.7027041553
13.7394370575
10.6893277522
21.613933863
21.8661398087
21.6764213535
21.275996074
26.9495464709
21.5452127558
21.8869555781
21.6971288431
26.5753970065
12.3312761901
21.5844129177
21.9102164945
21.6899532966
21.9495262675
13.9394875151
21.6423403492
21.8770029908
21.7090852271
10.8245298354
34.3480739671
21.6208436691
21.8871911004
21.6802425926
32.5832616095
11.8949299687
21.5694846824
21.8934615495
21.7016882554
20.0197824482
14.370996395
21.5512971467
21.9477003489
21.7056149959
20.3096996296
15.6858026534
21.6160820452
21.8729878952
21.6780143698
20.7363345486
16.5984683456
21.6039799495
21.8686282116
21.6870550922
24.2675887215
29.3595052301
21.6199521244
21.9303832206
21.6573186807
18.2667184097
17.9195365661
21.5887701351
21.9148241219
21.6599641334
37.135613176
19.9635133643
21.6277485905
21.8650815475
21.7086985128
18.610177688
21.5300697594
23.3555601061
24.1305375739
18.3465326719
12.6507838114
14.5864187092
15.9486819186
17.005147344
13.3535927208
15.2399235048
21.1978112543
23.0075591692
24.1016494945
24.1153461481
23.2109116129
21.4808408211
15.7968078365
9.85734732859
21.1963791827
22.9822428447
24.1093271217
24.1313242697
23.1681008795
21.456455061
20.4835941508
16.7110320207
21.2087881827
23.0187487415
24.0826279434
24.1017048188
23.1648521845
21.4718069469
25.6661309239
19.2858054055
21.2015243096
22.9961234927
24.0591034789
24.1207191623
23.1601915267
21.4318085497
12.6181271604
10.3710595027
21.206018721
22.9504257847
24.0663482282
24.1225058634
23.1809034734
21.5230443224
29.6292674543
26.7816067903
21.1833295858
22.9542842908
24.0911992767
24.1567895858
23.2068768871
21.5228976245
15.4359489061
11.9071889831
21.1703982089
22.9563044927
24.1036951144
24.1359015895
23.1389621826
21.468745732
19.4734202645
23.0263605469
25.215364005
24.0229996279
23.9746128854
25.0561514094
24.1119815057
19.0558540482
16.8572327235
10.8563652575
17.5886169864
23.3598814387
11.4159027217
20.1538977702
17.1184762836
13.9072365779
16.9093000662
21.2924925818
24.5304072453
27.8112884759
30.3575956115
31.3559262362
30.5583751767
28.162936714
25.0028917711
21.8168105891
13.8980305324
18.8867620064
21.2684132789
24.5422692992
27.7673883288
30.3096706044
31.3517689909
30.5965129614
28.1596171752
24.9638985608
21.8576882793
26.1632270739
13.0201429641
20.5985787042
36.9671882593
16.6602552346
23.7918915387
20.757758335
17.5319096901
19.9366310291
23.5747589086
20.4838546273
8.49422952211
27.9578721673
18.7183309793
17.1641073226
17.9420085217
18.0401103441
16.5486677127
21.261671132
21.19535423
19.8073403236
17.9022498566
18.2908271244
34.4801566995
15.3252361558
34.0416669526
21.7235879372
22.5157193189
22.751612618
22.3712299666
20.7728700988
20.1094094823
21.6919320064
22.4888662138
22.7454887458
22.3998576184
19.9070018668
12.8909862572
21.7508602794
22.5464852672
22.759288248
22.4051195975
18.8094103938
16.52040028
21.7706389827
22.5164226734
22.7165555763
22.3291266174
24.652900473
14.9908136423
21.7068185611
22.4827542643
22.7222367591
22.4128478126
27.8782685877
11.4671537861
21.7343174908
22.461887476
22.7794323163
22.404895158
13.6715979658
13.6901124086
21.7097257417
22.5229652132
22.7111732579
22.36609585
33.8130622288
20.1219438136
21.7434909805
22.5524826238
22.7077379122
22.3612589001
27.5352309035
11.3563790512
21.7883275838
22.4703069393
22.7696450343
22.4144769152
20.2016516696
13.7125402137
21.754309418
22.4844511205
22.7500799281
22.3592025295
11.0661961466
15.9574692318
21.7086573408
22.4352257777
22.72849437
22.3712030007
30.3178936062
33.8759953468
21.6784580584
22.5193420698
22.7740585028
22.3227208973
20.8136008512
13.5786971841
21.7186860807
22.5533635249
22.7111171952
22.3687288477
21.338676649
13.488911039
21.7234514563
22.4528947489
22.7215302221
22.4032986242
17.1117824103
15.4412547323
23.1417237207
18.9859170214
19.2775354215
12.8938585887
14.2567225037
27.7462044964
12.8179689898
33.6180664417
12.6778966909
9.69497438409
16.3685084882
18.9411026002
17.8917041058
21.0584198718
18.9613532904
13.9249468349
10.4226104404
18.9538781536
9.14303717146
30.6550800304
15.9933371708
17.3202352042
21.0439493365
20.5259383439
15.6070866994
21.0724915446
20.3553034974
9.99609199807
21.0517840833
27.8049947019
31.6458743268
18.5993191407
12.5889993599
20.3340447359
18.1891363394
12.1590736081
20.3006514883
19.1042775803
12.8911593845
20.3085744019
13.6873139433
18.7162437644
20.3337026956
20.3720452908
10.3191985619
20.3281862685
15.1056481581
35.6757540139
18.5376778413
21.3205283237
18.3294874186
18.0517066708
21.7915060523
13.2446329208
13.9927551748
18.0565218158
21.7667431589
26.8634257219
20.2633994077
18.0611137468
21.7855672478
13.7479410928
35.006818686
22.2609349839
16.6521719484
12.6599386785
15.7812581975
9.2390821219
14.1699705063
16.6840457785
19.137323338
12.5190247676
23.2562678855
14.2080106766
16.6884836377
19.2011572953
18.1441454158
16.991451776
29.826430146
22.648590645
13.5146928416
17.2052809834
14.373846903
15.0633844937
19.6475289024
20.9841478147
20.0320394363
13.04847032
16.9511736058
19.632775283
21.0152884069
20.0050890716
29.1136287035
19.1381248021
33.7174497965
21.696476942
15.0371248587
11.6895688072
13.7185622216
19.7931630224
19.6066766362
21.0619864774
19.9946690829
30.1966630532
15.7479600123
19.6390101739
21.0163060899
20.0068584969
27.8163570796
23.9087413271
21.5494218025
21.0924169137
13.503644945
9.20190794041
16.6366131812
27.7676800731
26.5395326002
25.5474331362
17.268909053
16.3552748582
8.22847493534
18.0435105877
21.7719730768
25.4297449786
22.41788301
18.0341793823
21.7703818143
13.7241310923
22.2053129085
18.0269277358
21.7714419835
24.9984690213
17.8194235246
25.2395134101
34.3232034722
16.2446422373
22.0126563523
19.3904228913
15.9141495499
22.0135941457
18.4131695649
12.0327935401
22.0028160237
17.943822826
25.5419278256
17.4488480956
17.5197385508
17.5683459524
17.7008670745
15.7149188111
19.3994287004
20.4572143163
20.9409818541
20.8461404985
18.4644034411
16.4783651527
19.3905146273
20.4243257286
20.9739764233
20.8346720042
11.5301844615
15.035748245
19.3988079242
20.4563609188
21.0076250353
20.7959453621
26.8629292679
24.9940489967
19.1370635196
17.3444807117
19.4425874561
10.665275341
16.2254387058
16.4597926888
16.5676724414
31.4664614161
11.5868612705
12.7126392082
17.4509248028
18.5397223813
19.161138146
19.0733040565
18.3752578319
17.2770244135
15.7777315113
20.1475534315
22.4189425861
12.6793360443
37.9869907294
17.7018080104
19.978981129
9.90290064801
38.4051315541
13.3858446905
16.3435813321
17.8997619542
20.5832699363
23.3615820843
17.6110891037
20.2033980813
17.8854907762
20.5957301428
23.3688435597
26.2073172654
10.09189758
17.9001393216
20.5850196328
23.3789185714
19.7567035767
17.0412441925
17.9247526595
20.6252561018
23.3293518452
14.0490652082
23.538403747
14.8035990029
23.0166600632
10.1074547085
37.287911155
10.3371907713
17.141320494
17.931756452
20.6444780726
23.3819733942
13.1995596335
12.5967857461
17.9638175182
20.6128712682
23.344275367
20.2574461791
10.3293462166
17.9085801831
20.5487890108
23.3785554317
21.663224823
20.4242194221
17.916305712
20.5922226495
23.4049153677
16.3750713746
11.8297760627
36.8363920446
16.4206698847
13.5818708037
13.4547105298
17.0670687228
28.6772815736
42.819620991
23.2406093159
17.6413384148
29.7945795455
12.5792652944
22.9392409811
25.4733974512
13.5462147042
13.9118752094
20.4646123469
21.5189620665
21.9350749208
21.7253581144
20.8141314107
19.5548844235
14.5447032676
28.1180588534
20.4252983184
21.4652415247
21.9481030813
21.7031964765
20.8386769431
19.4930859533
18.5574952225
12.4257356153
20.4577979321
21.4893583014
21.9818334979
21.73276888
20.8744757038
19.5393829832
43.2240057066
22.3128988214
20.4190033971
21.5122004331
22.0223295124
21.7293708196
20.8450612815
19.5455592511
30.6135376986
11.1426323996
20.4136951336
21.5247671942
21.9552898266
21.6922390348
20.7997121262
19.4891735916
11.0901413259
13.4863577359
31.6172874857
13.3006086006
18.6169011622
36.1791232868
13.5220070735
10.8121444475
14.320430771
17.1302077573
17.4664186387
21.4116821124
21.4033263159
20.6083575659
15.7090416181
17.0139540057
21.4020329051
21.3645808971
20.5962720991
34.2772366643
15.1550555226
21.4480133306
21.3576190473
20.5647932944
16.5152635645
22.2583936007
13.3130793591
42.7821934019
16.2640139138
11.8478975526
22.328539042
16.1494672883
21.6076986093
21.8789869982
21.7310861267
18.8633680964
15.5904785536
21.6575342644
21.9080464904
21.7030984637
18.2590293205
16.8211612392
21.5790544768