# vtk DataFile Version 3.0
File Name: Molecule/sphere_excent/sphere_excent_0-s4.vtk
ASCII
DATASET UNSTRUCTURED_GRID
FIELD FieldData 1
TIME 1 1 double
0.0
POINTS 51 double
0.85065060854 -0.52573126554 5.5748250816e-06
0.80892884731 -0.30898338556 -0.49994599819
0.9998960495 -2.3889151635e-06 1.0014513464e-05
0.80892699957 0.30898606777 -0.49994724989
0.52572947741 6.4965568924e-08 -0.85065180063
0.85064429045 0.5257422328 -4.3483909394e-05
0.49994546175 0.80893069506 -0.30898162723
0.30898085237 0.49994492531 -0.80893057585
-1.8885182271e-06 0.85065120459 -0.52573049068
0.50002467632 0.80895644426 0.30886131525
-2.6116074423e-06 0.99989545345 2.2435808205e-05
2.4033350201e-05 0.85024642944 0.52633148432
-0.50001180172 0.80901110172 0.30877318978
-0.49994850159 0.80892699957 -0.30898728967
-0.85065323114 0.52572739124 -8.150773283e-06
-0.33490908146 0.5097245574 0.79114598036
-0.80942076445 0.30873814225 0.49943467975
-0.53378885984 0.01350848563 0.84345906973
-0.30491527915 -0.51214718819 0.80112731457
-0.00042937832768 -0.85171806812 0.52411001921
0.30964180827 -0.542760849 0.78015416861
0.49985408783 -0.80976456404 0.307289958
0.80832320452 -0.30891147256 0.50081467628
0.30898198485 -0.49994525313 -0.80893015862
-2.2460059768e-07 -8.7607901378e-08 -0.99989140034
-0.30898600817 -0.49994665384 -0.80892759562
-4.376582865e-07 -0.85065072775 -0.52573126554
-0.52573245764 1.0449130059e-06 -0.85065001249
0.80991280079 0.30975970626 0.49799898267
0.54999250174 0.032851353288 0.83335137367
0.33378967643 0.50544297695 0.79445630312
-0.80892962217 -0.30898222327 -0.49994519353
-0.80892878771 0.30898347497 -0.49994599819
-0.99989598989 -4.7107855607e-06 -6.8020253821e-06
-0.85065019131 -0.52573210001 1.9056278688e-06
-0.30898359418 0.49994561076 -0.80892908573
-0.49994459748 -0.8089312315 -0.30898147821
-0.49993488193 -0.80905991793 0.30881100893
-1.8869726773e-05 -0.99989116192 -0.0001287455525
-0.8086887598 -0.30889382958 0.50025433302
0.49993941188 -0.80891829729 -0.30903068185
0.27303263545 -0.012726340443 0.9618062973
0.15518055856 0.26715180278 0.95101302862
0.15432238579 -0.27030912042 0.94985860586
-0.02532001026 0.003773274133 0.99957573414
0.43825495243 -0.25415530801 0.86215436459
-0.00063290284015 0.52548575401 0.85081857443
-0.17018415034 0.26940083504 0.94789218903
-0.43541401625 -0.25673648715 0.8628077507
-0.28539767861 -0.0063286633231 0.9584608674
-0.17977020144 -0.25326636434 0.95069336891

CELLS 98 392
3 0 1 2
3 1 3 2
3 1 4 3
3 2 3 5
3 5 3 6
3 3 7 6
3 3 4 7
3 6 7 8
3 5 6 9
3 6 10 9
3 6 8 10
3 9 10 11
3 11 10 12
3 10 13 12
3 10 8 13
3 12 13 14
3 11 12 15
3 12 16 15
3 12 14 16
3 15 16 17
3 18 19 20
3 20 21 22
3 20 19 21
3 22 21 0
3 4 23 24
3 23 25 24
3 23 26 25
3 24 25 27
3 0 2 22
3 2 28 22
3 2 5 28
3 22 28 29
3 5 9 28
3 9 30 28
3 9 11 30
3 28 30 29
3 27 31 32
3 31 33 32
3 31 34 33
3 32 33 14
3 8 35 13
3 35 32 13
3 35 27 32
3 13 32 14
3 34 36 37
3 36 38 37
3 36 26 38
3 37 38 19
3 34 37 39
3 37 18 39
3 37 19 18
3 17 16 39
3 16 33 39
3 16 14 33
3 39 33 34
3 27 25 31
3 25 36 31
3 25 26 36
3 31 36 34
3 26 40 38
3 40 21 38
3 40 0 21
3 38 21 19
3 4 1 23
3 1 40 23
3 1 0 40
3 23 40 26
3 4 24 7
3 24 35 7
3 24 27 35
3 7 35 8
3 41 29 42
3 20 43 18
3 44 43 41
3 43 45 41
3 43 20 45
3 41 45 29
3 29 45 22
3 45 20 22
3 15 46 11
3 11 46 30
3 15 47 46
3 47 42 46
3 47 44 42
3 46 42 30
3 17 47 15
3 30 42 29
3 41 42 44
3 17 48 49
3 48 50 49
3 48 18 50
3 49 50 44
3 18 48 39
3 39 48 17
3 44 50 43
3 43 50 18
3 17 49 47
3 47 49 44

CELL_TYPES 98
5
5
5
5
5
5
5
5
5
5
5
5
5
5
5
5
5
5
5
5
5
5
5
5
5
5
5
5
5
5
5
5
5
5
5
5
5
5
5
5
5
5
5
5
5
5
5
5
5
5
5
5
5
5
5
5
5
5
5
5
5
5
5
5
5
5
5
5
5
5
5
5
5
5
5
5
5
5
5
5
5
5
5
5
5
5
5
5
5
5
5
5
5
5
5
5
5
5

CELL_DATA 98
SCALARS cell_data_0 double
LOOKUP_TABLE default
1.04177138501e-07
2.80721403029e-07
2.47169102079e-08
5.24281985725e-09
2.19960662707e-07
1.99911794318e-07
1.00863876664e-07
1.37701225242e-07
6.54836395104e-07
2.49494757674e-07
1.90890876228e-07
1.09920986719e-06
1.2636594205e-06
1.0866429781e-06
4.25292251807e-07
7.33004446994e-07
6.90927415839e-06
4.16495417344e-07
1.03940558529e-06
8.28002507888e-06
1.45475638764e-06
7.44838744612e-06
7.40067941201e-06
1.55948624662e-06
1.11332453879e-08
5.14966742684e-08
2.64157790277e-09
2.72468713876e-08
4.53666569717e-07
2.51940096005e-06
7.01169031207e-07
3.3977719686e-06
1.47448350253e-06
1.89217066626e-08
8.36926969005e-07
8.10160094458e-06
1.38678995224e-07
2.83831974728e-07
4.8349491433e-07
4.56226809086e-07
8.10180625821e-08
2.54791177149e-08
1.05346125839e-08
1.29230808269e-07
6.29705159143e-07
2.83302536489e-07
1.89066127029e-07
1.08603337577e-06
1.45911460539e-06
1.31153632272e-07
9.42604059105e-07
1.13238701917e-05
1.34900340455e-06
2.15293905292e-06
2.15235918844e-06
4.02234053111e-08
2.20402219155e-08
4.37225860192e-08
1.33124937973e-07
3.0710579309e-07
3.62240146215e-07
2.43132360632e-07
5.71291468414e-07
4.7282437452e-08
1.93430353698e-07
9.19891027181e-08
3.45995415412e-08
1.0025837517e-08
3.34070770732e-08
2.53628469578e-08
2.51192037764e-09
2.25505193866e-06
4.800540274e-06
2.74491511696e-07
1.09786713e-06
5.65363524128e-06
2.63728859764e-06
2.22797146093e-06
2.81070115449e-06
3.0507714176e-06
2.7106862885e-06
9.213536318e-07
1.6591333239e-06
1.40526779519e-06
5.96994299308e-07
6.41614280133e-06
2.34154476737e-06
1.49542432991e-06
1.68815826344e-07
4.47126951211e-07
1.12362990453e-06
9.80836215934e-07
3.98598435507e-06
5.16216366544e-06
9.26745896894e-08
4.78954232647e-07
6.7227036735e-07
6.46800035427e-07

