# vtk DataFile Version 3.0
File Name: Molecule/sphere_excent/sphere_excent_0-s23.vtk
ASCII
DATASET UNSTRUCTURED_GRID
FIELD FieldData 1
TIME 1 1 double
0.0
POINTS 606 double
0.032389942557 -0.84068107605 -0.53880995512
0.43577536941 -0.82630002499 -0.35597515106
0.10832811147 -0.97978574038 -0.16461127996
0.48921737075 0.00076389143942 -0.87135076523
0.0071059530601 0.0078436564654 -0.99807327986
0.23056207597 0.46374568343 -0.85063558817
-0.30336052179 0.50508332253 -0.80442202091
0.0043311882764 0.80262190104 -0.59441912174
0.27165418863 -0.58113056421 0.76710772514
0.19279292226 -0.47249260545 0.85998356342
0.14286461473 -0.57602459192 0.80476075411
0.32234358788 -0.44834694266 0.83368510008
0.13791497052 -0.66354387999 0.73498547077
0.46289995313 0.82009482384 0.33622404933
0.32754811645 0.93042933941 0.16482254863
0.2625258863 0.89756602049 0.35283714533
0.044436752796 0.9733659029 0.2232324034
-0.2116330415 0.26995056868 0.9392362833
-0.29396238923 0.29006281495 0.91073036194
-0.25936886668 0.19591224194 0.94567716122
-0.35597091913 0.18847464025 0.91524773836
-0.026313662529 0.99828660488 -0.051816023886
-0.25531879067 0.95273399353 -0.1633464098
-0.26293712854 0.96012294292 0.082455642521
-0.47504559159 0.87650805712 -0.070216760039
0.86143809557 0.50360548496 -0.060711245984
0.72203415632 0.67982584238 0.12692479789
0.85219448805 0.48169183731 0.20378530025
0.74199849367 0.56584268808 0.35880738497
-0.93783414364 0.16293816268 -0.30661407113
-0.94345283508 0.32508385181 -0.058065775782
-0.84439980984 0.45003753901 -0.29041829705
-0.85266762972 -0.51142394543 -0.097318388522
-0.70518225431 -0.68527400494 -0.17268586159
-0.73490834236 -0.67082053423 0.098378024995
-0.55540335178 -0.83159840107 0.0044585186988
-0.88149303198 0.43783766031 0.17096349597
-0.8249540329 0.5626295805 -0.054456483573
-0.71213442087 0.69154495001 0.1203924641
-0.19542627037 -0.83088874817 0.52096909285
-0.13780669868 -0.75360387564 0.64268821478
-0.28099954128 -0.75657832623 0.59022808075
-0.21993002295 -0.68066811562 0.69877403975
-0.10335650295 -0.67308217287 0.732165277
-0.45139172673 -0.85364705324 0.25558042526
-0.30409115553 -0.94168025255 0.14360460639
-0.65915936232 0.12391255796 0.74165487289
-0.73123800755 0.21323406696 0.6478780508
-0.75380402803 0.064785256982 0.65347397327
0.61114937067 -0.21871982515 0.76068723202
0.63971805573 -0.31544798613 0.70014363527
0.67778456211 -0.21559867263 0.70298010111
-0.070171996951 0.040744297206 0.99668717384
-0.16018408537 0.046787682921 0.9859290719
-0.12644046545 -0.03131795302 0.99148261547
0.62477821112 0.71684545279 0.30940386653
0.5341603756 0.83606773615 0.12474778295
0.50591772795 0.55635726452 0.6589486599
0.60560166836 0.45624518394 0.65180891752
0.56734824181 0.59758657217 0.56611049175
0.61866438389 0.63311195374 0.46352082491
0.67721521854 0.50935870409 0.53085952997
0.5321033597 0.69891750813 0.47720456123
-0.32481488585 -0.84222072363 0.42921683192
0.40992596745 -0.8333517909 0.37050282955
0.45163539052 -0.87658321857 0.16621233523
0.57388651371 -0.76269131899 0.29781553149
0.58428961039 -0.67200726271 0.45482105017
0.69756668806 -0.63535672426 0.33115935326
-0.41570851207 -0.27327749133 0.86707162857
-0.32684755325 -0.31589898467 0.89070880413
-0.34731283784 -0.19371321797 0.91748261452
-0.53282564878 -0.33110499382 0.77828675508
-0.62158417702 -0.31011638045 0.71936064959
-0.60288316011 -0.41796714067 0.67958676815
-0.50402718782 -0.45520198345 0.73369020224
-0.55087769032 -0.52151674032 0.65128755569
-0.56089186668 -0.24285672605 0.79143750668
-0.67012035847 -0.47372585535 0.57139366865
-0.70997321606 -0.33948042989 0.61699002981
-0.79227852821 -0.36562612653 0.48836791515
-0.79321885109 -0.22901518643 0.56424033642
-0.69815057516 -0.23311939836 0.67679399252
-0.73967826366 -0.13249136508 0.65962445736
0.14928236604 -0.36221730709 0.91998410225
0.25309094787 -0.35646852851 0.89938139915
0.20099763572 -0.25371962786 0.94615614414
0.32486867905 -0.25080373883 0.91173148155
0.11933875829 -0.063184276223 0.99083584547
0.15507487953 0.014510016888 0.98778241873
0.06944475323 0.014559959061 0.99745857716
-0.38490253687 0.28919816017 0.87633150816
-0.34056341648 0.3716313839 0.86348938942
-0.4387396276 0.34015980363 0.83163452148
-0.18692104518 -0.94769001007 -0.2566896379
-0.64983773232 0.35669603944 0.67116737366
-0.62616890669 0.24433594942 0.74039685726
-0.56753790379 0.3314049542 0.75365430117
-0.52774947882 0.24186974764 0.81416511536
-0.69117277861 0.45331433415 0.56266176701
-0.57246208191 0.48823282123 0.65856331587
-0.31623655558 -0.60588032007 0.72994440794
-0.22596001625 -0.59156227112 0.77380943298
-0.29353269935 -0.51803725958 0.80338001251
-0.093880027533 -0.44225132465 0.89173281193
-0.083775036037 -0.53385436535 0.8413490057
0.00086122076027 -0.47896376252 0.87775462866
-0.13005414605 -0.99141722918 -0.0025703641586
-0.35955765843 -0.9274314642 -0.10217676312
-0.45663505793 -0.79588806629 -0.39487400651
-0.59379070997 -0.74956011772 -0.28912869096
0.29249963164 -0.041970107704 0.95534622669
0.20245136321 -0.068675003946 0.97688025236
0.24187132716 -0.13880632818 0.96027463675
0.16165657341 -0.15567097068 0.97449207306
-0.24308820069 -0.29151567817 0.92502820492
-0.22553354502 -0.360545367 0.90473717451
-0.31423315406 -0.4151070416 0.85378777981
-0.2317700386 -0.45528882742 0.85912901163
-0.42181622982 -0.56631982327 0.70779746771
-0.39753484726 -0.51604604721 0.75799673796
0.087629854679 -0.21734458208 0.97209095955
-0.40365216136 -0.3764668107 0.83342725039
-0.18559978902 -0.51705509424 0.83556944132
-0.16674602032 -0.45185261965 0.87598878145
-0.37925174832 -0.46717897058 0.79818469286
0.65956306458 -0.73717498779 -0.14209774137
0.49560528994 -0.86513310671 -0.076139323413
0.64153182507 -0.76047700644 0.084310233593
0.69051420689 0.27644914389 0.6683806777
0.72585427761 0.18307809532 0.66301220655
0.75992935896 0.28808996081 0.58263486624
0.64951437712 0.17244006693 0.74009484053
-0.19785191119 0.89186447859 0.40688788891
-0.2917021513 0.80028527975 0.5237609148
-0.090522795916 0.87662601471 0.47256743908
-0.41150218248 0.85217428207 0.32096841931
-0.46203666925 0.76756107807 0.44406372309
-0.30438119173 0.87345176935 0.37907102704
-0.55331283808 0.78885304928 0.26731327176
-0.41094434261 0.70126181841 0.58241701126
0.031141640618 0.84012424946 0.54110234976
-0.094142518938 0.80742669106 0.58245337009
0.047251231968 0.73891955614 0.67212212086
-0.033931538463 0.6631167531 0.74771350622
0.07632817328 0.62531220913 0.77662974596
0.70782929659 0.0092502832413 0.70591688156
0.79258316755 -0.04243618995 0.6083073616
0.76431357861 0.077156186104 0.6400976181
0.67848926783 0.091628976166 0.72859287262
0.86024600267 0.052902135998 0.50710839033
0.79248774052 0.18183152378 0.5818811655
0.73990356922 -0.2638374269 0.61874973774
0.17702199519 0.76056069136 0.62467938662
0.1919555217 0.65248084068 0.73302316666
0.2946639061 0.68037056923 0.67092341185
0.17480060458 0.5431458354 0.82126891613
0.27055442333 0.54083633423 0.79639732838
0.28287532926 0.43422332406 0.85525250435
0.18366548419 0.84921747446 0.49504727125
0.044907491654 0.91286832094 0.40560287237
0.34218874574 0.8193205595 0.45988717675
0.29996469617 0.76376521587 0.57153505087
-0.77490067482 -0.55899769068 0.29358625412
-0.87947404385 -0.44547832012 0.1653945595
-0.85414916277 -0.39413714409 0.33905500174
-0.95487236977 -0.19518040121 0.22082081437
-0.88179576397 -0.22477537394 0.41459268332
-0.87338745594 0.049537654966 0.48430410028
-0.92814266682 -0.063097648323 0.36668097973
-0.85527479649 -0.099517017603 0.50836753845
-0.52803367376 0.84112256765 0.11566984653
-0.73183840513 -0.52012240887 0.44022607803
-0.6159350276 -0.63387185335 0.46707957983
-0.66496640444 -0.6748893857 0.31930506229
-0.18338577449 -0.191458866 0.96417540312
-0.16230888665 -0.11288578808 0.98025149107
-0.2546338439 -0.12438175827 0.95899403095
-0.21520125866 -0.043765123934 0.97557687759
-0.32764273882 -0.054479733109 0.94320815802
0.72752863169 -0.12006569654 0.67549747229
0.38581386209 0.68957674503 0.61274290085
0.43123614788 0.73715275526 0.51968818903
0.70194888115 0.38247084618 0.60071521997
0.66564625502 -0.55922853947 0.493927598
0.7352309823 -0.65947175026 0.1538734287
0.49177154899 0.80457282066 -0.33286485076
0.25240293145 0.86739093065 -0.42884069681
0.2459025234 0.94681602716 -0.20730473101
0.028576893732 0.95319646597 -0.30060341954
0.35181394219 -0.34407228231 0.87052506208
0.42284360528 -0.2900775671 0.85849553347
0.43034213781 -0.38807317615 0.81496995687
0.49900224805 -0.31564927101 0.80688470602
0.41884845495 -0.49125811458 0.76355242729
0.51658952236 -0.42734524608 0.74109613895
0.27501317859 0.15831708908 0.94829505682
0.37268200517 0.1883456558 0.90865367651
0.29888731241 0.28323966265 0.91128504276
0.4248534143 0.26627919078 0.86521941423
0.464925915 0.18638819456 0.86540782452
0.54101377726 0.22875458002 0.80926096439
0.0038741624448 0.48841419816 0.87257957458
-0.015489198267 0.57419282198 0.81854110956
-0.08000421524 0.49780890346 0.86356568336
0.079534329474 0.52724188566 0.84598058462
0.078423269093 0.43905565143 0.89502638578
0.51520603895 0.43728256226 0.73707646132
0.56172066927 0.3452989459 0.75180673599
0.47428041697 0.34485551715 0.80999958515
0.41189813614 0.4298851192 0.80346637964
0.37484440207 0.3542855382 0.85673564672
0.98292976618 -0.048718038946 -0.17618073523
0.99562573433 0.080635897815 0.043934613466
0.99220192432 -0.10538496822 0.065064460039
0.97664171457 0.0032156251837 0.21473346651
0.95769846439 0.18639184535 0.21900160611
0.94512170553 -0.23089788854 0.23028822243
0.92334353924 0.11740881205 0.36538720131
0.92922335863 -0.06046320498 0.36451244354
0.84371447563 0.2346984446 0.48256936669
0.87477374077 0.3217921257 0.35936039686
0.89252340794 -0.21491500735 0.39645528793
0.86381751299 -0.11219456792 0.49110856652
0.81718564034 -0.27736702561 0.50519400835
0.19007794559 0.98159366846 0.018927002326
0.42399087548 0.90300899744 -0.069122575223
[...]
CELL_DATA 1208
SCALARS cell_data_0 double
LOOKUP_TABLE default
2.73019272676e-08
7.75369420824e-08
7.3993410537e-08
2.3773779023e-08
6.51078455132e-09
5.7326855024e-09
1.50954614863e-08
1.1205879571e-08
1.948169358e-08
2.51105764078e-08
1.0499736147e-08
5.91152799108e-09
4.92244271636e-09
1.19908676187e-08
1.59877092297e-08
3.95232326746e-08
9.7923734633e-09
3.64972232706e-08
7.5181216666e-09
3.02315045864e-08
3.31141247885e-08
4.01836746864e-09
6.0356596952e-09
1.56768828107e-08
1.98764947835e-08
5.63350865881e-09
2.37536767544e-08
9.00137053962e-09
3.30500122197e-08
1.47087607211e-08
6.97057135731e-09
7.3392809632e-09
1.64690950589e-08
4.33855422312e-08
9.80526007989e-09
2.51411547775e-08
2.24427357783e-08
3.09890506597e-08
1.78424764449e-08
2.29606191161e-08
1.15708890688e-08
2.3592442845e-08
2.98191356239e-08
3.24303960655e-08
2.59060437444e-08
1.9497877894e-08
9.99638656617e-09
1.09878271202e-08
4.23032876435e-08
1.38127493941e-09
9.67923318282e-09
1.26362285781e-09
9.49829821634e-09
8.69918688972e-09
9.01137046794e-09
1.04512894111e-08
1.76347760474e-08
3.41830152062e-08
3.98278254031e-08
2.49867016044e-08
1.51613050331e-08
3.30141867393e-08
5.39417787164e-09
2.02033348866e-08
2.96806703326e-08
3.79168601904e-08
4.49954848833e-08
4.05841444913e-09
1.76036557106e-08
5.51774546296e-09
1.22250359453e-08
2.97116058446e-08
2.91389229961e-08
3.09328736626e-08
2.09228663398e-08
1.91276618609e-08
7.68270374777e-09
1.12991873161e-08
1.76663927883e-09
4.61272760294e-09
2.78702298102e-09
7.32200175091e-09
4.14375361691e-09
1.46950223186e-08
4.3756182183e-09
2.39196411561e-09
1.14793127333e-08
9.89894783029e-09
8.18083738367e-09
7.82001342508e-09
1.65106512897e-09
2.48073390273e-09
1.29174475089e-08
2.96729592913e-08
2.23368023609e-08
5.84729161817e-09
3.5296243602e-08
1.50298908678e-08
5.19555066527e-09
4.73269176234e-09
3.31894865719e-09
1.39119127057e-08
2.07505098372e-08
8.09590522537e-10
3.30255038828e-09
2.48506532379e-08
7.28850743214e-10
2.50094441761e-08
1.08463420306e-08
2.40704214074e-08
2.97167764004e-09
3.15572063836e-08
1.90192760083e-08
7.25946429312e-10
1.665053727e-08
1.72052114866e-08
1.57558186768e-08
3.89584300846e-09
2.24854111365e-08
1.04705279051e-08
1.56440162579e-08
2.51315481391e-08
6.23086262412e-10
3.62378822512e-09
1.9451784192e-08
3.25091765954e-08
1.51987963318e-08
2.71476162366e-08
1.95551721268e-09
1.302386906e-08
2.23205365567e-09
1.11619261474e-08
2.77698632829e-08
6.52791093603e-09
6.95783262324e-09
9.79375162857e-10
4.0700460589e-09
9.59304074635e-09
2.61624150094e-08
1.55654223371e-08
3.64625012347e-08
1.53230755658e-08
2.76084862047e-08
7.98210743225e-09
2.99150561203e-08
2.39943380565e-08
2.00445874544e-08
2.09461289784e-08
9.02749668381e-09
1.82286566187e-08
3.57833336315e-09
1.05378817257e-08
2.95525793722e-08
3.66167616459e-09
1.60332096135e-08
8.55590799705e-09
7.98128988467e-09
7.77323223024e-09
3.6670516857e-08
1.18991694324e-08
1.40468841425e-08
3.73684534118e-08
9.95893492528e-09
3.88843355369e-11
1.36498866609e-08
8.14846817576e-09
1.9014810868e-08
1.85160447806e-08
1.42286152459e-08
7.86257543452e-09
1.92835366691e-08
3.08426816811e-08
1.11990447631e-09
4.32412648027e-08
1.76886807211e-08
2.62694704139e-09
3.40932878733e-08
1.95815445421e-08
1.19933191691e-08
9.35053007513e-09
1.18305256245e-08
4.60282157349e-09
8.50380019997e-09
1.53776646918e-08
1.95276262994e-08
8.52849374377e-10
1.62704002373e-08
2.86040320183e-08
1.89404043072e-08
2.36714019857e-08
2.3770870268e-08
1.12306227379e-08
2.25051121303e-08
1.78972605909e-08
2.09254258597e-08
2.53748464814e-08
1.56167555664e-08
1.79064875873e-09
3.19995613011e-08
1.71975987216e-08
1.99932072323e-08
1.28287962186e-08
6.81739567899e-09
3.85662271551e-08
5.72008829642e-09
9.12763717018e-09
2.11423855171e-08
1.13555901184e-08
1.46137021938e-08
1.35613598703e-08
3.66196890304e-09
6.93536372095e-09
2.50488302673e-08
3.69114488477e-09
1.62666936116e-08
1.14767672667e-08
8.15352359276e-09
1.99189004799e-08
3.1934160703e-08
1.65474170562e-08
9.60187402108e-09
3.16013239889e-08
1.50711460733e-08
1.95824023772e-08
2.11120009694e-08
6.12115745295e-09
2.53410714987e-08
7.92390984098e-09
5.22688180149e-09
2.92107310348e-09
1.8981680504e-08
2.47669212993e-09
1.89200673299e-09
1.54441992541e-08
1.0461069981e-08
2.20855803584e-08
2.79415471602e-08
2.10375935221e-08
1.49283550767e-08
1.62609651077e-08
1.17501246872e-08
7.90045025899e-09
6.93180143611e-09
9.08119883237e-09
1.87819137611e-08
3.15738064217e-08
2.45455056187e-08
4.75112066796e-08
1.04214388031e-08
1.65865250537e-08
2.11753854952e-08
2.3880942547e-08
8.8582221356e-09
6.01989484584e-09
1.14701851358e-08
2.74407491617e-08
2.3988580734e-08
1.19827511817e-08
7.72428771074e-09
1.2982874675e-09
2.48045509251e-09
7.09906859269e-09
1.70913409277e-08
1.10236731417e-08
1.15252382345e-08
2.38735491755e-08
3.51803956949e-09
4.64889176229e-09
5.66851668437e-09
2.86403599197e-08
5.41785207105e-09
7.19751340604e-09
3.30651777811e-08
5.39361552677e-09
2.16545880958e-08
1.57319198991e-08
1.64735067512e-08
1.23802222117e-08
1.36243106968e-08
7.09921547926e-09
2.26530118576e-08
1.20364197233e-08
5.07261025986e-10
1.34334643839e-08
3.32669411131e-09
2.83398462468e-08
2.79903417423e-08
1.89309913454e-09
4.06959828992e-09
2.83912645844e-08
1.02147683307e-08
7.79975658356e-09
2.38483287779e-08
1.37186658512e-08
6.65438522934e-09
4.26524595348e-08
6.51695547942e-09
9.22241101947e-09
1.19538454502e-08
5.39178274658e-09
1.23119049056e-08
1.92528986011e-08
1.5106688171e-08
2.56521034788e-09
2.71511726179e-08
3.05388644004e-08
5.99999464577e-09
1.35280392544e-08
1.04373030438e-08
8.49652308801e-09
8.02140310274e-09
2.97440254173e-08
1.94403652756e-08
9.95631453793e-09
1.80649368788e-08
2.45301723216e-08
5.98476427606e-09
8.26504356234e-09
1.18808676245e-08
1.36003223515e-09
5.23022284647e-09
5.39718356212e-09
2.38437209614e-08
1.28833137246e-08
3.50950011589e-08
2.83762022715e-08
1.020252619e-08
1.8261148767e-08
5.54517912765e-10
5.14564588272e-09
7.53341070363e-09
1.11051306045e-09
2.95244395819e-09
1.28497799287e-08
2.25148109717e-10
3.4732710424e-09
3.41267237891e-09
7.93461370215e-09
6.56809310453e-09
4.84289406165e-09
1.40034597667e-08
1.26368998685e-08
3.27425747579e-09
6.02904893127e-09
1.1512655436e-08
4.98255431695e-09
1.15960259732e-08
5.27269983604e-09
2.37841786371e-08
3.71310016013e-08
3.2594970653e-09
1.3148074429e-10
2.33708901664e-09
1.36919838297e-08
5.33123731543e-09
1.38220093985e-08
1.51949540281e-08
1.29864463428e-09
4.13122250107e-09
8.06277145685e-09
2.04045289575e-09
1.56787515336e-09
5.92579852321e-10
1.71259340456e-08
4.40104333372e-09
3.36138867279e-08
2.61852448601e-09
1.15152924035e-08
3.30674606366e-08
1.65279369622e-08
8.13964873457e-09
1.73050065927e-08
4.06933267798e-08
1.41912531891e-08
6.64617148598e-09
3.28394063285e-09
5.84651432717e-09
1.99587089664e-09
1.68775951407e-08
1.80175904017e-08
2.16468347242e-08
2.81719725974e-08
2.82812183039e-08
2.13545807035e-08
3.0040390853e-08
6.64407730553e-09
9.02605649797e-09
1.33044356623e-08
2.15485042556e-08
2.10671512865e-08
9.4537508739e-10
2.50372535472e-08
1.53398362038e-08
2.44932648746e-09
6.53950264364e-09
5.99454948235e-09
3.68459084305e-09
1.92909443472e-08
2.31484369804e-08
4.18246304384e-09
8.08135946083e-09
4.49704052561e-10
1.14210005711e-08
1.58591457061e-09
2.11215167616e-08
5.00261374541e-09
8.87527989516e-09
3.31494366962e-09
1.17292623599e-08
6.6884642543e-09
1.00850081469e-08
3.25710426442e-08
1.46885615422e-08
3.46628340524e-09
5.19475031107e-09
4.83157302628e-09
1.61073691604e-08
1.02894498198e-08
5.14864727778e-09
3.01699554368e-08
7.24146396879e-10
1.87390502314e-08
2.89562537121e-08
2.19143065801e-08
3.29483716134e-09
9.47884453039e-09
9.45542631596e-09
4.88600048568e-09
6.49901004031e-09
2.39222494247e-08
5.97237982724e-09
1.07824001913e-08
2.02033022184e-09
5.29180280689e-09
4.38231521067e-10
1.62667193158e-09
3.32938401138e-09
2.06800378016e-09
6.34868986777e-09
7.37661289669e-09
8.03727088766e-09
8.39241170845e-09
2.22911305556e-08
1.04472830578e-08
1.07601960434e-09
1.29564192693e-08
2.07318668498e-08
1.33609104243e-08
5.5121095837e-09
1.25857448854e-08
6.46949693762e-09
6.30982986256e-09
1.10522789044e-08
1.12427407702e-08
1.17996075689e-08
1.44121356355e-08
1.34101999199e-08
3.86966477256e-08
1.15362941846e-08
1.41225734475e-08
7.17120938706e-09
1.17275982064e-08
5.87717003352e-09
4.81011873173e-09
1.68766443134e-08
2.2787272232e-08
2.83102601013e-08
4.08755514219e-09
6.0014184426e-09
5.21821829969e-09
3.63539462863e-09
6.7342080623e-10
6.10915047798e-09
8.65847823328e-09
4.47989058154e-09
9.16505678978e-09
2.45008234155e-08
3.69780615774e-08
9.32960373344e-09
2.78501191682e-08
8.00522267086e-09
1.22719459991e-08
6.31038429482e-09
2.77880975356e-09
1.97654270184e-08
1.69104859279e-08
1.02331607595e-09
6.82757397373e-09
1.3465748992e-08
7.07308724561e-09
2.04830972655e-08
1.73123774636e-08
2.47345556059e-08
9.82180365564e-09
1.15184657633e-08
2.8509807215e-08
6.12820127597e-09
1.19400268496e-08
7.17058362015e-09
8.74052866334e-09
7.67282436965e-09
1.18110348826e-08
1.11849793841e-08
2.8362115071e-08
9.14020073641e-09
9.8615160642e-09
1.07357089438e-08
1.61536267231e-08
1.38186585169e-08
3.67464133341e-09
5.60009099365e-09
3.62205422009e-09
6.47400314172e-09
9.48544861401e-10
2.74599422769e-08
7.40789776456e-09
2.43250837406e-09
2.27537851116e-09
3.05135488495e-09
2.34284093572e-09
4.5253988276e-09
1.01122683815e-08
1.57268751982e-08
8.68180458362e-09
1.88383595222e-11
1.69834751563e-08
1.33511835471e-08
6.25843119821e-09
1.23771492467e-08
6.95777796687e-10
2.29037479593e-09
2.8485713998e-09
1.02786491243e-08
2.32888242812e-10
2.26833927738e-09
9.67362371944e-09
2.18905544247e-09
9.69317882393e-09
8.24469574012e-09
1.26054713775e-09
2.12648369646e-08
3.88898310707e-10
7.66032368124e-10
1.85109333557e-09
9.83531320732e-09
1.0762544572e-08
9.67926269006e-09
1.7543630142e-08
1.32986662475e-08
1.40293995484e-08
6.20857637744e-09
1.43406814697e-08
2.2561078371e-09
2.81688986802e-09
1.8063102161e-08
6.58148564654e-09
1.16339415792e-08
6.8493083598e-09
8.14911050886e-09
9.06598978344e-09
4.56669859804e-08
1.49133868031e-08
5.87437120248e-09
3.06481572274e-08
2.83394985239e-09
9.04407670289e-09
3.17271636922e-08
2.73687155922e-10
4.37043089191e-09
8.46766347316e-09
4.79729600061e-09
2.00765991424e-11
4.51201008547e-09
6.20003613118e-09
1.15544405177e-08
2.7714284859e-08
3.28560596574e-09
7.84155603264e-09
3.60607315045e-09
6.4151654182e-09
5.2178311965e-09
1.55680633324e-09
7.09766814806e-09
4.51320945259e-09
4.55287141154e-09
2.1057408144e-10
2.40840723959e-09
1.48477001236e-09
4.73153166844e-09
1.09105236484e-08
8.88263938277e-09
1.01182677166e-08
1.64140807322e-08
7.59122918377e-09
2.3744366072e-08
8.19785944547e-09
2.57945671381e-09
1.04425290867e-08
7.05361532573e-09
2.95787009403e-09
1.01823542288e-08
8.15350355883e-09
7.84803969067e-09
5.31926291858e-09
5.45114406846e-09
5.52471822213e-09
1.90155555699e-09
9.4675053779e-10
8.21574652639e-11
4.43408493672e-10
1.30526027567e-08
5.032937278e-09
1.46227602305e-08
3.25097029721e-09
1.9561667057e-09
4.60516525954e-09
6.61136336573e-09
1.19397805587e-08
3.26110479412e-08
2.34782012147e-09
1.77489734174e-08
1.0233412945e-08
3.71223140507e-09
9.92997201669e-09
1.0751379114e-08
9.72719757442e-09
6.72079073749e-09
2.61706022595e-09
9.12363428439e-10
6.17965382096e-10
1.25110989446e-08
2.76775112821e-09
1.4379987109e-08
1.91457750307e-08
8.88357166342e-09
7.23467575681e-09
1.06612127459e-08
4.74427806127e-09
5.54986035866e-09
5.98750603426e-09
2.96334967389e-09
1.3108553582e-09
1.28393381559e-08
6.93215866262e-09
1.38275932934e-08
2.61669372159e-08
1.02792297735e-08
1.39042253595e-11
1.7377035463e-09
1.34820650064e-08
2.0898809034e-08
8.1643765908e-09
6.83989848026e-09
1.48343871833e-09
7.65422600157e-09
6.38513881726e-09
2.20969471999e-08
8.09653793498e-09
1.14785942317e-08
2.74346457481e-09
3.60818543751e-09
2.32494721045e-08
2.51761320865e-08
5.38841636915e-10
4.78040720337e-09
3.49819594492e-08
4.88488361373e-09
1.25472416445e-08
2.21319968457e-08
1.12152695912e-08
5.75313432102e-09
3.90649570901e-09
9.03353871965e-09
8.47189155545e-09
4.73688073713e-09
1.18619750427e-08
2.01068978212e-09
5.9870188038e-09
2.12786895235e-09
8.90169965216e-09
1.48132509303e-08
1.20780239583e-08
3.85453833136e-09
1.49445103075e-08
2.02311996177e-08
9.57624764065e-09
1.38713336339e-08
2.69151233696e-08
1.34636945756e-08
7.06839171531e-10
4.50679991483e-09
1.43968406289e-08
5.90945490007e-09
2.14894112783e-08
2.27375726641e-08
1.21722976845e-08
1.85412080203e-09
1.11431820851e-08
5.69203400981e-09
1.83417803639e-09
2.0787188145e-08
1.9140831615e-08
2.79528403749e-09
2.71300613524e-09
6.00377982626e-09
9.27004273926e-09
6.27708448239e-09
4.23698544273e-09
3.36216594484e-09
9.18650931992e-09
9.42698442231e-09
1.51799449089e-09
8.19174375204e-09
5.18512579667e-09
3.16578946867e-09
1.0288243955e-08
1.63038381437e-10
9.63042482515e-10
6.85921980941e-09
1.34099466555e-08
2.61839172651e-08
3.37611488539e-08
1.48296402657e-08
1.10072532659e-08
1.46341282843e-11
8.50141144069e-09
1.44882150473e-11
2.94629322313e-10
2.54067187546e-09
1.78380598838e-08
7.24535765979e-09
9.92964163228e-10
3.4997610316e-09
8.74100651743e-09
8.71281486377e-09
4.47413872016e-09
1.39663737402e-09
7.01525424501e-09
4.34173077388e-09
2.86353697287e-08
1.51305186549e-08
1.97621116678e-08
1.25048609692e-08
1.64835479384e-08
6.64106799855e-09
1.50133719445e-08
2.45283090232e-08
1.20580273339e-10
2.44295817614e-08
3.74726350616e-09
7.91676045847e-09
2.42629750748e-08
1.41106564483e-08
3.58249447853e-09
3.16087718728e-09
1.03200261713e-08
1.51705434687e-08
3.38755830897e-08
1.18269896076e-09
3.53108519546e-09
6.98624603388e-09
1.84840174582e-10
1.13560244538e-10
5.25752209742e-09
3.36515565589e-09
3.30116090727e-10
4.77500334555e-09
6.30420065515e-09
3.64467244496e-10
4.13067122708e-09
2.75988230488e-09
1.41188526792e-08
4.37619341777e-09
3.68109596705e-09
6.47804400391e-10
5.32325810584e-09
1.45437289214e-08
1.00423226962e-08
8.69249498722e-09
2.34859010638e-09
1.55737319019e-08
8.56401540513e-09
1.83815949569e-08
8.99769837851e-09
2.44103260053e-08
1.86728775539e-09
1.17339023923e-08
1.10668851121e-09
1.60249563175e-09
2.25852722241e-09
5.55801792682e-10
1.87090206736e-09
1.46564816004e-09
1.92422435852e-08
1.70273093783e-08
5.36188819335e-09
1.60010097423e-08
5.00529768437e-09
1.41456137655e-08
4.81626879246e-09
6.1279261803e-09
1.91077499011e-09
2.65552031241e-10
7.92982149259e-09
1.14597205783e-08
7.19365192404e-10
4.50571238899e-09
3.0765094611e-08
3.07187834536e-09
8.55880078221e-09
2.03109318079e-09
1.30083455054e-08
2.50758996765e-11
2.58855621635e-08
8.90381361068e-09
1.14189322252e-08
6.66028569679e-09
2.47480508154e-08
1.3284016622e-08
8.5720223229e-09
1.55106216414e-08
1.72055663738e-09
1.10787603135e-09
2.67663889724e-09
1.12922256589e-09
1.06307803813e-08
2.19145845033e-08
2.30856032422e-09
1.80047622264e-08
1.77066327036e-08
1.71239906765e-08
8.93972643485e-09
1.71636941003e-08
7.28267600381e-09
1.37897760414e-08
3.0944565705e-08
2.91571567356e-10
5.7984615212e-09
2.4278897811e-09
8.79476662669e-09
2.71464472904e-09
1.8590171056e-08
1.75756826737e-09
5.02614275895e-09
3.17341240589e-08
1.08189384968e-08
5.27239371353e-09
9.43812347354e-09
1.35378556186e-09
2.01283284637e-08
1.53198194515e-10
1.45761071369e-09
1.93963533137e-08
5.12613920439e-09
8.33581898503e-09
4.46143420675e-09
3.07406006754e-09
1.49826568064e-08
1.07294887881e-08
1.39164698641e-08
1.11553471545e-08
1.21721690958e-08
9.09236366431e-11
2.79484887631e-09
2.01652600299e-09
5.32553743417e-09
8.64308035672e-09
8.91378176614e-09
1.55164407666e-09
1.01147257109e-08
2.7437508396e-08
6.3367811232e-09
4.53484505882e-09
2.60128000554e-09
1.39310958468e-08
3.46347966611e-09
6.18584568532e-09
6.99761565904e-09
1.06379813031e-09
4.98861281418e-09
6.6266676323e-09
2.67953112023e-08
7.83643834441e-09
8.11686275258e-09
2.13726637467e-08
5.77395626844e-09
1.98835906876e-09
1.28486076678e-08
6.52912756306e-09
8.15449960703e-09
1.25797841207e-08
4.48861274687e-10
7.98509607084e-10
1.24389174035e-09
1.86563452597e-09
6.10326916933e-09
4.53330746995e-09
9.63202184946e-10
9.66467148276e-09
4.25644526588e-09
1.55897606149e-09
2.0592080401e-09
2.09282752846e-09
6.36934399147e-09
7.22879579092e-10
5.71184624846e-10
7.7181173818e-09
1.15268512024e-09
4.93703907231e-09
1.01063241118e-08
1.68453440378e-08
1.07989607314e-08
2.58860461605e-09
1.30352605819e-09
2.64915646449e-09
1.99003527382e-09
3.49916039898e-09
4.33147375558e-11
5.65000123859e-10
1.15245405284e-08
5.08501116927e-09
9.94968308696e-09
4.01436237743e-09
9.65036451275e-09
1.02317147679e-08
5.10112010434e-09
3.91377063384e-10
2.43975536047e-08
1.04835134741e-08
1.725469851e-08
9.77355684481e-09
1.19602999604e-08
2.98362591075e-09
3.52128227648e-09
1.0345239574e-09
6.20539996956e-09
1.77596673426e-09
1.48383725603e-08
2.28999741684e-10
2.2422768756e-09
5.69803922165e-10
2.54905328585e-10
4.41825317787e-09
1.29371680401e-09
2.41416527202e-09
1.85765151497e-09
5.41752741887e-09
3.75089307062e-08
8.79375751735e-09
2.57442328763e-10
6.82525258706e-09
1.55002262431e-08
3.16637226385e-09
7.86264402815e-09
1.19430598647e-09
2.36471783565e-09
3.31598367972e-08
1.22365326516e-09
3.22375146292e-11
4.95629501849e-09
8.74311422635e-11
1.81180879204e-09
1.22943022594e-09
1.2713249806e-09
3.75789402866e-09
2.55668005508e-08
1.63044463465e-08
8.83060527265e-09
6.34808266814e-09
2.09994084205e-08
9.29609311317e-09
1.0960902541e-09
2.36797067497e-10
2.20097652e-08
2.70685103607e-08
3.98753416528e-09
2.95227155637e-09
1.20465751718e-08
1.59803060277e-09
1.30073402763e-10
1.067440542e-08
2.38935886609e-08
4.21470640297e-09
1.8959631484e-09
4.46621534156e-09
9.77827112476e-09
8.10751021337e-09
2.19011329457e-08
2.96656022268e-08
3.36889364393e-08
3.9458393905e-10
1.16694231481e-10
2.72323579617e-09
1.63559308987e-09
9.39594770444e-09
2.44460340117e-09
4.3798413405e-09
4.02872052897e-10
3.00982547331e-09
2.41981038187e-09
1.49038028632e-08
1.03727550677e-08
5.51814788221e-09
1.49836284851e-09
3.41318926018e-09
1.21235535551e-08
5.05867646615e-09
3.74897167423e-09
4.72139578352e-09
1.05188533796e-08
2.8532598462e-08
6.0136551182e-09
1.39831106377e-08
3.72633912233e-09
3.99728117086e-09
5.61346328819e-10
7.36502310472e-09
2.09013148399e-10
2.12044077706e-09
2.00393609987e-09
1.98589593541e-09
6.40727085671e-09
1.21654074822e-08
5.74935927349e-09
3.62441757576e-09
2.54794784623e-09
5.85760887963e-09
1.2354590751e-11
3.16924167167e-09
2.50971840977e-09
1.35255752487e-08
6.11698253158e-09
7.6710233478e-09
3.6194553165e-09
1.82120051162e-08
4.68408145662e-09
4.60967982853e-09
2.44053289691e-09
3.33455023208e-10
4.4955728773e-09
2.71525760614e-08
3.0058630044e-08
2.00264715914e-09
2.50726337229e-09
1.02493676589e-08
1.99549047469e-09
5.19486427132e-09
1.32090959093e-08
7.07978948865e-09
3.73101140112e-09
6.40041740785e-09
5.37754471884e-10
1.99748822008e-08
2.82459851998e-09
9.15303729201e-09
6.99351748651e-09
1.57599394403e-08
6.83498299316e-09
3.69447304419e-08
1.33131117259e-08
4.49465907778e-09
2.47250032734e-08
1.5873320871e-09
4.11523972971e-10
7.302592333e-09
6.81872096496e-09
1.14538898436e-08
2.91041023035e-08
5.27260806431e-09
7.73949931897e-09
1.65413827477e-08
2.89441604627e-09
1.61375027428e-08
1.04897863007e-08
1.14038510612e-08
6.84711535919e-09
1.01293484937e-08
2.81364581052e-09
1.73602877152e-08
1.66079055197e-09
7.33689415833e-09
8.54439825629e-09
6.96926168461e-09
1.78876497699e-08
9.93817075325e-09
4.546899769e-09
8.0631695484e-09
5.40699677417e-09
1.94590634594e-10
5.60850497853e-09
1.13373753635e-08
2.13150594463e-10
7.92068000172e-09
3.67797096055e-09
1.35077417041e-08
2.3421674239e-08
3.88450987726e-09
8.11836809665e-09
5.61798629607e-10
1.67101921726e-08
3.00366503022e-09
8.15803251324e-09
1.43351648249e-08
2.10760325022e-09
3.45010290485e-08
1.0018301588e-08
9.25880699634e-09
7.28001074788e-09
3.36947922513e-09
5.99887990788e-09
3.95052166824e-09
4.00097760219e-09
5.43334399216e-09
8.02600877013e-09