# vtk DataFile Version 3.0
File Name: Molecule/sphere_excent/sphere_excent_0-s20.vtk
ASCII
DATASET UNSTRUCTURED_GRID
FIELD FieldData 1
TIME 1 1 double
0.0
POINTS 392 double
0.82152915001 -0.28757342696 -0.4900188148
0.98376703262 -0.043157409877 -0.16047769785
0.80750411749 -0.5349085331 -0.24341851473
0.51382488012 -0.00015103936312 -0.85655999184
0.26904723048 -0.48167565465 -0.83305186033
-0.001550711575 0.00055699900258 -0.99991726875
-0.30565145612 -0.49512368441 -0.81344366074
0.005987782497 -0.83984088898 -0.54294615984
-0.52611428499 -0.00082925986499 -0.85042470694
-0.30797499418 0.49208262563 -0.81436103582
-0.78642600775 0.30678460002 -0.53370261192
-0.7834995389 -0.34895926714 -0.51138812304
-0.46435475349 -0.78670859337 -0.40697935224
0.4531005919 -0.81647884846 -0.35594782233
0.10446147621 -0.98436886072 -0.13312090933
0.27290672064 0.48635834455 -0.82874327898
-0.017729066312 0.82346361876 -0.56481021643
-0.48139366508 0.0081544686109 0.87628906965
-0.45757061243 -0.13367287815 0.87890708447
-0.35088205338 -0.049741581082 0.93489646912
0.27318543196 -0.58685356379 0.76214396954
0.18949951231 -0.47375535965 0.86001843214
0.11100751907 -0.57348942757 0.81147092581
0.33162039518 -0.44606211782 0.83115720749
0.87944036722 -0.47245535254 0.029358725995
0.94710099697 -0.215638116 0.2349934876
0.81541335583 -0.41921254992 0.39791411161
0.11982207 -0.67979735136 0.72278791666
0.32121163607 -0.70114415884 0.63598698378
0.469173491 0.81517648697 0.33950057626
0.32143226266 0.93244957924 0.16387474537
0.27710422873 0.89042544365 0.36042252183
0.027140578255 0.96314054728 0.26750522852
-0.85997962952 -0.50411200523 -0.063027657568
-0.94188517332 -0.16056542099 -0.29472523928
-0.45879158378 -0.84565830231 0.27132388949
-0.29606664181 -0.94296002388 0.15154285729
-0.24612556398 -0.89508551359 0.37058186531
-0.9639043808 -0.17407360673 0.20134504139
-0.96152383089 -0.27405655384 -0.015102360398
-0.8754478693 -0.45456552505 0.16351127625
-0.99748820066 0.0048535517417 -0.067358121276
-0.96879422665 0.14009253681 0.2024513036
-0.18756744266 0.273404181 0.94341742992
-0.29229336977 0.28951224685 0.91146194935
-0.25549075007 0.18910634518 0.94808316231
-0.36156579852 0.17551699281 0.91543990374
0.010536133312 0.8509580493 0.52486974001
-0.18703874946 0.89266657829 0.40938991308
-0.27280783653 0.95398640633 0.12373187393
-0.1159048155 0.19319397211 0.97429209948
-0.017741434276 0.99825036526 -0.052116386592
-0.27229964733 0.94494444132 -0.17889364064
-0.5017285347 0.86138534546 -0.056268386543
0.8620518446 0.50142234564 -0.06659489125
0.71079421043 0.69023668766 0.1316409111
0.85739040375 0.46622186899 0.21711212397
0.74698483944 0.55950033665 0.35914984345
0.85431599617 0.32660853863 0.40320917964
-0.93889313936 0.16352374852 -0.30289721489
-0.95489060879 0.29529306293 -0.033454030752
-0.84014099836 0.45941767097 -0.28774249554
-0.69819170237 -0.69274687767 -0.18048633635
-0.72210538387 -0.68098306656 0.11791335046
-0.55253762007 -0.83338016272 0.0089086564258
-0.89023387432 0.41772729158 0.18159742653
-0.82050848007 0.5693256259 -0.050731144845
-0.19862827659 0.40006649494 0.89379060268
-0.70527637005 0.69902420044 0.11202443391
-0.1905221194 -0.82659131289 0.52945548296
-0.129229635 -0.74971139431 0.64888453484
-0.29806125164 -0.74212026596 0.60022687912
-0.22717368603 -0.67825943232 0.69869631529
-0.43556582928 -0.65749788284 0.61464178562
-0.32348680496 -0.61041980982 0.72287660837
-0.40021294355 -0.78594434261 0.47134155035
0.031226214021 0.27952870727 0.95956385136
-0.089840322733 0.3088901639 0.94681072235
-0.014287868515 0.17791248858 0.98343759775
-0.11095899343 -0.65353143215 0.74870210886
-0.060112088919 -0.21700945497 0.9743103981
-0.032925348729 -0.08051392436 0.9960168004
-0.14127317071 -0.12361498177 0.98220968246
-0.64588487148 0.1165196076 0.75395399332
-0.74111837149 0.21379235387 0.63529711962
-0.7468059659 0.034014463425 0.66414135695
-0.63604158163 -0.10811172426 0.76346319914
-0.74400067329 -0.11762242764 0.65773630142
-0.84230023623 -0.094895720482 0.53051543236
0.4998768568 0.56873714924 0.65269476175
0.58695113659 0.64714127779 0.4866297245
0.45362219214 0.71999031305 0.52524363995
0.67503964901 0.50995320082 0.53303140402
0.60521781445 -0.21310730278 0.7668774128
0.63572907448 -0.32989501953 0.69786405563
0.6775149107 -0.21501435339 0.70312726498
-0.057054311037 0.036227911711 0.99755084515
-0.12436949462 -0.031199235469 0.99174010754
-0.15652048588 0.05412915349 0.98619568348
0.62818568945 0.70999532938 0.31792590022
0.5249979496 0.84159499407 0.12622193992
0.7839486599 0.36100059748 0.50364166498
0.6108545661 0.44164305925 0.65700644255
-0.5885347724 -0.64593625069 0.48603731394
-0.54855632782 -0.5414673686 0.63707113266
-0.33635544777 -0.19660618901 0.92097914219
0.39822900295 -0.83480554819 0.37969440222
0.4469358325 -0.87811881304 0.17053462565
0.57379412651 -0.75864601135 0.30823174119
0.5726981163 -0.67287755013 0.46755251288
0.70722538233 -0.61822515726 0.34074607491
0.67568141222 -0.73165357113 0.090115711093
-0.43359312415 -0.26578727365 0.86096101999
-0.32356879115 -0.31337592006 0.89275211096
-0.41125872731 -0.37243485451 0.83193045855
-0.38557440042 -0.46307843924 0.79805529118
-0.49062600732 -0.45206895471 0.74491149187
-0.42875081301 -0.54867225885 0.71771997213
-0.51768994331 -0.34253060818 0.78399205208
-0.60202759504 -0.41860598326 0.67994248867
-0.61701577902 -0.31055465341 0.72308278084
-0.55620068312 -0.22582075 0.79973250628
-0.67277169228 -0.46816700697 0.57275491953
-0.71185278893 -0.33621004224 0.61658382416
-0.79693102837 -0.36375144124 0.48187705874
-0.79261249304 -0.22775000334 0.56556338072
-0.68128556013 -0.21866287291 0.69859951735
0.12094248831 -0.35836184025 0.92570817471
0.026127623394 -0.4745528996 0.87985891104
0.070295736194 -0.23115387559 0.97020876408
0.19891376793 -0.25288653374 0.94683295488
0.24938391149 -0.35509347916 0.90097016096
0.32897949219 -0.21878790855 0.918618083
0.10925537348 -0.065728917718 0.99167019129
0.15865246952 0.022131664678 0.98686528206
0.051390938461 0.018295153975 0.99842435122
-0.50885629654 0.2578831017 0.82129555941
-0.39902323484 0.29648309946 0.86762326956
-0.49200239778 0.37490832806 0.78548806906
-0.32082459331 0.39550682902 0.86058396101
-0.42091488838 0.39924681187 0.81424248219
-0.31164458394 0.51956152916 0.79536724091
-0.19930081069 -0.94895279408 -0.24267394841
-0.64903461933 0.35458147526 0.67304289341
-0.61995309591 0.24714578688 0.74465000629
-0.55730265379 0.34509834647 0.75447148085
-0.10456722975 -0.42590466142 0.89869505167
-0.0084227109328 -0.33907496929 0.94071680307
-0.18068607152 -0.20762483776 0.96136456728
-0.12529467046 -0.3101927042 0.9423776269
-0.7073302865 0.44561207294 0.54680544138
-0.55064064264 0.4928175211 0.67326265574
-0.0037512839772 -0.60655450821 0.79488360882
-0.0075844489038 -0.72483551502 0.68883985281
-0.20990952849 -0.59476488829 0.77601355314
-0.29379445314 -0.52003633976 0.80197566748
-0.092324592173 -0.5404753685 0.83621042967
-0.18762235343 -0.51592332125 0.83583045006
-0.2241293937 -0.44547465444 0.8667755723
-0.1293579042 -0.9912623167 0.017991937697
-0.36050140858 -0.9280077219 -0.093433126807
-0.1164118126 -0.94580459595 0.30055806041
0.29935157299 -0.043074786663 0.95312619209
0.20017765462 -0.06876988709 0.97734344006
0.25478047132 -0.14613610506 0.95579016209
0.16252054274 -0.15692441165 0.97414684296
-0.23524466157 -0.2820622921 0.9300724268
-0.21095277369 -0.36647453904 0.90615510941
-0.3119712472 -0.41179990768 0.85618019104
0.37670469284 -0.082057408988 0.92240035534
0.49330121279 -0.86656725407 -0.074891425669
0.67961400747 -0.71654355526 -0.15465705097
0.58999717236 -0.49320924282 0.63898187876
0.6668433547 -0.54138404131 0.51157975197
0.7158280611 -0.39816775918 0.57356905937
0.81887549162 -0.27998697758 0.50101202726
0.6885150671 0.27696844935 0.67019611597
0.72297304869 0.18360418081 0.66595202684
0.75893211365 0.29214984179 0.5819092989
0.64449191093 0.14599974453 0.75053340197
0.55638104677 0.060184367001 0.82873094082
0.53855210543 0.2303443104 0.81035369635
-0.17940205336 0.70651561022 0.68456971645
-0.10767673701 0.79062879086 0.60253483057
-0.30176872015 0.79675883055 0.52359515429
-0.37963050604 0.86249804497 0.33456417918
-0.46863996983 0.76464027166 0.44230854511
-0.55232673883 0.79192823172 0.25914344192
-0.41567793489 0.69600492716 0.58537769318
0.048299238086 0.734580338 0.67683357
-0.050644081086 0.67458486557 0.73640108109
0.07792275399 0.62546783686 0.77635228634
0.68116229773 0.016204364598 0.73189973831
0.75806081295 0.0782860443 0.64741241932
0.78378742933 -0.045901942998 0.61894589663
0.86153715849 0.046690221876 0.50541108847
0.78474032879 0.20624914765 0.58325725794
0.74613851309 -0.26202449203 0.61158627272
-0.1273868382 0.5672904253 0.8131775856
0.17885218561 0.75483727455 0.63097852468
0.19330622256 0.64504402876 0.73921209574
0.30561944842 0.66045027971 0.68487858772
0.1795065999 0.53625106812 0.82473546267
0.28649711609 0.53931987286 0.79166722298
0.27078470588 0.4296015799 0.86125832796
0.17830565572 0.85325789452 0.48984822631
0.3491653204 0.81256502867 0.46669706702
0.29820260406 0.76129478216 0.57573288679
-0.75778931379 -0.56901723146 0.31910833716
-0.85122185946 -0.39891564846 0.3406547904
-0.88221734762 -0.22254247963 0.41492643952
-0.86872506142 0.062244322151 0.49079453945
-0.92671257257 -0.063062630594 0.37019944191
-0.53608167171 0.83645313978 0.11082054675
-0.7289981842 -0.51398617029 0.45163357258
-0.65595215559 -0.68504065275 0.31609019637
-0.25235471129 -0.12519802153 0.95949453115
-0.2157664299 -0.043335042894 0.97553151846
0.38750872016 0.68291342258 0.61918759346
0.72600024939 -0.12561683357 0.67603337765
0.63911628723 -0.07893601805 0.76499551535
0.71574115753 0.36972758174 0.59156227112
0.42715606093 0.67945617437 -0.59647285938
0.49842181802 0.80042856932 -0.33281388879
0.25418096781 0.86621320248 -0.43004614115
0.24945652485 0.94602411985 -0.20635773242
0.0234580338 0.95405071974 -0.29855516553
[...]
CELL_DATA 780
SCALARS cell_data_0 double
LOOKUP_TABLE default
4.65154416005e-08
3.62709221379e-09
2.22377791107e-08
3.42418531303e-08
4.21779365204e-08
7.03935708798e-08
1.67160998523e-08
4.45326297011e-08
6.84480793426e-08
2.74671904837e-08
3.65490071801e-09
3.66921520461e-09
5.02857583062e-08
3.7371533949e-08
1.10369538267e-07
4.13263953151e-08
3.32281950015e-08
8.25610599659e-08
4.00905044143e-08
3.02388253077e-08
1.59790834422e-08
1.11160509262e-08
8.24665189211e-10
1.82898079938e-08
7.95396407236e-10
7.74877317255e-08
6.56951797883e-08
5.76000242701e-08
2.60037119142e-08
3.51908681408e-08
8.73051417932e-08
2.92736768626e-08
6.66690788944e-08
1.54331977448e-08
3.89760043553e-09
1.15856685091e-08
4.59523612822e-09
4.17404140196e-08
4.12697413624e-08
5.10776697914e-09
2.22816672654e-08
1.20454073506e-08
2.56613880816e-08
5.71128833844e-08
8.11788175721e-08
4.50350920595e-08
1.40614966795e-08
1.49876437835e-08
3.89820882959e-08
2.86692692058e-08
2.40978831541e-08
1.12018054032e-08
8.99677616675e-08
1.56831124519e-08
1.08561301142e-07
1.2269131076e-07
1.68675332296e-08
1.02535715588e-07
1.19357813452e-08
1.5275592448e-08
1.09357205634e-07
5.47461584623e-08
7.21991856759e-08
4.53465819615e-08
8.4306118235e-08
1.98788034739e-08
2.66578314353e-08
3.52696386953e-08
4.39186403262e-08
8.35040002836e-09
1.74222049387e-08
1.35478589914e-08
5.11108847893e-08
6.51852955443e-08
5.87586564656e-08
4.89213172304e-09
3.7825625552e-08
4.17508272308e-08
2.03878546867e-08
6.77886769818e-08
5.48390711176e-08
8.20574416268e-08
6.96758637943e-08
4.60391734461e-08
2.42899901345e-09
3.1566024712e-08
5.96540487482e-08
3.60465077836e-08
1.66937487437e-08
2.45151404331e-08
5.06718400987e-08
4.66415206884e-08
3.03768694349e-08
2.38369011583e-08
2.61229821667e-09
3.10529056498e-08
3.29781362661e-08
4.60232670071e-08
7.08168921111e-08
1.04570954456e-07
1.69339846102e-08
7.79810747927e-09
3.04750157949e-08
2.79470489921e-08
4.27537560815e-08
3.83479085184e-08
4.45722306382e-08
3.22271308786e-08
1.91292756202e-08
3.23397786084e-08
9.12132946365e-08
4.17045485535e-08
1.41973753395e-08
5.61811611103e-09
3.63417884075e-08
4.02685623875e-08
1.15645113518e-08
5.0078055281e-08
1.09313413845e-07
6.6783215302e-09
1.24898024186e-08
2.04050805112e-08
9.11404442291e-08
3.42866579491e-08
5.4502223393e-08
2.45606016188e-08
3.29239766076e-09
4.2292102982e-09
4.84203414038e-09
1.02122043483e-07
6.9239454351e-08
5.57191186108e-09
4.29719773413e-08
3.7975057685e-08
3.96505583293e-08
8.66648866081e-08
4.88347581844e-08
6.19106762045e-08
4.98419650341e-09
4.00309472616e-08
1.05615983984e-07
8.03854252715e-09
1.97511651234e-08
7.31437809978e-08
8.93412775843e-09
2.79233158737e-08
6.55134766205e-08
5.35809255033e-08
2.06692304636e-09
7.66131235519e-08
4.37649237066e-08
8.69851944095e-08
4.00261864561e-08
1.98413523911e-08
2.25492055538e-08
2.23474329568e-08
4.18752797752e-08
1.16022328802e-11
8.90835496167e-09
3.30209014724e-09
1.54286944439e-08
4.63149202093e-08
3.37957254079e-08
2.11942713918e-08
3.4755515773e-08
5.57762242251e-09
5.70533721325e-08
8.02410742479e-08
2.72329848976e-08
8.9452875107e-09
1.29731075389e-08
1.89207402896e-08
1.58264314551e-08
4.05568437932e-08
3.51116273411e-08
1.61624878278e-08
2.75115496841e-08
4.11354210982e-08
6.47354796708e-08
9.70679626465e-08
2.60092604969e-08
2.62204385981e-08
3.70822089821e-08
2.44330928925e-08
1.14748199451e-08
2.26456239273e-08
3.22921046439e-08
2.9142093251e-09
2.50812053845e-08
5.67302826093e-09
1.18353834104e-08
4.88526480878e-08
1.07164921231e-08
2.57255414105e-08
2.27086619472e-08
6.02909770197e-08
4.72542896021e-08
4.04030080366e-08
9.09046691775e-08
1.08684245945e-08
7.16181156651e-09
2.22182561152e-08
4.270820181e-09
2.4399509555e-08
6.41313644047e-08
2.8048934428e-08
3.42167100831e-08
2.67864865097e-08
4.14308325108e-08
7.47571639609e-08
1.00351047387e-08
8.97624757915e-08
4.63561740232e-08
7.78881611566e-08
2.91554206326e-08
4.14344710494e-08
3.02119511156e-08
8.11293887271e-09
6.54486958857e-08
5.8853014981e-09
6.49806994387e-08
2.58846806338e-09
1.56606490885e-08
4.80579972437e-10
1.81986998549e-08
2.55849414752e-08
4.68912080086e-09
4.84609397521e-08
8.40527504682e-09
4.60452774668e-08
4.41459682717e-08
6.80128819203e-11
2.88263762371e-08
2.31762675223e-08
1.60645912916e-08
1.52297411292e-08
4.81330810873e-08
2.42104015776e-08
1.0453820108e-08
2.49602038625e-09
5.09894535937e-09
2.41023894906e-08
2.59912770394e-08
5.86843597059e-08
2.08930276618e-08
8.54824493385e-08
9.92568959187e-10
1.7000474139e-08
2.54990581464e-08
2.9471567586e-08
9.66875157296e-09
7.46118204754e-09
8.55768230916e-09
3.9196474942e-08
7.82242565939e-10
2.4469312739e-10
5.42010870951e-08
1.72023752619e-08
9.11570908574e-09
6.43366411375e-11
2.61044394497e-08
3.26507834184e-09
3.56865705084e-09
1.93976256481e-08
4.58344867886e-08
5.11622678999e-08
3.20267496902e-08
2.03741859821e-08
2.77706880776e-08
4.38243430051e-08
2.95482563392e-08
1.80401201962e-08
4.1068362566e-08
2.89846791573e-08
1.46775660838e-08
2.76218074382e-08
1.1569693776e-08
2.28491804911e-08
5.78966986318e-09
1.00020777713e-08
1.46257576781e-08
3.98900462034e-09
1.34313345812e-08
5.16356930663e-08
6.40160883447e-09
2.28424624778e-08
2.01973183371e-08
1.77284315567e-08
1.68584631242e-08
1.51416306711e-08
4.73719542924e-08
4.88091401762e-08
5.35651117451e-08
2.70096455361e-08
5.16556768728e-09
3.29980240297e-08
2.59169453113e-08
5.73386542008e-09
2.51800537096e-08
2.23907132131e-08
3.27692586607e-09
1.17041380627e-08
2.41274404227e-08
1.31205870645e-08
1.05548018833e-08
1.98627755827e-08
1.13748240914e-08
8.22476904252e-08
2.65996508213e-08
3.18410217076e-08
5.09140674517e-08
1.25816748366e-08
6.1325609531e-09
3.65695928072e-08
1.76977919436e-08
1.32184365117e-08
5.90483314516e-08
4.22643119168e-10
8.55979177847e-09
3.91704127359e-08
1.01070270489e-08
4.63780802834e-09
4.51662842366e-09
1.80093276165e-08
2.74011100945e-08
5.18241005923e-09
3.34955284316e-08
4.97313036426e-09
2.15978010698e-08
1.46244540396e-08
1.04164470705e-08
8.16444474522e-09
1.6731809454e-08
1.83803331837e-08
3.32743793249e-08
3.30388028392e-08
2.36723769598e-09
2.82582154993e-08
4.05918833339e-08
4.62615617542e-08
3.068626596e-08
2.08175227175e-08
4.96444984159e-08
4.75713064331e-09
2.70945977248e-09
3.66925540899e-09
3.08310172427e-08
6.04030024435e-08
5.59285196898e-08
1.59556161679e-09
8.23574343032e-09
1.65094118845e-08
1.03576586449e-08
3.13055716639e-08
1.00127904779e-08
3.06164993519e-08
2.18267196325e-08
1.23711509024e-10
4.27933896251e-09
2.35057386772e-08
1.13923642169e-08
4.73472744804e-09
1.80663051584e-08
8.44156246693e-08
1.96362882037e-08
8.70682053511e-10
6.1185350113e-08
4.06594124814e-09
3.03310414333e-08
5.63504529344e-10
2.93592864809e-08
5.12473052183e-08
2.26796769776e-08
1.65847259984e-08
2.30726353697e-08
2.52156676583e-08
1.05803078417e-08
8.89687965329e-10
1.23336650162e-08
5.26620070995e-08
7.57948486777e-09
3.22493759574e-08
7.41000241808e-08
1.43716068421e-08
5.30692107934e-08
2.97700104981e-08
1.44751322324e-08
1.94757960755e-08
2.11460503783e-08
2.67028209708e-08
4.55192344889e-09
2.43938335623e-08
5.85421818322e-09
3.79818833328e-08
2.51094883814e-08
5.69201998311e-08
2.19581967626e-08
1.8953109872e-08
6.3616121952e-08
6.25165274145e-09
6.4805354935e-08
4.14069553934e-09
1.19906977521e-09
2.48783199612e-08
2.30332475603e-08
2.82860383562e-08
3.18143672356e-08
2.46394820224e-08
2.12603713248e-09
5.3151723723e-09
1.5698928735e-08
9.44243523076e-09
3.59263726097e-08
6.19282170657e-09
2.28736457036e-08
1.09514279286e-08
2.5573537271e-08
2.79345407318e-08
2.2473522559e-08
1.14420916581e-09
7.79747359484e-09
1.11915328349e-07
8.58685889355e-08
8.21301236502e-09
2.05201485957e-11
7.3254357141e-09
5.87280667478e-09
1.10988123698e-08
1.37582970777e-08
3.33647565956e-10
1.24413847444e-08
1.07332121083e-08
1.47357214437e-09
1.22283784825e-08
6.02509884153e-09
5.59245084303e-10
3.53944209546e-08
3.12909183962e-08
1.02173054319e-08
7.52809518866e-08
2.16640786433e-09
4.80267035305e-08
1.61364720799e-08
1.60329273153e-08
1.59706498244e-08
3.01761212963e-08
6.71788684895e-08
1.13742160051e-09
2.22287343966e-08
6.52430087158e-09
5.15271592863e-09
3.1458262238e-09
6.94878517909e-08
3.7484844609e-08
1.56223381682e-08
1.10179887921e-08
2.00924589202e-10
6.10808022318e-09
2.89635345995e-08
3.84583242605e-08
4.66456457717e-08
4.10827606914e-09
2.94699731747e-08
2.41357309011e-08
6.36413098551e-09
1.06155711024e-09
6.54793030765e-08
3.64607884478e-08
1.19408247821e-08
1.45664394331e-08
2.33851878246e-08
7.20537866324e-09
2.88303314716e-08
2.92766741378e-08
4.00601303238e-09
4.19376088431e-09
6.44659051553e-09
7.96039278704e-09
1.15686720732e-08
3.35041057437e-08
8.24329408839e-09
7.7921131065e-09
6.49562638216e-09
1.55104003824e-08
3.43842521833e-08
4.75117244479e-09
1.44542899538e-08
4.96465618093e-09
4.10431998426e-08
2.25812625248e-08
8.22174663622e-08
4.8048280497e-08
3.22674329961e-08
3.02879241606e-08
9.08806675908e-09
3.90665564451e-08
4.74656574871e-08
4.31418110397e-11
5.37149692076e-09
1.92484856203e-08
1.33494813088e-08
1.24165695829e-08
2.44173713596e-09
4.48043386395e-08
2.37442901074e-08
2.82322867535e-08
1.49529065849e-08
4.29518842319e-09
3.78063269196e-08
4.46212480364e-08
1.27432424116e-07
5.49096292666e-08
2.72404097444e-09
2.66846739292e-08
9.07958917611e-09
1.65024570167e-09
1.00977935567e-09
2.46262549643e-09
1.41500447127e-08
7.87498751366e-08
2.85061036135e-08
1.19675383663e-08
3.11366265894e-09
1.06683234952e-08
7.8320992855e-08
1.75312206994e-08
4.04170768726e-09
5.42800012884e-09
5.34303224289e-09
7.92125564209e-09
9.58644266221e-09
1.00181583331e-08
2.81789753619e-09
8.56214033999e-09
1.49363792618e-08
2.43495191608e-08
6.23939643168e-08
2.35477319365e-08
7.72803205509e-09
1.77642773911e-08
4.87154867281e-08
2.4821961904e-09
9.72284162993e-09
2.94664144657e-09
1.33476307724e-08
1.49414104605e-08
3.04542799655e-08
2.7594496173e-08
5.55828997141e-08
7.36117941723e-09
1.20267315983e-08
7.17674782702e-10
6.0812573122e-08
5.27199998133e-08
1.55929632873e-08
1.65008383125e-08
1.23472064172e-08
1.01680140767e-08
8.3536599256e-09
1.3366698001e-08
5.11829790887e-08
1.07997356413e-08
8.33989177566e-09
3.52344817346e-09
4.42428918042e-09
6.80237941585e-08
1.12354915113e-08
2.52232199e-08
4.49454534873e-09
7.28242785448e-09
8.43733138003e-10
1.04497025088e-08
9.3580702038e-09
4.18669742997e-09
6.08299132704e-10
5.85102885815e-09
1.30353871318e-08
2.46592049933e-09
5.62461992184e-10
6.27727536669e-09
2.86129645023e-08
7.44247943713e-08
6.9518655332e-08
2.25739497063e-08
3.7770601515e-08
1.06747760626e-08
1.97803156307e-08
2.75984411338e-08
7.91847405037e-09
1.01049665719e-08
5.35492057287e-09
3.28925621641e-08
6.81511460552e-08
5.549979629e-09
1.56390786645e-08
5.86245235541e-08
1.8007011372e-08
3.37287333135e-09
8.37713766993e-10
5.24931791502e-10
1.78607934558e-08
3.74679945882e-08
1.44434299577e-08
6.57334896755e-09
7.89022984379e-09
4.41284736818e-09
2.96070454135e-08
7.91090228547e-09
7.87756940419e-09
3.53746606752e-08
3.08020892111e-09
7.42161909432e-09
2.119072288e-09
1.32169954542e-08
9.26552762432e-09
8.87062171762e-09
4.19457870473e-08
2.65978375476e-08
6.50157663974e-09
1.76685387279e-08
6.22235066565e-09
1.63174691948e-08
8.99470445212e-09
6.26900506179e-08
2.33494375153e-08
1.57088110566e-08
2.94830870878e-08
4.84692805679e-09
1.8840275217e-09
3.60637674344e-08
2.99182917094e-08
9.56723760889e-09
9.11171553183e-09
2.61111653838e-08
1.0084737217e-08
2.84168589936e-09
1.61901099238e-08
2.73027280889e-09
1.99773328838e-08
2.90649379231e-09
4.52660208133e-10
7.66123618069e-09
5.04798752282e-09
6.14628012406e-09
5.94495283487e-09
8.73461249417e-09
4.69121871048e-09
4.58777110726e-10
3.12246115134e-09
1.44532315279e-08
7.32301469486e-09
7.15387852904e-09
8.97784870151e-09
1.88959434037e-08
2.49009841505e-08
1.03745957628e-09
3.64876910537e-09
3.03993211284e-08
5.82979386681e-09
3.17688646856e-09
2.89669619193e-08
1.27560120444e-08
6.681061794e-09
5.72938938893e-10
7.52503890731e-09
1.00610512617e-08
1.71216977636e-09
4.29173839278e-08
4.6781620237e-08
7.08000141362e-09
2.53083179623e-08
1.89366729272e-09
4.21143894884e-08
5.41142061713e-08
5.69305629577e-08
8.23247674813e-09
3.3223301093e-08
1.14975686286e-08
1.08764263372e-08
1.78269754696e-08
5.01699768154e-09
4.39053450987e-08
4.4510437004e-09
7.20339189856e-09
6.55838323188e-09
2.11058876159e-08
2.20562428798e-08
5.78135774054e-09
2.88792336413e-09
2.43860608387e-08
3.48066855912e-08
1.11458193085e-08
2.02018272946e-08
7.40180344089e-09
5.74272735024e-08
2.0548874862e-08
7.27013289384e-09
2.55047087248e-08
5.8109130049e-09
2.17316338259e-08
2.62307106843e-08
1.46783667365e-08
2.60581908048e-08
5.16315340927e-09
1.21888890094e-08
4.74825505304e-08
1.78776363187e-08
1.36685991029e-08
1.04008603334e-08
1.41240980708e-08
4.38006829081e-08
3.66822698102e-09
1.34268353534e-08
1.72312420328e-08
6.3028372928e-09
2.34821139208e-08
4.29192373739e-08
1.99387666364e-08
2.10479922946e-08
1.09370596948e-08
1.32272633259e-08
3.50610466152e-09
2.94456060527e-08
2.18921975581e-09
3.17891464098e-08
5.21623705725e-09
1.48772191205e-08
8.08526103968e-09
2.50819389862e-08
1.15896395038e-08
7.7834363481e-09
7.24274649219e-09
4.06122715109e-09
2.75457769307e-08
1.10534040468e-08
7.9201513217e-09
6.24311081259e-09
7.19734515591e-09
1.42843347715e-09
7.68780788157e-09
4.69316806067e-09
4.91073264262e-09
8.59214732576e-09
9.22620345615e-09
7.46047977929e-09
6.62976852507e-09
4.70406759771e-08
2.15582711573e-08
1.68547645355e-08
3.46433780452e-09
1.23982214328e-08
2.53244009612e-09
3.0686908781e-09
7.08895658956e-09
4.59044461792e-09
4.02201956511e-09
8.15345219228e-09
5.29022203226e-08
1.07195215521e-08
4.8775602583e-09
1.40307873738e-08
7.27443082716e-09
4.30977171305e-08
1.99475643615e-09
1.2058584803e-08
2.24073282464e-08
2.63371534484e-08
1.18576242815e-09
1.39135634379e-09
2.4535258491e-08
1.81427309259e-08
2.02810527421e-08
5.60266604829e-09
1.46110464192e-08
1.66854828362e-08
1.27686518808e-08
6.6938608146e-09
3.52440608558e-09
8.31412882472e-09
1.20777784365e-08

