# vtk DataFile Version 3.0
File Name: Molecule/sphere_excent/sphere_excent_0-s25.vtk
ASCII
DATASET UNSTRUCTURED_GRID
FIELD FieldData 1
TIME 1 1 double
0.0
POINTS 809 double
-0.025548158213 0.99773067236 -0.061036579311
-0.24240969121 0.95520216227 -0.16857466102
-0.28343242407 0.95872819424 0.018579220399
-0.46091920137 0.88349723816 -0.082463636994
-0.93626105785 0.16224318743 -0.31173664331
-0.9447222352 0.3126296103 -0.094940550625
-0.84662938118 0.44337457418 -0.29433059692
-0.21844512224 -0.68084943295 0.69907921553
-0.27082845569 -0.74344146252 0.61124914885
-0.14350934327 -0.76057642698 0.6332026124
-0.10367955267 -0.68230605125 0.72364658117
-0.29161918163 -0.93788689375 0.18513830006
-0.44885838032 -0.86678272486 0.21498548985
-0.36119288206 -0.93081569672 0.045906264335
-0.66552275419 0.12390846014 0.73600006104
-0.74760466814 0.19944186509 0.63350409269
-0.75509029627 0.075913451612 0.65119534731
0.60916191339 -0.23421917856 0.75763446093
0.6424561739 -0.30751127005 0.70190626383
0.68014365435 -0.21840569377 0.69978874922
-0.077470481396 0.035424347967 0.99630433321
-0.16804431379 0.040819056332 0.98490864038
-0.13039021194 -0.032353434712 0.99092334509
0.68071901798 0.50864583254 0.52706515789
0.74016666412 0.56922256947 0.35690277815
0.63484734297 0.62900370359 0.4484769702
0.60341584682 0.73201662302 0.31332370639
0.53456437588 0.70576196909 0.46499353647
0.41864576936 -0.83376967907 0.35972133279
0.45155343413 -0.87700968981 0.16406811774
0.57802206278 -0.76434773207 0.28557798266
0.59007704258 -0.67514181137 0.44254159927
0.69576442242 -0.6398819685 0.3262565434
-0.41282579303 -0.26313617826 0.87196278572
-0.33189001679 -0.31646198034 0.888648808
-0.36033156514 -0.20306093991 0.91042822599
-0.54599434137 -0.32348710299 0.77277076244
-0.62995862961 -0.30994087458 0.71212947369
-0.60610276461 -0.41504088044 0.67850542068
-0.5147767067 -0.46016764641 0.72333145142
-0.55811977386 -0.51475840807 0.65075737238
-0.56578832865 -0.24286021292 0.78795892
-0.66201877594 -0.4903151989 0.56642115116
-0.7052809 -0.33244436979 0.62532353401
-0.7029889822 -0.23706898093 0.6704942584
-0.79558360577 -0.23029410839 0.5603877306
-0.73974788189 -0.13988691568 0.65812832117
0.11434970796 -0.058218438178 0.99157011509
0.15400187671 0.010040229186 0.98800760508
0.070832073689 0.0011414745823 0.99733144045
-0.38526874781 0.28185105324 0.87870383263
-0.3494707644 0.36471319199 0.86304712296
-0.43084833026 0.34547048807 0.83364510536
-0.30593234301 0.29198542237 0.90580534935
-0.6895198226 0.45721516013 0.56171190739
-0.65055805445 0.38311767578 0.65567010641
-0.59500235319 0.47711908817 0.64664447308
-0.32045063376 -0.60373955965 0.72995084524
-0.23213720322 -0.59004634619 0.77325159311
-0.2930406034 -0.51894032955 0.80300718546
-0.084324166179 -0.44463908672 0.8917325139
-0.086545720696 -0.52988773584 0.84363216162
-0.0003106984077 -0.4799836576 0.87727254629
-0.24950785935 -0.294688344 0.9224037528
-0.23900464177 -0.3594096303 0.90199840069
-0.31295654178 -0.41600170732 0.85381299257
-0.23971669376 -0.46738427877 0.85085761547
-0.41595822573 -0.57657170296 0.70315748453
-0.38407662511 -0.52836459875 0.75708287954
0.19984993339 -0.2312309593 0.95215052366
0.15351866186 -0.15942566097 0.97504287958
0.091165907681 -0.21430929005 0.97250324488
-0.39237129688 -0.37569513917 0.8395332098
-0.19472381473 -0.5227330327 0.82993865013
-0.16138377786 -0.46555504203 0.87005853653
-0.36454877257 -0.47464153171 0.80105876923
0.44461524487 -0.827298522 -0.33877110481
0.64808571339 -0.74875116348 -0.1375528872
0.50448364019 -0.8601693511 -0.075076147914
0.62105286121 -0.7793160677 0.078749828041
0.69114911556 0.27690446377 0.66754949093
0.72818076611 0.18042096496 0.66122603416
0.76164466143 0.28174516559 0.58352637291
0.65787190199 0.18944060802 0.7283950448
-0.19936256111 0.89211344719 0.40541794896
-0.26700544357 0.80612814426 0.52654653788
-0.087008193135 0.88068604469 0.46574875712
-0.3169657886 0.86789900064 0.38249918818
-0.43657073379 0.84081423283 0.31951230764
-0.37129533291 0.79533720016 0.47818124294
-0.56031650305 0.7837639451 0.26789173484
-0.46890407801 0.76734381914 0.43655389547
0.045787613839 0.75522363186 0.65379369259
0.041114866734 0.83573335409 0.54753983021
-0.054777372628 0.77689296007 0.62714862823
0.72234100103 0.0047179460526 0.69155168533
0.797988832 -0.042552150786 0.60121005774
0.77082008123 0.076154269278 0.63246124983
0.68844014406 0.099302634597 0.71840584278
0.86209535599 0.053173210472 0.50394701958
0.79858583212 0.17227466404 0.57658612728
0.74016577005 -0.26172369719 0.61938804388
0.17312173545 0.76056724787 0.62572318316
0.19691669941 0.64723831415 0.73637282848
0.089968018234 0.68813151121 0.71988284588
0.29024931788 0.6883918047 0.66475921869
0.098655387759 0.61662781239 0.78067517281
0.16045875847 0.55272990465 0.81748270988
0.1778369844 0.84211117029 0.50779157877
0.29679813981 0.76858401299 0.56664800644
-0.94918709993 -0.21253474057 0.23150920868
-0.85476392508 -0.37802270055 0.35480478406
-0.88151466846 -0.22751028836 0.41372838616
-0.87943100929 0.044311061502 0.47383856773
-0.9286352396 -0.069478176534 0.36425113678
-0.86213350296 -0.10232848674 0.49629211426
-0.52092719078 0.84577357769 0.11455940455
-0.8002603054 -0.36239606142 0.47732928395
-0.73852860928 -0.5182108283 0.43118974566
-0.62982833385 -0.62577497959 0.45989722013
-0.67525947094 -0.66769593954 0.31322848797
-0.1830701381 -0.1851092875 0.96551126242
-0.16456840932 -0.10820873082 0.98041820526
-0.23470565677 -0.12956516445 0.96334636211
-0.20868493617 -0.050384432077 0.97660106421
0.73090231419 -0.11826773733 0.6721688509
0.38153722882 0.69786477089 0.60601496696
0.34066057205 0.81967252493 0.46033847332
0.42374247313 0.74736398458 0.51163440943
0.60295277834 0.46594515443 0.64750999212
0.69760882854 0.38707366586 0.60288149118
0.66943019629 -0.5710927248 0.47497940063
0.72301149368 -0.671654284 0.16069974005
0.48714980483 0.80832886696 -0.33043056726
0.24835178256 0.86189198494 -0.44212043285
0.24526640773 0.94624304771 -0.21079358459
0.029974116012 0.95181387663 -0.30498757958
0.0050233807415 0.81940162182 -0.57320898771
0.32825511694 -0.26391893625 0.90686780214
0.3635083735 -0.33972361684 0.86719065905
0.42262020707 -0.29286363721 0.8576823473
0.43051183224 -0.39184466004 0.81308615208
0.49364796281 -0.30978614092 0.81260752678
0.43053838611 -0.49389848113 0.75544327497
0.50317770243 -0.44003605843 0.74371105433
0.0045263860375 0.48729386926 0.87322759628
-0.016812697053 0.56695115566 0.82351124287
-0.076162196696 0.51153516769 0.85569834709
0.078914269805 0.44311022758 0.89298456907
0.086914405227 0.51718634367 0.85113573074
0.51384890079 0.44004824758 0.73639279604
0.56567168236 0.34853547812 0.74733448029
0.4988848567 0.34316697717 0.79584258795
0.53549611568 0.23939752579 0.80964720249
0.98418724537 -0.040292691439 -0.17186579108
0.99621832371 0.077927619219 0.036322273314
0.99286097288 -0.10381488502 0.058392211795
0.97728258371 0.00031897693407 0.21182389557
0.95953989029 0.17959183455 0.21684645116
0.94496500492 -0.22634629905 0.23593488336
0.92345571518 0.11883039773 0.36483734846
0.92879492044 -0.0593357943 0.36579358578
0.84953290224 0.22927978635 0.47503444552
0.88877773285 0.3049133718 0.34174492955
0.89192640781 -0.21485380828 0.39789029956
0.86383795738 -0.11113179475 0.49134930968
0.81788539886 -0.27381876111 0.50607383251
0.18822136521 0.98111653328 -0.0041224183515
0.43169692159 0.89886808395 -0.072038024664
0.61605316401 0.78218066692 -0.092737391591
0.5666809082 0.81817251444 0.097632989287
0.72840297222 0.67596107721 0.1065274775
0.49713844061 0.54285001755 0.67614763975
0.84263527393 -0.37511375546 0.38576433063
0.63983184099 0.35363021493 0.68228489161
0.6188339591 0.27493691444 0.73585581779
0.7967236042 0.29545173049 -0.52716112137
0.62017142773 0.39119669795 -0.6797092557
0.67681366205 0.57443529367 -0.45994400978
0.4235291481 0.71116876602 -0.56062847376
-0.78357732296 -0.35108205676 -0.51271563768
-0.9375090003 -0.13718231022 -0.31959152222
-0.84045338631 -0.0093089630827 -0.54178166389
-0.99296236038 -0.015414778143 -0.11623090506
-0.78666901588 0.29599386454 -0.54138600826
0.80497151613 -0.3304464817 -0.49236622453
0.64765828848 -0.57356411219 -0.50117021799
0.61994838715 -0.3905171752 -0.67893362045
0.31466460228 -0.67801380157 0.66429448128
0.39314943552 -0.59857010841 0.69795292616
0.27496480942 -0.60732513666 0.74426275492
-0.21187201142 0.69363862276 0.68845885992
-0.30434429646 0.70278126001 0.64304763079
-0.25673377514 0.62675029039 0.73569750786
-0.37777104974 0.61218392849 0.69464457035
-0.40965297818 0.69505167007 0.59002482891
-0.33812111616 0.53848004341 0.77161496878
-0.13914398849 0.66968274117 0.72940456867
-0.44279941916 0.48912659287 0.7514129281
-0.038535028696 -0.81267160177 0.58056426048
-0.033514246345 -0.73992711306 0.67179626226
0.2513423562 -0.94819200039 0.19424881041
0.27819350362 -0.95891350508 0.055519673973
0.091256976128 -0.99344629049 0.067507326603
-0.48536741734 0.02863583155 0.87383437157
-0.43466433883 0.11429374665 0.89332234859
-0.51085776091 0.11654350162 0.85167497396
-0.36279058456 0.18347333372 0.91343861818
-0.42958989739 0.20767407119 0.8788086772
-0.60070538521 -0.77219939232 0.20699338615
-0.55949819088 -0.82883638144 -0.0043988684192
-0.73213779926 -0.66856986284 0.13068193197
-0.15591223538 -0.84178590775 0.51662683487
-0.581184268 0.16338711977 0.79719865322
-0.57032817602 0.077929496765 0.8177011013
-0.55931329727 -0.00032294320408 0.82897043228
-0.62476849556 0.026322282851 0.78033703566
-0.57766097784 -0.72426486015 0.37625202537
0.79631853104 -0.16460825503 0.58207046986
0.73240602016 -0.36643943191 0.57366734743
-0.25197699666 0.048657152802 0.96615481377
-0.2126391679 0.12633560598 0.96892464161
-0.29254072905 0.11760212481 0.94896411896
-0.25381660461 0.19340652227 0.94757461548
-0.18282991648 0.21761502326 0.95875608921
-0.52183830738 -0.68403232098 0.50968503952
0.48965290189 -0.68642216921 0.53759741783
[...]
CELL_DATA 1614
SCALARS cell_data_0 double
LOOKUP_TABLE default
2.48581515683e-09
1.03446627439e-08
1.4646210495e-08
8.72720269178e-09
1.00307782062e-09
1.14590267792e-08
1.92173695017e-08
4.32699693153e-09
1.81808488346e-08
1.60192065855e-09
1.76858786708e-08
7.389936067e-09
2.3652764275e-08
8.4330388808e-09
2.96584564136e-08
1.07426719945e-08
1.36046540875e-08
3.28266661871e-08
1.77564876009e-08
1.65901615192e-08
1.10496903172e-08
1.82053199499e-08
1.47589936086e-08
2.79479269785e-09
2.13161822326e-08
2.30520522768e-08
1.52892530895e-08
5.06281138754e-09
7.37943358094e-09
1.1120233483e-10
8.66585513952e-09
2.08393313888e-08
3.94278750364e-09
6.64409337367e-09
6.17862500511e-09
7.04210923967e-09
7.64063983249e-09
1.41839078413e-08
3.19293216621e-09
4.82693282169e-09
1.50084698649e-08
6.23179098472e-09
5.62201981015e-09
3.21436065115e-09
3.91541837972e-09
1.76759049019e-08
1.16113245284e-08
2.63052353304e-09
8.33938546971e-09
7.53704126047e-09
9.27442917748e-09
3.72212098284e-09
1.91323177755e-08
2.46829515157e-08
1.02534573574e-08
3.14751612121e-08
6.29053209419e-09
1.72878591263e-08
5.32528823104e-09
1.1844858408e-09
2.32494158399e-08
9.786516076e-09
1.18787695069e-08
9.29629054005e-09
1.59351470915e-08
2.73597034834e-08
2.59943319052e-09
1.25570603544e-08
1.23302204628e-08
4.0804201378e-09
4.83809410157e-10
4.81244452745e-09
1.45484349258e-08
2.04483057296e-08
8.17652793999e-09
8.00798009e-10
3.68195634575e-10
5.94096302595e-09
4.14722770557e-09
2.75834520669e-08
1.09907950568e-08
2.09148687803e-08
9.03138511323e-09
1.83595187306e-08
5.78940905789e-09
1.83279491531e-08
2.16411807478e-08
8.62427165933e-09
1.01047008553e-08
5.73982534559e-09
4.73645742524e-09
1.01431023352e-08
1.43678868256e-08
6.40155204047e-09
1.73801372367e-08
6.4210990345e-09
2.74519863058e-09
1.65175891354e-08
1.32699327477e-08
9.07511196315e-09
1.22122954171e-08
4.72237400385e-09
2.26570050534e-09
1.35175420069e-08
1.15363010275e-08
4.53293423624e-09
1.48635451077e-08
2.34098198092e-08
1.0900050262e-08
2.61519480471e-08
1.18842067331e-08
9.73462926035e-09
3.52156073771e-08
2.68504481034e-08
1.24523326941e-08
3.62113613795e-10
1.52788797602e-09
5.16466877356e-09
1.2204467673e-08
1.66753532758e-08
9.12351525037e-09
5.67760844169e-09
8.43936863449e-09
1.48642759045e-08
3.78652196551e-09
1.79399394235e-08
1.39186184544e-08
3.01276820582e-09
6.86217162729e-09
2.26396938056e-08
1.59130348552e-08
4.96918748635e-09
1.80361354844e-08
8.00583444531e-09
7.73995473611e-10
1.47721689466e-09
1.65461810479e-08
9.41757899585e-09
2.06107667047e-08
1.12932750376e-08
2.23518014626e-08
1.71704265481e-08
6.47161343113e-09
4.80874064444e-09
6.79933145036e-09
1.09954163242e-08
1.78791092737e-08
1.44005938339e-08
6.20268316083e-09
2.66654155566e-09
3.1970022394e-09
9.89726582814e-09
2.32642322783e-08
1.81192954793e-08
9.30166939721e-09
1.102393342e-08
1.08190499672e-09
2.6771103068e-09
5.59145063249e-09
3.81248553122e-09
9.73276056929e-09
5.76285793003e-09
2.05504409984e-08
3.62169103435e-09
7.71548011536e-11
6.05516611433e-09
3.91767881614e-08
5.86420380351e-09
6.18902296637e-09
1.87120457462e-08
5.38317724318e-09
8.3661195069e-09
1.81116251419e-08
6.56200877007e-09
1.48571873172e-08
2.49353175237e-09
1.07861419877e-08
8.24964010058e-09
8.3174428596e-09
3.88205476352e-09
6.45990712948e-10
1.52032464706e-08
3.28359877466e-09
3.20218529752e-09
1.77443683046e-08
5.51625663964e-10
1.46215951172e-08
9.83504695576e-09
5.71937192123e-09
8.5850913739e-10
4.38154728385e-09
1.09684869504e-08
1.85779398303e-08
1.06211101084e-08
4.33582343959e-09
1.67428210826e-08
6.81139466242e-09
1.54927956104e-08
1.71050595505e-09
7.48807127159e-09
9.92455773691e-09
1.86387829942e-08
1.5370105881e-08
1.42910748931e-08
7.7337061067e-09
7.84736915179e-09
6.37649288233e-09
1.48663729967e-09
9.82925966328e-10
3.17119530671e-10
6.18634844931e-09
9.66517217663e-10
1.4732630408e-09
3.32069689626e-09
4.61610354328e-09
3.51185533453e-09
2.05978267219e-08
1.74882411994e-08
9.71519089543e-09
1.27917746996e-08
1.20801634723e-08
8.47372965649e-09
1.61032465085e-08
2.63235314361e-10
8.83995749301e-09
9.83396841415e-09
2.12533173597e-09
2.61914704974e-09
1.77304348809e-08
5.21404174292e-09
1.64773616638e-09
8.47280925114e-09
1.01485952104e-08
2.17858055206e-08
1.07003488632e-09
8.67670877631e-09
2.60757752571e-09
3.33882302267e-09
2.8201861302e-09
6.49829606401e-09
1.02416231434e-08
1.17735432036e-08
1.85920880806e-08
1.34283870816e-08
2.37163066964e-08
2.6857483756e-08
1.27805694389e-09
1.32998430126e-08
1.46938174568e-08
2.34885742258e-08
1.06426386751e-08
1.70644338967e-08
2.85781637817e-08
1.13371289761e-08
7.31227317373e-09
1.72835727027e-08
1.504432031e-08
1.69084022266e-08
7.20907375518e-09
1.25277875495e-08
1.52134428677e-09
1.16243975858e-08
1.47446357528e-08
8.24042536918e-10
1.45178136301e-08
8.99558512477e-09
8.48896524028e-10
4.78226434048e-09
1.08275376333e-08
1.8936094906e-08
2.04426577442e-09
7.03614840514e-09
4.72416691286e-09
1.71516399037e-08
4.84739302431e-09
8.74694327478e-09
2.70167846664e-08
2.55895983948e-08
1.50624211114e-08
1.03951376186e-08
7.87739019518e-09
3.91026532593e-09
6.75881896592e-09
1.30619651738e-09
8.58132830623e-09
2.86362141403e-09
1.17991803284e-08
4.44626785875e-09
6.03178702809e-09
1.24672582509e-08
8.21870424389e-09
9.07967599375e-09
2.3645522911e-08
6.1452737127e-09
9.09960554348e-09
5.72850824424e-09
2.59920955356e-09
1.70396178823e-09
1.30946306215e-09
1.45247235612e-09
1.98309746913e-09
3.560412069e-09
3.35327458183e-09
1.02848134113e-08
1.62581847794e-08
2.79126143919e-08
1.16743723167e-08
8.67754250384e-09
9.93159213552e-10
2.70784788103e-09
3.49929114044e-09
2.77976916495e-09
1.30668471456e-08
4.56943462797e-09
1.98411889632e-09
1.1746099871e-08
8.66829170939e-09
1.33098685128e-08
6.09507960831e-10
3.87176450539e-09
2.19914910725e-09
1.2323567904e-08
4.75865194289e-09
1.89907576875e-09
1.8317427119e-09
3.33320204917e-08
5.39549479951e-09
6.905685674e-09
1.04730854068e-08
3.48068178393e-09
1.66647359334e-09
4.86982453451e-09
7.31972142112e-10
1.20602604907e-08
3.2466382619e-09
1.53538105574e-08
3.82124419852e-09
1.04468857853e-08
1.07954139654e-08
2.80314462703e-09
3.85548921314e-09
3.05385272827e-08
2.10010213105e-08
2.77589449023e-08
6.31704254826e-09
9.14467681657e-09
1.33339435848e-08
4.37619094274e-09
1.52526495276e-08
2.93238559498e-09
1.31425996819e-08
8.39174391972e-09
2.89478474307e-09
1.1954877813e-08
2.64983693188e-09
8.58866777733e-09
1.6424207063e-08
3.69445281429e-09
3.05561876552e-09
6.58831744465e-09
5.380811807e-09
7.1180016236e-10
2.40968138167e-10
2.22176369129e-08
9.79705286029e-09
2.72321433104e-10
1.16683513753e-09
5.86030449303e-10
8.47052334173e-09
5.3038651231e-09
6.71208430426e-09
6.68474286708e-10
6.68264348817e-09
2.26502766378e-09
7.54470981164e-09
1.12628549314e-09
1.25913735941e-08
8.65744884233e-09
3.43959247724e-09
3.29905530423e-09
8.16305581664e-09
1.18238609913e-09
8.51927277038e-09
1.93711968006e-09
9.81558598437e-09
4.21148224625e-09
2.7249159278e-09
2.40131630311e-09
2.80786693667e-10
2.89588266727e-09
1.68967120825e-08
7.42635910387e-09
2.25002675593e-08
8.78210507485e-09
1.21947787107e-08
3.39909758361e-09
1.1471896786e-08
7.05813196233e-10
3.63645120616e-09
1.86652766021e-09
1.69791860559e-08
2.48726629594e-08
2.91142027369e-09
5.88438436822e-11
7.82198674056e-09
9.08606914294e-09
5.37562135661e-09
6.53734430607e-09
3.91541073594e-09
2.35700965984e-09
1.11723353775e-08
1.57578552512e-08
1.30121380023e-08
1.03193899783e-08
5.42195983246e-09
8.19791134687e-09
5.01049437082e-09
1.18687647543e-09
3.93772099949e-09
4.49306106814e-09
6.09107677587e-09
7.65195191884e-09
1.91580464708e-10
2.5841364495e-09
3.73767798601e-09
1.19169869322e-08
8.78549899016e-09
4.23277863636e-09
4.19949461788e-09
4.96647959408e-09
7.62727320523e-09
2.21277248684e-09
4.45542928816e-09
1.40288620949e-08
1.36020477274e-08
1.27809744277e-08
6.01757028353e-09
3.26799753582e-09
3.82104494256e-09
5.34873808488e-09
1.03946906395e-08
4.00746790499e-09
3.56556419305e-09
4.04276654538e-09
4.44224252066e-09
1.1873571697e-08
2.49164968738e-08
5.28998584892e-09
5.34999788551e-09
4.41082770719e-09
1.52450019181e-09
5.51161460661e-09
2.55041937329e-09
3.87950615699e-09
4.43321616257e-09
3.95668927295e-09
9.43706985019e-09
1.27607204453e-08
1.39465842299e-09
1.19282103201e-09
1.31168424117e-08
5.36608439547e-09
4.5650269543e-10
1.37500929951e-08
1.40784281866e-08
5.13416243917e-09
1.29538457407e-09
5.53924007952e-09
2.86253237047e-09
3.1701131107e-09
2.3253803497e-09
3.21397492804e-09
7.22284881914e-09
5.39228979251e-09
1.55024121823e-08
2.81059391328e-08
2.65853914002e-08
3.6027777306e-09
4.53590543061e-09
6.32655155943e-09
6.28219983879e-09
1.87856604585e-09
7.61046408632e-09
2.66473617589e-09
1.21524790374e-08
8.0892613652e-09
1.72157110244e-08
5.8015019614e-09
5.14119259308e-09
7.63697753843e-09
1.0331495651e-08
1.17067946328e-08
8.98932789793e-10
4.75703286248e-09
4.13438304891e-09
7.63008709293e-09
1.22640246515e-08
2.66070684553e-09
1.56695704574e-08
1.84444645367e-10
3.59797518517e-10
5.70455748683e-09
7.61449117556e-09
1.38498642155e-08
1.06649261048e-08
1.73497298149e-10
9.82020083112e-09
8.92586514557e-09
4.92017870068e-09
2.37354769381e-08
1.18631798092e-08
9.80949313909e-09
1.6023534071e-08
2.25573614868e-08
6.89020128327e-09
3.97258976361e-09
1.77697919649e-09
1.0427538937e-08
2.36685049546e-09
8.68683135021e-09
6.14265456514e-09
5.96063227547e-09
2.44221471953e-09
4.43661584791e-10
1.89837888872e-09
3.9257473647e-09
8.16977515168e-09
3.22369025652e-10
8.9132284102e-09
6.76920583484e-09
3.63208249057e-10
1.71513341977e-09
4.53509823476e-09
6.9436029619e-09
5.48517725098e-09
3.86704847684e-09
9.52138080024e-09
3.57916034292e-09
9.9694196038e-09
2.14887774179e-08
2.70139300824e-08
1.18308190571e-08
2.72175428427e-09
7.64551976373e-09
1.03320250566e-09
8.40089327184e-10
3.32509643562e-09
7.1018309666e-09
8.49570925405e-09
6.61121020663e-09
1.14027041957e-09
7.93978702561e-09
1.05457144463e-08
2.02787977281e-09
1.0259129148e-08
2.05089102845e-09
1.33478106519e-09
1.89070672116e-08
1.2310171418e-08
1.67794580478e-08
3.89320895532e-09
5.61788261183e-09
7.93294746621e-09
6.50258061374e-09
1.92526559385e-08
8.58215030905e-10
8.6124765712e-09
1.77643445953e-08
1.03896729622e-08
2.76234898114e-09
5.29555224667e-09
3.65568308123e-09
9.63946117346e-09
3.77830719852e-09
1.95752563003e-09
1.53024444143e-09
6.31972360584e-09
1.73834636701e-09
3.97794191055e-09
3.79423739198e-09
3.76881928663e-09
1.16645479876e-08
4.41308406762e-09
1.10210915163e-08
6.04766001377e-09
9.30128813674e-09
6.23385520823e-09
5.74552080072e-09
1.77549801536e-10
8.55612642099e-09
1.32180193316e-08
1.64004804444e-08
4.91001509076e-09
3.65954824603e-09
8.7182113301e-09
7.02017817691e-11
1.62771843006e-08
9.46972404917e-10
3.31408734603e-09
1.01355521872e-08
7.58340888846e-09
9.36423882348e-09
2.74922512128e-09
2.50948469112e-09
5.92180365775e-09
5.67077717917e-09
2.26530755743e-08
1.83721456426e-08
8.80076988594e-09
6.51688947571e-10
1.71877856664e-09
1.4218083661e-08
4.14224171391e-09
4.36291851445e-09
1.92437194958e-09
1.01146574341e-08
1.06078153766e-08
4.9722463432e-09
4.80570636859e-09
1.06877695646e-08
6.25808187858e-09
8.73934826465e-10
6.27949268657e-10
6.86016633233e-09
1.16834518154e-08
3.11258870768e-09
2.06350516709e-08
1.46135685677e-08
1.04875128073e-08
1.75069120692e-09
1.06483970024e-09
7.55460665224e-09
1.05964933261e-08
2.9486924978e-09
3.87349795105e-09
1.22542963654e-08
1.60336359853e-08
1.58030511117e-08
8.6371066648e-09
1.50458721467e-08
6.46570589448e-09
9.68748921413e-09
2.32947261034e-09
8.41326938025e-10
1.00555132808e-08
7.55349464258e-09
1.57458789464e-08
8.89487976038e-09
4.52011321082e-09
1.51930458865e-08
1.05567259969e-09
3.39877757216e-09
1.01132360926e-08
1.99439465468e-10
9.50988702091e-09
1.16558013415e-09
1.38323001649e-09
5.0074449538e-09
6.07430060561e-10
9.68695894542e-09
4.17161880452e-09
1.5691996187e-09
3.57729412471e-09
1.20734612968e-08
1.86304939527e-08
9.50124570451e-09
1.04612210381e-08
4.00103737623e-09
1.05669824914e-10
2.04665213345e-09
1.60592471942e-08
4.83053143858e-09
3.84828371746e-09
6.83551278141e-09
1.23389970391e-08
1.48029484767e-08
3.43121862455e-09
9.12411435257e-09
6.446422614e-09
1.05304076343e-08
3.92662164223e-09
7.58801202687e-09
8.3481127763e-09
9.33341879523e-10
2.26086544106e-09
7.15514040923e-09
1.66466141995e-08
5.28153209555e-09
1.11639036656e-09
4.82657025065e-10
1.52875223298e-08
1.64678670806e-10
6.12214510356e-09
9.13414206372e-09
1.18056879791e-08
1.68435358152e-08
4.38704095374e-09
2.02505110704e-11
7.65280308489e-10
6.81411667992e-11
1.16244486838e-09
2.28814232811e-09
3.81036131638e-09
5.16473409032e-09
5.46554352666e-09
6.77696636076e-09
3.18512345458e-09
4.35720043716e-09
1.31369378254e-09
4.82039676921e-10
3.52909066846e-09
2.1958651782e-09
7.0855990082e-10
3.13106340968e-09
4.08202294095e-09
7.55714469791e-09
6.57447305936e-09
7.82531872846e-09
4.04092394648e-09
9.65004299774e-09
5.60540778158e-09
5.05618115116e-09
5.56309763258e-09
7.84625066545e-10
8.18817301078e-09
9.36687817231e-09
2.022265915e-09
3.25511613301e-09
5.69511855277e-09
1.07788973742e-08
4.77357442973e-09
4.47301627009e-10
1.85151114108e-08
6.25194192745e-09
6.75821924205e-09
3.46165230568e-09
4.3785997824e-09
2.59280147112e-09
5.92412734638e-11
3.78256583322e-09
1.51567284474e-09
8.39115788569e-09
5.86529651656e-09
1.98443389941e-09
2.9534973242e-10
4.55990468483e-09
7.73986081009e-09
4.45928450645e-09
2.58464330531e-09
3.22117174243e-09
1.22293601439e-08
7.06796426772e-09
1.67949515308e-09
4.75971637507e-11
2.50417750477e-10
2.57660958256e-09
3.85353158792e-09
2.76431381592e-09
4.6315943788e-09
1.814833082e-09
5.72958699397e-09
8.53418286272e-11
3.78095791329e-09
1.52695471539e-11
1.71437949182e-09
2.32851866667e-09
1.2470485072e-09
1.41561979712e-09
2.40194971095e-09
2.56665046546e-09
1.86358533374e-09
2.42096357512e-09
9.48770139637e-09
5.70005621085e-09
1.10177512937e-09
5.08305088057e-09
3.59973657859e-09
3.09593326597e-09
3.77322144519e-09
1.84897887643e-08
1.44029585982e-08
4.36542232314e-09
4.17196065126e-09
3.20690026178e-09
1.50770582826e-09
1.32165713779e-08
3.09845177837e-08
3.23568550943e-09
7.13504603383e-09
7.65614800883e-09
3.30838094383e-09
5.44464659416e-09
6.30781389299e-09
1.19621554616e-08
9.71591206576e-09
3.44297356205e-09
8.1471651036e-09
7.41940789561e-09
7.16168141259e-09
9.78853656043e-09
4.34195890635e-09
8.06257264582e-10
7.66666454252e-09
4.88528568222e-10
1.55508614216e-08
9.94600764851e-09
7.48208791503e-09
3.61649588285e-09
4.97043211337e-09
8.00773111354e-09
4.66938495868e-09
3.11370396101e-10
1.71397765508e-09
5.40417501392e-09
3.29085040436e-09
6.14400980303e-09
2.88898425691e-09
4.92213975793e-09
3.8920120164e-09
8.38135754924e-09
2.21334819301e-11
7.13226483741e-09
1.0482707924e-08
1.839515961e-09
2.97704979857e-09
5.44536633121e-09
4.8166106876e-09
3.95497697035e-10
8.60207380117e-09
1.33371680708e-08
2.48463280507e-09
4.79660704682e-09
1.39759280934e-09
5.62486438122e-09
3.74017681247e-10
1.23080695125e-09
3.11148894381e-09
2.15850152926e-09
6.36098171177e-09
1.6518103416e-09
8.44226964219e-09
5.72242098999e-09
3.98420948136e-09
4.22942868743e-09
1.77472378663e-08
1.5564953487e-09
1.3236432401e-09
7.1968396921e-09
3.91810368877e-09
3.56667933421e-09
2.50187059423e-09
1.22587400833e-09
4.38746381762e-09
1.69785462962e-09
5.37726995883e-09
6.0656438937e-09
3.31017171178e-09
5.81283532635e-10
8.58801476608e-09
5.84718527544e-09
3.85921998845e-09
3.44465085169e-09
9.98770395986e-09
3.3452017536e-09
1.16252406105e-08
4.77899117906e-09
3.31423056278e-09
1.34190714852e-08
1.20004412549e-08
3.20996340654e-09
3.72113158556e-09
9.94591163827e-09
7.02729847389e-10
4.68622560486e-09
7.49398097553e-09
4.48118471859e-09
3.78630520991e-09
1.95154655005e-09
1.08127132899e-08
1.9029207742e-08
9.22352388201e-09
2.34834809028e-09
2.58335911138e-09
3.27042054629e-09
1.04982660804e-08
1.30098099723e-08
1.26019542361e-09
3.52216604083e-09
1.25213010416e-08
3.54890494411e-09
2.43053484282e-09
3.42156921756e-09
1.48726171492e-09
2.56752513304e-09
4.68832879492e-09
3.34947814682e-09
1.05555733087e-09
1.86152385186e-09
1.34990741388e-09
4.56557603582e-09
2.23428338235e-09
1.81920269952e-10
1.06016664075e-08
7.59974785895e-09
8.09558771877e-09
4.99522517466e-10
4.12891426101e-09
5.55779360916e-09
1.76836041487e-09
1.25444258248e-09
3.63740424146e-09
7.10541617834e-09
1.08764032093e-09
7.10688355759e-09
9.65062253469e-10
1.5486222695e-08
1.26111778301e-09
4.76187101443e-09
9.9173846394e-09
4.61957890783e-09
2.06668836655e-09
2.63297306169e-11
6.72532806529e-10
6.43321530294e-10
6.09100080572e-09
6.0145830439e-09
5.67562002509e-09
3.5646806049e-09
6.42788868032e-09
2.84147120305e-09
1.28064312075e-09
3.12585888981e-09
9.38580623848e-09
5.56641268337e-09
9.17209496673e-09
3.56133696472e-10
1.02814253333e-09
2.83630155742e-10
2.6979543939e-09
3.14254673431e-09
3.59401545878e-09
1.62872345544e-09
8.49811817043e-10
1.89843870368e-10
2.83305531681e-09
6.01288974664e-09
6.73033330526e-10
4.84088305588e-09
3.70740781614e-09
4.01621007086e-09
2.12944298438e-09
2.71734430166e-09
4.08266743684e-09
6.24248938526e-09
7.00045050709e-09
4.30421768768e-09
2.98393215507e-09
3.29431593634e-10
2.74247900651e-09
5.32420585021e-10
4.500655764e-09
6.63824966958e-10
8.71140395092e-10
2.71070776208e-08
6.64906771393e-09
2.11012249845e-09
5.32883231419e-09
9.33487883792e-09
2.00184507917e-09
6.0216759641e-09
1.41867273726e-09
2.18965326341e-09
1.33219780023e-09
1.70145007509e-09
9.82440386352e-10
6.29148543459e-09
2.08484939573e-09
8.93259907977e-11
5.05173949713e-09
1.37952185526e-09
4.31114630178e-09
7.08722753529e-09
5.72308995766e-09
2.59418117355e-09
3.62542821171e-09
2.59475321402e-11
3.2502435615e-11
2.28081960251e-09
3.46260097604e-09
2.6263253426e-09
4.3696410767e-09
1.49529068089e-08
6.42174862924e-10
5.74317453658e-10
8.85054198929e-10
8.82602576278e-09
9.20103046643e-09
4.36229726561e-09
6.01546944599e-10
2.85286124264e-09
2.19008371795e-09
8.58553308596e-09
8.85807001615e-09
2.15848047296e-08
1.58860804847e-08
3.73064928459e-09
2.3697386307e-10
6.79680796771e-09
8.20305365868e-09
2.75075320912e-09
1.8076413754e-08
7.29788524022e-10
1.6423826646e-09
2.50453214235e-09
2.4702582274e-09
1.42333226776e-09
1.33306683617e-09
5.48899160467e-09
4.76211499489e-09
1.85302539196e-10
9.25583405831e-09
2.30945551261e-08
2.16375173052e-08
1.87419826942e-08
3.39032293293e-08
4.65207957791e-09
3.06979316641e-10
4.35061208116e-09
8.97333641375e-09
8.97673072881e-09
5.518041481e-09
9.8083787778e-09
2.34693271677e-09
8.26693709312e-09
1.83345428351e-09
5.56773698571e-09
2.1246901017e-09
7.86075512135e-09
2.07837264645e-10
2.14579434378e-10
4.30587178399e-09
1.38660371942e-09
3.43199161357e-09
6.08380343693e-09
2.81825841038e-09
3.49132847036e-09
1.13225210515e-09
2.36608506648e-09
2.84807168986e-09
1.92968813755e-08
2.48879097652e-08
1.53543215526e-08
1.8842794257e-08
3.09932387316e-09
1.60712982448e-09
1.56594610772e-08
1.34509788798e-08
4.27816718662e-09
2.34998870688e-09
5.76686689918e-10
7.79377064469e-09
3.09519153713e-09
5.99439403321e-09
1.59454543827e-10
1.15814003948e-08
6.05345844828e-09
3.7084761413e-09
1.78228181772e-09
6.9493933031e-09
1.02422539277e-08
1.5028860201e-08
5.65197346462e-09
7.80741706625e-09
1.10618443513e-08
7.06018538683e-09
4.58746203756e-09
1.42303419492e-09
4.6392407893e-09
2.92287692723e-09
6.69359829776e-10
4.49953107358e-09
8.60156794987e-09
1.34663718417e-08
7.51003575404e-09
4.80346250782e-09
9.32527103476e-10
3.93088731091e-09
3.19848438061e-09
4.46798065629e-09
4.68591907215e-09
4.74718255738e-10
4.27706383757e-09
2.07245933931e-09
2.88205799893e-09
6.36551375513e-09
3.24196497568e-09
4.20819405579e-10
2.12041061609e-09
2.76978126696e-09
3.91518835245e-09
4.29722596245e-09
1.54239034349e-08
1.03263192291e-08
4.27883108521e-09
1.83575453495e-09
1.12933073944e-08
4.41783906089e-09
1.12472165722e-09
4.05133353664e-09
1.23959687075e-09
1.75290524106e-09
9.6138825999e-13
1.82634637186e-09
3.28813308317e-09