# vtk DataFile Version 3.0
File Name: Molecule/sphere_excent/sphere_excent_0-s13.vtk
ASCII
DATASET UNSTRUCTURED_GRID
FIELD FieldData 1
TIME 1 1 double
0.0
POINTS 142 double
0.85049444437 -0.52605122328 0.00044669784256
0.80802762508 -0.30970102549 -0.50114583969
0.99731689692 -0.0026310193352 -0.066486373544
0.80710661411 0.3094304204 -0.50281107426
0.52556818724 -3.5243348975e-05 -0.85075229406
0.85837578773 0.51091575623 -0.03306055069
0.49996504188 0.80878019333 -0.30987212062
0.30886763334 0.49995583296 -0.80898880959
-0.00074699992547 0.85057407618 -0.52590638399
-0.0020466493443 0.99850124121 -0.02977995947
0.30879217386 -0.49976697564 -0.80912637711
-1.4959212422e-05 -1.9503913791e-06 -0.99989295006
-0.30887019634 -0.49986872077 -0.80909574032
0.00047509931028 -0.84949970245 -0.5277132988
-0.52570086718 -5.1505201554e-05 -0.85066980124
-0.80912816525 -0.30947527289 -0.49918249249
-0.80859279633 0.30850097537 -0.50091797113
-0.99745166302 0.0092749902979 -0.034704074264
-0.30874615908 0.49943745136 -0.80939888954
-0.50889384747 0.78929227591 -0.33994755149
-0.83360356092 0.54884344339 -0.026066698134
-0.48078814149 -0.81097370386 -0.33103150129
0.023373521864 -0.99782091379 -0.051886118948
0.49966195226 -0.80658429861 -0.3162522912
0.46887284517 -0.85479962826 0.22165715694
-0.0010913535953 -0.050013333559 0.99812436104
0.095761798322 -0.24952299893 0.96345001459
0.25758311152 -0.048217266798 0.96490001678
-0.51930886507 0.021848535165 0.85298013687
-0.45437070727 -0.19294403493 0.86932826042
-0.30330514908 -0.016079153866 0.95253616571
-0.19037109613 -0.2249199003 0.95551002026
-0.32513481379 0.51818418503 0.79104399681
-0.57009136677 0.45270308852 0.68527978659
-0.48109081388 0.27649986744 0.83154338598
-0.70675456524 0.19176214933 0.67869645357
-0.85242056847 0.31991896033 0.41249656677
-0.87223553658 0.0025483444333 0.48913159966
-0.71810865402 -0.11096879095 0.68405508995
-0.80988848209 -0.36956825852 0.4533765316
0.28438553214 -0.59132927656 0.75458264351
0.40648028255 -0.72315102816 0.5577352643
0.573764503 -0.49271455407 0.65432953835
0.68864899874 -0.60055887699 0.40672931075
0.82801049948 -0.29434621334 0.47703927755
0.047080531716 -0.85916882753 0.50868219137
0.055779431015 -0.71670842171 0.69470202923
0.83451128006 0.31978681684 0.44809985161
0.60881382227 0.43855756521 0.66054463387
0.70789891481 0.18492910266 0.68151712418
0.50710844994 0.25905412436 0.82179522514
0.5722296834 0.06338211894 0.81760543585
0.046137031168 0.83399617672 0.54892426729
-0.24310714006 0.87145680189 0.42608106136
-0.1669292599 0.71512573957 0.67867767811
-0.40370300412 0.70533245802 0.5825702548
-0.53057843447 0.80834817886 0.25395867229
0.10583505034 0.60223633051 0.79070419073
-0.073826000094 0.53560584784 0.84098660946
-0.3823068738 -0.38862237334 0.83813607693
-0.089611649513 -0.42574214935 0.90021699667
-0.3055356741 -0.57138091326 0.76177102327
-0.5652281642 -0.50378209352 0.65289312601
-0.62240934372 -0.30526572466 0.72065496445
-0.62157303095 -0.055609639734 0.78031164408
0.18181522191 -0.43396872282 0.88227719069
0.044066682458 -0.5704113245 0.82000762224
0.30834648013 -0.25790801644 0.91564077139
0.48633950949 -0.10929600149 0.86610877514
0.37049475312 -0.42400327325 0.82639402151
0.48333960772 -0.29059109092 0.82560127974
0.39927199483 0.10988761485 0.90994179249
0.73237717152 -0.073623344302 0.67582422495
0.87652665377 0.020029380918 0.48106017709
0.64336389303 -0.29253509641 0.70629793406
0.15422141552 0.27694675326 0.94837731123
0.23909702897 0.14379806817 0.96031045914
0.32333266735 0.27845218778 0.90426069498
0.32698711753 0.61917078495 0.71184247732
0.083747148514 0.42499423027 0.9011695385
0.23973347247 0.43607950211 0.86703789234
0.074609898031 0.12869173288 0.9888304472
0.40757161379 0.41870895028 0.81128668785
-0.73026424646 0.58792728186 0.34674632549
0.9598519206 -0.14267776906 0.24202358723
0.96017313004 0.15950872004 0.22913229465
-0.091691561043 0.15329644084 0.98337608576
0.010645810515 0.27534866333 0.96113878489
-0.71923828125 0.42824479938 0.54708665609
-0.59733200073 0.6305886507 0.49549567699
-0.12195322663 -0.74317997694 0.65740531683
-0.11650981754 -0.60696077347 0.78600865602
0.28833067417 0.94485723972 0.14689049125
0.69744336605 0.70174318552 0.14020733535
0.50839018822 0.79536837339 0.32963016629
0.27661132812 0.86163723469 0.42561820149
0.026894889772 0.95975148678 0.27960073948
-0.84413558245 -0.53528350592 -0.022130344063
-0.9586981535 -0.28366988897 -0.0078234039247
-0.26574873924 -0.95253771544 0.14704494178
-0.51115709543 -0.80237275362 0.30647036433
-0.2434336096 -0.88092470169 0.40518802404
0.0052000791766 -0.9662232995 0.25755962729
-0.70374172926 -0.69205057621 0.15370883048
-0.56913685799 -0.66105443239 0.4856018424
-0.86488419771 -0.45363903046 0.21419800818
-0.95394730568 -0.18205028772 0.23735810816
-0.38211774826 0.14183548093 0.91315579414
-0.96153920889 0.16721600294 0.2154995501
-0.31290256977 0.29884022474 0.90133184195
-0.15136890113 0.41305974126 0.89706766605
-0.18362341821 0.28206247091 0.9413972497
-0.24873609841 0.16356578469 0.9547123313
-0.28065484762 0.95127880573 0.1270186156
-0.27076944709 0.94738316536 -0.17074356973
-0.53264850378 0.845695436 -0.0346904248
0.86407494545 0.4464084208 0.2313093394
0.72840315104 0.57321858406 0.37366652489
-0.95764517784 0.28686466813 -0.013473000377
-0.69628733397 -0.69821637869 -0.16604244709
-0.53829270601 -0.84282892942 0.006287060678
-0.88113099337 0.42881238461 0.19933854043
-0.039022307843 0.39935138822 0.91592389345
-0.19095137715 -0.81672525406 0.54433906078
-0.29997503757 -0.74440670013 0.59623461962
-0.22416040301 -0.66992425919 0.70746290684
-0.43546763062 -0.64033591747 0.63245552778
-0.41133907437 -0.78018689156 0.47115784883
-0.086403004825 0.30186769366 0.94943410158
-0.15354841948 -0.028963847086 0.98748886585
-0.62254106998 0.099550917745 0.77614963055
-0.71387958527 0.033996049315 0.69932711124
0.48256620765 0.54495847225 0.68447858095
0.43948236108 0.720446527 0.53637003899
0.57392054796 0.64335221052 0.5063751936
0.67026907206 0.52181404829 0.52760195732
0.61542385817 -0.10023079813 0.78172034025
0.57874298096 -0.19973511994 0.79072004557
0.68653017282 -0.18501642346 0.70320540667
-0.057388439775 0.051564686 0.99705809355
-0.18769977987 0.066391035914 0.97999089956
0.62639892101 0.69168943167 0.35907790065

CELLS 280 1120
3 0 1 2
3 1 3 2
3 1 4 3
3 2 3 5
3 5 3 6
3 3 7 6
3 3 4 7
3 6 7 8
3 6 8 9
3 4 10 11
3 10 12 11
3 10 13 12
3 11 12 14
3 14 15 16
3 15 17 16
3 8 18 19
3 18 16 19
3 18 14 16
3 19 16 20
3 21 13 22
3 14 12 15
3 12 21 15
3 12 13 21
3 13 23 22
3 23 24 22
3 23 0 24
3 4 1 10
3 1 23 10
3 1 0 23
3 10 23 13
3 4 11 7
3 11 18 7
3 11 14 18
3 7 18 8
3 25 26 27
3 28 29 30
3 29 31 30
3 25 31 26
3 32 33 34
3 33 35 34
3 35 36 37
3 38 37 39
3 40 41 42
3 41 43 42
3 41 24 43
3 42 43 44
3 24 41 45
3 45 41 46
3 44 43 0
3 43 24 0
3 47 48 49
3 48 50 49
3 49 50 51
3 52 53 54
3 53 55 54
3 53 56 55
3 54 55 32
3 52 54 57
3 58 54 32
3 29 59 31
3 31 59 60
3 61 59 62
3 59 63 62
3 59 29 63
3 62 63 39
3 32 55 33
3 39 63 38
3 38 63 64
3 40 65 66
3 65 60 66
3 65 26 60
3 26 67 27
3 27 67 68
3 26 65 67
3 65 69 67
3 65 40 69
3 67 69 70
3 70 68 67
3 27 68 71
3 61 60 59
3 31 60 26
3 51 72 49
3 47 49 73
3 70 69 42
3 42 69 40
3 44 74 42
3 42 74 70
3 75 76 77
3 76 71 77
3 76 27 71
3 77 71 50
3 58 57 54
3 52 57 78
3 58 79 57
3 79 80 57
3 79 75 80
3 57 80 78
3 25 27 81
3 48 82 50
3 50 71 51
3 51 71 68
3 75 77 80
3 77 82 80
3 77 50 82
3 80 82 78
3 20 83 56
3 2 84 0
3 0 84 44
3 2 85 84
3 85 73 84
3 85 47 73
3 84 73 44
3 5 85 2
3 86 81 87
3 87 81 75
3 36 88 83
3 88 89 83
3 88 33 89
3 83 89 56
3 33 88 35
3 88 36 35
3 44 73 72
3 72 73 49
3 56 89 55
3 55 89 33
3 66 46 40
3 40 46 41
3 45 46 90
3 46 91 90
3 46 66 91
3 61 91 60
3 60 91 66
3 79 87 75
3 75 81 76
3 76 81 27
3 9 92 6
3 6 92 93
3 94 92 95
3 92 96 95
3 92 9 96
3 95 96 52
3 95 52 78
3 97 98 15
3 15 98 17
3 22 99 21
3 100 99 101
3 99 102 101
3 99 22 102
3 101 102 45
3 103 104 105
3 39 106 105
3 106 98 105
3 106 17 98
3 105 98 97
3 45 102 24
3 24 102 22
3 30 107 28
3 28 107 34
3 17 106 108
3 37 106 39
3 34 109 32
3 32 109 110
3 111 109 112
3 109 107 112
3 109 34 107
3 112 107 30
3 52 96 53
3 53 96 113
3 111 112 86
3 94 93 92
3 6 93 5
3 9 114 113
3 114 115 113
3 114 19 115
3 113 115 56
3 19 114 8
3 8 114 9
3 56 115 20
3 115 19 20
3 5 93 116
3 93 117 116
3 116 117 47
3 17 118 16
3 16 118 20
3 97 119 103
3 119 120 103
3 119 21 120
3 103 120 100
3 36 121 108
3 121 118 108
3 121 20 118
3 108 118 17
3 21 119 15
3 15 119 97
3 111 110 109
3 32 110 58
3 36 108 37
3 37 108 106
3 9 113 96
3 53 113 56
3 58 122 79
3 79 122 87
3 20 121 83
3 83 121 36
3 5 116 85
3 85 116 47
3 123 90 124
3 125 124 90
3 124 125 126
3 101 123 127
3 87 128 86
3 86 128 111
3 61 125 91
3 91 125 90
3 111 128 110
3 128 122 110
3 128 87 122
3 110 122 58
3 100 120 99
3 99 120 21
3 97 103 105
3 39 105 104
3 90 123 45
3 123 101 45
3 25 129 31
3 31 129 30
3 35 130 34
3 34 130 28
3 28 130 64
3 130 131 64
3 130 35 131
3 64 131 38
3 38 131 37
3 37 131 35
3 28 64 29
3 29 64 63
3 78 132 133
3 132 134 133
3 134 132 135
3 133 134 94
3 62 126 61
3 61 126 125
3 100 104 103
3 104 62 39
3 68 136 51
3 51 136 72
3 68 137 136
3 137 138 136
3 137 74 138
3 136 138 72
3 74 137 70
3 70 137 68
3 72 138 44
3 138 74 44
3 48 132 82
3 82 132 78
3 86 139 81
3 139 25 81
3 25 139 129
3 139 140 129
3 139 86 140
3 129 140 30
3 78 133 95
3 95 133 94
3 30 140 112
3 112 140 86
3 94 141 93
3 93 141 117
3 117 135 47
3 47 135 48
3 48 135 132
3 141 134 117
3 135 117 134
3 134 141 94
3 124 127 123
3 101 127 100
3 100 127 104
3 127 126 104
3 127 124 126
3 104 126 62

CELL_TYPES 280
5
5
5
5
5
5
5
5
5
5
5
5
5
5
5
5
5
5
5
5
5
5
5
5
5
5
5
5
5
5
5
5
5
5
5
5
5
5
5
5
5
5
5
5
5
5
5
5
5
5
5
5
5
5
5
5
5
5
5
5
5
5
5
5
5
5
5
5
5
5
5
5
5
5
5
5
5
5
5
5
5
5
5
5
5
5
5
5
5
5
5
5
5
5
5
5
5
5
5
5
5
5
5
5
5
5
5
5
5
5
5
5
5
5
5
5
5
5
5
5
5
5
5
5
5
5
5
5
5
5
5
5
5
5
5
5
5
5
5
5
5
5
5
5
5
5
5
5
5
5
5
5
5
5
5
5
5
5
5
5
5
5
5
5
5
5
5
5
5
5
5
5
5
5
5
5
5
5
5
5
5
5
5
5
5
5
5
5
5
5
5
5
5
5
5
5
5
5
5
5
5
5
5
5
5
5
5
5
5
5
5
5
5
5
5
5
5
5
5
5
5
5
5
5
5
5
5
5
5
5
5
5
5
5
5
5
5
5
5
5
5
5
5
5
5
5
5
5
5
5
5
5
5
5
5
5
5
5
5
5
5
5
5
5
5
5
5
5
5
5
5
5
5
5
5
5
5
5
5
5

CELL_DATA 280
SCALARS cell_data_0 double
LOOKUP_TABLE default
6.28684963519e-08
1.50037015386e-07
4.76580880797e-09
1.24929368173e-07
1.54308303193e-07
2.20660639099e-07
1.12524314752e-07
1.76127006882e-07
3.1702770941e-07
2.50496472532e-08
5.04159967546e-08
9.1231167582e-09
2.73852799184e-08
1.91019792677e-07
3.07549413022e-07
1.14750979689e-07
7.26966306421e-08
1.58455468336e-08
2.61766626324e-07
1.98881297273e-07
5.36159409418e-08
1.84662035495e-08
1.14468300459e-07
1.7079549651e-07
1.39753474288e-07
3.78195190763e-07
5.19303935278e-08
1.94115569908e-07
1.08984140285e-07
6.20550190582e-08
1.87856551812e-08
4.14110667528e-08
2.991924532e-08
3.27197761747e-08
1.46804783381e-07
1.41733652991e-07
2.2588094169e-07
3.84067973834e-07
3.93665171774e-07
4.18021729522e-07
4.22168661226e-07
4.42328311277e-07
4.35212705052e-07
3.37602641079e-07
5.53252060741e-07
4.20249198854e-07
4.90867726924e-07
1.3824102173e-07
2.87872154859e-08
1.05760284738e-07
4.0638820515e-07
1.70014291715e-07
3.51818797403e-07
2.59165548246e-07
2.95016996139e-07
3.82926345239e-07
3.85716028586e-07
4.39053520523e-07
5.18385339084e-08
5.51774176219e-07
2.51003993109e-07
6.04974456639e-07
6.48318621484e-07
3.4473544664e-07
2.6780243484e-07
2.79339121494e-07
4.95875385252e-07
1.03792381142e-07
6.3792144947e-08
2.15788249654e-07
3.06670297895e-07
2.16484272624e-07
4.49016120742e-07
5.52326880535e-07
2.80370318125e-07
3.61898341725e-07
3.14475656679e-07
2.23187878628e-07
3.60268638709e-07
4.37162392129e-07
4.19335918908e-07
2.67277931027e-07
1.56340797567e-07
2.84640479311e-07
6.37904634718e-08
1.79509936022e-07
5.19232805545e-08
1.49127740926e-07
1.56762722109e-07
1.48931620044e-07
2.46038876091e-07
1.24721909317e-07
2.36893299907e-07
2.15731261182e-07
5.77894103446e-09
2.21899176606e-07
3.20183198822e-07
7.33162696678e-07
2.35995949197e-07
1.87797684698e-07
3.08765137474e-07
2.5879762828e-08
1.08054551112e-07
2.76997308741e-07
3.62510064214e-08
1.25069394938e-08
2.77305313321e-08
1.52056328835e-08
2.62481509419e-07
8.88327560147e-08
2.05223291349e-07
2.94682306449e-07
2.38938058734e-07
2.2480662358e-07
6.65309158085e-08
5.22641354283e-08
3.4644669315e-08
1.37476029974e-07
4.37899819667e-08
2.00078327263e-08
3.06637235404e-07
1.83072058002e-07
1.98729430789e-07
1.72101723468e-07
1.37649291053e-07
1.39734242679e-07
8.05306233513e-08
2.55771491365e-07
1.89837011899e-07
1.45560054631e-07
3.5469864013e-07
4.24197041246e-07
1.07243638982e-08
2.00342325719e-08
4.58619506574e-08
2.81221021847e-07
3.35297260627e-07
9.30493200599e-09
3.634466219e-08
5.14615574399e-08
6.44926280219e-08
2.2507728694e-07
6.53657915601e-08
1.19388160047e-07
4.57043995802e-07
1.47801766851e-07
3.70129796951e-08
1.65797965994e-07
1.62180477286e-07
2.06067123611e-07
3.30743057014e-07
3.49588254626e-08
1.27014168716e-07
8.13680898781e-08
3.50725112595e-07
4.23589726523e-08
1.91524334964e-07
2.31205655843e-07
5.49508923109e-08
1.29895225155e-09
5.29383612179e-07
4.28995446809e-07
5.78075893333e-08
5.89202510779e-08
1.84933082026e-08
1.95759202667e-07
1.45116596854e-07
4.97534169595e-08
1.68750028038e-07
1.07782563005e-07
1.57865791415e-07
4.28216212652e-09
2.7025205015e-08
6.42772668736e-08
3.21836082619e-08
5.78121118183e-08
8.62655289997e-08
1.25857066582e-07
3.33624158055e-08
1.47810023233e-07
5.91308282618e-08
8.43332221392e-08
4.41003556139e-08
1.57412947991e-07
2.69928688218e-08
1.46803454078e-08
1.3491283719e-07
6.14452417471e-08
1.0296546873e-07
7.39111714804e-08
7.3958771087e-08
1.29731154474e-07
5.85792736862e-08
3.37842344863e-08
8.55183457573e-08
7.37229541946e-09
8.9198984984e-08
2.08270016402e-07
2.0098680465e-08
1.9047903062e-07
1.29219027835e-08
6.63447065198e-08
1.19243536361e-07
7.95303519843e-08
2.31297163695e-08
4.85124883003e-08
3.11450188462e-08
1.69046627984e-08
3.18491245538e-08
6.54432106471e-10
5.6903425003e-08
7.19960905723e-08
1.98888935349e-07
1.63944404629e-08
2.95741489799e-08
3.40543126808e-08
4.33952620076e-08
2.49661484996e-08
3.43998452387e-08
1.06937578853e-07
1.3646956861e-07
3.23880710104e-07
4.04186058245e-08
4.35662383365e-08
7.23869730428e-08
1.68889602091e-07
8.58789124783e-08
2.0106984264e-07
2.68004734197e-07
7.34262299211e-08
1.40731262705e-07
5.1131342906e-08
1.15332478557e-08
6.98136150133e-08
4.45587297256e-08
2.82984608001e-07
1.45170281955e-08
1.06749781096e-07
1.14285087704e-07
2.66925523377e-08
8.99278793242e-09
1.2838625122e-08
1.98381492687e-07
2.73438447199e-07
1.90388500235e-07
2.45421246069e-08
1.42386523078e-07
6.32633551311e-08
4.08660491355e-08
1.26436361532e-07
1.96257346306e-08
2.2485690296e-08
1.39341736519e-07
5.25570560912e-08
2.20891060431e-08
2.22150204017e-07
6.98719137459e-08
1.36401859741e-07
6.34338466592e-08
1.40471519224e-07
1.17244879938e-07
1.34854140767e-07
4.35618617445e-07
2.54636801079e-08
9.05799889834e-08
3.72023935595e-08
5.50511784075e-08
3.33378992405e-08
3.1488528526e-08
4.66353142497e-08
4.05373594273e-09
1.38707720194e-08
4.5410807318e-08
5.52578005749e-08
1.68751680656e-10
6.93385028048e-08
1.23694807485e-07
2.89100575108e-09
6.53904977283e-08
1.76870027189e-07

