# vtk DataFile Version 3.0
File Name: Molecule/sphere_excent/sphere_excent_0-s57.vtk
ASCII
DATASET UNSTRUCTURED_GRID
FIELD FieldData 1
TIME 1 1 double
0.0
POINTS 1324 double
0.39744180441 -0.4563319087 -0.79613000154
0.50773233175 -0.50678533316 -0.69669431448
0.37469768524 -0.59077692032 -0.71455425024
0.80856138468 0.18943077326 -0.55701386929
0.87293404341 0.15707631409 -0.46157479286
0.81519597769 0.085503362119 -0.57246983051
0.87620204687 -0.078498378396 -0.47463169694
0.83012259007 -0.016644475982 -0.5573284626
0.87111777067 0.053100690246 -0.48814359307
-0.25342288613 -0.87525904179 -0.41194587946
-0.14818747342 -0.87794566154 -0.45524203777
-0.17387384176 -0.92000871897 -0.35122033954
0.59140956402 -0.12287315726 0.79688519239
0.53830176592 -0.34340813756 0.76959687471
0.67126476765 -0.23355124891 0.70346522331
0.91972869635 0.13024497032 0.37027356029
0.88202303648 0.056247007102 0.46780881286
0.94829249382 0.035961553454 0.31531745195
0.393412292 -0.46114072204 0.79535698891
0.39501947165 -0.30173298717 0.86772489548
0.50623577833 -0.56684833765 0.6499170661
0.63234192133 0.42797616124 0.64570236206
0.5837444663 0.32249641418 0.74501663446
0.72448694706 0.2842823267 0.62794613838
0.11164212972 -0.26945734024 -0.95651251078
0.11181929708 -0.36998400092 -0.9222895503
0.013495440595 -0.3006502986 -0.95362710953
-0.18848076463 -0.37977662683 -0.90566682816
-0.12735316157 -0.45368662477 -0.88200813532
-0.21549676359 -0.4470102787 -0.86818116903
-0.19770787656 -0.51407575607 -0.83463466167
-0.13109374046 -0.62047159672 -0.77320373058
-0.20230172575 -0.58535152674 -0.78513890505
-0.094350911677 -0.54699748755 -0.83178031445
0.019217409194 -0.52530866861 -0.85060423613
0.001871396089 -0.59151238203 -0.8062415123
0.84341734648 0.48532801867 0.23019777238
0.87681889534 0.46467682719 0.12327064574
0.81303024292 0.56296920776 0.14864765108
0.88401287794 0.3479334712 -0.31217813492
0.89211970568 0.38475358486 -0.23684555292
0.92517650127 0.30152657628 -0.23048435152
0.84651052952 0.4354467392 -0.30627280474
0.84092825651 0.24495649338 -0.48254588246
-0.33662900329 -0.35513225198 -0.87209969759
-0.25891360641 -0.31199336052 -0.9141266942
-0.27642440796 -0.4025273025 -0.87267059088
-0.35996896029 -0.28127771616 -0.88953113556
0.012639009394 -0.3802177012 -0.9248072505
-0.45036900043 0.6310056448 -0.63165783882
-0.35692957044 0.66883170605 -0.65210646391
-0.38314378262 0.58596694469 -0.71402204037
-0.27552905679 0.61726945639 -0.73692625761
-0.26219964027 0.70216560364 -0.66196733713
-0.60841006041 0.034320019186 -0.79286360741
-0.69127136469 -0.037983845919 -0.72129762173
-0.6867955327 0.08598523587 -0.72174233198
-0.60274124146 0.1357293427 -0.78628581762
-0.52616429329 0.10193510354 -0.84423619509
-0.1566028893 -0.1327765137 -0.97869586945
-0.13011708856 -0.045382469893 -0.99046456814
-0.05975939706 -0.12347993255 -0.99054312706
-0.28931203485 -0.22387889028 -0.93067890406
-0.18927146494 -0.22232230008 -0.95640933514
-0.24818277359 -0.15076504648 -0.95690786839
-0.20783060789 0.55504161119 -0.80543649197
-0.31578546762 0.5227021575 -0.79187482595
-0.28836262226 0.41266393661 -0.86402541399
-0.37261724472 0.43734461069 -0.81847047806
-0.075039945543 0.55980342627 -0.82521361113
-0.15399208665 0.62068629265 -0.76879161596
-0.31349870563 0.07710903883 -0.94644403458
-0.25088596344 0.15383534133 -0.95571517944
-0.23562811315 0.064440727234 -0.96970868111
-0.35507589579 -0.58050578833 0.73275321722
-0.30602186918 -0.48203852773 0.8209451437
-0.46878349781 -0.41986319423 0.7770767808
0.11247009784 -0.0099220424891 0.99360102415
0.052384760231 -0.099391080439 0.99365335703
0.14603729546 -0.096176497638 0.98458129168
0.28242069483 -0.2360419184 0.92977106571
0.16893592477 -0.25857898593 0.95105916262
0.27257737517 -0.36424002051 0.89054620266
-0.16365000606 -0.51298171282 0.84264832735
-0.20369978249 -0.62416017056 0.75425297022
-0.25918149948 -0.37941882014 0.88766783476
-0.45539942384 -0.12047364563 0.88203114271
-0.37373399734 0.0050109550357 0.92737060785
-0.49898937345 0.030239107087 0.86604583263
-0.49532058835 0.22321259975 0.83954465389
-0.3992934227 0.13317751884 0.90712028742
-0.60882782936 0.1093461737 0.78570967913
-0.34889033437 0.27998277545 0.89406442642
-0.62479913235 0.30617335439 0.71822315454
-0.45062360168 0.3999094069 0.797534585
-0.62310880423 -0.10944186151 0.77441424131
0.24677059054 -0.50276774168 0.82845658064
0.30296781659 -0.63156831264 0.71365767717
0.11020411551 -0.58845740557 0.8009326458
0.17768022418 -0.42095276713 0.88943833113
0.41622447968 0.051553271711 -0.90776830912
0.51369351149 0.10045959055 -0.85207289457
0.49504837394 -0.03018604964 -0.86830282211
0.2638271153 -0.45491990447 -0.85050594807
0.14956322312 -0.4546533525 -0.87801891565
0.2124273628 -0.39035782218 -0.89579176903
0.29420679808 -0.53433418274 -0.79238522053
0.60867702961 0.1093261838 -0.78584736586
0.5847812891 0.21259261668 -0.78283983469
0.68178272247 0.154722929 -0.71499139071
0.23710826039 -0.61154139042 -0.75474685431
-0.12452978641 -0.75337147713 -0.64569717646
-0.13582660258 -0.68845915794 -0.71244013309
-0.058754038066 -0.70312255621 -0.7086276412
0.049536772072 -0.44908648729 -0.89211499691
0.11403888464 -0.68962717056 -0.71502500772
0.12914001942 -0.62589341402 -0.76894503832
0.19363880157 -0.68377745152 -0.70334684849
-0.026764744893 -0.80065339804 -0.59851592779
-0.15134298801 -0.81413096189 -0.56060665846
0.36892342567 0.4885725081 -0.79067486525
0.37552616 0.35794135928 -0.8548951745
0.2990091145 0.43411317468 -0.84978461266
0.28183063865 0.32561141253 -0.90251994133
-0.23762091994 -0.76379007101 -0.60013443232
-0.21418373287 -0.70443105698 -0.67668932676
-0.30799138546 -0.69660228491 -0.64798843861
-0.352627635 -0.75292891264 -0.55564683676
-0.26934722066 -0.63787275553 -0.72150498629
-0.4024053514 -0.67210119963 -0.62156718969
-0.36214309931 -0.6155231595 -0.69998544455
-0.48065450788 -0.59383302927 -0.64522373676
-0.48497623205 -0.68371170759 -0.54527842999
-0.2928789854 -0.56348538399 -0.77246332169
-0.38831809163 -0.52037405968 -0.76052093506
-0.25037518144 -0.82364678383 -0.50883215666
-0.19167654216 -0.64844810963 -0.73673266172
-0.60506010056 0.5850648284 0.53997701406
-0.56772875786 0.48156529665 0.66768974066
-0.5082013607 0.62436085939 0.59316307306
-0.41285279393 0.57914197445 0.70292007923
-0.52860110998 0.5869448781 -0.61327087879
-0.51240772009 0.66111683846 -0.54806381464
-0.53298467398 0.18499584496 -0.82566136122
-0.58542490005 0.22184431553 -0.77978116274
-0.52385300398 0.27098152041 -0.80752718449
-0.60022926331 0.30350917578 -0.73999512196
0.77754437923 0.07244643569 0.62472867966
0.68946439028 -0.02482345514 0.72385799885
0.76463550329 -0.12045519054 0.63308674097
0.66538143158 0.16143278778 0.72879606485
-0.90527063608 0.10379116982 0.41197282076
-0.79348409176 0.23620426655 0.56059843302
-0.87181079388 0.28793120384 0.39583727717
-0.72252094746 0.3844718039 0.57419121265
-0.6277346611 0.37670448422 -0.68121397495
-0.69291973114 0.28032854199 -0.66429579258
-0.65847939253 0.19938467443 -0.72569960356
-0.4176505208 0.50286275148 -0.75676500797
-0.4785425365 0.54942721128 -0.68495720625
-0.50281322002 0.47434028983 -0.72262269258
-0.56988638639 0.48507785797 -0.66325092316
-0.46550929546 0.42697608471 -0.77523082495
-0.42894092202 0.37684240937 -0.820966959
-0.51016885042 0.35137173533 -0.78501558304
-0.55352342129 0.40269473195 -0.72900474072
-0.45806327462 0.31084796786 -0.83279722929
-0.47805678844 0.23007574677 -0.84763109684
-0.64538896084 0.43893030286 -0.62516403198
-0.42171424627 0.26520740986 -0.86703437567
-0.36027523875 0.33260622621 -0.87153571844
-0.93210339546 -0.35552066565 -0.069226279855
-0.89252048731 -0.43711081147 0.11116494983
-0.94786995649 -0.27980554104 0.15217129886
0.71377056837 0.3443467319 -0.60987174511
0.64381426573 0.41363215446 -0.64373964071
0.69821131229 0.4190672338 -0.58037167788
0.18919855356 0.31797006726 -0.92902213335
0.21865136921 0.40496057272 -0.88780993223
0.234834373 0.20692409575 -0.94973915815
0.33978453279 0.23256035149 -0.91127884388
0.39100024104 -0.052536677569 -0.91886985302
0.28974023461 0.0034638142679 -0.95707577467
0.31893050671 0.11792141199 -0.94041222334
0.41880789399 0.15859116614 -0.89412391186
-0.11981250346 0.64450508356 0.75516569614
0.033663664013 0.71779996157 0.69543558359
-0.12019938231 0.76073992252 0.63785558939
0.013216026127 0.59418869019 0.80426949263
0.016843331978 0.83659899235 0.54757320881
0.17920055985 0.76832926273 0.61435353756
0.19009180367 0.62742102146 0.75522309542
-0.27557396889 0.55224639177 0.78611207008
-0.25285074115 0.65909177065 0.70831590891
-0.13903497159 0.52290296555 0.84098178148
0.077638119459 -0.87693184614 -0.47428163886
0.11254359782 -0.81617087126 -0.56673997641
0.17932623625 -0.85420334339 -0.48794233799
0.24664273858 -0.81225955486 -0.52855700254
0.2577881515 -0.85829031467 -0.44361948967
0.15115860105 -0.7435875535 -0.65132039785
0.063187092543 -0.75674146414 -0.65063428879
-0.73566710949 0.16409403086 -0.6571598053
-0.77205014229 0.068441435695 -0.63156294823
-0.822250247 0.14489340782 -0.55035150051
0.40010151267 0.55637556314 -0.72823297977
0.46750712395 0.49004933238 -0.73573112488
0.2050896287 0.094700023532 -0.97415733337
0.12782725692 0.16782951355 -0.97748672962
0.035547625273 0.40782806277 -0.91235411167
0.13494776189 0.39492675662 -0.90874123573
0.10215239227 0.32390382886 -0.94055825472
0.44018363953 0.42284697294 -0.79210633039
0.46766266227 0.34388759732 -0.81426107883
0.51489835978 0.40807399154 -0.75388300419
0.43073403835 0.26290380955 -0.86333882809
0.54596787691 0.32672211528 -0.77145493031
0.59193986654 0.37700793147 -0.71236342192
0.61059296131 0.29870808125 -0.7334445715
0.5079934597 0.27082711458 -0.81768268347
0.66068041325 0.32519769669 -0.67655873299
0.55781000853 0.45143392682 -0.69645261765
0.67901164293 -0.26180464029 -0.68583786488
0.63593894243 -0.39239025116 -0.6645103097
0.57593005896 -0.3025816381 -0.75936168432
[...]
CELL_DATA 2644
SCALARS cell_data_0 double
LOOKUP_TABLE default
3.07332489096e-09
1.86343627805e-07
1.11418209339e-07
1.14385275607e-05
7.80094432829e-06
5.32512012395e-07
9.4274838921e-06
1.02530351317e-05
3.80126106642e-06
3.73489289867e-08
3.35535126058e-08
3.18512680905e-07
9.00642053812e-07
1.58949280645e-06
3.82666256974e-06
1.06175355576e-07
1.7844940576e-06
1.98165424145e-06
4.58996244256e-07
1.64874239033e-08
3.13545326308e-08
3.20001510916e-07
4.30499096844e-07
1.16105707797e-07
1.47770632264e-06
1.23098683647e-07
2.19304906141e-08
3.98335904905e-08
1.16665426643e-07
4.01130585667e-07
7.66160292738e-08
1.85988872566e-08
3.13849783404e-07
1.10566317011e-07
4.1091432445e-06
2.35636098244e-06
9.88744740504e-06
3.92108493397e-06
3.78451052475e-06
3.55386456376e-06
4.93996412708e-06
5.11749558553e-06
4.31589983827e-06
8.31147463964e-06
5.22108357029e-06
8.92432940126e-06
6.37361121333e-06
6.28334519072e-06
9.49179114818e-06
9.26573344968e-06
5.32154602929e-06
5.04263072975e-06
8.97598867843e-06
3.690400735e-06
5.54383117953e-06
1.73530730424e-07
3.61390176692e-07
2.85270108854e-07
1.39164021374e-07
2.14920709178e-07
1.92409198357e-07
2.60602299859e-07
3.16515875755e-08
3.52204792843e-08
1.66976860749e-07
4.40024678872e-08
3.41117553557e-06
3.63138346702e-06
1.11362681967e-06
2.21667076546e-06
1.73095324714e-06
1.35005635568e-06
1.45458162897e-06
1.18944400647e-06
6.67284288809e-07
6.39445598954e-07
1.08855767945e-05
3.28470209701e-07
2.18840812437e-07
1.63142858091e-06
3.80413785225e-07
4.8749601651e-07
4.42504845706e-07
3.35799070473e-07
5.43615949069e-07
6.77852642035e-07
9.07302524788e-07
9.29991370998e-07
2.13219691773e-07
4.86560047825e-06
7.97452006352e-06
9.61931690144e-07
9.90520768651e-07
3.72684140908e-06
9.58865324389e-08
9.87186992225e-07
1.9714855915e-07
4.52043771593e-06
4.98458710238e-06
5.08733915799e-06
6.01772156768e-06
6.5633836045e-06
7.54273738231e-06
2.07375746122e-06
5.06744450443e-06
5.97640183836e-06
7.17323871649e-06
1.10562145031e-06
4.95841672432e-07
3.82858810423e-07
6.24121716393e-07
6.15685865164e-07
3.66661666395e-07
3.24524585355e-07
2.09552915692e-07
5.48356355126e-07
3.31822472609e-07
2.74976155222e-07
2.72208363997e-07
1.44363815177e-07
3.15638710898e-07
1.63410558585e-07
2.50236622159e-07
4.26562400088e-07
3.02477366088e-07
2.76492181141e-07
2.31472926338e-07
1.81609312636e-07
2.59890108491e-07
3.60999147966e-07
5.72888653377e-07
6.22313211527e-07
2.34153233391e-07
1.34359482111e-07
2.58144601491e-07
1.59217075776e-07
8.17750072584e-08
5.05418400656e-06
1.58948271972e-07
6.7752368355e-07
4.23235559632e-07
2.63601152024e-07
6.92100563225e-06
3.44825153576e-07
8.19789167521e-06
6.24673660961e-06
4.63571838287e-06
3.94776771806e-06
4.30033486258e-06
4.28947596668e-06
5.28663852451e-06
4.76398936115e-06
5.07143607885e-06
4.08469650131e-06
3.87879758719e-06
5.96916542248e-06
5.6813754402e-06
5.19612468519e-09
5.38347153787e-06
1.88486755365e-06
4.41342902317e-07
1.98308745933e-07
4.10736809506e-07
1.64789055101e-06
1.00580211607e-07
1.19249301397e-06
2.29226546555e-07
4.67605230374e-07
6.92726635158e-07
3.9519574403e-07
3.68330844907e-07
7.04142782196e-07
1.18874960041e-07
1.41488159666e-07
8.73005629984e-08
8.29859290076e-06
8.20331944912e-07
1.53739729149e-06
1.12755528838e-06
7.0719333337e-07
3.33301678795e-07
1.71591902486e-06
1.5528163669e-06
2.61340791917e-07
1.32789262343e-06
1.79730348357e-07
1.14208586947e-06
8.85993690764e-07
1.36633948533e-06
3.18784369648e-07
1.30948802088e-07
9.92603143168e-08
1.33796159616e-07
1.51900202697e-07
5.52903278242e-07
1.609107023e-06
6.91990698933e-06
4.59493901126e-08
7.70655020649e-08
4.29069828522e-08
1.81971223199e-06
1.56284840515e-06
1.04822520749e-06
2.20988762699e-06
7.55507337644e-07
8.73075673238e-07
9.62193181674e-09
4.38660689159e-07
7.66496281986e-07
5.7628173455e-06
3.66644746967e-07
2.30660446233e-07
1.41459261206e-06
1.97794719143e-07
2.36025481238e-06
1.378906228e-06
1.25341295856e-05
1.28919334884e-05
6.19234939849e-06
1.00626851275e-05
9.63855059257e-06
7.22363035056e-06
1.56882609513e-05
3.51342866576e-05
1.89203132646e-05
2.06981567352e-05
1.24762784515e-05
1.11828187955e-05
7.74396657394e-06
7.63832753296e-06
1.30557986588e-06
2.45301119724e-06
2.18279523735e-07
1.89289658838e-07
4.66396971076e-06
5.7014073789e-07
4.60058054625e-06
3.83482221234e-07
9.93369140597e-07
7.94843392343e-06
1.25618812422e-07
2.28392779369e-06
1.13124192865e-06
6.10146630747e-07
1.47514897935e-06
1.85275212736e-07
1.85113332234e-07
1.45314255978e-07
2.86523227543e-07
6.93182847935e-07
1.29005945037e-06
4.59797278183e-06
5.23674438352e-06
3.13727643098e-06
3.39747687323e-06
3.67482477861e-06
7.09234485486e-09
7.28960642832e-08
2.32099419809e-06
1.35345762424e-06
1.25266851163e-06
1.14843901155e-06
8.82220101772e-07
1.53823317384e-06
3.28240251782e-06
3.12656287091e-06
3.35536350347e-06
8.24080652358e-06
8.6335226011e-07
1.71513322973e-07
3.16762300125e-07
7.26069534625e-07
3.5373488329e-06
2.8083848382e-08
3.30464593726e-08
6.67342004956e-08
4.02797652366e-08
7.86812095785e-08
9.07033178157e-08
2.06675704693e-06
7.86590186311e-08
9.92478825132e-08
1.67100210727e-08
5.01971226134e-07
4.27908333109e-07
5.92914582658e-07
4.43961611847e-07
1.54304306372e-05
5.28566526233e-08
5.88057478177e-07
4.9315886915e-06
2.47275187018e-07
1.90530148719e-07
9.0334691863e-07
1.51355090062e-06
5.1624695638e-08
7.00149706911e-07
8.15091642004e-06
4.39678384404e-06
3.96541339811e-06
3.7754604554e-06
2.78178276972e-08
3.80390971823e-07
5.07932172405e-09
2.21726773579e-09
1.36772314536e-08
1.13138680524e-08
1.75794108333e-08
2.08141907431e-10
1.78817371546e-08
1.56976428218e-08
2.09561925094e-08
1.51318663993e-08
4.01374180116e-08
3.1341905597e-08
2.96004124591e-08
3.96822224448e-08
3.82233515364e-08
2.83408721546e-08
3.11608194434e-08
1.6597367707e-08
1.11559699681e-07
1.93561063454e-10
1.5644461275e-08
6.58928342423e-06
3.6762363546e-06
3.45383300498e-06
3.94761758289e-06
2.84994322796e-06
2.98820770756e-06
3.59120404858e-06
2.71507357945e-06
1.57027270376e-06
1.81890398915e-06
1.41354125681e-06
2.46310614948e-06
3.97954564689e-06
2.36889138024e-08
4.84415061796e-07
8.73297892637e-08
2.24622124754e-07
9.14228229639e-07
3.3022184068e-07
3.49226885425e-06
2.3456434316e-06
1.32434168574e-06
1.09791232665e-06
5.39538477358e-07
9.50011903239e-07
2.51437438878e-07
6.64951759955e-08
3.30296659071e-07
9.26828739781e-08
1.61246656538e-08
3.31675656195e-07
3.88819603336e-07
1.61491368121e-07
2.73234499356e-07
1.84763679882e-07
1.87968269799e-07
2.13357631459e-07
3.35534136894e-07
2.34119155839e-07
2.63897824338e-07
1.08075264391e-07
1.2953613868e-07
2.97074001736e-07
2.83965738178e-07
2.79557759285e-07
6.62163139335e-08
4.74983601471e-07
5.68226195389e-07
2.94806131507e-07
3.19675108618e-07
3.02509029175e-07
3.78221369643e-07
1.7018106946e-07
3.65117796752e-07
1.03415153229e-07
2.23414594548e-07
1.67074853705e-07
2.71306057356e-07
2.82100157967e-07
1.33030787898e-07
1.55253863626e-07
1.12895721157e-07
1.45593184934e-07
6.93508422401e-08
9.97188468331e-08
5.44828295074e-08
1.27305382789e-07
1.31586397532e-07
1.23920950181e-07
6.19299416632e-08
9.95101266691e-08
3.38057893479e-08
2.02424238198e-08
3.7631681496e-08
4.85638593675e-08
7.12117073244e-07
3.4481325672e-08
5.88094711911e-08
8.00543348788e-08
7.95928490921e-07
5.08994570567e-06
3.63394467946e-06
4.06343664057e-06
6.2694868532e-06
2.66479974948e-07
2.87461284973e-07
4.44175935329e-07
2.45847415514e-07
3.57605721049e-07
3.54639997341e-07
6.8940607083e-07
3.77929754328e-07
3.7110100057e-07
1.49146569616e-07
2.42430003324e-07
2.62934183635e-07
7.19382546188e-09
1.38366172098e-08
1.34963133141e-08
7.58595446214e-09
3.15229794713e-08
2.0706380401e-07
6.1933151668e-08
7.21372695734e-08
1.43685787793e-08
6.46392919525e-09
1.25536378355e-08
3.5376066737e-08
9.47884141273e-08
5.58532773783e-08
4.52515751828e-08
1.00275715185e-07
9.10855158662e-08
3.31107757873e-06
3.89276883905e-06
3.37099481517e-06
6.01008391879e-06
7.03451125486e-06
7.63744616992e-07
2.26796116258e-06
6.45882665422e-06
5.77475222764e-06
1.01235230635e-06
1.3931713542e-07
2.04359451277e-07
2.40051075654e-07
3.84265439595e-07
5.72075652267e-07
5.46710832984e-07
3.58862850979e-07
2.54040520487e-06
3.90095529798e-07
2.83448070187e-06
1.26072472295e-06
1.97543714519e-06
2.73706047408e-06
4.32729752564e-06
7.55339779005e-07
8.41351099427e-07
5.99016151077e-07
2.58201865094e-06
3.94636994108e-06
2.17189255161e-07
2.28046679606e-07
2.45149890557e-07
3.16821703206e-06
3.10307909463e-06
6.61673272604e-07
3.35757365885e-06
5.21241202945e-06
5.87785175433e-06
6.16872740032e-06
5.34574601668e-06
4.33947565657e-06
1.8464404944e-06
7.56595780123e-07
4.53586025225e-06
5.69395031701e-07
1.65093460748e-06
1.4247358334e-06
7.07305680038e-07
4.28278156504e-06
9.99300816284e-07
2.08786380272e-06
3.32065290411e-06
4.34577010447e-06
8.80196501404e-07
3.59916298997e-06
5.15881496208e-07
6.72914327396e-07
1.04255495595e-07
1.4184811348e-07
3.9495447176e-06
1.8414896635e-07
2.95148424523e-07
3.17936699131e-07
1.95763770277e-07
2.27728787975e-07
1.26324841905e-07
1.18601071133e-07
1.01170709315e-06
5.10992700316e-07
2.09630254248e-07
4.12458106501e-07
2.73395114911e-07
4.1019863132e-07
2.06011652647e-07
2.03653929024e-07
1.43530207071e-06
3.88796241936e-06
3.34652781745e-06
6.02670376217e-06
8.74152649675e-07
4.79088400694e-06
3.81818693923e-06
2.08469485383e-06
1.73013672418e-06
1.19592128041e-07
6.96105926944e-07
2.39315219241e-07
2.44983083411e-07
2.84673227708e-07
4.19553191443e-07
4.06209279178e-07
3.678541312e-07
2.69557092319e-07
3.43944752197e-07
5.44600672552e-07
3.68428761e-06
6.87122049608e-07
2.62814063735e-06
2.03253268576e-08
1.9546698488e-06
1.98768886898e-06
2.71459536946e-07
2.41041685346e-06
1.31255375252e-06
2.38198544367e-06
2.68148851496e-07
5.23750527317e-07
3.46935958444e-06
1.43748149718e-06
5.85473174616e-08
2.54296590665e-06
2.87248359233e-07
7.7295791699e-07
1.0721323983e-07
1.65354527091e-06
1.0247310533e-06
2.29569368474e-06
7.44237065555e-07
1.16933591419e-06
9.15936017638e-08
1.56214221585e-06
6.68101506297e-08
8.82239419609e-08
3.94573042214e-08
7.79329230728e-08
1.14628214478e-06
2.19488178356e-06
2.4998492483e-06
1.311853008e-06
3.39238293273e-06
4.34928702428e-06
2.3329405117e-06
1.82261502987e-07
3.13930703913e-07
1.70643030627e-06
8.10547462106e-07
1.78154754538e-07
1.60023602251e-07
2.01446439968e-07
2.53725797158e-06
4.18754790098e-07
7.44062168981e-07
2.63815556336e-06
3.67757115916e-07
5.42032588244e-07
2.76279053296e-07
4.66774331569e-07
1.97888357882e-07
1.67382857708e-07
2.18991363151e-06
4.03888169847e-06
2.94380285357e-06
3.10763032785e-07
6.00440254142e-07
9.8877036831e-07
6.72900000328e-07
6.39774008452e-07
7.70403070912e-07
1.20717959715e-06
7.58502645568e-07
7.83350989372e-07
3.02689862007e-07
3.03465180766e-07
4.73282621858e-07
4.07017290384e-07
4.06845629244e-07
3.52434770892e-07
3.33059695293e-07
3.18988120652e-07
4.63634939292e-07
7.17399366859e-07
3.42017840488e-07
4.62237468205e-07
3.98039658313e-07
7.07167941119e-07
5.17368866493e-07
4.30447255572e-07
3.64374083981e-07
6.9070116118e-07
3.93594924071e-07
4.68254998346e-07
6.94912965332e-07
6.64079108437e-07
4.01168916984e-07
6.08017214421e-07
3.86131327429e-07
3.22378161987e-07
2.65987080918e-07
5.6787803443e-07
3.10107487594e-07
4.37148082069e-07
5.22066997786e-07
1.24323413298e-06
6.45268238964e-07
6.79207151473e-06
6.95809042609e-07
1.13956431007e-06
6.55284106251e-07
5.41352368741e-07
4.13540901212e-07
5.57264034301e-07
3.35596457916e-07
1.81305528991e-07
3.95678750708e-06
4.89831198564e-06
2.47228670681e-06
3.23632285374e-06
2.01356828234e-06
1.50423379578e-06
1.42726695865e-07
3.81540733657e-07
3.30837181875e-07
3.06815699237e-07
1.27264018744e-06
3.57269343437e-07
4.20052135182e-07
8.52812842349e-08
1.33192786543e-07
2.04285039516e-07
1.68915478763e-07
1.34862341036e-06
8.77452959612e-06
5.14899488705e-08
7.39991276282e-07
8.58281508795e-07
4.51117978005e-08
8.59895893057e-09
2.46709702413e-08
1.98857410787e-08
3.44500653124e-08
1.0292964069e-07
4.14052323551e-08
1.7087396289e-06
1.90203124414e-06
9.9024704692e-08
3.27491747545e-07
7.66098255784e-07
1.62262541424e-06
3.48526738443e-07
2.78614434429e-07
1.33571330094e-07
4.44464944369e-07
2.41197920642e-07
1.25022254941e-07
8.11245947282e-07
5.35620149443e-08
5.81635082976e-07
2.26244265259e-07
1.5774858748e-06
1.22172555554e-08
4.4583417387e-06
2.59466605977e-06
5.79305748127e-06
5.95684540855e-06
7.09432976165e-09
7.72898995701e-08
1.28642302664e-07
8.76777625104e-07
1.48770601017e-07
2.97514311637e-07
5.41397512372e-08
3.34668303438e-07
2.65500720008e-07
1.33570433803e-07
3.674609021e-07
1.48202341608e-07
9.80368270663e-08
1.10115689359e-06
4.2105934469e-06
2.83319389313e-07
5.80735163025e-07
1.34995757762e-07
1.79033718982e-06
5.21094809314e-08
1.23973383403e-08
8.49435022023e-07
1.7341145326e-06
6.47324963728e-07
2.74196248192e-07
3.49845271164e-06
7.12882559712e-07
2.12656205927e-07
3.68408153468e-08
5.6511677062e-09
6.4007061245e-08
8.46099214804e-07
7.12730460036e-08
4.48172986371e-07
1.11417556132e-06
7.2979961626e-07
3.07139957512e-07
1.81107875294e-06
2.76138658479e-06
3.33495607507e-06
4.48765312576e-06
3.2779493371e-06
1.94022401277e-06
1.24007455395e-05
2.18487924451e-06
5.81525390014e-07
5.66498994444e-07
2.88242944873e-06
7.95696170614e-07
7.88597127136e-07
4.48942454936e-07
2.93787083465e-08
9.22549843822e-08
6.81452088623e-06
5.89189072941e-06
6.03977386454e-06
3.04783986834e-06
1.53289717001e-06
3.6164499921e-06
5.89031100033e-07
6.52282961077e-06
3.38085167015e-06
4.91529118455e-06
4.4245557501e-06
1.86181153642e-06
3.16730703635e-06
2.50160673493e-06
8.67027174687e-07
3.72704202196e-07
4.48137807648e-07
1.70550385969e-06
3.1931384043e-06
7.82055162933e-07
2.32175295577e-06
3.5940104976e-07
3.33163461254e-07
1.94450488497e-07
2.29940834251e-07
1.3162064644e-07
1.21632732841e-07
1.23207122208e-07
1.15553905854e-07
9.54984719473e-08
6.28957989993e-08
1.13187942294e-06
1.09194070991e-07
5.59933776161e-07
6.7230042498e-07
1.27282304709e-07
1.2411308502e-06
1.58740645427e-06
7.30258336552e-07
3.17067242736e-07
6.8143330145e-07
3.22773803291e-07
6.9969689336e-08
3.07127824067e-07
1.17699016937e-07
4.47492382239e-08
1.40859357641e-06
8.40816886708e-08
1.6491809561e-07
1.5854004126e-07
3.70172548344e-07
1.675891179e-07
2.2358543945e-07
2.4941913419e-07
2.89142041848e-07
7.70863024523e-07
8.52262450099e-07
3.22898526485e-07
5.24320407683e-07
3.8507196218e-07
5.82713251933e-07
3.23982354842e-08
2.56481810298e-06
2.84905304879e-06
8.65326465002e-06
1.51048531084e-05
1.23150415315e-05
8.64287858945e-07
4.38977939946e-07
1.25569942301e-05
4.95519000355e-08
1.72493502742e-07
7.95335651385e-07
3.30237256469e-07
7.50587383728e-07
1.75552812496e-07
9.96576161519e-08
3.85143376444e-07
6.76309292288e-06
9.85119452949e-08
4.22108526027e-07
2.08769595114e-07
7.72336386252e-07
3.80570918878e-06
2.85921767289e-06
2.59435805133e-06
1.29693376673e-06
1.40418603123e-06
1.27564606347e-06
1.28375171505e-06
4.88861645284e-06
5.81074978756e-06
6.24917515287e-06
8.45874591579e-06
4.46554037821e-06
3.01288876945e-06
2.85442561721e-06
2.19620749115e-06
1.64986525186e-06
1.64403292178e-06
1.68950521125e-06
2.42243507105e-06
4.1367924813e-06
3.8001298847e-06
5.69624137652e-06
6.73536783055e-06
4.77346844351e-06
4.17132342562e-06
2.76405348898e-06
3.07976272244e-06
3.27304142983e-06
3.53665652717e-06
3.03299824195e-06
4.2831896438e-06
4.56393794764e-06
6.52873867331e-06
2.58964195609e-06
3.37223616219e-06
4.21645713606e-06
9.0445317551e-07
9.58981773542e-07
1.08753974892e-06
1.79761811314e-06
1.89413546229e-06
1.46008697628e-06
1.75943862943e-06
3.22028478791e-08
7.08901127604e-07
1.65765529401e-06
2.5528483142e-06
1.17623256036e-06
1.82220783302e-06
5.17501306978e-07
7.56005571594e-07
2.81096694148e-06
3.5296879432e-07
2.23767363252e-07
1.17092181499e-06
1.27546073439e-06
8.3164298934e-07
1.27520225686e-06
1.53174505448e-06
1.06698520794e-06
6.28602253509e-07
7.73011838576e-07
6.27511222537e-07
2.93998075818e-06
5.45905687691e-06
3.64529874943e-06
7.42645495632e-08
7.01944120478e-08
6.21927173979e-08
2.25878577357e-07
5.96703282077e-07
1.61846264937e-06
7.23429639032e-07
9.14095552891e-07
8.44861295278e-07
9.27894584278e-07
1.24792471935e-06
1.01988709498e-06
1.11162425112e-06
2.00947160648e-06
2.59166428011e-06
4.38042402074e-07
2.5478004418e-06
2.19140271723e-06
1.41838065015e-06
1.27586564216e-06
1.76966346734e-06
1.19869021069e-06
1.16899083873e-06
9.73275834281e-07
7.19695527139e-06
1.70381952459e-08
4.24957920058e-08
1.62759297939e-06
1.44170802202e-06
2.0413717398e-06
3.39840745158e-08
5.4943454888e-08
2.42119330349e-06
2.24675264972e-06
8.44625654153e-06
4.64170966331e-07
3.46097023099e-07
1.65042923915e-06
3.63675240193e-07
1.10025598637e-06
6.89805728184e-07
2.6280382677e-06
6.59277676896e-06
5.89591373372e-06
6.29461866482e-06
1.54283122028e-06
4.50815549221e-06
4.07752904675e-08
7.75474956877e-08
1.41263832282e-06
3.69544949195e-08
2.83574648075e-07
3.45050587628e-07
4.81269946216e-08
5.69859096338e-08
4.89133398161e-08
6.00826540706e-08
1.94855929411e-08
3.6150081763e-08
4.46617886609e-08
4.17420663268e-08
5.48215637744e-07
2.42143060501e-10
1.25749046869e-08
1.47710974412e-06
4.6790744075e-08
9.95081791794e-07
5.69040508605e-07
3.90493854888e-06
4.60016108386e-06
3.8008862736e-06
1.02619179272e-06
1.35327280505e-06
2.22085075132e-06
1.53651633005e-06
3.43702819114e-06
1.22838995305e-06
5.42813973522e-06
6.42903219771e-06
1.06958139834e-07
1.14992467379e-06
5.76040869451e-07
1.0761226607e-06
2.01314422054e-07
1.82593004602e-07
2.36732145925e-06
6.2246619754e-08
1.04099730228e-07
9.25125287142e-07
1.90905904997e-06
2.33085765118e-06
2.44448633972e-06
3.39582624091e-08
5.99202191345e-06
9.38097999373e-08
1.01192456451e-07
6.39176475525e-08
8.40674286406e-08
5.33524052681e-08
8.11675505298e-08
5.27105585725e-08
4.8689235477e-09
1.10418078091e-08
1.66355125863e-08
6.63684873974e-08
5.38443429108e-08
5.31750611741e-07
6.10069947259e-07
1.12612252489e-06
2.6914250407e-06
1.68251453514e-06
2.04906902163e-06
5.37823201857e-07
2.52036072178e-06
2.0916147001e-06
2.16834412622e-06
6.08140158918e-06
1.72078709729e-05
6.87530885774e-06
1.47838543362e-05
1.940131031e-06
2.5527239043e-06
6.38586043561e-06
4.50637430315e-06
3.2045748076e-06
8.75473256244e-06
9.43663054523e-06
1.98734662338e-06
5.29607706825e-06
3.85591788241e-06
1.08709937434e-05
1.13108134874e-05
4.60027786198e-06
5.15425863972e-06
1.34178060757e-05
1.40795355187e-05
7.41314893285e-06
5.88327943634e-06
1.99507440299e-05
1.68964838904e-05
1.07849837212e-05
1.34260843462e-05
1.43612080767e-05
1.36610411685e-05
1.27163344104e-05
1.52539422373e-05
1.18479649648e-06
7.70109916413e-07
8.22417170521e-07
5.03772069663e-06
4.06523895055e-06
2.47076844475e-06
5.04863530415e-06
2.20692370641e-06
3.35334409464e-06
2.82808461149e-06
3.70385497168e-06
3.5685069629e-06
2.47954217837e-07
1.80730634184e-06
2.74370275056e-06
6.29720933772e-07
2.24155221937e-07
1.12894821909e-07
1.39313652093e-07
1.35008718083e-07
1.4821375987e-07
1.73007299989e-07
1.25799184951e-07
1.37285601622e-07
7.78854756889e-08
3.84253406233e-08
1.55703324953e-08
3.17226066506e-06
6.59430428164e-06
1.52112810935e-06
6.29692353737e-06
2.52362093202e-06
2.25654953828e-06
3.12054841867e-06
3.05180027725e-06
4.74770250793e-06
5.40824491199e-06
5.4744628999e-06
5.6624923846e-06
6.12771552676e-06
7.1493799665e-06
6.92561671575e-06
6.94320031012e-06
6.20605973333e-06
6.26329884197e-06
5.4484247302e-06
6.24653265272e-06
9.8593967083e-06
8.52603984785e-06
9.43339979858e-06
4.02990059512e-06
4.2098930304e-06
4.97460378844e-06
3.92820341569e-06
1.59352250671e-08
1.29610282206e-06
1.69834876522e-06
3.86885945179e-08
5.99784308482e-07
4.07628977393e-06
3.24693345545e-06
3.16940647709e-06
3.77274753177e-06
6.58016543457e-07
1.67336501184e-07
4.53266860916e-06
6.11434925807e-07
1.13687073832e-06
2.81644485085e-06
1.81245791119e-06
6.58804849624e-06
9.44702295709e-06
5.26579961128e-06
6.12568541789e-06
3.3369274647e-06