# vtk DataFile Version 3.0
File Name: Molecule/sphere_excent/sphere_excent_0-s4.vtk
ASCII
DATASET UNSTRUCTURED_GRID
FIELD FieldData 1
TIME 1 1 double
0.0
POINTS 182 double
1.70130162 -1.05146222 0.0
1.72533696 -0.86777713 -0.51978383
1.92387672 -0.54653306 0.0
1.90211303 -0.3249197 -0.52573111
1.61803399 -0.61803399 -1.0
2.0 0.0 0.0
1.70130162 0.0 -1.05146222
1.90211303 0.3249197 -0.52573111
1.61803399 0.61803399 -1.0
1.38756095 -0.32124407 -1.40409289
1.38756095 0.32124407 -1.40409289
1.05146222 0.0 -1.70130162
1.92387672 0.54653306 0.0
1.72533696 0.86777713 -0.51978383
1.70130162 1.05146222 0.0
1.40409289 1.38756095 -0.32124407
1.37638192 1.17557051 -0.85065081
1.0 1.61803399 -0.61803399
1.17557051 0.85065081 -1.37638192
0.85065081 1.37638192 -1.17557051
0.61803399 1.0 -1.61803399
0.86777713 0.51978383 -1.72533696
0.32124407 1.40409289 -1.38756095
0.51978383 1.72533696 -0.86777713
0.0 1.70130162 -1.05146222
1.0 1.61803399 0.61803399
0.52573111 1.90211303 0.3249197
0.51978383 1.72533696 0.86777713
0.0 1.92387672 0.54653306
0.0 2.0 0.0
0.0 1.70130162 1.05146222
-0.51978383 1.72533696 0.86777713
-0.52573111 1.90211303 0.3249197
-1.0 1.61803399 0.61803399
-1.05146222 1.70130162 0.0
-1.40409289 1.38756095 0.32124407
-1.40409289 1.38756095 -0.32124407
-1.0 1.61803399 -0.61803399
-1.70130162 1.05146222 0.0
-0.32124407 1.40409289 1.38756095
-0.85065081 1.37638192 1.17557051
-0.61803399 1.0 1.61803399
-1.37638192 1.17557051 0.85065081
-1.17557051 0.85065081 1.37638192
-1.61803399 0.61803399 1.0
-1.72533696 0.86777713 0.51978383
-0.86777713 0.51978383 1.72533696
-1.38756095 0.32124407 1.40409289
-1.05146222 0.0 1.70130162
0.32124407 1.40409289 1.38756095
0.0 1.05146222 1.70130162
0.61803399 1.0 1.61803399
-0.3249197 0.52573111 1.90211303
0.3249197 0.52573111 1.90211303
0.0 0.0 2.0
-0.54653306 0.0 1.92387672
0.86777713 0.51978383 1.72533696
0.54653306 0.0 1.92387672
1.05146222 0.0 1.70130162
-0.86777713 -0.51978383 1.72533696
-0.3249197 -0.52573111 1.90211303
-0.61803399 -1.0 1.61803399
0.0 -1.05146222 1.70130162
0.3249197 -0.52573111 1.90211303
0.61803399 -1.0 1.61803399
-0.32124407 -1.40409289 1.38756095
0.32124407 -1.40409289 1.38756095
0.0 -1.70130162 1.05146222
0.86777713 -0.51978383 1.72533696
1.38756095 -0.32124407 1.40409289
1.17557051 -0.85065081 1.37638192
1.61803399 -0.61803399 1.0
0.85065081 -1.37638192 1.17557051
1.37638192 -1.17557051 0.85065081
1.0 -1.61803399 0.61803399
0.51978383 -1.72533696 0.86777713
1.72533696 -0.86777713 0.51978383
1.40409289 -1.38756095 0.32124407
0.86777713 -0.51978383 -1.72533696
0.54653306 0.0 -1.92387672
0.3249197 -0.52573111 -1.90211303
0.61803399 -1.0 -1.61803399
0.0 0.0 -2.0
0.0 -1.05146222 -1.70130162
-0.3249197 -0.52573111 -1.90211303
-0.61803399 -1.0 -1.61803399
0.32124407 -1.40409289 -1.38756095
-0.32124407 -1.40409289 -1.38756095
0.0 -1.70130162 -1.05146222
-0.54653306 0.0 -1.92387672
-0.86777713 -0.51978383 -1.72533696
-1.05146222 0.0 -1.70130162
1.90211303 -0.3249197 0.52573111
1.90211303 0.3249197 0.52573111
1.70130162 0.0 1.05146222
1.61803399 0.61803399 1.0
1.72533696 0.86777713 0.51978383
1.38756095 0.32124407 1.40409289
1.40409289 1.38756095 0.32124407
1.37638192 1.17557051 0.85065081
0.85065081 1.37638192 1.17557051
1.17557051 0.85065081 1.37638192
-1.38756095 -0.32124407 -1.40409289
-1.38756095 0.32124407 -1.40409289
-1.70130162 0.0 -1.05146222
-1.61803399 -0.61803399 -1.0
-1.61803399 0.61803399 -1.0
-1.90211303 -0.3249197 -0.52573111
-1.90211303 0.3249197 -0.52573111
-2.0 0.0 0.0
-1.72533696 -0.86777713 -0.51978383
-1.92387672 -0.54653306 0.0
-1.70130162 -1.05146222 0.0
-1.72533696 0.86777713 -0.51978383
-1.92387672 0.54653306 0.0
-0.32124407 1.40409289 -1.38756095
-0.51978383 1.72533696 -0.86777713
-0.85065081 1.37638192 -1.17557051
-0.61803399 1.0 -1.61803399
-1.17557051 0.85065081 -1.37638192
-1.37638192 1.17557051 -0.85065081
-0.86777713 0.51978383 -1.72533696
-1.40409289 -1.38756095 -0.32124407
-1.40409289 -1.38756095 0.32124407
-1.05146222 -1.70130162 0.0
-1.0 -1.61803399 -0.61803399
-1.0 -1.61803399 0.61803399
-0.52573111 -1.90211303 -0.3249197
-0.52573111 -1.90211303 0.3249197
0.0 -2.0 0.0
-0.51978383 -1.72533696 -0.86777713
0.0 -1.92387672 -0.54653306
-0.51978383 -1.72533696 0.86777713
0.0 -1.92387672 0.54653306
-1.72533696 -0.86777713 0.51978383
-1.37638192 -1.17557051 0.85065081
-1.61803399 -0.61803399 1.0
-0.85065081 -1.37638192 1.17557051
-1.17557051 -0.85065081 1.37638192
-1.38756095 -0.32124407 1.40409289
-1.70130162 0.0 1.05146222
-1.90211303 0.3249197 0.52573111
-1.90211303 -0.3249197 0.52573111
-1.17557051 -0.85065081 -1.37638192
-0.85065081 -1.37638192 -1.17557051
-1.37638192 -1.17557051 -0.85065081
0.51978383 -1.72533696 -0.86777713
0.52573111 -1.90211303 -0.3249197
1.0 -1.61803399 -0.61803399
1.05146222 -1.70130162 0.0
0.52573111 -1.90211303 0.3249197
1.40409289 -1.38756095 -0.32124407
1.17557051 -0.85065081 -1.37638192
1.37638192 -1.17557051 -0.85065081
0.85065081 -1.37638192 -1.17557051
0.3249197 0.52573111 -1.90211303
-0.3249197 0.52573111 -1.90211303
0.0 1.05146222 -1.70130162
0.76722747 1.68782295 -0.75007714
1.03851698 1.68035577 -0.31286893
0.77237477 1.78201305 -0.47735386
0.7992141 1.82596499 -0.16464716
0.52573111 1.90211303 -0.3249197
1.05146222 1.70130162 0.0
0.5328094 1.92772253 0.0
0.7992141 1.82596499 0.16464716
0.5281655 1.83248835 -0.60251776
0.26331074 1.8486092 -0.71645759
0.26558495 1.93278519 -0.44023406
0.0 1.92387672 -0.54653306
1.42256347 1.40581406 0.0
1.24047916 1.56040874 -0.1622837
1.24047916 1.56040874 0.1622837
1.2136503 1.5173046 0.47417265
1.03851698 1.68035577 0.31286893
-0.52573111 1.90211303 -0.3249197
-0.5328094 1.92772253 0.0
-0.7992141 1.82596499 -0.16464716
-0.7992141 1.82596499 0.16464716
-0.26558495 1.93278519 -0.44023406
-0.26331074 1.8486092 -0.71645759
-0.5281655 1.83248835 -0.60251776

CELLS 360 1440
3 0 1 2
3 1 3 2
3 1 4 3
3 2 3 5
3 4 6 3
3 6 7 3
3 6 8 7
3 3 7 5
3 4 9 6
3 9 10 6
3 9 11 10
3 6 10 8
3 5 7 12
3 7 13 12
3 7 8 13
3 12 13 14
3 14 13 15
3 13 16 15
3 13 8 16
3 15 16 17
3 8 18 16
3 18 19 16
3 18 20 19
3 16 19 17
3 8 10 18
3 10 21 18
3 10 11 21
3 18 21 20
3 19 22 23
3 19 20 22
3 23 22 24
3 25 26 27
3 26 28 27
3 26 29 28
3 27 28 30
3 30 28 31
3 28 32 31
3 28 29 32
3 31 32 33
3 33 34 35
3 34 36 35
3 34 37 36
3 35 36 38
3 30 31 39
3 31 40 39
3 31 33 40
3 39 40 41
3 33 42 40
3 42 43 40
3 42 44 43
3 40 43 41
3 33 35 42
3 35 45 42
3 35 38 45
3 42 45 44
3 41 43 46
3 43 47 46
3 43 44 47
3 46 47 48
3 30 39 49
3 39 50 49
3 39 41 50
3 49 50 51
3 41 52 50
3 52 53 50
3 52 54 53
3 50 53 51
3 41 46 52
3 46 55 52
3 46 48 55
3 52 55 54
3 51 53 56
3 53 57 56
3 53 54 57
3 56 57 58
3 48 59 55
3 59 60 55
3 59 61 60
3 55 60 54
3 61 62 60
3 62 63 60
3 62 64 63
3 60 63 54
3 61 65 62
3 65 66 62
3 65 67 66
3 62 66 64
3 54 63 57
3 63 68 57
3 63 64 68
3 57 68 58
3 58 68 69
3 68 70 69
3 68 64 70
3 69 70 71
3 64 72 70
3 72 73 70
3 72 74 73
3 70 73 71
3 64 66 72
3 66 75 72
3 66 67 75
3 72 75 74
3 71 73 76
3 73 77 76
3 73 74 77
3 76 77 0
3 11 78 79
3 78 80 79
3 78 81 80
3 79 80 82
3 81 83 80
3 83 84 80
3 83 85 84
3 80 84 82
3 81 86 83
3 86 87 83
3 86 88 87
3 83 87 85
3 82 84 89
3 84 90 89
3 84 85 90
3 89 90 91
3 0 2 76
3 2 92 76
3 2 5 92
3 76 92 71
3 5 93 92
3 93 94 92
3 93 95 94
3 92 94 71
3 5 12 93
3 12 96 93
3 12 14 96
3 93 96 95
3 71 94 69
3 94 97 69
3 94 95 97
3 69 97 58
3 14 98 96
3 98 99 96
3 96 99 95
3 25 100 99
3 100 101 99
3 100 51 101
3 99 101 95
3 25 27 100
3 27 49 100
3 27 30 49
3 100 49 51
3 95 101 97
3 101 56 97
3 101 51 56
3 97 56 58
3 91 102 103
3 102 104 103
3 102 105 104
3 103 104 106
3 105 107 104
3 107 108 104
3 107 109 108
3 104 108 106
3 105 110 107
3 110 111 107
3 110 112 111
3 107 111 109
3 106 108 113
3 108 114 113
3 108 109 114
3 113 114 38
3 24 115 116
3 115 117 116
3 115 118 117
3 116 117 37
3 118 119 117
3 119 120 117
3 119 106 120
3 117 120 37
3 118 121 119
3 121 103 119
3 121 91 103
3 119 103 106
3 37 120 36
3 120 113 36
3 120 106 113
3 36 113 38
3 112 122 123
3 122 124 123
3 122 125 124
3 123 124 126
3 125 127 124
3 127 128 124
3 127 129 128
3 124 128 126
3 125 130 127
3 130 131 127
3 130 88 131
3 127 131 129
3 126 128 132
3 128 133 132
3 128 129 133
3 132 133 67
3 112 123 134
3 123 135 134
3 123 126 135
3 134 135 136
3 126 137 135
3 137 138 135
3 137 61 138
3 135 138 136
3 126 132 137
3 132 65 137
3 132 67 65
3 137 65 61
3 136 138 139
3 138 59 139
3 138 61 59
3 139 59 48
3 48 47 139
3 47 140 139
3 47 44 140
3 139 140 136
3 44 141 140
3 141 142 140
3 141 109 142
3 140 142 136
3 44 45 141
3 45 114 141
3 45 38 114
3 141 114 109
3 136 142 134
3 142 111 134
3 142 109 111
3 134 111 112
3 91 90 102
3 90 143 102
3 90 85 143
3 102 143 105
3 85 144 143
3 144 145 143
3 144 125 145
3 143 145 105
3 85 87 144
3 87 130 144
3 87 88 130
3 144 130 125
3 105 145 110
3 145 122 110
3 145 125 122
3 110 122 112
3 88 146 131
3 146 147 131
3 146 148 147
3 131 147 129
3 148 149 147
3 149 150 147
3 149 74 150
3 147 150 129
3 148 151 149
3 151 77 149
3 151 0 77
3 149 77 74
3 129 150 133
3 150 75 133
3 150 74 75
3 133 75 67
3 11 9 78
3 9 152 78
3 9 4 152
3 78 152 81
3 4 153 152
3 153 154 152
3 153 148 154
3 152 154 81
3 4 1 153
3 1 151 153
3 1 0 151
3 153 151 148
3 81 154 86
3 154 146 86
3 154 148 146
3 86 146 88
3 11 79 21
3 79 155 21
3 79 82 155
3 21 155 20
3 82 156 155
3 156 157 155
3 156 118 157
3 155 157 20
3 82 89 156
3 89 121 156
3 89 91 121
3 156 121 118
3 20 157 22
3 157 115 22
3 157 118 115
3 22 115 24
3 23 158 19
3 19 158 17
3 17 159 15
3 17 160 159
3 160 161 159
3 160 162 161
3 159 161 163
3 162 164 161
3 164 165 161
3 164 26 165
3 161 165 163
3 26 164 29
3 29 164 162
3 165 26 25
3 17 158 160
3 158 166 160
3 158 23 166
3 160 166 162
3 23 167 166
3 167 168 166
3 167 169 168
3 166 168 162
3 169 167 24
3 24 167 23
3 162 168 29
3 168 169 29
3 15 170 14
3 14 170 98
3 15 171 170
3 171 172 170
3 171 163 172
3 170 172 98
3 98 172 173
3 172 174 173
3 172 163 174
3 173 174 25
3 175 176 29
3 29 176 32
3 175 177 176
3 177 178 176
3 177 34 178
3 176 178 32
3 34 177 37
3 37 177 175
3 32 178 33
3 178 34 33
3 169 179 29
3 29 179 175
3 169 180 179
3 180 181 179
3 180 116 181
3 179 181 175
3 116 180 24
3 24 180 169
3 175 181 37
3 181 116 37
3 98 173 99
3 173 25 99
3 163 171 159
3 159 171 15
3 25 174 165
3 165 174 163

CELL_TYPES 360
5
5
5
5
5
5
5
5
5
5
5
5
5
5
5
5
5
5
5
5
5
5
5
5
5
5
5
5
5
5
5
5
5
5
5
5
5
5
5
5
5
5
5
5
5
5
5
5
5
5
5
5
5
5
5
5
5
5
5
5
5
5
5
5
5
5
5
5
5
5
5
5
5
5
5
5
5
5
5
5
5
5
5
5
5
5
5
5
5
5
5
5
5
5
5
5
5
5
5
5
5
5
5
5
5
5
5
5
5
5
5
5
5
5
5
5
5
5
5
5
5
5
5
5
5
5
5
5
5
5
5
5
5
5
5
5
5
5
5
5
5
5
5
5
5
5
5
5
5
5
5
5
5
5
5
5
5
5
5
5
5
5
5
5
5
5
5
5
5
5
5
5
5
5
5
5
5
5
5
5
5
5
5
5
5
5
5
5
5
5
5
5
5
5
5
5
5
5
5
5
5
5
5
5
5
5
5
5
5
5
5
5
5
5
5
5
5
5
5
5
5
5
5
5
5
5
5
5
5
5
5
5
5
5
5
5
5
5
5
5
5
5
5
5
5
5
5
5
5
5
5
5
5
5
5
5
5
5
5
5
5
5
5
5
5
5
5
5
5
5
5
5
5
5
5
5
5
5
5
5
5
5
5
5
5
5
5
5
5
5
5
5
5
5
5
5
5
5
5
5
5
5
5
5
5
5
5
5
5
5
5
5
5
5
5
5
5
5
5
5
5
5
5
5
5
5
5
5
5
5
5
5
5
5
5
5
5
5
5
5
5
5
5
5
5
5
5
5
5
5
5
5
5
5
5
5
5
5
5
5

CELL_DATA 360
SCALARS cell_data_0 double
LOOKUP_TABLE default
6.20831959933e-06
1.40163548908e-05
6.636121985e-06
8.26833867821e-06
6.84098130463e-06
2.97375159244e-05
2.27210233754e-05
2.15530720856e-05
1.08650968189e-05
3.36028327581e-05
2.88075742152e-05
1.9378242527e-05
2.20480943201e-05
5.31897179695e-05
3.90381708873e-05
2.03019138574e-05
2.72237862891e-05
8.80027720676e-05
5.87776523808e-05
4.99798994627e-05
9.97696881593e-05
0.000229502305076
0.000124800531807
0.000121053129517
6.20562859617e-05
0.000136675202203
6.35223027692e-05
8.64421958941e-05
0.000162149817679
0.000107278914295
6.35980556003e-05
3.26033429202e-05
6.05376848437e-05
1.76405462375e-05
2.78072065004e-05
7.44978335949e-06
2.25294205121e-05
1.25625631382e-05
5.47253818685e-06
1.6316160787e-05
2.90201202569e-05
1.62802833835e-05
6.3135972938e-06
1.62569275663e-06
2.42223672568e-07
6.19889934532e-07
8.09853139863e-06
3.56561130917e-06
4.90395614835e-06
5.454465053e-06
9.6651756239e-06
1.2952000874e-06
3.97019999529e-06
2.92353685315e-06
2.72066741754e-06
1.01887508744e-05
9.58665597019e-06
6.02641205643e-06
9.30541176415e-06
6.50484937184e-06
9.50513961012e-06
1.01679451919e-05
6.36080190617e-06
8.79654649153e-06
1.02982971484e-05
1.25380586632e-05
9.44260516787e-06
1.00477568549e-05
1.23458008233e-05
1.21292808497e-05
1.07858948305e-05
7.93116950373e-06
8.62895389441e-06
1.03975501586e-05
8.23145929283e-06
9.89430420893e-06
9.47387604616e-06
1.12595991894e-05
1.09982164326e-05
1.37963703034e-05
1.15612886089e-05
1.24655590967e-05
1.2899141657e-05
8.73464355879e-06
6.06125341353e-06
5.19807798806e-06
8.15798704155e-06
1.04843777683e-05
1.29427318637e-05
1.26454198867e-05
1.15918706383e-05
1.05514834295e-05
1.02278356281e-05
1.12413389267e-05
5.18290399567e-06
9.09026615756e-06
4.10142152457e-06
1.86822300244e-06
3.39842057861e-06
7.89837130715e-06
3.678170077e-06
4.19265641046e-06
2.37730884327e-06
1.41473132181e-06
7.64058758127e-08
3.05076540354e-07
2.58066832604e-07
1.57257363793e-05
1.53307350301e-05
6.15184200657e-06
1.35598094849e-05
1.18219493977e-06
4.92936455673e-07
3.53332147975e-06
4.9364569741e-06
1.0246469819e-06
3.1439551955e-07
4.74843463757e-07
2.79234141874e-06
4.89438060219e-06
1.2850774471e-06
3.65260808348e-06
1.17141790117e-06
2.88281533449e-06
3.65281908286e-06
3.25576246953e-06
1.30450634334e-06
1.963676605e-06
3.4747055535e-06
4.08576921371e-06
3.35298128439e-06
2.6459755195e-06
2.40224149428e-06
2.81213401471e-06
2.48435957027e-06
4.84140959977e-06
6.63299231192e-06
5.18340004809e-06
8.13770084821e-06
7.74280121604e-06
7.06063761044e-06
2.81321285188e-06
4.37152191679e-06
6.07316744757e-06
7.14423550129e-06
5.69971095644e-06
8.82843716994e-06
2.0337668803e-06
3.97090378943e-06
5.50549601127e-06
5.88794887462e-06
6.9855379589e-06
7.06312712494e-06
7.34837952404e-06
1.82085871611e-07
7.45212195688e-08
1.42815043573e-06
3.80536916696e-07
1.36778295209e-06
6.89729909438e-07
3.25484409904e-07
1.50643392857e-08
1.49013040715e-06
3.13617130802e-07
2.59099948556e-07
5.59766078784e-07
4.99517633572e-07
4.53226770821e-07
4.87293952054e-07
6.53702729097e-07
1.09577997657e-05
1.09911675972e-05
3.12618340997e-06
6.07961416403e-06
2.92160277927e-06
3.06380715383e-06
3.25851298579e-06
6.36951720884e-07
2.22539040853e-06
1.40238554886e-06
3.62550290877e-07
1.79876454739e-06
2.48970553105e-06
3.95401629333e-06
1.7249934987e-06
1.77451829005e-06
6.34799047474e-08
1.89785365209e-06
5.65145750131e-07
1.07783720037e-06
2.15081143603e-06
4.24133834949e-06
1.05090529815e-05
1.18797593018e-06
4.243497884e-06
1.0523492885e-05
8.41522542157e-06
1.31620179658e-05
3.23864427495e-06
1.12384430361e-05
1.39098373954e-05
4.8000363528e-06
1.69574452265e-06
2.32261118569e-06
4.66918900035e-07
1.86700407346e-06
3.52733550459e-06
6.56497702606e-06
9.31824062092e-06
5.06857372122e-06
4.05884838485e-07
4.64695510851e-06
4.31723191385e-06
7.71529470615e-06
6.39572177217e-06
6.37228809111e-06
8.74819888219e-06
8.031403366e-06
6.95136335142e-06
5.25224670964e-06
4.29099343742e-06
5.31663688616e-06
4.04669173049e-06
3.70576278929e-06
1.78795410842e-06
3.29329137737e-06
2.73994278066e-06
1.46942967033e-06
1.02245031683e-06
1.06958148315e-06
1.39811517731e-06
9.07894649479e-07
1.45559861934e-07
9.30210686768e-07
6.90357705798e-07
8.39874124167e-07
3.75654718577e-06
1.99303614311e-06
4.91970084162e-06
2.7320958371e-06
2.12611907844e-06
3.93082455734e-06
3.82852532897e-06
4.19429293454e-06
3.26591091174e-06
3.86376410875e-06
3.05376320744e-06
9.62208221646e-07
7.98338240139e-07
6.08558686531e-07
4.48166922309e-06
3.35935885399e-06
9.29092159023e-06
9.36120394369e-06
8.75892558111e-06
1.7564839502e-06
1.760384623e-06
2.68076947407e-06
7.01089028733e-06
2.67437923705e-07
5.16388570861e-07
3.50928593694e-07
8.5596436984e-06
6.42377789584e-06
1.28570376672e-06
5.07255581633e-06
1.5617602583e-05
1.42624707054e-05
7.36723245412e-06
5.54570211301e-06
1.53344243266e-07
2.68364354512e-07
1.10983962798e-05
9.22913359001e-07
2.31419773476e-06
7.2739446353e-07
1.40546959419e-07
7.41523584161e-06
1.12001296905e-06
5.66781827544e-07
1.09491778577e-05
6.51119485201e-07
5.06512332501e-05
5.4196425555e-05
1.51203099852e-05
3.44649771715e-05
6.63387929798e-06
2.43926156659e-06
2.25426501184e-06
1.94870506951e-06
5.40060769016e-06
1.36047214067e-06
9.50932013284e-07
1.3818890735e-06
3.41777144397e-05
4.1203363032e-05
3.51905220906e-06
3.87483403319e-05
3.9933993285e-05
2.28216313891e-05
5.29095968187e-06
2.45514240046e-07
2.84590310211e-07
8.61356383691e-06
4.19886945938e-06
8.10347250225e-06
2.08736472598e-07
1.89990593368e-06
3.64952579062e-06
3.32257476171e-06
1.28508825348e-05
2.66558382102e-06
2.05928878678e-07
1.72951430085e-07
3.75522394768e-06
7.01499910646e-06
3.78858191802e-06
1.24046031574e-07
3.70437774474e-06
7.24404606541e-06
7.49091784474e-06
7.98796784602e-06
1.21516544541e-05
5.86549722845e-06
3.83729691055e-06
4.42070753666e-06
2.60541705513e-06
1.38489062205e-07
3.72398426145e-06
2.99348598787e-06
2.86130940077e-06
1.05973621271e-07
3.02483065158e-06
4.12406890527e-07
9.05067905862e-07
1.76044709982e-06
8.51734662383e-07
3.98600788118e-09
3.96449948517e-06
1.40462842614e-06
6.71420822603e-06
1.1777653756e-06
1.16861733257e-06
5.33558425713e-06
5.44390848315e-06
7.50600133877e-07
3.3771612976e-06
2.39003846596e-09
1.58613543672e-06
6.78033166596e-07
3.66968856051e-06
7.30990114816e-06
9.66405326447e-07
2.61298751386e-06
3.91679405221e-06
1.15098348943e-06
3.52346540269e-06
2.74742579759e-06
5.5463664517e-07
2.84916350082e-06

