# vtk DataFile Version 3.0
File Name: Molecule/sphere_excent/sphere_excent_0-s15.vtk
ASCII
DATASET UNSTRUCTURED_GRID
FIELD FieldData 1
TIME 1 1 double
0.0
POINTS 141 double
0.0036369680893 0.84911972284 0.52792447805
-0.48470470309 0.77594965696 0.40213677287
-0.33468675613 0.56153655052 0.75644999743
-0.32777243853 -0.57931810617 0.74644196033
0.0049566505477 -0.84833294153 0.52929574251
0.036963701248 -0.4539257884 0.8899513483
0.5397490859 -0.03087474592 0.84109908342
0.36340841651 -0.52263844013 0.77109694481
0.80692231655 -0.31144919991 0.50184714794
0.50040555 -0.80949771404 0.30673292279
0.84929382801 -0.52806049585 0.0070008463226
0.99455285072 -0.078632593155 0.066799916327
0.7555821538 0.29881563783 0.58112722635
0.51663041115 0.73877704144 0.43115633726
0.36993080378 0.53844624758 0.75579959154
-0.84487247467 -0.32628184557 -0.42342868447
-0.84622895718 -0.5326705575 0.0064486004412
-0.99516129494 -0.078882046044 0.047757074237
-0.51034784317 -0.80636161566 -0.29604974389
-0.49859595299 -0.81234359741 0.30223977566
-0.00023904691625 -0.99983626604 0.0043304488063
-0.803863585 -0.32148399949 0.500426054
-0.59836471081 -0.003865769133 0.80042111874
-0.83370691538 0.23410387337 0.4982535243
0.51200729609 -0.81299525499 -0.27889436483
0.80303049088 -0.40708178282 -0.4337247014
0.00097374356119 0.9998562336 0.0021063978784
-0.27722495794 0.94430071115 0.17700846493
-0.27365541458 0.94602268934 -0.17332467437
-0.52967041731 0.8480694294 -0.0010569248116
-0.46576467156 0.78443813324 -0.40806701779
0.011979420669 0.86896514893 -0.49203273654
0.27486601472 0.94874745607 -0.15601664782
0.28015753627 0.94167840481 0.18538405001
0.47839844227 0.87786513567 0.017773289233
0.47627171874 0.805970788 -0.3498172462
0.59578108788 0.48671394587 -0.63867765665
0.4015929997 0.67930364609 -0.61383509636
0.64732712507 0.62133449316 -0.4405696094
0.95314109325 -0.18577173352 -0.23894739151
0.87114936113 -0.080577775836 -0.48447185755
0.964225173 0.10110804439 -0.24448089302
0.51934707165 -0.0046998844482 -0.85441184044
0.42886850238 -0.26191473007 -0.86453860998
0.26856553555 0.01108749304 -0.96311873198
0.12592045963 -0.25924298167 -0.95751368999
0.29459869862 -0.53447902203 -0.79151588678
-0.042197421193 0.049128197134 -0.99765098095
0.68383443356 -0.21313300729 -0.69770312309
0.56976437569 -0.45750552416 -0.68233078718
0.42476478219 -0.69990700483 -0.57260549068
0.18490497768 0.45469251275 -0.86989510059
0.72164863348 0.33025586605 -0.60832899809
0.7607601881 0.4666288197 -0.4508844614
0.44001677632 0.44986003637 -0.77718102932
0.42437541485 0.23720274866 -0.8738104105
0.57961457968 0.29125413299 -0.76078516245
0.61433684826 0.11519503593 -0.77999317646
0.69033789635 0.18840968609 -0.69816076756
0.84663647413 0.15740337968 -0.50742578506
0.82701206207 0.32457321882 -0.4590087235
0.76771593094 0.17498618364 -0.61558097601
0.74178373814 -0.023632476106 -0.6694111824
-0.4724522233 0.27539786696 0.83641970158
-0.66875654459 0.5467389822 0.50281351805
0.0072939023376 0.53248888254 0.84626531601
-0.17476525903 0.31533119082 0.93201929331
-0.33019283414 -0.029071802273 0.9428332448
-0.45173618197 -0.263928473 0.85184311867
-0.20009368658 -0.28753215075 0.9363655448
0.94083827734 0.14358790219 0.30632811785
0.96535170078 0.2562251389 0.05193824321
0.85673213005 0.43669855595 0.27421244979
0.84832960367 0.52925884724 -0.016158279032
-0.94869607687 0.10499626398 -0.29594567418
-0.71726584435 -0.11494314671 -0.68698126078
-0.77815169096 0.25914078951 -0.57141447067
-0.86579668522 0.42476066947 -0.26410314441
-0.96024876833 0.2785731256 0.0070959012955
-0.84515619278 0.53426659107 0.010927959345
-0.66714406013 0.55542808771 -0.49503606558
-0.4759208858 0.28583914042 -0.83075475693
-0.34348121285 0.52699041367 -0.77576029301
-0.70969682932 0.67661345005 -0.1958501488
-0.70270621777 0.68207043409 0.20157775283
-0.54855692387 0.056380018592 -0.83343243599
-0.42816922069 -0.29121387005 -0.85491549969
-0.59250414371 -0.44154313207 -0.67245322466
-0.31055486202 -0.52313715219 -0.79298663139
-0.3378841579 -0.78056663275 -0.52200752497
0.5349060297 0.83118623495 -0.15142314136
0.68286210299 0.70366156101 -0.19603486359
0.67488455772 0.73806750774 0.0022183910478
0.72156047821 0.66847288609 0.18009367585
0.54864710569 0.8149498105 0.18654227257
-0.84373039007 0.46452310681 0.26916086674
0.20607328415 -0.2529284358 0.94505256414
0.86248499155 0.42524734139 -0.27426046133
0.78109914064 0.56588560343 -0.26374822855
0.9028263092 0.2676242888 -0.33662775159
0.93032258749 0.3351020515 -0.149025172
-0.12687979639 -0.013651300222 0.99153727293
0.062959164381 -0.015526501462 0.99780768156
-0.027818066999 -0.180030182 0.98284637928
-0.199607566 0.29349315166 -0.93462657928
-0.31505575776 0.066063798964 -0.94652402401
-0.122058779 -0.38623297215 -0.91384136677
-0.22960616648 -0.14306122065 -0.96241599321
-0.45955628157 -0.096083968878 -0.88296222687
0.47615626454 0.2704847455 0.83658528328
-0.16304460168 0.7111852169 -0.68340080976
-0.070421457291 0.53225934505 -0.84377479553
0.096177145839 0.68844777346 -0.71895295382
0.0058862250298 0.2802157402 0.95983481407
0.17105677724 0.27912119031 0.94478988647
-0.054553113878 0.13822329044 0.98887103796
0.12896573544 0.13189870119 0.9827914238
0.2814039886 0.38853240013 0.87745028734
-0.22586593032 0.13761730492 0.96422570944
0.34576892853 0.15545760095 0.92532038689
0.27934876084 -0.0061986939982 0.96015304327
0.033864527941 -0.58957785368 -0.8046399951
0.055096071213 -0.44767284393 -0.8923997283
-0.14107330143 -0.53485429287 -0.83244901896
-0.016802314669 -0.88681077957 -0.45881897211
0.24140521884 -0.88380628824 -0.39882192016
0.79470300674 0.070081673563 -0.60266423225
0.7169162631 0.083948917687 -0.69207966328
0.65034580231 0.0022190390155 -0.75953066349
0.22491270304 -0.66306138039 -0.71360051632
0.081867776811 -0.82108163834 -0.56455534697
0.30823168159 -0.79962098598 -0.51469755173
0.12158567458 -0.7354093194 -0.66622900963
-0.26277250051 -0.87749701738 -0.39994171262
-0.01113508828 -0.7383621335 -0.67409771681
0.063332237303 -0.67336332798 -0.7363203764
-0.057873729616 -0.6637802124 -0.74530756474
-0.15425333381 -0.72593331337 -0.67044836283
-0.094362318516 -0.81586152315 -0.56998282671
-0.14049597085 -0.63306742907 -0.76079231501
-0.059218730778 -0.5771690011 -0.81430101395

CELLS 278 1112
3 0 1 2
3 3 4 5
3 6 7 8
3 7 9 8
3 7 4 9
3 8 9 10
3 10 11 8
3 8 12 6
3 13 14 12
3 13 0 14
3 15 16 17
3 16 18 19
3 18 20 19
3 19 20 4
3 16 19 21
3 19 3 21
3 19 4 3
3 22 23 21
3 23 17 21
3 21 17 16
3 15 18 16
3 24 9 20
3 24 10 9
3 20 9 4
3 25 10 24
3 26 27 0
3 0 27 1
3 26 28 27
3 28 29 27
3 28 30 29
3 27 29 1
3 30 28 31
3 31 28 26
3 32 33 34
3 32 26 33
3 26 32 31
3 31 32 35
3 13 33 0
3 33 26 0
3 36 37 38
3 38 37 35
3 35 37 31
3 25 39 10
3 10 39 11
3 25 40 39
3 40 41 39
3 39 41 11
3 42 43 44
3 43 45 44
3 43 46 45
3 44 45 47
3 42 48 43
3 48 49 43
3 48 25 49
3 43 49 46
3 49 25 50
3 44 47 51
3 25 48 40
3 52 36 53
3 36 54 37
3 54 51 37
3 51 54 55
3 54 56 55
3 54 36 56
3 42 55 57
3 56 52 58
3 56 36 52
3 40 59 41
3 52 60 61
3 51 55 44
3 44 55 42
3 48 62 40
3 22 63 23
3 23 63 64
3 2 65 0
3 0 65 14
3 2 66 65
3 2 63 66
3 63 22 67
3 22 68 67
3 68 69 67
3 68 3 69
3 3 68 21
3 21 68 22
3 11 70 8
3 70 12 8
3 11 71 70
3 71 72 70
3 71 73 72
3 70 72 12
3 12 72 13
3 17 74 15
3 15 74 75
3 76 74 77
3 74 78 77
3 74 17 78
3 77 78 79
3 76 80 81
3 82 80 30
3 30 80 83
3 80 77 83
3 80 76 77
3 83 77 79
3 23 78 17
3 30 83 29
3 29 83 84
3 41 71 11
3 85 75 76
3 76 75 74
3 86 87 75
3 86 88 87
3 75 87 15
3 15 87 18
3 18 87 89
3 35 90 91
3 90 92 91
3 90 34 92
3 91 92 73
3 73 92 93
3 92 94 93
3 92 34 94
3 93 94 13
3 34 90 32
3 32 90 35
3 13 94 33
3 33 94 34
3 35 91 38
3 73 93 72
3 72 93 13
3 1 64 2
3 2 64 63
3 1 84 64
3 84 95 64
3 84 79 95
3 64 95 23
3 96 7 6
3 79 84 83
3 29 84 1
3 60 53 97
3 53 98 97
3 53 38 98
3 97 98 73
3 41 99 100
3 99 97 100
3 99 60 97
3 100 97 73
3 38 53 36
3 52 53 60
3 60 99 59
3 59 99 41
3 67 69 101
3 102 103 96
3 103 5 96
3 103 69 5
3 96 5 7
3 7 5 4
3 5 69 3
3 23 95 78
3 78 95 79
3 41 100 71
3 71 100 73
3 73 98 91
3 91 98 38
3 82 81 80
3 81 85 76
3 47 104 51
3 47 105 104
3 105 81 104
3 105 85 81
3 104 81 82
3 88 86 106
3 45 107 47
3 47 107 105
3 107 108 105
3 107 86 108
3 105 108 85
3 85 108 75
3 108 86 75
3 14 109 12
3 12 109 6
3 31 110 30
3 110 82 30
3 51 111 112
3 111 110 112
3 111 82 110
3 112 110 31
3 51 112 37
3 37 112 31
3 66 113 65
3 113 114 65
3 66 115 113
3 115 116 113
3 115 102 116
3 113 116 114
3 114 117 65
3 65 117 14
3 67 118 63
3 63 118 66
3 66 118 115
3 118 101 115
3 118 67 101
3 115 101 102
3 14 117 109
3 117 119 109
3 117 114 119
3 109 119 6
3 114 116 119
3 116 120 119
3 116 102 120
3 119 120 6
3 45 106 107
3 107 106 86
3 6 120 96
3 96 120 102
3 102 101 103
3 103 101 69
3 82 111 104
3 104 111 51
3 121 122 46
3 46 122 45
3 45 122 106
3 106 122 123
3 106 123 88
3 124 125 20
3 125 24 20
3 24 50 25
3 49 50 46
3 58 57 56
3 56 57 55
3 59 61 60
3 52 61 58
3 59 126 61
3 126 127 61
3 126 62 127
3 61 127 58
3 62 126 40
3 40 126 59
3 58 127 57
3 127 128 57
3 127 62 128
3 57 128 42
3 42 128 48
3 128 62 48
3 46 129 121
3 124 130 125
3 130 131 125
3 130 132 131
3 125 131 24
3 24 131 50
3 131 129 50
3 131 132 129
3 50 129 46
3 18 133 20
3 133 124 20
3 132 134 135
3 134 136 135
3 134 137 136
3 135 136 121
3 137 89 88
3 88 89 87
3 137 138 89
3 138 133 89
3 138 124 133
3 89 133 18
3 123 139 88
3 88 139 137
3 137 139 136
3 139 140 136
3 139 123 140
3 136 140 121
3 121 140 122
3 140 123 122
3 132 135 129
3 129 135 121
3 137 134 138
3 130 134 132
3 124 138 130
3 130 138 134

CELL_TYPES 278
5
5
5
5
5
5
5
5
5
5
5
5
5
5
5
5
5
5
5
5
5
5
5
5
5
5
5
5
5
5
5
5
5
5
5
5
5
5
5
5
5
5
5
5
5
5
5
5
5
5
5
5
5
5
5
5
5
5
5
5
5
5
5
5
5
5
5
5
5
5
5
5
5
5
5
5
5
5
5
5
5
5
5
5
5
5
5
5
5
5
5
5
5
5
5
5
5
5
5
5
5
5
5
5
5
5
5
5
5
5
5
5
5
5
5
5
5
5
5
5
5
5
5
5
5
5
5
5
5
5
5
5
5
5
5
5
5
5
5
5
5
5
5
5
5
5
5
5
5
5
5
5
5
5
5
5
5
5
5
5
5
5
5
5
5
5
5
5
5
5
5
5
5
5
5
5
5
5
5
5
5
5
5
5
5
5
5
5
5
5
5
5
5
5
5
5
5
5
5
5
5
5
5
5
5
5
5
5
5
5
5
5
5
5
5
5
5
5
5
5
5
5
5
5
5
5
5
5
5
5
5
5
5
5
5
5
5
5
5
5
5
5
5
5
5
5
5
5
5
5
5
5
5
5
5
5
5
5
5
5
5
5
5
5
5
5
5
5
5
5
5
5
5
5
5
5
5
5

CELL_DATA 278
SCALARS cell_data_0 double
LOOKUP_TABLE default
2.29339950267e-05
5.01895686686e-05
6.48259319432e-05
4.26180250946e-05
3.82832551138e-05
1.63178944961e-05
1.16786336853e-06
4.94663587495e-05
3.16232181103e-05
2.85563942478e-05
2.11451008297e-06
8.98336467301e-06
1.33521279425e-05
1.31782326346e-05
1.94886515532e-05
3.65467324926e-05
3.31504648734e-05
3.20687467749e-05
1.37192735441e-06
1.31979987653e-05
3.74777105279e-06
1.08986342243e-05
5.90332648248e-06
1.09668391712e-05
2.59719764786e-05
8.15758537081e-06
1.01555259363e-05
3.71281839158e-06
3.85174227784e-06
1.92223848093e-06
5.48334346059e-06
3.33746734319e-05
2.43926684432e-05
3.03686467086e-06
3.74778435952e-06
2.38865354052e-05
2.53340326662e-05
1.47386520928e-05
8.42823360476e-06
2.32055027331e-07
2.56003212401e-07
2.99903840234e-05
1.32165268827e-05
3.63057457447e-06
7.28765800811e-06
1.15542152884e-06
1.63165314663e-06
2.0782317298e-05
2.85678527996e-07
2.06771591203e-06
1.09884723194e-06
2.12219980523e-05
5.31197099558e-08
9.24021357214e-06
1.56598280857e-06
1.14419915765e-05
4.57492778885e-06
9.84823491483e-06
1.06371379114e-06
2.83248761985e-07
2.20521629473e-06
2.01536118702e-06
3.79300409858e-07
2.22745984003e-07
1.2629916085e-05
1.01476184444e-05
9.57937854472e-08
3.86476539521e-06
7.32251346089e-06
2.34141836253e-06
1.93554979062e-05
1.69834483656e-05
9.2655660379e-05
3.72036094528e-05
4.72871477754e-06
9.48625092197e-07
8.98178343462e-06
1.03539364016e-05
1.81116058776e-05
3.47295436992e-05
2.88500880235e-05
2.81444840316e-05
3.56117064878e-05
3.28219089268e-05
4.10742141496e-06
2.13328308564e-05
3.14736214441e-07
4.0666415849e-06
2.34756744835e-07
8.42556257813e-06
1.67301598121e-05
3.64852250026e-07
2.40451402699e-06
1.16783825738e-06
5.43695239759e-07
1.93899513573e-06
2.06653045687e-06
0.000137458480075
4.86994406116e-06
2.54299811627e-06
7.01721088539e-07
3.66971592318e-06
1.29356372142e-06
2.25147904052e-05
1.31518839326e-06
3.41789952644e-06
1.78588102013e-06
5.03891528708e-05
1.20884892075e-06
8.71572988372e-07
1.27411888561e-06
4.15909267266e-06
5.16365540194e-06
2.12691826203e-08
1.53156859748e-07
5.55401999268e-07
9.30753920679e-07
8.86539180172e-07
6.67612410441e-08
1.93503270609e-06
1.85909011935e-06
3.59041890684e-06
8.70154521699e-07
1.43341248234e-07
4.97446414438e-06
2.51021470202e-06
9.17534005511e-07
9.14917274425e-07
6.41186507154e-06
1.57906486893e-05
1.17064622467e-05
6.13717743628e-06
5.43955941013e-06
1.14355023316e-06
8.88974993013e-07
6.12760980658e-05
1.70014351115e-07
4.10636650185e-06
1.11247857789e-05
2.79524866531e-06
1.94019627264e-06
5.95276750636e-06
2.59539711329e-05
2.10578031582e-05
3.66734679845e-05
3.73010920545e-06
7.93638506207e-07
8.84116161022e-06
4.231359018e-05
3.79343510682e-05
4.31411501238e-05
1.90035874947e-05
2.20757915366e-05
2.2093565652e-05
2.69999280639e-05
5.05350801511e-05
3.2955872401e-05
1.19860637335e-05
9.56015516764e-08
1.01684166109e-06
2.30489211453e-06
3.86355187894e-06
2.57462338985e-07
0.000118136818375
0.000185003625228
3.94613972208e-06
5.71813922462e-07
6.19796413901e-05
0.000112032576533
7.03167516934e-05
5.36253908617e-05
1.03183498531e-06
5.21309876162e-07
1.03559507064e-08
2.75492815857e-08
1.70371680338e-05
2.14924649107e-05
8.21527233902e-08
2.79378463932e-05
3.0480494194e-05
0.000102094603912
4.11034749709e-05
1.37813489424e-06
1.81599511475e-05
2.05189523869e-05
5.23360674511e-05
1.8228938848e-06
2.16103851712e-05
2.86847787441e-05
2.40359259566e-05
2.33574197063e-05
2.45115278164e-05
2.74471519491e-05
1.97794221763e-05
3.36159267831e-05
2.57567248671e-05
2.09978592984e-05
6.20612618432e-06
7.20470539358e-06
1.07374815032e-05
2.38091008085e-05
2.97478027641e-05
1.20622358114e-05
5.32514804147e-06
1.95695495942e-05
2.35095701122e-05
4.86199105182e-07
4.6938859727e-06
2.96257895539e-05
1.07299356211e-05
5.84222733835e-05
5.33523017557e-05
4.7131985562e-05
4.50873696125e-05
2.63073136109e-05
3.17391256698e-05
2.71213458761e-07
1.7411306513e-06
4.7877522686e-05
1.2335366981e-06
3.06402353303e-05
2.36561655206e-05
2.31842339038e-05
2.27845400905e-05
2.17561214272e-06
1.81656812401e-05
1.68474470104e-06
8.06296536615e-06
3.59327482584e-07
9.40150368315e-06
6.49773380099e-06
9.07133925964e-07
2.34627079285e-08
4.52265255106e-06
4.12178733776e-06
9.46516287914e-06
1.78876431952e-06
5.04692883096e-06
7.22142394026e-08
4.86674840456e-06
5.66453749725e-06
1.00238068305e-05
9.78785805267e-06
4.16218829134e-05
7.76503676853e-06
2.48872565733e-07
2.78285989101e-07
2.87528753231e-07
9.80702723375e-08
7.64981165528e-08
3.6255350133e-07
1.02414937222e-06
1.91720276405e-06
2.42705144845e-05
1.30539958946e-07
2.40986475441e-09
1.51811711781e-05
1.26963104646e-05
7.34241097147e-05
1.49212310448e-06
3.5688190011e-05
8.78698950066e-08
8.23058042085e-06
2.41215215916e-07
1.27091141611e-07
2.65375176001e-05
1.17673650465e-05
5.71362569137e-11
5.18031063655e-09
1.02890530939e-05
1.58949043454e-05
6.062600236e-09
2.03913359209e-07
1.77302039161e-05
1.99251172333e-05
1.9934526638e-07
5.17786189455e-06
3.63480283309e-10

