# vtk DataFile Version 3.0
File Name: Molecule/sphere_excent/sphere_excent_0-s30.vtk
ASCII
DATASET UNSTRUCTURED_GRID
FIELD FieldData 1
TIME 1 1 double
0.0
POINTS 376 double
0.33759945631 -0.6341277957 0.69572561979
-0.00036757771159 -0.85284769535 0.52223682404
0.50012582541 -0.81031817198 0.30466166139
0.85143703222 -0.32946035266 0.40775087476
0.86737471819 -0.49086850882 0.079198002815
0.98594659567 -0.13713112473 0.095824666321
0.50937461853 0.70882093906 0.48745983839
0.41275802255 0.56320053339 0.71495169401
0.7172268033 0.3659992218 0.59249770641
-0.53444653749 -0.82439225912 -0.18408350646
-0.0010110742878 -0.99924719334 0.03186044842
-0.45999625325 -0.8555085063 0.2349807173
-0.90417087078 0.15077340603 0.3989636302
-0.98800176382 -0.13600902259 0.072803415358
-0.83565968275 -0.28488567472 0.46932443976
-0.84119027853 -0.52549117804 0.11809081584
0.47040382028 -0.86537688971 -0.17185290158
0.0083719724789 0.99951916933 0.021917466074
-0.27163827419 0.94498175383 0.18186894059
-0.010033937171 0.88628107309 0.46204957366
-0.39007422328 0.81027805805 0.43430748582
-0.25646200776 0.95335257053 -0.15958103538
-0.51880514622 0.85473930836 -0.00083846412599
-0.48823109269 0.81039643288 -0.3240377903
-0.55000376701 0.78426706791 0.28414663672
0.041315861046 0.93911635876 -0.34068050981
0.26210403442 0.95587664843 -0.13231496513
0.27131444216 0.93169939518 0.24019803107
0.4480599761 0.89368230104 0.025794802234
0.38183641434 0.84325575829 -0.37793019414
0.23107077181 0.75515073538 0.61265611649
0.58406019211 0.54850524664 -0.59825789928
0.42007499933 0.71249103546 -0.56207495928
0.57374805212 0.67138820887 -0.46865314245
0.16882500052 0.80701673031 -0.56572151184
0.93813300133 -0.2928121686 -0.18067041039
0.2311899364 -0.027077043429 -0.97215771675
0.14743562043 -0.20131325722 -0.96790885925
0.032502815127 0.028849253431 -0.99898183346
0.6824169755 -0.64007002115 -0.35330361128
0.50190776587 -0.67371475697 -0.54236239195
0.68422347307 -0.47608613968 -0.55212295055
0.62869918346 0.31152626872 -0.71253812313
0.70240998268 0.3271997869 -0.63186311722
0.68101286888 0.2133282572 -0.70043605566
0.67776417732 -0.22863519192 -0.69881039858
0.75505149364 -0.093704074621 -0.64883303642
0.7591329217 -0.29588314891 -0.57957971096
-0.61881250143 -0.14264523983 0.77190989256
-0.46217998862 -0.33661216497 0.82027715445
-0.38230425119 -0.1378620863 0.91363662481
-0.28084889054 -0.30653566122 0.9094812274
-0.60269331932 -0.47387513518 0.64177912474
0.93658125401 0.11338300258 0.33064931631
0.96767985821 0.21074171364 0.13832119107
0.8444352746 0.44140475988 0.30340453982
0.65002501011 0.67646634579 0.33914333582
-0.95669829845 0.044661726803 -0.28805550933
-0.88081616163 -0.30925405025 -0.35440909863
-0.83652436733 0.18997818232 -0.51396930218
-0.87896829844 0.38761124015 -0.27353399992
-0.96895372868 0.24585127831 0.025304891169
-0.85887384415 0.50966602564 -0.037569798529
-0.70229321718 0.69226640463 -0.1614228934
-0.68508499861 0.69946348667 0.20277257264
-0.76997947693 0.63428395987 0.061333157122
-0.79317098856 -0.10451586545 -0.59629058838
-0.4711702764 -0.34855389595 -0.81014871597
-0.51091790199 -0.52154529095 -0.68205136061
-0.63102602959 -0.32144463062 -0.70551663637
0.48224464059 0.85729497671 -0.17982029915
0.59869807959 0.73714017868 -0.31170746684
0.52013897896 0.83300077915 0.18575020134
0.068530127406 -0.57269954681 0.81683683395
-0.86034816504 0.41235157847 0.29770115018
0.51090526581 0.28954282403 0.80943226814
-0.012474980205 0.32165682316 0.94673901796
0.16622567177 0.33704954386 0.92634612322
0.028194081038 0.52700549364 0.84925740957
-0.0360619165 0.12457351387 0.9915446043
0.15132366121 0.15229597688 0.97664809227
0.090295560658 0.0064804763533 0.99588119984
0.20718967915 0.5781223774 0.78917324543
0.32736992836 0.40100544691 0.8554803133
0.34393960238 0.18037521839 0.92153674364
0.51132524014 -0.029092052951 0.85870563984
0.28303095698 -0.018413756043 0.95889306068
-0.015139154159 -0.93429392576 -0.35537949204
0.21576689184 -0.92289316654 -0.31879505515
0.38025024533 -0.45721140504 -0.80397558212
0.53956449032 -0.49879929423 -0.67790144682
0.37119731307 -0.59217810631 -0.71514821053
0.85881596804 0.1271225065 -0.49601507187
0.77708607912 0.20274162292 -0.59582579136
0.83837425709 0.27812772989 -0.46853789687
0.80272567272 0.041882228106 -0.59473502636
0.71761536598 0.083014011383 -0.69146299362
0.86554640532 -0.13222329319 -0.48257255554
0.59944307804 0.092847004533 -0.79507023096
0.65056478977 -0.016563683748 -0.75926369429
0.52244091034 -0.029995540157 -0.85208845139
0.6045922637 -0.13749209046 -0.78454035521
0.056848704815 -0.87011516094 -0.48960500956
0.33265113831 -0.81422865391 -0.47531971335
0.29807260633 -0.70939391851 -0.63827359676
-0.26513129473 -0.90062433481 -0.34433221817
0.14735627174 -0.73736184835 -0.65924668312
-0.0039048960898 -0.77883911133 -0.62715494633
0.063359059393 -0.68306422234 -0.72761893272
-0.050886638463 -0.68444955349 -0.72725468874
-0.12703341246 -0.72849220037 -0.67307037115
0.098253637552 -0.59155905247 -0.80023819208
-0.019985578954 -0.60375899076 -0.7969096303
-0.097688883543 -0.86192220449 -0.49762141705
-0.25038573146 -0.81862449646 -0.51669329405
-0.44056195021 -0.77341037989 -0.45527365804
-0.12133403867 -0.61009335518 -0.78296291828
-0.11810821295 -0.53603494167 -0.83584648371
0.20144329965 -0.64840954542 -0.73407894373
-0.75521039963 0.39411240816 -0.52208256721
-0.69066017866 0.31891217828 -0.64899998903
-0.65888977051 0.43475326896 -0.61393421888
-0.73447036743 0.073846250772 -0.67428767681
-0.37893760204 0.18812255561 -0.90611749887
-0.46684920788 0.090540789068 -0.87968182564
-0.48754835129 0.19632443786 -0.8506923914
0.51684576273 -0.32103642821 0.7937015295
0.67620790005 -0.24127580225 0.69630306959
0.61330354214 -0.48693203926 0.62186861038
-0.76086014509 0.033924613148 0.64719837904
-0.59076607227 0.12964995205 0.79590600729
-0.70759308338 0.23079955578 0.66725373268
0.8543074131 0.025436397642 0.51918679476
0.34616106749 -0.38554748893 0.85526454449
0.37641251087 -0.19675028324 0.90532696247
-0.21868652105 -0.46146661043 -0.85974466801
-0.36437299848 -0.5048083663 -0.78254520893
-0.30352452397 -0.38629132509 -0.87072014809
0.6437317729 0.14093397558 0.75210094452
0.23083761334 -0.19060358405 0.95414113998
0.094629339874 -0.39140149951 -0.91523450613
-0.015083064325 -0.2927415967 -0.95603364706
-0.14734318852 -0.37069559097 -0.91699105501
-0.029448846355 -0.40634873509 -0.91323131323
-0.10783845931 -0.45591071248 -0.88344168663
0.0042819231749 -0.50590014458 -0.86254167557
-0.22174598277 -0.55125665665 -0.80433058739
-0.26678413153 -0.61159324646 -0.74480652809
0.92496585846 0.053468771279 -0.376042068
0.90804880857 0.41031068563 0.082468740642
0.78646063805 0.60636931658 0.11060456932
0.97864472866 0.0058381040581 -0.20310164988
0.993896842 0.10389383882 -0.036853332072
0.94302016497 0.15922562778 -0.29200515151
0.96940338612 0.18694624305 -0.15917284787
0.92859351635 0.27767285705 -0.2461668849
0.89453393221 0.2714112103 -0.35512030125
0.93737459183 0.31780433655 -0.14253121614
0.88321423531 0.35368022323 -0.30787247419
0.89491218328 0.3935136795 -0.21045252681
0.84525924921 0.43587216735 -0.30884957314
0.83886015415 0.37401276827 -0.39534437656
0.90240520239 0.42494860291 -0.071596391499
0.84720033407 0.4987039268 -0.18306702375
0.82343053818 0.56592148542 -0.010427678935
0.89766895771 0.18031801283 -0.40207594633
0.96064370871 0.2768471539 -0.022886704654
-0.041034881026 -0.15138043463 -0.98761117458
-0.17346552014 -0.2456484586 -0.95368760824
-0.19777420163 -0.12024664134 -0.97284638882
-0.32078355551 -0.27312907577 -0.90685772896
-0.23964528739 0.8776627183 -0.41482099891
-0.071226529777 0.53335404396 -0.8428798914
-0.12904544175 0.62403607368 -0.77064561844
0.017708342522 0.60797166824 -0.79374885559
-0.036167319864 0.73144286871 -0.68092024326
-0.22621823847 0.69020318985 -0.68726676702
0.13257583976 0.67312383652 -0.72753357887
-0.28063356876 0.58143097162 -0.76360523701
-0.046974617988 0.84279251099 -0.53586864471
0.70569163561 -0.70309054852 -0.085908666253
0.81919425726 -0.39420115948 -0.4162415266
0.83202344179 -0.51381409168 -0.20948050916
0.40958282351 0.60104823112 -0.68632990122
0.27986571193 0.68345302343 -0.67418080568
0.27958676219 0.5744523406 -0.76931595802
0.39013054967 0.48803958297 -0.78075635433
-0.33832135797 0.76998180151 -0.54077011347
-0.49500775337 0.69458514452 -0.52195942402
-0.36517342925 0.66228914261 -0.65418946743
-0.4713357389 0.60371464491 -0.64296209812
0.15389956534 0.40623888373 -0.90065932274
0.15023508668 0.53713923693 -0.82999914885
0.28288647532 0.44703832269 -0.84861564636
-0.39844289422 0.55644899607 -0.72908097506
-0.6546574235 0.60393053293 -0.4525424242
-0.57575058937 0.54108947515 -0.6119287014
-0.18412593007 0.78830564022 -0.58704060316
0.030525241047 0.47059509158 -0.8818179369
-0.12250111997 -0.032379098237 -0.99192690849
-0.1738999486 0.091373324394 -0.980471313
-0.25770375133 -0.01053278055 -0.9661719203
-0.32463103533 0.091524749994 -0.94139373302
-0.33299475908 -0.098922163248 -0.93770158291
-0.40643456578 -0.011469095014 -0.91358697414
-0.47829025984 -0.14257708192 -0.86646842957
-0.53280586004 -0.037046916783 -0.84536319971
-0.57527345419 0.056806165725 -0.8159814477
-0.60243982077 -0.1895185411 -0.77475911379
-0.65846031904 -0.030879614875 -0.75190144777
-0.6449829936 0.11835452169 -0.75484323502
-0.56182795763 0.15390400589 -0.81280249357
-0.27975144982 -0.18418958783 -0.94221448898
-0.38297015429 -0.19614952803 -0.90256679058
-0.078457437456 0.2014041841 -0.97635066509
0.073955185711 0.19348731637 -0.97827351093
-0.0037974894512 0.33247199655 -0.94309860468
-0.17475442588 0.31701037288 -0.93219292164
-0.24897839129 0.20362329483 -0.94687640667
-0.32937091589 0.31858205795 -0.88881856203
-0.43058997393 0.25289025903 -0.86638021469
-0.1862475276 0.52081817389 -0.83300024271
-0.33113893867 0.47378009558 -0.81604325771
-0.10760361701 0.42946475744 -0.89662253857
[...]
CELL_DATA 748
SCALARS cell_data_0 double
LOOKUP_TABLE default
1.89390790858e-05
7.43799782407e-06
1.6352945982e-07
1.59326069534e-05
1.04256478463e-05
5.30255063075e-06
1.38190690571e-05
9.47312027752e-06
9.92171933618e-06
3.13153614105e-07
1.04947305012e-06
2.56879265709e-06
2.67334403206e-06
3.80876983944e-06
1.42551229381e-06
4.15949971e-06
4.21382088125e-06
3.05827943388e-06
3.00215564298e-06
3.52760243445e-06
4.59960970711e-06
1.21262474779e-05
1.21120556674e-06
6.17347623733e-05
4.88692061556e-05
5.60775911e-06
5.21288318186e-05
1.43750923657e-05
5.83917794543e-07
4.29773422072e-07
7.64222706919e-07
1.53640189793e-05
1.23949936156e-05
1.38447138881e-05
2.28030343748e-05
1.74753991206e-05
3.87584451043e-05
3.2930625222e-05
9.18746866891e-06
8.58567470619e-05
0.000148420409735
0.000290251349039
0.000159527028809
8.71916965943e-05
2.96595986901e-05
7.27227627123e-05
1.55763114623e-06
0.000108651010696
4.3115379893e-05
2.56723414999e-05
1.96849874657e-05
2.9830466709e-05
2.40013490868e-06
2.72975061688e-05
1.36822797739e-05
1.54605602318e-05
9.0260814777e-06
1.10663609989e-05
1.13682993165e-05
9.04038913345e-06
9.62199797132e-06
1.00046637572e-05
9.40348921803e-06
9.58185745106e-06
1.64689326409e-05
9.90054273134e-06
1.10000613462e-05
1.31371693293e-05
1.59596720685e-05
2.35477892508e-06
3.44291634559e-06
3.80596514421e-07
1.09697260324e-05
5.48256598751e-06
1.34912673706e-05
1.88951911542e-05
9.40267033594e-06
1.08279381575e-05
1.35661649975e-05
1.43747885398e-05
3.15112014779e-06
5.96001263715e-06
9.83339781394e-06
8.27918255404e-06
4.07764625949e-06
8.08907034958e-06
3.22521153265e-06
4.2924775504e-06
1.72198084947e-05
3.82006726332e-05
4.50770848368e-05
8.27010297852e-06
7.57163980626e-06
6.90530274689e-06
3.2274265579e-08
2.18786719528e-05
3.81813955677e-05
1.8990879263e-05
7.18848348131e-06
6.55783381885e-06
3.72469848971e-08
4.46445814628e-06
1.4814469287e-05
3.41192042234e-05
3.04646936601e-07
1.78821221282e-07
1.08610356973e-05
1.20973989235e-08
1.47900039035e-05
9.61131447492e-06
1.64666009722e-05
1.25000358955e-05
1.73482140117e-05
1.93655644148e-05
1.50302414821e-05
1.37285075653e-05
1.21093645521e-05
7.03809231018e-06
8.58175650339e-06
2.89944556822e-06
5.38448895798e-06
8.90635851307e-06
1.24944745553e-05
1.39018272796e-05
3.10378368275e-07
1.25909085401e-05
1.0091655327e-05
8.58523594155e-06
1.46471681913e-05
1.75769853081e-06
2.74548708122e-07
3.73641737459e-07
3.58257197291e-07
2.41674120992e-07
2.68483672765e-07
3.60945236484e-07
2.50216556374e-07
5.13934257066e-07
7.91300058599e-06
7.56676321718e-06
1.16617778969e-07
8.05117722084e-08
6.86973229721e-06
1.14542265815e-05
8.97878677016e-06
1.25110320369e-06
1.31986617999e-07
5.05423205684e-08
4.05105970676e-07
3.02891731356e-07
3.66537313639e-07
2.04971335147e-07
2.34144243504e-07
1.4447489271e-07
2.46458491397e-07
1.40376782737e-07
3.43212718346e-07
2.29915009955e-07
4.22460252224e-08
1.66528765204e-06
6.31251388763e-07
1.59718934614e-06
4.135386142e-07
1.60451544153e-07
2.23070830241e-07
6.36990707611e-07
1.02561253736e-07
7.37507828325e-07
5.27587306701e-07
5.36764491212e-07
3.91454773886e-07
7.7597492709e-07
5.46584768579e-07
1.40858026489e-06
9.51877724765e-06
1.72534419881e-06
1.83359734058e-07
1.63077299101e-07
1.8415782444e-07
2.09980937814e-07
1.66807251465e-07
2.25926273676e-05
2.85229240951e-05
2.70490329141e-07
2.92191922328e-07
2.83604522959e-07
1.82160214371e-06
3.21827504333e-07
4.15768253787e-07
2.32433955353e-07
1.24145401851e-07
1.39126620964e-07
1.06344570173e-07
3.3046433862e-07
2.84474059367e-06
3.43992698688e-05
4.66151683842e-06
3.87927017611e-06
1.82921897758e-06
1.36386208375e-06
1.04546016323e-06
1.78558417237e-06
2.93659602499e-06
2.60508595845e-06
3.28822696892e-05
3.24502538864e-05
3.85606601404e-05
1.28282234866e-05
1.15312677925e-08
1.67367547352e-07
4.05828462507e-08
1.7527218637e-06
9.66704904072e-08
3.12121447393e-08
4.79014985104e-08
3.7385860333e-07
3.42095034785e-08
1.05244351831e-08
1.46769945771e-07
1.46250649203e-06
2.1762652198e-08
1.30155543409e-08
5.20827711897e-05
3.0215403465e-05
2.62446776173e-07
1.63724379826e-07
1.06911976524e-07
2.23009567031e-06
1.8009390496e-07
1.1878422047e-07
1.76775196753e-08
2.7774265981e-07
1.88283854146e-05
6.0244043039e-08
2.97053782711e-06
9.14964575015e-09
4.56084229466e-08
1.66192781001e-07
4.34944105371e-08
8.34587029645e-09
3.97215796594e-08
1.39783572298e-07
1.3345181204e-07
2.65571781733e-08
3.24889973692e-08
1.09375615972e-06
6.8317863208e-08
1.15012227983e-06
2.64046293107e-08
3.22725895847e-05
1.13008794561e-06
7.0429414085e-06
1.00300676502e-06
1.17764206223e-07
3.27788482831e-06
5.1009825642e-08
2.73972074735e-08
5.40488245358e-08
5.82713735974e-08
2.35955968457e-05
1.959191071e-05
7.82539678491e-08
8.74277207687e-08
3.65740589493e-06
1.29844725652e-07
1.55842067458e-07
1.36812342018e-07
1.24627374234e-08
4.49112857403e-08
5.41368404932e-08
5.44917589015e-08
3.27672255202e-08
2.9696063204e-09
3.69959661403e-08
8.4135080046e-08
7.04986543226e-09
1.62853831346e-08
3.20798361462e-07
3.20297391975e-08
2.81119723323e-08
2.38260310036e-08
3.22076088695e-07
1.77361978812e-07
1.53023227467e-07
1.03295122495e-07
1.2210673962e-07
3.99788545282e-06
1.93766930925e-07
6.82821456778e-08
1.23737490314e-07
2.18723801762e-05
2.11484095989e-05
8.92190913313e-06
9.50431243469e-06
6.70060157361e-06
7.63109261806e-06
8.5250743363e-06
9.27793902194e-06
1.76081916243e-05
1.23865650345e-05
9.24682916587e-06
9.02629606887e-06
1.80959553153e-05
1.21580410246e-05
8.95866758092e-06
2.28392465575e-05
1.35131040819e-05
1.29746814619e-05
1.05647580612e-05
1.01155601999e-05
9.08208390475e-06
1.15020419204e-05
1.56452235923e-05
1.25969061218e-05
1.17506876203e-05
5.21927571942e-06
8.39987396779e-06
1.84619569249e-05
1.6154565669e-05
1.13975719744e-05
1.31737548316e-05
6.66136175971e-06
1.79936321171e-05
2.2304009491e-05
7.07386889133e-06
1.8439720314e-05
6.77605300482e-06
1.27055127256e-06
6.90882061658e-06
1.49569266849e-05
8.81454018129e-06
3.87877776876e-07
9.41407873766e-06
1.62875913197e-05
1.91857378679e-05
1.75654061283e-05
1.01052990458e-05
2.28476801285e-05
1.90031075901e-05
1.85757176256e-05
1.61504739191e-05
1.20395135422e-05
1.51444584303e-05
1.03896082788e-05
1.63735542975e-05
1.21184133861e-05
1.19701004757e-05
1.39477529095e-05
1.56949104731e-05
1.45979923087e-05
1.11407973121e-05
7.01446060303e-06
1.82920425773e-05
1.29182369109e-05
1.30263789147e-05
1.40960316541e-05
1.49958832056e-05
1.59668054874e-05
1.04869255168e-05
2.77443005403e-06
8.19096010887e-06
9.59679547983e-06
1.40884367142e-05
1.15906184339e-05
1.14329249174e-05
3.35087365337e-06
7.63537768515e-06
1.60393791227e-07
3.69608574767e-07
1.03266978795e-05
8.87154916049e-06
7.47079901808e-06
5.7001182101e-06
6.03979376258e-06
8.2753503802e-06
5.78030939243e-09
6.82220846676e-09
5.21141249079e-06
3.73190739018e-06
3.25550200013e-06
3.13632920121e-08
6.23582979995e-08
1.57316731069e-05
6.47750462799e-06
1.64620486906e-05
1.56090785136e-05
2.37149204448e-08
1.17781959888e-08
3.39659763178e-06
3.78476821877e-06
2.6627057674e-06
2.21016959212e-08
4.92537451803e-06
3.56525480213e-06
3.51569162961e-06
6.19029617902e-06
1.03111651595e-05
9.36083661235e-06
1.19779099808e-05
3.02666562492e-06
7.80009826169e-08
5.09427815369e-06
4.57696904222e-09
1.67223875806e-08
4.53524936336e-09
3.00177936923e-06
3.7182856127e-06
5.86678693091e-06
3.66145408761e-06
6.60859610661e-06
9.53129502428e-06
1.40031278838e-08
3.65303793086e-08
1.3112819373e-07
2.15831810411e-05
7.36324592896e-08
3.32698733058e-08
2.41888230601e-08
2.65562348344e-06
6.04134853952e-06
7.47696862782e-06
2.32503011337e-06
6.96561369022e-07
3.53776485061e-06
4.27355615948e-06
8.79818676493e-06
7.90680898942e-06
1.24094829429e-05
1.09662567712e-05
1.31893718257e-05
5.50344703411e-06
8.54397471537e-06
7.2602233952e-06
5.01482459021e-06
5.16884822886e-06
5.40409971277e-06
3.98665996401e-06
2.25757771852e-08
5.50525655046e-08
8.43621814685e-08
4.63737923705e-06
1.35907241428e-05
1.25319948938e-08
1.03304879825e-06
4.48316273827e-06
1.15273433583e-06
7.27531695886e-06
3.45958468597e-06
1.67824216502e-06
1.25507787426e-06
1.3632805716e-06
2.02741870245e-06
5.92233241239e-06
3.18760356014e-06
3.51601955437e-06
4.94874264878e-07
2.48911626999e-06
3.06815008877e-06
2.47146849361e-06
1.99754745397e-08
4.03934420638e-08
2.72475607554e-06
4.20993859524e-06
8.81914960893e-07
2.81071615978e-06
1.16207572686e-06
4.3404816542e-08
4.92654815414e-06
9.7743098326e-06
2.34180348853e-06
1.03993866389e-05
7.52410948179e-06
1.08326887952e-05
1.0587293017e-05
2.48329695689e-06
2.70067563137e-06
6.12844854737e-06
4.50352955338e-06
1.32226709766e-06
1.74649960963e-06
1.85871326127e-06
1.70336129452e-06
4.88610913263e-06
1.92985166313e-07
1.86656814814e-08
2.72519914477e-07
1.99323202187e-06
2.68443603243e-06
2.22612085856e-06
1.57384583738e-06
6.73683898126e-07
1.26877964847e-06
4.6261171422e-06
7.51157078543e-06
5.56390669614e-06
7.20544657948e-06
9.21953960334e-06
1.01966737486e-05
7.00445427572e-06
7.04519549297e-06
8.27206930228e-06
7.03951259692e-06
4.82806321958e-06
4.16839663047e-06
5.04033834088e-06
6.98266031968e-06
9.11280291143e-06
2.02954882418e-06
6.14609934742e-06
6.10845300105e-06
8.39151032456e-06
8.99569969019e-06
2.79537836926e-06
1.39130968587e-06
1.57996726168e-06
1.24346219746e-07
1.00539867977e-07
8.66309554896e-07
8.05267706121e-06
3.48213868724e-06
6.9691308045e-06
1.35433721419e-05
2.48153594733e-06
5.77665021996e-06
2.06874107659e-06
7.22354899926e-06
8.52263760844e-08
7.84635410042e-07
4.36669923289e-06
4.23239165372e-06
1.60060580871e-05
4.90768355761e-06
1.86053166708e-05
2.89109643976e-07
1.5341098488e-05
2.1473915526e-05
1.09213660684e-05
1.21203219111e-05
1.2044368612e-05
3.44005740041e-06
3.27442817308e-07
9.08186786799e-08
1.28030787139e-05
9.06205621148e-06
3.76580196623e-06
2.18499529676e-05
3.8354418462e-06
3.78635096252e-06
1.2206690709e-07
5.32294837991e-06
1.29887194444e-07
9.40638049804e-10
4.15738590336e-06
4.15397723881e-06
1.11679292778e-05
2.67211073825e-06
5.34316460773e-06
3.35048410942e-06
5.22831909097e-06
7.72133507207e-06
1.45727079432e-07
1.7932835442e-06
6.81790188083e-06
3.63058955535e-06
1.94468684214e-08
9.79091493283e-08
5.74013584198e-07
1.370592615e-07
3.18233353258e-08
1.054125154e-07
5.05615247174e-07
9.12910525054e-08
1.72104649178e-07
1.62365380179e-06
7.70162413469e-08
8.93308359778e-07
3.45954020781e-07
9.52260596321e-06
6.43582924111e-06
5.86689790062e-06
5.19482208528e-06
3.71112905057e-06
6.54430119368e-06
1.85410406406e-05
9.0928687643e-07
1.15976845337e-05
7.50160275785e-07
7.32254564132e-08
7.731051057e-08
7.02650915839e-08
7.34785655207e-08
8.42866578429e-08
1.17587633711e-07
8.13632079618e-08
6.1643008292e-08
5.36579879901e-08
3.52345027553e-06
1.28363286045e-07
1.52077533505e-05
5.34541226437e-06
4.29834118353e-08
9.54837049469e-08
8.18684674452e-08
6.41889040581e-07
8.7182663729e-07
2.63820070303e-07
1.43092729041e-07
3.65498230919e-06
4.52925583981e-06
1.53085482293e-07
9.8752292153e-08
4.58384847998e-06
7.04487631233e-07
8.27323386486e-06
9.29963161899e-08
1.69272032193e-06
3.38236343396e-08
7.84286603362e-08
7.91503365312e-07
1.11314322978e-07
5.16519038141e-08
2.31168967155e-06
1.573244256e-05
3.50088218759e-05
1.41943322128e-05
1.17157899528e-05
1.4643248041e-07
1.0339686334e-05
2.52898772052e-05
1.25409365502e-05
6.57487147171e-06
7.42343799102e-06
5.297318901e-06
2.16204930508e-07
5.0525315653e-06
4.40131711721e-07
7.7940529134e-06
6.37950204292e-06
3.96409190092e-06
3.37086982415e-07
8.60009564064e-07
1.04125483348e-05
9.82146769986e-07
1.86102217997e-06
2.02175071358e-06
4.14168267266e-07
7.89537137085e-07
1.69358549998e-07
7.14811263353e-06
5.95551377411e-06
3.00385845042e-06
2.18844582462e-06
1.68827513493e-06
2.31588010059e-06
1.42604824278e-06
1.47638169152e-06
1.69946628135e-06
2.20535475143e-06
1.07228861529e-06
2.79612972868e-07
8.35434240361e-07
1.476428605e-06
3.15051171373e-06
3.3347034317e-06
3.7687928935e-05
5.49913661053e-05
2.66712839467e-06
4.5860556172e-06
1.19683224536e-05
1.51257087715e-05
1.33607785056e-07
7.52214124354e-07
1.73444870227e-06
2.75910655954e-07
1.29496713455e-05
3.21628669324e-05
5.29131404698e-06
1.15465175438e-06
1.18920142783e-06
1.32101285049e-05
2.16933474128e-05
1.56430466266e-06
6.81593064939e-06
8.82511639336e-08
6.83571972281e-06
3.36154395469e-06
8.42947785713e-06
1.07589269447e-05
1.14486776579e-06
3.23605428741e-07
6.91254110717e-06
5.21666794792e-07
7.37855778044e-06
2.285121295e-07
4.26424734332e-07
4.48157145573e-07
7.20120894336e-07
6.06652598577e-07
7.76919025115e-07
7.51370033611e-07
6.60163296254e-07
1.58370015007e-06
4.0613586281e-06
2.17209551227e-06
1.89419823866e-06
4.78534685811e-06
4.88899383309e-06
2.43188553425e-06
1.66255114132e-06
4.37482443091e-06
7.35930379638e-06
8.94613063356e-07
3.3478154698e-06
2.50798696707e-07
9.27836207e-06
4.42710652408e-06
8.05076360662e-05
4.27638966999e-05
5.45105321669e-05
4.74055474824e-05
2.57041724129e-05
5.7022979103e-07
1.3203039909e-05
2.23323990732e-05
2.91460073671e-05
2.07819293142e-05
1.09584417898e-05
2.91929108745e-05
9.37097851971e-06
8.32717887791e-07
9.56924993284e-06
5.75930037216e-07
1.35184540936e-07
1.06660940007e-07
1.63783659339e-05
4.4681196008e-08
8.66248935143e-08
9.96874919244e-06
1.92448469407e-05
1.78998902947e-07
3.95444824815e-08
5.45546401306e-06
5.6214204014e-06
2.80112525487e-07
8.7104526918e-08
8.67702403913e-06
6.24163399328e-07
1.60027812502e-05

