# vtk DataFile Version 3.0
File Name: Molecule/sphere_excent/sphere_excent_0-s10.vtk
ASCII
DATASET UNSTRUCTURED_GRID
FIELD FieldData 1
TIME 1 1 double
0.0
POINTS 269 double
1.0 1.61803399 0.61803399
0.52573111 1.90211303 0.3249197
0.51978383 1.72533696 0.86777713
0.0 1.92387672 0.54653306
0.0 2.0 0.0
0.0 1.70130162 1.05146222
-0.51978383 1.72533696 0.86777713
-0.52573111 1.90211303 0.3249197
-1.0 1.61803399 0.61803399
-1.05146222 1.70130162 0.0
-1.40409289 1.38756095 0.32124407
-1.40409289 1.38756095 -0.32124407
-1.0 1.61803399 -0.61803399
-1.70130162 1.05146222 0.0
-0.32124407 1.40409289 1.38756095
-0.85065081 1.37638192 1.17557051
-0.61803399 1.0 1.61803399
-1.37638192 1.17557051 0.85065081
-1.17557051 0.85065081 1.37638192
-1.61803399 0.61803399 1.0
-1.72533696 0.86777713 0.51978383
-0.86777713 0.51978383 1.72533696
-1.38756095 0.32124407 1.40409289
-1.05146222 0.0 1.70130162
0.32124407 1.40409289 1.38756095
0.0 1.05146222 1.70130162
0.61803399 1.0 1.61803399
-0.3249197 0.52573111 1.90211303
0.3249197 0.52573111 1.90211303
-0.54653306 0.0 1.92387672
0.86777713 0.51978383 1.72533696
0.54653306 0.0 1.92387672
1.05146222 0.0 1.70130162
-0.86777713 -0.51978383 1.72533696
-0.61803399 -1.0 1.61803399
-0.3249197 -0.52573111 1.90211303
0.0 -1.05146222 1.70130162
0.61803399 -1.0 1.61803399
0.3249197 -0.52573111 1.90211303
-0.32124407 -1.40409289 1.38756095
0.32124407 -1.40409289 1.38756095
0.0 -1.70130162 1.05146222
0.86777713 -0.51978383 1.72533696
1.38756095 -0.32124407 1.40409289
1.17557051 -0.85065081 1.37638192
1.61803399 -0.61803399 1.0
0.85065081 -1.37638192 1.17557051
1.37638192 -1.17557051 0.85065081
1.0 -1.61803399 0.61803399
0.51978383 -1.72533696 0.86777713
1.72533696 -0.86777713 0.51978383
1.40409289 -1.38756095 0.32124407
1.70130162 -1.05146222 0.0
1.05146222 0.0 -1.70130162
0.86777713 -0.51978383 -1.72533696
0.54653306 0.0 -1.92387672
0.32124407 -1.40409289 -1.38756095
0.0 -1.70130162 -1.05146222
-0.32124407 -1.40409289 -1.38756095
-0.54653306 0.0 -1.92387672
-0.86777713 -0.51978383 -1.72533696
-1.05146222 0.0 -1.70130162
1.92387672 -0.54653306 0.0
1.90211303 -0.3249197 0.52573111
2.0 0.0 0.0
1.90211303 0.3249197 0.52573111
1.70130162 0.0 1.05146222
1.92387672 0.54653306 0.0
1.70130162 1.05146222 0.0
1.72533696 0.86777713 0.51978383
1.38756095 0.32124407 1.40409289
1.40409289 1.38756095 0.32124407
0.85065081 1.37638192 1.17557051
1.37638192 1.17557051 0.85065081
1.17557051 0.85065081 1.37638192
-1.72533696 -0.86777713 -0.51978383
-1.92387672 -0.54653306 0.0
-1.90211303 -0.3249197 -0.52573111
-1.70130162 -1.05146222 0.0
-1.90211303 0.3249197 -0.52573111
-1.92387672 0.54653306 0.0
-1.72533696 0.86777713 -0.51978383
0.0 1.70130162 -1.05146222
-0.32124407 1.40409289 -1.38756095
-0.51978383 1.72533696 -0.86777713
-0.85065081 1.37638192 -1.17557051
-0.61803399 1.0 -1.61803399
-1.17557051 0.85065081 -1.37638192
-1.37638192 1.17557051 -0.85065081
-1.61803399 0.61803399 -1.0
-0.86777713 0.51978383 -1.72533696
-1.38756095 0.32124407 -1.40409289
-1.40409289 -1.38756095 -0.32124407
-1.40409289 -1.38756095 0.32124407
-1.05146222 -1.70130162 0.0
-1.0 -1.61803399 -0.61803399
-1.0 -1.61803399 0.61803399
-0.52573111 -1.90211303 -0.3249197
-0.52573111 -1.90211303 0.3249197
0.0 -2.0 0.0
-0.51978383 -1.72533696 -0.86777713
0.0 -1.92387672 -0.54653306
-0.51978383 -1.72533696 0.86777713
0.0 -1.92387672 0.54653306
-1.72533696 -0.86777713 0.51978383
-1.37638192 -1.17557051 0.85065081
-1.61803399 -0.61803399 1.0
-0.85065081 -1.37638192 1.17557051
-1.17557051 -0.85065081 1.37638192
-1.38756095 -0.32124407 1.40409289
-1.70130162 0.0 1.05146222
-1.90211303 0.3249197 0.52573111
-1.90211303 -0.3249197 0.52573111
-2.0 0.0 0.0
-1.38756095 -0.32124407 -1.40409289
-1.17557051 -0.85065081 -1.37638192
-0.61803399 -1.0 -1.61803399
-0.85065081 -1.37638192 -1.17557051
-1.37638192 -1.17557051 -0.85065081
-1.61803399 -0.61803399 -1.0
0.51978383 -1.72533696 -0.86777713
0.52573111 -1.90211303 -0.3249197
1.0 -1.61803399 -0.61803399
1.05146222 -1.70130162 0.0
0.52573111 -1.90211303 0.3249197
1.40409289 -1.38756095 -0.32124407
1.38756095 -0.32124407 -1.40409289
1.61803399 -0.61803399 -1.0
1.37638192 -1.17557051 -0.85065081
1.17557051 -0.85065081 -1.37638192
0.85065081 -1.37638192 -1.17557051
1.72533696 -0.86777713 -0.51978383
0.86777713 0.51978383 -1.72533696
0.3249197 0.52573111 -1.90211303
0.61803399 1.0 -1.61803399
-0.3249197 0.52573111 -1.90211303
0.0 1.05146222 -1.70130162
0.32124407 1.40409289 -1.38756095
0.85065081 1.37638192 -1.17557051
0.76722747 1.68782295 -0.75007714
1.0 1.61803399 -0.61803399
1.03851698 1.68035577 -0.31286893
1.40409289 1.38756095 -0.32124407
0.77237477 1.78201305 -0.47735386
0.7992141 1.82596499 -0.16464716
0.52573111 1.90211303 -0.3249197
1.05146222 1.70130162 0.0
0.5328094 1.92772253 0.0
0.7992141 1.82596499 0.16464716
0.5281655 1.83248835 -0.60251776
0.51978383 1.72533696 -0.86777713
0.26331074 1.8486092 -0.71645759
0.26558495 1.93278519 -0.44023406
0.0 1.92387672 -0.54653306
1.42256347 1.40581406 0.0
1.24047916 1.56040874 -0.1622837
1.24047916 1.56040874 0.1622837
1.2136503 1.5173046 0.47417265
1.03851698 1.68035577 0.31286893
-0.52573111 1.90211303 -0.3249197
-0.5328094 1.92772253 0.0
-0.7992141 1.82596499 -0.16464716
-0.7992141 1.82596499 0.16464716
-0.26558495 1.93278519 -0.44023406
-0.26331074 1.8486092 -0.71645759
-0.5281655 1.83248835 -0.60251776
1.17557051 0.85065081 -1.37638192
1.29315558 1.02675088 -1.12850842
1.61803399 0.61803399 -1.0
1.37638192 1.17557051 -0.85065081
1.02675088 1.12850842 -1.29315558
1.12850842 1.29315558 -1.02675088
0.59200919 1.40461969 -1.29482379
0.69230603 1.56690339 -1.03224324
0.42604573 1.58529846 -1.14250332
1.90211303 0.3249197 -0.52573111
1.93278519 0.44023406 -0.26558495
1.83248835 0.60251776 -0.5281655
1.8486092 0.71645759 -0.26331074
1.72533696 0.86777713 -0.51978383
1.58529846 1.14250332 -0.42604573
1.56690339 1.03224324 -0.69230603
1.40461969 1.29482379 -0.59200919
1.38756095 0.32124407 -1.40409289
1.29482379 0.59200919 -1.40461969
1.14250332 0.42604573 -1.58529846
1.03224324 0.69230603 -1.56690339
1.8486092 -0.71645759 -0.26331074
1.83248835 -0.60251776 -0.5281655
1.93278519 -0.44023406 -0.26558495
1.90211303 -0.3249197 -0.52573111
1.68782295 -0.75007714 -0.76722747
1.78201305 -0.47735386 -0.77237477
1.68035577 -0.31286893 -1.03851698
1.82596499 -0.16464716 -0.7992141
1.70130162 0.0 -1.05146222
1.82596499 0.16464716 -0.7992141
1.92772253 0.0 -0.5328094
1.5173046 -0.47417265 -1.2136503
1.56040874 -0.1622837 -1.24047916
1.40581406 0.0 -1.42256347
1.56040874 0.1622837 -1.24047916
0.60251776 -0.5281655 -1.83248835
0.3249197 -0.52573111 -1.90211303
0.75007714 -0.76722747 -1.68782295
0.47735386 -0.77237477 -1.78201305
0.61803399 -1.0 -1.61803399
0.31286893 -1.03851698 -1.68035577
0.16464716 -0.7992141 -1.82596499
0.0 -1.05146222 -1.70130162
0.47417265 -1.2136503 -1.5173046
0.1622837 -1.24047916 -1.56040874
-1.97537668 -0.16448493 -0.26614221
-1.92772253 0.0 -0.5328094
-1.97537668 0.16448493 -0.26614221
1.03224324 -0.69230603 -1.56690339
0.907981 -0.9368597 -1.51587084
1.02675088 -1.12850842 -1.29315558
0.74349607 -1.20300191 -1.41421356
0.59200919 -1.40461969 -1.29482379
0.16448493 -0.26614221 -1.97537668
0.0 0.0 -2.0
0.0 -0.5328094 -1.92772253
-0.16448493 -0.26614221 -1.97537668
-0.3249197 -0.52573111 -1.90211303
-0.27590449 0.0 -1.98087776
-0.44023406 -0.26558495 -1.93278519
-1.40581406 0.0 -1.42256347
-1.56040874 -0.1622837 -1.24047916
-1.56040874 0.1622837 -1.24047916
-1.70130162 0.0 -1.05146222
-1.5173046 -0.47417265 -1.2136503
-1.68035577 -0.31286893 -1.03851698
-1.5173046 0.47417265 -1.2136503
-1.68035577 0.31286893 -1.03851698
-1.78201305 -0.47735386 -0.77237477
-1.82596499 -0.16464716 -0.7992141
-1.82596499 0.16464716 -0.7992141
-1.78201305 0.47735386 -0.77237477
0.16448493 0.26614221 -1.97537668
-0.16448493 0.26614221 -1.97537668
0.0 0.5328094 -1.92772253
-0.44023406 0.26558495 -1.93278519
0.0 0.5328094 1.92772253
-0.16448493 0.26614221 1.97537668
0.16448493 0.26614221 1.97537668
0.0 0.0 2.0
-0.44023406 0.26558495 1.93278519
-0.27590449 0.0 1.98087776
0.44023406 0.26558495 1.93278519
0.27590449 0.0 1.98087776
-0.44023406 -0.26558495 1.93278519
-0.16448493 -0.26614221 1.97537668
0.0 -0.5328094 1.92772253
0.16448493 -0.26614221 1.97537668
0.44023406 -0.26558495 1.93278519
-0.31286893 -1.03851698 -1.68035577
-0.16464716 -0.7992141 -1.82596499
-0.47735386 -0.77237477 -1.78201305
1.82596499 0.16464716 0.7992141
1.78201305 0.47735386 0.77237477
1.68035577 0.31286893 1.03851698
1.61803399 0.61803399 1.0
1.83248835 0.60251776 0.5281655
1.68782295 0.75007714 0.76722747
1.56690339 1.03224324 0.69230603
1.51587084 0.907981 0.9368597
1.29315558 1.02675088 1.12850842
1.41421356 0.74349607 1.20300191

CELLS 534 2136
3 0 1 2
3 1 3 2
3 1 4 3
3 2 3 5
3 5 3 6
3 3 7 6
3 3 4 7
3 6 7 8
3 8 9 10
3 9 11 10
3 9 12 11
3 10 11 13
3 5 6 14
3 6 15 14
3 6 8 15
3 14 15 16
3 8 17 15
3 17 18 15
3 17 19 18
3 15 18 16
3 8 10 17
3 10 20 17
3 10 13 20
3 17 20 19
3 16 18 21
3 18 22 21
3 18 19 22
3 21 22 23
3 5 14 24
3 14 25 24
3 14 16 25
3 24 25 26
3 16 27 25
3 25 28 26
3 16 21 27
3 21 23 29
3 26 28 30
3 30 31 32
3 23 33 29
3 33 34 35
3 34 36 35
3 36 37 38
3 34 39 36
3 39 40 36
3 39 41 40
3 36 40 37
3 38 37 42
3 31 42 32
3 32 42 43
3 42 44 43
3 42 37 44
3 43 44 45
3 37 46 44
3 46 47 44
3 46 48 47
3 44 47 45
3 37 40 46
3 40 49 46
3 40 41 49
3 46 49 48
3 45 47 50
3 47 51 50
3 47 48 51
3 50 51 52
3 53 54 55
3 56 57 58
3 59 60 61
3 52 62 50
3 62 63 50
3 62 64 63
3 50 63 45
3 64 65 63
3 63 66 45
3 64 67 65
3 67 68 69
3 45 66 43
3 66 70 43
3 43 70 32
3 68 71 69
3 0 72 73
3 72 26 74
3 0 2 72
3 2 24 72
3 2 5 24
3 72 24 26
3 74 30 70
3 74 26 30
3 70 30 32
3 75 76 77
3 75 78 76
3 79 80 81
3 81 80 13
3 82 83 84
3 83 85 84
3 83 86 85
3 84 85 12
3 86 87 85
3 87 88 85
3 87 89 88
3 85 88 12
3 86 90 87
3 90 91 87
3 90 61 91
3 12 88 11
3 88 81 11
3 88 89 81
3 11 81 13
3 78 92 93
3 92 94 93
3 92 95 94
3 93 94 96
3 95 97 94
3 97 98 94
3 97 99 98
3 94 98 96
3 95 100 97
3 100 101 97
3 100 57 101
3 97 101 99
3 96 98 102
3 98 103 102
3 98 99 103
3 102 103 41
3 78 93 104
3 93 105 104
3 93 96 105
3 104 105 106
3 96 107 105
3 107 108 105
3 107 34 108
3 105 108 106
3 96 102 107
3 102 39 107
3 102 41 39
3 107 39 34
3 106 108 109
3 108 33 109
3 108 34 33
3 109 33 23
3 23 22 109
3 22 110 109
3 22 19 110
3 109 110 106
3 19 111 110
3 111 112 110
3 111 113 112
3 110 112 106
3 19 20 111
3 20 80 111
3 20 13 80
3 111 80 113
3 106 112 104
3 112 76 104
3 112 113 76
3 104 76 78
3 61 60 114
3 60 115 114
3 60 116 115
3 116 117 115
3 117 118 115
3 117 95 118
3 115 118 119
3 116 58 117
3 58 100 117
3 58 57 100
3 117 100 95
3 119 118 75
3 118 92 75
3 118 95 92
3 75 92 78
3 57 120 101
3 120 121 101
3 120 122 121
3 101 121 99
3 122 123 121
3 123 124 121
3 123 48 124
3 121 124 99
3 122 125 123
3 125 51 123
3 125 52 51
3 123 51 48
3 99 124 103
3 124 49 103
3 124 48 49
3 103 49 41
3 53 126 54
3 127 128 129
3 128 122 130
3 131 125 128
3 131 52 125
3 128 125 122
3 130 122 120
3 56 120 57
3 53 55 132
3 55 133 132
3 132 133 134
3 135 86 136
3 133 136 134
3 59 61 90
3 135 90 86
3 134 136 137
3 136 83 137
3 136 86 83
3 137 83 82
3 138 139 140
3 140 141 142
3 140 143 141
3 143 144 141
3 143 145 144
3 141 144 146
3 145 147 144
3 147 148 144
3 147 1 148
3 144 148 146
3 1 147 4
3 4 147 145
3 148 1 0
3 140 139 143
3 139 149 143
3 139 150 149
3 143 149 145
3 150 151 149
3 151 152 149
3 151 153 152
3 149 152 145
3 153 151 82
3 82 151 150
3 145 152 4
3 152 153 4
3 142 154 68
3 68 154 71
3 142 155 154
3 155 156 154
3 155 146 156
3 154 156 71
3 71 156 157
3 156 158 157
3 156 146 158
3 157 158 0
3 159 160 4
3 4 160 7
3 159 161 160
3 161 162 160
3 161 9 162
3 160 162 7
3 9 161 12
3 12 161 159
3 7 162 8
3 162 9 8
3 153 163 4
3 4 163 159
3 153 164 163
3 164 165 163
3 164 84 165
3 163 165 159
3 84 164 82
3 82 164 153
3 159 165 12
3 165 84 12
3 71 157 73
3 157 0 73
3 146 155 141
3 141 155 142
3 0 158 148
3 148 158 146
3 166 167 168
3 168 167 169
3 166 170 167
3 170 171 167
3 170 138 171
3 167 171 169
3 138 170 134
3 134 170 166
3 169 171 140
3 171 138 140
3 138 172 173
3 172 174 173
3 172 137 174
3 173 174 150
3 137 172 134
3 134 172 138
3 150 174 82
3 174 137 82
3 138 173 139
3 139 173 150
3 175 176 64
3 64 176 67
3 175 177 176
3 177 178 176
3 177 179 178
3 176 178 67
3 179 177 168
3 168 177 175
3 67 178 68
3 178 179 68
3 179 180 68
3 68 180 142
3 179 181 180
3 181 182 180
3 181 169 182
3 180 182 142
3 169 181 168
3 168 181 179
3 142 182 140
3 182 169 140
3 183 184 168
3 168 184 166
3 183 185 184
3 185 186 184
3 185 132 186
3 184 186 166
3 132 185 53
3 53 185 183
3 166 186 134
3 186 132 134
3 131 187 52
3 52 187 62
3 131 188 187
3 188 189 187
3 188 190 189
3 187 189 62
3 131 191 188
3 191 192 188
3 191 127 192
3 188 192 190
3 62 189 64
3 189 190 64
3 127 193 192
3 193 194 192
3 193 195 194
3 192 194 190
3 195 196 194
3 196 197 194
3 196 175 197
3 194 197 190
3 175 196 168
3 168 196 195
3 190 197 64
3 197 175 64
3 127 198 193
3 198 199 193
3 198 126 199
3 193 199 195
3 126 200 199
3 200 201 199
3 200 183 201
3 199 201 195
3 183 200 53
3 53 200 126
3 195 201 168
3 201 183 168
3 126 198 129
3 198 127 129
3 127 191 128
3 191 131 128
3 54 202 55
3 202 203 55
3 54 204 202
3 204 205 202
3 204 206 205
3 202 205 203
3 206 207 205
3 207 208 205
3 207 209 208
3 205 208 203
3 206 210 207
3 210 211 207
3 210 56 211
3 207 211 209
3 209 211 58
3 58 211 56
3 77 212 213
3 212 214 213
3 212 113 214
3 213 214 79
3 113 212 76
3 76 212 77
3 79 214 80
3 214 113 80
3 129 215 126
3 126 215 54
3 54 215 204
3 215 216 204
3 215 129 216
3 204 216 206
3 130 217 128
3 128 217 129
3 129 217 216
3 217 218 216
3 217 130 218
3 216 218 206
3 206 218 210
3 218 219 210
3 218 130 219
3 210 219 56
3 56 219 120
3 120 219 130
3 203 220 55
3 55 220 221
3 203 222 220
3 222 223 220
3 222 224 223
3 220 223 221
3 221 223 225
3 223 226 225
3 223 224 226
3 225 226 59
3 59 226 60
3 60 226 224
3 114 227 61
3 61 227 91
3 114 228 227
3 228 229 227
3 228 230 229
3 227 229 91
3 114 231 228
3 231 232 228
3 231 119 232
3 228 232 230
3 91 229 233
3 229 234 233
3 229 230 234
3 233 234 89
3 119 235 232
3 235 236 232
3 235 77 236
3 232 236 230
3 230 237 234
3 237 238 234
3 237 79 238
3 234 238 89
3 77 235 75
3 75 235 119
3 89 238 81
3 238 79 81
3 91 233 87
3 87 233 89
3 119 231 115
3 115 231 114
3 221 239 55
3 55 239 133
3 221 240 239
3 240 241 239
3 240 135 241
3 239 241 133
3 133 241 136
3 136 241 135
3 221 225 240
3 225 242 240
3 225 59 242
3 240 242 135
3 135 242 90
3 90 242 59
3 224 222 208
3 208 222 203
3 230 236 213
3 213 236 77
3 79 237 213
3 213 237 230
3 27 243 25
3 243 28 25
3 27 244 243
3 244 245 243
3 244 246 245
3 243 245 28
3 29 247 21
3 21 247 27
3 27 247 244
3 247 248 244
3 247 29 248
3 244 248 246
3 28 249 30
3 249 31 30
3 28 245 249
3 245 250 249
3 245 246 250
3 249 250 31
3 35 251 33
3 33 251 29
3 29 251 248
3 251 252 248
3 251 35 252
3 248 252 246
3 38 253 36
3 36 253 35
3 35 253 252
3 253 254 252
3 253 38 254
3 252 254 246
3 246 254 250
3 254 255 250
3 254 38 255
3 250 255 31
3 31 255 42
3 42 255 38
3 209 256 257
3 256 258 257
3 256 116 258
3 257 258 224
3 116 256 58
3 58 256 209
3 224 258 60
3 258 116 60
3 65 259 63
3 259 66 63
3 65 260 259
3 260 261 259
3 260 262 261
3 259 261 66
3 69 263 67
3 67 263 65
3 65 263 260
3 263 264 260
3 263 69 264
3 260 264 262
3 66 261 70
3 261 262 70
3 73 265 71
3 71 265 69
3 69 265 264
3 265 266 264
3 265 73 266
3 264 266 262
3 74 267 72
3 72 267 73
3 73 267 266
3 267 268 266
3 267 74 268
3 266 268 262
3 262 268 70
3 268 74 70
3 209 257 208
3 208 257 224

CELL_TYPES 534
5
5
5
5
5
5
5
5
5
5
5
5
5
5
5
5
5
5
5
5
5
5
5
5
5
5
5
5
5
5
5
5
5
5
5
5
5
5
5
5
5
5
5
5
5
5
5
5
5
5
5
5
5
5
5
5
5
5
5
5
5
5
5
5
5
5
5
5
5
5
5
5
5
5
5
5
5
5
5
5
5
5
5
5
5
5
5
5
5
5
5
5
5
5
5
5
5
5
5
5
5
5
5
5
5
5
5
5
5
5
5
5
5
5
5
5
5
5
5
5
5
5
5
5
5
5
5
5
5
5
5
5
5
5
5
5
5
5
5
5
5
5
5
5
5
5
5
5
5
5
5
5
5
5
5
5
5
5
5
5
5
5
5
5
5
5
5
5
5
5
5
5
5
5
5
5
5
5
5
5
5
5
5
5
5
5
5
5
5
5
5
5
5
5
5
5
5
5
5
5
5
5
5
5
5
5
5
5
5
5
5
5
5
5
5
5
5
5
5
5
5
5
5
5
5
5
5
5
5
5
5
5
5
5
5
5
5
5
5
5
5
5
5
5
5
5
5
5
5
5
5
5
5
5
5
5
5
5
5
5
5
5
5
5
5
5
5
5
5
5
5
5
5
5
5
5
5
5
5
5
5
5
5
5
5
5
5
5
5
5
5
5
5
5
5
5
5
5
5
5
5
5
5
5
5
5
5
5
5
5
5
5
5
5
5
5
5
5
5
5
5
5
5
5
5
5
5
5
5
5
5
5
5
5
5
5
5
5
5
5
5
5
5
5
5
5
5
5
5
5
5
5
5
5
5
5
5
5
5
5
5
5
5
5
5
5
5
5
5
5
5
5
5
5
5
5
5
5
5
5
5
5
5
5
5
5
5
5
5
5
5
5
5
5
5
5
5
5
5
5
5
5
5
5
5
5
5
5
5
5
5
5
5
5
5
5
5
5
5
5
5
5
5
5
5
5
5
5
5
5
5
5
5
5
5
5
5
5
5
5
5
5
5
5
5
5
5
5
5
5
5
5
5
5
5
5
5
5
5
5
5
5
5
5
5
5
5
5
5
5
5
5
5
5
5
5
5
5
5
5
5
5
5
5
5
5
5
5
5
5
5
5
5
5
5
5
5
5
5
5
5
5
5
5
5
5
5
5
5
5
5
5
5
5
5
5
5
5
5
5
5
5
5
5
5
5
5
5
5
5
5
5
5
5

CELL_DATA 534
SCALARS cell_data_0 double
LOOKUP_TABLE default
1.48081495996e-06
2.31693937147e-06
1.79107592336e-06
2.65792622646e-06
2.68579688697e-06
2.47403133035e-07
6.80035366901e-06
2.52992937549e-06
6.58270074155e-06
6.09649576376e-06
2.01980003899e-06
5.79760433391e-06
3.53538711589e-06
3.42654770499e-06
8.45566460045e-07
6.94613712955e-07
3.71693206703e-06
4.31683841626e-06
1.08561384327e-07
6.19528001397e-06
1.16914768975e-05
8.17922630362e-06
3.5873338349e-06
5.24303008638e-06
1.1780983045e-05
8.27348657054e-06
5.78009863808e-06
1.12604077107e-05
6.29203420916e-06
1.00683567345e-05
9.08189342509e-06
1.13940131942e-05
2.2314584125e-05
2.22234985916e-05
1.86874993777e-05
1.44556144058e-05
1.85584079552e-05
1.09547864009e-05
1.37819953786e-05
1.88308222216e-05
2.25077947286e-05
2.12988457666e-05
1.22011131427e-05
6.45243057133e-06
5.95373306792e-06
1.19764316788e-05
1.7811983182e-05
1.1487694328e-05
1.00028156214e-05
9.00683563672e-06
1.16173345977e-05
3.85020984578e-06
8.89445684311e-06
6.52544606221e-06
1.51014392514e-05
1.15467866117e-05
7.99015526652e-06
4.97398492757e-06
4.91822091045e-06
9.85682848192e-06
1.73464685232e-05
1.15201048543e-06
1.94617720355e-05
8.13517068858e-07
2.21863347487e-06
9.87039399008e-06
2.11297487056e-05
4.3183146399e-06
1.1657202915e-05
1.17064863687e-05
2.78595378568e-05
7.78704781949e-06
2.95314249771e-05
3.58571943974e-06
2.82306245097e-06
8.58656809524e-06
6.79863090388e-06
8.71975124723e-06
3.87792528609e-07
4.47916103856e-06
9.73272773565e-06
3.11589907639e-06
5.43434192756e-06
4.85891526039e-06
7.53387060653e-06
7.61717210431e-06
1.23035643864e-05
9.36415602069e-06
2.11012800729e-07
3.16032519227e-07
6.5828427958e-07
5.19586091466e-07
4.16872747317e-06
1.39562367652e-06
1.45761445982e-05
2.90056251813e-06
1.81839497205e-05
7.60766467131e-08
1.24174371449e-05
1.08912593503e-06
1.56271986425e-05
5.49957849761e-07
3.08594794169e-06
1.62649328655e-06
1.2607034396e-06
1.18013714096e-05
1.55021250151e-06
8.30014920327e-07
1.51620197811e-06
7.57907352822e-06
1.43138976178e-05
7.71635907628e-06
1.94303087283e-06
2.07297485448e-06
1.67025510316e-05
7.82253983878e-06
8.41599439541e-07
6.19326664281e-07
3.08254165735e-06
1.13838623566e-05
2.67813017541e-06
1.00231562205e-06
3.28167286104e-06
1.5722412339e-06
2.66276061289e-06
1.30658941336e-05
1.15154602559e-06
1.22666490642e-05
6.17248331417e-06
8.2628414961e-06
4.57579893428e-06
8.98312604407e-06
4.80186393169e-06
4.853444272e-06
7.49924683898e-06
5.82000642903e-06
7.39847438582e-06
1.21370849795e-05
1.08429701692e-05
9.37423337367e-06
6.41713031916e-06
4.2628664845e-06
4.45080068923e-06
1.47958566931e-06
3.46127600914e-06
2.39442155057e-05
1.61599749301e-06
7.71595150156e-07
1.39780469209e-06
7.74990240421e-07
2.14108950124e-05
2.01597858754e-08
1.52439187536e-06
2.23135374144e-05
6.48056244939e-07
1.14425331462e-05
8.74677186924e-06
5.36820526405e-05
4.25419094055e-05
1.37156297833e-06
1.25609177004e-05
2.01076023363e-05
4.22586543796e-05
2.99791375475e-06
4.6853818564e-06
9.79568027731e-06
1.40406381938e-05
1.70444342817e-07
9.7110739706e-06
1.71431464751e-07
1.0097252825e-06
3.30421070389e-07
2.78581472805e-06
3.92077894857e-06
2.55652280502e-06
9.29041719144e-07
2.2753400832e-05
4.83248606103e-06
2.4500208425e-06
5.84447746724e-07
4.22454830772e-07
1.93051479818e-05
2.37090263172e-06
2.47049291256e-06
1.59330533173e-05
3.11880482869e-06
4.85692905163e-06
2.84344071819e-06
7.61190849345e-06
1.7502634662e-05
1.3033451141e-05
4.75445431522e-06
4.51264957083e-06
4.65243605485e-06
1.72712112749e-06
1.08303011664e-06
1.2627704287e-05
2.31198982583e-05
1.76517395863e-05
9.21842178919e-06
1.77275432175e-05
1.31863561261e-05
7.29242668188e-07
1.64671319473e-05
2.33195598498e-06
2.17562480138e-06
2.29084248961e-06
9.90988900123e-07
1.23285382782e-07
2.21162572952e-07
2.78233912789e-07
3.43143366437e-07
4.05786256389e-07
5.18571654184e-07
4.18996244612e-07
9.41666068434e-07
1.44682623548e-06
8.45311459531e-07
1.13831768943e-06
7.73437048929e-08
6.21001923868e-08
1.65455943742e-07
8.32144723313e-08
1.24886011689e-07
3.91135650056e-09
2.05273803937e-07
1.41267539337e-06
9.47821409316e-07
1.48066753634e-06
2.39504622181e-06
4.05984480522e-07
4.0508706525e-07
1.24296917061e-07
3.31826074392e-07
3.55793687676e-07
4.00291009107e-07
4.50126783488e-07
4.51054813884e-07
3.94982289029e-07
3.13781022783e-07
2.93425100114e-06
4.50591240906e-06
4.61988673488e-08
2.21601025383e-07
1.51934380183e-07
3.74221851948e-07
5.43449215309e-07
6.97534242431e-07
1.65854072792e-06
4.0356915856e-07
2.76316770212e-06
2.61391793786e-06
1.38693112113e-07
1.67301261566e-08
3.83909878004e-07
5.15411469745e-08
2.28654183884e-06
1.57028354469e-06
6.83530717216e-07
1.37103576617e-06
1.21029518461e-06
1.19390559162e-06
2.65572663265e-07
1.41904435521e-08
3.00726003135e-07
4.84386554809e-07
3.63497473218e-06
4.50947149566e-06
3.31580924075e-08
1.81960938221e-08
7.09862007085e-08
1.99562506108e-07
6.24050398553e-06
6.35443113964e-06
2.55515371187e-06
1.81377825822e-06
7.48313838156e-08
3.29655421777e-08
1.06159305226e-07
1.49058043529e-08
5.52737270261e-06
5.13356556967e-06
1.27510647789e-06
1.51826658607e-06
5.88045957013e-08
5.88249321413e-08
1.67314073252e-06
6.51094203404e-07
9.400103125e-07
3.77306426774e-08
2.90787452004e-07
2.96701220755e-07
4.24235009219e-06
6.35506072232e-06
1.20894767043e-06
9.78332181553e-07
9.33551305307e-07
6.59485064845e-07
2.13619996755e-07
8.87792512728e-08
7.98549818775e-08
5.60838025914e-08
3.49849533719e-06
3.99930381224e-06
2.1454142508e-06
2.09781714511e-06
4.92227443593e-06
3.03982668764e-06
5.87109887223e-07
1.6292099492e-07
9.64213980888e-08
9.45832603461e-08
6.80811083119e-07
1.8867135276e-06
5.75436652933e-06
5.81687417652e-06
6.23681030203e-06
2.17410435244e-06
3.20801508905e-06
1.83820860985e-07
1.03354929419e-06
1.030683392e-06
2.99055558015e-06
1.31976427136e-07
4.55314118767e-08
1.1183351561e-06
2.10258338148e-06
2.2850596316e-06
5.59620041002e-08
1.59658412293e-07
5.63746621474e-07
1.29216468221e-06
5.68346899858e-07
2.2941728853e-07
7.14563459665e-07
1.19776845877e-06
6.65860219069e-06
6.08747299512e-06
2.70798648846e-06
1.66107392532e-06
3.22883315163e-08
8.66011563495e-08
5.02378317967e-07
5.54495001486e-07
5.28508020273e-07
6.97192416904e-08
3.49046378042e-07
6.20051268746e-07
1.61473929045e-06
2.06591464254e-06
5.34481294324e-06
4.43329571155e-06
1.77822178461e-06
4.50854217842e-07
4.69144310247e-07
7.86253270589e-06
4.15673057539e-07
1.81853136857e-06
8.65224119374e-08
1.61300447323e-07
8.54513367358e-06
9.29531310648e-07
1.08200064837e-05
5.33462712359e-07
9.45365132533e-07
1.40295705862e-06
8.27088265663e-06
9.15652853403e-08
5.89308606176e-07
5.58203835891e-07
2.96459379939e-06
3.5470996709e-06
2.12490354018e-07
2.6467663829e-07
6.09710108152e-06
1.50303694553e-07
1.11694482412e-05
2.85224909621e-07
2.44554975231e-07
1.07621973937e-05
1.85792004706e-06
1.37042148364e-06
4.8001215808e-08
3.379854331e-08
1.48474441114e-07
7.64509305976e-06
1.22622190039e-06
1.17256588827e-06
1.53667837971e-07
8.77707196948e-08
1.69874087467e-07
8.82533746581e-06
7.5289955309e-06
5.6400919369e-08
1.46659871e-07
5.26662595471e-07
1.15433292483e-06
4.17540131826e-07
1.66485861929e-06
8.49435168792e-06
7.49557119207e-07
2.91717883145e-08
5.19442069842e-07
4.71840695953e-06
4.14356853168e-06
1.09015476589e-07
5.05452654366e-07
1.27434473744e-06
7.78338693814e-06
5.35966549164e-06
1.42532728159e-06
1.5369165003e-06
5.11213784921e-08
4.55477422557e-08
2.28595850933e-08
9.8530210256e-08
1.90759049259e-08
4.9183615044e-11
3.57984449717e-06
7.74317885347e-09
1.01945212327e-07
7.31732140279e-08
4.32412669743e-08
2.8167448029e-06
4.2718471183e-06
2.38804553832e-09
3.71584248629e-08
1.08228871379e-08
5.68563575862e-08
1.41198357695e-07
1.37526054328e-07
2.88627883241e-06
9.69759318645e-08
7.08030962695e-06
5.63325299081e-06
2.20316434163e-07
2.67914609872e-07
5.7554069666e-06
8.48563234902e-06
4.52674096172e-07
8.5136762099e-06
5.57076164487e-07
4.58886611217e-06
8.51075990213e-06
9.55678852188e-06
9.29924132607e-06
2.14105500949e-05
2.19852603893e-05
4.02121225225e-06
8.86700699029e-06
1.24588008535e-05
9.58255139555e-06
2.02962469396e-05
2.57697641562e-05
7.5829154265e-07
1.10908140593e-06
7.61998106835e-08
1.13435563808e-07
1.33938769122e-07
1.56003276613e-07
1.59907838273e-05
1.62608949094e-05
6.89790172766e-06
8.03803020432e-07
7.34681572253e-06
8.03715477988e-06
1.4404347252e-05
1.34931175195e-05
5.68245048568e-06
6.45855347639e-07
7.17147664714e-06
6.10222866671e-06
1.38194624805e-05
1.44673597566e-05
6.64790119592e-06
1.13783111475e-06
6.91549631947e-06
7.0849123746e-06
1.415036115e-05
1.47464486923e-05
7.21672708836e-06
1.23172449052e-06
6.87373876455e-06
6.9525878368e-06
1.66137408389e-05
1.67488034547e-05
8.25082200193e-06
1.36283277576e-06
8.0032124854e-06
8.35677456182e-06
6.91378977754e-06
8.37776129825e-06
7.77419775377e-06
7.97039991149e-06
5.57042942022e-06
5.51863885165e-06
4.5505863687e-07
6.31577122667e-07
1.17633542176e-05
1.41393656828e-06
2.05121654065e-05
2.78451753847e-06
7.68882285031e-06
3.00288316794e-05
4.20428150144e-06
1.5523282658e-06
8.06025401313e-07
2.06282691514e-07
3.02685375958e-06
4.33286873778e-07
8.89741598024e-07
1.93313425309e-06
6.7037782313e-07
1.94060111392e-07
1.42205102575e-08
2.5142946521e-06
2.37135363647e-06
9.56891404464e-07
1.29985591282e-06
6.26612015635e-07
1.74239105606e-08
7.08052585488e-09
5.43264937852e-07
2.15671986141e-06
3.70933443223e-06
2.8438622353e-06
7.12181503457e-07
3.11767379191e-09
1.39735437493e-06
2.66432741627e-06
9.63151787121e-07
3.36149660622e-06
7.66689909157e-07
7.66389685914e-07

