# vtk DataFile Version 3.0
File Name: Molecule/sphere_excent/sphere_excent_0-s44.vtk
ASCII
DATASET UNSTRUCTURED_GRID
FIELD FieldData 1
TIME 1 1 double
0.0
POINTS 686 double
0.46990138292 0.70174282789 0.53545773029
0.43107044697 0.55197292566 0.71366012096
0.62619030476 0.44124498963 0.64232158661
0.095403485 0.94882917404 -0.30064702034
0.26320073009 0.94873231649 -0.1749150604
0.35230436921 0.88155734539 -0.31418758631
0.26809760928 0.90370672941 0.33337706327
0.23547321558 0.76956689358 0.59354072809
0.68458718061 -0.6184835434 -0.38550460339
0.57296329737 -0.64949756861 -0.49983736873
0.67748254538 -0.50403863192 -0.53567910194
0.67691332102 0.61114370823 0.41008582711
-0.52482098341 0.81155472994 -0.25652757287
-0.67928022146 0.72091984749 -0.13712568581
-0.55726963282 0.82923537493 -0.039250638336
0.44038447738 0.88429796696 -0.15545171499
0.55001032352 0.78626269102 -0.28128403425
-0.90960752964 0.15116421878 0.3866198957
-0.86832547188 0.38765564561 0.30939662457
-0.95418822765 0.28142702579 0.10071955621
0.50634801388 0.3365124166 0.79383528233
-0.027513379231 0.37661319971 0.92594897747
0.17591302097 0.37521100044 0.91002124548
0.033519651741 0.5413621664 0.84014731646
0.2172781527 0.58773481846 0.77933377028
0.34860557318 0.4161452353 0.8398463726
0.3920544982 0.19196070731 0.89961498976
0.62639248371 0.16298152506 0.76215165854
0.20338627696 0.15886086226 0.96608573198
0.30641406775 -0.013546978123 0.95178025961
0.10394214839 0.021568128839 0.99433684349
0.52161550522 -0.062299955636 0.85066813231
0.38755482435 -0.4596439302 -0.79906409979
0.52711677551 -0.53315931559 -0.66168284416
0.36570262909 -0.59442907572 -0.71618098021
0.86505144835 0.094143599272 -0.49276256561
0.78644275665 0.16230925918 -0.59595906734
0.84469980001 0.2460051626 -0.47532272339
0.80803495646 0.016695663333 -0.58888626099
0.72483569384 0.05126369372 -0.68700748682
0.72636592388 -0.092434823513 -0.68104505539
0.68762087822 0.16161482036 -0.70786136389
0.88492554426 -0.067590102553 -0.46076133847
0.6219099164 0.087203450501 -0.77823358774
0.64856570959 -0.024358088151 -0.76076209545
0.52954131365 -0.021863250062 -0.8480052352
0.6073346734 -0.14063569903 -0.7818890214
0.16075192392 -0.7450851202 -0.64730829
0.00092673621839 -0.79341250658 -0.60863316059
0.080150462687 -0.68454426527 -0.72455602884
-0.038583889604 -0.69427913427 -0.71863776445
-0.12065120041 -0.74648064375 -0.6543674469
0.12047536671 -0.58705121279 -0.8005413413
-0.00036710564746 -0.60646188259 -0.79511427879
-0.11831877381 -0.87635195255 -0.46683862805
-0.27847036719 -0.91174226999 -0.3019682169
-0.27182656527 -0.834679842 -0.47897771001
-0.077285371721 -0.93583917618 -0.34373435378
-0.10573107004 -0.61751568317 -0.77939736843
-0.10180959851 -0.53741937876 -0.83711159229
0.29728665948 -0.7022548914 -0.64687913656
0.21508072317 -0.64730632305 -0.7312514782
0.030660504475 -0.88583230972 -0.46303191781
-0.81471252441 0.19987484813 -0.5443354249
-0.77572464943 0.35454824567 -0.52207273245
-0.70900207758 0.29993376136 -0.63824439049
-0.67923176289 0.43392702937 -0.59191000462
-0.40895330906 0.15581466258 -0.89912897348
-0.5007494092 0.11009591073 -0.85850352049
-0.49635362625 0.1942628473 -0.84610521793
0.52887576818 -0.37053823471 0.76320642233
0.69156134129 -0.25488197803 0.67450857162
0.91768079996 0.13030922413 0.37512239814
0.88492363691 -0.013073677197 0.46542063355
0.95775079727 0.038228232414 0.284042418
0.36593073606 -0.41079425812 0.83385431767
0.38979995251 -0.21585763991 0.89518207312
0.50811564922 -0.59632980824 0.62046074867
0.25027263165 -0.18738557398 0.94986027479
0.10746473819 -0.23127181828 -0.96690374613
0.10280382633 -0.37554126978 -0.9210716486
0.0016581304371 -0.3005323112 -0.95369750261
-0.01724822633 -0.39598214626 -0.91805881262
-0.10819365084 -0.44412219524 -0.88940578699
-0.091977849603 -0.34568452835 -0.93376326561
0.018492661417 -0.4994341433 -0.86616021395
-0.18765638769 -0.37645575404 -0.9072111845
-0.21716019511 -0.44746309519 -0.8674697876
-0.20672386885 -0.51073300838 -0.83438575268
-0.20332801342 -0.57129377127 -0.7948884964
0.92813038826 0.020776830614 -0.37172579765
0.83637565374 0.48354071379 0.25829932094
0.8861169219 0.45076167583 0.1063650772
0.80828940868 0.57734894753 0.11561846733
0.89110940695 0.34032028913 -0.30021008849
0.89765244722 0.37759065628 -0.22702287138
0.92916709185 0.28874760866 -0.23031970859
0.85341864824 0.42800217867 -0.29748308659
0.89023077488 0.27751037478 -0.36101210117
0.84670203924 0.35845464468 -0.39325338602
0.89425480366 0.16110982001 -0.41717407107
-0.33449542522 -0.3687326014 -0.86697006226
-0.26822027564 -0.30587738752 -0.91349166632
-0.27566796541 -0.41314435005 -0.86776679754
-0.37860748172 -0.26089701056 -0.8880187273
-0.46963810921 0.62372016907 -0.62484186888
-0.35463672876 0.66398620605 -0.65830057859
-0.38522663713 0.5790169239 -0.71856242418
-0.26775354147 0.61537766457 -0.74136340618
-0.25272539258 0.70041429996 -0.66747820377
-0.48755279183 -0.31810408831 -0.81270682812
-0.58073550463 -0.22961008549 -0.78105658293
-0.47326982021 -0.16805611551 -0.86471420527
-0.59314876795 0.043613754213 -0.80386799574
-0.6968421936 -0.037040632218 -0.71621626616
-0.67385417223 0.096113219857 -0.73260700703
-0.76359009743 0.055478092283 -0.64328372478
-0.7941762805 -0.10241305828 -0.59898686409
-0.58146286011 0.14309504628 -0.80084782839
-0.16529861093 -0.1348131597 -0.97697460651
-0.11342146993 -0.04556266591 -0.99249392748
-0.044554106891 -0.11582021415 -0.99223875999
0.0072098802775 -0.010610291734 -0.99991714954
-0.26929339767 -0.20896080136 -0.94007587433
-0.35006913543 -0.15658529103 -0.92347252369
-0.17765125632 -0.22649712861 -0.95765942335
-0.25759571791 -0.13142383099 -0.95711457729
-0.19597263634 0.553142488 -0.80971431732
-0.30823242664 0.51636612415 -0.79897236824
-0.27895984054 0.40948393941 -0.86860752106
-0.36530807614 0.43118432164 -0.82501363754
-0.071181610227 0.55632543564 -0.82790851593
-0.14332896471 0.6206291914 -0.77086514235
-0.33011540771 0.081664197147 -0.94040006399
-0.24450132251 0.15872761607 -0.95654469728
-0.23181205988 0.067421510816 -0.97038185596
-0.43459370732 0.064884759486 -0.89829230309
-0.39435991645 -0.58932954073 0.70507025719
-0.30665823817 -0.4809731245 0.82133489847
-0.47862491012 -0.41761109233 0.7722620368
-0.59553515911 -0.46788567305 0.65284717083
-0.42592442036 -0.12093059719 0.89653462172
-0.24986246228 -0.15966837108 0.95499145985
-0.32707214355 -0.0085436468944 0.94492739439
0.0347911641 -0.12854982913 0.99108237028
0.16053237021 -0.10789660364 0.98111486435
0.11943798512 -0.25920683146 0.95839446783
-0.017645291984 -0.24280619621 0.9698985815
-0.0054035489447 -0.38479852676 0.92294245958
0.13730998337 -0.40420597792 0.90431284904
0.08419188112 -0.55926394463 0.82460618019
0.25388842821 -0.32543557882 0.91081750393
-0.13089449704 -0.29224482179 0.94730132818
-0.13414801657 -0.4840144515 0.86472010612
-0.25673177838 -0.34645935893 0.90224671364
-0.2076292336 -0.61256754398 0.76259219646
-0.22057919204 0.38661038876 0.89547288418
-0.15523894131 0.25666850805 0.95396405458
-0.49505972862 0.024401195347 0.86855131388
-0.47976213694 0.20165428519 0.85379481316
-0.35846701264 0.12977844477 0.9243426919
-0.62160497904 0.094413019717 0.77699577808
-0.31473883986 0.26378130913 0.91175150871
-0.42696708441 0.39190259576 0.81487768888
-0.22045364976 0.12276621163 0.9676450491
-0.069921210408 0.10555317998 0.99194729328
-0.17678156495 -0.018052570522 0.98407846689
-0.041797354817 -0.028844501823 0.99871486425
-0.10474524647 -0.14445888996 0.98394173384
-0.60533708334 0.29142287374 0.74064427614
-0.6232843399 -0.1206645295 0.77252048254
0.23536507785 -0.48566401005 0.84184902906
0.33992317319 -0.64251714945 0.68398880959
0.42305448651 0.070466890931 -0.90335315466
0.52589726448 0.1104061082 -0.84335815907
0.14518289268 -0.48799601197 -0.86069333553
0.25620546937 -0.53950297832 -0.8020504117
0.24466231465 -0.42488002777 -0.87154626846
0.5909448266 0.20326395333 -0.78068333864
0.44048041105 -0.66625058651 -0.6017152667
-0.13067984581 -0.68011552095 -0.72135043144
-0.14659702778 -0.81023693085 -0.56751477718
0.36588308215 0.49572992325 -0.78762727976
0.370511204 0.36936444044 -0.85220140219
0.29194736481 0.44207400084 -0.84812110662
0.26432475448 0.33180835843 -0.90555113554
-0.23751522601 -0.76094448566 -0.60378360748
-0.20911495388 -0.69491231441 -0.68798983097
-0.29863548279 -0.69113773108 -0.65813881159
-0.34945735335 -0.75230139494 -0.55852109194
-0.27060097456 -0.62163847685 -0.73497110605
-0.38742497563 -0.6733545661 -0.62964987755
-0.36076846719 -0.61116337776 -0.70445561409
-0.46506622434 -0.59303468466 -0.65729475021
-0.46513071656 -0.69341462851 -0.55026692152
-0.29179176688 -0.54817283154 -0.78368079662
-0.37868458033 -0.51916760206 -0.76615977287
-0.43986463547 -0.78040003777 -0.44237983227
-0.18781304359 -0.63541060686 -0.74894714355
-0.62064510584 0.57532286644 0.53268319368
-0.56316113472 0.47060528398 0.67924708128
-0.39352300763 0.63870167732 0.66118621826
-0.59722423553 0.56598925591 -0.56830686331
-0.51304769516 0.67021811008 -0.53583520651
-0.66174048185 0.61432534456 -0.42974120378
-0.71861988306 0.49971154332 -0.48369470239
-0.42719274759 0.2441560328 -0.87056797743
-0.50546038151 0.27184197307 -0.81888365746
-0.56934916973 0.22798204422 -0.78984451294
-0.59453731775 0.30849570036 -0.74251717329
0.79399871826 -0.11278665811 0.5972917676
0.85882687569 -0.29061150551 0.4181009233
0.77806347609 0.09282258153 0.62126284838
0.68999749422 -0.030779751018 0.72316288948
0.75155425072 0.28591260314 0.59399712086
-0.74988538027 0.2133589685 0.62448263168
-0.75198972225 0.38716995716 0.53339421749
-0.62965738773 0.38379234076 -0.67546510696
-0.64944255352 0.21051347256 -0.73070037365
-0.41552084684 0.49411898851 -0.76365971565
-0.49330663681 0.53896284103 -0.68270039558
-0.50497800112 0.46503186226 -0.72714352608
-0.58337557316 0.47207355499 -0.66089820862
-0.46249058843 0.42159709334 -0.77996587753
-0.42263519764 0.37380465865 -0.82562214136
[...]
CELL_DATA 1368
SCALARS cell_data_0 double
LOOKUP_TABLE default
5.61422272612e-06
4.10603617101e-06
8.41416890339e-06
7.93517206434e-08
9.4007350362e-06
5.56682296292e-06
5.04654505524e-08
5.82118492747e-07
8.06281528848e-05
1.12012454171e-05
7.90360745575e-06
9.54190956609e-06
1.15743064613e-05
7.28931139811e-06
9.60907359717e-06
1.75238449553e-05
1.11565083962e-05
9.43922556754e-06
2.12243624411e-05
1.40818577584e-05
2.00302564306e-05
1.30974321103e-07
1.3047352653e-07
1.46368879108e-07
6.80676411376e-08
5.6541161999e-08
1.71804483927e-07
1.16676518628e-08
6.07010367007e-08
3.17864465017e-08
1.80567059645e-06
2.57802056864e-07
6.97174036701e-08
1.47082710436e-07
1.30763937757e-07
1.9215535476e-06
7.34895440577e-06
7.60200457516e-06
5.99281079326e-06
5.38327882413e-06
1.76683243786e-06
2.08230915543e-08
5.56735573254e-06
6.50429187508e-06
3.59986111261e-05
6.11618894552e-05
1.25112822132e-06
4.38227121557e-06
6.8026048215e-06
2.37036995632e-05
1.59665096054e-05
3.78928519501e-06
2.87633881613e-05
1.00322088769e-05
1.99221086704e-05
2.65084991508e-05
1.04026648716e-07
1.24386199652e-05
2.73453589808e-05
1.28410725725e-05
1.50116968819e-05
1.19942711524e-05
1.26271313962e-05
1.04646718382e-05
7.77023313283e-06
8.17472264935e-06
5.14244413031e-06
3.02078924728e-05
8.45940067868e-06
5.15710408965e-06
2.42761908272e-06
4.6456779847e-08
2.80535519827e-07
6.50614533497e-08
4.48185299508e-06
1.17977840875e-05
5.28448270458e-09
1.71952273869e-08
8.78153237029e-07
1.75723322395e-05
1.04049349783e-05
1.06707788927e-06
1.54429879792e-05
1.78631149135e-06
4.34099190629e-08
2.32433911555e-06
1.83732569928e-08
4.58333167953e-08
4.65807640432e-08
1.41259521207e-05
1.13311840829e-05
1.33870026739e-06
1.44027162217e-06
1.88230513488e-06
1.12211755076e-06
7.31073674502e-06
4.59013261065e-06
1.46633025699e-05
1.22489431999e-05
5.10122897928e-06
4.94742925885e-06
5.99919722448e-06
5.56626470078e-06
9.73149288123e-06
1.043799416e-05
1.05660964485e-05
7.53598035462e-06
1.28285680194e-05
1.33115099039e-05
1.2700294972e-05
7.7025655184e-06
1.02448853023e-05
8.38300796013e-06
7.51308102944e-06
1.27298002568e-05
7.30999966161e-06
8.96740808112e-06
1.09782455943e-05
5.16002499114e-06
6.58999205318e-06
6.2720583505e-06
7.50677423834e-06
5.44723281226e-06
7.53040417766e-06
6.3821555282e-06
8.06365888482e-06
6.92205439603e-06
8.1578800927e-06
5.30040769446e-06
1.52017350009e-05
1.65336252232e-05
7.04865183459e-06
1.31769842422e-05
4.20653714186e-06
4.7642904017e-06
4.58601481537e-06
7.3000835826e-06
9.57929751586e-06
5.60774057328e-06
1.20879610487e-05
1.09871251729e-05
7.15539686979e-06
1.39437705386e-05
1.10099493462e-05
1.14676416724e-05
9.74799544252e-07
1.41677535351e-05
6.10226963808e-06
9.59578208779e-06
8.45349813685e-06
4.16951289671e-06
1.14427092088e-05
2.62199176388e-06
1.29590832409e-07
1.84198269021e-07
9.18952792227e-08
1.49243613898e-05
1.65160538857e-08
3.53325664411e-08
1.5544270092e-05
3.51677616437e-08
8.58249184185e-08
2.22621141573e-08
7.97440876455e-08
6.07145892199e-08
1.86867552331e-06
4.3852607358e-06
3.86402118677e-06
8.82499902519e-08
2.51985825506e-08
4.90457618422e-06
1.52508672611e-07
1.16487455725e-07
2.25879729851e-07
8.77121599271e-08
6.15256270256e-08
1.16480583621e-07
4.25390253144e-08
8.04990663974e-08
4.45111016832e-08
6.79870025957e-08
5.07743903589e-08
8.16258995766e-08
2.19803238709e-07
4.75777576527e-06
2.86962262167e-06
4.50203677373e-06
4.6353363005e-06
1.7793561524e-07
1.82397434236e-07
1.16887052021e-07
4.95330252152e-08
1.9662710136e-08
1.87158737388e-08
1.475470085e-06
7.57432421666e-06
3.47257964128e-06
3.18201647383e-06
1.00392084316e-05
1.01447467214e-05
1.0089398541e-08
1.34913574943e-05
4.55564955914e-08
3.59995784447e-08
4.79021556782e-08
6.57112223994e-06
1.94103985467e-08
1.50521898283e-05
1.07471476888e-06
3.91488894405e-06
5.16733255474e-06
4.88406004751e-06
4.93296727068e-06
1.26603394459e-05
1.16404046351e-05
6.57613692205e-06
1.80059741435e-05
1.27765464017e-05
6.87393528291e-06
6.03737463458e-06
5.75967018625e-06
4.60771419439e-06
6.9182692e-06
1.07231087212e-06
2.54286405979e-05
9.08031753762e-06
1.07129001784e-05
8.38204213822e-06
6.74315859385e-08
4.51172198168e-08
1.16252473963e-05
5.68263670266e-08
1.0716210024e-07
1.06452099681e-05
1.45671703971e-05
7.90155676321e-06
1.03039236096e-07
1.61628036014e-06
2.76011613476e-08
1.49743879846e-06
5.76576970924e-08
1.65151327819e-08
2.26506497344e-08
1.41027545557e-06
5.75940290856e-08
4.2804146065e-08
2.26653352177e-08
3.68492531139e-08
5.17963535578e-08
7.4174029768e-09
7.05156794386e-06
9.45804292068e-07
3.04030505129e-06
3.76120729262e-06
2.91312012371e-06
3.30614411343e-06
4.50300348331e-06
6.0623930618e-06
4.13489779616e-06
2.03717045529e-06
1.13203779788e-07
3.09635338578e-07
5.1321875557e-07
5.42817342485e-07
8.39462695087e-07
8.79967612377e-07
6.44904972934e-07
3.48407929139e-06
4.97303470179e-06
6.70807139647e-06
8.3447242636e-06
7.41406779783e-06
7.74699718367e-06
9.07096541531e-06
8.75241126194e-06
1.20341017335e-05
8.86781592864e-06
5.36809032863e-06
4.60302201666e-06
6.05674633494e-06
6.3312331371e-06
1.22026448893e-05
5.68652128928e-06
5.56312167607e-06
1.25566505551e-05
9.16399985233e-06
4.40560343661e-07
2.0983428545e-07
1.75522413826e-07
6.66466893034e-08
2.28847151636e-07
4.88607013251e-08
7.78891771896e-08
2.23655047557e-07
9.49727677864e-06
7.26743079351e-07
1.53768854215e-05
1.2751407086e-05
1.3697110936e-05
1.09065747135e-05
1.72290603965e-05
2.03481904114e-05
4.83800924525e-07
3.03622837761e-07
1.41495086143e-06
1.78809270455e-06
1.18676689786e-06
6.50074435953e-07
2.184483107e-06
6.19412639887e-07
1.0591706157e-06
4.45927761418e-06
5.66967572061e-07
3.79985541895e-06
3.80183161566e-06
6.27062911198e-07
5.51002724495e-07
5.15861506053e-07
9.80386318596e-07
5.05003285475e-06
3.70208139583e-07
6.77596057977e-07
1.54825091778e-06
5.44346923371e-06
9.36953599094e-07
1.88516952333e-06
2.99303621581e-07
2.32349310476e-07
6.72519892437e-06
2.30295427783e-08
3.80198628634e-06
9.05966217915e-07
6.77530086048e-07
6.00045237517e-07
4.87102892306e-07
5.9353022798e-07
3.68527418053e-07
5.07928756253e-07
7.27313545555e-07
8.97410366935e-07
8.26035456108e-07
3.86940086026e-07
1.67105515561e-05
1.91693956263e-05
7.22357759654e-07
5.24904895818e-07
1.81779967781e-07
6.50800926339e-07
4.47148922739e-07
5.90059334824e-07
1.23304050201e-06
1.16705718363e-06
1.19892729973e-06
8.11849877081e-07
1.18741691088e-06
1.31348990974e-06
8.17978050976e-07
8.0967831695e-07
7.90545074871e-07
4.93730364838e-07
7.35546353592e-08
4.19453332324e-07
4.43635473268e-07
2.74970516523e-07
8.38089872904e-07
8.49187679634e-07
9.31164266302e-07
1.64936338546e-07
6.92636473355e-09
4.0687476715e-08
1.11524958378e-07
7.23316591587e-08
2.67771143506e-07
4.06612984529e-08
1.68700969295e-07
5.70082998757e-07
2.64256600311e-06
9.06097327967e-06
1.17591101661e-05
1.09048939582e-05
1.08708193957e-05
6.39709209287e-07
2.80370819674e-06
1.85010537994e-08
3.59078738209e-07
2.96010057102e-07
7.82754208934e-07
3.8556307994e-07
4.29947684057e-07
1.93691588802e-07
1.03497523251e-07
1.24889016675e-07
1.40644532772e-07
1.46803981726e-07
1.38936908118e-07
1.63550211752e-07
2.56113238103e-06
7.10256385494e-08
3.7595495573e-06
7.8700005206e-07
3.65296198867e-07
3.57843893254e-07
5.81195071914e-07
5.53175357166e-07
5.94797743483e-07
3.58025032535e-07
5.65409893441e-06
8.17706031858e-07
3.46806347117e-06
2.53655028962e-06
1.76536902031e-06
2.90539337549e-06
1.71864361746e-06
2.12320508532e-06
1.95164630625e-06
2.71386263546e-06
1.16441051492e-06
8.38213137999e-07
1.55775612523e-06
3.52996082879e-06
3.39844564074e-06
4.15088614223e-07
2.01536417518e-05
1.73806843612e-05
1.45397332516e-05
1.5590658866e-05
1.57968186371e-07
7.42338915148e-08
4.67174076128e-07
9.99802747574e-07
3.20147280876e-07
1.15318905077e-06
2.33784517226e-07
3.97938147146e-07
1.65416831822e-07
5.1467582299e-07
1.48159611192e-06
1.64599695217e-06
2.10371975543e-07
3.37570897694e-07
3.79886375789e-07
3.57173853003e-07
9.14523259228e-07
8.41807774191e-07
9.54736102593e-07
1.90205178772e-07
1.93878838277e-06
2.50248485493e-06
1.63706834567e-06
3.8416498651e-06
5.26571943759e-06
3.07252568193e-06
1.62960058813e-05
5.06410453255e-06
4.10021730083e-06
6.42243881394e-06
5.73893163226e-06
7.93158453367e-07
8.08839644971e-07
2.18111035973e-07
1.58247352548e-06
3.06362721832e-07
2.45028450194e-07
5.73725282046e-06
3.08316768943e-07
3.23114702414e-07
2.65735921709e-06
5.5886447951e-07
6.06280265779e-07
2.53398871163e-06
1.95480673874e-08
1.53595773768e-08
3.56226101311e-08
2.91273361644e-07
3.01642383458e-05
1.35420578311e-05
4.11058624234e-09
3.12518907004e-07
1.01158005571e-05
2.62484294925e-06
2.26202366972e-05
4.87397182931e-07
4.92017196628e-07
6.98128432677e-07
5.11559590267e-07
5.70710125806e-08
3.04129016469e-07
9.77323608125e-06
1.72746640646e-05
4.22213095245e-05
4.6893972722e-05
4.55547516619e-05
3.56059404514e-05
1.22758110121e-05
2.24491782649e-05
2.02667382145e-05
1.00496458311e-05
8.60318178848e-06
2.46248866974e-05
2.33580503356e-06
1.97504821168e-05
8.96154195899e-05
3.93829576182e-06
3.72873523359e-06
1.32242479642e-07
1.75576440604e-05
1.7712901047e-05
2.60826683218e-05
1.46079831735e-05
2.21260091224e-05
8.19481706563e-07
1.44667056005e-06
2.75180997713e-06
1.25397569203e-06
1.98183025122e-06
2.20553652616e-06
5.79538698333e-06
4.34990554276e-07
2.57292831074e-05
9.29995357964e-06
1.33761933541e-05
4.23623392889e-06
2.19833221299e-06
9.87942460499e-08
7.75436428187e-08
8.37134284207e-08
8.47188225633e-08
1.18666776349e-07
6.2046228084e-08
3.40141888462e-08
4.17966177362e-08
5.11264758564e-06
5.28482817468e-07
2.48927186544e-07
5.4870228831e-07
7.70429676977e-06
1.24835926423e-05
6.87770625074e-06
6.2160800088e-06
6.29055190796e-06
9.15189030761e-06
1.09774560244e-06
2.71232176517e-07
1.08052290073e-06
3.46041490291e-07
5.86275338716e-07
2.09401486289e-07
3.92594647814e-07
5.18963823731e-07
2.21235273136e-07
4.73461551837e-08
1.29518107104e-07
1.71599181976e-07
5.80388254233e-08
1.31601400019e-07
3.53137352808e-07
4.53755057364e-07
5.03078555815e-07
3.51688219121e-07
2.28693369761e-07
6.61131026844e-08
2.90100593574e-07
6.2755263945e-08
6.4953814804e-06
7.24056707019e-06
1.11381013411e-05
9.17828322349e-06
2.25061917232e-07
7.79505274351e-08
1.64554134615e-08
6.35310986891e-08
1.45837527554e-07
1.06447120139e-07
6.31779945341e-07
1.15316442686e-06
2.62689437062e-08
2.40228742147e-07
3.02688477608e-08
1.06856397364e-08
4.87786816271e-07
4.31977386815e-07
1.89426756414e-06
1.58265387891e-06
1.12487152267e-06
1.38834738632e-06
1.69869573506e-06
1.14296035695e-07
4.14213282967e-06
4.97975830509e-06
1.63617208897e-06
6.84203673138e-06
3.65510022075e-06
1.38679955524e-06
3.49482878791e-06
5.17715035947e-06
2.75140369837e-06
1.05906418085e-06
1.19752789652e-05
2.2474410335e-06
2.1847909626e-07
8.00292907868e-07
4.81873563884e-07
6.91154593344e-07
3.0480596451e-06
2.74080680518e-06
1.01661415498e-06
4.55389959388e-07
6.39679041243e-07
8.90959426352e-07
2.21065317875e-07
6.42589900568e-07
1.61474500034e-06
5.18376381744e-07
2.38322618313e-06
2.35109548814e-06
2.61854970139e-06
2.21463339938e-06
5.24465614525e-06
3.89095205917e-06
2.97061614094e-06
1.86536366431e-07
2.10261792521e-07
9.61707473758e-08
6.62432146161e-07
7.52894042044e-07
9.85662628288e-08
8.23590915444e-07
2.97096551719e-07
3.45418635007e-07
3.63038346611e-06
1.47169680525e-06
1.11742584222e-06
1.05928666026e-06
1.38472160437e-05
1.80479763573e-06
2.46765716714e-06
1.16975144786e-05
6.86307799881e-08
1.9334382709e-06
1.28277791801e-06
6.86959400438e-07
2.75635520328e-06
1.85737954667e-06
2.29307812569e-06
3.75309199644e-06
1.99254396088e-05
2.25482417861e-05
2.55621070602e-05
1.39454279694e-05
2.60219208772e-05
1.1738155788e-05
2.81524885219e-05
1.42031111811e-06
1.0146347977e-06
1.2850987458e-05
1.18277600499e-05
1.16804213261e-05
1.32894577435e-05
6.81946872961e-07
2.51808538944e-06
2.19074102515e-06
1.72397606823e-06
2.39545919993e-06
3.87548132871e-07
7.81196535049e-07
1.1301107508e-05
4.08333342035e-06
3.23138320945e-06
4.52869855936e-06
4.16037954836e-06
1.28973324525e-05
1.35526051974e-05
5.60349299803e-06
6.24854768322e-06
1.9323177154e-07
1.02530457639e-07
9.8605459416e-06
8.88085888041e-07
1.04008217013e-08
7.69195918852e-09
6.32598366475e-07
8.73088154287e-09
1.23012466084e-06
5.73230346442e-07
2.44813134248e-09
1.27109316708e-08
3.27087578897e-09
1.49603508663e-09
1.44121025852e-08
1.1073821891e-08
1.723819082e-06
1.84088932338e-06
2.63218492472e-06
1.34127508741e-08
5.85725885215e-09
2.3921948296e-06
9.74967499418e-06
1.01308672532e-05
7.45844916047e-06
5.16092075169e-06
6.47037736819e-06
5.17461539167e-06
2.72351372066e-06
3.59568757192e-06
6.25299087256e-06
3.80531601729e-06
1.77946859829e-06
1.94813591442e-06
2.21923761503e-06
2.78369269783e-06
8.85256484054e-06
1.11248415597e-05
5.84740767172e-06
5.93240937337e-06
3.27951269604e-07
6.06440145044e-07
1.45557741818e-06
1.36718867347e-07
5.65044022292e-07
1.20941929167e-06
4.49796070142e-07
7.68650973092e-08
2.46691480633e-07
1.56580510227e-06
8.18613873899e-07
3.93696676426e-07
3.42716065689e-08
2.39122322336e-06
1.75646355853e-06
9.78914300484e-07
3.51435028928e-06
5.3759730891e-06
2.23010108448e-09
1.69270353966e-06
2.24725969699e-07
5.56506227177e-07
1.23798097571e-06
9.45777918352e-07
2.74687650186e-07
1.37633714912e-06
6.39150658284e-07
2.29284027551e-07
1.18070013764e-06
2.85713162084e-07
3.66776986736e-07
1.03896155685e-06
8.16145543897e-07
1.81986389281e-06
6.97699881142e-07
2.40371999858e-06
4.75215400938e-07
6.33321093266e-07
8.84621485504e-07
1.9562807168e-06
1.06250957577e-05
3.72771748178e-09
8.95001542022e-07
2.49539284493e-08
7.75737977737e-07
6.34329831462e-09
4.24070644688e-07
2.50820793745e-08
1.15596108526e-06
1.5689745605e-06
8.10859928834e-07
3.21287602291e-09
8.29522371994e-07
1.25983352197e-06
8.52919279812e-07
8.35674926965e-07
1.2375634692e-06
7.63495534144e-09
8.64095784614e-07
3.62062331806e-09
7.97375230624e-10
1.00190983437e-09
6.81887558014e-07
1.2143791762e-06
1.04367421793e-06
1.88109872e-08
2.10274381883e-07
2.40757800357e-07
1.28312805699e-05
6.28954381805e-07
4.24061600213e-07
2.69657451501e-09
4.13000463973e-08
1.94609109907e-08
2.03907827908e-06
6.53257186976e-08
6.91033061717e-10
9.91946337773e-08
9.04486681102e-08
9.38119352862e-07
9.01481930564e-07
2.79888582825e-07
2.33443589832e-07
5.55217415925e-07
4.14112604578e-09
5.13981136587e-09
6.14767370611e-07
1.15146555115e-07
1.33547487575e-07
2.5427711626e-06
1.27232543725e-09
5.67097844129e-07
3.95549226634e-06
3.64927148463e-05
5.52582449626e-06
8.34303814806e-06
6.18174695271e-06
3.45170678449e-06
1.92174604972e-06
8.4296156849e-07
2.10902157115e-08
3.0147801332e-09
1.08038617883e-06
1.05078365382e-06
1.15266063668e-06
1.63120975916e-09
2.37492252983e-08
7.92093365485e-07
2.68860331159e-08
1.84218537777e-06
1.18169087634e-06
5.4361725359e-08
6.73919678971e-08
1.35063912719e-06
2.75737318028e-08
1.77801250327e-09
4.0183466417e-08
2.80110727909e-08
8.86768257868e-08
1.86951015784e-08
5.35213778074e-07
5.48816735117e-07
1.09190309797e-08
3.74732405026e-09
2.19494364685e-08
4.42661770134e-08
5.38601936784e-07
6.93907032139e-07
1.52529109828e-08
8.95366369882e-08
1.1810067367e-06
2.71174745942e-08
3.97084892197e-06
4.76846795908e-06
4.88191131431e-06
7.3913753626e-06
2.36682550615e-08
6.50666097746e-08
4.15174529959e-07
3.46284950359e-07
1.0426379388e-06
8.34419631462e-07
3.40722458725e-07
2.40078202191e-07
1.79474844948e-06
7.77806074316e-07
3.21720074985e-08
1.19182420891e-06
1.90096736951e-06
1.10961031634e-06
1.27977665114e-06
1.45982251706e-05
2.03974492633e-05
2.46862680726e-05
2.99959470929e-06
3.03549862947e-06
1.59497195008e-05
9.97801116187e-07
1.24205472539e-06
2.55712777356e-06
5.60394526509e-07
1.5638170702e-06
1.27505142547e-06
1.86758274289e-06
2.40196866961e-05
6.19415617995e-06
2.19195535991e-07
6.0782556241e-09
3.49438859782e-06
6.62267860702e-08
1.0882201396e-07
2.35652541792e-07
1.03236378426e-07
8.99556751266e-08
6.28113616592e-06
6.75936633063e-09
6.7601898525e-08
1.68458533688e-07
6.30198106909e-08
2.41867358533e-08
9.21316312283e-06
1.06316440018e-05
1.64989080018e-07
8.10062464343e-08
4.7475729975e-08
7.18866917742e-08
3.74644110262e-08
3.55787771524e-08
2.16935679421e-08
2.97117403024e-08
1.00349656756e-07
2.38202909978e-08
6.85864028715e-08
1.6922997531e-08
2.23006171998e-08
1.31106936222e-08
1.23852500628e-05
8.07144175311e-06
6.30544789167e-07
3.34200826837e-08
9.11291159459e-07
3.44105606036e-08
1.15661548059e-06
1.37947768984e-06
1.1209495721e-07
3.93243870123e-08
1.97701337171e-08
3.71028301825e-08
6.68644777454e-09
1.76241219091e-09
1.52580989239e-08
1.17425661335e-08
2.96546088864e-07
1.67701436987e-07
9.27822138185e-07
5.31575129145e-07
1.88778849744e-06
7.85003269022e-07
4.9045071992e-07
1.24341532529e-06
1.64589439827e-06
1.80970064546e-05
1.0766442809e-06
7.44010825915e-08
1.00705036712e-06
1.04056318186e-05
3.78219051415e-07
3.58609854403e-07
9.6027579706e-09
2.45741703315e-06
2.05626064711e-06
2.09446139164e-07
2.29507000343e-06
2.07226016331e-06
1.44317710358e-06
1.85268459691e-06
8.27338426471e-07
7.89301390753e-07
2.90739984703e-08
2.76183388809e-08
2.02527824066e-08
6.65382211256e-07
8.32042747536e-07
6.40609742656e-07
1.20005413559e-06
8.47318495006e-07
1.29251982474e-06
1.40993089325e-07
1.32845381269e-07
1.63621726842e-07
1.17335353525e-07
9.60447820807e-08
3.5429648705e-07
3.72211896304e-08
2.76611466166e-07
1.4543462219e-07
3.94432095112e-07
1.59249103969e-07
5.94630070882e-07
4.14841699447e-07
5.36735001549e-07
4.32312902102e-08
3.78228975691e-07
1.03582890511e-07
1.53859464495e-07
1.12833633261e-07
8.52975833587e-08
4.85126649891e-08
1.10561942748e-07
1.90112589777e-07
3.22973961991e-07
1.27168353237e-07
2.19296196605e-07
1.33063486708e-07
4.26254922032e-07
4.76270651116e-07
1.99833841039e-07
9.20589339838e-08
2.6812178847e-07
3.38774175542e-08
2.54030575494e-07
1.13343176308e-07
7.55986526877e-08
4.07401689121e-07
7.77704550508e-07
4.18428682834e-07
3.8134938534e-07
3.37684052581e-07
3.90185297892e-07
4.25991331539e-07
2.93276516085e-07
2.15653119914e-07
3.31774192513e-08
1.31153185225e-07
1.09967907914e-07
3.58027609313e-07
2.5130475256e-07
2.47570826227e-08
3.34127310227e-07
4.47337875469e-09
2.4342176656e-07
5.30429273698e-08
8.71580312328e-08
5.49067095379e-07
5.10295003587e-07
6.39301582581e-07
3.52430377505e-07
9.53008501622e-08
2.43165348445e-07
6.78941880385e-08
8.34313739308e-08
3.82996215694e-08
1.90496218666e-08
1.52850202972e-07
1.67603896137e-07
9.88494783752e-08
1.23770017432e-07
9.36343658306e-08
1.0641312972e-07
7.95737178672e-08
2.45920950255e-07
1.99374804188e-07
2.38410506435e-07
9.58782054399e-08
9.22708880281e-08
2.636433421e-07
2.12476818315e-07
5.81056097345e-06
3.438578856e-06
1.16879298363e-07
1.37086718568e-07
2.25942502425e-07
1.73958480701e-07
7.56675716159e-08
8.38406329099e-08
9.55301162132e-08
5.83244772582e-08
4.3384258304e-08
7.65785734103e-08
9.98412282329e-11
1.6808225729e-08
3.35063332425e-08
8.18277401523e-09
7.64592243923e-09
9.67858591593e-09
1.35729274169e-08
1.27654540688e-08
2.57843929937e-08
5.05894006019e-08
3.72717087507e-08
3.57720120637e-08
6.7906528271e-08
7.13733306665e-08
1.15831778487e-07
1.05078400163e-07
9.65836353475e-08
1.69411698868e-06
3.02385952155e-08
2.49665088007e-08
1.18061821962e-08
3.7027547952e-08
3.05002104342e-08
1.43066026252e-08
1.03390490526e-08
4.05622424183e-08
3.20123233851e-06
3.24039866619e-06
1.58250825757e-06
1.73752090512e-06
1.98072529486e-06
1.85336799806e-06
1.43602146725e-06
2.92353343252e-06
4.59683181252e-06
2.72483572943e-06
1.46469527736e-07
2.56185296322e-06
2.28597793022e-06
9.17774268674e-08
2.01716610582e-07
3.41554857468e-07
1.03604763566e-08
1.39550483419e-08
6.84629033381e-08
1.03612576054e-07
8.72104390263e-08
7.59594013357e-08
1.98947037761e-06
2.31975948621e-06
3.39380797588e-06
7.7396343071e-07
1.36490342314e-07
4.489793604e-07
1.86569196621e-06
1.67375943873e-06
2.6094354068e-06
4.54795712647e-07
5.68842191177e-06
1.21419874751e-06
8.20149664038e-06