# vtk DataFile Version 3.0
File Name: Molecule/sphere_excent/sphere_excent_0-s6.vtk
ASCII
DATASET UNSTRUCTURED_GRID
FIELD FieldData 1
TIME 1 1 double
0.0
POINTS 59 double
-0.00019004807109 0.85142928362 0.52441906929
-0.5181171298 0.77431201935 0.36239790916
-0.30774486065 0.49797847867 0.81073474884
-0.80967730284 0.30618327856 0.50060379505
-0.8496543169 0.52722048759 9.102547665e-06
-0.52568948269 -0.00013755497639 0.85067665577
0.3081510663 0.4986307323 0.8101682663
1.7594762539e-05 -0.00017540395493 0.99989837408
0.52570420504 -6.7731154559e-05 0.85066765547
-0.30898061395 -0.49995678663 0.8089236021
0.30898556113 -0.49995201826 0.80892568827
5.7882789406e-07 -0.85065114498 0.52573055029
0.80857086182 -0.30926945806 0.50045013428
0.49997842312 -0.80892658234 0.30895885825
0.85091811419 -0.52523422241 -0.00041506573325
0.29741150141 -0.51662224531 -0.80167108774
-6.9872162385e-06 -0.85065209866 -0.52573013306
-0.30878609419 -0.49985283613 -0.80913472176
-0.018290106207 0.0094973631203 -0.9981893301
-0.52571386099 -0.00015235244064 -0.85065972805
0.99860268831 0.0011124787852 0.031097643077
0.8091468811 0.30739462376 0.50084072351
0.85023462772 0.52637344599 -0.00079838495003
0.51622998714 0.77991276979 0.35333278775
-0.80890411139 -0.30904811621 -0.49995738268
-0.80969828367 0.30619335175 -0.50056558847
-0.99989771843 6.836783723e-05 3.4219219742e-06
-0.85065150261 -0.52573001385 -6.3291281549e-08
0.00021941101295 0.85118126869 -0.52485591173
-0.3092110157 0.497859478 -0.81031531096
-0.51774245501 0.77467894554 -0.3619697392
-0.49994122982 -0.80893313885 -0.30899044871
-0.49994459748 -0.8089299798 0.30898267031
4.6376935643e-06 -0.99989557266 -6.8284607551e-06
-0.80888879299 -0.30909180641 0.49995195866
0.49973201752 -0.80915004015 -0.3090429008
0.80208992958 -0.33306634426 -0.49252745509
0.27346125245 0.48628386855 -0.82929241657
0.0082833040506 0.99981528521 -9.4351053121e-05
-0.26802152395 0.94909596443 0.16561412811
-0.26794332266 0.94916164875 -0.16543152928
-0.5288001895 0.84868967533 4.8942940339e-05
0.50350868702 0.80319875479 -0.31781938672
0.52684479952 0.84994733334 0.0040242699906
0.27332001925 0.94861185551 -0.15972471237
0.27526396513 0.94724017382 0.16427874565
0.81500184536 0.29891583323 -0.4960539937
0.68838560581 0.5812920928 -0.43394419551
0.5861210227 0.42581123114 -0.68929064274
0.42660701275 0.68019038439 -0.59608459473
0.53460031748 0.013853155077 -0.8418931365
0.95131003857 -0.16227443516 -0.26212441921
0.85383468866 -0.0087676951662 -0.52056455612
0.95381820202 0.15335807204 -0.25853562355
0.43465140462 -0.25770387053 -0.86282587051
0.27488747239 0.00020215827681 -0.961327672
0.15954294801 -0.26445421576 -0.95097374916
0.68718028069 -0.17381666601 -0.70548897982
0.58134436607 -0.43372824788 -0.68821144104

CELLS 114 456
3 0 1 2
3 1 3 2
3 1 4 3
3 2 3 5
3 0 2 6
3 2 7 6
3 2 5 7
3 6 7 8
3 5 9 7
3 9 10 7
3 9 11 10
3 7 10 8
3 8 10 12
3 10 13 12
3 10 11 13
3 12 13 14
3 15 16 17
3 18 17 19
3 14 20 12
3 20 21 12
3 20 22 21
3 12 21 8
3 22 23 21
3 23 6 21
3 23 0 6
3 21 6 8
3 19 24 25
3 24 26 25
3 24 27 26
3 25 26 4
3 28 29 30
3 29 25 30
3 29 19 25
3 30 25 4
3 27 31 32
3 31 33 32
3 31 16 33
3 32 33 11
3 27 32 34
3 32 9 34
3 32 11 9
3 34 9 5
3 5 3 34
3 3 26 34
3 3 4 26
3 34 26 27
3 19 17 24
3 17 31 24
3 17 16 31
3 24 31 27
3 16 35 33
3 35 13 33
3 35 14 13
3 33 13 11
3 36 14 35
3 15 35 16
3 18 29 37
3 18 19 29
3 37 29 28
3 38 39 0
3 0 39 1
3 38 40 39
3 40 41 39
3 40 30 41
3 39 41 1
3 30 40 28
3 28 40 38
3 1 41 4
3 41 30 4
3 42 43 22
3 22 43 23
3 42 44 43
3 44 45 43
3 44 38 45
3 43 45 23
3 38 44 28
3 28 44 42
3 23 45 0
3 45 38 0
3 46 47 22
3 22 47 42
3 46 48 47
3 48 49 47
3 48 37 49
3 47 49 42
3 37 48 50
3 50 48 46
3 42 49 28
3 49 37 28
3 36 51 14
3 14 51 20
3 36 52 51
3 52 53 51
3 52 46 53
3 51 53 20
3 46 52 50
3 20 53 22
3 53 46 22
3 50 54 55
3 54 56 55
3 54 15 56
3 55 56 18
3 18 56 17
3 17 56 15
3 50 57 54
3 57 58 54
3 57 36 58
3 54 58 15
3 15 58 35
3 35 58 36
3 50 55 37
3 55 18 37
3 36 57 52
3 52 57 50

CELL_TYPES 114
5
5
5
5
5
5
5
5
5
5
5
5
5
5
5
5
5
5
5
5
5
5
5
5
5
5
5
5
5
5
5
5
5
5
5
5
5
5
5
5
5
5
5
5
5
5
5
5
5
5
5
5
5
5
5
5
5
5
5
5
5
5
5
5
5
5
5
5
5
5
5
5
5
5
5
5
5
5
5
5
5
5
5
5
5
5
5
5
5
5
5
5
5
5
5
5
5
5
5
5
5
5
5
5
5
5
5
5
5
5
5
5
5
5

CELL_DATA 114
SCALARS cell_data_0 double
LOOKUP_TABLE default
4.0917608077e-05
4.85689511827e-05
2.82905318878e-05
6.11555589101e-05
7.26364735374e-05
0.000179019714627
0.000205608150817
0.000123289875783
0.000195301984267
0.000121515598981
7.18288488352e-05
0.000112569226565
6.76770973234e-05
5.04676170857e-05
4.24533082042e-05
1.01869392006e-05
2.61445228054e-05
0.000119380934457
9.01126278976e-06
1.6969216533e-05
9.92250710345e-05
5.11031674322e-05
5.04104931257e-05
4.65401839498e-05
4.07238441819e-05
7.2746613094e-05
0.000175619751389
3.10478371969e-05
9.11452433793e-05
0.000125968185051
0.000110228133061
3.3675092162e-05
0.000161945292551
0.000143346798552
6.3674437152e-05
7.95507786103e-06
2.16608139119e-05
4.15322502985e-06
4.0499094611e-05
4.84565942063e-05
4.2332750963e-05
7.82798925063e-05
3.24368356983e-05
2.8514134535e-05
5.39525957965e-05
4.82099339775e-05
0.000128645057268
5.59846665299e-06
2.26184039635e-05
8.97292322461e-05
3.19529779574e-05
6.3862092166e-06
6.82290533025e-06
8.96924222532e-06
5.00851075156e-05
2.59131462467e-05
5.73498302531e-06
0.000112869898299
0.000103462206037
7.81443007013e-06
1.19905291832e-05
2.52650124959e-06
1.52155829182e-06
1.91024547701e-06
5.17618368427e-06
6.9083712299e-05
4.55601842346e-05
2.9733538814e-05
5.47947479035e-05
5.12861098329e-05
4.20234345082e-05
6.03416014961e-07
1.66513614099e-06
3.03708564223e-06
4.20109193404e-06
3.85315769115e-05
4.37130513499e-05
1.14489827862e-05
7.69880543746e-06
5.65507422954e-05
4.43161833536e-05
1.16142767846e-06
4.25421132187e-07
3.31402955342e-07
1.00021596013e-06
0.000284390366853
0.000276475853838
4.53444957592e-05
5.57879615281e-05
2.4575787653e-05
1.31954447546e-05
7.19873562476e-06
4.33535780139e-08
1.46586634392e-06
2.09020778894e-06
0.000269313581943
6.16512479896e-05
5.77860346196e-05
0.000138633687278
2.15829285668e-08
6.15871553604e-08
8.13652623331e-07
3.5296260178e-06
1.51313334079e-06
0.000132882331786
2.65910206546e-08
5.81774419368e-06
7.98376213602e-08
1.52138960147e-06
1.5678281225e-05
0.000262659648399
2.0143250587e-06
6.29179563827e-06
0.000145477208614

