# vtk DataFile Version 3.0
File Name: Molecule/sphere_excent/sphere_excent_0-s47.vtk
ASCII
DATASET UNSTRUCTURED_GRID
FIELD FieldData 1
TIME 1 1 double
0.0
POINTS 771 double
0.46689343452 0.69965088367 0.54081648588
0.42605754733 0.55649083853 0.71323168278
0.61558687687 0.45664647222 0.64209425449
0.10077258199 0.94955170155 -0.29675838351
0.26389548182 0.94810974598 -0.1773237437
0.35314443707 0.88171285391 -0.31281149387
0.26924404502 0.89942800999 0.34406194091
0.23616921902 0.76753950119 0.59590256214
0.67321240902 0.60926163197 0.41911685467
-0.53728330135 0.80912178755 -0.23761674762
-0.68200874329 0.71886354685 -0.1343459487
-0.56110799313 0.8262513876 -0.049090057611
0.43766346574 0.88615059853 -0.1524655968
0.54579937458 0.7900056839 -0.2790338695
0.51007562876 0.34330490232 0.78826445341
-0.029093675315 0.38062238693 0.92426085472
0.17815671861 0.37826132774 0.90831685066
0.033651676029 0.5451759696 0.83766466379
0.21745359898 0.58920389414 0.7781663537
0.35051879287 0.42045390606 0.8368858695
0.39125341177 0.20168177783 0.8973711729
0.21012103558 0.15968202055 0.96451210976
0.31315356493 -0.014772697352 0.9495357275
0.10642379522 0.021908715367 0.99405294657
0.38873550296 -0.46094846725 -0.79773432016
0.52030169964 -0.52381879091 -0.67337238789
0.36733147502 -0.59495294094 -0.71490257978
0.86431878805 0.088192470372 -0.49515452981
0.78785502911 0.17303091288 -0.59049594402
0.84298533201 0.24399459362 -0.47937268019
0.88308817148 -0.069516688585 -0.46403104067
0.81479495764 0.0077620507218 -0.57855641842
-0.26060250401 -0.87878513336 -0.39962080121
-0.14251025021 -0.87697297335 -0.45867350698
-0.17618663609 -0.9284235239 -0.32619598508
0.29929825664 -0.7022588253 -0.64593946934
0.16655470431 -0.74420243502 -0.64680296183
0.2197111398 -0.64642632008 -0.73063164949
-0.41410687566 0.15615689754 -0.89671760798
-0.50760549307 0.10912276059 -0.85461819172
-0.50096273422 0.19413381815 -0.84341675043
0.52866506577 -0.0801114887 0.84420925379
0.53473782539 -0.35796141624 0.76529592276
0.68375909328 -0.23674565554 0.68977159262
0.91577649117 0.13839797676 0.37701246142
0.88670986891 0.019843585789 0.46148231626
0.95298802853 0.03464756161 0.30079221725
0.37626254559 -0.43343171477 0.81842380762
0.39665204287 -0.22368076444 0.89028328657
0.5106844306 -0.57910525799 0.63532781601
0.74221140146 0.27924630046 0.60847181082
0.25438150764 -0.18983250856 0.94827526808
0.11267355084 -0.234813869 -0.96545994282
0.10945586115 -0.37566149235 -0.92015707493
0.0099382176995 -0.2995723784 -0.95397758484
-0.18741698563 -0.37771329284 -0.90675455332
-0.12635265291 -0.44646757841 -0.88579750061
-0.2133525461 -0.4447093606 -0.86989039183
-0.19974277914 -0.51073229313 -0.83617943525
-0.12133412808 -0.61577355862 -0.77849900723
-0.19821204245 -0.5794750452 -0.79050505161
-0.095919758081 -0.54107922316 -0.83545851707
0.030928950757 -0.5176923871 -0.85487234592
0.0071721104905 -0.58955055475 -0.80768823624
0.12342534214 -0.58732104301 -0.7998906374
0.92723470926 0.0082166921347 -0.37447756529
0.83618551493 0.48503726721 0.25594183803
0.88040363789 0.45973861217 0.11585941911
0.80469745398 0.58183944225 0.11810569465
0.88877934217 0.34201395512 -0.30513754487
0.89656442404 0.37716433406 -0.23216286302
0.92680293322 0.29740104079 -0.22931604087
0.85107183456 0.42988908291 -0.30143207312
0.88595026731 0.28423702717 -0.3664304316
0.84372502565 0.36222884059 -0.39617878199
0.88999462128 0.16043245792 -0.42672175169
-0.33588802814 -0.35736012459 -0.87142592669
-0.26382791996 -0.30934256315 -0.91362130642
-0.275626719 -0.40558877587 -0.8714671731
-0.38095581532 -0.26364439726 -0.88618844748
-0.007989355363 -0.38159933686 -0.92417776585
-0.4650990963 0.6248292923 -0.62714278698
-0.35650452971 0.66454422474 -0.656722188
-0.38569834828 0.58083516359 -0.71684241295
-0.27020469308 0.61548012495 -0.74038493633
-0.25733727217 0.69926470518 -0.66693252325
-0.49329459667 -0.30804184079 -0.81344664097
-0.58472895622 -0.23078510165 -0.77773076296
-0.47221255302 -0.17268754542 -0.86439704895
-0.59741950035 0.041681308299 -0.80080640316
-0.70057857037 -0.03968705982 -0.71244072914
-0.67816835642 0.094025075436 -0.72887563705
-0.76620984077 0.053238440305 -0.64035010338
-0.7938119173 -0.10235658288 -0.59947049618
-0.58719110489 0.14173826575 -0.79691833258
-0.15697002411 -0.1298828274 -0.97901749611
-0.11343260109 -0.043749183416 -0.99257540703
-0.043054923415 -0.11265613884 -0.99269205332
0.0089588752016 -0.013307578862 -0.99987733364
-0.2811396122 -0.21754735708 -0.9346216917
-0.35333460569 -0.16366577148 -0.92104095221
-0.18419139087 -0.22010435164 -0.95792287588
-0.25105160475 -0.14288717508 -0.95733261108
-0.19977663457 0.55330389738 -0.80867129564
-0.31016534567 0.51874166727 -0.79668515921
-0.28136876225 0.41084080935 -0.8671901226
-0.36698815227 0.43332752585 -0.82314020395
-0.071876488626 0.55754494667 -0.82702445984
-0.14703311026 0.61934196949 -0.77122718096
-0.33320364356 0.079600915313 -0.93948853016
-0.24725726247 0.15745331347 -0.95605301857
-0.23505336046 0.068144723773 -0.96956843138
-0.43753373623 0.06551681459 -0.89682585001
-0.39650711417 -0.59007406235 0.70324444771
-0.30862358212 -0.48401010036 0.81881511211
-0.47868999839 -0.42189255357 0.76991760731
-0.59135454893 -0.47123029828 0.65432494879
-0.43212920427 -0.12175873667 0.89348417521
-0.25167119503 -0.16333778203 0.95389896631
-0.32800105214 -0.011073961854 0.94459933043
0.036763183773 -0.12966774404 0.99086564779
0.16408962011 -0.10868365318 0.98042541742
0.12259292603 -0.2615454793 0.95736163855
-0.015965146944 -0.24548333883 0.96925622225
-0.003193219658 -0.38832134008 0.92148727179
0.13931125402 -0.40677899122 0.90285164118
0.08365894109 -0.55781859159 0.82566148043
0.25920471549 -0.33179834485 0.90702301264
-0.1307669878 -0.29617527127 0.94609826803
-0.13316367567 -0.48758271337 0.8628667593
-0.25874102116 -0.35003954172 0.9002905488
-0.21163873374 -0.61501204967 0.75955510139
-0.22390858829 0.3890516758 0.89358502626
-0.15915131569 0.25769391656 0.95304328203
-0.4905179739 0.026576494798 0.87106621265
-0.4821344316 0.20713602006 0.85118681192
-0.36868342757 0.12574665248 0.92097765207
-0.60592383146 0.098868981004 0.78935676813
-0.32031339407 0.26262527704 0.9101587534
-0.42895445228 0.39540195465 0.81214731932
-0.22895012796 0.1225938648 0.96570831537
-0.07413303107 0.10684575886 0.99150931835
-0.17819680274 -0.018716320395 0.98380947113
-0.042308576405 -0.029681827873 0.99866700172
-0.10491658002 -0.14679525793 0.98357743025
-0.6123470664 0.29162585735 0.73467487097
-0.62372982502 -0.11452265084 0.77317398787
0.23724037409 -0.48710036278 0.84049057961
0.31947925687 -0.63765084743 0.70058363676
0.42292135954 0.068322315812 -0.90357661247
0.52562189102 0.10725449771 -0.84394055605
0.51949006319 -0.029972907156 -0.85371237993
0.14242881536 -0.48735436797 -0.86147767305
0.25728979707 -0.53961956501 -0.80162864923
0.24619795382 -0.42585477233 -0.8706496954
0.61895358562 0.096258834004 -0.7790132761
0.59135723114 0.20293736458 -0.78046417236
0.68994265795 0.15857076645 -0.70627117157
-0.12138654292 -0.74872350693 -0.651673913
-0.13112901151 -0.68245571852 -0.71906220913
-0.050584230572 -0.69851136208 -0.71368896961
0.026038829237 -0.4447696805 -0.89494025707
0.10482157767 -0.68269467354 -0.72299182415
-0.013530135155 -0.79619854689 -0.60474401712
-0.15029992163 -0.81216049194 -0.56375819445
0.36766773462 0.49415901303 -0.78778815269
0.37237787247 0.36663770676 -0.8525660634
0.29521453381 0.44022801518 -0.84795546532
0.26799181104 0.33033335209 -0.90501505136
-0.23935386539 -0.76264327765 -0.60090869665
-0.21022823453 -0.69817608595 -0.68435621262
-0.30144077539 -0.69275504351 -0.65513944626
-0.35227441788 -0.7526833415 -0.55621892214
-0.2665245831 -0.62923747301 -0.73004698753
-0.39320456982 -0.67306411266 -0.62638640404
-0.3586319983 -0.61241835356 -0.70451694727
-0.47162026167 -0.59365314245 -0.65207082033
-0.47436180711 -0.69160288572 -0.54467511177
-0.2887173295 -0.55696564913 -0.77872371674
-0.38070634007 -0.5208542347 -0.76403695345
-0.2567191422 -0.82810300589 -0.49799448252
-0.18677939475 -0.64072549343 -0.74468749762
-0.61832100153 0.57763206959 0.53286337852
-0.56504821777 0.4711176753 0.67731815577
-0.39304080606 0.64042979479 0.65981149673
-0.59801757336 0.56900197268 -0.56443786621
-0.51331430674 0.66337424517 -0.54443246126
-0.66925698519 0.60995221138 -0.42437666655
-0.72146290541 0.49767786264 -0.4814953804
-0.43127423525 0.24373285472 -0.8686722517
-0.50844150782 0.27209594846 -0.81695264578
-0.57269716263 0.22716516256 -0.78766167164
-0.59675842524 0.30762925744 -0.74110174179
0.77958995104 0.086887873709 0.62019085884
0.68863332272 -0.029821362346 0.7244656086
0.77745932341 -0.11779113114 0.6173710227
0.63560223579 0.16621798277 0.75301069021
-0.90137553215 0.12128081918 0.4151314497
-0.77185076475 0.22800315917 0.59252184629
-0.87755489349 0.28577259183 0.38400906324
-0.744807899 0.40067625046 0.53343659639
-0.63085454702 0.38400712609 -0.6742104888
-0.69355499744 0.28811711073 -0.66013383865
-0.65118008852 0.20807239413 -0.72985357046
-0.41651928425 0.49645140767 -0.76160335541
-0.49448251724 0.54063820839 -0.68053734303
-0.50574451685 0.46687489748 -0.72542798519
-0.58282625675 0.47430318594 -0.65979200602
-0.6639200449 0.45607170463 -0.59238314629
-0.46268841624 0.42324128747 -0.77895665169
-0.42356699705 0.37472036481 -0.82473057508
-0.50541871786 0.35095342994 -0.78826606274
-0.55585515499 0.39824253321 -0.72968173027
-0.44605711102 0.31209403276 -0.83883565664
-0.35422348976 0.33093181252 -0.87464904785
-0.17726705968 0.76519745588 0.61886996031
-0.32718423009 0.82998967171 0.45089870691
0.015994718298 0.86826878786 0.49440178275
-0.92819410563 -0.36201408505 -0.085359334946
-0.88931500912 -0.44454932213 0.10676521063
-0.96493929625 -0.23020903766 0.12602649629
0.70570904016 0.34770554304 -0.61731058359
0.63913965225 0.42562994361 -0.6405672431
0.71066528559 0.42580288649 -0.56002211571
0.14147314429 0.39018827677 -0.90979641676
[...]
CELL_DATA 1538
SCALARS cell_data_0 double
LOOKUP_TABLE default
3.07102043041e-05
3.46836803614e-05
2.09460251874e-05
3.89306880051e-06
1.56398525877e-05
1.88714953628e-05
1.66470018194e-05
2.37841814889e-06
1.15097091947e-05
1.12219079016e-05
2.03617411807e-06
1.07396687735e-05
1.90154517231e-05
2.83571764668e-05
8.83792995622e-06
3.07327604246e-05
2.8358024905e-08
1.47277398812e-05
8.01365401034e-06
8.66580027489e-06
7.49646279621e-06
8.82945465613e-08
1.58268684808e-05
1.57698345879e-06
1.33006634123e-05
1.18105598852e-05
1.70977103152e-05
7.21698997458e-06
2.05376233388e-05
2.58673974474e-05
1.18965322175e-05
6.61702573336e-06
1.66199123091e-07
1.33801547355e-05
2.43871783601e-05
7.786665394e-06
2.53969337341e-07
1.05192757871e-06
1.30394853056e-07
1.44701961434e-07
8.30135641174e-08
2.47911188907e-06
2.70067991611e-07
8.75846565477e-08
8.15669521716e-06
1.52809171011e-05
1.3142283734e-06
6.17954130879e-08
1.81145877473e-06
3.88817832111e-06
4.94073700294e-06
6.42936138939e-07
8.68238493121e-07
1.03644414749e-07
1.22742931064e-07
9.60396427519e-08
1.15996005715e-07
8.55047437317e-08
3.54930443122e-08
6.11697401271e-06
4.73178961668e-06
2.87961166644e-06
3.05368656514e-06
1.39672735519e-08
3.58950650441e-08
5.86950581433e-06
5.45233836009e-06
1.52065266668e-05
4.91297750709e-06
4.92868167075e-06
4.43387186856e-06
4.64449154855e-06
4.92100718671e-06
4.86937695025e-06
4.9763985509e-06
4.99099516794e-06
4.17946809e-06
1.34975403234e-05
1.33201933923e-05
1.52819439245e-05
9.67120376112e-06
1.14479360595e-05
5.95891678564e-06
1.40431538453e-05
1.2984291922e-05
1.17088025916e-05
1.09219061213e-05
1.01676682225e-05
9.27366074244e-06
1.04503728831e-05
1.142465948e-05
1.24741939375e-05
1.00860382434e-05
1.73550902141e-05
1.9785047795e-05
1.81682097109e-05
1.37855808726e-05
1.94277421451e-05
1.79885275293e-05
1.46644908624e-05
2.29134889828e-05
1.7513505762e-05
5.79116714318e-06
4.99769948834e-06
1.44488435279e-05
4.54673535164e-06
4.48093406396e-06
6.18798878848e-06
1.65252229105e-05
6.67353071938e-06
5.71364420541e-06
9.4346426765e-06
1.3936225882e-05
1.14482126898e-05
5.1416542963e-06
6.4015650072e-06
5.61315646186e-06
6.28329635765e-06
4.08095402106e-06
3.78764345808e-06
4.54612834065e-06
4.41888130526e-06
2.19834462564e-06
1.92901044828e-08
3.45692389901e-08
1.16730376421e-05
1.40574640591e-07
5.9128640172e-06
5.88792914367e-06
7.76094934129e-08
7.22416524759e-09
8.40905711228e-06
1.08470777121e-08
4.00359761917e-06
9.91514193525e-06
2.56388047847e-08
4.870974094e-06
4.67696062552e-06
5.24115672794e-06
2.2291253622e-08
6.13796007572e-08
5.96455537719e-08
3.89997406086e-08
5.62843824849e-08
2.23404608621e-08
6.03492255898e-08
3.72566327735e-08
7.19496278805e-10
1.20580159645e-08
3.36730849593e-08
1.3222528286e-07
6.80575262502e-08
6.61141406119e-06
6.99711068566e-08
9.22309023726e-08
4.89838121097e-08
3.20630982928e-08
3.13779031579e-09
6.64766986264e-09
1.70542090957e-06
1.72667004129e-06
1.88154332091e-08
1.85984263231e-07
3.76550973199e-06
3.41832397695e-06
1.59721543474e-06
1.84203902212e-05
8.60080183413e-06
9.81882275421e-08
1.25905341223e-07
3.06839548811e-06
9.76739509407e-08
3.88032140776e-06
5.07142317548e-06
3.72778041129e-06
7.29889669294e-06
7.92191628577e-06
9.0867810716e-06
1.1696829759e-05
5.49604815558e-06
6.45663059053e-06
7.742738952e-06
4.7148612027e-06
3.09734509979e-06
7.18838429813e-08
1.06536033335e-05
1.36610341718e-05
3.02990530785e-06
1.65864309424e-07
1.01448849738e-07
1.09303874586e-05
1.03585919727e-07
1.97460896684e-07
1.3812633827e-05
1.4203442937e-05
2.96900336935e-06
1.93629822142e-07
8.43674997832e-08
7.91679188853e-08
6.89632532628e-08
1.46828533783e-07
1.21161470785e-07
7.20595648851e-08
1.55475961904e-07
2.37091594343e-07
1.70457478961e-07
1.41735977587e-07
9.75794731756e-08
1.42352620762e-07
7.94935612349e-08
1.0695706582e-05
1.55460678545e-07
1.10030935251e-07
6.01721539956e-08
9.22795751212e-07
3.27728824569e-05
1.25601706635e-05
3.79241109408e-05
1.61019081225e-06
2.6749379443e-07
5.88296069002e-06
1.40756594225e-07
6.95290734243e-08
2.58606036967e-07
3.62039290027e-07
1.32095833001e-07
2.93470009284e-06
2.43597923184e-06
5.69601618864e-06
8.13166097061e-06
7.8031476884e-06
7.63509043495e-06
7.74993434055e-06
8.25894718612e-06
3.6139967047e-07
8.24433945525e-06
6.5959654696e-06
7.3769543235e-06
8.49344863035e-06
9.47212669371e-06
7.72270312079e-06
9.52255213229e-06
9.50542215381e-06
2.25735240479e-06
1.6331255709e-05
6.8050251051e-06
2.63124692321e-06
1.31217316471e-06
1.11843107455e-05
9.05012068284e-06
7.60090602437e-07
7.49968302564e-06
2.44066191177e-06
5.50526784317e-06
1.57072999906e-05
4.50488992962e-06
6.83038682968e-06
5.8640816927e-06
1.72588315095e-07
6.83742609315e-08
4.14968680743e-07
4.64337477294e-07
4.12070477036e-07
3.66478258116e-08
6.99952782811e-06
2.08129556126e-07
3.29238424432e-07
2.27116173773e-07
2.14379732886e-07
1.53005921236e-07
2.20481965261e-07
2.11728000361e-07
1.48580380151e-07
1.00379356782e-07
4.51664198997e-07
2.3157313136e-07
2.21871985897e-06
4.63647768142e-06
3.27396585394e-07
2.52853279956e-07
3.8361176687e-07
8.11305022059e-08
6.28510095488e-08
4.28650405682e-06
6.11873272629e-07
3.7320447333e-06
1.0363384751e-06
4.24557432153e-07
6.35659171693e-07
5.60518457041e-07
1.19952594101e-06
7.73430819039e-07
5.98770063074e-07
9.03853749713e-07
1.74052159424e-06
1.27908041385e-06
5.1508930156e-07
5.37985186134e-07
2.84869546964e-06
2.4396296975e-06
2.66418684047e-06
1.48290532512e-07
1.32153739323e-05
7.16393162877e-07
5.72342549042e-06
6.47359037601e-07
6.21300562677e-07
1.61429000195e-08
2.60855802994e-08
6.84149142424e-08
7.57942435665e-08
3.55196839815e-08
5.27389819711e-08
8.90575269336e-08
5.95873507092e-06
1.82033163809e-07
1.86010803429e-06
4.27716082077e-07
1.47443563192e-06
8.32634373016e-07
5.99634840153e-06
9.05044546642e-07
4.28986909451e-08
2.63254062073e-07
7.95949434586e-09
6.39655046827e-08
2.35906661045e-07
2.27835051983e-07
1.01395069017e-05
2.98067314403e-07
2.61449745973e-07
1.82272019694e-07
1.57271668594e-07
1.70290111588e-07
2.76909777068e-06
1.00246684621e-07
8.85092383325e-07
6.74170286779e-07
7.56776119764e-07
7.62340925605e-07
1.45233360212e-07
1.09555796537e-07
3.48742842274e-08
1.87293906457e-08
5.5218849227e-08
2.28888455675e-07
1.77241856176e-07
3.12042130845e-07
3.36583840997e-06
1.03648417655e-08
3.7973905434e-06
1.562102112e-06
3.77350108703e-07
3.42010549427e-07
8.85897585106e-07
5.23819759029e-07
7.05315117424e-07
5.89796125442e-07
2.95599395088e-05
4.48723398484e-06
8.5650778036e-07
2.42976038567e-06
1.72032541646e-06
2.7910206602e-06
1.77205474682e-06
1.87629210224e-06
1.76199932224e-06
2.63015003611e-06
1.0564199255e-06
9.75158064122e-07
1.06498397102e-06
3.62431593388e-06
2.94048162577e-06
6.18302549864e-07
5.15286868561e-07
4.52356172061e-07
3.86475889605e-07
1.40727538802e-05
1.37597248452e-05
2.5380840058e-06
3.34551204564e-06
2.09010728531e-08
1.19451900806e-08
3.20270720525e-07
1.67212063141e-07
4.37792822339e-07
7.58509022617e-07
9.6248448583e-08
7.85920756163e-07
6.08529316628e-07
9.79599057727e-07
6.53198869151e-07
1.04020980468e-06
1.20050132159e-06
1.05148217799e-06
4.12998366664e-07
5.25238641208e-07
2.21529098179e-06
2.74912173544e-06
1.63819747375e-06
1.69040256689e-06
2.2226242649e-05
3.36765108226e-06
2.52608421422e-07
1.29683744874e-06
2.48581873265e-06
3.93865441595e-07
4.54270745661e-07
5.10572230679e-07
8.12903467402e-07
7.4749133226e-08
1.67932810403e-07
3.03772990755e-07
2.45416234815e-07
1.38441714758e-05
3.71210330338e-07
1.0029273092e-06
3.19772481889e-08
3.20028313963e-07
2.09928375589e-07
2.78701838784e-07
6.83479215875e-06
5.8904192477e-06
4.34772307638e-06
1.66895392305e-05
3.48688816487e-05
8.26305699566e-06
8.95813243783e-06
3.04772963511e-05
8.25975842021e-08
1.26484253353e-05
1.19174394005e-07
4.68506272482e-06
1.48527926377e-05
6.66114452033e-06
1.65270866725e-05
9.97937774427e-06
1.47947093102e-06
8.63057381154e-07
1.44003388308e-06
6.10001497277e-07
9.09921627067e-07
1.15261055072e-07
1.6053756778e-08
2.42105191876e-08
3.7883900814e-06
3.5641516188e-06
1.09367759616e-06
1.36581919834e-06
1.84242657442e-06
1.51233160176e-06
2.09315689286e-06
2.00918179008e-06
2.00490542633e-06
3.35801439204e-06
1.19479918139e-06
6.92029703605e-07
6.53377854441e-07
2.69283865907e-06
1.76607961886e-06
3.99431380375e-08
1.54959387896e-06
5.51651948605e-06
6.70272534819e-06
7.76773154499e-07
2.49223600814e-06
1.40095300062e-05
3.70768153765e-05
2.56159418473e-07
1.22241625206e-05
5.83297194841e-07
5.84780201784e-06
8.460335173e-06
5.37021604987e-06
5.22073238706e-06
4.7632418337e-06
6.07246181253e-06
1.55297870718e-05
7.32547936866e-06
1.41190288659e-07
9.33637131785e-06
6.02453414727e-08
1.24633111951e-05
7.57885862634e-06
5.87582499914e-07
7.82859951642e-06
2.24773162479e-06
1.08334539566e-06
3.71955350372e-06
1.63916226382e-05
9.70309152783e-07
4.67460760445e-06
2.27742711297e-06
2.21147818522e-06
2.54508027312e-06
2.35573566185e-06
2.34876749478e-06
1.22818424107e-06
5.16817334255e-06
5.06193340244e-06
6.17752029145e-06
6.48194400486e-06
9.5512599874e-06
9.91514673772e-06
1.18192931855e-05
8.82942206398e-06
8.0499758891e-06
1.23508676791e-06
1.57045185251e-06
1.02322274303e-05
1.66919716957e-05
1.66801552404e-06
5.18318081256e-06
1.51981152169e-06
4.76786806617e-06
5.14543960124e-06
4.57484945821e-06
1.63270630955e-05
1.32567010836e-05
2.85181966959e-06
1.4647381145e-05
1.07695098352e-05
1.70128817777e-06
4.21429241767e-06
5.36707496834e-06
1.67941312612e-06
6.47557032455e-06
3.52674656476e-06
2.1049024894e-05
2.71519260804e-05
3.83183064819e-08
7.41644795868e-08
6.98434136123e-08
6.29918402637e-08
9.37922808972e-07
2.7610699816e-06
6.93191607521e-07
3.8220178745e-08
4.38456793639e-06
2.98759422265e-06
2.93643289749e-06
3.35400410669e-06
2.45266425856e-06
4.74512642609e-06
4.06972967187e-06
3.07679309381e-06
2.77867233052e-08
3.46361699887e-08
3.92138586235e-08
2.70550685003e-07
5.63424144931e-06
1.86416274844e-07
9.95964298589e-06
4.70066725758e-06
1.12885576394e-08
4.61655538746e-07
6.12056448568e-07
7.25498352234e-07
6.96808269609e-07
9.09588442382e-07
1.71635428585e-07
2.4086365029e-05
2.50754434579e-05
5.28371036435e-06
3.97807722237e-05
2.82703931753e-05
1.09588344569e-05
2.70655858428e-06
2.73061035779e-06
6.23091185596e-07
3.9482861967e-07
3.48017778103e-07
4.19169489374e-07
4.93038201312e-07
8.12883050923e-06
6.69405016271e-06
2.27969721792e-06
1.00554928425e-05
2.20310586395e-06
1.67719128041e-09
2.64997887392e-07
7.01783411378e-06
9.50375022233e-06
3.14715368581e-06
1.18668913322e-05
4.07035472841e-06
1.42477347887e-05
1.28856885523e-05
6.31411022199e-06
1.59828572995e-05
6.79889445932e-06
4.08655297743e-07
8.63950421543e-07
9.31963207591e-09
4.32966328378e-07
4.86268401821e-07
1.25611621557e-06
1.17115074274e-06
4.39987746156e-07
1.12802538825e-06
2.05759818558e-06
1.12259527195e-06
2.39022788369e-06
4.33829612964e-06
2.89106621247e-06
3.3956519893e-06
1.73040979465e-06
1.67470570597e-06
1.08191554211e-06
7.5920911226e-07
6.35292942787e-07
4.25435930912e-06
4.00627037827e-06
6.65929658695e-06
5.70921776495e-06
6.45052353179e-06
6.04167152474e-06
4.53106434591e-06
5.03573913784e-06
6.09448055077e-06
8.8488818035e-06
1.59211407939e-06
1.929355995e-06
1.83969781728e-06
2.72848201661e-06
8.49259579073e-06
1.13666740008e-05
1.39721338633e-05
1.04852698534e-05
5.94138636778e-09
4.85046856184e-08
6.3136684419e-07
3.10768668282e-08
5.18468890996e-07
1.15073043684e-06
3.81185247422e-07
9.71562331799e-08
3.18735441391e-07
3.26247357488e-06
3.82270286792e-06
7.61516849377e-07
1.81645912768e-07
2.38212210566e-06
1.46580309375e-06
1.23831737471e-05
5.45546802368e-06
6.51494397928e-06
4.01377722119e-06
1.07097823909e-05
1.62899812544e-05
9.99232730855e-08
5.64431997795e-07
3.73093004863e-07
1.3631457051e-05
8.49543327679e-07
4.49947577562e-07
8.72706889081e-07
2.54312806774e-06
3.70379393315e-07
1.07788208301e-06
1.15891265812e-06
2.17568111181e-06
2.56915994337e-06
3.58931598903e-06
4.87051713203e-06
2.38081094115e-07
3.01865999597e-08
5.92429233513e-07
2.31868073871e-06
9.05637832232e-08
1.56898800165e-08
2.02329086225e-08
2.97997516963e-08
1.50513985348e-08
5.249735932e-09
1.17776809475e-08
2.07776521557e-08
1.79792522453e-08
1.2184061536e-08
4.22056699875e-09
8.12807056116e-09
9.78191468437e-09
1.14514201942e-09
1.03357012615e-09
1.17412906082e-08
2.8171372808e-09
6.34430499558e-09
6.8263835188e-09
5.96659385032e-09
6.78916076116e-09
3.77769669557e-10
9.53670098802e-09
7.6069937192e-09
6.64370609108e-07
7.61099178459e-07
2.16818975448e-07
2.60279342694e-07
9.48168597698e-08
3.38998939016e-07
2.01189291073e-07
3.68742150133e-07
4.45245682124e-07
1.51346328488e-07
8.18832506456e-06
4.67114217322e-06
4.96588415967e-07
9.78675871676e-07
8.83859117833e-07
4.34548547651e-07
4.12438747487e-07
1.04280023449e-06
8.74793849022e-07
6.03407260637e-07
1.65251092443e-06
2.07892842595e-06
1.92343767077e-06
1.3693701388e-06
4.8677041418e-06
6.14455160888e-07
4.84401570541e-09
4.47134436979e-07
3.27281316426e-07
6.44184472929e-06
4.48548779455e-06
3.93503137331e-06
4.71926422508e-06
5.0406347823e-07
1.86472785218e-08
1.34705939516e-08
3.69217434689e-08
6.89354653235e-07
3.46527247772e-08
2.26683052267e-08
3.35152298285e-08
5.35465173529e-07
3.16146534625e-08
4.77379802401e-08
6.9973727874e-07
3.76445515069e-08
3.75365932783e-08
3.36966282117e-08
3.27106015049e-08
1.1887362338e-07
1.05095232527e-07
1.13892310172e-07
2.53464905683e-08
2.39878964478e-08
7.21737715452e-07
7.06952388343e-07
2.61302142875e-07
2.96202728735e-07
2.31771278203e-07
1.98103390282e-07
6.46274476953e-07
8.79070507337e-07
1.93561028125e-07
1.68543147851e-07
5.5175184074e-08
4.74052949794e-08
3.75260994379e-06
4.48880836676e-06
4.67008951461e-06
5.42083495248e-06
1.32423323831e-06
1.76377026807e-06
4.54391658109e-07
1.30730860307e-06
2.95854728547e-07
1.16177302886e-08
2.55594506875e-07
2.37949943557e-07
8.49933272235e-08
4.06035180379e-06
6.50033641305e-06
4.7178113977e-06
1.35933294796e-06
2.5827541599e-06
1.67785149443e-06
1.83054747426e-07
7.22525688389e-08
3.85702084882e-06
3.23039847013e-06
1.19584229929e-05
2.39824259416e-06
2.02916294238e-06
2.81862427302e-06
9.7487975272e-07
7.37340095276e-07
2.08740756608e-08
3.40218738527e-07
1.41035790453e-05
3.5750071515e-06
2.38586199875e-06
1.32206418931e-07
3.11846524867e-06
8.36809142678e-08
8.91313870151e-08
2.18630073421e-06
1.87279363819e-07
9.12477967625e-08
1.14192507331e-05
1.20731236183e-06
9.94719656994e-07
1.02338752879e-07
1.1185880845e-06
1.09343094078e-06
1.25916014703e-05
1.35335457491e-05
3.63391939325e-06
6.37738979147e-09
1.13421056586e-06
1.53420167448e-08
1.18835550942e-06
6.50267481489e-09
9.73159146901e-10
1.65522449092e-08
8.45272418618e-08
1.50938436221e-08
8.13721291126e-08
1.39007604525e-06
1.89857951089e-10
1.3567299819e-07
7.02763059918e-07
8.61261963667e-08
4.11284937754e-07
1.71693349388e-08
5.24978519863e-07
6.32657885169e-07
6.96448203978e-07
7.49408604664e-07
3.27593406495e-06
1.07419726738e-08
7.29756825369e-08
1.09201508066e-06
1.39190250845e-06
3.59085271486e-09
8.73144070422e-08
1.01074651394e-08
5.71305608961e-06
4.59316326934e-08
1.09443249232e-06
4.60322176729e-07
3.39243334035e-07
2.86734232431e-08
1.51066612786e-06
1.51049296753e-06
2.27690850664e-06
5.59832104193e-08
2.74328541116e-06
3.97443277733e-06
1.49561308499e-05
1.75016573599e-06
4.17007972024e-07
4.72167151063e-07
2.23780797977e-06
1.88785190769e-06
8.11523799469e-07
2.15633016819e-06
2.12164167138e-06
4.18412765813e-07
4.84935844781e-06
1.28734589744e-07
1.17406118869e-07
7.68250092213e-07
1.11554580482e-07
1.22032627001e-07
4.36288409328e-07
5.25329266678e-07
4.3170495018e-07
1.97880891805e-07
2.82401226363e-07
5.76629212457e-07
4.15052941956e-07
5.04434420019e-07
2.67437895467e-07
3.88454646473e-07
1.37926092195e-08
8.90399394893e-08
3.01298435658e-07
1.91252298782e-07
3.52037593593e-07
4.15403323163e-07
8.51833086208e-07
4.64659318657e-07
9.16938884327e-08
3.13250065967e-08
1.89282668341e-07
5.45470581067e-08
1.76277876437e-07
4.98912433728e-07
2.86682225294e-07
3.61791593778e-07
5.93742402967e-08
6.85900197823e-08
3.37112679757e-07
5.28659799565e-07
2.77481961647e-07
1.29984204515e-07
7.84908113973e-08
3.82785215517e-07
7.93613347052e-08
6.4336534951e-07
6.53889574285e-08
8.20599690758e-07
5.85526643291e-08
2.10836634566e-08
6.56211035014e-07
4.81504771764e-07
1.37225785551e-06
5.37319855397e-07
9.89708144577e-06
1.57790938117e-05
4.3020643665e-07
5.75270949449e-07
1.31050283538e-07
7.10372332241e-07
1.37693007338e-06
2.10133595581e-06
6.52419042269e-07
7.23724616326e-07
3.76741850202e-06
1.90699696173e-07
4.14162828345e-08
2.59618819523e-07
9.16290915429e-06
1.06590710722e-05
3.61177171037e-06
8.3275410907e-07
2.28108449964e-07
3.13450318879e-07
5.53309630594e-07
3.26530913373e-06
1.92539975685e-07
4.22783192839e-06
5.90858296834e-08
5.2726627555e-08
7.86932326344e-08
8.93181012862e-07
3.82759606634e-07
1.12245807724e-06
5.41120642539e-07
6.47368387032e-07
3.75163067024e-07
4.94428091839e-07
5.68602475786e-07
3.68823249471e-07
7.60988381839e-06
1.50519778853e-07
2.22290121659e-07
1.99416393911e-07
4.57260753547e-08
7.74720156413e-06
1.01373026741e-05
3.24780129091e-07
6.57691630919e-07
2.17333991241e-08
5.20951198576e-07
3.70661699986e-08
1.02027862996e-06
2.28047949967e-08
6.09339220433e-07
2.16610230091e-08
3.37977797599e-08
1.14757391917e-06
1.01092460119e-08
1.38439696754e-08
1.0663214968e-06
1.25514771851e-08
2.17183802684e-08
8.49422142246e-07
2.24539610755e-08
8.36653762821e-09
1.30510182398e-06
1.40476362325e-06
1.26737640026e-06
4.24199300211e-08
4.76580464802e-08
1.64649544641e-06
1.62337474793e-06
8.37264793315e-08
5.85120920284e-08
1.79773425785e-06
2.82072268074e-08
7.7730379324e-09
4.05096933649e-07
1.17094781767e-06
1.20159303849e-06
3.89953502912e-09
3.42059667238e-07
6.32406695758e-09
3.69032010297e-06
5.09956627027e-06
1.67177443156e-06
1.98212673921e-06
2.43240787868e-06
2.17986859983e-06
1.51147676264e-06
3.56573629132e-06
4.27346134326e-06
2.66142942064e-06
3.36755013978e-06
4.03942991132e-06
2.27335824237e-06
6.80382721303e-08
3.4122633281e-07
5.04927567887e-08
2.4610924223e-09
1.72424895677e-08
1.53563619704e-08
3.63963656302e-07
1.37601936236e-08
1.75403754334e-06
2.58334248423e-06
5.05446432336e-06
1.96920795553e-07
1.44354370836e-07
3.57173988262e-07
7.58878963584e-07
5.39534222078e-07
2.69717213581e-07
1.49435559383e-07
2.46945249446e-07
8.19686099827e-08
1.42106912101e-07
1.51764783163e-07
1.07095096669e-07
2.57172636668e-07
4.02075821275e-07
1.57093594546e-07
4.73260918682e-07
6.90691187659e-07
2.15132144682e-07
1.61057549883e-07
1.5143472336e-07
3.94351764758e-07
1.08776551093e-07
1.05166714006e-07
1.37019586128e-08
4.11116803615e-08
2.73922144266e-08
1.5955501929e-07
8.95433071485e-06
3.51689142961e-07
2.41956809992e-06
1.9574325105e-07
1.10982542718e-07
2.75501105289e-06
2.35378137971e-07
9.48203568954e-08
4.99529370789e-07
2.94052981881e-07
1.33118746839e-07
1.03532327472e-07
1.28052317713e-05
3.57829061289e-07
1.21990735442e-05
2.91521628282e-06
3.59379742793e-07
1.63200303541e-07
4.50628421533e-06
1.08957040743e-07
1.45829885547e-07
3.3487676003e-08
5.54123109029e-06
5.29086323916e-07
9.02646163287e-08
1.36976404974e-08
2.25980409736e-07
2.13910023349e-08
3.46132900423e-07
3.80845147099e-07
3.81469369579e-08
2.22922061007e-07
7.13207838478e-08
5.71013838852e-08
1.08918951866e-07
3.69754709893e-07
1.31443718474e-07
9.75150160278e-07
1.32371832436e-06
4.74247370519e-07
4.76178398528e-07
4.98469361622e-07
7.664588255e-07
5.2485655519e-07
7.47210821277e-07
9.32728481358e-07
1.02961203317e-06
8.04656431681e-07
6.19694580959e-07
1.26576060786e-06
3.01573636503e-07
3.47324966622e-07
8.89153717066e-07
3.44077353838e-06
1.38880054744e-06
1.07143078971e-06
3.87696050094e-08
4.70358188027e-07
1.27664100525e-07
1.31483487925e-06
2.69191069118e-06
2.18884225612e-08
3.32031225142e-07
3.28609547492e-07
1.07491400613e-06
4.38355523305e-07
1.1710020013e-06
1.0667806141e-06
2.33131601333e-07
2.72361103091e-07
1.45323591645e-07
6.17799665115e-07
1.6155741105e-06