# vtk DataFile Version 3.0
File Name: Molecule/sphere_cent/sphere_cent_0-s3.vtk
ASCII
DATASET UNSTRUCTURED_GRID
FIELD FieldData 1
TIME 1 1 double
0.0
POINTS 422 double
0.404508497188 0.654508497187 -0.559016994375
0.309016994375 0.5 -0.809016994375
0.154508497188 0.675325404176 -0.667374053247
0.25 0.904508497187 0.154508497188
0.0 1.0 0.0
0.0 0.925325404176 0.26286555606
-0.25 0.904508497187 0.154508497188
-0.675325404176 0.667374053247 0.154508497188
-0.675325404176 0.667374053247 -0.154508497188
-0.850650808352 0.525731112119 0.0
-0.154508497188 -0.25 -0.904508497187
-0.309016994375 -0.5 -0.809016994375
-0.417374053247 -0.25 -0.829833901363
-0.904508497187 -0.154508497188 -0.25
-0.925325404176 -0.26286555606 0.0
-1.0 0.0 0.0
-0.809016994375 0.309016994375 -0.5
-0.904508497187 0.154508497188 -0.25
-0.829833901363 0.417374053247 -0.25
-0.925325404176 0.26286555606 0.0
-0.829833901363 0.417374053247 0.25
-0.904508497187 0.154508497188 0.25
-0.559016994375 -0.404508497188 -0.654508497187
-0.404508497188 -0.654508497187 -0.559016994375
-0.525731112119 0.0 0.850650808352
-0.417374053247 -0.25 0.829833901363
-0.26286555606 0.0 0.925325404176
-0.154508497188 -0.25 0.904508497187
-0.309016994375 -0.5 0.809016994375
0.0 0.0 1.0
0.0 -0.5 0.809016994375
0.154508497188 -0.25 0.904508497187
0.309016994375 -0.5 0.809016994375
-0.154508497188 -0.675325404176 0.667374053247
0.154508497188 -0.675325404176 0.667374053247
0.0 -0.850650808352 0.525731112119
0.26286555606 0.0 0.925325404176
0.417374053247 -0.25 0.829833901363
0.525731112119 0.0 0.850650808352
0.667374053247 -0.154508497188 0.675325404176
0.559016994375 -0.404508497188 0.654508497187
0.809016994375 -0.309016994375 0.5
0.404508497188 -0.654508497187 0.559016994375
0.654508497187 -0.559016994375 0.404508497188
0.5 -0.809016994375 0.309016994375
0.25 -0.829833901363 0.417374053247
0.829833901363 -0.417374053247 0.25
0.675325404176 -0.667374053247 0.154508497188
0.850650808352 -0.525731112119 0.0
-0.5 -0.809016994375 0.309016994375
-0.25 -0.829833901363 0.417374053247
-0.404508497188 -0.654508497187 0.559016994375
-0.809016994375 -0.309016994375 0.5
-0.559016994375 -0.404508497188 0.654508497187
-0.667374053247 -0.154508497188 0.675325404176
0.809016994375 -0.309016994375 -0.5
0.856762745781 -0.231762745782 -0.375
0.829833901363 -0.417374053247 -0.25
0.87757965277 -0.340119804654 -0.125
0.904508497187 -0.154508497188 -0.25
0.925325404176 -0.26286555606 0.0
0.952254248593 -0.077254248594 -0.125
1.0 0.0 0.0
0.809016994375 -0.154508497188 -0.5
0.856762745781 -0.077254248594 -0.375
0.809016994375 0.0 -0.5
0.856762745781 0.077254248594 -0.375
0.904508497187 0.0 -0.25
0.904508497187 0.154508497188 -0.25
0.809016994375 0.154508497188 -0.5
0.856762745781 0.231762745782 -0.375
0.809016994375 0.309016994375 -0.5
0.952254248593 0.077254248594 -0.125
0.667374053247 0.154508497188 -0.675325404176
0.667374053247 0.0 -0.675325404176
0.525731112119 0.0 -0.850650808352
0.667374053247 -0.154508497188 -0.675325404176
0.925325404176 0.26286555606 0.0
0.87757965277 0.340119804654 -0.125
0.850650808352 0.525731112119 0.0
0.829833901363 0.417374053247 -0.25
0.731762745781 0.434016994375 -0.452254248594
0.75257965277 0.542374053247 -0.202254248594
0.654508497187 0.559016994375 -0.404508497188
0.675325404176 0.667374053247 -0.154508497188
0.577254248593 0.684016994375 -0.356762745782
0.5 0.809016994375 -0.309016994375
0.684016994375 0.356762745782 -0.577254248593
0.606762745781 0.481762745782 -0.529508497188
0.559016994375 0.404508497188 -0.654508497187
0.481762745782 0.529508497188 -0.606762745781
0.529508497188 0.606762745781 -0.481762745782
0.452254248594 0.731762745781 -0.434016994375
0.542374053247 0.202254248594 -0.75257965277
0.375 0.819425447869 -0.363195523811
0.327254248594 0.742171199275 -0.488195523811
0.25 0.829833901363 -0.417374053247
0.077254248594 0.762988106264 -0.596552582683
0.0 0.850650808352 -0.525731112119
0.5 0.809016994375 -0.154508497188
0.675325404176 0.667374053247 0.0
0.5 0.809016994375 0.0
0.675325404176 0.667374053247 0.154508497188
0.5 0.809016994375 0.154508497188
0.5 0.809016994375 0.309016994375
0.375 0.856762745781 -0.231762745782
0.375 0.856762745781 -0.077254248594
0.25 0.904508497187 -0.154508497188
0.25 0.904508497187 0.0
0.375 0.856762745781 0.077254248594
0.375 0.856762745781 0.231762745782
0.25 0.867171199275 -0.285941275218
0.125 0.877579652769 -0.340119804654
0.125 0.914916950682 -0.208687026624
0.0 0.925325404176 -0.26286555606
0.375 0.819425447869 0.363195523811
0.25 0.867171199275 0.285941275218
0.25 0.829833901363 0.417374053247
0.0 0.850650808352 0.525731112119
0.125 0.840242354857 0.471552582683
-0.25 0.829833901363 0.417374053247
-0.125 0.840242354857 0.471552582683
-0.25 0.867171199275 0.285941275218
-0.375 0.819425447869 0.363195523811
-0.375 0.856762745781 0.231762745782
-0.5 0.809016994375 0.309016994375
-0.25 0.904508497187 -0.154508497188
-0.25 0.904508497187 0.0
-0.375 0.856762745781 -0.077254248594
-0.375 0.856762745781 0.077254248594
-0.5 0.809016994375 0.0
-0.375 0.856762745781 -0.231762745782
-0.5 0.809016994375 -0.154508497188
-0.5 0.809016994375 -0.309016994375
-0.5 0.809016994375 0.154508497188
-0.125 0.914916950682 -0.208687026624
-0.125 0.877579652769 -0.340119804654
-0.25 0.867171199275 -0.285941275218
-0.25 0.829833901363 -0.417374053247
-0.375 0.819425447869 -0.363195523811
-0.587662702088 0.738195523811 0.231762745782
-0.587662702088 0.738195523811 0.077254248594
-0.077254248594 0.762988106264 0.596552582683
-0.202254248594 0.752579652769 0.542374053247
-0.154508497188 0.675325404176 0.667374053247
-0.327254248594 0.742171199275 0.488195523811
-0.279508497188 0.664916950682 0.613195523811
-0.404508497188 0.654508497187 0.559016994375
-0.452254248594 0.731762745781 0.434016994375
-0.231762745782 0.587662702088 0.738195523811
-0.356762745782 0.577254248593 0.684016994375
-0.309016994375 0.5 0.809016994375
-0.577254248593 0.684016994375 0.356762745782
-0.529508497188 0.606762745781 0.481762745782
-0.654508497187 0.559016994375 0.404508497188
-0.606762745781 0.481762745782 0.529508497188
-0.481762745782 0.529508497188 0.606762745781
-0.559016994375 0.404508497188 0.654508497187
-0.731762745781 0.434016994375 0.452254248594
-0.684016994375 0.356762745782 0.577254248593
-0.809016994375 0.309016994375 0.5
-0.434016994375 0.452254248594 0.731762745781
-0.664916950682 0.613195523811 0.279508497188
-0.752579652769 0.542374053247 0.202254248594
-0.742171199275 0.488195523811 0.327254248594
-0.819425447869 0.363195523811 0.375
-0.417374053247 0.25 0.829833901363
-0.542374053247 0.202254248594 0.75257965277
-0.667374053247 0.154508497188 0.675325404176
0.077254248594 0.762988106264 0.596552582683
0.0 0.675325404176 0.667374053247
0.154508497188 0.675325404176 0.667374053247
-0.077254248594 0.587662702088 0.738195523811
0.077254248594 0.587662702088 0.738195523811
0.0 0.5 0.809016994375
-0.154508497188 0.5 0.809016994375
0.231762745782 0.587662702088 0.738195523811
0.154508497188 0.5 0.809016994375
0.309016994375 0.5 0.809016994375
-0.231762745782 0.375 0.856762745781
-0.077254248594 0.375 0.856762745781
-0.154508497188 0.25 0.904508497187
0.0 0.25 0.904508497187
0.077254248594 0.375 0.856762745781
0.154508497188 0.25 0.904508497187
-0.077254248594 0.125 0.952254248593
0.077254248594 0.125 0.952254248593
0.231762745782 0.375 0.856762745781
-0.340119804654 0.125 0.87757965277
0.417374053247 0.25 0.829833901363
0.340119804654 0.125 0.87757965277
0.309016994375 -0.5 -0.809016994375
0.231762745782 -0.375 -0.856762745781
0.417374053247 -0.25 -0.829833901363
0.340119804654 -0.125 -0.87757965277
0.154508497188 -0.25 -0.904508497187
0.26286555606 0.0 -0.925325404176
0.077254248594 -0.125 -0.952254248593
0.0 0.0 -1.0
0.154508497188 -0.5 -0.809016994375
0.077254248594 -0.375 -0.856762745781
0.0 -0.5 -0.809016994375
-0.077254248594 -0.375 -0.856762745781
0.0 -0.25 -0.904508497187
-0.077254248594 -0.125 -0.952254248593
0.231762745782 -0.587662702088 -0.738195523811
0.077254248594 -0.587662702088 -0.738195523811
0.154508497188 -0.675325404176 -0.667374053247
0.0 -0.675325404176 -0.667374053247
-0.077254248594 -0.587662702088 -0.738195523811
-0.154508497188 -0.675325404176 -0.667374053247
0.077254248594 -0.762988106264 -0.596552582683
-0.077254248594 -0.762988106264 -0.596552582683
0.0 -0.850650808352 -0.525731112119
-0.13143277803 0.0 -0.962662702088
-0.208687026624 -0.125 -0.914916950682
-0.26286555606 0.0 -0.925325404176
-0.525731112119 0.0 -0.850650808352
-0.394298334089 0.0 -0.887988106264
0.952254248593 -0.077254248594 0.125
0.87757965277 -0.340119804654 0.125
0.904508497187 -0.154508497188 0.25
0.856762745781 -0.231762745782 0.375
0.952254248593 0.077254248594 0.125
0.904508497187 0.0 0.25
0.904508497187 0.154508497188 0.25
0.856762745781 0.077254248594 0.375
0.856762745781 -0.077254248594 0.375
0.809016994375 0.0 0.5
0.856762745781 0.231762745782 0.375
0.809016994375 0.154508497188 0.5
0.809016994375 0.309016994375 0.5
0.809016994375 -0.154508497188 0.5
0.829833901363 0.417374053247 0.25
0.87757965277 0.340119804654 0.125
0.667374053247 0.0 0.675325404176
0.667374053247 0.154508497188 0.675325404176
0.577254248593 0.684016994375 0.356762745782
0.75257965277 0.542374053247 0.202254248594
0.654508497187 0.559016994375 0.404508497188
0.731762745781 0.434016994375 0.452254248594
0.452254248594 0.731762745781 0.434016994375
0.529508497188 0.606762745781 0.481762745782
0.404508497188 0.654508497187 0.559016994375
0.481762745782 0.529508497188 0.606762745781
0.606762745781 0.481762745782 0.529508497188
0.559016994375 0.404508497188 0.654508497187
0.356762745782 0.577254248593 0.684016994375
0.434016994375 0.452254248594 0.731762745781
0.684016994375 0.356762745782 0.577254248593
0.327254248594 0.742171199275 0.488195523811
0.202254248594 0.752579652769 0.542374053247
0.279508497188 0.664916950682 0.613195523811
0.542374053247 0.202254248594 0.75257965277
-0.596552582683 -0.077254248594 -0.762988106264
[...]
CELL_DATA 840
SCALARS cell_data_0 double
LOOKUP_TABLE default
9.86391773067e-07
1.09619402545e-06
3.55683287152e-07
1.01039665826e-06
2.26122572481e-06
8.02703639022e-07
6.93745819136e-07
3.24916549944e-07
5.28393932556e-07
3.6687662672e-07
1.23573425541e-06
9.19238539389e-07
2.07686168187e-06
1.58860581112e-06
2.65794978394e-07
1.82343014183e-06
7.60428636821e-07
1.10888366083e-06
1.41738331715e-06
3.12840583761e-07
1.85097065065e-06
1.61493435006e-07
2.25753436291e-06
5.44226852115e-07
1.9840356405e-06
1.67231414966e-06
7.10062345414e-08
7.31833467346e-07
1.16414339324e-06
3.78769071659e-07
9.66298473803e-07
1.97319890565e-06
3.46051400543e-07
1.13209039316e-07
4.83342364281e-07
1.39139818793e-06
1.48326705868e-07
8.70571784212e-07
1.3737431547e-06
5.62737945193e-08
1.63380588804e-06
2.89064190312e-07
1.51978494542e-06
8.99066832278e-07
3.89524108175e-07
2.98081579893e-07
4.64919965379e-07
3.82379279405e-07
1.23194032385e-06
1.97178533793e-06
8.73813028298e-07
1.21340182206e-06
1.82974895672e-07
1.12133224762e-06
8.34379638088e-07
2.29183283632e-08
3.75127000374e-08
3.42591917768e-07
2.04827428608e-07
1.05293935899e-07
4.60522618871e-08
8.0261547637e-07
3.76703118018e-07
3.40204182907e-07
1.52298913969e-07
9.80519229204e-08
5.8662903192e-07
8.15288934624e-07
8.28286323868e-07
3.8783943326e-07
1.04155966186e-07
2.19586580733e-07
7.82557059918e-07
5.44964801876e-07
8.37703644066e-08
5.19873447178e-08
2.58309014281e-07
8.08473752831e-07
1.3963197072e-06
4.74084592333e-07
3.57234868337e-07
8.40579399174e-07
3.8677869399e-07
4.69886638264e-07
1.84683124947e-07
4.11275294336e-07
1.17503478904e-06
5.03155464863e-07
8.49791790731e-07
1.16929830813e-07
1.00407258215e-06
7.06614116287e-07
6.53920713712e-07
1.14136521829e-07
8.02580260916e-07
1.64766751238e-08
4.68143610359e-08
5.8150917644e-07
8.3178202458e-07
1.61160622531e-07
3.32328900357e-07
1.46795770435e-07
6.27647709285e-07
9.98881907686e-08
1.99654955407e-08
1.32130653332e-07
3.30721291481e-07
5.4120351607e-07
5.34575410695e-07
3.9013500296e-07
4.14503621683e-07
3.37950541599e-07
3.19732802933e-07
2.67109386327e-07
1.44786382351e-07
1.83045819371e-07
9.92433998766e-07
3.73098625072e-07
6.30146317739e-07
9.48121131681e-08
4.05482433154e-07
9.7361073395e-07
4.42162080217e-07
3.13000671001e-07
1.58492556547e-07
1.97030281723e-08
9.81231164836e-07
7.34308672884e-07
7.43079671751e-07
2.68407600006e-07
2.60226979831e-07
3.79679492601e-07
5.25275731929e-07
4.25272267277e-07
1.41936841094e-07
9.37165610479e-07
8.52658424658e-07
1.74267055783e-07
1.31554763147e-07
2.96979996941e-08
1.32518274871e-07
2.40268637151e-08
1.13382655799e-07
1.64762901681e-07
4.97461124391e-07
5.45210149804e-08
3.64220898974e-07
4.72444891382e-07
2.21859200391e-07
8.96949535941e-08
9.12807680969e-08
4.59462422379e-07
3.267936915e-07
1.36370517435e-07
2.74978320148e-08
7.91389732179e-08
3.70977014541e-07
2.97225025916e-07
1.68631564007e-07
1.48723915999e-07
5.59879813293e-07
1.83274147525e-07
3.83447291854e-07
5.84840828604e-07
7.73680791759e-07
2.79548528269e-07
3.57563524369e-08
2.11562410509e-07
5.71058993667e-07
1.1069661864e-06
2.14058878944e-07
4.01661158098e-07
2.74584187557e-07
3.81807343915e-09
1.25263762492e-06
1.14226001926e-06
1.92663259966e-07
2.59111230177e-07
2.95646198445e-07
5.048142409e-07
6.98936200611e-07
3.45923749637e-07
1.61139308866e-07
4.19036550435e-07
3.57279217115e-07
3.7650790371e-07
2.16559398667e-08
3.72588665111e-07
1.63717136279e-07
3.16040420297e-07
2.06185304092e-07
2.35264258927e-07
1.8391720583e-07
4.37405784687e-07
1.0156695731e-06
8.42216013632e-07
1.02150965464e-07
9.06595042789e-08
4.24793954407e-08
1.95725679705e-07
4.45806427623e-07
7.3666945411e-07
2.41948912062e-07
3.39394122196e-07
4.34246728722e-07
6.87096635671e-07
4.10467412531e-07
1.87384025175e-07
1.41835687578e-07
9.30158671301e-08
1.0112452559e-06
9.34358725933e-07
8.83434734679e-07
3.01124183617e-07
5.83215391312e-07
2.35329564283e-07
1.48041279339e-07
1.15895976428e-07
1.47987295046e-07
1.4238489509e-07
9.78773943767e-08
1.14174004145e-07
1.24842785669e-07
3.6669239215e-08
4.80539088057e-07
1.3884271257e-07
7.72795329499e-08
6.70584491345e-08
1.10986566832e-07
3.49681444981e-07
1.26124335689e-07
5.29092582649e-07
4.6601938108e-07
1.44141250675e-07
3.71770132192e-07
5.55180574068e-07
1.64239419783e-07
4.02137125629e-07
2.65456351967e-07
3.72584740144e-07
1.92107424638e-07
8.86451414392e-08
1.18253870737e-07
2.85516659561e-07
7.46440604225e-09
4.24156764677e-07
1.67581966546e-07
1.97921552006e-07
1.07561174806e-07
1.58746484372e-07
4.50264254611e-08
1.62610559207e-07
2.09496319184e-08
1.19571042649e-07
3.34206701726e-07
1.09807056033e-08
2.74049794681e-07
2.87873628833e-07
1.72916279464e-07
2.77263959271e-07
1.07709012853e-06
6.39607694384e-08
2.54576639377e-08
9.24308120478e-07
8.09434751126e-08
4.78957669464e-08
1.05868467163e-06
9.25555878024e-07
6.02821659677e-07
3.92899987025e-07
2.16203450403e-07
3.52169528498e-07
1.51099543958e-07
2.68104257746e-07
2.90118515718e-07
8.99931012955e-08
5.19952907826e-08
3.22926166078e-07
1.72360213613e-07
3.0553476617e-07
6.40017482749e-08
5.49664072368e-08
9.70243239994e-08
5.34603311654e-07
3.90584990953e-07
1.68967989398e-07
1.10694518025e-07
3.2248070081e-07
3.4802181696e-07
4.62890489119e-07
6.70077170272e-07
3.5230382997e-07
3.63658438536e-08
3.88548993104e-08
4.15811089586e-07
3.52761512558e-07
2.00652331193e-07
1.88256200686e-07
4.16692895678e-07
5.65716405642e-07
6.40957300895e-08
6.29683133448e-07
2.23233074377e-07
1.43624403437e-07
7.17214266968e-07
1.75150304081e-07
2.2127039246e-07
1.45097688663e-06
1.15762561932e-06
5.22168136977e-08
7.17693104154e-07
3.13812219057e-07
6.19435473393e-07
2.50065509474e-07
1.68863562261e-07
9.31040935051e-08
7.71483828715e-07
4.46051855726e-07
3.06754763292e-08
8.27402221576e-07
3.85735303348e-07
3.22496593902e-07
3.05851005593e-07
7.58754957678e-07
3.52238191993e-07
1.42986219494e-07
9.89794324869e-08
1.37292630871e-07
3.0829680099e-07
2.76475139994e-07
1.48504227386e-07
2.48086985014e-07
8.34463323314e-07
4.72197823813e-07
6.51292830058e-08
1.06148593007e-07
2.47025881567e-07
8.15588844929e-07
1.29657742052e-07
1.7635119051e-07
2.66761774767e-07
1.80665323169e-07
3.66931551947e-07
3.14797664929e-07
1.50789779727e-07
3.73888633278e-07
9.27217393684e-08
1.92995512602e-07
6.61522678691e-07
2.3685120895e-07
3.63013320495e-07
5.87232885479e-07
9.4996036897e-07
3.14714344157e-07
2.39663420044e-07
2.43480342645e-07
4.44741840472e-08
4.00828809793e-08
8.39570112989e-07
4.61223315968e-08
7.86228062386e-07
7.20522492035e-07
1.0899086249e-06
4.11566578268e-07
4.22905453931e-07
7.27820731848e-07
1.0811569072e-06
9.58310490313e-07
7.76319668908e-07
1.57957721724e-07
2.04576694924e-07
2.80643957474e-07
8.0437337199e-08
2.10743291128e-07
2.82013967526e-07
5.22748729448e-07
1.67343962375e-07
5.32045807771e-08
2.1253170504e-07
8.15141528171e-08
4.16913515247e-07
2.9858374611e-07
2.70790791665e-07
5.21057556152e-07
1.61491931708e-07
7.22979638068e-07
3.08513455483e-07
2.34416196899e-07
2.49748585658e-07
1.92424936178e-07
2.16021656229e-07
1.137222413e-06
2.46842197468e-07
8.6559230828e-07
5.55006861676e-07
4.66219567599e-07
5.51521955662e-07
2.73629406401e-07
1.90563222091e-07
1.55257879758e-07
8.98960429377e-07
4.26137845966e-07
1.52695159341e-07
1.21434484057e-07
2.81718684653e-07
9.57437733908e-07
3.79214057615e-07
3.83918862136e-07
3.37016857559e-07
3.80528489624e-07
4.1217834081e-07
4.5382128369e-08
2.68945779315e-07
3.86129990239e-07
2.31403825403e-07
2.92506672568e-07
2.8258906614e-07
5.01472463007e-07
1.14910513143e-06
2.37807932483e-07
2.72681344444e-09
6.70689677685e-08
1.4799642737e-08
2.3053947974e-07
2.61654827387e-07
3.33378623598e-07
8.27606578402e-09
3.23901462308e-07
1.4192457985e-07
3.18950520331e-07
7.1686729256e-08
3.16148724478e-07
2.14197338891e-07
3.20755475447e-07
5.00746632628e-07
4.02615327745e-07
1.21896176264e-07
1.07689647214e-07
4.13919712775e-08
7.6664475868e-07
5.20805547115e-07
2.5754768568e-07
5.70572205498e-08
3.4583568912e-07
1.70185283724e-07
6.01229750866e-07
1.66726315155e-06
4.23992686636e-07
6.50963668486e-07
1.91078138921e-07
3.18684693696e-07
1.55696264606e-07
1.62389293589e-08
3.75788974636e-08
1.5233178702e-07
2.7897661322e-07
6.35026275153e-08
8.84670369632e-08
3.29705659619e-07
8.7682992689e-08
4.85606449587e-08
3.20107993306e-07
5.38142517115e-07
2.02984037926e-07
6.94462737188e-08
3.28200147774e-07
3.84291009114e-07
5.37828993909e-07
3.76072017915e-07
4.34409148323e-07
4.67228190427e-07
2.6118392717e-07
2.86713702255e-07
4.86988362872e-07
6.76890647012e-07
1.33597906892e-06
4.33016913291e-07
3.5234036729e-07
4.02378298969e-07
9.77190314409e-08
5.06457278537e-07
2.55450792055e-07
6.35480377437e-07
2.59722387559e-07
9.64057974535e-07
7.38886003574e-07
3.31915838997e-07
3.58961519263e-07
3.31528870687e-07
2.30481989071e-07
1.22052190933e-06
4.72353378691e-07
3.74814972044e-07
4.58878294263e-08
8.40476486825e-09
1.23974423944e-07
2.43876702039e-07
1.75637673698e-07
3.74047496929e-07
5.33888480598e-08
2.23780518264e-09
2.06930132331e-07
6.63221316948e-07
2.00912147585e-07
6.48929715796e-07
1.73909103165e-07
2.92973685446e-08
4.70128810233e-08
3.65236088399e-07
2.90295108409e-07
4.51435501627e-07
2.31425789268e-07
3.67994674558e-07
3.08070081346e-07
1.85198464692e-07
2.7060945029e-07
2.36445269935e-07
9.06215460582e-08
4.2914693943e-08
2.26692082608e-07
4.51631753741e-07
3.11241060866e-07
2.5727929236e-07
3.60482729735e-07
1.62731216084e-07
8.4757136568e-08
3.28242810794e-07
2.27021255621e-08
6.48333309726e-07
2.12576940302e-07
1.28403976018e-07
4.2408862461e-07
1.26363656016e-07
3.09464693064e-07
3.139880404e-07
3.72676743242e-08
7.44157072816e-08
2.13629248085e-07
3.18057303386e-07
1.4590901812e-07
2.20561217094e-07
1.46313672185e-08
1.0472766379e-07
3.26971055481e-07
2.75405498207e-07
2.48429603779e-07
1.71350368697e-07
1.21575920217e-07
3.90020908342e-07
4.17294933162e-07
3.93816184599e-07
1.94320947887e-07
1.13296415001e-07
2.02151566658e-08
7.2159677248e-07
1.30104791751e-07
1.05589455157e-08
5.72282793292e-08
6.34547309524e-08
1.61198623669e-07
3.09963808913e-07
1.8836528332e-07
2.60488837104e-07
1.54592213652e-07
2.25995811755e-07
1.09915975738e-07
1.87365321245e-08
2.65218851696e-07
1.30568349022e-07
4.69789758165e-07
7.95792135144e-07
3.00898025699e-07
7.67343672078e-09
5.11739438446e-08
9.55699198518e-09
5.84349836122e-07
3.82048634617e-08
5.94187300169e-07
4.59414664088e-07
1.72752290521e-07
3.32012527627e-07
9.693668926e-09
1.14594640705e-06
7.21730347169e-07
9.43771991085e-07
5.39379512163e-07
4.86944896521e-07
6.38771039663e-07
1.69778779412e-07
1.34547653388e-07
1.90537163702e-07
9.44334552145e-08
3.75208354376e-07
2.92989603308e-07
4.88033436031e-07
1.76530197141e-07
2.83113580823e-07
1.66037678306e-07
7.05264836376e-08
9.37144485943e-07
8.46259636909e-07
6.31681668854e-07
1.47874737219e-07
5.99375601048e-08
5.94978748457e-07
1.32595339287e-07
1.37582269696e-07
4.50677550845e-07
1.48785165368e-06
1.56664156095e-07
1.72990055127e-07
7.61667599527e-07
5.96381138469e-07
1.62223387324e-07
3.394010861e-07
1.60343512635e-06
9.04551637975e-07
8.09263245877e-09
4.59988507782e-08
1.25223512235e-07
4.09851762519e-07
5.4804051209e-07
4.59203312429e-07
1.84699307178e-07
6.60218295524e-07
2.8576411511e-07
4.34311530828e-07
3.06128178282e-07
1.55063223288e-08
1.05918898855e-06
6.86031485927e-07
1.53861113545e-07
3.08389072179e-07
2.70391937128e-07
3.02767331834e-07
4.44723528019e-07
8.75441335284e-07
3.16845131218e-07
7.43512380391e-08
4.71454408412e-07
1.36753255249e-07
2.21193879444e-08
1.28588892233e-07
1.8313242284e-07
3.78319785008e-07
2.11777659778e-07
5.42043412616e-07
2.35456103948e-07
2.23023471678e-07
7.05595524028e-07
5.24330408797e-07
1.41849589474e-06
3.18839941382e-07
3.38305348016e-07
1.10127758485e-07
9.47853494773e-08
2.72331637449e-08
5.63718590374e-07
7.22231104913e-07
6.20356103675e-07
9.19100564818e-09
4.62577660099e-08
8.19430846618e-07
2.87158240151e-08
1.11589731413e-06
1.77775359082e-07
6.84834950407e-07
7.18909830728e-07
2.58448453961e-07
3.72093169838e-07
4.79419390249e-07
1.95559235705e-07
6.2510540789e-08
1.74290462411e-07
8.65022101654e-07
1.4373034896e-07
8.52252663436e-08
4.79340285591e-08
2.85701191902e-07
5.28343984916e-07
1.08896291348e-07
1.80296738578e-07
4.16665717052e-07
5.26539720506e-07
2.33959899658e-07
2.81062432128e-07
1.05831793063e-07
3.45011943335e-08
5.4717321118e-07
7.35220556401e-08
2.65234317712e-07
2.52605905727e-08
1.02212576077e-08
5.63347895687e-07
8.49815875216e-07
3.3335191025e-07
2.74067145268e-07
1.33926397746e-07
1.11325527625e-08
7.60700617156e-08
4.24288066632e-08
5.16701286205e-09
2.54597455226e-07
1.7632631076e-07
2.29084105075e-07
4.07488845951e-08
1.59721416198e-07
1.03014509566e-07
3.47517384708e-08
4.38105659701e-07
1.28918060579e-07
6.28121804513e-08
1.13307867382e-07
1.81432169893e-07
1.97725652461e-07
3.3001021795e-07
3.45617214074e-07
3.07297046381e-07
3.65167285664e-08
4.35317603374e-08
3.52910836621e-07
4.24594470115e-08
1.82533225041e-07
5.61402614841e-09
1.61940349434e-08
5.25430701235e-07
2.6472400923e-08
4.97650730129e-07
1.62537300647e-07
2.1728738045e-07
1.07680291204e-07
3.76208106496e-07
1.57237012922e-07
6.97056000847e-08
1.11213912555e-06
4.17499755373e-07
8.35622656352e-09
1.20886630727e-06
1.51714421037e-07
4.1112150562e-07
5.91719887958e-07
1.03725841585e-06
7.07883038603e-07
2.69840048683e-08
4.31719737331e-07
6.53322272602e-07
1.11660881726e-06
7.21367029936e-07
2.30406935775e-07
7.74658493359e-07
6.60075721234e-07
7.82280899355e-08
2.00601275815e-07
3.68835611264e-07
5.63731583939e-07
6.46753288918e-07
5.33748687235e-07
7.05057025261e-07
1.40965411183e-07
6.52403708314e-08
4.64343989791e-07
1.21582964564e-07
2.9385754819e-07
1.13487598594e-07
1.21551127612e-07
5.13066719765e-07
3.35845184019e-07
8.22373854035e-08
8.10741238272e-08
6.92624564606e-08
3.07830306151e-07
1.38676630665e-07
2.48093776641e-07
1.01372124851e-06
2.51364638402e-07
1.1109508493e-09
4.46136772064e-09
2.15576091179e-07
1.19863274852e-07
8.90533668604e-08
4.11999314067e-08
3.2551683475e-07
2.07405786102e-07
3.62269990062e-07
3.73648813426e-07
2.86307082981e-07
1.07762613433e-07
2.42024221687e-07
2.77935843516e-07
7.40677792183e-07
6.93469556186e-07
1.74317170307e-07
2.97258771807e-07
6.34067173898e-07
2.69280848054e-07
6.40032895347e-07
6.29788984818e-07
3.26657547631e-08
2.06885287423e-07
8.93697667279e-08
6.76900424829e-08
1.61183136416e-07
3.58546856352e-07
3.42372000016e-07
1.2059451946e-07
4.10997089086e-08
3.90612177349e-07
1.30279947178e-07
4.42049175201e-07
5.58279125593e-07
8.17450855058e-07
2.64441719117e-07
2.94993805404e-07
1.90442341427e-07
3.88882560753e-09
2.32923129916e-08
2.2707016409e-07
6.25296928367e-08
5.25055716668e-08
2.26689253975e-07
1.9140573498e-07
2.90607389843e-07
1.15099007032e-07
2.36696814598e-07
8.35704231106e-08
6.56377154344e-07
2.59778352267e-07
3.10390774295e-07
1.9749685238e-07
5.27900073955e-08
1.11426370316e-07
2.83069931964e-07
9.53712339483e-08
4.15004372782e-08
3.41181100646e-07
3.77435241004e-08
5.81666703795e-08
1.01843712389e-07
9.51560343616e-09
5.68021400255e-07

