# vtk DataFile Version 3.0
File Name: Molecule/sphere_cent/sphere_cent_0-s2.vtk
ASCII
DATASET UNSTRUCTURED_GRID
FIELD FieldData 1
TIME 1 1 double
0.0
POINTS 124 double
-0.525731112119 0.0 0.850650808352
-0.309016994375 -0.5 0.809016994375
0.0 0.0 1.0
0.309016994375 -0.5 0.809016994375
0.0 -0.850650808352 0.525731112119
0.525731112119 0.0 0.850650808352
0.809016994375 -0.309016994375 0.5
0.5 -0.809016994375 0.309016994375
0.850650808352 -0.525731112119 0.0
-0.5 -0.809016994375 0.309016994375
-0.809016994375 -0.309016994375 0.5
0.809016994375 -0.309016994375 -0.5
0.904508497187 -0.154508497188 -0.25
1.0 0.0 0.0
0.809016994375 0.0 -0.5
0.904508497187 0.154508497188 -0.25
0.809016994375 0.309016994375 -0.5
0.525731112119 0.0 -0.850650808352
0.850650808352 0.525731112119 0.0
0.654508497187 0.559016994375 -0.404508497188
0.5 0.809016994375 -0.309016994375
0.559016994375 0.404508497188 -0.654508497187
0.404508497188 0.654508497187 -0.559016994375
0.309016994375 0.5 -0.809016994375
0.25 0.829833901363 -0.417374053247
0.154508497188 0.675325404176 -0.667374053247
0.0 0.850650808352 -0.525731112119
0.5 0.809016994375 0.0
0.5 0.809016994375 0.309016994375
0.25 0.904508497187 -0.154508497188
0.25 0.904508497187 0.154508497188
0.0 1.0 0.0
0.0 0.925325404176 -0.26286555606
0.25 0.829833901363 0.417374053247
0.0 0.925325404176 0.26286555606
0.0 0.850650808352 0.525731112119
-0.25 0.829833901363 0.417374053247
-0.25 0.904508497187 0.154508497188
-0.5 0.809016994375 0.309016994375
-0.25 0.904508497187 -0.154508497188
-0.5 0.809016994375 0.0
-0.5 0.809016994375 -0.309016994375
-0.25 0.829833901363 -0.417374053247
-0.675325404176 0.667374053247 0.154508497188
-0.675325404176 0.667374053247 -0.154508497188
-0.850650808352 0.525731112119 0.0
-0.154508497188 0.675325404176 0.667374053247
-0.404508497188 0.654508497187 0.559016994375
-0.309016994375 0.5 0.809016994375
-0.654508497187 0.559016994375 0.404508497188
-0.559016994375 0.404508497188 0.654508497187
-0.809016994375 0.309016994375 0.5
-0.829833901363 0.417374053247 0.25
0.154508497188 0.675325404176 0.667374053247
0.0 0.5 0.809016994375
0.309016994375 0.5 0.809016994375
-0.154508497188 0.25 0.904508497187
0.154508497188 0.25 0.904508497187
0.309016994375 -0.5 -0.809016994375
0.154508497188 -0.25 -0.904508497187
0.0 0.0 -1.0
0.0 -0.5 -0.809016994375
-0.154508497188 -0.25 -0.904508497187
-0.309016994375 -0.5 -0.809016994375
0.154508497188 -0.675325404176 -0.667374053247
-0.154508497188 -0.675325404176 -0.667374053247
0.0 -0.850650808352 -0.525731112119
-0.26286555606 0.0 -0.925325404176
-0.417374053247 -0.25 -0.829833901363
-0.525731112119 0.0 -0.850650808352
0.904508497187 -0.154508497188 0.25
0.904508497187 0.154508497188 0.25
0.809016994375 0.0 0.5
0.809016994375 0.309016994375 0.5
0.654508497187 0.559016994375 0.404508497188
0.404508497188 0.654508497187 0.559016994375
0.559016994375 0.404508497188 0.654508497187
-0.667374053247 -0.154508497188 -0.675325404176
-0.667374053247 0.154508497188 -0.675325404176
-0.809016994375 0.0 -0.5
-0.809016994375 -0.309016994375 -0.5
-0.809016994375 0.309016994375 -0.5
-0.904508497187 -0.154508497188 -0.25
-0.904508497187 0.154508497188 -0.25
-1.0 0.0 0.0
-0.829833901363 -0.417374053247 -0.25
-0.925325404176 -0.26286555606 0.0
-0.850650808352 -0.525731112119 0.0
-0.829833901363 0.417374053247 -0.25
-0.925325404176 0.26286555606 0.0
-0.154508497188 0.675325404176 -0.667374053247
-0.404508497188 0.654508497187 -0.559016994375
-0.309016994375 0.5 -0.809016994375
-0.559016994375 0.404508497188 -0.654508497187
-0.654508497187 0.559016994375 -0.404508497188
-0.417374053247 0.25 -0.829833901363
-0.675325404176 -0.667374053247 -0.154508497188
-0.675325404176 -0.667374053247 0.154508497188
-0.5 -0.809016994375 0.0
-0.5 -0.809016994375 -0.309016994375
-0.25 -0.904508497187 -0.154508497188
-0.25 -0.904508497187 0.154508497188
0.0 -1.0 0.0
-0.25 -0.829833901363 -0.417374053247
0.0 -0.925325404176 -0.26286555606
-0.829833901363 -0.417374053247 0.25
-0.654508497187 -0.559016994375 0.404508497188
-0.809016994375 0.0 0.5
-0.904508497187 0.154508497188 0.25
-0.904508497187 -0.154508497188 0.25
-0.559016994375 -0.404508497188 -0.654508497187
-0.404508497188 -0.654508497187 -0.559016994375
-0.654508497187 -0.559016994375 -0.404508497188
0.25 -0.829833901363 -0.417374053247
0.25 -0.904508497187 -0.154508497188
0.5 -0.809016994375 -0.309016994375
0.5 -0.809016994375 0.0
0.25 -0.904508497187 0.154508497188
0.559016994375 -0.404508497188 -0.654508497187
0.654508497187 -0.559016994375 -0.404508497188
0.404508497188 -0.654508497187 -0.559016994375
0.154508497188 0.25 -0.904508497187
-0.154508497188 0.25 -0.904508497187
0.0 0.5 -0.809016994375

CELLS 244 976
3 0 1 2
3 1 3 2
3 1 4 3
3 2 3 5
3 5 3 6
3 3 7 6
3 3 4 7
3 6 7 8
3 9 4 1
3 10 1 0
3 11 12 8
3 8 12 13
3 11 14 12
3 14 15 12
3 14 16 15
3 12 15 13
3 16 14 17
3 17 14 11
3 13 15 18
3 15 16 18
3 16 19 18
3 18 19 20
3 16 21 19
3 21 22 19
3 21 23 22
3 19 22 20
3 23 21 17
3 17 21 16
3 20 22 24
3 22 25 24
3 22 23 25
3 24 25 26
3 20 27 18
3 18 27 28
3 20 29 27
3 29 30 27
3 29 31 30
3 27 30 28
3 20 24 29
3 24 32 29
3 24 26 32
3 29 32 31
3 28 30 33
3 30 34 33
3 30 31 34
3 33 34 35
3 35 34 36
3 34 37 36
3 34 31 37
3 36 37 38
3 31 39 37
3 39 40 37
3 39 41 40
3 37 40 38
3 31 32 39
3 32 42 39
3 32 26 42
3 39 42 41
3 38 40 43
3 40 44 43
3 40 41 44
3 43 44 45
3 35 36 46
3 36 47 46
3 36 38 47
3 46 47 48
3 38 49 47
3 49 50 47
3 49 51 50
3 47 50 48
3 38 43 49
3 43 52 49
3 43 45 52
3 49 52 51
3 48 50 0
3 50 51 0
3 35 46 53
3 46 54 53
3 46 48 54
3 53 54 55
3 48 56 54
3 56 57 54
3 56 2 57
3 54 57 55
3 2 56 0
3 0 56 48
3 55 57 5
3 57 2 5
3 58 59 17
3 17 59 60
3 58 61 59
3 61 62 59
3 61 63 62
3 59 62 60
3 58 64 61
3 64 65 61
3 64 66 65
3 61 65 63
3 60 62 67
3 62 68 67
3 62 63 68
3 67 68 69
3 13 70 8
3 8 70 6
3 13 71 70
3 71 72 70
3 71 73 72
3 70 72 6
3 73 71 18
3 18 71 13
3 6 72 5
3 72 73 5
3 28 74 18
3 18 74 73
3 28 75 74
3 75 76 74
3 75 55 76
3 74 76 73
3 28 33 75
3 33 53 75
3 33 35 53
3 75 53 55
3 73 76 5
3 76 55 5
3 69 77 78
3 77 79 78
3 77 80 79
3 78 79 81
3 80 82 79
3 82 83 79
3 82 84 83
3 79 83 81
3 80 85 82
3 85 86 82
3 85 87 86
3 82 86 84
3 81 83 88
3 83 89 88
3 83 84 89
3 88 89 45
3 26 90 42
3 90 91 42
3 90 92 91
3 42 91 41
3 92 93 91
3 93 94 91
3 93 81 94
3 91 94 41
3 92 95 93
3 95 78 93
3 95 69 78
3 93 78 81
3 41 94 44
3 94 88 44
3 94 81 88
3 44 88 45
3 87 96 97
3 96 98 97
3 96 99 98
3 97 98 9
3 99 100 98
3 100 101 98
3 100 102 101
3 98 101 9
3 99 103 100
3 103 104 100
3 103 66 104
3 100 104 102
3 9 101 4
3 101 102 4
3 87 97 105
3 97 106 105
3 97 9 106
3 105 106 10
3 10 106 1
3 1 106 9
3 51 107 0
3 0 107 10
3 51 108 107
3 108 109 107
3 108 84 109
3 107 109 10
3 51 52 108
3 52 89 108
3 52 45 89
3 108 89 84
3 10 109 105
3 109 86 105
3 109 84 86
3 105 86 87
3 69 68 77
3 68 110 77
3 68 63 110
3 77 110 80
3 63 111 110
3 111 112 110
3 111 99 112
3 110 112 80
3 63 65 111
3 65 103 111
3 65 66 103
3 111 103 99
3 80 112 85
3 112 96 85
3 112 99 96
3 85 96 87
3 66 113 104
3 113 114 104
3 113 115 114
3 104 114 102
3 115 116 114
3 116 117 114
3 116 7 117
3 114 117 102
3 7 116 8
3 8 116 115
3 102 117 4
3 117 7 4
3 11 118 17
3 17 118 58
3 11 119 118
3 119 120 118
3 119 115 120
3 118 120 58
3 115 119 8
3 8 119 11
3 58 120 64
3 120 113 64
3 120 115 113
3 64 113 66
3 60 121 17
3 17 121 23
3 60 122 121
3 122 123 121
3 122 92 123
3 121 123 23
3 60 67 122
3 67 95 122
3 67 69 95
3 122 95 92
3 23 123 25
3 123 90 25
3 123 92 90
3 25 90 26

CELL_TYPES 244
5
5
5
5
5
5
5
5
5
5
5
5
5
5
5
5
5
5
5
5
5
5
5
5
5
5
5
5
5
5
5
5
5
5
5
5
5
5
5
5
5
5
5
5
5
5
5
5
5
5
5
5
5
5
5
5
5
5
5
5
5
5
5
5
5
5
5
5
5
5
5
5
5
5
5
5
5
5
5
5
5
5
5
5
5
5
5
5
5
5
5
5
5
5
5
5
5
5
5
5
5
5
5
5
5
5
5
5
5
5
5
5
5
5
5
5
5
5
5
5
5
5
5
5
5
5
5
5
5
5
5
5
5
5
5
5
5
5
5
5
5
5
5
5
5
5
5
5
5
5
5
5
5
5
5
5
5
5
5
5
5
5
5
5
5
5
5
5
5
5
5
5
5
5
5
5
5
5
5
5
5
5
5
5
5
5
5
5
5
5
5
5
5
5
5
5
5
5
5
5
5
5
5
5
5
5
5
5
5
5
5
5
5
5
5
5
5
5
5
5
5
5
5
5
5
5
5
5
5
5
5
5
5
5
5
5
5
5
5
5
5
5
5
5

CELL_DATA 244
SCALARS cell_data_0 double
LOOKUP_TABLE default
1.15449342638e-06
4.69530945978e-06
2.51822894965e-06
2.71897749665e-06
8.59816597094e-07
5.93475741421e-06
5.20112248433e-06
1.85663764863e-06
2.47348550197e-06
2.64023144931e-06
4.43970514539e-07
1.65261405855e-06
1.12853135526e-06
1.7209335227e-06
1.12924472184e-06
2.89440759652e-07
1.6219195681e-06
1.6246780561e-06
8.50398059945e-07
1.45316447862e-06
6.23476200506e-07
6.46010933516e-07
1.78719462156e-07
2.41353898755e-06
6.34214329084e-08
1.26516402664e-07
8.37302780106e-07
1.55239380876e-06
7.8921595197e-07
8.89142622965e-07
7.64050922841e-07
2.84268440086e-07
2.54472526411e-06
1.05057182149e-06
5.61352990459e-07
2.06147958703e-06
8.46554238353e-07
7.87924631106e-07
3.36426670418e-07
2.06585445049e-06
6.05384435751e-09
2.09371951889e-07
9.49318712092e-07
1.17441780856e-06
1.82607764702e-07
6.1487015655e-07
6.60840060368e-07
7.96989040551e-07
1.60474540413e-07
2.29052702204e-06
4.59232685315e-07
1.64437968025e-06
8.67115161623e-07
2.28932443055e-06
2.08083875636e-07
2.0835169326e-06
4.41741477124e-08
1.32940018525e-06
2.47751955671e-06
5.20338752369e-07
8.97663579031e-07
1.21805729577e-06
4.61444614303e-07
1.27829926126e-06
1.87559761928e-06
3.8034440315e-07
1.1169671981e-06
2.63875952907e-06
3.67337769356e-07
1.3903148636e-07
1.85673457522e-06
3.63592000578e-07
8.74540931928e-07
1.23738552158e-06
5.81839551174e-07
9.84051839578e-07
1.6425936996e-07
2.25308581001e-06
5.49871225416e-07
7.98210971471e-07
1.56809616443e-07
2.00888852902e-06
1.50075892938e-06
1.05335658289e-06
1.05859781719e-06
2.05901321724e-06
3.3692547744e-07
1.45261813743e-06
1.92005737547e-06
1.92260755442e-06
3.04521401634e-07
1.67617501984e-06
9.51524824421e-07
1.88975079197e-06
7.08222611384e-07
7.08131877757e-07
2.00858031505e-06
3.2485325421e-07
1.83564868451e-06
1.91430152861e-07
3.75414007235e-07
9.6398430482e-07
1.04129665834e-06
1.42045095337e-06
9.66726452945e-07
3.14853647726e-06
1.5349675593e-06
3.88820910033e-07
1.334121643e-06
2.50968733368e-06
4.94436766278e-07
1.38880142099e-06
7.24497655669e-07
1.36128361977e-06
1.08452471952e-06
1.98627290472e-06
1.12084321481e-06
1.9077816181e-07
1.36831204388e-06
6.96208900178e-09
1.55825001658e-06
4.38608475553e-07
1.35708357134e-06
2.72298919292e-06
9.82338452248e-07
1.51845981383e-06
6.36880180208e-08
2.56902712516e-09
6.45471381508e-07
2.59073980881e-06
6.6384461444e-07
6.21055502302e-07
9.92626986387e-07
2.76840070096e-07
9.64002577782e-07
2.6512207452e-07
4.55181695994e-08
1.24029769283e-06
2.72520952318e-07
6.95660088508e-08
3.05920230877e-07
1.11431216091e-06
1.42058665601e-06
6.93169984888e-07
5.94146432699e-07
1.71760760747e-06
4.23448584286e-07
6.14196987593e-07
1.30984247722e-06
3.25698780627e-07
1.26984528695e-06
1.07707194779e-06
2.49519756537e-07
1.3846114766e-06
1.6285223272e-07
1.17570400666e-07
1.16614401587e-07
9.01002464326e-07
7.02873609349e-07
6.72760005625e-07
4.37145929671e-07
2.05508653203e-06
1.23514475116e-08
1.38843032714e-07
4.2771810766e-07
1.5068042598e-06
1.06217875953e-06
3.66876654011e-07
1.27869187906e-06
1.42049670886e-06
1.44955588505e-06
6.4029192654e-07
7.12498330907e-07
2.53691227988e-06
1.84517706146e-06
1.4664362739e-06
1.71156497522e-06
1.96939235597e-06
1.59276563613e-06
6.01722896102e-07
1.49064481359e-08
1.91928710662e-06
1.49478135565e-06
5.84991592306e-08
9.42263864722e-07
5.00993132419e-07
2.39604044926e-06
6.25652879365e-07
6.1759458771e-07
1.5006578079e-06
9.416424604e-07
3.17894714851e-07
2.67037140593e-07
1.33783178832e-06
1.1217523127e-07
8.59812703778e-07
1.40936999071e-06
9.37813432671e-07
7.35993896401e-07
1.62655725442e-07
1.7145057073e-06
1.73606113982e-06
9.88136274155e-07
1.53627092974e-06
2.64905060657e-07
3.79564547878e-07
1.40341971835e-06
1.24690372331e-06
5.51487542646e-07
3.64983189417e-07
1.1376995298e-06
1.88154623345e-06
2.95000434313e-07
3.48770585033e-07
1.3377479137e-06
1.61729001295e-06
2.09071077164e-06
4.4523876836e-07
2.62309577578e-06
2.35627559617e-06
2.37882433844e-06
3.67199123621e-07
1.0878789293e-07
1.83646538948e-06
1.37295633405e-06
1.39774533776e-06
1.81313870699e-06
9.86685512076e-08
4.04331003276e-07
1.78346021062e-06
2.47472842349e-06
1.85567595457e-07
2.01917344823e-06
3.8214612294e-07
1.28987581798e-06
5.68450640019e-07
1.64998367915e-06
9.45515888356e-08
1.22531059049e-06
1.60496216118e-06
7.63650244614e-07
3.47363860351e-07
1.73536974893e-06
1.60027815145e-06

