# vtk DataFile Version 3.0
File Name: Molecule/sphere_cent/sphere_cent_0-s12.vtk
ASCII
DATASET UNSTRUCTURED_GRID
FIELD FieldData 1
TIME 1 1 double
0.0
POINTS 160 double
0.86077970266 -0.50497305393 -0.049293275923
0.9461581111 -0.20849111676 -0.24180403352
0.99461877346 -0.038112755865 0.087063133717
0.35101610422 -0.51094901562 -0.78432673216
0.024374395609 -0.52272588015 -0.85070610046
0.1680136472 -0.26211726665 -0.95026189089
-0.16377237439 -0.25234594941 -0.9536947608
0.0099050011486 0.039231143892 -0.99894189835
-0.33406493068 -0.49999263883 -0.79722326994
-0.55104255676 -0.045831903815 -0.83179551363
0.48785331845 0.83163052797 0.26404744387
0.42365771532 0.6906362772 0.58608025312
0.68942141533 0.58978688717 0.42048507929
0.58889269829 0.42569714785 0.68697553873
0.27451530099 0.48890417814 0.82779598236
0.83501911163 0.27790641785 0.47425255179
0.78756409883 0.34018743038 -0.51127392054
0.5705242157 0.43520894647 -0.69585573673
0.67431038618 0.6053929925 -0.42180815339
0.4174464643 0.69416874647 -0.58634477854
0.27015280724 0.48473897576 -0.83151572943
0.47905915976 0.83726119995 -0.26170819998
-0.32614862919 -0.49340480566 0.80631560087
-0.1736959964 -0.25879079103 0.94941419363
-0.55400854349 -0.24187102914 0.79612201452
-0.50126522779 0.0085236215964 0.86398643255
-0.016905941069 0.025657819584 0.99915933609
-0.0032107091974 -0.53223913908 0.84652173519
0.15852507949 -0.26508456469 0.9510409832
0.31964054704 -0.52030318975 0.79170143604
0.094835475087 -0.8299446106 0.54864311218
-0.95254528522 0.15737746656 0.26066789031
-0.952514112 -0.15899899602 0.25976994634
-0.85637789965 -0.017592575401 0.51374465227
-0.99965453148 0.00033778240322 -0.017210885882
-0.81378471851 -0.31235301495 0.48818469048
-0.85088533163 0.52535450459 -0.0010025744559
-0.80799818039 0.3170670867 0.49374139309
-0.85141718388 -0.52449375391 -0.00017539934197
-0.047727458179 0.86005795002 0.50530058146
-0.24741786718 0.95648604631 0.15437009931
-0.49728262424 0.81101083755 0.30783981085
0.03976508975 0.99903714657 -0.0084040481597
-0.25125864148 0.95449501276 -0.16033780575
-0.51989936829 0.85427033901 -0.0049433768727
-0.50314509869 0.80359536409 -0.31766420603
-0.040455523878 0.86210143566 -0.50181216002
-0.41560506821 0.68350970745 0.60007077456
-0.67966985703 0.59121608734 0.43424925208
-0.56505072117 0.44796770811 0.69028908014
-0.29819276929 0.48464840651 0.82213079929
-0.034780938178 -0.86056387424 -0.50518584251
0.27277743816 -0.94660741091 -0.17162023485
-0.0060915341601 -0.99948519468 -0.021136825904
0.51901227236 -0.85369217396 0.023778345436
0.2574467361 -0.95205795765 0.1652187705
0.49367806315 -0.80448442698 0.3299601078
-0.50429880619 -0.80602496862 -0.30950129032
-0.52375668287 -0.85187166929 -0.0038494728506
-0.51140540838 -0.80604302883 0.29738524556
-0.27516585588 -0.94815850258 -0.15923900902
-0.28005635738 -0.9487734437 0.14635853469
-0.24757443368 -0.8645966053 0.43714675307
-0.030058829114 -0.96203315258 0.27128997445
-0.68185734749 -0.59207046032 0.42942529917
-0.44446906447 -0.68511021137 0.57709091902
-0.56908577681 -0.4656611383 0.67631477118
-0.1879298836 -0.71187800169 0.67666256428
-0.81032347679 -0.30745503306 -0.49862855673
-0.85247671604 -0.0022055204026 -0.52278006077
-0.94767540693 -0.1545098871 -0.27939611673
-0.94761604071 0.15481054783 -0.2794919312
-0.81505942345 0.30507427454 -0.49053689837
-0.42496478558 0.67728364468 -0.60050582886
-0.30001476407 0.50161600113 -0.81137508154
-0.56105297804 0.44225713611 -0.69846665859
-0.68574869633 0.58029192686 -0.4393735528
-0.60179084539 -0.4351862967 -0.6697152257
-0.44763332605 -0.68265807629 -0.57750928402
-0.68955880404 -0.5842000246 -0.42800563574
0.52006977797 0.003867495805 0.85409188271
0.45140317082 -0.25880014896 0.85390430689
0.68915742636 -0.15803895891 0.70716404915
0.59495908022 -0.43625590205 0.67495369911
0.7862149477 -0.32721161842 0.52414691448
0.45371496677 -0.67268562317 0.58447915316
0.68672126532 -0.57581335306 0.44366300106
0.87882405519 -0.39511606097 0.26646596193
0.71710890532 -0.66970533133 0.19235377014
0.87466078997 -0.049689412117 0.4815582931
0.70501482487 0.13462172449 0.69625866413
-0.26784062386 0.047498892993 -0.96233540773
-0.14809603989 0.28902542591 -0.94577741623
-0.4033652842 0.25769326091 -0.8780785203
0.41353112459 0.25189486146 0.87482219934
0.27046069503 0.020038377494 0.96243304014
-0.134061113 0.68134754896 0.7196199894
0.13496054709 0.70035976171 0.70058870316
-0.0072822240181 0.50019317865 0.86588084698
-0.1534537971 0.27647650242 0.94719535112
0.13091848791 0.27519121766 0.95242422819
-0.5488884449 0.24023987353 0.79872196913
-0.015333097428 0.51316791773 -0.85808777809
0.13198024035 0.69970393181 -0.70172345638
-0.13925723732 0.68852132559 -0.7117729187
0.24440670013 0.8771289587 0.41292610765
0.24340668321 0.88065928221 -0.40571120381
0.13652996719 0.27784201503 -0.95087450743
0.27489793301 0.95250231028 0.13099348545
0.042895492166 0.9653531909 0.25753423572
0.45449945331 -0.67263221741 -0.58389395475
0.2030608803 -0.7131973505 -0.67102426291
0.27956721187 -0.83984559774 -0.46546804905
0.52312660217 -0.77283334732 -0.3590015769
0.54958742857 -0.00094971526414 -0.83527398109
0.28598040342 0.022741120309 -0.95783162117
0.39310374856 0.2498382479 -0.88490909338
0.46043255925 -0.26252904534 -0.84780269861
0.85765528679 0.51346474886 -0.018303535879
0.68010425568 0.72233343124 -0.12544491887
0.69966733456 0.7017377615 0.13335925341
0.49564763904 0.86850070953 -2.3588334443e-05
0.2735722661 0.95224881172 -0.1355894208
0.039405398071 0.9642059207 -0.26238432527
0.96231883764 0.26695531607 0.048648357391
0.94812703133 0.1513479352 0.27962437272
0.87313866615 0.42446276546 0.23884034157
0.6737241745 -0.20521086454 -0.7097145319
0.58280485868 -0.45331567526 -0.67440199852
0.7725404501 -0.36861664057 -0.51543009281
0.83274406195 -0.039954748005 -0.55133038759
0.70693701506 0.080920912325 -0.70237922668
0.89593464136 0.39452654123 -0.20294609666
0.96109181643 0.16938710213 -0.21565355361
0.66900134087 -0.59369462729 -0.44695964456
0.8308956027 -0.47137239575 -0.29565051198
0.71620547771 -0.66253554821 -0.21847821772
0.91128140688 -0.10132619739 -0.39860376716
0.91555202007 0.073010347784 -0.39534693956
0.96702778339 -0.012794480659 -0.25326755643
0.82616662979 0.1584624052 -0.54066568613
0.88939505816 0.2614800632 -0.37495598197
-0.69902175665 -0.17030566931 0.69448274374
0.54922163486 -0.81856173277 -0.1684243232
0.70529896021 -0.70828580856 -0.031222419813
-0.70237714052 -0.37376001477 0.60547733307
-0.71005451679 0.0043761287816 0.70405429602
-0.7124606967 0.15149408579 -0.68509936333
-0.70198392868 0.36135852337 -0.61363911629
-0.58449143171 0.21682049334 -0.78209370375
-0.15958082676 -0.5307276845 -0.83251053095
-0.18882295489 -0.70293313265 -0.68577551842
-0.010556213558 -0.70917004347 -0.70515280962
0.8065726757 0.44392839074 -0.38926813006
0.58157205582 0.22258816659 -0.78231471777
0.71099221706 0.28679034114 -0.64144951105
-0.83691245317 0.15472859144 0.52464812994
-0.69114643335 0.16952364147 0.70243167877
-0.69962239265 0.37316963077 0.60902881622
0.7895526886 0.56908327341 -0.2292393595

CELLS 316 1264
3 0 1 2
3 3 4 5
3 4 6 5
3 5 6 7
3 6 8 9
3 10 11 12
3 11 13 12
3 11 14 13
3 12 13 15
3 16 17 18
3 17 19 18
3 17 20 19
3 18 19 21
3 22 23 24
3 25 23 26
3 22 27 23
3 27 28 23
3 27 29 28
3 23 28 26
3 29 27 30
3 31 32 33
3 31 34 32
3 33 32 35
3 34 31 36
3 36 31 37
3 35 32 38
3 32 34 38
3 39 40 41
3 42 43 40
3 43 44 40
3 43 45 44
3 40 44 41
3 45 43 46
3 41 44 36
3 44 45 36
3 41 47 39
3 41 48 47
3 48 49 47
3 47 49 50
3 37 48 36
3 36 48 41
3 51 52 53
3 54 55 52
3 54 56 55
3 52 55 53
3 55 56 30
3 57 58 38
3 38 58 59
3 57 60 58
3 60 61 58
3 60 53 61
3 58 61 59
3 53 60 51
3 51 60 57
3 59 61 62
3 61 63 62
3 61 53 63
3 62 63 30
3 59 64 38
3 38 64 35
3 59 65 64
3 65 66 64
3 65 22 66
3 59 62 65
3 62 67 65
3 62 30 67
3 65 67 22
3 22 67 27
3 27 67 30
3 30 63 55
3 55 63 53
3 68 69 9
3 68 70 69
3 70 71 69
3 70 34 71
3 69 71 72
3 34 70 38
3 38 70 68
3 72 71 36
3 71 34 36
3 46 73 45
3 74 75 73
3 75 76 73
3 73 76 45
3 45 76 36
3 76 72 36
3 8 77 9
3 9 77 68
3 8 78 77
3 78 79 77
3 78 57 79
3 77 79 68
3 57 78 51
3 68 79 38
3 79 57 38
3 80 81 82
3 81 83 82
3 81 29 83
3 82 83 84
3 29 85 83
3 85 86 83
3 85 56 86
3 83 86 84
3 56 85 30
3 30 85 29
3 84 86 87
3 86 88 87
3 86 56 88
3 87 88 0
3 84 87 89
3 2 87 0
3 2 89 87
3 84 89 82
3 89 90 82
3 89 15 90
3 82 90 80
3 7 91 92
3 91 93 92
3 91 9 93
3 92 93 74
3 9 91 6
3 6 91 7
3 80 90 94
3 13 90 15
3 29 81 28
3 28 81 95
3 54 88 56
3 74 93 75
3 39 96 97
3 96 98 97
3 96 50 98
3 97 98 14
3 50 99 98
3 99 100 98
3 99 26 100
3 98 100 14
3 26 99 25
3 25 99 101
3 14 100 94
3 100 95 94
3 100 26 95
3 94 95 80
3 20 102 103
3 102 104 103
3 102 74 104
3 103 104 46
3 39 97 105
3 11 97 14
3 14 94 13
3 13 94 90
3 20 103 19
3 19 103 106
3 80 95 81
3 28 95 26
3 50 96 47
3 47 96 39
3 46 104 73
3 73 104 74
3 74 102 92
3 92 102 107
3 10 108 105
3 108 109 105
3 108 42 109
3 105 109 39
3 3 110 111
3 110 112 111
3 110 113 112
3 111 112 51
3 114 115 116
3 115 107 116
3 115 7 107
3 116 107 20
3 7 115 5
3 5 115 117
3 3 111 4
3 10 105 11
3 11 105 97
3 17 116 20
3 39 109 40
3 40 109 42
3 51 112 52
3 52 112 113
3 20 107 102
3 92 107 7
3 118 119 120
3 119 121 120
3 119 21 121
3 120 121 10
3 21 106 122
3 106 123 122
3 106 46 123
3 122 123 42
3 2 124 125
3 124 126 125
3 124 118 126
3 125 126 15
3 114 127 117
3 127 128 117
3 127 129 128
3 117 128 3
3 129 127 130
3 130 127 131
3 118 124 132
3 133 124 2
3 114 117 115
3 5 117 3
3 118 120 126
3 12 120 10
3 15 126 12
3 12 126 120
3 21 119 18
3 46 106 103
3 19 106 21
3 42 123 43
3 43 123 46
3 2 125 89
3 89 125 15
3 21 122 121
3 108 122 42
3 10 121 108
3 108 121 122
3 3 128 110
3 110 128 134
3 129 135 134
3 135 136 134
3 135 0 136
3 134 136 113
3 0 135 1
3 1 135 129
3 130 137 129
3 129 137 1
3 130 138 137
3 138 139 137
3 138 133 139
3 137 139 1
3 130 140 138
3 140 141 138
3 140 16 141
3 138 141 133
3 1 139 2
3 139 133 2
3 35 142 33
3 113 143 52
3 143 54 52
3 0 144 136
3 144 143 136
3 144 54 143
3 136 143 113
3 66 145 64
3 64 145 35
3 35 145 142
3 145 24 142
3 145 66 24
3 146 142 25
3 25 24 23
3 22 24 66
3 72 147 69
3 69 147 9
3 75 148 76
3 148 72 76
3 72 148 147
3 148 149 147
3 148 75 149
3 147 149 9
3 54 144 88
3 88 144 0
3 9 149 93
3 93 149 75
3 129 134 128
3 110 134 113
3 4 150 6
3 150 8 6
3 8 150 151
3 150 152 151
3 150 4 152
3 151 152 51
3 18 153 16
3 16 153 141
3 114 154 131
3 154 155 131
3 154 17 155
3 131 155 140
3 37 156 157
3 156 146 157
3 156 33 146
3 157 146 25
3 33 156 31
3 31 156 37
3 37 158 48
3 48 158 49
3 49 101 50
3 50 101 99
3 49 158 101
3 158 157 101
3 158 37 157
3 101 157 25
3 8 151 78
3 78 151 51
3 51 152 111
3 111 152 4
3 17 154 116
3 116 154 114
3 118 159 119
3 119 159 18
3 140 155 16
3 16 155 17
3 114 131 127
3 130 131 140
3 141 132 133
3 133 132 124
3 118 132 159
3 132 153 159
3 132 141 153
3 159 153 18
3 24 25 142
3 142 146 33

CELL_TYPES 316
5
5
5
5
5
5
5
5
5
5
5
5
5
5
5
5
5
5
5
5
5
5
5
5
5
5
5
5
5
5
5
5
5
5
5
5
5
5
5
5
5
5
5
5
5
5
5
5
5
5
5
5
5
5
5
5
5
5
5
5
5
5
5
5
5
5
5
5
5
5
5
5
5
5
5
5
5
5
5
5
5
5
5
5
5
5
5
5
5
5
5
5
5
5
5
5
5
5
5
5
5
5
5
5
5
5
5
5
5
5
5
5
5
5
5
5
5
5
5
5
5
5
5
5
5
5
5
5
5
5
5
5
5
5
5
5
5
5
5
5
5
5
5
5
5
5
5
5
5
5
5
5
5
5
5
5
5
5
5
5
5
5
5
5
5
5
5
5
5
5
5
5
5
5
5
5
5
5
5
5
5
5
5
5
5
5
5
5
5
5
5
5
5
5
5
5
5
5
5
5
5
5
5
5
5
5
5
5
5
5
5
5
5
5
5
5
5
5
5
5
5
5
5
5
5
5
5
5
5
5
5
5
5
5
5
5
5
5
5
5
5
5
5
5
5
5
5
5
5
5
5
5
5
5
5
5
5
5
5
5
5
5
5
5
5
5
5
5
5
5
5
5
5
5
5
5
5
5
5
5
5
5
5
5
5
5
5
5
5
5
5
5
5
5
5
5
5
5
5
5
5
5
5
5
5
5
5
5
5
5
5
5
5
5
5
5

CELL_DATA 316
SCALARS cell_data_0 double
LOOKUP_TABLE default
1.46538878067e-06
5.62761526297e-07
5.65723451912e-07
5.58848216803e-07
1.77943733407e-06
3.44078968535e-07
8.63155117357e-08
1.83465495955e-07
3.37929754484e-07
3.87267775914e-07
7.4427902523e-07
3.18375326518e-08
4.53042335154e-07
3.8500328625e-07
1.59936783123e-06
2.8164475906e-07
2.36205139458e-08
3.04753041657e-07
2.99901757478e-08
6.45759598967e-07
3.55735172345e-07
6.41494494608e-07
5.56062375161e-07
7.71611840102e-07
1.14741752818e-06
1.3405289578e-06
1.2748161476e-06
1.11602692696e-06
1.51913084554e-07
1.83925255302e-07
8.03533940683e-08
2.6170697317e-07
1.1281023525e-06
1.06543218056e-06
1.16906782863e-06
1.32738009594e-06
2.87063219062e-07
1.64826937513e-07
1.31152869125e-07
1.08878283606e-06
8.98896610882e-07
1.54338205592e-06
5.51372192946e-08
2.09587797568e-07
5.47879173187e-07
6.39972486438e-07
1.43110359833e-06
5.65147952669e-07
5.02000534766e-07
1.30288068251e-08
3.6719342556e-07
8.02533648814e-07
8.98770483314e-07
1.03980110792e-06
8.91109755166e-07
3.40967203602e-07
3.74480699661e-07
3.76245212552e-07
5.83586582983e-07
1.85246488184e-06
8.14404941749e-07
6.22797251122e-08
3.44083177952e-07
8.9118850859e-07
2.73953833438e-07
2.74974372176e-07
3.16707251985e-07
3.86643316399e-07
1.46742559924e-07
2.13542145086e-07
6.74966049239e-07
1.40227805924e-06
2.63956435908e-07
5.41949110489e-08
4.3789709733e-07
3.18842231411e-07
1.56779748595e-06
1.85283042989e-06
7.0510453764e-07
9.5685219593e-07
1.10921619454e-06
6.63422973563e-07
1.43943462622e-07
2.31310440263e-07
1.21952885614e-06
8.28838400285e-07
1.248403421e-06
1.18609675462e-06
1.96611232316e-08
8.68052143307e-08
5.02759740336e-07
1.4625740065e-07
1.36883802326e-06
1.9229239149e-06
1.49051823315e-06
2.74582786973e-07
2.26108931468e-07
4.77442846787e-07
2.44621635066e-07
4.14503890166e-07
1.08189105935e-07
2.30506879742e-09
2.04428690424e-07
4.67594969179e-07
2.00845001536e-07
5.5561339731e-08
2.27298816598e-07
1.38401687218e-07
1.98221415532e-07
6.0695797682e-08
1.35022363611e-06
1.43759250119e-06
1.25426408691e-07
1.49189004721e-07
1.08340544919e-07
1.41425505642e-07
2.94724840088e-07
4.109224381e-08
2.37771034754e-08
5.35711369626e-07
3.17990567454e-07
4.09112504925e-07
8.79191263741e-08
9.3538778078e-08
4.33216817262e-07
1.3752641987e-07
2.59956792751e-07
5.19145898913e-07
2.66597969582e-07
2.39468645986e-07
3.79054164845e-07
1.83717539687e-07
1.99890778747e-07
1.00734183565e-07
1.42045406483e-07
2.89208596955e-07
1.49355539961e-06
1.08294293433e-06
1.13199209175e-07
1.10242270474e-07
6.12474990015e-08
1.11297175667e-07
4.60241623519e-08
2.82408002442e-08
6.35812218764e-07
3.03884847613e-07
3.02647905024e-07
3.85637990697e-08
4.873892762e-09
3.55477719384e-07
4.09191019655e-08
1.94540547782e-07
2.0190410976e-07
9.17241381961e-08
2.01170169046e-07
1.65736999147e-08
2.27821205944e-08
7.18532086007e-07
5.41715708192e-07
3.59461634315e-08
3.5939390761e-08
1.0365263444e-07
2.92976695737e-08
9.12314386467e-08
1.14736568512e-07
5.35583104934e-08
2.59623209337e-07
9.20843698059e-09
3.4710983486e-08
9.54712310123e-08
4.33204058311e-07
9.5516727368e-08
6.33082708808e-07
5.53041477381e-08
2.91876597032e-07
1.38998925838e-07
3.93039501532e-07
7.83279879361e-08
1.93831287048e-07
1.19121267633e-08
6.23401955846e-07
1.08917855888e-07
1.94030783123e-09
2.86743225408e-07
1.88522233449e-07
4.2107004111e-08
1.62500515836e-07
1.01082853847e-07
1.48972993063e-08
9.57299622957e-08
2.52516331844e-07
6.72277007991e-08
2.27441231342e-08
4.24013250164e-08
2.74718689814e-07
2.40362713518e-08
4.33994073815e-08
4.96730748032e-08
2.03332955767e-07
1.90798485653e-07
1.10667169454e-08
6.18419736529e-08
7.44091340005e-08
2.42539539709e-07
1.60040529731e-07
2.34944799833e-07
1.16958035608e-07
3.51917837837e-08
9.70197526555e-09
1.52610608229e-07
3.36598799132e-07
6.68631255232e-08
9.78565841999e-09
7.18613594123e-08
5.56420506995e-08
2.34644053755e-07
5.85557008987e-08
1.01363338642e-07
2.05268554416e-08
8.72509045581e-08
1.85591513948e-08
1.8095872305e-07
1.72985714701e-08
1.57695904781e-07
5.88341778179e-08
1.76821410182e-07
2.16301643442e-07
1.09201627336e-07
5.72467373442e-08
4.48692560124e-08
7.5125233143e-08
1.94559153158e-07
9.47357523838e-08
1.2752040122e-07
1.97065085907e-07
1.1928548552e-07
3.90445436175e-08
6.19668161381e-08
8.51477668803e-08
8.56998227788e-08
1.77244135335e-07
6.51506340975e-08
6.18104202774e-09
1.46253098638e-07
8.38945133513e-08
4.00486397553e-08
1.57236156861e-08
1.8851861278e-07
6.07794914089e-08
1.86979693355e-07
7.57160003899e-08
1.00005614197e-07
6.74872825039e-09
7.69580367046e-08
8.88187815003e-07
1.65580220025e-07
2.08442977921e-07
2.11786675394e-07
3.1493702023e-08
3.01339994743e-07
1.76329193847e-07
5.92610918612e-08
5.87524479978e-08
7.91276077879e-08
9.66631204758e-08
8.22671521405e-09
4.41685547543e-08
7.54389027532e-08
1.3425154687e-07
2.14778207601e-07
2.25041785213e-07
1.68933420599e-07
4.27376546651e-08
9.42265621123e-08
1.65296846309e-07
4.00122967311e-08
2.53037937182e-07
5.90495217958e-08
1.0425024118e-08
1.33332657782e-07
4.05327724467e-08
1.05960075458e-07
1.68464269867e-08
8.11864201889e-08
1.01431063552e-07
2.63728263627e-08
1.72479311973e-07
1.52342549461e-07
1.94158082166e-07
1.38053925957e-08
2.49801834975e-07
8.33149998225e-07
8.29621062532e-08
1.57082795017e-07
1.42098704054e-08
1.48505014193e-08
5.90478420639e-08
4.59036314553e-07
2.68165213087e-08
1.83518789185e-07
2.71059664632e-08
2.63300336673e-08
1.10975574891e-07
2.45384174574e-07
5.6343671355e-08
9.90884611081e-08
6.14297968462e-08
5.0253753512e-08
1.77328700684e-08
1.13864797442e-07
9.43582365663e-08
1.28803229245e-07
9.4837625268e-08
2.10855126537e-07
3.00161622935e-08
1.07327378054e-07

