# vtk DataFile Version 3.0
File Name: Molecule/sphere_cent/sphere_cent_0-s9.vtk
ASCII
DATASET UNSTRUCTURED_GRID
FIELD FieldData 1
TIME 1 1 double
0.0
POINTS 321 double
1.70130162 -1.05146222 0.0
1.72533696 -0.86777713 -0.51978383
1.92387672 -0.54653306 0.0
1.90211303 -0.3249197 -0.52573111
1.38756095 -0.32124407 -1.40409289
1.38756095 0.32124407 -1.40409289
1.70130162 0.0 -1.05146222
1.05146222 0.0 -1.70130162
1.90211303 0.3249197 -0.52573111
1.72533696 0.86777713 -0.51978383
1.92387672 0.54653306 0.0
1.70130162 1.05146222 0.0
1.40409289 1.38756095 -0.32124407
1.37638192 1.17557051 -0.85065081
0.86777713 0.51978383 -1.72533696
1.17557051 0.85065081 -1.37638192
0.85065081 1.37638192 -1.17557051
0.32124407 1.40409289 -1.38756095
0.51978383 1.72533696 -0.86777713
0.61803399 1.0 -1.61803399
0.0 1.70130162 -1.05146222
1.40409289 1.38756095 0.32124407
1.05146222 1.70130162 0.0
0.0 1.92387672 -0.54653306
0.52573111 1.90211303 -0.3249197
0.0 2.0 0.0
0.52573111 1.90211303 0.3249197
0.0 1.92387672 0.54653306
0.51978383 1.72533696 0.86777713
0.0 1.70130162 1.05146222
-0.51978383 1.72533696 0.86777713
-0.52573111 1.90211303 0.3249197
-1.0 1.61803399 0.61803399
-0.52573111 1.90211303 -0.3249197
-1.05146222 1.70130162 0.0
-1.0 1.61803399 -0.61803399
-0.51978383 1.72533696 -0.86777713
-1.40409289 1.38756095 0.32124407
-1.40409289 1.38756095 -0.32124407
-1.70130162 1.05146222 0.0
-0.32124407 1.40409289 1.38756095
-0.85065081 1.37638192 1.17557051
-1.37638192 1.17557051 0.85065081
-1.72533696 0.86777713 0.51978383
-1.61803399 0.61803399 1.0
-1.17557051 0.85065081 1.37638192
-1.38756095 0.32124407 1.40409289
-0.86777713 0.51978383 1.72533696
-1.05146222 0.0 1.70130162
0.32124407 1.40409289 1.38756095
0.0 1.05146222 1.70130162
-0.61803399 1.0 1.61803399
0.61803399 1.0 1.61803399
-0.3249197 0.52573111 1.90211303
-0.54653306 0.0 1.92387672
0.3249197 0.52573111 1.90211303
0.86777713 0.51978383 1.72533696
0.54653306 0.0 1.92387672
1.05146222 0.0 1.70130162
-0.86777713 -0.51978383 1.72533696
-0.3249197 -0.52573111 1.90211303
-0.61803399 -1.0 1.61803399
0.0 -1.05146222 1.70130162
-0.32124407 -1.40409289 1.38756095
0.32124407 -1.40409289 1.38756095
0.0 -1.70130162 1.05146222
0.3249197 -0.52573111 1.90211303
0.86777713 -0.51978383 1.72533696
1.38756095 -0.32124407 1.40409289
1.17557051 -0.85065081 1.37638192
0.61803399 -1.0 1.61803399
1.61803399 -0.61803399 1.0
0.85065081 -1.37638192 1.17557051
0.51978383 -1.72533696 0.86777713
1.0 -1.61803399 0.61803399
1.37638192 -1.17557051 0.85065081
1.72533696 -0.86777713 0.51978383
1.40409289 -1.38756095 0.32124407
0.86777713 -0.51978383 -1.72533696
0.54653306 0.0 -1.92387672
0.3249197 -0.52573111 -1.90211303
0.61803399 -1.0 -1.61803399
0.32124407 -1.40409289 -1.38756095
0.0 -1.05146222 -1.70130162
-0.32124407 -1.40409289 -1.38756095
0.0 -1.70130162 -1.05146222
-0.3249197 -0.52573111 -1.90211303
-0.86777713 -0.51978383 -1.72533696
-0.54653306 0.0 -1.92387672
-1.05146222 0.0 -1.70130162
1.90211303 -0.3249197 0.52573111
1.72533696 0.86777713 0.51978383
1.90211303 0.3249197 0.52573111
1.70130162 0.0 1.05146222
1.38756095 0.32124407 1.40409289
1.37638192 1.17557051 0.85065081
1.0 1.61803399 0.61803399
1.61803399 0.61803399 1.0
0.85065081 1.37638192 1.17557051
1.17557051 0.85065081 1.37638192
-1.38756095 -0.32124407 -1.40409289
-1.38756095 0.32124407 -1.40409289
-1.70130162 0.0 -1.05146222
-1.61803399 -0.61803399 -1.0
-1.61803399 0.61803399 -1.0
-1.90211303 -0.3249197 -0.52573111
-1.90211303 0.3249197 -0.52573111
-2.0 0.0 0.0
-1.72533696 -0.86777713 -0.51978383
-1.92387672 -0.54653306 0.0
-1.70130162 -1.05146222 0.0
-1.72533696 0.86777713 -0.51978383
-1.92387672 0.54653306 0.0
-0.32124407 1.40409289 -1.38756095
-0.85065081 1.37638192 -1.17557051
-0.61803399 1.0 -1.61803399
-0.86777713 0.51978383 -1.72533696
-1.17557051 0.85065081 -1.37638192
-1.37638192 1.17557051 -0.85065081
-1.40409289 -1.38756095 -0.32124407
-1.40409289 -1.38756095 0.32124407
-1.05146222 -1.70130162 0.0
-1.0 -1.61803399 -0.61803399
-1.0 -1.61803399 0.61803399
-0.51978383 -1.72533696 -0.86777713
-0.52573111 -1.90211303 -0.3249197
0.0 -1.92387672 -0.54653306
0.0 -2.0 0.0
-0.52573111 -1.90211303 0.3249197
-0.51978383 -1.72533696 0.86777713
0.0 -1.92387672 0.54653306
-1.72533696 -0.86777713 0.51978383
-1.37638192 -1.17557051 0.85065081
-1.61803399 -0.61803399 1.0
-0.85065081 -1.37638192 1.17557051
-1.17557051 -0.85065081 1.37638192
-1.38756095 -0.32124407 1.40409289
-1.90211303 0.3249197 0.52573111
-1.90211303 -0.3249197 0.52573111
-0.61803399 -1.0 -1.61803399
-0.85065081 -1.37638192 -1.17557051
1.78201305 -0.47735386 -0.77237477
1.61803399 -0.61803399 -1.0
1.68035577 -0.31286893 -1.03851698
1.82596499 -0.16464716 -0.7992141
1.61803399 0.61803399 -1.0
1.51587084 0.907981 -0.9368597
1.20300191 1.41421356 -0.74349607
1.0 1.61803399 -0.61803399
1.41421356 0.74349607 -1.20300191
1.29315558 1.02675088 -1.12850842
1.02675088 1.12850842 -1.29315558
1.12850842 1.29315558 -1.02675088
0.9368597 1.51587084 -0.907981
-0.74349607 1.20300191 1.41421356
-1.12850842 1.29315558 1.02675088
-1.29315558 1.02675088 1.12850842
-1.02675088 1.12850842 1.29315558
-0.907981 0.9368597 1.51587084
-0.16464716 0.7992141 1.82596499
0.0 0.5328094 1.92772253
0.16464716 0.7992141 1.82596499
-0.16448493 0.26614221 1.97537668
0.16448493 0.26614221 1.97537668
0.0 0.0 2.0
1.02675088 -1.12850842 1.29315558
1.12850842 -1.29315558 1.02675088
1.29315558 -1.02675088 1.12850842
1.12850842 1.29315558 1.02675088
1.02675088 1.12850842 1.29315558
1.29315558 1.02675088 1.12850842
-0.7992141 -1.82596499 -0.16464716
-0.5328094 -1.92772253 0.0
-0.7992141 -1.82596499 0.16464716
1.97537668 -0.16448493 -0.26614221
2.0 0.0 0.0
1.68035577 0.31286893 -1.03851698
1.82596499 0.16464716 -0.7992141
1.78201305 0.47735386 -0.77237477
1.92772253 0.0 -0.5328094
1.97537668 0.16448493 -0.26614221
1.03851698 1.68035577 -0.31286893
1.03851698 1.68035577 0.31286893
0.77237477 1.78201305 -0.47735386
0.7992141 1.82596499 -0.16464716
0.5328094 1.92772253 0.0
0.7992141 1.82596499 0.16464716
0.77237477 1.78201305 0.47735386
0.16448493 -0.26614221 -1.97537668
0.16464716 -0.7992141 -1.82596499
-0.16464716 -0.7992141 -1.82596499
0.0 -0.5328094 -1.92772253
-0.31286893 -1.03851698 -1.68035577
-0.47735386 -0.77237477 -1.78201305
-0.16448493 -0.26614221 -1.97537668
0.0 0.0 -2.0
1.97537668 -0.16448493 0.26614221
1.97537668 0.16448493 0.26614221
1.92772253 0.0 0.5328094
-1.02675088 1.12850842 -1.29315558
-1.29315558 1.02675088 -1.12850842
-1.12850842 1.29315558 -1.02675088
0.75007714 0.76722747 -1.68782295
0.71645759 0.26331074 -1.8486092
0.44023406 0.26558495 -1.93278519
0.60251776 0.5281655 -1.83248835
0.3249197 0.52573111 -1.90211303
0.27590449 0.0 -1.98087776
0.16448493 0.26614221 -1.97537668
0.47735386 0.77237477 -1.78201305
-0.16448493 0.26614221 -1.97537668
0.0 0.5328094 -1.92772253
-0.3249197 0.52573111 -1.90211303
-0.16464716 0.7992141 -1.82596499
0.16464716 0.7992141 -1.82596499
0.0 1.05146222 -1.70130162
-0.47735386 0.77237477 -1.78201305
-0.31286893 1.03851698 -1.68035577
0.31286893 1.03851698 -1.68035577
1.41421356 -0.74349607 -1.20300191
0.907981 -0.9368597 -1.51587084
1.51587084 -0.907981 -0.9368597
1.29315558 -1.02675088 -1.12850842
1.37638192 -1.17557051 -0.85065081
1.17557051 -0.85065081 -1.37638192
1.12850842 -1.29315558 -1.02675088
1.02675088 -1.12850842 -1.29315558
0.85065081 -1.37638192 -1.17557051
1.20300191 -1.41421356 -0.74349607
0.9368597 -1.51587084 -0.907981
1.0 -1.61803399 -0.61803399
0.74349607 -1.20300191 -1.41421356
1.68782295 -0.75007714 -0.76722747
1.56690339 -1.03224324 -0.69230603
1.58529846 -1.14250332 -0.42604573
1.40461969 -1.29482379 -0.59200919
1.40409289 -1.38756095 -0.32124407
1.2136503 -1.5173046 -0.47417265
0.51978383 -1.72533696 -0.86777713
-0.1622837 1.24047916 -1.56040874
0.1622837 1.24047916 -1.56040874
0.0 1.42256347 -1.40581406
1.78201305 -0.47735386 0.77237477
1.82596499 -0.16464716 0.7992141
1.68035577 -0.31286893 1.03851698
0.77237477 -1.78201305 -0.47735386
0.26614221 -1.97537668 -0.16448493
1.03851698 -1.68035577 -0.31286893
0.7992141 -1.82596499 -0.16464716
1.05146222 -1.70130162 0.0
0.52573111 -1.90211303 -0.3249197
0.7992141 -1.82596499 0.16464716
0.5328094 -1.92772253 0.0
0.52573111 -1.90211303 0.3249197
1.03851698 -1.68035577 0.31286893
0.77237477 -1.78201305 0.47735386
0.26614221 -1.97537668 0.16448493
1.14250332 -0.42604573 -1.58529846
1.29482379 -0.59200919 -1.40461969
1.03224324 -0.69230603 -1.56690339
0.69230603 -1.56690339 -1.03224324
0.59200919 -1.40461969 -1.29482379
0.42604573 -1.58529846 -1.14250332
-0.71645759 0.26331074 -1.8486092
-0.44023406 0.26558495 -1.93278519
-0.60251776 0.5281655 -1.83248835
-0.16448493 -0.26614221 1.97537668
0.0 -0.5328094 1.92772253
0.16448493 -0.26614221 1.97537668
1.78201305 0.47735386 0.77237477
1.82596499 0.16464716 0.7992141
1.68035577 0.31286893 1.03851698
-1.68035577 0.31286893 1.03851698
-1.78201305 0.47735386 0.77237477
-1.82596499 0.16464716 0.7992141
-1.41421356 -0.74349607 -1.20300191
-1.02675088 -1.12850842 -1.29315558
-1.17557051 -0.85065081 -1.37638192
-1.12850842 -1.29315558 -1.02675088
-1.29315558 -1.02675088 -1.12850842
-1.37638192 -1.17557051 -0.85065081
-0.9368597 -1.51587084 -0.907981
-1.20300191 -1.41421356 -0.74349607
-1.51587084 -0.907981 -0.9368597
0.26331074 -1.8486092 -0.71645759
0.5281655 -1.83248835 -0.60251776
0.26558495 -1.93278519 -0.44023406
1.42256347 -1.40581406 0.0
1.24047916 -1.56040874 -0.1622837
1.24047916 -1.56040874 0.1622837
0.31286893 -1.03851698 1.68035577
0.16464716 -0.7992141 1.82596499
0.47735386 -0.77237477 1.78201305
-1.12850842 -1.29315558 1.02675088
-1.02675088 -1.12850842 1.29315558
-1.29315558 -1.02675088 1.12850842
-0.74349607 -1.20300191 1.41421356
-0.907981 -0.9368597 1.51587084
-1.5173046 -0.47417265 1.2136503
-1.40581406 0.0 1.42256347
-1.56040874 0.1622837 1.24047916
-1.56040874 -0.1622837 1.24047916
-1.70130162 0.0 1.05146222
-1.68035577 -0.31286893 1.03851698
-1.97537668 0.16448493 0.26614221
-1.92772253 0.0 0.5328094
-1.97537668 -0.16448493 0.26614221
-1.82596499 -0.16464716 0.7992141
-1.78201305 -0.47735386 0.77237477
-1.14250332 -0.42604573 -1.58529846
-1.03224324 -0.69230603 -1.56690339
-1.29482379 -0.59200919 -1.40461969
-1.40461969 -1.29482379 -0.59200919
-1.56690339 -1.03224324 -0.69230603
-1.58529846 -1.14250332 -0.42604573
0.5281655 -1.83248835 0.60251776
0.26558495 -1.93278519 0.44023406
0.26331074 -1.8486092 0.71645759
-1.87026089 0.24560048 0.66468384
-1.76952005 0.08259836 0.9284268
-1.88297979 -0.08095055 0.66920409

CELLS 638 2552
3 0 1 2
3 1 3 2
3 4 5 6
3 4 7 5
3 8 9 10
3 10 9 11
3 11 9 12
3 9 13 12
3 5 14 15
3 5 7 14
3 16 17 18
3 16 19 17
3 18 17 20
3 11 12 21
3 12 22 21
3 18 23 24
3 18 20 23
3 24 23 25
3 26 27 28
3 26 25 27
3 28 27 29
3 29 27 30
3 27 31 30
3 27 25 31
3 30 31 32
3 25 33 31
3 33 34 31
3 33 35 34
3 31 34 32
3 25 23 33
3 23 36 33
3 23 20 36
3 33 36 35
3 32 34 37
3 34 38 37
3 34 35 38
3 37 38 39
3 29 30 40
3 30 41 40
3 30 32 41
3 32 37 42
3 37 43 42
3 37 39 43
3 42 43 44
3 45 46 47
3 45 44 46
3 47 46 48
3 29 40 49
3 40 50 49
3 40 51 50
3 49 50 52
3 51 47 53
3 47 54 53
3 47 48 54
3 52 55 56
3 55 57 56
3 56 57 58
3 48 59 54
3 59 60 54
3 59 61 60
3 61 62 60
3 61 63 62
3 63 64 62
3 63 65 64
3 66 67 57
3 57 67 58
3 58 67 68
3 67 69 68
3 67 70 69
3 68 69 71
3 70 64 72
3 64 73 72
3 64 65 73
3 72 73 74
3 71 75 76
3 75 77 76
3 75 74 77
3 76 77 0
3 7 78 79
3 78 80 79
3 78 81 80
3 81 82 83
3 82 84 83
3 82 85 84
3 86 87 88
3 88 87 89
3 0 2 76
3 2 90 76
3 10 91 92
3 10 11 91
3 93 94 68
3 68 94 58
3 11 21 91
3 21 95 91
3 21 96 95
3 91 95 97
3 96 28 98
3 28 49 98
3 28 29 49
3 98 49 52
3 97 99 94
3 99 56 94
3 99 52 56
3 94 56 58
3 89 100 101
3 100 102 101
3 100 103 102
3 101 102 104
3 103 105 102
3 105 106 102
3 105 107 106
3 102 106 104
3 103 108 105
3 108 109 105
3 108 110 109
3 105 109 107
3 104 106 111
3 106 112 111
3 106 107 112
3 111 112 39
3 20 113 36
3 113 114 36
3 113 115 114
3 36 114 35
3 115 116 117
3 116 101 117
3 116 89 101
3 117 101 104
3 35 118 38
3 118 111 38
3 118 104 111
3 38 111 39
3 110 119 120
3 119 121 120
3 119 122 121
3 120 121 123
3 122 124 125
3 124 126 125
3 124 85 126
3 125 126 127
3 123 128 129
3 128 130 129
3 128 127 130
3 129 130 65
3 110 120 131
3 120 132 131
3 120 123 132
3 131 132 133
3 123 129 134
3 129 63 134
3 129 65 63
3 135 59 136
3 136 59 48
3 43 112 137
3 43 39 112
3 138 109 131
3 131 109 110
3 139 84 140
3 84 124 140
3 84 85 124
3 1 141 3
3 142 143 141
3 143 144 141
3 143 6 144
3 141 144 3
3 6 143 4
3 4 143 142
3 145 146 9
3 9 146 13
3 13 147 12
3 12 147 148
3 145 149 146
3 149 150 146
3 149 15 150
3 146 150 13
3 15 151 150
3 151 152 150
3 151 16 152
3 150 152 13
3 16 151 19
3 19 151 15
3 13 152 147
3 152 153 147
3 152 16 153
3 147 153 148
3 15 149 5
3 5 149 145
3 148 153 18
3 153 16 18
3 41 154 40
3 40 154 51
3 42 155 32
3 32 155 41
3 42 156 155
3 156 157 155
3 156 45 157
3 155 157 41
3 45 156 44
3 44 156 42
3 41 157 154
3 157 158 154
3 157 45 158
3 154 158 51
3 51 158 47
3 158 45 47
3 53 159 51
3 51 159 50
3 53 160 159
3 160 161 159
3 160 55 161
3 159 161 50
3 53 162 160
3 162 163 160
3 162 164 163
3 160 163 55
3 50 161 52
3 161 55 52
3 164 162 54
3 54 162 53
3 55 163 57
3 163 164 57
3 72 165 70
3 70 165 69
3 72 166 165
3 166 167 165
3 166 75 167
3 165 167 69
3 75 166 74
3 74 166 72
3 69 167 71
3 167 75 71
3 98 168 96
3 96 168 95
3 98 169 168
3 169 170 168
3 169 99 170
3 168 170 95
3 99 169 52
3 52 169 98
3 95 170 97
3 170 99 97
3 125 171 122
3 122 171 121
3 125 172 171
3 172 173 171
3 172 128 173
3 171 173 121
3 128 172 127
3 127 172 125
3 121 173 123
3 173 128 123
3 3 174 2
3 2 174 175
3 6 176 177
3 176 178 177
3 176 145 178
3 177 178 8
3 3 179 174
3 179 180 174
3 179 8 180
3 174 180 175
3 145 176 5
3 5 176 6
3 175 180 10
3 180 8 10
3 8 178 9
3 178 145 9
3 148 181 12
3 12 181 22
3 22 182 21
3 21 182 96
3 148 183 181
3 183 184 181
3 183 24 184
3 181 184 22
3 24 185 184
3 185 186 184
3 185 26 186
3 184 186 22
3 26 185 25
3 25 185 24
3 22 186 182
3 186 187 182
3 186 26 187
3 182 187 96
3 24 183 18
3 18 183 148
3 96 187 28
3 187 26 28
3 80 188 79
3 83 189 81
3 81 189 80
3 83 190 189
3 190 191 189
3 190 86 191
3 189 191 80
3 83 192 190
3 192 193 190
3 192 139 193
3 190 193 86
3 80 191 188
3 191 194 188
3 191 86 194
3 188 194 195
3 139 192 84
3 84 192 83
3 195 194 88
3 194 86 88
3 86 193 87
3 193 139 87
3 175 196 2
3 2 196 90
3 175 197 196
3 197 198 196
3 197 92 198
3 196 198 90
3 92 197 10
3 10 197 175
3 117 199 115
3 115 199 114
3 117 200 199
3 200 201 199
3 200 118 201
3 199 201 114
3 118 200 104
3 104 200 117
3 114 201 35
3 201 118 35
3 8 179 144
3 144 179 3
3 6 177 144
3 144 177 8
3 14 202 15
3 15 202 19
3 79 203 7
3 7 203 14
3 79 204 203
3 204 205 203
3 204 206 205
3 203 205 14
3 79 207 204
3 207 208 204
3 207 195 208
3 204 208 206
3 14 205 202
3 205 209 202
3 205 206 209
3 202 209 19
3 195 210 208
3 210 211 208
3 210 212 211
3 208 211 206
3 212 213 211
3 213 214 211
3 213 215 214
3 211 214 206
3 212 216 213
3 216 217 213
3 216 115 217
3 213 217 215
3 206 214 209
3 214 218 209
3 214 215 218
3 209 218 19
3 88 210 195
3 115 216 116
3 19 218 17
3 217 115 113
3 195 207 188
3 188 207 79
3 142 219 4
3 78 220 81
3 142 221 219
3 221 222 219
3 221 223 222
3 219 222 224
3 223 225 222
3 225 226 222
3 225 227 226
3 222 226 224
3 223 228 225
3 228 229 225
3 228 230 229
3 225 229 227
3 224 226 220
3 226 231 220
3 226 227 231
3 220 231 81
3 142 232 221
3 232 233 221
3 232 1 233
3 221 233 223
3 1 234 233
3 234 235 233
3 234 236 235
3 233 235 223
3 236 234 0
3 0 234 1
3 223 235 228
3 235 237 228
3 235 236 237
3 228 237 230
3 81 231 82
3 229 230 238
3 215 239 240
3 239 241 240
3 239 113 241
3 240 241 17
3 17 241 20
3 241 113 20
3 1 232 141
3 141 232 142
3 215 240 218
3 218 240 17
3 113 239 217
3 217 239 215
3 90 242 76
3 76 242 71
3 90 243 242
3 243 244 242
3 243 93 244
3 242 244 71
3 71 244 68
3 244 93 68
3 230 245 238
3 126 246 127
3 230 247 245
3 247 248 245
3 247 249 248
3 245 248 250
3 249 251 248
3 251 252 248
3 251 253 252
3 248 252 250
3 249 254 251
3 254 255 251
3 254 74 255
3 251 255 253
3 250 252 246
3 252 256 246
3 252 253 256
3 246 256 127
3 74 254 77
3 127 256 130
3 255 74 73
3 4 257 7
3 7 257 78
3 4 258 257
3 258 259 257
3 258 224 259
3 257 259 78
3 227 260 261
3 260 262 261
3 260 238 262
3 261 262 82
3 82 262 85
3 262 238 85
3 88 263 264
3 263 265 264
3 263 116 265
3 264 265 212
3 116 263 89
3 89 263 88
3 93 243 198
3 198 243 90
3 88 264 210
3 210 264 212
3 212 265 216
3 216 265 116
3 249 247 237
3 237 247 230
3 224 258 219
3 219 258 4
3 78 259 220
3 220 259 224
3 227 261 231
3 231 261 82
3 238 260 229
3 229 260 227
3 60 266 54
3 54 266 164
3 62 267 60
3 60 267 266
3 267 268 266
3 267 66 268
3 266 268 164
3 164 268 57
3 268 66 57
3 92 269 270
3 269 271 270
3 269 97 271
3 270 271 93
3 97 269 91
3 91 269 92
3 93 271 94
3 271 97 94
3 44 272 46
3 44 273 272
3 273 274 272
3 137 273 43
3 43 273 44
3 100 275 103
3 140 276 139
3 139 276 277
3 140 278 276
3 278 279 276
3 278 280 279
3 276 279 277
3 140 281 278
3 281 282 278
3 281 122 282
3 278 282 280
3 277 279 275
3 279 283 275
3 279 280 283
3 275 283 103
3 122 281 124
3 124 281 140
3 103 283 108
3 282 122 119
3 238 284 85
3 85 284 126
3 238 285 284
3 285 286 284
3 285 250 286
3 284 286 126
3 236 287 288
3 287 289 288
3 287 77 289
3 288 289 249
3 77 287 0
3 0 287 236
3 92 270 198
3 198 270 93
3 236 288 237
3 237 288 249
3 250 285 245
3 245 285 238
3 126 286 246
3 246 286 250
3 249 289 254
3 254 289 77
3 62 290 291
3 290 292 291
3 290 70 292
3 291 292 66
3 70 290 64
3 64 290 62
3 66 292 67
3 292 70 67
3 134 293 123
3 123 293 132
3 134 294 293
3 294 295 293
3 294 135 295
3 293 295 132
3 134 296 294
3 296 297 294
3 296 61 297
3 294 297 135
3 132 295 133
3 295 135 133
3 61 296 63
3 63 296 134
3 136 298 135
3 135 298 133
3 135 297 59
3 297 61 59
3 46 299 48
3 48 299 136
3 46 300 299
3 300 301 299
3 300 302 301
3 299 301 136
3 136 301 298
3 301 303 298
3 301 302 303
3 298 303 133
3 137 304 305
3 304 306 305
3 304 107 306
3 305 306 138
3 302 307 303
3 307 308 303
3 307 138 308
3 303 308 133
3 107 304 112
3 112 304 137
3 133 308 131
3 308 138 131
3 138 306 109
3 306 107 109
3 87 309 89
3 89 309 100
3 87 310 309
3 310 311 309
3 310 277 311
3 309 311 100
3 277 310 139
3 139 310 87
3 280 312 313
3 312 314 313
3 312 119 314
3 313 314 108
3 108 314 110
3 314 119 110
3 253 315 316
3 315 317 316
3 315 73 317
3 316 317 130
3 130 317 65
3 317 73 65
3 253 316 256
3 256 316 130
3 73 315 255
3 255 315 253
3 62 291 267
3 267 291 66
3 302 300 272
3 272 300 46
3 137 318 273
3 273 318 274
3 274 319 272
3 272 319 302
3 302 319 307
3 319 320 307
3 319 274 320
3 307 320 138
3 138 320 305
3 320 318 305
3 320 274 318
3 305 318 137
3 100 311 275
3 275 311 277
3 280 313 283
3 283 313 108
3 119 312 282
3 282 312 280

CELL_TYPES 638
5
5
5
5
5
5
5
5
5
5
5
5
5
5
5
5
5
5
5
5
5
5
5
5
5
5
5
5
5
5
5
5
5
5
5
5
5
5
5
5
5
5
5
5
5
5
5
5
5
5
5
5
5
5
5
5
5
5
5
5
5
5
5
5
5
5
5
5
5
5
5
5
5
5
5
5
5
5
5
5
5
5
5
5
5
5
5
5
5
5
5
5
5
5
5
5
5
5
5
5
5
5
5
5
5
5
5
5
5
5
5
5
5
5
5
5
5
5
5
5
5
5
5
5
5
5
5
5
5
5
5
5
5
5
5
5
5
5
5
5
5
5
5
5
5
5
5
5
5
5
5
5
5
5
5
5
5
5
5
5
5
5
5
5
5
5
5
5
5
5
5
5
5
5
5
5
5
5
5
5
5
5
5
5
5
5
5
5
5
5
5
5
5
5
5
5
5
5
5
5
5
5
5
5
5
5
5
5
5
5
5
5
5
5
5
5
5
5
5
5
5
5
5
5
5
5
5
5
5
5
5
5
5
5
5
5
5
5
5
5
5
5
5
5
5
5
5
5
5
5
5
5
5
5
5
5
5
5
5
5
5
5
5
5
5
5
5
5
5
5
5
5
5
5
5
5
5
5
5
5
5
5
5
5
5
5
5
5
5
5
5
5
5
5
5
5
5
5
5
5
5
5
5
5
5
5
5
5
5
5
5
5
5
5
5
5
5
5
5
5
5
5
5
5
5
5
5
5
5
5
5
5
5
5
5
5
5
5
5
5
5
5
5
5
5
5
5
5
5
5
5
5
5
5
5
5
5
5
5
5
5
5
5
5
5
5
5
5
5
5
5
5
5
5
5
5
5
5
5
5
5
5
5
5
5
5
5
5
5
5
5
5
5
5
5
5
5
5
5
5
5
5
5
5
5
5
5
5
5
5
5
5
5
5
5
5
5
5
5
5
5
5
5
5
5
5
5
5
5
5
5
5
5
5
5
5
5
5
5
5
5
5
5
5
5
5
5
5
5
5
5
5
5
5
5
5
5
5
5
5
5
5
5
5
5
5
5
5
5
5
5
5
5
5
5
5
5
5
5
5
5
5
5
5
5
5
5
5
5
5
5
5
5
5
5
5
5
5
5
5
5
5
5
5
5
5
5
5
5
5
5
5
5
5
5
5
5
5
5
5
5
5
5
5
5
5
5
5
5
5
5
5
5
5
5
5
5
5
5
5
5
5
5
5
5
5
5
5
5
5
5
5
5
5
5
5
5
5
5
5
5
5
5
5
5
5
5
5
5
5
5
5
5
5
5
5
5
5
5
5
5
5
5
5
5
5
5
5
5
5
5
5
5
5
5
5
5
5
5
5
5
5
5
5
5
5
5
5
5
5
5
5
5
5
5
5
5
5
5
5
5
5
5
5
5
5
5
5
5
5
5
5
5
5
5
5
5
5

CELL_DATA 638
SCALARS cell_data_0 double
LOOKUP_TABLE default
4.21036341586e-08
7.27372158329e-08
8.75685725685e-08
3.55385800287e-08
7.05443875746e-08
2.03535046902e-08
2.59717451857e-08
7.03527755252e-08
1.16402091703e-07
6.56867789939e-08
2.35674723704e-08
3.62654240231e-08
1.99575160738e-08
3.80499140935e-08
8.2587467513e-08
1.15423322096e-08
4.94220837357e-08
3.00438255354e-08
3.53489727931e-08
1.01649086549e-08
2.08987842464e-08
3.65927325522e-09
5.25415005302e-08
1.12196202955e-08
2.1855517523e-08
9.50632595794e-08
1.19155981626e-07
8.04564173515e-08
1.1232923455e-07
6.02448835255e-08
1.25276980164e-08
4.32631829957e-08
1.65652868868e-08
2.38335143547e-08
1.71944996342e-08
1.01664915585e-08
9.11424627566e-09
1.37231953153e-09
5.63239072601e-08
2.37519584631e-08
1.15963201781e-08
1.13753921769e-08
2.78078849094e-08
4.38381470855e-08
4.16135669996e-08
6.07774081202e-08
7.73990664561e-09
1.39362911942e-08
2.11920707608e-08
2.37851005044e-08
8.71448983022e-09
2.33833170754e-08
5.18926690761e-08
1.49378326092e-08
8.82744152832e-09
4.2992413901e-08
1.27588119714e-08
6.51088736211e-09
7.39343009247e-08
2.23488048855e-08
1.09379728972e-07
2.24913048999e-08
5.34048955904e-08
3.05072606427e-08
1.2499587175e-07
3.32343150229e-08
4.06273582857e-08
6.30472213074e-08
6.73124470758e-08
3.84184072628e-08
3.36262265015e-08
2.05246345166e-08
2.65884191451e-08
4.11736175455e-08
3.92420597016e-08
4.04586483538e-08
4.28430017891e-08
5.65344991649e-08
6.26437637751e-08
3.91807682418e-08
4.73821029317e-08
4.10004426243e-08
5.80265163272e-09
5.22907390823e-09
1.02590320052e-07
9.66631525288e-08
1.05588280821e-08
5.4110260947e-08
7.4481330255e-08
7.71514260587e-09
8.41421282547e-08
5.44318696622e-09
3.44899546661e-08
3.66687955066e-08
4.93103277917e-08
2.36918385127e-08
2.49454353057e-08
1.43518875737e-08
1.34933951578e-08
1.22039025229e-09
2.91834998736e-08
9.72786922846e-09
6.95746160834e-09
2.47161591344e-08
5.22266829506e-08
2.33233066989e-08
3.39660524709e-10
3.28275990065e-08
6.40364491951e-08
9.77291297943e-08
7.88402984243e-08
6.82276619288e-08
9.0944279627e-09
3.52143417825e-09
1.43393037614e-09
1.26319179435e-08
4.89940101719e-08
5.1143633475e-10
1.10781748743e-09
3.25180063234e-08
6.17419961908e-10
2.58230280061e-08
3.79720580545e-08
1.80376690734e-08
4.24484572474e-08
3.39169450697e-08
5.1049447617e-08
5.51194611049e-09
1.53881857006e-08
4.58565981187e-09
3.17342477121e-08
2.92154019851e-08
4.52977868193e-09
2.39987746398e-08
3.45243457681e-08
1.54497729848e-08
4.89875953489e-08
6.14021891713e-08
7.18221759256e-08
8.87450076763e-08
3.76162903732e-08
6.09151385197e-08
6.02047867261e-08
5.85579783751e-08
2.49433176075e-09
1.32127591435e-07
9.98331882849e-08
1.29706153575e-07
8.93764054893e-08
1.64785849135e-07
6.70951465411e-08
2.55230481519e-07
9.2957751862e-08
1.40079266341e-07
3.99209671834e-08
1.64546024195e-07
1.7515647328e-08
9.66277835523e-08
1.24507630069e-07
5.90805451897e-09
2.58741008362e-09
2.3075827507e-08
2.44920949854e-09
3.45112491347e-08
3.7130125072e-08
2.01900288569e-08
1.9191409641e-08
8.61485662159e-09
2.67469072979e-08
2.77071498527e-08
5.56330299834e-09
2.87580011237e-08
1.37524014332e-08
2.0950640327e-08
2.65799473514e-08
2.3738176391e-08
1.70447768981e-08
2.93264168448e-08
1.70075644409e-08
1.86469743717e-08
4.19648687246e-08
2.65659415005e-08
1.34512178389e-08
2.84349574754e-08
2.61698620419e-08
1.58556344654e-08
2.44218928417e-09
1.14038557709e-08
3.39025760351e-08
2.88600404376e-08
4.01342174083e-08
9.57700520581e-09
1.40491224396e-08
4.29465073041e-08
2.50460506524e-09
4.39262766943e-08
3.96200338271e-08
2.62758729896e-08
2.59276562985e-08
3.94263907148e-08
4.79383122672e-11
4.03280766729e-08
3.59039242967e-08
3.68511151366e-08
2.78688714101e-08
5.52186700684e-09
7.89647734506e-09
3.01864757859e-08
1.55394748262e-08
2.77003999085e-08
4.25953078344e-08
2.61031592696e-08
1.40193765955e-08
2.59509375935e-08
2.61218039718e-08
1.18476860684e-08
9.75144109399e-09
9.84549895707e-10
2.32818365275e-08
2.04950380669e-08
3.21192409356e-10
2.8103602504e-08
2.00575156748e-08
3.80456705956e-08
2.09279555791e-08
3.99023905159e-08
4.09167759607e-08
8.5830420821e-09
8.66787900853e-09
8.37290313308e-09
1.58938969907e-08
1.81081102575e-09
2.63104341016e-09
4.72118943345e-08
1.67702182654e-08
3.63490947415e-08
4.17831770998e-08
1.07897394728e-08
7.72354305049e-09
1.94897471071e-08
2.00888451349e-08
2.01683414649e-08
1.3627491222e-08
4.39909070989e-08
1.00159413448e-08
4.51631414114e-08
4.18280862493e-08
1.5380804485e-08
1.90457378062e-08
1.29032425193e-08
1.53098487047e-08
2.69545133767e-08
1.18631212586e-09
1.28914805119e-08
1.97106356662e-08
2.68246060242e-08
3.19378471845e-08
3.17540613686e-08
2.49331668961e-09
4.3891924308e-08
1.76918424034e-08
7.67795900243e-09
2.97552804676e-09
1.64494762297e-09
2.66318505115e-08
2.65797011283e-08
1.50841245413e-08
5.94194851795e-09
2.76680500084e-08
2.92599040276e-08
3.34946258976e-08
2.6124035397e-08
1.49340816324e-08
2.70562499673e-08
2.55434213359e-08
2.88916255246e-08
1.84011917976e-08
2.70401156075e-08
1.55903559765e-08
5.00975108913e-09
2.17232811609e-09
3.22479139049e-08
1.30077391725e-08
2.04588135415e-08
3.37509198302e-08
3.35248054332e-08
1.09632368777e-08
2.73910875956e-08
1.87620683756e-08
2.0475091654e-08
2.84798625735e-08
1.40443358095e-08
3.39926571002e-08
1.66213743279e-08
1.46321036596e-08
2.74789909718e-08
3.52171105499e-08
4.8015211022e-09
4.07298750176e-08
3.00856742797e-08
2.56024083998e-08
1.61279527736e-08
2.29867679745e-08
2.6229446811e-08
5.70360909907e-08
4.21384090712e-08
9.80505679102e-09
2.29396902096e-08
1.47053469999e-08
1.49092726504e-08
1.10755867802e-08
4.24118777137e-08
3.24570435656e-08
4.34456047812e-09
3.31478470507e-08
3.82144522466e-08
2.98600623487e-08
9.95800194406e-09
4.04890701165e-09
6.99313340997e-09
5.81343198263e-08
1.58413331692e-10
5.2350255516e-08
5.16064739868e-08
2.16668650557e-08
1.3700068722e-08
1.70604714086e-08
1.14302032394e-08
7.89841180282e-10
4.82191262646e-08
3.05367715902e-08
1.26777590265e-08
6.08154104638e-10
3.08154123676e-08
2.45094865998e-08
1.28071567624e-08
3.02202314763e-08
6.77285348281e-09
4.91196300551e-09
1.90747111904e-08
3.29132476266e-08
3.1707962083e-09
2.56890965046e-08
3.44640577294e-09
2.12810789181e-08
4.77694746488e-09
4.1143694864e-10
3.36661151014e-08
3.13332056065e-08
1.28437261556e-09
6.5971098784e-09
3.10304699166e-09
1.07118545021e-08
1.17054962609e-09
4.76795198827e-09
4.09427533842e-09
1.07680233817e-08
1.23308026678e-09
4.33290415005e-08
1.76923733381e-09
3.03487933838e-10
9.53643887391e-09
5.25696931696e-09
3.95078729987e-08
8.75589085364e-10
1.73505163978e-08
3.73646559051e-08
2.88221448759e-08
2.54704702003e-08
1.52671840884e-08
1.91251395404e-09
1.53986003835e-09
1.920566077e-08
1.95406980448e-08
1.80712543352e-08
1.78782819684e-08
9.75581855835e-09
5.32099758555e-10
8.62026414763e-09
1.00302168606e-08
1.24888603564e-08
1.39153515107e-08
3.49273033811e-08
1.00772053962e-08
9.14823688291e-09
1.42999331468e-08
1.58825349721e-08
2.36520382399e-08
1.63084315628e-08
1.71871830263e-08
1.29686752297e-08
1.27817285467e-08
2.07820307137e-08
1.72463137582e-08
5.76033264064e-09
2.1285427295e-08
4.43726220856e-08
1.48434889856e-08
2.68376527428e-09
3.39844760952e-09
1.1767672524e-08
3.10816500498e-08
1.42846473268e-08
5.72405139441e-08
1.42554213953e-09
6.71460424301e-10
4.10921930183e-08
3.73567586723e-08
5.15880395016e-08
4.39932897804e-08
2.87616470608e-09
1.74862034396e-08
8.24717998121e-09
2.43966186647e-08
2.38787836661e-08
1.16517826197e-08
3.32886407915e-08
3.78030583538e-08
4.31127845036e-08
8.87567567577e-09
4.87137934361e-08
4.19401744395e-08
3.42799923615e-08
2.86857351236e-08
4.22457571193e-08
1.1241717613e-08
2.83822140489e-08
5.94626566944e-09
7.35712544662e-09
1.22228577663e-08
2.30928752864e-08
2.38129971653e-08
2.5169268788e-08
2.37933722699e-08
2.33604416606e-08
2.60377011094e-08
2.57402829733e-08
2.47094125772e-08
1.02983678376e-08
1.11624370711e-08
2.31187131622e-08
3.50031044106e-08
4.85885798165e-09
5.60970544257e-09
1.41897383769e-08
2.59001760958e-08
2.16242361658e-08
3.16000334285e-08
1.38909303347e-08
1.26928821532e-08
2.86506494109e-08
2.46677633181e-08
1.88170714048e-08
1.83546947107e-09
3.52916189419e-08
2.89550309229e-08
4.03634353582e-08
2.52569562188e-08
1.09806138226e-08
2.79650691935e-08
1.08565129093e-08
5.15108019967e-09
3.53065581495e-09
5.52396753223e-09
4.35132850984e-08
1.42834313919e-08
3.48366703123e-10
5.37253987064e-09
1.14632368936e-08
3.71092777455e-08
2.24563368319e-08
8.18162817116e-09
6.89726059134e-09
5.07458073954e-09
5.71779099981e-09
1.32469780854e-08
1.12885902226e-08
1.86742376174e-08
1.5362164645e-08
1.92182829925e-08
5.14933632452e-09
3.03063071961e-08
3.99226872401e-08
1.9916201445e-08
1.8349422541e-08
1.61143014455e-08
1.01485881805e-08
4.14087059747e-09
1.40730292227e-08
1.02606623546e-08
4.37240225621e-08
3.44080354209e-08
3.39191857616e-08
1.85641212969e-08
4.11445677231e-08
4.9733424363e-08
2.75404807707e-09
2.75065890919e-08
8.77221928796e-10
6.56919063032e-09
3.50129554699e-08
2.64007344832e-08
5.65335660794e-08
4.74664923052e-08
8.070597553e-09
1.23009188212e-08
1.80249381635e-08
6.52626301875e-09
2.6859482452e-09
6.94889021485e-09
3.21267514353e-08
8.16957820642e-09
5.44595805083e-09
2.16602712703e-08
2.50156106615e-08
3.94802228371e-08
3.01040207608e-08
2.27995913936e-08
1.74412474044e-08
2.05775893106e-08
4.15631630304e-08
4.48833965512e-09
4.46110909402e-09
1.19110264343e-08
1.32008594733e-08
2.66871397202e-08
1.01057721311e-09
1.70942892391e-08
2.54614760766e-08
1.59875192066e-08
2.03043329654e-08
4.23532692738e-08
1.86278263257e-08
2.33447040922e-08
5.45432035643e-09
4.60471212061e-08
1.30330372932e-09
8.06414620942e-09
1.32474613175e-08
2.32600389257e-09
1.61934306809e-08
2.76342419091e-09
3.41532946849e-08
1.825266477e-08
2.49840731348e-08
1.9649870696e-08
2.4167516578e-08
3.27618518063e-08
8.911564811e-09
1.37765366884e-08
4.81628277339e-08
6.66116143514e-08
1.14250902367e-08
2.02958067553e-08
7.80298226752e-10