# vtk DataFile Version 3.0
File Name: Molecule/sphere_dip_12/sphere_dip_12_0-s2.vtk
ASCII
DATASET UNSTRUCTURED_GRID
FIELD FieldData 1
TIME 1 1 double
0.0
POINTS 162 double
0.850650808352 -0.525731112119 0.0
0.829833901363 -0.417374053247 -0.25
0.925325404176 -0.26286555606 0.0
0.904508497187 -0.154508497188 -0.25
0.809016994375 -0.309016994375 -0.5
1.0 0.0 0.0
0.809016994375 0.0 -0.5
0.904508497187 0.154508497188 -0.25
0.809016994375 0.309016994375 -0.5
0.667374053247 -0.154508497188 -0.675325404176
0.667374053247 0.154508497188 -0.675325404176
0.525731112119 0.0 -0.850650808352
0.925325404176 0.26286555606 0.0
0.829833901363 0.417374053247 -0.25
0.850650808352 0.525731112119 0.0
0.675325404176 0.667374053247 -0.154508497188
0.654508497187 0.559016994375 -0.404508497188
0.5 0.809016994375 -0.309016994375
0.559016994375 0.404508497188 -0.654508497187
0.404508497188 0.654508497187 -0.559016994375
0.309016994375 0.5 -0.809016994375
0.417374053247 0.25 -0.829833901363
0.25 0.829833901363 -0.417374053247
0.154508497188 0.675325404176 -0.667374053247
0.0 0.850650808352 -0.525731112119
0.675325404176 0.667374053247 0.154508497188
0.5 0.809016994375 0.0
0.5 0.809016994375 0.309016994375
0.25 0.904508497187 -0.154508497188
0.25 0.904508497187 0.154508497188
0.0 1.0 0.0
0.0 0.925325404176 -0.26286555606
0.25 0.829833901363 0.417374053247
0.0 0.925325404176 0.26286555606
0.0 0.850650808352 0.525731112119
-0.25 0.829833901363 0.417374053247
-0.25 0.904508497187 0.154508497188
-0.5 0.809016994375 0.309016994375
-0.25 0.904508497187 -0.154508497188
-0.5 0.809016994375 0.0
-0.5 0.809016994375 -0.309016994375
-0.25 0.829833901363 -0.417374053247
-0.675325404176 0.667374053247 0.154508497188
-0.675325404176 0.667374053247 -0.154508497188
-0.850650808352 0.525731112119 0.0
-0.154508497188 0.675325404176 0.667374053247
-0.404508497188 0.654508497187 0.559016994375
-0.309016994375 0.5 0.809016994375
-0.654508497187 0.559016994375 0.404508497188
-0.559016994375 0.404508497188 0.654508497187
-0.809016994375 0.309016994375 0.5
-0.829833901363 0.417374053247 0.25
-0.417374053247 0.25 0.829833901363
-0.667374053247 0.154508497188 0.675325404176
-0.525731112119 0.0 0.850650808352
0.154508497188 0.675325404176 0.667374053247
0.0 0.5 0.809016994375
0.309016994375 0.5 0.809016994375
-0.154508497188 0.25 0.904508497187
0.154508497188 0.25 0.904508497187
0.0 0.0 1.0
-0.26286555606 0.0 0.925325404176
0.417374053247 0.25 0.829833901363
0.26286555606 0.0 0.925325404176
0.525731112119 0.0 0.850650808352
-0.417374053247 -0.25 0.829833901363
-0.154508497188 -0.25 0.904508497187
-0.309016994375 -0.5 0.809016994375
0.0 -0.5 0.809016994375
0.154508497188 -0.25 0.904508497187
0.309016994375 -0.5 0.809016994375
-0.154508497188 -0.675325404176 0.667374053247
0.154508497188 -0.675325404176 0.667374053247
0.0 -0.850650808352 0.525731112119
0.417374053247 -0.25 0.829833901363
0.667374053247 -0.154508497188 0.675325404176
0.559016994375 -0.404508497188 0.654508497187
0.809016994375 -0.309016994375 0.5
0.404508497188 -0.654508497187 0.559016994375
0.654508497187 -0.559016994375 0.404508497188
0.5 -0.809016994375 0.309016994375
0.25 -0.829833901363 0.417374053247
0.829833901363 -0.417374053247 0.25
0.675325404176 -0.667374053247 0.154508497188
0.417374053247 -0.25 -0.829833901363
0.26286555606 0.0 -0.925325404176
0.154508497188 -0.25 -0.904508497187
0.309016994375 -0.5 -0.809016994375
0.0 0.0 -1.0
0.0 -0.5 -0.809016994375
-0.154508497188 -0.25 -0.904508497187
-0.309016994375 -0.5 -0.809016994375
0.154508497188 -0.675325404176 -0.667374053247
-0.154508497188 -0.675325404176 -0.667374053247
0.0 -0.850650808352 -0.525731112119
-0.26286555606 0.0 -0.925325404176
-0.417374053247 -0.25 -0.829833901363
-0.525731112119 0.0 -0.850650808352
0.904508497187 -0.154508497188 0.25
0.904508497187 0.154508497188 0.25
0.809016994375 0.0 0.5
0.809016994375 0.309016994375 0.5
0.829833901363 0.417374053247 0.25
0.667374053247 0.154508497188 0.675325404176
0.654508497187 0.559016994375 0.404508497188
0.404508497188 0.654508497187 0.559016994375
0.559016994375 0.404508497188 0.654508497187
-0.667374053247 -0.154508497188 -0.675325404176
-0.667374053247 0.154508497188 -0.675325404176
-0.809016994375 0.0 -0.5
-0.809016994375 -0.309016994375 -0.5
-0.809016994375 0.309016994375 -0.5
-0.904508497187 -0.154508497188 -0.25
-0.904508497187 0.154508497188 -0.25
-1.0 0.0 0.0
-0.829833901363 -0.417374053247 -0.25
-0.925325404176 -0.26286555606 0.0
-0.850650808352 -0.525731112119 0.0
-0.829833901363 0.417374053247 -0.25
-0.925325404176 0.26286555606 0.0
-0.154508497188 0.675325404176 -0.667374053247
-0.404508497188 0.654508497187 -0.559016994375
-0.309016994375 0.5 -0.809016994375
-0.559016994375 0.404508497188 -0.654508497187
-0.654508497187 0.559016994375 -0.404508497188
-0.417374053247 0.25 -0.829833901363
-0.675325404176 -0.667374053247 -0.154508497188
-0.675325404176 -0.667374053247 0.154508497188
-0.5 -0.809016994375 0.0
-0.5 -0.809016994375 -0.309016994375
-0.5 -0.809016994375 0.309016994375
-0.25 -0.904508497187 -0.154508497188
-0.25 -0.904508497187 0.154508497188
0.0 -1.0 0.0
-0.25 -0.829833901363 -0.417374053247
0.0 -0.925325404176 -0.26286555606
-0.25 -0.829833901363 0.417374053247
0.0 -0.925325404176 0.26286555606
-0.829833901363 -0.417374053247 0.25
-0.654508497187 -0.559016994375 0.404508497188
-0.809016994375 -0.309016994375 0.5
-0.404508497188 -0.654508497187 0.559016994375
-0.559016994375 -0.404508497188 0.654508497187
-0.667374053247 -0.154508497188 0.675325404176
-0.809016994375 0.0 0.5
-0.904508497187 0.154508497188 0.25
-0.904508497187 -0.154508497188 0.25
-0.559016994375 -0.404508497188 -0.654508497187
-0.404508497188 -0.654508497187 -0.559016994375
-0.654508497187 -0.559016994375 -0.404508497188
0.25 -0.829833901363 -0.417374053247
0.25 -0.904508497187 -0.154508497188
0.5 -0.809016994375 -0.309016994375
0.5 -0.809016994375 0.0
0.25 -0.904508497187 0.154508497188
0.675325404176 -0.667374053247 -0.154508497188
0.559016994375 -0.404508497188 -0.654508497187
0.654508497187 -0.559016994375 -0.404508497188
0.404508497188 -0.654508497187 -0.559016994375
0.154508497188 0.25 -0.904508497187
-0.154508497188 0.25 -0.904508497187
0.0 0.5 -0.809016994375

CELLS 320 1280
3 0 1 2
3 1 3 2
3 1 4 3
3 2 3 5
3 4 6 3
3 6 7 3
3 6 8 7
3 3 7 5
3 4 9 6
3 9 10 6
3 9 11 10
3 6 10 8
3 5 7 12
3 7 13 12
3 7 8 13
3 12 13 14
3 14 13 15
3 13 16 15
3 13 8 16
3 15 16 17
3 8 18 16
3 18 19 16
3 18 20 19
3 16 19 17
3 8 10 18
3 10 21 18
3 10 11 21
3 18 21 20
3 17 19 22
3 19 23 22
3 19 20 23
3 22 23 24
3 14 15 25
3 15 26 25
3 15 17 26
3 25 26 27
3 17 28 26
3 28 29 26
3 28 30 29
3 26 29 27
3 17 22 28
3 22 31 28
3 22 24 31
3 28 31 30
3 27 29 32
3 29 33 32
3 29 30 33
3 32 33 34
3 34 33 35
3 33 36 35
3 33 30 36
3 35 36 37
3 30 38 36
3 38 39 36
3 38 40 39
3 36 39 37
3 30 31 38
3 31 41 38
3 31 24 41
3 38 41 40
3 37 39 42
3 39 43 42
3 39 40 43
3 42 43 44
3 34 35 45
3 35 46 45
3 35 37 46
3 45 46 47
3 37 48 46
3 48 49 46
3 48 50 49
3 46 49 47
3 37 42 48
3 42 51 48
3 42 44 51
3 48 51 50
3 47 49 52
3 49 53 52
3 49 50 53
3 52 53 54
3 34 45 55
3 45 56 55
3 45 47 56
3 55 56 57
3 47 58 56
3 58 59 56
3 58 60 59
3 56 59 57
3 47 52 58
3 52 61 58
3 52 54 61
3 58 61 60
3 57 59 62
3 59 63 62
3 59 60 63
3 62 63 64
3 54 65 61
3 65 66 61
3 65 67 66
3 61 66 60
3 67 68 66
3 68 69 66
3 68 70 69
3 66 69 60
3 67 71 68
3 71 72 68
3 71 73 72
3 68 72 70
3 60 69 63
3 69 74 63
3 69 70 74
3 63 74 64
3 64 74 75
3 74 76 75
3 74 70 76
3 75 76 77
3 70 78 76
3 78 79 76
3 78 80 79
3 76 79 77
3 70 72 78
3 72 81 78
3 72 73 81
3 78 81 80
3 77 79 82
3 79 83 82
3 79 80 83
3 82 83 0
3 11 84 85
3 84 86 85
3 84 87 86
3 85 86 88
3 87 89 86
3 89 90 86
3 89 91 90
3 86 90 88
3 87 92 89
3 92 93 89
3 92 94 93
3 89 93 91
3 88 90 95
3 90 96 95
3 90 91 96
3 95 96 97
3 0 2 82
3 2 98 82
3 2 5 98
3 82 98 77
3 5 99 98
3 99 100 98
3 99 101 100
3 98 100 77
3 5 12 99
3 12 102 99
3 12 14 102
3 99 102 101
3 77 100 75
3 100 103 75
3 100 101 103
3 75 103 64
3 14 25 102
3 25 104 102
3 25 27 104
3 102 104 101
3 27 105 104
3 105 106 104
3 105 57 106
3 104 106 101
3 27 32 105
3 32 55 105
3 32 34 55
3 105 55 57
3 101 106 103
3 106 62 103
3 106 57 62
3 103 62 64
3 97 107 108
3 107 109 108
3 107 110 109
3 108 109 111
3 110 112 109
3 112 113 109
3 112 114 113
3 109 113 111
3 110 115 112
3 115 116 112
3 115 117 116
3 112 116 114
3 111 113 118
3 113 119 118
3 113 114 119
3 118 119 44
3 24 120 41
3 120 121 41
3 120 122 121
3 41 121 40
3 122 123 121
3 123 124 121
3 123 111 124
3 121 124 40
3 122 125 123
3 125 108 123
3 125 97 108
3 123 108 111
3 40 124 43
3 124 118 43
3 124 111 118
3 43 118 44
3 117 126 127
3 126 128 127
3 126 129 128
3 127 128 130
3 129 131 128
3 131 132 128
3 131 133 132
3 128 132 130
3 129 134 131
3 134 135 131
3 134 94 135
3 131 135 133
3 130 132 136
3 132 137 136
3 132 133 137
3 136 137 73
3 117 127 138
3 127 139 138
3 127 130 139
3 138 139 140
3 130 141 139
3 141 142 139
3 141 67 142
3 139 142 140
3 130 136 141
3 136 71 141
3 136 73 71
3 141 71 67
3 140 142 143
3 142 65 143
3 142 67 65
3 143 65 54
3 54 53 143
3 53 144 143
3 53 50 144
3 143 144 140
3 50 145 144
3 145 146 144
3 145 114 146
3 144 146 140
3 50 51 145
3 51 119 145
3 51 44 119
3 145 119 114
3 140 146 138
3 146 116 138
3 146 114 116
3 138 116 117
3 97 96 107
3 96 147 107
3 96 91 147
3 107 147 110
3 91 148 147
3 148 149 147
3 148 129 149
3 147 149 110
3 91 93 148
3 93 134 148
3 93 94 134
3 148 134 129
3 110 149 115
3 149 126 115
3 149 129 126
3 115 126 117
3 94 150 135
3 150 151 135
3 150 152 151
3 135 151 133
3 152 153 151
3 153 154 151
3 153 80 154
3 151 154 133
3 152 155 153
3 155 83 153
3 155 0 83
3 153 83 80
3 133 154 137
3 154 81 137
3 154 80 81
3 137 81 73
3 11 9 84
3 9 156 84
3 9 4 156
3 84 156 87
3 4 157 156
3 157 158 156
3 157 152 158
3 156 158 87
3 4 1 157
3 1 155 157
3 1 0 155
3 157 155 152
3 87 158 92
3 158 150 92
3 158 152 150
3 92 150 94
3 11 85 21
3 85 159 21
3 85 88 159
3 21 159 20
3 88 160 159
3 160 161 159
3 160 122 161
3 159 161 20
3 88 95 160
3 95 125 160
3 95 97 125
3 160 125 122
3 20 161 23
3 161 120 23
3 161 122 120
3 23 120 24

CELL_TYPES 320
5
5
5
5
5
5
5
5
5
5
5
5
5
5
5
5
5
5
5
5
5
5
5
5
5
5
5
5
5
5
5
5
5
5
5
5
5
5
5
5
5
5
5
5
5
5
5
5
5
5
5
5
5
5
5
5
5
5
5
5
5
5
5
5
5
5
5
5
5
5
5
5
5
5
5
5
5
5
5
5
5
5
5
5
5
5
5
5
5
5
5
5
5
5
5
5
5
5
5
5
5
5
5
5
5
5
5
5
5
5
5
5
5
5
5
5
5
5
5
5
5
5
5
5
5
5
5
5
5
5
5
5
5
5
5
5
5
5
5
5
5
5
5
5
5
5
5
5
5
5
5
5
5
5
5
5
5
5
5
5
5
5
5
5
5
5
5
5
5
5
5
5
5
5
5
5
5
5
5
5
5
5
5
5
5
5
5
5
5
5
5
5
5
5
5
5
5
5
5
5
5
5
5
5
5
5
5
5
5
5
5
5
5
5
5
5
5
5
5
5
5
5
5
5
5
5
5
5
5
5
5
5
5
5
5
5
5
5
5
5
5
5
5
5
5
5
5
5
5
5
5
5
5
5
5
5
5
5
5
5
5
5
5
5
5
5
5
5
5
5
5
5
5
5
5
5
5
5
5
5
5
5
5
5
5
5
5
5
5
5
5
5
5
5
5
5
5
5
5
5
5
5
5
5
5
5
5
5
5
5
5
5
5
5
5
5
5
5
5
5

CELL_DATA 320
SCALARS cell_data_0 double
LOOKUP_TABLE default
5.56437615277e-05
1.29774771651e-05
1.8803895526e-05
2.99080141649e-06
3.476524675e-05
3.54073189988e-05
3.62752186298e-05
5.10319873538e-06
4.94123515014e-05
7.90709911275e-05
8.91987231161e-05
5.12471558968e-05
1.63959122827e-05
8.63080737908e-06
1.86784422863e-05
8.70435365966e-06
2.13731972172e-06
1.31672582986e-05
1.679971152e-05
2.25457132858e-08
5.2795400819e-05
7.35889997076e-05
9.51462279278e-05
2.0484455884e-05
6.36718329227e-05
0.000130667177375
0.000126010247093
0.000123651965969
1.2758043872e-05
5.18549965408e-05
6.63381071932e-05
3.76734095399e-05
7.29272043465e-05
0.000136790291169
5.01311497149e-05
0.000164345639304
0.000134034121247
0.000256291302463
0.000260681479301
0.000181857322174
4.90221393334e-05
6.64321856642e-05
4.09846695748e-06
0.000146875893382
0.000152853693911
0.000158804261303
0.000162405617764
8.86296351273e-05
4.7869998706e-05
0.000113977759397
0.000169830877774
0.00017459253178
0.000174340733998
0.000110025132459
8.03102841631e-05
0.000204528425759
8.13259024694e-05
5.30338875176e-05
3.35008260177e-05
9.51334722027e-05
8.19289364711e-05
3.09699287592e-05
7.76983119901e-05
6.80961161276e-05
3.89784211137e-05
1.22142708955e-05
6.10564878912e-05
9.59381253267e-05
6.93035503713e-05
1.12291075558e-05
5.50352748125e-05
0.000109972804336
8.04801513178e-05
3.95475210837e-05
7.86607987521e-05
6.07288308522e-05
7.36282205806e-05
2.42512086275e-05
1.85812552942e-05
2.28847568582e-05
6.42251450566e-06
2.52619668031e-05
7.15186075963e-05
8.43619308979e-06
2.7389830381e-05
8.11411523119e-05
8.15125195094e-05
2.54306590959e-05
2.89512008414e-05
6.46175494085e-05
3.69041298047e-05
6.27801326681e-05
9.59684079681e-05
0.000249408423495
8.56278945395e-05
0.000355744543617
0.000143401105888
0.000173919191432
0.000250157874459
3.94276224708e-05
0.000226191685499
0.000378740363273
0.000364683113495
5.09084269711e-05
0.000582543061055
0.000724632709084
0.000345409967774
0.000254447691148
0.000264822143023
0.000375621499484
0.000107876094693
0.000252267927753
7.62505858184e-05
7.67686923225e-05
2.77043624674e-05
3.93077892517e-05
0.000302190874887
0.000578939582152
0.000618443962763
0.000132284041811
0.000332876610085
0.000479485960687
9.74836024998e-05
0.000421128325732
0.000110835320832
0.000118061173018
0.000137736798129
6.50307544459e-05
0.000153390817709
0.000191528595248
0.000159097389602
0.000154003069944
0.000205237443557
0.000284274777147
0.000212529819276
0.000233467779447
0.000125683618445
0.000135378761155
6.96104620188e-05
0.000127540100013
0.000247655394865
0.000276350885694
0.000175053015836
0.00018008348556
6.76330872235e-05
2.89620829877e-05
4.26957359982e-05
2.38797980139e-05
5.4501939235e-05
4.25469599071e-05
1.6762115406e-05
3.14624791101e-05
2.87054712385e-05
2.57608286382e-05
3.17333738476e-05
2.07375775448e-05
4.21322154754e-05
4.72208725986e-05
1.24307970207e-05
4.32532266469e-05
9.73168487299e-05
6.65475719488e-05
6.20817623539e-05
8.19225877827e-06
5.03686938886e-06
9.32658725729e-06
4.14268321095e-05
6.14236860395e-06
7.19829215202e-05
5.2041030699e-05
6.64896206987e-05
3.94744899405e-05
6.38782341854e-07
7.92148388654e-05
0.000141287802792
9.42747960287e-05
8.12971148142e-05
6.64460785063e-05
4.66617420436e-05
4.59276928925e-05
3.49776111666e-06
4.32493885323e-05
8.79891419265e-05
1.53502394114e-05
6.53459265024e-05
0.000163107899399
0.000192571127286
0.000112049677125
1.8155092789e-05
0.000178067095539
0.000167156572412
0.00023136855185
2.61457267418e-05
5.20092882439e-05
7.61933612122e-05
5.16114300343e-05
9.81339156561e-05
6.67401611398e-05
4.57823241207e-05
2.22100853911e-06
9.50811009055e-05
9.99425404563e-05
0.000105742509433
5.86004080365e-05
2.76843145888e-05
2.96080184713e-06
1.16144881612e-05
7.46400962574e-05
5.98556175529e-05
3.07293160897e-06
6.4111268586e-06
6.09051698106e-06
3.110813706e-06
9.31255411343e-06
2.6722393801e-05
1.26564781306e-05
9.27527224858e-06
1.44560703625e-05
2.2826326534e-05
6.92180489409e-06
1.79807520945e-05
6.84128385075e-06
1.53294270517e-05
1.52125454482e-06
4.95068756416e-05
4.18947969585e-07
1.68281139301e-05
5.60172100609e-06
2.51530780425e-05
6.84663415343e-06
4.98039402204e-06
1.15128630865e-05
1.66472148135e-05
0.000283891317614
0.000264325847364
0.00026934372738
3.27487132665e-06
0.000235557548561
0.000230311380968
0.000204354786839
1.44721150905e-05
1.04234289789e-05
1.55949695201e-05
1.35663746133e-06
1.88834249496e-05
5.89770888494e-05
6.85196148656e-05
6.63805357351e-05
3.10789529849e-05
0.000135196788808
0.000237494696323
0.000121370514704
5.16856363766e-05
0.000116681401381
0.00013502194487
0.000119612300954
0.000102290966949
9.55685563426e-05
9.52377077641e-05
5.25104942771e-05
7.83363187958e-05
3.65923259461e-05
2.00049108836e-05
2.87044946894e-05
7.67952820171e-05
5.80470379064e-05
4.53388201415e-05
2.45658760404e-05
2.15717643768e-05
3.45104395115e-05
4.65387253122e-06
0.000105848336712
1.85098488723e-05
1.69025871953e-05
1.37439360583e-06
3.52292616392e-06
8.89006524374e-06
4.40828448718e-06
1.25440954307e-05
2.94532077531e-06
1.21233014777e-05
1.35343897394e-07
6.36797559082e-05
1.25091224537e-05
8.04434281245e-06
5.84436934141e-05
7.29030288961e-05
5.54815228374e-05
0.000114392359157
0.000110609626749
4.02806068183e-05
0.000116012383314
8.74434365782e-06
7.11349360984e-08
1.91281219225e-05
6.52245517167e-05
1.46751817399e-05
8.07574398044e-06
5.12709211205e-05
1.30552457701e-05
7.75697964326e-05
4.75629350785e-05
7.04580860253e-06
4.2538158791e-05
0.000160970705284
0.000288917779559
0.000309848692205
0.000132604999274
0.000339068113615
1.8367820208e-05
7.80521298002e-05
3.83210399187e-05
0.000317330401359
0.000262447510519
0.000173788468895
0.000147837403511
6.80304294147e-05
7.6690279063e-05
8.64267896474e-05
5.79933225187e-05

