# vtk DataFile Version 3.0
File Name: Molecule/sphere_dip_12/sphere_dip_12_0-s3.vtk
ASCII
DATASET UNSTRUCTURED_GRID
FIELD FieldData 1
TIME 1 1 double
0.0
POINTS 642 double
0.850650808352 -0.525731112119 0.0
0.840242354857 -0.471552582683 -0.125
0.887988106264 -0.394298334089 0.0
0.877579652769 -0.340119804654 -0.125
0.829833901363 -0.417374053247 -0.25
0.925325404176 -0.26286555606 0.0
0.867171199275 -0.285941275218 -0.25
0.914916950682 -0.208687026624 -0.125
0.904508497187 -0.154508497188 -0.25
0.819425447869 -0.363195523811 -0.375
0.856762745781 -0.231762745782 -0.375
0.809016994375 -0.309016994375 -0.5
0.962662702088 -0.13143277803 0.0
0.952254248593 -0.077254248594 -0.125
1.0 0.0 0.0
0.809016994375 -0.154508497188 -0.5
0.856762745781 -0.077254248594 -0.375
0.809016994375 0.0 -0.5
0.856762745781 0.077254248594 -0.375
0.904508497187 0.0 -0.25
0.904508497187 0.154508497188 -0.25
0.809016994375 0.154508497188 -0.5
0.856762745781 0.231762745782 -0.375
0.809016994375 0.309016994375 -0.5
0.952254248593 0.077254248594 -0.125
0.738195523811 -0.231762745782 -0.587662702088
0.738195523811 -0.077254248594 -0.587662702088
0.667374053247 -0.154508497188 -0.675325404176
0.667374053247 0.0 -0.675325404176
0.738195523811 0.077254248594 -0.587662702088
0.667374053247 0.154508497188 -0.675325404176
0.596552582683 -0.077254248594 -0.762988106264
0.596552582683 0.077254248594 -0.762988106264
0.525731112119 0.0 -0.850650808352
0.738195523811 0.231762745782 -0.587662702088
0.962662702088 0.13143277803 0.0
0.914916950682 0.208687026624 -0.125
0.925325404176 0.26286555606 0.0
0.867171199275 0.285941275218 -0.25
0.877579652769 0.340119804654 -0.125
0.829833901363 0.417374053247 -0.25
0.819425447869 0.363195523811 -0.375
0.887988106264 0.394298334089 0.0
0.840242354857 0.471552582683 -0.125
0.850650808352 0.525731112119 0.0
0.762988106264 0.596552582683 -0.077254248594
0.752579652769 0.542374053247 -0.202254248594
0.675325404176 0.667374053247 -0.154508497188
0.742171199275 0.488195523811 -0.327254248594
0.664916950682 0.613195523811 -0.279508497188
0.654508497187 0.559016994375 -0.404508497188
0.731762745781 0.434016994375 -0.452254248594
0.587662702088 0.738195523811 -0.231762745782
0.577254248593 0.684016994375 -0.356762745782
0.5 0.809016994375 -0.309016994375
0.684016994375 0.356762745782 -0.577254248593
0.606762745781 0.481762745782 -0.529508497188
0.559016994375 0.404508497188 -0.654508497187
0.481762745782 0.529508497188 -0.606762745781
0.529508497188 0.606762745781 -0.481762745782
0.404508497188 0.654508497187 -0.559016994375
0.434016994375 0.452254248594 -0.731762745781
0.356762745782 0.577254248593 -0.684016994375
0.309016994375 0.5 -0.809016994375
0.452254248594 0.731762745781 -0.434016994375
0.613195523811 0.279508497188 -0.664916950682
0.542374053247 0.202254248594 -0.752579652769
0.488195523811 0.327254248594 -0.742171199275
0.417374053247 0.25 -0.829833901363
0.471552582683 0.125 -0.840242354857
0.363195523811 0.375 -0.819425447869
0.375 0.819425447869 -0.363195523811
0.327254248594 0.742171199275 -0.488195523811
0.25 0.829833901363 -0.417374053247
0.279508497188 0.664916950682 -0.613195523811
0.202254248594 0.752579652769 -0.542374053247
0.154508497188 0.675325404176 -0.667374053247
0.231762745782 0.587662702088 -0.738195523811
0.125 0.840242354857 -0.471552582683
0.077254248594 0.762988106264 -0.596552582683
0.0 0.850650808352 -0.525731112119
0.762988106264 0.596552582683 0.077254248594
0.675325404176 0.667374053247 0.0
0.675325404176 0.667374053247 0.154508497188
0.587662702088 0.738195523811 -0.077254248594
0.587662702088 0.738195523811 0.077254248594
0.5 0.809016994375 0.0
0.5 0.809016994375 -0.154508497188
0.587662702088 0.738195523811 0.231762745782
0.5 0.809016994375 0.154508497188
0.5 0.809016994375 0.309016994375
0.375 0.856762745781 -0.231762745782
0.375 0.856762745781 -0.077254248594
0.25 0.904508497187 -0.154508497188
0.25 0.904508497187 0.0
0.375 0.856762745781 0.077254248594
0.25 0.904508497187 0.154508497188
0.125 0.952254248593 -0.077254248594
0.125 0.952254248593 0.077254248594
0.0 1.0 0.0
0.375 0.856762745781 0.231762745782
0.25 0.867171199275 -0.285941275218
0.125 0.877579652769 -0.340119804654
0.125 0.914916950682 -0.208687026624
0.0 0.925325404176 -0.26286555606
0.0 0.887988106264 -0.394298334089
0.0 0.962662702088 -0.13143277803
0.375 0.819425447869 0.363195523811
0.25 0.867171199275 0.285941275218
0.25 0.829833901363 0.417374053247
0.125 0.914916950682 0.208687026624
0.125 0.877579652769 0.340119804654
0.0 0.925325404176 0.26286555606
0.0 0.962662702088 0.13143277803
0.125 0.840242354857 0.471552582683
0.0 0.887988106264 0.394298334089
0.0 0.850650808352 0.525731112119
-0.125 0.840242354857 0.471552582683
-0.125 0.877579652769 0.340119804654
-0.25 0.829833901363 0.417374053247
-0.125 0.914916950682 0.208687026624
-0.25 0.867171199275 0.285941275218
-0.25 0.904508497187 0.154508497188
-0.125 0.952254248593 0.077254248594
-0.375 0.819425447869 0.363195523811
-0.375 0.856762745781 0.231762745782
-0.5 0.809016994375 0.309016994375
-0.125 0.952254248593 -0.077254248594
-0.25 0.904508497187 0.0
-0.25 0.904508497187 -0.154508497188
-0.375 0.856762745781 -0.077254248594
-0.375 0.856762745781 0.077254248594
-0.5 0.809016994375 0.0
-0.375 0.856762745781 -0.231762745782
-0.5 0.809016994375 -0.154508497188
-0.5 0.809016994375 -0.309016994375
-0.5 0.809016994375 0.154508497188
-0.125 0.914916950682 -0.208687026624
-0.125 0.877579652769 -0.340119804654
-0.25 0.867171199275 -0.285941275218
-0.25 0.829833901363 -0.417374053247
-0.125 0.840242354857 -0.471552582683
-0.375 0.819425447869 -0.363195523811
-0.587662702088 0.738195523811 0.231762745782
-0.587662702088 0.738195523811 0.077254248594
-0.675325404176 0.667374053247 0.154508497188
-0.587662702088 0.738195523811 -0.077254248594
-0.675325404176 0.667374053247 0.0
-0.675325404176 0.667374053247 -0.154508497188
-0.587662702088 0.738195523811 -0.231762745782
-0.762988106264 0.596552582683 0.077254248594
-0.762988106264 0.596552582683 -0.077254248594
-0.850650808352 0.525731112119 0.0
-0.077254248594 0.762988106264 0.596552582683
-0.202254248594 0.752579652769 0.542374053247
-0.154508497188 0.675325404176 0.667374053247
-0.327254248594 0.742171199275 0.488195523811
-0.279508497188 0.664916950682 0.613195523811
-0.404508497188 0.654508497187 0.559016994375
-0.452254248594 0.731762745781 0.434016994375
-0.231762745782 0.587662702088 0.738195523811
-0.356762745782 0.577254248593 0.684016994375
-0.309016994375 0.5 0.809016994375
-0.577254248593 0.684016994375 0.356762745782
-0.529508497188 0.606762745781 0.481762745782
-0.654508497187 0.559016994375 0.404508497188
-0.606762745781 0.481762745782 0.529508497188
-0.481762745782 0.529508497188 0.606762745781
-0.559016994375 0.404508497188 0.654508497187
-0.731762745781 0.434016994375 0.452254248594
-0.684016994375 0.356762745782 0.577254248593
-0.809016994375 0.309016994375 0.5
-0.434016994375 0.452254248594 0.731762745781
-0.664916950682 0.613195523811 0.279508497188
-0.752579652769 0.542374053247 0.202254248594
-0.742171199275 0.488195523811 0.327254248594
-0.829833901363 0.417374053247 0.25
-0.840242354857 0.471552582683 0.125
-0.819425447869 0.363195523811 0.375
-0.363195523811 0.375 0.819425447869
-0.488195523811 0.327254248594 0.742171199275
-0.417374053247 0.25 0.829833901363
-0.613195523811 0.279508497188 0.664916950682
-0.542374053247 0.202254248594 0.752579652769
-0.667374053247 0.154508497188 0.675325404176
-0.738195523811 0.231762745782 0.587662702088
-0.471552582683 0.125 0.840242354857
-0.596552582683 0.077254248594 0.762988106264
-0.525731112119 0.0 0.850650808352
0.077254248594 0.762988106264 0.596552582683
0.0 0.675325404176 0.667374053247
0.154508497188 0.675325404176 0.667374053247
-0.077254248594 0.587662702088 0.738195523811
0.077254248594 0.587662702088 0.738195523811
0.0 0.5 0.809016994375
-0.154508497188 0.5 0.809016994375
0.231762745782 0.587662702088 0.738195523811
0.154508497188 0.5 0.809016994375
0.309016994375 0.5 0.809016994375
-0.231762745782 0.375 0.856762745781
-0.077254248594 0.375 0.856762745781
-0.154508497188 0.25 0.904508497187
0.0 0.25 0.904508497187
0.077254248594 0.375 0.856762745781
0.154508497188 0.25 0.904508497187
-0.077254248594 0.125 0.952254248593
0.077254248594 0.125 0.952254248593
0.0 0.0 1.0
0.231762745782 0.375 0.856762745781
-0.285941275218 0.25 0.867171199275
-0.340119804654 0.125 0.877579652769
-0.208687026624 0.125 0.914916950682
-0.26286555606 0.0 0.925325404176
-0.394298334089 0.0 0.887988106264
-0.13143277803 0.0 0.962662702088
0.363195523811 0.375 0.819425447869
0.285941275218 0.25 0.867171199275
0.417374053247 0.25 0.829833901363
0.208687026624 0.125 0.914916950682
0.340119804654 0.125 0.877579652769
0.26286555606 0.0 0.925325404176
0.13143277803 0.0 0.962662702088
0.471552582683 0.125 0.840242354857
0.394298334089 0.0 0.887988106264
0.525731112119 0.0 0.850650808352
-0.471552582683 -0.125 0.840242354857
-0.340119804654 -0.125 0.877579652769
-0.417374053247 -0.25 0.829833901363
-0.285941275218 -0.25 0.867171199275
-0.208687026624 -0.125 0.914916950682
-0.154508497188 -0.25 0.904508497187
-0.363195523811 -0.375 0.819425447869
-0.231762745782 -0.375 0.856762745781
-0.309016994375 -0.5 0.809016994375
-0.077254248594 -0.125 0.952254248593
-0.154508497188 -0.5 0.809016994375
-0.077254248594 -0.375 0.856762745781
0.0 -0.5 0.809016994375
0.077254248594 -0.375 0.856762745781
0.0 -0.25 0.904508497187
0.154508497188 -0.25 0.904508497187
0.154508497188 -0.5 0.809016994375
0.231762745782 -0.375 0.856762745781
0.309016994375 -0.5 0.809016994375
0.077254248594 -0.125 0.952254248593
-0.231762745782 -0.587662702088 0.738195523811
-0.077254248594 -0.587662702088 0.738195523811
-0.154508497188 -0.675325404176 0.667374053247
0.0 -0.675325404176 0.667374053247
0.077254248594 -0.587662702088 0.738195523811
0.154508497188 -0.675325404176 0.667374053247
-0.077254248594 -0.762988106264 0.596552582683
0.077254248594 -0.762988106264 0.596552582683
[...]
CELL_DATA 1280
SCALARS cell_data_0 double
LOOKUP_TABLE default
2.36565651226e-06
2.1421683955e-07
1.04027780811e-06
3.50868779402e-09
3.54566985798e-06
2.53282793182e-06
3.90588161965e-06
9.18335000187e-08
3.6702841564e-06
4.24562206292e-06
3.90396565309e-06
4.25107680958e-06
4.22648151316e-07
2.83651036847e-07
2.18337382833e-06
1.47102504408e-06
7.44846933421e-06
9.2759445142e-06
1.06511023599e-05
6.03885873912e-06
1.16223239204e-05
9.51550957691e-06
7.02245721986e-06
7.00874104995e-06
1.21999449432e-05
1.1088861781e-05
7.92506988085e-06
7.01471873628e-06
4.64023482566e-06
3.81287608512e-06
3.653155159e-06
3.19980927272e-07
8.05066790568e-06
1.26813604947e-05
1.52755763744e-05
1.13643546663e-05
2.18356004265e-05
2.0773589866e-05
2.18159606042e-05
1.44107631248e-05
2.57520137752e-05
3.36860886675e-05
3.07565910653e-05
2.71008748775e-05
1.25404517712e-05
1.36503131082e-05
1.51742135967e-05
8.63487253869e-06
9.1100641016e-07
1.62849783186e-06
1.4652701743e-06
5.96291292928e-06
2.32050339278e-06
2.8886707441e-06
2.06432875592e-06
5.57822183258e-06
2.86917784576e-06
4.82264295494e-06
4.69612890628e-06
8.25403269588e-08
5.30904282987e-06
3.10612903007e-06
3.0665690398e-06
6.14602879403e-06
7.77192009277e-06
6.91668751658e-06
5.13256962216e-06
1.02119660967e-05
5.86707393778e-06
4.75461163966e-06
6.34443040728e-07
6.75294681832e-06
1.38498900981e-06
3.55115658188e-06
5.13599141534e-06
3.38282632645e-06
7.7429210074e-06
1.76553966215e-06
2.53210652838e-06
5.38340610302e-06
7.73817240216e-06
6.73327202217e-06
1.3126253715e-05
6.09345181966e-06
1.53200776147e-05
6.57409534823e-06
5.42770652702e-06
4.75679369136e-06
2.27781605993e-05
1.94512665985e-05
2.48750324352e-05
1.4648584958e-05
2.36937706669e-06
1.9779173298e-05
9.7402801973e-06
1.45435280509e-05
8.38284901454e-06
1.18357460885e-05
1.62209923095e-05
1.41168156835e-05
2.34883935331e-05
3.03754887198e-05
3.39149947139e-05
2.54211065761e-05
2.69751106473e-05
3.96761369928e-05
3.83146299984e-05
3.71560283766e-05
2.76465427631e-05
3.90953443723e-05
3.85145520706e-05
3.07756943598e-05
3.47030167048e-05
3.2296642676e-05
3.66391759295e-06
2.52923014648e-05
9.29004086548e-06
3.98848127721e-07
3.18186390128e-06
1.29036942501e-05
1.34428165333e-05
2.00662409152e-05
2.05919942216e-05
1.35100943728e-05
1.52829228641e-05
3.52299146109e-06
1.78149005614e-07
2.73715560156e-06
2.94790517678e-05
4.27370566395e-05
2.09721980817e-05
5.98705976701e-05
2.90067671688e-05
4.61571578193e-05
3.88044893687e-05
5.12455244614e-05
1.82848313856e-05
1.84368847539e-05
1.19776499084e-05
2.42575836762e-05
4.51256190249e-05
2.57754172438e-05
2.49176051257e-05
1.78538995815e-05
1.37985160452e-05
2.12092312008e-05
2.60365010042e-05
2.82924903123e-05
2.76676666395e-05
3.5146942945e-05
4.45923140602e-05
4.03794735187e-05
3.91060482088e-05
5.13380603284e-05
5.58623288953e-05
4.85512149882e-05
2.5220000561e-05
2.08313825975e-05
4.48845456016e-05
1.6010927658e-05
2.42226966146e-05
2.12513399705e-05
2.4538033761e-05
1.30714199906e-05
4.51892560501e-06
1.22503861813e-05
2.14908038475e-05
2.56686075216e-05
7.48175138931e-06
2.52735015857e-06
1.69034817031e-06
8.28303929213e-06
4.74290272361e-05
5.67676185813e-05
4.58891588487e-05
4.51671698743e-05
2.01863020838e-05
2.65714421733e-05
4.05347367565e-05
3.56705855145e-05
6.72680039404e-05
6.14524249707e-05
4.6037353555e-05
4.58014207885e-05
6.84375975307e-05
4.84697539966e-05
2.83253481345e-05
3.41952906468e-05
3.63753628733e-05
2.20120406584e-05
1.85845963953e-05
8.71104848591e-06
1.90470176362e-05
1.97853283147e-05
6.6181655224e-06
4.08709196391e-05
1.0497938607e-05
7.09761586102e-06
3.24925553091e-05
1.81981684978e-05
1.46949787524e-05
1.27533833964e-05
1.49888559357e-05
3.57733108468e-05
2.35813263955e-05
7.69276117679e-06
2.7840617648e-05
1.18912865853e-05
9.90738071038e-06
1.77932564678e-06
2.28821688486e-05
3.13948780846e-05
1.81442437201e-05
1.66981648936e-06
2.55911442297e-05
2.85877530178e-05
4.49464464297e-05
2.73511985675e-05
3.62555466356e-05
4.12453937803e-05
3.34207199936e-05
1.84577993049e-05
5.59701682416e-05
2.38325476699e-05
1.85436261117e-05
1.39249538007e-05
2.94118475298e-05
2.47014530497e-05
1.35336334862e-05
3.7885237563e-06
2.14191709339e-05
2.78249169624e-05
1.18053275278e-05
1.60497967509e-06
3.56971432083e-06
1.73963270104e-05
4.75718005482e-05
1.88576702585e-05
2.48016630853e-05
1.89599657964e-05
2.07247934038e-05
2.03736070003e-05
5.38216164429e-05
3.06433052692e-05
3.47062773834e-05
6.6112251753e-06
3.65205746512e-06
2.92635840245e-05
4.44467330763e-05
1.25681190769e-05
1.25467761321e-05
4.13688373866e-06
2.281628436e-05
1.68247762661e-06
2.82180769768e-06
4.03194391323e-06
1.44643537656e-05
1.35229313237e-05
3.89422094326e-05
3.95260371698e-06
1.80112063265e-05
1.08262772403e-06
2.89548183033e-06
4.4777975221e-06
2.48651803657e-05
7.86661442474e-06
1.1413990734e-05
5.38312600028e-06
3.68289678128e-06
2.75196586964e-06
3.59169338022e-07
2.18415667836e-06
6.39720419785e-06
1.07790622191e-07
1.11327801783e-05
2.59004772937e-06
6.89811128335e-06
4.66338493855e-06
1.04803969277e-06
8.95731490057e-07
1.17554213532e-05
5.58732121303e-07
7.85087353584e-06
4.18177806406e-06
8.23937574408e-07
5.10233058766e-06
2.69049711087e-06
1.20163194604e-06
6.22656037328e-06
1.27162951449e-06
2.19725611914e-05
1.04321037086e-05
1.79428189815e-05
1.27437341995e-06
8.04479279265e-06
8.98414252036e-06
1.99241666997e-05
1.53292959716e-09
3.59774496263e-06
9.11378224889e-06
1.27164018141e-05
1.5182955141e-06
9.82096444281e-06
6.87637027486e-06
6.16265081137e-07
7.02745397783e-06
7.98378125906e-07
9.38630122958e-07
2.14866190899e-08
7.22205729043e-06
2.99737953482e-06
7.99042913445e-08
4.20534351759e-06
2.27509694653e-06
3.38480451682e-06
2.80652479512e-07
7.2618796809e-08
7.06446233282e-06
2.76999014758e-06
4.87211698635e-06
2.08660008302e-05
5.86001106478e-05
3.34019772004e-05
7.65079898597e-05
0.000109707092319
0.000143868669423
7.63060817126e-05
7.16936848131e-05
5.5459369147e-05
0.000118845669989
5.36661554197e-05
0.000114218048723
9.58237769701e-05
0.000212401836851
0.000107327476129
0.000156917742662
0.000155845037981
0.000176411505615
5.58124826975e-05
7.28096209061e-05
1.65004015353e-05
3.82989817258e-05
7.51004596889e-06
1.14066112379e-05
5.99994508268e-05
0.000190917026877
0.000125428693471
7.14910585362e-05
8.4796762916e-05
0.000155894504712
2.33945126801e-05
0.000150380672033
4.60329757629e-05
5.95021173659e-05
1.78809152409e-05
5.05172460808e-05
7.96323221092e-05
8.69585613495e-05
4.10165505006e-05
1.39365252097e-05
4.52741005237e-05
9.1019577979e-05
3.10503664475e-05
8.18992527073e-05
4.79303516414e-05
0.000175011695791
6.75893320976e-05
0.000122052112156
9.8041505006e-05
0.000128229092771
3.48171270104e-05
6.61189705555e-05
1.9151105254e-05
3.66908872106e-05
7.57951012327e-06
1.07187144586e-05
6.22116120357e-05
0.000176117896754
0.000117408043544
6.3733391595e-05
7.68302142046e-06
2.96870583078e-05
7.59882969683e-06
2.59027491448e-05
5.03451769108e-05
6.51738392032e-05
7.04295840334e-06
3.5758526686e-05
1.16580163861e-05
1.72588115609e-05
2.99518908415e-07
6.1273231041e-06
1.08688598313e-05
1.82503833946e-05
1.11005898002e-05
4.39691670069e-06
4.52434924276e-05
4.81827206567e-05
1.16276575425e-05
3.87822000582e-05
2.09640933811e-05
8.32218970483e-05
6.49595454911e-05
4.50871274627e-05
0.000148800499248
0.000268256554788
0.000112112553739
9.95510693706e-05
0.000140976458912
0.000278359808948
0.000160728384093
0.000128280461047
1.41113055672e-05
4.62332180776e-05
4.30014453315e-05
1.88136525185e-06
3.96030269525e-05
7.31816387623e-05
4.70031809336e-05
3.27679892086e-05
5.06813352595e-05
7.62228275645e-05
3.21262665325e-05
3.09545788285e-05
1.56635902263e-05
1.97124845887e-05
4.53415985385e-08
2.02860567255e-05
4.84488929184e-05
5.4874776113e-05
6.31735585353e-06
5.59965328074e-05
6.29894003286e-05
5.12013101985e-05
8.86359417405e-06
1.98817446132e-05
1.67315910976e-05
1.65717257298e-05
1.3380290664e-05
1.78027186916e-05
1.49991389359e-05
2.21399123143e-05
5.15264543495e-05
9.83252538454e-06
4.62016956934e-06
8.31835915103e-07
1.09066284318e-05
9.20928340581e-06
4.01344786266e-06
7.46377431694e-06
7.7579446725e-06
4.24391114457e-06
8.25839568373e-06
6.89101603596e-06
4.89885107364e-06
4.34068369059e-06
7.22015228777e-06
7.09223910161e-06
2.38631912194e-06
5.07462072429e-06
1.63095055435e-06
2.72938450779e-06
2.93569411167e-06
8.48109565416e-06
5.00887726479e-06
5.44537668479e-06
3.12866332278e-06
4.54767850426e-06
2.73619057355e-06
3.5525383279e-06
2.02555727658e-06
3.76973224615e-06
1.00490621136e-06
1.22295031029e-06
1.84153461891e-05
9.10973834209e-07
2.89627189506e-06
2.8179723294e-06
1.46917126889e-06
9.3937678913e-06
5.3943190893e-06
3.16057430285e-06
1.30922843869e-06
1.44973136051e-06
2.04275313428e-07
2.10719259282e-06
2.84208896754e-06
1.28731019152e-06
7.18906535565e-07
1.79004196455e-06
1.49242736502e-06
2.74151797019e-06
1.4464754318e-06
2.07780276285e-06
3.19846463368e-06
1.72938976749e-05
1.45693643669e-05
1.95447348222e-06
3.78236132628e-07
2.86727751907e-06
2.85620355462e-07
4.3380186069e-08
5.2107040076e-07
1.16720949417e-07
1.07888845112e-07
2.50169979383e-07
1.70912556592e-05
1.11416110772e-07
5.55819361093e-07
3.21746641121e-07
3.27788229695e-08
2.87931193385e-06
3.41910170918e-05
4.34311159603e-05
3.59750070254e-05
5.26062314075e-05
4.86960384274e-05
6.47696557924e-05
6.98359158127e-05
6.30653398524e-05
4.27722092211e-05
4.92152020675e-05
3.40889632809e-05
5.81280606992e-05
6.94891041521e-05
7.14352581755e-05
6.64000558682e-05
6.31657001391e-05
4.24507621344e-05
5.75230374086e-05
5.29997448711e-05
6.73862474033e-05
6.51354438481e-05
8.42187417919e-05
7.92360005293e-05
8.4011759233e-05
6.14523601899e-05
7.2126453585e-05
4.36817871982e-05
7.12035248404e-05
8.33329740912e-05
9.74591939133e-05
8.76662511832e-05
8.07161876155e-05
1.93418040552e-05
2.37545200569e-05
1.0677552005e-05
3.63497965429e-05
1.34393358139e-05
1.30089385492e-05
1.51816087921e-05
2.93772039841e-05
6.52473691076e-06
2.50310536207e-06
2.15374922357e-06
8.41065062131e-06
3.51394193795e-05
2.71759464395e-05
1.73888492998e-05
1.99790363739e-05
6.28321208368e-05
7.33730721073e-05
6.67519863391e-05
5.6449012001e-05
4.80970806016e-05
5.00719257252e-05
4.02886649283e-05
5.54440296319e-05
4.75838453977e-05
4.21716479485e-05
2.97031012115e-05
3.36010671527e-05
3.88620937806e-05
3.66779808785e-05
3.90868187361e-05
2.84206943507e-05
2.46480478225e-06
3.72199439907e-06
4.25256435827e-06
4.40343079375e-06
5.76958470305e-06
8.73074926862e-06
3.50144562118e-06
6.9849064745e-06
1.83752334323e-06
5.96606057566e-06
6.31082921089e-06
5.94849609295e-06
5.68654879677e-06
7.62367360581e-06
4.26276627883e-06
1.82404568947e-05
8.29830937487e-06
6.37228948233e-06
1.56105783949e-06
5.32596731923e-06
9.60213707506e-07
7.93710214634e-07
3.2147530908e-07
2.26390762652e-06
1.28532078888e-06
3.07625061404e-06
2.82201228876e-05
6.35727172125e-07
4.49349920332e-06
5.9408594709e-06
3.79252133241e-06
1.77762069864e-05
2.75807092973e-06
1.90607047135e-06
3.97333646819e-06
2.04784006018e-06
4.50481133296e-06
1.71723894413e-06
6.89931498503e-07
9.0124215157e-07
6.60924901537e-06
4.12212593815e-06
6.07855855447e-06
1.76811695891e-06
2.48523140474e-06
2.09208088928e-06
2.42758087007e-07
2.01055727829e-05
1.23795320569e-05
1.02876987218e-06
8.32434475381e-07
1.70167593288e-06
2.93171510105e-06
2.66496530504e-06
2.59053665696e-06
1.90451498687e-06
4.93898168416e-07
2.38012596068e-06
2.36383155385e-05
8.2735996797e-07
1.55027736415e-06
2.46237165808e-06
1.5112546501e-06
1.7499193277e-06
2.32255001017e-05
2.053025446e-05
4.07327085796e-05
1.85507079219e-06
1.57883185648e-05
1.86379229575e-06
3.81977752063e-07
7.17374207491e-07
2.48779573839e-05
7.80205213983e-06
1.53630940127e-05
8.78493370605e-07
1.91627751171e-07
3.28009626302e-07
1.15591902787e-07
1.68482133745e-05
7.44236820835e-06
5.48835315181e-06
4.33324229521e-06
5.46666294819e-06
1.18779471097e-05
2.81942623519e-05
1.34371561832e-05
1.66376062262e-05
1.77378920358e-05
2.74568110155e-05
1.88043152229e-05
8.23673281828e-06
9.45883397738e-06
1.91409242619e-05
1.44375731262e-05
3.09023841832e-05
1.36757630014e-05
1.94315362367e-05
3.43613414201e-05
9.93916321719e-06
4.1196223485e-05
3.83562991363e-05
2.72432569738e-05
1.90253614595e-05
3.33451680452e-05
5.25761365794e-05
3.51583459378e-05
4.97479021078e-05
1.69390744807e-05
8.26702237725e-05
7.31388379053e-05
6.67347489882e-05
2.98985041075e-05
1.0257733806e-05
4.75030472319e-06
1.66395559936e-06
8.41539199633e-06
2.38524602756e-05
1.63934295062e-05
7.06196869614e-06
1.18224951628e-05
7.99830830219e-05
5.93406912269e-05
6.38848193184e-05
4.93278666026e-06
1.73206672088e-05
1.50395746463e-05
7.75076944662e-06
1.94208445174e-05
1.66755154005e-05
1.7068747206e-05
2.04777433714e-05
1.73429602398e-05
1.15578930364e-05
1.03552907902e-05
1.64733531768e-05
1.25956962199e-05
7.88232710439e-06
4.93930707572e-06
9.52878631782e-06
1.28863462534e-06
2.85733915879e-05
4.65082494113e-06
3.79868375287e-05
3.61181494809e-05
4.80886942362e-05
4.93055510957e-05
6.93179417268e-06
3.40252478789e-05
7.41925000213e-05
3.53776589372e-05
3.55660531482e-05
1.27401639954e-05
1.9900644191e-05
6.01561694113e-06
1.36932938117e-05
3.40244992308e-05
4.38462021687e-05
1.59460486144e-05
2.18876687586e-05
2.98591253606e-05
1.27472348493e-05
4.13741174511e-06
1.40945540031e-05
3.78411251584e-06
2.93098075854e-06
1.21252467822e-06
3.74247847317e-06
2.10606269758e-06
3.96281604393e-07
3.72894696802e-06
2.96127830797e-07
5.31123027538e-08
1.70228174826e-06
7.97979004658e-08
3.20147387924e-06
9.59981342823e-07
3.53746543162e-06
3.11800444865e-06
3.59847397321e-06
2.90218313016e-06
1.87219970057e-06
1.38924755723e-06
2.81495911214e-06
4.21969733642e-07
1.2519034117e-06
2.67434957533e-06
9.85616624336e-07
2.1374222651e-06
1.867229702e-06
1.50124325474e-06
1.14139180228e-06
7.77045894865e-06
1.13775036595e-05
1.30457435537e-05
8.81540994403e-06
1.52463020102e-05
1.46293694472e-05
1.39144795318e-05
4.48230620009e-06
1.63657861147e-05
1.95441471095e-05
2.00680060849e-05
1.53096002218e-05
1.41545879878e-05
7.14588349379e-06
1.0264173972e-05
6.14149640649e-07
2.33984434406e-05
1.99505680045e-05
2.07598530959e-05
1.66582382073e-05
1.89451981211e-05
1.48850889381e-05
1.19136195661e-05
1.43767843715e-05
1.86807555492e-05
1.18604252382e-05
8.45231108733e-07
9.52101794398e-06
1.09166937571e-05
6.63802751268e-06
5.86230344443e-06
1.4167958641e-06
2.38759442959e-05
2.6238766082e-05
3.04499150365e-05
2.25882506657e-05
3.02925766493e-05
2.41969610563e-05
2.28566104702e-05
2.24540302347e-05
2.97756193498e-05
2.88050715909e-05
2.71352222781e-05
2.39630647612e-05
1.75500710701e-05
2.92220185521e-06
8.27905520565e-06
1.16004688199e-05
3.20830998498e-06
1.64663647777e-06
3.87222557524e-06
5.10439818422e-07
6.63077033407e-06
6.07092538071e-06
5.42013074469e-06
2.86933786485e-06
4.70631662278e-06
4.79672023435e-06
1.32634146006e-06
5.24896649411e-06
1.94239869561e-07
2.06980654265e-06
3.3101645201e-06
2.53158196051e-06
4.15662389961e-06
5.43848102818e-07
7.8006258141e-07
2.58578739355e-07
2.12432178726e-06
2.3432948579e-06
1.01199484736e-06
9.03475004051e-07
2.22907395551e-06
3.12405005737e-06
1.89883320106e-06
1.21890392082e-06
6.40181426222e-07
1.97001212715e-07
2.39712854025e-07
4.13533025384e-06
2.43606378084e-06
3.70303084003e-06
2.59751236423e-06
1.28422584237e-06
2.38873540995e-06
2.79058842666e-06
1.35985434257e-06
1.156479093e-06
1.8353089463e-06
1.77388767347e-06
1.47154090535e-06
3.45915058051e-07
5.34342179724e-08
1.67951542004e-06
1.12854878135e-06
2.80317594825e-06
2.94997696652e-06
4.98746392849e-06
5.93285550716e-06
2.97843100512e-06
6.71646692924e-06
4.40970489463e-06
2.41272629571e-06
2.26156229871e-06
7.02410018182e-06
6.29760538412e-06
5.06216960504e-06
2.95559048547e-06
1.11144450238e-06
7.86445961378e-08
1.4054593522e-06
2.28934374025e-06
5.69604137358e-06
1.97782297676e-06
1.10180446654e-08
7.26912995623e-06
1.02700588754e-06
1.61383641826e-06
4.52309566261e-06
4.67632915109e-06
9.77082709174e-07
2.6483848525e-06
4.69276092519e-06
6.44501242584e-06
5.10032402673e-06
4.07705073222e-06
7.5550687243e-06
3.26082305815e-06
6.13872114651e-06
6.60025024683e-06
5.3633464742e-06
1.0621104783e-05
9.72731516255e-06
1.24171845182e-05
1.12196843743e-05
1.10646612995e-05
5.50936193767e-06
8.37301996593e-06
8.03270454727e-06
1.26975058997e-05
8.37625079316e-06
5.97275954497e-06
7.97763550583e-06
6.51330876742e-06
9.15827728792e-06
2.72720271168e-06
1.25694449303e-06
6.8874842995e-06
1.32040265593e-06
3.9792510997e-06
5.06302229759e-06
1.1670392524e-06
1.18911284581e-06
5.18584025865e-06
2.25244574615e-06
5.22193760025e-06
4.23560759503e-06
3.5440615919e-07
3.40711971809e-06
4.67626341659e-06
7.65181307167e-06
3.10448576969e-06
6.84662579753e-06
1.87976049038e-06
2.13786257985e-06
2.51518583145e-06
3.7125900222e-06
5.14342701558e-07
2.90284101866e-06
7.00314014472e-07
5.99338695044e-07
2.38163567954e-06
9.07851652613e-07
1.32082768406e-05
1.09671895589e-05
2.38755570952e-05
1.80864613078e-06
2.62438480683e-06
3.60235122435e-06
2.92403742004e-06
6.03056289463e-06
7.31117979912e-06
8.34141467323e-06
5.56007571807e-06
5.59486669307e-06
2.34786407627e-06
6.35788607887e-06
2.80034963766e-06
5.02023882929e-06
1.34776092629e-07
8.87139129802e-07
2.43298895714e-06
3.83000146885e-06
5.37136010313e-06
1.51836945608e-06
3.95360787541e-06
8.66388105318e-07
3.78211060155e-06
2.51899370046e-06
3.77888609491e-06
6.00150176448e-07
1.90679154534e-05
2.70005870088e-05
1.96165926286e-05
1.96195823867e-06
1.88114539043e-05
1.87543499472e-05
2.43977060174e-05
6.35453794687e-05
7.91882626926e-05
3.67749734894e-05
4.44327400786e-05
3.6705441388e-05
4.7189997979e-05
2.83948807924e-05
1.9378986049e-05
3.95194112225e-05
6.40903371796e-05
3.50402317538e-05
4.00944431163e-05
3.55784399759e-05
5.34960524777e-05
1.83318788295e-05
4.49967954112e-05
2.08241982013e-05
2.49429861297e-05
2.02206025297e-05
2.59566293196e-05
3.20261572575e-05
2.15509365601e-05
1.11049922809e-05
1.1727970317e-05
2.0584751495e-05
5.7414763956e-06
1.73641579098e-06
5.75694076817e-06
1.77416182665e-05
1.46097367934e-05
2.22696217519e-06
1.14238077798e-05
1.28053210211e-05
1.37447977261e-05
1.19493090026e-05
9.40345481649e-06
6.0148684741e-06
9.22459234046e-06
5.12849938551e-06
1.0603632471e-05
1.66255666822e-05
1.60422062072e-05
1.40005372473e-05
2.5035532506e-06
9.26994339126e-06
6.4434995321e-06
4.45184204664e-06
6.77876664732e-06
2.47528562832e-05
2.67436946749e-05
3.51017586287e-05
1.99795811584e-05
3.55507804378e-05
2.38706819042e-05
2.15736205237e-05
2.22299659219e-05
3.24359080052e-05
2.80239985697e-05
1.81956371811e-05
2.32774449119e-05
1.47463482066e-05
1.13362557411e-05
1.57401742166e-05
3.12686296678e-06
1.84697212537e-05
2.33491443522e-05
1.74296628938e-05
2.14848997211e-05
1.45098087872e-05
1.32776751288e-05
1.08352623283e-05
1.69148430091e-05
1.00976229096e-05
5.76304143735e-06
2.36442683961e-06
7.91532492152e-06
1.51391283472e-05
1.07695541475e-05
9.3880300242e-06
2.83451587561e-06
1.16242702702e-05
1.70212481021e-05
1.4901470497e-05
1.42603862179e-05
1.41456013808e-05
1.09885065185e-05
8.96698623622e-06
1.07210919272e-05
1.01778813086e-05
6.82759228047e-06
2.75945924933e-06
9.4362827814e-06
8.02380750934e-06
6.40943377965e-06
6.8771799001e-06
3.09380733765e-06
4.07796775396e-06
5.58640569273e-06
6.23932862376e-06
4.40694697919e-06
6.08344548027e-06
4.09016529353e-06
2.34844489872e-06
3.92630360633e-06
4.73823520828e-06
3.40837698998e-06
1.84733731204e-06
2.80967216991e-06
2.15829306766e-06
1.29497528543e-06
7.02975845877e-07
2.55120508113e-06
4.92549357054e-06
6.32038022692e-06
6.31126611123e-06
3.10472008994e-06
6.18359093297e-06
5.25330732636e-06
4.08002616343e-06
3.70128657264e-06
5.23332331313e-06
4.8418124989e-06
1.60072854243e-06
3.76015190057e-06
4.86327707507e-07
1.4158902815e-06
2.91974815206e-06
2.63573076145e-06
5.48780391499e-07
1.87603981107e-06
1.31129542768e-08
3.17078384812e-06
2.24665061017e-07
4.35197509646e-07
7.75088580204e-07
2.49206413832e-06
8.91841498899e-07