# vtk DataFile Version 3.0
File Name: Molecule/sphere_dip_sim/sphere_dip_sim_0-s4.vtk
ASCII
DATASET UNSTRUCTURED_GRID
FIELD FieldData 1
TIME 1 1 double
0.0
POINTS 83 double
0.0 0.850650808352 0.525731112119
-0.26286555606 0.425325404176 0.688190960236
0.26286555606 0.425325404176 0.688190960236
0.0 0.0 0.850650808352
0.850650808352 0.525731112119 0.0
0.688190960236 0.26286555606 0.425325404176
0.850650808352 -0.525731112119 0.0
0.525731112119 0.0 0.850650808352
0.425325404176 0.688190960236 0.26286555606
-0.525731112119 0.0 -0.850650808352
-0.688190960236 -0.26286555606 -0.425325404176
-0.688190960236 0.26286555606 -0.425325404176
-0.850650808352 0.0 0.0
0.0 0.850650808352 -0.525731112119
-0.26286555606 0.425325404176 -0.688190960236
-0.425325404176 0.688190960236 -0.26286555606
-0.850650808352 0.525731112119 0.0
-0.850650808352 -0.525731112119 0.0
-0.425325404176 -0.688190960236 -0.26286555606
0.0 -0.850650808352 0.525731112119
-0.26286555606 -0.425325404176 -0.688190960236
0.0 -0.850650808352 -0.525731112119
-0.556758182206 0.475528258148 0.344095480118
-0.475528258148 0.344095480118 0.556758182206
-0.344095480118 0.556758182206 0.475528258148
-0.688190960236 0.26286555606 0.425325404176
-0.637988106264 0.606961036177 0.13143277803
-0.769420884294 0.394298334089 0.212662702088
-0.394298334089 0.212662702088 0.769420884294
-0.606961036177 0.13143277803 0.637988106264
-0.525731112119 0.0 0.850650808352
-0.850650808352 0.26286555606 0.0
-0.394298334089 0.212662702088 -0.769420884294
-0.606961036177 -0.13143277803 0.637988106264
-0.688190960236 -0.26286555606 0.425325404176
-0.688190960236 0.0 0.425325404176
-0.769420884294 0.13143277803 0.212662702088
-0.769420884294 -0.13143277803 0.212662702088
0.0 0.0 -0.850650808352
0.13143277803 0.212662702088 -0.769420884294
0.26286555606 -0.425325404176 0.688190960236
0.212662702088 0.769420884294 0.13143277803
0.0 0.850650808352 0.26286555606
0.212662702088 0.769420884294 0.394298334089
-0.212662702088 0.769420884294 0.394298334089
-0.212662702088 0.769420884294 0.13143277803
0.0 0.850650808352 0.0
-0.425325404176 0.688190960236 0.26286555606
-0.212662702088 0.769420884294 -0.13143277803
-0.425325404176 0.688190960236 0.0
0.26286555606 0.0 0.850650808352
0.0 -0.425325404176 0.688190960236
-0.26286555606 0.0 0.850650808352
-0.26286555606 -0.425325404176 0.688190960236
-0.53165675522 0.647575998207 -0.065716389015
-0.53165675522 0.647575998207 0.197149167045
-0.384710442147 0.622474571221 0.369196907104
-0.172047740059 0.703704495279 0.500629685134
0.525731112119 0.0 -0.850650808352
0.688190960236 0.26286555606 -0.425325404176
0.425325404176 -0.688190960236 -0.26286555606
0.0 -0.850650808352 0.0
0.425325404176 -0.688190960236 0.26286555606
0.212662702088 0.769420884294 -0.394298334089
0.26286555606 0.425325404176 -0.688190960236
0.475528258147 0.344095480118 -0.556758182206
0.425325404176 0.688190960236 -0.26286555606
0.637988106264 0.606961036177 -0.13143277803
0.637988106264 0.606961036177 0.13143277803
0.425325404176 0.688190960236 0.0
0.212662702088 0.769420884294 -0.13143277803
0.0 0.850650808352 -0.26286555606
0.13143277803 -0.212662702088 -0.769420884294
-0.850650808352 -0.26286555606 0.0
-0.769420884294 -0.394298334089 0.212662702088
-0.13143277803 -0.212662702088 -0.769420884294
0.26286555606 0.0 -0.850650808352
-0.810035846323 -0.065716389015 0.106331351044
-0.728805922265 -0.197149167045 0.318994053132
-0.810035846323 -0.328581945075 0.106331351044
0.106331351044 0.810035846323 0.065716389015
0.318994053132 0.728805922265 -0.065716389015
0.318994053132 0.728805922265 0.197149167045

CELLS 162 648
3 0 1 2
3 1 3 2
3 4 5 6
3 6 5 7
3 8 2 5
3 5 2 7
3 9 10 11
3 10 12 11
3 13 14 15
3 14 11 15
3 15 11 16
3 17 18 19
3 9 20 10
3 20 18 10
3 20 21 18
3 10 18 17
3 22 23 24
3 22 25 23
3 24 23 1
3 26 27 22
3 26 16 27
3 22 27 25
3 1 23 28
3 23 29 28
3 23 25 29
3 28 29 30
3 1 28 3
3 12 31 11
3 11 31 16
3 14 32 11
3 32 9 11
3 33 34 19
3 30 29 33
3 29 35 33
3 29 25 35
3 33 35 34
3 25 36 35
3 36 37 35
3 25 27 36
3 27 31 36
3 27 16 31
3 36 31 12
3 9 32 38
3 32 39 38
3 32 14 39
3 39 14 13
3 7 40 6
3 41 42 43
3 43 42 0
3 0 42 44
3 42 45 44
3 42 46 45
3 44 45 47
3 46 48 45
3 48 49 45
3 48 15 49
3 45 49 47
3 15 48 13
3 3 50 2
3 2 50 7
3 7 50 40
3 50 51 40
3 50 3 51
3 40 51 19
3 30 52 53
3 52 51 53
3 52 3 51
3 53 51 19
3 8 43 2
3 43 0 2
3 26 54 16
3 16 54 15
3 47 55 49
3 55 54 49
3 55 26 54
3 49 54 15
3 47 56 44
3 56 57 44
3 56 24 57
3 44 57 0
3 0 57 1
3 57 24 1
3 24 56 22
3 47 56 22
3 47 55 22
3 55 26 22
3 30 52 28
3 28 52 3
3 19 53 33
3 30 53 33
3 58 59 6
3 6 59 4
3 21 60 61
3 60 62 61
3 60 6 62
3 61 62 19
3 6 60 58
3 58 60 21
3 13 63 64
3 63 65 64
3 63 66 65
3 64 65 58
3 4 67 59
3 67 65 59
3 67 66 65
3 59 65 58
3 4 67 68
3 67 69 68
3 67 66 69
3 68 69 8
3 66 63 70
3 63 71 70
3 63 13 71
3 70 71 46
3 20 72 21
3 21 72 58
3 4 68 5
3 68 8 5
3 17 73 10
3 10 73 12
3 21 61 18
3 18 61 19
3 17 74 19
3 74 34 19
3 38 75 9
3 9 75 20
3 58 76 72
3 76 75 72
3 76 38 75
3 72 75 20
3 12 77 36
3 36 77 37
3 37 78 35
3 35 78 34
3 34 78 74
3 78 79 74
3 78 37 79
3 74 79 17
3 37 77 79
3 77 73 79
3 77 12 73
3 79 73 17
3 58 76 39
3 38 76 39
3 13 64 39
3 58 64 39
3 19 62 40
3 40 62 6
3 46 80 70
3 80 81 70
3 80 41 81
3 70 81 66
3 66 81 69
3 81 82 69
3 81 41 82
3 69 82 8
3 8 82 43
3 82 41 43
3 41 80 42
3 80 46 42
3 13 71 48
3 46 71 48

CELL_TYPES 162
5
5
5
5
5
5
5
5
5
5
5
5
5
5
5
5
5
5
5
5
5
5
5
5
5
5
5
5
5
5
5
5
5
5
5
5
5
5
5
5
5
5
5
5
5
5
5
5
5
5
5
5
5
5
5
5
5
5
5
5
5
5
5
5
5
5
5
5
5
5
5
5
5
5
5
5
5
5
5
5
5
5
5
5
5
5
5
5
5
5
5
5
5
5
5
5
5
5
5
5
5
5
5
5
5
5
5
5
5
5
5
5
5
5
5
5
5
5
5
5
5
5
5
5
5
5
5
5
5
5
5
5
5
5
5
5
5
5
5
5
5
5
5
5
5
5
5
5
5
5
5
5
5
5
5
5
5
5
5
5
5
5

CELL_DATA 162
SCALARS cell_data_0 double
LOOKUP_TABLE default
3.91414617947e-05
0.000345156385101
0.000101078894189
3.81915825433e-05
4.31443473249e-05
6.88449850392e-05
1.23219636737e-06
8.11832012033e-05
1.57346191205e-05
8.32566567922e-05
1.18372550511e-05
9.62903944733e-05
7.96251668242e-05
6.82932483008e-05
0.000978960319594
0.000137495063044
4.98994094078e-06
3.76169583287e-06
1.36795494951e-05
1.97236515339e-05
4.37277608679e-05
9.99538679975e-06
1.51445416836e-05
9.96742492422e-06
3.53142482367e-06
2.25637229273e-06
0.000177869817235
3.0714424513e-05
4.16998436113e-05
0.000222377606843
0.000290739932879
0.000464436516345
0.000125985536103
0.000193154635119
1.32154911701e-05
0.000238425914435
1.15446210252e-05
8.81330551349e-06
1.88501606036e-05
2.88938080424e-05
4.13395740732e-05
1.223173276e-05
2.05593925704e-05
0.000394496767195
0.000127606457293
0.000172649328826
0.00014857250982
5.4812140621e-07
4.01102204032e-05
5.25336861431e-05
7.25631234588e-06
3.01478135013e-05
7.23382395213e-06
0.000109382632181
0.000198953954318
0.000166283903062
8.84780696026e-05
0.000197239805189
0.000163100448653
1.97150217982e-05
6.06666367814e-06
8.29305017612e-05
0.000233620516833
1.03994575201e-06
7.8724164026e-05
0.000143979990369
0.000278930591624
5.1445313837e-05
1.01408177722e-05
3.08220201539e-05
2.65839126294e-05
7.83525128208e-06
5.44047922279e-05
5.07965318842e-05
1.71782440692e-05
4.05611795664e-05
1.18951332234e-05
1.08102771172e-05
3.77713825554e-06
2.88563125417e-05
2.52373054088e-05
5.09703927256e-06
8.35810149558e-07
8.57096600887e-07
1.53385913834e-05
1.52524085584e-05
5.41958920161e-05
0.000153938506474
4.69652746676e-05
0.00016088567884
4.5828863879e-06
6.05596680979e-05
0.00129037402343
3.21981934684e-05
6.13652173823e-05
1.625492025e-05
4.83499914229e-05
0.00206977271745
0.000175173380016
3.85777585695e-06
1.55948452293e-06
0.000110335779384
5.45642669998e-05
1.48326351758e-05
7.55032311356e-06
1.00332381398e-05
1.45881447068e-05
3.38651326823e-06
3.04198529977e-05
2.28189547165e-06
1.59049440447e-05
1.00920423386e-05
3.20124845243e-05
2.4834083458e-05
0.00142367309791
0.00158263989179
6.5237962679e-06
9.31004688281e-06
6.86601040416e-05
3.40715268001e-05
0.00125104956586
1.70659966733e-05
0.000115973486276
7.87578503149e-06
0.00017091053163
1.43829222722e-05
0.000128499965058
4.39482736988e-05
0.000163176002683
4.99288246407e-05
1.04682407287e-06
3.01710051367e-06
9.04061540247e-07
2.15080240183e-06
2.86175900368e-05
8.74746632877e-06
6.47446830871e-06
1.04857256121e-05
4.38271775165e-06
2.03144931004e-06
2.79392062389e-06
5.82057148283e-06
5.55161023883e-05
0.000135930067984
4.44659164079e-05
7.97915198622e-05
5.38829246735e-05
2.85660438325e-05
1.18922290302e-05
1.88508857193e-06
1.52008205448e-06
5.06385672539e-06
1.9944811133e-06
1.88818114392e-06
1.47484863893e-06
2.62741681867e-06
1.07960231953e-06
1.59107579537e-06
5.37079927454e-07
1.60718907366e-05
0.000140005985133
0.000112057657366

