# vtk DataFile Version 3.0
File Name: Molecule/methanol/Error_  20.00-0.vtk
ASCII
DATASET UNSTRUCTURED_GRID
FIELD FieldData 1
TIME 1 1 double
0.0
POINTS 981 double
1.611 0.0 -0.359
1.594 -0.24 -0.357
1.475 0.0 -0.634
1.459 -0.224 -0.633
1.403 0.0 -0.933
1.387 -0.218 -0.931
1.543 -0.475 -0.352
1.412 -0.444 -0.628
1.341 -0.432 -0.927
1.459 -0.7 -0.344
1.333 -0.655 -0.62
1.265 -0.637 -0.919
1.345 -0.911 -0.332
1.226 -0.852 -0.61
1.16 -0.83 -0.909
1.201 -1.103 -0.318
1.092 -1.033 -0.596
1.03 -1.005 -0.896
1.032 -1.273 -0.301
0.934 -1.192 -0.58
0.876 -1.16 -0.88
0.841 -1.417 -0.282
0.754 -1.326 -0.563
0.701 -1.291 -0.863
0.631 -1.532 -0.261
0.558 -1.434 -0.543
0.51 -1.396 -0.844
0.407 -1.616 -0.239
0.348 -1.513 -0.522
0.306 -1.472 -0.824
0.173 -1.667 -0.216
0.129 -1.561 -0.5
0.093 -1.519 -0.802
-0.065 -1.684 -0.192
-0.094 -1.577 -0.478
-0.124 -1.534 -0.781
-0.304 -1.667 -0.168
-0.317 -1.561 -0.456
-0.341 -1.519 -0.759
-0.538 -1.616 -0.145
-0.536 -1.513 -0.434
-0.554 -1.472 -0.738
-0.762 -1.532 -0.123
-0.746 -1.434 -0.413
-0.758 -1.396 -0.718
-0.972 -1.417 -0.102
-0.942 -1.326 -0.394
-0.95 -1.291 -0.699
-1.163 -1.273 -0.083
-1.121 -1.192 -0.376
-1.124 -1.16 -0.681
-1.332 -1.103 -0.066
-1.28 -1.033 -0.36
-1.278 -1.005 -0.666
-1.475 -0.911 -0.051
-1.414 -0.852 -0.347
-1.408 -0.83 -0.653
-1.59 -0.7 -0.04
-1.521 -0.655 -0.336
-1.513 -0.637 -0.642
-1.674 -0.475 -0.032
-1.599 -0.444 -0.328
-1.589 -0.432 -0.635
-1.724 -0.24 -0.027
-1.647 -0.224 -0.323
-1.635 -0.218 -0.63
-1.742 -0.0 -0.025
-1.663 -0.0 -0.322
-1.651 -0.0 -0.629
-1.724 0.24 -0.027
-1.647 0.224 -0.323
-1.635 0.218 -0.63
-1.674 0.475 -0.032
-1.599 0.444 -0.328
-1.589 0.432 -0.635
-1.59 0.7 -0.04
-1.521 0.655 -0.336
-1.513 0.637 -0.642
-1.475 0.911 -0.051
-1.414 0.852 -0.347
-1.408 0.83 -0.653
-1.332 1.103 -0.066
-1.28 1.033 -0.36
-1.278 1.005 -0.666
-1.163 1.273 -0.083
-1.121 1.192 -0.376
-1.124 1.16 -0.681
-0.972 1.417 -0.102
-0.942 1.326 -0.394
-0.95 1.291 -0.699
-0.762 1.532 -0.123
-0.746 1.434 -0.413
-0.758 1.396 -0.718
-0.538 1.616 -0.145
-0.536 1.513 -0.434
-0.554 1.472 -0.738
-0.304 1.667 -0.168
-0.317 1.561 -0.456
-0.341 1.519 -0.759
-0.065 1.684 -0.192
-0.094 1.577 -0.478
-0.124 1.534 -0.781
0.173 1.667 -0.216
0.129 1.561 -0.5
0.093 1.519 -0.802
0.407 1.616 -0.239
0.348 1.513 -0.522
0.306 1.472 -0.824
0.631 1.532 -0.261
0.558 1.434 -0.543
0.51 1.396 -0.844
0.841 1.417 -0.282
0.754 1.326 -0.563
0.701 1.291 -0.863
1.032 1.273 -0.301
0.934 1.192 -0.58
0.876 1.16 -0.88
1.201 1.103 -0.318
1.092 1.033 -0.596
1.03 1.005 -0.896
1.345 0.911 -0.332
1.226 0.852 -0.61
1.16 0.83 -0.909
1.459 0.7 -0.344
1.333 0.655 -0.62
1.265 0.637 -0.919
1.543 0.475 -0.352
1.412 0.444 -0.628
1.341 0.432 -0.927
1.594 0.24 -0.357
1.459 0.224 -0.633
1.387 0.218 -0.931
1.907 0.0 0.656
1.893 0.228 0.656
1.893 0.114 0.853
1.893 -0.114 0.853
1.893 -0.228 0.656
1.893 -0.114 0.459
1.893 0.114 0.459
1.852 0.391 0.881
1.852 0.226 1.047
1.852 -0.0 1.107
1.852 -0.226 1.047
1.852 -0.391 0.881
1.852 -0.452 0.656
1.852 -0.391 0.43
1.852 -0.226 0.264
1.852 -0.0 0.204
1.852 0.226 0.264
1.852 0.391 0.43
1.852 0.452 0.656
1.784 0.629 0.885
1.784 0.513 1.086
1.784 0.335 1.235
1.784 0.116 1.315
1.784 -0.116 1.315
1.784 -0.335 1.235
1.784 -0.513 1.086
1.784 -0.629 0.885
1.784 -0.669 0.656
1.784 -0.629 0.427
1.784 -0.513 0.225
1.784 -0.335 0.076
1.784 -0.116 -0.004
1.784 0.116 -0.004
1.784 0.335 0.076
1.784 0.513 0.225
1.784 0.629 0.427
1.784 0.669 0.656
1.69 0.847 0.883
1.69 0.76 1.094
1.69 0.62 1.276
1.69 0.439 1.415
1.69 0.227 1.503
1.69 0.0 1.533
1.69 -0.227 1.503
1.69 -0.439 1.415
1.69 -0.62 1.276
1.69 -0.76 1.094
1.69 -0.847 0.883
1.69 -0.877 0.656
1.69 -0.847 0.429
1.69 -0.76 0.217
1.69 -0.62 0.035
1.69 -0.439 -0.104
1.69 -0.227 -0.192
1.69 -0.0 -0.222
1.69 0.227 -0.192
1.69 0.439 -0.104
1.69 0.62 0.035
1.69 0.76 0.217
1.69 0.847 0.429
1.69 0.877 0.656
1.572 1.049 0.879
1.572 0.98 1.092
1.572 0.867 1.286
1.572 0.717 1.452
1.572 0.536 1.584
1.572 0.331 1.675
1.572 0.112 1.722
1.572 -0.112 1.722
1.572 -0.331 1.675
1.572 -0.536 1.584
1.572 -0.717 1.452
1.572 -0.867 1.286
1.572 -0.98 1.092
1.572 -1.049 0.879
1.572 -1.072 0.656
1.572 -1.049 0.433
1.572 -0.98 0.219
1.572 -0.867 0.025
1.572 -0.717 -0.141
1.572 0.717 -0.141
1.572 0.867 0.025
1.572 0.98 0.219
1.572 1.049 0.433
1.572 1.072 0.656
1.432 1.232 0.879
1.432 1.172 1.095
1.432 1.074 1.298
1.432 0.943 1.479
1.432 0.78 1.634
1.432 0.593 1.758
1.432 0.387 1.846
1.432 0.168 1.896
1.432 -0.056 1.906
1.432 -0.279 1.876
1.432 -0.492 1.807
1.432 -0.69 1.7
1.432 -0.865 1.56
1.432 -1.013 1.391
1.432 -1.128 1.199
1.432 -1.207 0.989
1.432 -1.247 0.768
1.432 -1.247 0.543
1.432 -1.207 0.323
1.432 -1.128 0.113
1.432 -1.013 -0.08
1.432 0.943 -0.168
1.432 1.074 0.014
1.432 1.172 0.216
1.432 1.232 0.432
1.432 1.252 0.656
1.271 1.395 0.882
1.271 1.34 1.103
1.271 1.251 1.312
1.271 1.129 1.504
1.271 0.979 1.675
1.271 0.803 1.818
1.271 0.606 1.932
1.271 0.393 2.013
1.271 0.17 2.058
1.271 -0.057 2.067
1.271 -0.283 2.04
1.271 -0.501 1.977
1.271 -0.706 1.879
1.271 -0.894 1.75
1.271 -1.058 1.592
1.271 -1.194 1.411
1.271 -1.3 1.209
1.271 -1.372 0.994
1.271 -1.408 0.769
1.271 -1.408 0.542
1.271 -1.372 0.317
1.271 -1.3 0.102
1.271 -1.194 -0.1
1.271 1.129 -0.193
1.271 1.251 -0.001
1.271 1.34 0.208
1.271 1.395 0.429
1.271 1.413 0.656
1.091 1.537 0.882
1.091 1.488 1.103
1.091 1.407 1.315
1.091 1.296 1.513
1.091 1.157 1.692
1.091 0.994 1.85
1.091 0.809 1.982
1.091 0.608 2.085
1.091 0.393 2.158
1.091 0.17 2.2
1.091 -0.057 2.208
1.091 -0.282 2.183
1.091 -0.502 2.126
1.091 -0.71 2.037
1.091 -0.904 1.919
1.091 -1.078 1.774
1.091 -1.229 1.605
1.091 -1.355 1.416
1.091 -1.451 1.211
1.091 -1.516 0.993
1.091 -1.549 0.769
1.091 -1.549 0.542
1.091 -1.516 0.318
1.091 -1.451 0.101
1.091 -1.355 -0.105
1.091 1.296 -0.202
1.091 1.407 -0.004
1.091 1.488 0.208
1.091 1.537 0.429
1.091 1.553 0.656
0.896 1.656 0.883
0.896 1.609 1.107
0.896 1.533 1.321
0.896 1.428 1.524
0.896 1.296 1.71
0.896 1.141 1.877
0.896 0.964 2.021
0.896 0.769 2.14
0.896 0.56 2.23
0.896 0.34 2.292
0.896 0.114 2.323
0.896 -0.114 2.323
0.896 -0.34 2.292
0.896 -0.56 2.23
0.896 -0.769 2.14
0.896 -0.964 2.021
0.896 -1.141 1.877
0.896 -1.296 1.71
0.896 -1.428 1.524
0.896 -1.533 1.321
0.896 -1.609 1.107
0.896 -1.656 0.883
0.896 -1.671 0.656
0.896 -1.656 0.428
0.896 -1.609 0.205
0.896 -1.533 -0.01
0.896 1.533 -0.01
0.896 1.609 0.205
0.896 1.656 0.428
0.896 1.671 0.656
0.688 1.75 0.881
0.688 1.707 1.103
0.688 1.636 1.318
0.688 1.538 1.522
0.688 1.414 1.711
0.688 1.268 1.883
0.688 1.1 2.035
0.688 0.915 2.165
0.688 0.714 2.269
0.688 0.502 2.347
0.688 0.282 2.398
0.688 0.057 2.42
0.688 -0.169 2.412
0.688 -0.393 2.376
0.688 -0.61 2.312
0.688 -0.816 2.22
0.688 -1.01 2.103
0.688 -1.187 1.962
0.688 -1.344 1.8
0.688 -1.479 1.618
0.688 -1.59 1.421
0.688 -1.675 1.212
0.688 -1.732 0.993
0.688 -1.761 0.769
0.688 -1.761 0.543
0.688 -1.732 0.318
0.688 -1.675 0.099
0.688 -1.59 -0.11
0.688 1.636 -0.007
0.688 1.707 0.208
0.688 1.75 0.43
0.688 1.765 0.656
0.471 1.819 0.881
0.471 1.777 1.103
0.471 1.709 1.318
0.471 1.615 1.523
0.471 1.496 1.714
0.471 1.354 1.89
0.471 1.192 2.047
0.471 1.012 2.183
0.471 0.817 2.296
0.471 0.609 2.384
0.471 0.392 2.446
0.471 0.169 2.48
0.471 -0.056 2.487
0.471 -0.281 2.467
0.471 -0.502 2.418
0.471 -0.714 2.343
0.471 -0.916 2.243
0.471 -1.104 2.118
0.471 -1.276 1.971
0.471 -1.428 1.805
0.471 -1.558 1.62
0.471 -1.665 1.422
0.471 -1.746 1.211
0.471 -1.801 0.992
0.471 -1.829 0.768
0.471 -1.829 0.543
0.471 -1.801 0.319
0.471 -1.746 0.1
0.471 -1.665 -0.11
0.471 1.709 -0.006
0.471 1.777 0.209
0.471 1.819 0.43
0.471 1.833 0.656
0.247 1.86 0.881
0.247 1.819 1.104
0.247 1.752 1.32
0.247 1.659 1.526
0.247 1.542 1.72
0.247 1.403 1.898
0.247 1.243 2.058
0.247 1.064 2.198
0.247 0.871 2.315
0.247 0.664 2.408
0.247 0.448 2.475
0.247 0.226 2.516
0.247 -0.0 2.529
0.247 -0.226 2.516
0.247 -0.448 2.475
0.247 -0.664 2.408
0.247 -0.871 2.315
0.247 -1.064 2.198
0.247 -1.243 2.058
0.247 -1.403 1.898
0.247 -1.542 1.72
0.247 -1.659 1.526
0.247 -1.752 1.32
0.247 -1.819 1.104
0.247 -1.86 0.881
0.247 -1.874 0.656
0.247 -1.86 0.43
0.247 -1.819 0.207
0.247 -1.752 -0.009
0.247 1.752 -0.009
0.247 1.819 0.207
0.247 1.86 0.43
0.247 1.874 0.656
0.019 1.874 0.879
0.019 1.835 1.099
0.019 1.769 1.313
0.019 1.679 1.517
0.019 1.566 1.71
0.019 1.43 1.888
0.019 1.274 2.048
0.019 1.1 2.189
0.019 0.911 2.309
0.019 0.709 2.405
0.019 0.498 2.476
0.019 0.279 2.522
0.019 0.056 2.542
0.019 -0.168 2.536
0.019 -0.389 2.503
0.019 -0.605 2.444
0.019 -0.812 2.36
0.019 -1.008 2.252
0.019 -1.189 2.121
0.019 -1.354 1.97
0.019 -1.5 1.801
0.019 -1.625 1.615
0.019 -1.727 1.416
0.019 -1.805 1.207
0.019 -1.858 0.989
0.019 -1.884 0.767
0.019 -1.884 0.544
0.019 -1.858 0.322
0.019 -1.805 0.104
0.019 1.769 -0.002
0.019 1.835 0.212
0.019 1.874 0.432
0.019 1.888 0.656
-0.209 1.874 0.656
-0.209 1.86 0.881
-0.209 1.819 1.104
-0.209 1.752 1.32
-0.209 1.659 1.526
-0.209 1.542 1.72
-0.209 1.403 1.898
-0.209 1.243 2.058
-0.209 1.064 2.198
-0.209 0.871 2.315
-0.209 0.664 2.408
-0.209 0.448 2.475
-0.209 0.226 2.516
-0.209 -0.0 2.529
-0.209 -0.226 2.516
-0.209 -0.448 2.475
-0.209 -0.664 2.408
-0.209 -0.871 2.315
-0.209 -1.064 2.198
-0.209 -1.243 2.058
-0.209 -1.403 1.898
-0.209 -1.542 1.72
-0.209 -1.659 1.526
-0.209 -1.752 1.32
-0.209 -1.819 1.104
-0.209 -1.86 0.881
-0.209 -1.874 0.656
-0.209 -1.86 0.43
-0.209 -1.819 0.207
-0.209 -1.752 -0.009
-0.209 1.752 -0.009
-0.209 1.819 0.207
-0.209 1.86 0.43
-0.433 1.833 0.656
-0.433 1.819 0.881
-0.433 1.777 1.103
-0.433 1.709 1.318
-0.433 1.615 1.523
-0.433 1.496 1.714
-0.433 1.354 1.89
-0.433 1.192 2.047
-0.433 1.012 2.183
-0.433 0.817 2.296
-0.433 0.609 2.384
-0.433 0.392 2.446
-0.433 0.169 2.48
-0.433 -0.056 2.487
-0.433 -0.281 2.467
-0.433 -0.502 2.418
-0.433 -0.714 2.343
-0.433 -0.916 2.243
-0.433 -1.104 2.118
-0.433 -1.276 1.971
-0.433 -1.428 1.805
-0.433 -1.558 1.62
-0.433 -1.665 1.422
-0.433 -1.746 1.211
-0.433 -1.801 0.992
-0.433 -1.829 0.768
-0.433 -1.829 0.543
-0.433 -1.801 0.319
-0.433 -1.746 0.1
-0.433 1.709 -0.006
-0.433 1.777 0.209
[...]
CELL_DATA 1958
SCALARS cell_data_0 double
LOOKUP_TABLE default
8.64187044502e-06
4.72700460034e-05
9.42528520532e-06
2.18447586148e-05
8.9869381869e-06
4.2707805063e-05
1.60078016023e-06
4.55173120454e-06
8.71458119361e-06
3.02577144284e-05
3.70014745761e-06
2.04220567229e-06
4.80198097865e-06
1.7954090293e-05
4.05810247634e-06
1.44903325152e-06
3.07158553841e-06
8.95698668671e-06
2.54147568788e-06
3.28467035447e-07
1.34387615392e-06
3.51838601012e-06
1.17233667479e-06
2.23163318628e-06
2.67036088078e-07
7.59108692482e-07
5.66501903887e-08
4.58173035221e-07
3.31530769384e-07
5.07826471758e-07
5.37297435049e-07
5.5279771034e-07
7.72998792809e-07
7.69247265233e-07
6.2540617178e-07
1.83046138516e-06
9.86778471186e-07
4.19517125891e-07
2.26500035353e-08
1.29878799116e-06
5.28578556716e-07
7.149616153e-08
1.09448280862e-06
1.46107142767e-06
4.93164746083e-07
5.35362993643e-07
1.52331957283e-06
1.28907591198e-06
4.19055156039e-08
1.32920401737e-06
2.36736895617e-06
5.61495217773e-07
4.44042287575e-08
2.09749986398e-06
3.45669971028e-06
5.25820246627e-07
7.84453730843e-07
2.37914713371e-06
3.69918365204e-06
2.27442933666e-06
2.26314358848e-07
2.59650731319e-06
4.61896799824e-06
4.48782832513e-07
3.10797781545e-07
3.22766836184e-06
5.40598609088e-06
3.88368444695e-07
7.48459339525e-07
3.65223826556e-06
5.35523521087e-06
1.87938500417e-06
1.31515778014e-06
4.1355927788e-06
5.79707842734e-06
8.04795304556e-07
1.21134449855e-06
4.99013715182e-06
7.05901660258e-06
7.55055161298e-07
9.57428795855e-07
4.37853301895e-06
6.80375302376e-06
9.13462799746e-07
9.96048820086e-07
5.09772330997e-06
6.99547333679e-06
1.05934422066e-06
8.04064659084e-07
4.79817563474e-06
7.29613706106e-06
1.21560473517e-06
1.39875427516e-06
5.21057057436e-06
7.10289308884e-06
1.41120061136e-06
7.75609784056e-07
5.04826702432e-06
7.54441928129e-06
1.16663154163e-06
1.77649332065e-06
5.25118840413e-06
7.67342511591e-06
1.37543797813e-06
1.90042849916e-06
5.18019910799e-06
7.4971311259e-06
1.47308778245e-06
2.30688726185e-06
5.25606991995e-06
7.37609976652e-06
1.45422405408e-06
1.85675874292e-06
5.17933550686e-06
7.23956263124e-06
1.43830426398e-06
1.81430475343e-06
4.93848391296e-06
7.1344638327e-06
1.31643193094e-06
1.53740847588e-06
4.68470803504e-06
6.73302101842e-06
1.17309200937e-06
1.26053454716e-06
4.08677556367e-06
6.21944004531e-06
1.22782206987e-06
1.07730606204e-06
3.49068670136e-06
5.56434219914e-06
9.74910964035e-07
8.02736220736e-07
2.83896613038e-06
4.54513076173e-06
7.7008190264e-07
6.4777822066e-07
2.08378183348e-06
3.70309877679e-06
2.8608061904e-07
3.44363940374e-07
1.26773437869e-06
1.88446868257e-06
4.62413196742e-07
2.29138770134e-07
4.49303677704e-07
6.73195624189e-07
6.78424730519e-08
6.86887093553e-08
4.21785676077e-07
5.49515806269e-07
4.67842339124e-07
3.10827666028e-07
8.4212684791e-10
2.13702438886e-06
2.0166936094e-06
1.2428749969e-07
5.41783965853e-07
3.88194766664e-06
3.70298257897e-06
1.9349948933e-07
4.44712611829e-06
5.46983313433e-06
5.5621827696e-06
9.59761600359e-07
1.27539977937e-05
6.11329390683e-06
7.20411093759e-06
2.59647382772e-06
2.61059496857e-05
9.42257379802e-06
1.12817023572e-05
6.02084398323e-06
4.1269017443e-05
8.22696771611e-06
2.40784369977e-05
7.42917219743e-08
1.25643456961e-07
2.24448233724e-07
1.48434784681e-07
2.88358857134e-07
1.35623405723e-07
9.93692613322e-08
8.32869916678e-08
5.12584041633e-08
5.85941330256e-08
4.04483271175e-08
2.72167308285e-07
4.23132428334e-07
1.07173348115e-07
7.42404738523e-08
1.66411924495e-07
1.97561558578e-07
3.97931115798e-09
5.82026451774e-08
1.39191145462e-07
1.04574362148e-07
1.16286705454e-08
3.00240102591e-08
9.81077880722e-09
9.0450444063e-08
7.43599040997e-08
7.72398416895e-08
3.11813678657e-08
2.64267132303e-08
1.47365176148e-07
8.39135809386e-08
1.1621935313e-07
1.58408123998e-08
2.96337572296e-08
1.2644582917e-07
1.66605626871e-07
2.24709086566e-07
6.52502975658e-08
1.40181639399e-08
2.25793216654e-07
6.75220297139e-09
1.08080085557e-07
2.09041985768e-07
2.35399573457e-07
1.43299113418e-07
5.02999770302e-08
9.6624956392e-08
2.91689795682e-07
2.78117294896e-07
7.63828936333e-08
6.38594407338e-08
9.48302259746e-08
5.66036814098e-08
5.0638319769e-08
7.17336540314e-08
6.54625150949e-08
8.11433264405e-08
4.27748008853e-08
6.22948685604e-08
1.54624109052e-09
2.97058758465e-08
1.13411637243e-07
9.6986950102e-08
1.97779910999e-08
2.13770827655e-08
9.86830862081e-08
8.48479856343e-09
1.81224248474e-08
6.96177658133e-08
1.01579419623e-07
1.80161927102e-07
3.42897375566e-08
1.84013065466e-07
5.62406240087e-08
4.14565483193e-08
2.22227777706e-07
1.64721669986e-08
5.81179706616e-08
5.51591854825e-08
1.63067581949e-07
5.30418375211e-07
7.82070659788e-07
1.89562133742e-07
3.80642578371e-07
1.64433406251e-07
2.35156746755e-07
1.56277718028e-07
7.01076687332e-07
5.56157738614e-07
1.09411818525e-07
4.25451385539e-08
8.08490066846e-08
8.78292486383e-08
8.8232917071e-08
6.5719860467e-08
5.76805945452e-08
6.68440741205e-08
6.6836567766e-08
6.99990457334e-08
4.68173658427e-08
7.07400275697e-08
1.15131028451e-08
6.40270659923e-08
7.0595120892e-08
6.69495439515e-08
2.42084457429e-08
2.2437606609e-08
6.3594262229e-08
6.00577354544e-08
9.81172861762e-08
2.55062915586e-10
9.45530309477e-08
5.45486864524e-09
1.2125415139e-08
3.35943797903e-08
1.10412694646e-07
1.6992727212e-07
2.14061704461e-08
7.89106945354e-08
5.20641321909e-09
1.19725675916e-07
8.42745082578e-09
6.35571996725e-10
1.83784081522e-07
7.84819787955e-08
6.06214024346e-08
1.49114195097e-07
7.10319649149e-08
9.42099432738e-08
3.1983860412e-07
2.00771057376e-07
6.50862169255e-08
1.67157062712e-07
5.99993559624e-08
7.78266732072e-08
7.79138109298e-08
7.50206428693e-08
5.47651039726e-08
6.8368699134e-08
7.91301996089e-08
4.54950104362e-08
5.85708397536e-08
5.95185270589e-09
5.96292113768e-08
9.9812194134e-09
6.49028378722e-08
8.47847579341e-08
6.77371589309e-08
7.24022551347e-09
5.86020446975e-08
3.23687482164e-08
2.84301717549e-08
1.05856638783e-07
1.7266520166e-07
5.00830589804e-08
2.99936221285e-08
7.9881374582e-08
1.33968149784e-08
8.43410308008e-08
1.94594580636e-08
7.69133292471e-08
1.23082525069e-08
7.19068205386e-08
5.59249792097e-08
1.83863026404e-08
6.45210015324e-08
1.22464429602e-08
8.38682314721e-08
1.84931426668e-08
1.20390531932e-07
2.28573768888e-08
9.78803413793e-08
4.84421026644e-08
1.18159493896e-07
4.28203012252e-08
2.2749124301e-08
2.33621105937e-07
1.39775723639e-07
1.59495129259e-09
1.57874675834e-07
7.31942482269e-08
1.19954617689e-07
2.53173482906e-08
8.61188729866e-08
1.45947126723e-07
4.99120153422e-08
5.74933707165e-08
6.21323034738e-08
1.31212541648e-08
3.0960238871e-08
4.67352564229e-08
1.2670742719e-07
1.90444168699e-07
1.26450991772e-07
1.68689694125e-08
2.20259572798e-08
4.81272516235e-08
1.34127605959e-08
4.55927443088e-08
1.82530748573e-08
5.9589635645e-08
6.05756771929e-08
2.18141665281e-07
2.07513637947e-07
7.55498434462e-09
3.21141763204e-08
2.3493037326e-08
5.33822174382e-08
1.26277239661e-08
5.84451770709e-08
1.32761980779e-08
5.85499185352e-08
2.90744669269e-09
4.57501869218e-08
3.62892690206e-09
9.53184976749e-10
4.2851203661e-08
5.58411325913e-08
4.80615019259e-08
9.33400990537e-08
5.1369622284e-08
1.13807929765e-08
1.04565873789e-07
1.56019689294e-09
1.33480819806e-07
4.27948419465e-08
1.58392236055e-07
1.81486091649e-09
4.16160472074e-07
2.29583369156e-07
7.37201185084e-08
1.23717466905e-07
1.29324265064e-08
9.11854961473e-08
1.53513954854e-08
6.98992921878e-08
2.64566863272e-08
7.10547162571e-08
1.00192794419e-07
5.8715694365e-08
6.32871803612e-08
4.42207029277e-08
6.91112973972e-08
3.09745735588e-08
4.24969948478e-09
2.7973859763e-08
2.55699474262e-08
6.28454592206e-08
1.89928714004e-08
2.31118085908e-09
4.02249250789e-08
2.15019628684e-09
4.76374025967e-08
1.90633415433e-08
4.67723915349e-08
1.72324296796e-08
2.59708771574e-07
1.81534746524e-07
4.01151321823e-10
4.55173933708e-08
1.86705077482e-08
3.66258522076e-08
2.29983805396e-08
4.25884124108e-08
3.47490634789e-08
5.08144005073e-08
3.21754871966e-08
5.42812108579e-08
3.18420445182e-08
1.08224752744e-07
5.56159138581e-08
7.22556514641e-08
1.57814420557e-09
4.12821803233e-08
2.82874164054e-08
3.80200846006e-08
5.46178137865e-08
1.68424633593e-08
1.64108681021e-08
8.86424583429e-08
3.09733694996e-08
3.86839456497e-08
1.12507338293e-07
6.76645987932e-08
1.70910416848e-07
7.96799942195e-08
2.15949820379e-07
1.31188198153e-07
3.73866761253e-08
6.36344649626e-08
7.63579788891e-09
5.25772402449e-08
8.41778564578e-09
6.6915195762e-08
8.87217421511e-08
8.09379281207e-08
5.89170607925e-08
6.0654934598e-08
5.10738725067e-08
6.24234759518e-08
4.61205833151e-08
4.95111120304e-08
1.53359137473e-08
4.2320949941e-08
1.41007515244e-08
3.61411187035e-08
4.52226274897e-08
7.15025185292e-08
4.90262856128e-08
2.74356678955e-08
2.19158967843e-08
5.16891429669e-09
4.86981850857e-08
3.94205277285e-08
2.45000666722e-07
1.58101779895e-07
4.40409949186e-09
4.66657633523e-08
3.88085721385e-09
2.77816647817e-08
4.60748129851e-08
1.38254149315e-08
9.56622915894e-09
8.79974497819e-09
2.50324386768e-08
7.55680599243e-09
1.51258307396e-08
6.7343637906e-09
4.58795629263e-08
3.98226248272e-08
9.25961447725e-09
2.63663858154e-08
3.09701525013e-09
3.60347495123e-08
8.2156216186e-09
4.57398479066e-08
3.57656886583e-10
3.39852632392e-08
1.2528482061e-08
6.26591492173e-08
2.20235799072e-09
6.66222737834e-08
1.04926845867e-08
3.73414840905e-08
7.90640308371e-08
1.06008766494e-08
4.15189502882e-08
2.64848129556e-08
2.45690322302e-08
2.1208050335e-08
7.60159136186e-08
8.13605336271e-08
6.35930701676e-08
5.15091739137e-08
6.35150003905e-08
5.16009748222e-08
7.79618862724e-08
3.46976139493e-08
4.7713336996e-08
2.41383695733e-08
7.86069764813e-08
1.34619314649e-08
4.54530881746e-08
1.63114672079e-08
2.59352747887e-08
2.80349808127e-08
1.07197022031e-07
1.89389897916e-08
1.60526516165e-08
4.05035602806e-08
2.90260158706e-09
6.07451678632e-08
5.236289018e-08
7.03564525858e-08
1.94570169519e-08
7.20017459351e-08
9.1478870311e-09
3.99644462799e-08
1.24043750375e-08
6.47060597716e-08
1.29809567941e-08
1.27764870617e-08
3.76474673016e-08
8.62556342505e-09
1.31988560957e-08
4.05741283562e-10
7.05585029924e-09
1.4465300457e-08
7.84360700855e-08
6.45135682892e-08
3.24509479005e-09
1.69694338057e-08
7.07291730791e-09
1.95276031923e-08
1.88137072307e-08
2.1949016609e-08
2.69012389673e-08
1.29613641261e-09
3.46525686791e-08
7.758510211e-09
5.06345746742e-08
4.01187623984e-09
4.04863603444e-08
2.45656924402e-10
1.95280451776e-08
3.36374665636e-10
2.23964889276e-08
1.13807233387e-08
5.52179493061e-11
7.35565105732e-09
7.68183229111e-08
5.40289197981e-08
6.41338864281e-08
4.17327079472e-08
9.45821427172e-09
7.53148954932e-08
1.04768175685e-07
2.45065059473e-08
5.79769721829e-08
2.58875746612e-08
4.93925493936e-08
1.73393572819e-08
6.38825301173e-08
1.20014380184e-08
3.6858554218e-08
2.25694320317e-08
1.05169092926e-08
8.59656998806e-08
1.06622315559e-07
1.8545001795e-08
1.76238637923e-08
2.87887816426e-08
5.80761193043e-09
5.39850588674e-08
7.94334724349e-08
2.32124545175e-08
1.0690866166e-08
5.19241983211e-08
1.19645832702e-08
2.71394975726e-08
1.59200738417e-08
4.84376984611e-08
1.07552012047e-08
3.73464886425e-09
2.93949768977e-09
2.08367734409e-08
1.7960749915e-08
4.05009363679e-08
3.28827906201e-08
4.68098528778e-08
3.03377598354e-08
8.88593409878e-09
5.62099539831e-08
4.31015198212e-08
4.44347398081e-08
5.85292471108e-08
5.73985804606e-08
6.62908627401e-08
5.57882450068e-08
4.06899519023e-10
3.83267609341e-09
3.8775418627e-10
4.79341606718e-09
7.89222581957e-10
2.34980333409e-09
1.24966410767e-08
5.81977842442e-09
9.71881478066e-10
7.99962616212e-10
9.72660911867e-10
4.15937493716e-09
9.65331574545e-09
7.64866450893e-09
6.15141581794e-08
4.14897001974e-08
5.28185852733e-08
8.67441284874e-08
1.84114683289e-07
1.54511669266e-08
6.78817920427e-08
2.36972240399e-08
6.42337855621e-08
2.48277714907e-08
7.23261681502e-08
2.85113680627e-08
4.81306699168e-08
3.84177697787e-09
4.41207442632e-08
3.01908685465e-08
2.10083607626e-08
4.95217273465e-08
8.18178806016e-08
1.23604354341e-07
5.41527724449e-08
3.50831541078e-08
2.31759942905e-09
3.96966443351e-08
2.18471096119e-08
1.22445641363e-07
5.83242016088e-08
3.49182271002e-08
4.21717748383e-08
3.17120495175e-08
6.19553444815e-08
2.42639303748e-08
7.98440559473e-08
9.32928204985e-09
3.64666963478e-08
2.02660149224e-08
1.30766298005e-08
1.52934456123e-08
7.33470291662e-09
1.15327008711e-08
1.66388405235e-09
5.98738678641e-08
5.15186613098e-08
4.71364767422e-09
6.26040960486e-09
2.22697231704e-08
2.06757502599e-08
1.86590255587e-08
1.16566974555e-08
2.00848827859e-08
1.2712498353e-08
6.60538834069e-09
2.07046009365e-09
3.88354138347e-09
2.25780881657e-09
1.48329933564e-08
1.07322841453e-08
2.64896217852e-08
1.87575905731e-08
9.5251739246e-09
4.95694140556e-09
1.43158292573e-08
1.13764927607e-08
4.98764703472e-09
5.19044483014e-08
2.89304353823e-08
3.30081064184e-08
7.81077158499e-08
1.38584470731e-07
2.94083269979e-08
3.50436764893e-08
4.24255009239e-08
3.64544615727e-08
4.30660979694e-08
1.73597319176e-08
4.86563066779e-08
1.18960216934e-08
9.97947432055e-08
1.90111183563e-07
1.46427790347e-07
1.96588794251e-07
2.00948145811e-07
2.32328473699e-07
2.58993416767e-07
1.35481613444e-07
2.5164584547e-09
8.46268538927e-08
6.92309881762e-08
1.25596339585e-07
8.50018162819e-08
3.93749395312e-08
7.2927537192e-08
1.85898309125e-08
8.43462124034e-08
2.94638427985e-08
6.25355777206e-08
2.32269305377e-08
8.30050928446e-08
2.0117848826e-08
5.41891747306e-08
4.02850203886e-08
6.96136586884e-08
2.43118930203e-08
2.4385557406e-08
1.83454474764e-08
1.82696081521e-08
4.63607897968e-08
5.91605186886e-08
5.79406178389e-08
7.28710395169e-08
4.6848413789e-08
3.33487635963e-08
1.33324750771e-08
7.6978278096e-09
2.69988090078e-10
4.08387457408e-09
2.49291962418e-09
1.01654753612e-10
1.03330334587e-08
2.62647044485e-08
9.17831618154e-09
6.60232123552e-08
2.59787148163e-08
4.48032864137e-08
3.55521875314e-08
2.09834948521e-08
5.68784966044e-09
7.57068491696e-09
3.82480465235e-08
1.42585852375e-08
1.03933835573e-08
1.43174547722e-08
2.60264384968e-10
6.29829358466e-09
1.06890145437e-08
2.01817556085e-09
1.95754168283e-08
1.44611705313e-08
6.74852255988e-09
4.7947409999e-08
2.9631976026e-09
6.15582277819e-08
8.34999052261e-09
2.42540784972e-08
1.3105428991e-08
1.87134981158e-08
6.85727380499e-09
1.37363639092e-08
1.02865074155e-08
7.57414164021e-09
7.51028762943e-09
7.4418929205e-09
9.49293131101e-09
3.64803261657e-09
3.60487279794e-08
7.8228591453e-08
1.09968765294e-08
3.1810739306e-08
5.81561901056e-09
3.99272901601e-08
1.64212017702e-08
1.1026999097e-08
4.1758609407e-09
4.40795423754e-08
7.57424138895e-09
4.32314449291e-08
3.80968368375e-09
2.50525662593e-08
1.88327403828e-08
2.44121790723e-08
5.03576197817e-09
1.82515367618e-08
8.75686455564e-09
1.44846449304e-08
7.81968063039e-09
1.67658595373e-08
6.4871755101e-09
7.27567611455e-09
7.98284483632e-09
2.63572438206e-09
3.99697281241e-09
3.90159333333e-09
1.24092321473e-09
1.00225735238e-08
1.6340733994e-08
5.22330161042e-08
5.2069689362e-08
3.85336832366e-07
1.52671962813e-07
1.36340737037e-07
1.57226089791e-08
7.66442570349e-09
4.07559831188e-08
7.85682385655e-09
1.46254871998e-08
1.80111390313e-08
6.3549781008e-09
1.84745186269e-08
4.44407709287e-09
1.21680747306e-08
2.28648996351e-08
1.55176767849e-08
2.79071345386e-08
4.75710145168e-09
6.66421425386e-09
4.89034441192e-09
6.09552365803e-09
9.30961261051e-09
1.31123581842e-08
6.94434318643e-09
3.34087615981e-09
1.03095604387e-09
1.29788161208e-08
8.06360493785e-10
7.45043684776e-09
1.05275375621e-08
3.687759936e-08
5.46346897498e-08
9.19162582707e-08
6.38326665508e-08
3.86342673554e-09
2.21074241581e-08
1.21216034454e-08
2.84015580385e-08
9.91272366415e-09
4.32425644828e-09
3.21952252306e-09
3.84129334613e-08
6.77414835546e-09
3.81700719469e-08
4.36880044755e-09
3.45220215652e-08
2.01558293131e-09
2.91645298631e-08
5.54167022579e-09
2.92789489654e-08
1.33839677161e-08
3.26902762761e-08
1.97659549701e-09
1.02238894043e-08
2.96061685505e-09
3.53677440514e-09
3.12930289861e-09
4.76803862999e-09
5.75025192425e-09
2.9669174982e-08
7.46363958853e-08
2.36497855597e-09
3.80845609266e-08
2.69300680683e-08
4.79665355169e-07
3.01793382953e-07
2.11000082721e-07
7.25788670699e-08
1.65054377133e-08
6.56889727602e-08
2.15194811899e-09
1.67236521989e-08
1.31083459848e-08
5.86632083975e-09
1.0041511443e-08
6.48557977206e-09
1.21699726111e-08
1.286764474e-08
3.01926044898e-08
5.5959537545e-08
3.83060804222e-09
1.81394637075e-08
3.44206236917e-09
1.13702329342e-08
5.89664657442e-09
1.43121048023e-09
8.3739591688e-09
4.51963961485e-09
1.05161901755e-08
2.75378895866e-08
4.58665536544e-08
5.31334115876e-08
5.21969718588e-08
2.68035450377e-08
4.00370170194e-08
3.52250633998e-08
1.3558481121e-08
4.98508783041e-09
9.21693584714e-09
3.80274262586e-09
1.36367305602e-08
1.14070236844e-08
1.81841251786e-08
9.81124593846e-09
1.86384966782e-08
1.18773724437e-08
1.14684400911e-08
9.88633390755e-09
7.90894785207e-09
2.60561144637e-08
1.49715014121e-08
5.68431006133e-08
2.56728245695e-08
1.03699397965e-08
8.59153526663e-09
4.52562118398e-09
7.87201098951e-09
4.27260269615e-09
1.52184662419e-10
5.39419619931e-08
5.20830555278e-08
2.15804954387e-07
1.87146419254e-07
2.17420438463e-07
2.71054724681e-07
6.82566465951e-07
3.37523724722e-07
2.05060289614e-07
7.76330034542e-08
3.78871721644e-08
8.48900861233e-08
2.15711926109e-08
1.58837792341e-08
5.36726892761e-09
3.61963108006e-09
5.48188445392e-09
1.0369119473e-08
6.53015840281e-10
2.05923478581e-08
2.49240354009e-08
5.97617037057e-08
2.01047652171e-08
3.33938875812e-08
1.08199976378e-08
4.31127926926e-08
2.2461990899e-08
6.34229939553e-08
2.82636481006e-08
4.6833526946e-08
3.22551593613e-08
2.01777701841e-08
8.50653138538e-09
1.74624473117e-08
5.0362744108e-09
4.57728782429e-08
3.04696293718e-08
2.0305128669e-08
2.35752659552e-09
2.02974286488e-08
6.86122464538e-09
1.19448619842e-08
3.08682864014e-09
8.67721130572e-08
8.04585485035e-08
5.36953210323e-08
3.00289754732e-08
4.43599105443e-08
7.53416585627e-09
5.52695782336e-08
2.62879996505e-08
1.32573030854e-08
4.76724883217e-09
1.74153784668e-08
7.24175575961e-10
5.35489584022e-09
3.51567175115e-09
4.37583211342e-09
2.78299769379e-09
3.70518767426e-08
7.05465052414e-08
2.61258458871e-08
6.27484775242e-08
4.63262579741e-08
4.96801991504e-07
1.89286745696e-07
1.28069938644e-07
1.06852442216e-07
1.13554976024e-07
1.78540765948e-08
3.06778419223e-08
5.3180269072e-09
4.31052016078e-09
1.67620913736e-09
1.15799958758e-08
4.34130430055e-09
2.16933627274e-08
3.62279453458e-09
4.52805350024e-09
4.11243702062e-08
2.42705665545e-08
3.26495205425e-09
8.77861725915e-09
1.54308713937e-08
8.84909324717e-10
5.19033479922e-09
1.34085476938e-08
4.67294589799e-09
2.05626321513e-08
3.23838035053e-09
3.19163441642e-08
3.53419155131e-08
2.87024573125e-08
3.72673212136e-09
2.25049314651e-08
6.99625136771e-09
1.69905655838e-08
1.7326238832e-08
8.01152767761e-08
1.99767323182e-08
4.37989429889e-08
2.62031787427e-08
6.18234398142e-08
1.59316042908e-08
3.08524910962e-08
6.18007068648e-09
3.40097655579e-08
6.65135953705e-09
1.2605691199e-08
5.90130520575e-09
5.39432153958e-09
1.36109663818e-09
2.02653425934e-08
1.18969092432e-08
6.37686175513e-08
5.86951250297e-08
1.0719459809e-08
1.05750062452e-07
2.86292722763e-07
2.53597922264e-07
1.44616151576e-07
1.3242366716e-07
3.61506602285e-08
7.15216370251e-08
9.25583395278e-09
1.9618741359e-08
4.78591587991e-09
1.07214776244e-08
1.92835230638e-08
1.89709273536e-08
3.20297119573e-08
2.7616084547e-08
2.60547692525e-08
1.14356192843e-08
1.72345776476e-08
6.19251080096e-09
1.9150081289e-08
1.8112816776e-08
1.60485814402e-08
3.48746678687e-08
2.17962336433e-08
4.93812675821e-08
3.24759306622e-08
3.06258821576e-08
4.2718658144e-08
1.90208751187e-08
2.71373553084e-08
2.20683214882e-08
1.33128751059e-08
3.11049967488e-08
5.63948321341e-09
3.31240133331e-08
2.59049413371e-08
3.89324185663e-08
3.89454565087e-08
1.58194584519e-08
1.67314708817e-08
8.80103140893e-09
5.83828482442e-09