# vtk DataFile Version 3.0
File Name: Molecule/methanol/Error_   2.00-4.vtk
ASCII
DATASET UNSTRUCTURED_GRID
FIELD FieldData 1
TIME 1 1 double
0.0
POINTS 193 double
1.445 -0.731 -0.342
0.98 -1.317 -0.296
1.252 -0.666 -0.918
0.828 -1.2 -0.876
0.308 -1.642 -0.229
0.216 -1.496 -0.815
-0.438 -1.642 -0.155
-0.464 -1.496 -0.747
-1.11 -1.317 -0.088
-1.076 -1.2 -0.686
-1.576 -0.731 -0.042
-1.5 -0.666 -0.644
-1.742 0.0 -0.025
-1.651 0.0 -0.629
-1.576 0.731 -0.042
-1.5 0.666 -0.644
-1.11 1.317 -0.088
-1.076 1.2 -0.686
-0.438 1.642 -0.155
-0.464 1.496 -0.747
0.308 1.642 -0.229
0.216 1.496 -0.815
0.98 1.317 -0.296
0.828 1.2 -0.876
1.445 0.731 -0.342
1.907 0.0 0.656
1.763 0.722 0.656
1.763 0.361 1.281
1.763 -0.361 1.281
1.763 -0.722 0.656
1.763 -0.361 0.03
1.763 0.361 0.03
1.354 1.123 1.377
1.354 0.554 1.87
1.354 -0.19 1.977
1.354 -0.874 1.664
1.354 -1.281 1.032
1.354 -1.281 0.28
1.354 1.335 0.656
0.741 1.571 1.412
0.741 1.087 2.019
0.741 0.388 2.356
0.741 -0.388 2.356
0.741 -1.087 2.019
0.741 -1.571 1.412
0.741 -1.744 0.656
0.741 1.744 0.656
0.019 1.744 1.378
0.019 1.335 1.99
0.019 0.722 2.399
0.019 -0.0 2.543
0.019 -0.722 2.399
0.019 -1.335 1.99
0.019 -1.744 1.378
0.019 -1.888 0.656
0.019 1.888 0.656
-0.703 1.744 0.656
-0.703 1.571 1.412
-0.703 1.087 2.019
-0.703 0.388 2.356
-0.703 -0.388 2.356
-0.703 -1.087 2.019
-0.703 -1.571 1.412
-0.703 -1.744 0.656
-1.316 1.335 0.656
-1.316 1.123 1.377
-1.316 0.554 1.87
-1.316 -0.19 1.977
-1.316 -0.874 1.664
-1.316 -1.281 1.032
-1.725 0.722 0.656
-1.725 0.361 1.281
-1.725 -0.361 1.281
-1.725 -0.722 0.656
-1.868 0.0 0.656
1.611 0.0 -0.359
0.648 -0.871 -1.742
-0.12 -1.149 -1.755
-0.12 -0.544 -2.172
0.648 -0.189 -2.053
-0.12 0.185 -2.261
0.648 0.552 -1.946
-0.12 0.872 -2.0
0.648 1.118 -1.456
-0.12 1.359 -1.451
-0.887 -1.276 -1.112
-0.887 -0.871 -1.742
-0.887 -0.189 -2.053
-0.887 0.552 -1.946
-0.887 1.118 -1.456
-1.449 -0.384 -1.402
-1.449 0.384 -1.402
1.48633333333 -0.243666666667 -0.544666666667
1.403 0.0 -0.933
1.36666666667 -0.465666666667 -0.731
1.175 0.865666666667 -0.712
1.252 0.666 -0.918
1.436 0.465666666667 -0.539666666667
1.422 0.222 -0.736666666667
1.60633333333 -0.364 -0.223666666667
1.60633333333 0.364 -0.223666666667
0.835333333333 -0.481333333333 -1.73233333333
0.835333333333 0.249 -1.80033333333
0.909333333333 0.994666666667 -1.08333333333
1.03666666667 0.722666666667 -1.25866666667
1.28833333333 -0.35 -1.08433333333
1.03666666667 -0.640333333333 -1.354
0.909333333333 -0.912333333333 -1.17866666667
-1.15433333333 -1.04733333333 -0.814
0.835333333333 0.684666666667 -1.60133333333
1.21 0.384 -1.402
1.50011111111 -0.0812222222223 -0.612222222222
1.47866666667 0.074 -0.676222222222
1.359 0.296 -0.862555555556
0.897777777778 -0.578777777778 -1.62544444444
0.897777777778 -0.351444444444 -1.72911111111
1.02266666667 -0.063 -1.619
0.960222222223 -0.212 -1.69133333333
0.960222222223 0.044 -1.69133333333
0.897777777778 0.148 -1.75177777778
0.897777777778 0.395 -1.71611111111
1.16622222222 0.590888888889 -1.19288888889
0.96488888889 0.741555555556 -1.37222222222
1.25011111111 0.466666666667 -1.13477777778
1.28833333333 0.35 -1.08433333333
1.30044444444 0.244666666667 -1.13977777778
1.21 -0.384 -1.402
1.29577777778 -0.128 -1.19355555556
1.30044444444 -0.244666666667 -1.13977777778
1.25011111111 -0.466666666667 -1.13477777778
1.16622222222 -0.563444444444 -1.22466666667
0.96488888889 -0.631777777778 -1.49933333333
0.897777777778 0.540222222222 -1.64977777778
0.918592592593 -0.611259259259 -1.58981481481
0.918592592593 -0.308148148148 -1.72803703704
1.12674074074 -0.156 -1.49844444444
0.939407407408 -0.261666666667 -1.71544444444
1.0642962963 -0.219666666667 -1.57077777778
0.939407407408 0.0796666666667 -1.71544444444
1.0642962963 0.121666666667 -1.57077777778
0.918592592593 0.114333333333 -1.73559259259
0.981037037037 0.260333333333 -1.65137037037
0.918592592593 0.443666666667 -1.68803703704
1.30448148148 0.209555555556 -1.15825925926
1.29577777778 0.128 -1.19355555556
1.30292592593 0.170666666667 -1.17618518519
1.27433333333 0.0 -1.24566666667
1.32437037037 0.0426666666667 -1.12407407408
1.26003703704 0.170666666667 -1.28040740741
1.26003703704 -0.170666666667 -1.28040740741
1.32437037037 -0.0426666666667 -1.12407407408
1.23144444444 0.0 -1.34988888889
1.21714814815 0.0 -1.38462962963
1.23859259259 -0.128 -1.33251851852
1.23859259259 0.128 -1.33251851852
1.26625925926 -0.326222222222 -1.2087037037
1.23737037037 -0.505555555556 -1.15159259259
1.20940740741 -0.537814814815 -1.18155555556
0.940962962963 -0.628925925926 -1.54777777778
1.31444444444 0.338666666667 -0.978444444443
1.49755555556 0.0246666666667 -0.656074074074
0.981037037037 -0.48137037037 -1.58659259259
0.981037037037 -0.405592592592 -1.62114814815
0.981037037037 0.342666666667 -1.63948148148
1.26625925926 0.326222222222 -1.2087037037
1.13762962963 -0.529259259259 -1.32688888889
0.918592592593 0.492074074074 -1.66592592593
0.925530864198 -0.622086419753 -1.5779382716
0.925530864198 -0.293716049383 -1.72767901235
1.2030617284 -0.00233333333333 -1.41003703704
1.18918518519 -0.007 -1.42611111111
1.14755555556 -0.021 -1.47433333333
1.18224691358 -0.137333333333 -1.43414814815
1.18224691358 0.118666666667 -1.43414814815
1.09898765432 -0.08 -1.53059259259
1.16143209877 -0.187 -1.45825925926
1.11980246914 0.140333333333 -1.50648148148
1.12674074074 0.1 -1.49844444444
1.09898765432 0.00533333333333 -1.53059259259
1.16143209877 0.154333333333 -1.45825925926
0.932469135803 -0.278222222222 -1.72348148148
1.03654320988 -0.285888888889 -1.60292592592
0.932469135803 0.0915555555556 -1.72348148148
1.09898765432 0.147555555556 -1.53059259259
1.01572839506 0.0342222222223 -1.62703703704
0.925530864198 0.103111111111 -1.73019753086
0.925530864198 0.459888888889 -1.67867901235
1.30582716049 0.197851851852 -1.16441975309
1.30530864198 0.184888888889 -1.17039506173
1.21238271605 0.0 -1.39620987654
1.23312345679 -0.518518518519 -1.15719753086
1.22380246914 -0.529271604938 -1.16718518519
0.932987654321 -0.627975308642 -1.56392592593

CELLS 382 1528
3 0 1 2
3 2 1 3
3 1 4 3
3 3 4 5
3 4 6 5
3 5 6 7
3 6 8 7
3 7 8 9
3 8 10 9
3 9 10 11
3 10 12 11
3 11 12 13
3 12 14 13
3 13 14 15
3 14 16 15
3 15 16 17
3 16 18 17
3 17 18 19
3 18 20 19
3 19 20 21
3 20 22 21
3 21 22 23
3 22 24 23
3 25 26 27
3 25 27 28
3 25 28 29
3 25 29 30
3 25 30 31
3 25 31 26
3 27 26 32
3 27 32 33
3 27 33 34
3 28 27 34
3 28 34 35
3 28 35 36
3 29 28 36
3 29 36 37
3 30 29 37
3 26 38 32
3 32 38 39
3 32 39 40
3 33 32 40
3 33 40 41
3 34 33 41
3 34 41 42
3 35 34 42
3 35 42 43
3 35 43 44
3 36 35 44
3 36 44 45
3 37 36 45
3 38 46 39
3 39 46 47
3 39 47 48
3 40 39 48
3 40 48 49
3 41 40 49
3 41 49 50
3 42 41 50
3 42 50 51
3 43 42 51
3 43 51 52
3 44 43 52
3 44 52 53
3 45 44 53
3 45 53 54
3 46 55 47
3 47 55 56
3 47 56 57
3 48 47 57
3 48 57 58
3 49 48 58
3 49 58 59
3 50 49 59
3 50 59 60
3 51 50 60
3 51 60 61
3 52 51 61
3 52 61 62
3 53 52 62
3 53 62 63
3 54 53 63
3 57 56 64
3 57 64 65
3 58 57 65
3 58 65 66
3 59 58 66
3 59 66 67
3 60 59 67
3 60 67 68
3 61 60 68
3 62 61 68
3 62 68 69
3 63 62 69
3 65 64 70
3 65 70 71
3 66 65 71
3 67 66 71
3 67 71 72
3 68 67 72
3 69 68 72
3 69 72 73
3 71 70 74
3 72 71 74
3 73 72 74
3 73 74 12
3 73 12 10
3 73 10 8
3 73 8 69
3 69 8 63
3 63 8 6
3 63 6 54
3 54 6 4
3 54 4 45
3 45 4 1
3 45 1 37
3 37 1 0
3 37 0 30
3 30 75 31
3 31 24 26
3 26 24 38
3 38 24 22
3 38 22 46
3 46 22 20
3 46 20 55
3 55 20 18
3 55 18 56
3 56 18 16
3 56 16 64
3 64 16 14
3 64 14 70
3 70 14 12
3 70 12 74
3 76 77 78
3 79 76 78
3 79 78 80
3 81 79 80
3 81 80 82
3 83 81 82
3 83 82 84
3 77 85 86
3 78 77 86
3 78 86 87
3 80 78 87
3 80 87 88
3 82 80 88
3 82 88 89
3 84 82 89
3 86 85 90
3 87 86 90
3 87 90 91
3 88 87 91
3 89 88 91
3 89 91 15
3 89 15 17
3 89 17 19
3 89 19 84
3 84 19 21
3 84 21 83
3 83 21 23
3 76 3 5
3 76 5 77
3 77 5 7
3 77 7 85
3 85 7 9
3 85 11 90
3 90 11 13
3 90 13 91
3 91 13 15
3 75 0 92
3 0 93 92
3 93 0 94
3 0 2 94
3 93 2 94
3 23 24 95
3 24 96 95
3 23 96 95
3 24 75 97
3 75 96 97
3 24 96 97
3 96 75 98
3 30 0 99
3 0 75 99
3 30 75 99
3 31 75 100
3 75 24 100
3 31 24 100
3 76 79 101
3 79 81 102
3 83 23 103
3 23 96 103
3 83 96 103
3 83 96 104
3 93 2 105
3 2 76 106
3 76 2 107
3 2 3 107
3 76 3 107
3 85 9 108
3 9 11 108
3 85 11 108
3 81 83 109
3 110 83 109
3 75 93 111
3 93 92 111
3 75 92 111
3 93 98 112
3 75 98 112
3 96 93 113
3 93 98 113
3 96 98 113
3 76 101 114
3 79 101 115
3 79 116 117
3 79 116 118
3 79 102 119
3 81 102 120
3 96 110 121
3 110 104 121
3 96 104 121
3 83 110 122
3 110 104 122
3 83 104 122
3 110 96 123
3 96 124 123
3 110 124 123
3 93 124 125
3 93 126 127
3 126 93 128
3 93 105 128
3 2 105 129
3 126 105 129
3 2 106 130
3 76 106 131
3 126 106 131
3 81 109 132
3 110 109 132
3 76 114 133
3 126 114 133
3 79 115 134
3 126 115 134
3 126 116 135
3 79 117 136
3 126 116 137
3 116 117 137
3 126 117 137
3 79 118 138
3 110 118 138
3 110 118 139
3 79 119 140
3 110 119 140
3 110 102 141
3 102 119 141
3 110 119 141
3 81 120 142
3 110 120 142
3 93 125 143
3 110 125 143
3 93 144 145
3 110 144 145
3 93 146 147
3 146 144 147
3 93 144 147
3 110 146 148
3 146 144 148
3 110 144 148
3 126 146 149
3 146 127 149
3 126 127 149
3 93 146 150
3 146 127 150
3 93 127 150
3 126 151 152
3 110 151 152
3 126 146 153
3 146 151 153
3 126 151 153
3 110 146 154
3 146 151 154
3 110 151 154
3 126 105 155
3 105 128 155
3 126 128 155
3 2 129 156
3 126 129 156
3 2 130 157
3 126 130 157
3 76 131 158
3 126 131 158
3 96 93 159
3 93 124 159
3 96 124 159
3 75 93 160
3 93 112 160
3 75 112 160
3 126 101 161
3 101 114 161
3 126 114 161
3 126 101 162
3 101 115 162
3 126 115 162
3 110 102 163
3 102 120 163
3 110 120 163
3 110 124 164
3 124 125 164
3 110 125 164
3 126 106 165
3 106 130 165
3 126 130 165
3 110 81 166
3 81 132 166
3 110 132 166
3 126 76 167
3 76 133 167
3 126 133 167
3 126 79 168
3 79 134 168
3 126 134 168
3 110 126 169
3 126 170 169
3 110 170 169
3 126 171 172
3 171 170 172
3 126 170 172
3 110 171 173
3 171 170 173
3 110 170 173
3 116 171 174
3 171 135 174
3 116 135 174
3 126 171 175
3 171 135 175
3 126 135 175
3 110 116 176
3 116 177 176
3 110 177 176
3 116 171 178
3 171 177 178
3 116 177 178
3 110 171 179
3 171 177 179
3 110 177 179
3 126 79 180
3 79 136 180
3 126 136 180
3 126 117 181
3 117 136 181
3 126 136 181
3 110 79 182
3 79 138 182
3 110 138 182
3 110 116 183
3 116 139 183
3 110 139 183
3 116 118 184
3 118 139 184
3 116 139 184
3 110 79 185
3 79 140 185
3 110 140 185
3 110 81 186
3 81 142 186
3 110 142 186
3 110 93 187
3 93 143 187
3 110 143 187
3 110 93 188
3 93 145 188
3 110 145 188
3 110 126 189
3 126 152 189
3 110 152 189
3 126 2 190
3 2 156 190
3 126 156 190
3 126 2 191
3 2 157 191
3 126 157 191
3 126 76 192
3 76 158 192
3 126 158 192

CELL_TYPES 382
5
5
5
5
5
5
5
5
5
5
5
5
5
5
5
5
5
5
5
5
5
5
5
5
5
5
5
5
5
5
5
5
5
5
5
5
5
5
5
5
5
5
5
5
5
5
5
5
5
5
5
5
5
5
5
5
5
5
5
5
5
5
5
5
5
5
5
5
5
5
5
5
5
5
5
5
5
5
5
5
5
5
5
5
5
5
5
5
5
5
5
5
5
5
5
5
5
5
5
5
5
5
5
5
5
5
5
5
5
5
5
5
5
5
5
5
5
5
5
5
5
5
5
5
5
5
5
5
5
5
5
5
5
5
5
5
5
5
5
5
5
5
5
5
5
5
5
5
5
5
5
5
5
5
5
5
5
5
5
5
5
5
5
5
5
5
5
5
5
5
5
5
5
5
5
5
5
5
5
5
5
5
5
5
5
5
5
5
5
5
5
5
5
5
5
5
5
5
5
5
5
5
5
5
5
5
5
5
5
5
5
5
5
5
5
5
5
5
5
5
5
5
5
5
5
5
5
5
5
5
5
5
5
5
5
5
5
5
5
5
5
5
5
5
5
5
5
5
5
5
5
5
5
5
5
5
5
5
5
5
5
5
5
5
5
5
5
5
5
5
5
5
5
5
5
5
5
5
5
5
5
5
5
5
5
5
5
5
5
5
5
5
5
5
5
5
5
5
5
5
5
5
5
5
5
5
5
5
5
5
5
5
5
5
5
5
5
5
5
5
5
5
5
5
5
5
5
5
5
5
5
5
5
5
5
5
5
5
5
5
5
5
5
5
5
5
5
5
5
5
5
5
5
5
5
5
5
5
5
5
5
5
5
5
5
5
5
5
5
5
5
5
5
5
5
5
5
5
5
5
5
5

CELL_DATA 382
SCALARS cell_data_0 double
LOOKUP_TABLE default
2.16814956863e-05
4.78682643155e-05
0.000126650821638
0.000185946314831
0.000108304274085
0.000152744587524
9.32206169063e-05
0.000104950777671
8.25256525734e-05
4.140770999e-05
7.9055177921e-05
6.85129140096e-05
0.000107411535833
7.6127965055e-05
0.000120032302281
9.53772624581e-05
0.000139397487497
0.000115866427446
0.000162613601695
0.00017575318368
0.000167751969238
0.000210831748581
5.94014973283e-05
3.1146727494e-05
3.20428205544e-05
2.94665915228e-05
3.06255488743e-05
2.20656518771e-05
1.82502781071e-06
4.20349119892e-05
3.28031340384e-05
3.38567373457e-05
3.92524346774e-05
2.8919683788e-05
3.90115570621e-05
3.9911750045e-05
2.59100966456e-05
3.93546806108e-05
2.79911661257e-05
3.30522797077e-05
3.00989601609e-05
3.17005644834e-05
2.62414056493e-05
2.88932802108e-05
2.53069005465e-05
2.79149279956e-05
2.93649156663e-05
2.80179341103e-05
3.15556743196e-05
2.83417455138e-05
3.0261422107e-05
3.34020283212e-05
2.60220584956e-05
2.46291306864e-05
2.55796211825e-05
2.19877588449e-05
2.38869648204e-05
2.02241063399e-05
2.25286773775e-05
1.98204310567e-05
2.24329281874e-05
2.09604551116e-05
2.38457844372e-05
2.28234925902e-05
2.3620351811e-05
2.31938944982e-05
2.59150802088e-05
1.99356909272e-05
1.96498944828e-05
2.03321377081e-05
2.03432525808e-05
1.85829196368e-05
1.94942510941e-05
1.71574183082e-05
1.87450804736e-05
1.67203736888e-05
1.8586982585e-05
1.76867555195e-05
1.9142284851e-05
1.86716023955e-05
1.7528217497e-05
1.77458281908e-05
1.45072985044e-05
1.5428542542e-05
1.70996741959e-05
1.72274060665e-05
1.57621732115e-05
1.7084123222e-05
1.50240842145e-05
1.66041926928e-05
1.65661021298e-05
1.48103210189e-05
1.58462718906e-05
1.48698388372e-05
9.58600671371e-06
1.25216104457e-05
1.27738517777e-05
1.34397323401e-05
1.46212073409e-05
1.20690834217e-05
1.33395329552e-05
9.87097816906e-06
6.5620014914e-06
7.65520483298e-06
7.58372561615e-06
3.92794530883e-06
7.91139614983e-06
2.41695909382e-05
1.39567986925e-05
4.30080924539e-06
1.75637347312e-05
9.22430612492e-06
3.20803107787e-05
1.62434816079e-05
2.91011910918e-05
7.46033840124e-06
2.78324552818e-06
1.41946892943e-05
0.000101778038596
0.000131852603541
3.80212490319e-05
1.07647898298e-05
2.3287912206e-05
3.49290657834e-05
1.83044990572e-05
2.83334616804e-05
9.76603585292e-06
1.04266969963e-05
3.75456765998e-06
4.01283906842e-06
9.89190709708e-07
8.49301495147e-06
1.90844527863e-06
0.000288307609145
1.5104466345e-05
0.000284434874202
0.000148399122004
0.000319244066518
0.000177202556381
0.000418542982591
0.000236555244246
0.000264482088201
0.000322638916425
0.000287983281044
0.000336959802612
0.00029629475561
0.0003359023656
0.000275209661248
0.000173970457366
0.000180126762249
0.000252055740466
0.000211031833959
0.00018670867624
0.000291063515837
0.000216868860151
0.000276773341568
0.000285564484625
0.000301689393232
0.000370825214591
0.000269118737418
0.00031401360152
0.000493160245838
0.000421733252009
0.00028310539016
3.87676352275e-05
0.000125028248494
0.00015767237472
0.000156162086647
0.000190532653955
4.88225818112e-05
0.000387518276288
0.000457430597679
7.36725766635e-05
0.000952702750046
1.16704472722e-05
0.000616228799515
0.000110356204278
6.75819368177e-05
0.000280492283703
0.000427327890128
0.000437133198736
7.7335470507e-06
4.90612714686e-05
8.83229550632e-05
6.35402240702e-05
3.09350050725e-05
6.71888486666e-05
0.000397925189195
0.000648351744384
3.87612394566e-05
0.000140541379167
0.000220707643451
0.000746751579817
0.00114744324733
0.000838070672647
0.000558221836616
0.000229163871941
6.84371314904e-06
4.84590211465e-06
2.36006876434e-05
0.000647551121153
0.00018328247491
0.000894558313543
0.00111043079742
0.000329663669105
0.000146655697554
0.000507593311983
0.000133759862158
7.11853314316e-05
0.000639140939127
0.000343485238473
0.000263759426076
0.000509716097932
0.00146346842667
0.00140123567148
0.000810184465521
0.000417432595333
0.000575629775711
0.00134799165391
0.000553133680487
4.19637288593e-05
0.000712231873059
0.00015258029712
9.33474527593e-05
0.000608798124637
0.00101020105637
0.00136149628046
0.000773748771693
0.000764906640946
0.00108272243332
0.000741546000286
0.00108181121375
0.000689278512367
0.000339539775102
0.00100330328094
0.00041214642017
0.000878193992945
0.000201215009262
0.000538310351321
0.000451242181923
0.000637816802919
0.00125996656851
0.000529197008648
0.00119254696422
0.000987777477514
0.000838130285005
0.000509479901596
0.00134110909874
0.0011537950508
0.000481071117127
0.000963356508855
0.000597580151518
0.00045484574014
0.000902529005716
0.000313478832726
0.000503006031529
0.00093120246319
0.000793492033605
0.00108627717716
0.000821408897646
0.000651475749186
0.000817182693616
0.000508454317766
0.00079789342397
0.000886282275997
0.000695659687848
0.000683057096054
0.000855244101863
0.000742206194721
0.00071110607444
0.000868019607138
0.000507547466334
0.00160797355538
0.000985144453008
0.000912349692378
0.00102756584549
0.000713654360555
0.000884173212844
0.00103233443843
0.000856034789232
0.000449245543565
0.000487299907179
0.000541302681921
0.000510922170416
0.000490865878704
0.000502975214932
0.000734358692792
0.000239378724716
0.000519162561271
0.000163340697243
0.000906911879618
0.000444261527318
0.00108560549601
0.000202352440391
8.80681944641e-05
0.000510604335894
0.000181267122492
0.000256036824688
0.000427561557466
0.000364482270414
0.000623944572766
0.000776098267367
0.000405396314927
0.000341751050238
0.000457727902187
0.00049653438053
0.000436688511331
0.000480383689521
0.000364371351138
0.000298891393851
0.00153832433817
0.000419173772059
0.000771289693884
0.000378030727696
0.000221558705463
0.000284362045525
0.000694302700856
0.000358758512701
0.00027180776122
0.00254275954211
0.00149779455595
0.000896740656135
0.000520938569666
0.000592874611161
0.000346720704472
0.000557374955489
0.00065798258967
0.000338124218529
0.00061120763777
0.000600767448193
0.000537728751447
0.000446103306047
0.000588905722429
0.000369495434728
0.000450708320973
0.000584168790719
0.000474433586046
0.000601177232689
0.000631881487982
0.000631232898446
0.000527279940444
0.000626760568327
0.000448254554939
0.00094557728024
0.000451479015717
0.000375431755364
0.000327011816846
0.000246007481039
0.000140546765705
0.000626182760002
0.000291314005379
0.000452172537801
0.000603036102369
0.000538481961377
0.000384061512859
0.000443963746426
0.000449128233437
0.000490829482109
0.000734337823101
0.000301023163972
0.000282906521507
0.000607819219843
0.000239992270337
7.77510376499e-05
0.000559729295995
0.000459358468665
0.000303066269226
0.000694261027351
0.000624484139475
0.000323636879544
0.00105025862689
0.000785252287913
0.000318277150053
0.000259527974834
0.000230329332039
0.000191754822533
0.000561597321754
0.000446496863787
0.000322696939581
0.000213135122899
0.0001272658386
0.000281144788253

