# vtk DataFile Version 3.0
File Name: Molecule/methanol/Error_   2.00-2.vtk
ASCII
DATASET UNSTRUCTURED_GRID
FIELD FieldData 1
TIME 1 1 double
0.0
POINTS 136 double
1.445 -0.731 -0.342
0.98 -1.317 -0.296
1.252 -0.666 -0.918
0.828 -1.2 -0.876
0.308 -1.642 -0.229
0.216 -1.496 -0.815
-0.438 -1.642 -0.155
-0.464 -1.496 -0.747
-1.11 -1.317 -0.088
-1.076 -1.2 -0.686
-1.576 -0.731 -0.042
-1.5 -0.666 -0.644
-1.742 0.0 -0.025
-1.651 0.0 -0.629
-1.576 0.731 -0.042
-1.5 0.666 -0.644
-1.11 1.317 -0.088
-1.076 1.2 -0.686
-0.438 1.642 -0.155
-0.464 1.496 -0.747
0.308 1.642 -0.229
0.216 1.496 -0.815
0.98 1.317 -0.296
0.828 1.2 -0.876
1.445 0.731 -0.342
1.907 0.0 0.656
1.763 0.722 0.656
1.763 0.361 1.281
1.763 -0.361 1.281
1.763 -0.722 0.656
1.763 -0.361 0.03
1.763 0.361 0.03
1.354 1.123 1.377
1.354 0.554 1.87
1.354 -0.19 1.977
1.354 -0.874 1.664
1.354 -1.281 1.032
1.354 -1.281 0.28
1.354 1.335 0.656
0.741 1.571 1.412
0.741 1.087 2.019
0.741 0.388 2.356
0.741 -0.388 2.356
0.741 -1.087 2.019
0.741 -1.571 1.412
0.741 -1.744 0.656
0.741 1.744 0.656
0.019 1.744 1.378
0.019 1.335 1.99
0.019 0.722 2.399
0.019 -0.0 2.543
0.019 -0.722 2.399
0.019 -1.335 1.99
0.019 -1.744 1.378
0.019 -1.888 0.656
0.019 1.888 0.656
-0.703 1.744 0.656
-0.703 1.571 1.412
-0.703 1.087 2.019
-0.703 0.388 2.356
-0.703 -0.388 2.356
-0.703 -1.087 2.019
-0.703 -1.571 1.412
-0.703 -1.744 0.656
-1.316 1.335 0.656
-1.316 1.123 1.377
-1.316 0.554 1.87
-1.316 -0.19 1.977
-1.316 -0.874 1.664
-1.316 -1.281 1.032
-1.725 0.722 0.656
-1.725 0.361 1.281
-1.725 -0.361 1.281
-1.725 -0.722 0.656
-1.868 0.0 0.656
1.611 0.0 -0.359
0.648 -0.871 -1.742
-0.12 -1.149 -1.755
-0.12 -0.544 -2.172
0.648 -0.189 -2.053
-0.12 0.185 -2.261
0.648 0.552 -1.946
-0.12 0.872 -2.0
0.648 1.118 -1.456
-0.12 1.359 -1.451
-0.887 -1.276 -1.112
-0.887 -0.871 -1.742
-0.887 -0.189 -2.053
-0.887 0.552 -1.946
-0.887 1.118 -1.456
-1.449 -0.384 -1.402
-1.449 0.384 -1.402
1.48633333333 -0.243666666667 -0.544666666667
1.403 0.0 -0.933
1.36666666667 -0.465666666667 -0.731
1.175 0.865666666667 -0.712
1.252 0.666 -0.918
1.436 0.465666666667 -0.539666666667
1.422 0.222 -0.736666666667
1.60633333333 -0.364 -0.223666666667
1.60633333333 0.364 -0.223666666667
0.835333333333 -0.481333333333 -1.73233333333
0.835333333333 0.249 -1.80033333333
0.909333333333 0.994666666667 -1.08333333333
1.03666666667 0.722666666667 -1.25866666667
1.28833333333 0.35 -1.08433333333
1.28833333333 -0.35 -1.08433333333
1.03666666667 -0.640333333333 -1.354
0.909333333333 -0.912333333333 -1.17866666667
-1.15433333333 -1.04733333333 -0.814
1.21 0.384 -1.402
0.835333333333 0.684666666667 -1.60133333333
1.50011111111 -0.0812222222223 -0.612222222222
1.47866666667 0.074 -0.676222222222
1.359 0.296 -0.862555555556
1.21 -0.384 -1.402
0.897777777778 -0.578777777778 -1.62544444444
0.897777777778 -0.351444444444 -1.72911111111
1.14755555556 -0.021 -1.47433333333
1.02266666667 -0.063 -1.619
0.960222222223 -0.212 -1.69133333333
0.960222222223 0.044 -1.69133333333
0.897777777778 0.148 -1.75177777778
0.897777777778 0.395 -1.71611111111
1.16622222222 0.590888888889 -1.19288888889
0.96488888889 0.741555555556 -1.37222222222
1.25011111111 0.466666666667 -1.13477777778
1.30044444444 0.244666666667 -1.13977777778
1.29577777778 0.128 -1.19355555556
1.27433333333 0.0 -1.24566666667
1.29577777778 -0.128 -1.19355555556
1.23144444444 0.0 -1.34988888889
1.30044444444 -0.244666666667 -1.13977777778
1.25011111111 -0.466666666667 -1.13477777778
1.16622222222 -0.563444444444 -1.22466666667
0.96488888889 -0.631777777778 -1.49933333333

CELLS 268 1072
3 0 1 2
3 2 1 3
3 1 4 3
3 3 4 5
3 4 6 5
3 5 6 7
3 6 8 7
3 7 8 9
3 8 10 9
3 9 10 11
3 10 12 11
3 11 12 13
3 12 14 13
3 13 14 15
3 14 16 15
3 15 16 17
3 16 18 17
3 17 18 19
3 18 20 19
3 19 20 21
3 20 22 21
3 21 22 23
3 22 24 23
3 25 26 27
3 25 27 28
3 25 28 29
3 25 29 30
3 25 30 31
3 25 31 26
3 27 26 32
3 27 32 33
3 27 33 34
3 28 27 34
3 28 34 35
3 28 35 36
3 29 28 36
3 29 36 37
3 30 29 37
3 26 38 32
3 32 38 39
3 32 39 40
3 33 32 40
3 33 40 41
3 34 33 41
3 34 41 42
3 35 34 42
3 35 42 43
3 35 43 44
3 36 35 44
3 36 44 45
3 37 36 45
3 38 46 39
3 39 46 47
3 39 47 48
3 40 39 48
3 40 48 49
3 41 40 49
3 41 49 50
3 42 41 50
3 42 50 51
3 43 42 51
3 43 51 52
3 44 43 52
3 44 52 53
3 45 44 53
3 45 53 54
3 46 55 47
3 47 55 56
3 47 56 57
3 48 47 57
3 48 57 58
3 49 48 58
3 49 58 59
3 50 49 59
3 50 59 60
3 51 50 60
3 51 60 61
3 52 51 61
3 52 61 62
3 53 52 62
3 53 62 63
3 54 53 63
3 57 56 64
3 57 64 65
3 58 57 65
3 58 65 66
3 59 58 66
3 59 66 67
3 60 59 67
3 60 67 68
3 61 60 68
3 62 61 68
3 62 68 69
3 63 62 69
3 65 64 70
3 65 70 71
3 66 65 71
3 67 66 71
3 67 71 72
3 68 67 72
3 69 68 72
3 69 72 73
3 71 70 74
3 72 71 74
3 73 72 74
3 73 74 12
3 73 12 10
3 73 10 8
3 73 8 69
3 69 8 63
3 63 8 6
3 63 6 54
3 54 6 4
3 54 4 45
3 45 4 1
3 45 1 37
3 37 1 0
3 37 0 30
3 30 75 31
3 31 24 26
3 26 24 38
3 38 24 22
3 38 22 46
3 46 22 20
3 46 20 55
3 55 20 18
3 55 18 56
3 56 18 16
3 56 16 64
3 64 16 14
3 64 14 70
3 70 14 12
3 70 12 74
3 76 77 78
3 79 76 78
3 79 78 80
3 81 79 80
3 81 80 82
3 83 81 82
3 83 82 84
3 77 85 86
3 78 77 86
3 78 86 87
3 80 78 87
3 80 87 88
3 82 80 88
3 82 88 89
3 84 82 89
3 86 85 90
3 87 86 90
3 87 90 91
3 88 87 91
3 89 88 91
3 89 91 15
3 89 15 17
3 89 17 19
3 89 19 84
3 84 19 21
3 84 21 83
3 83 21 23
3 76 3 5
3 76 5 77
3 77 5 7
3 77 7 85
3 85 7 9
3 85 11 90
3 90 11 13
3 90 13 91
3 91 13 15
3 75 0 92
3 0 93 92
3 93 0 94
3 0 2 94
3 93 2 94
3 23 24 95
3 24 96 95
3 23 96 95
3 24 75 97
3 75 96 97
3 24 96 97
3 96 75 98
3 30 0 99
3 0 75 99
3 30 75 99
3 31 75 100
3 75 24 100
3 31 24 100
3 76 79 101
3 79 81 102
3 83 23 103
3 23 96 103
3 83 96 103
3 83 96 104
3 96 93 105
3 93 2 106
3 2 76 107
3 76 2 108
3 2 3 108
3 76 3 108
3 85 9 109
3 9 11 109
3 85 11 109
3 110 81 111
3 81 83 111
3 110 83 111
3 75 93 112
3 93 92 112
3 75 92 112
3 75 93 113
3 93 98 113
3 75 98 113
3 96 93 114
3 93 98 114
3 96 98 114
3 115 76 116
3 76 101 116
3 115 101 116
3 115 79 117
3 79 101 117
3 115 101 117
3 110 115 118
3 115 119 118
3 110 119 118
3 115 79 120
3 79 119 120
3 115 119 120
3 110 79 121
3 79 119 121
3 110 119 121
3 110 79 122
3 79 102 122
3 110 102 122
3 110 81 123
3 81 102 123
3 110 102 123
3 96 110 124
3 110 104 124
3 96 104 124
3 83 110 125
3 110 104 125
3 83 104 125
3 110 96 126
3 96 105 126
3 110 105 126
3 110 93 127
3 93 105 127
3 110 105 127
3 110 93 128
3 93 129 128
3 110 129 128
3 93 115 130
3 115 129 130
3 93 129 130
3 110 115 131
3 115 129 131
3 110 129 131
3 115 93 132
3 93 106 132
3 115 106 132
3 115 2 133
3 2 106 133
3 115 106 133
3 115 2 134
3 2 107 134
3 115 107 134
3 115 76 135
3 76 107 135
3 115 107 135

CELL_TYPES 268
5
5
5
5
5
5
5
5
5
5
5
5
5
5
5
5
5
5
5
5
5
5
5
5
5
5
5
5
5
5
5
5
5
5
5
5
5
5
5
5
5
5
5
5
5
5
5
5
5
5
5
5
5
5
5
5
5
5
5
5
5
5
5
5
5
5
5
5
5
5
5
5
5
5
5
5
5
5
5
5
5
5
5
5
5
5
5
5
5
5
5
5
5
5
5
5
5
5
5
5
5
5
5
5
5
5
5
5
5
5
5
5
5
5
5
5
5
5
5
5
5
5
5
5
5
5
5
5
5
5
5
5
5
5
5
5
5
5
5
5
5
5
5
5
5
5
5
5
5
5
5
5
5
5
5
5
5
5
5
5
5
5
5
5
5
5
5
5
5
5
5
5
5
5
5
5
5
5
5
5
5
5
5
5
5
5
5
5
5
5
5
5
5
5
5
5
5
5
5
5
5
5
5
5
5
5
5
5
5
5
5
5
5
5
5
5
5
5
5
5
5
5
5
5
5
5
5
5
5
5
5
5
5
5
5
5
5
5
5
5
5
5
5
5
5
5
5
5
5
5
5
5
5
5
5
5
5
5
5
5
5
5
5
5
5
5
5
5

CELL_DATA 268
SCALARS cell_data_0 double
LOOKUP_TABLE default
1.71901143037e-05
4.53420045132e-05
0.000121961745948
0.000179614529251
0.000102765850412
0.000145403317846
8.79176107623e-05
9.77074940756e-05
7.73000559688e-05
3.46536466689e-05
7.39972036312e-05
6.14558767752e-05
0.000102385713035
6.82612590016e-05
0.000113291952852
8.62031181551e-05
0.000130716386579
0.000102429371174
0.000150850070917
0.000157878806452
0.000153879027518
0.000190918139964
5.09556363158e-05
2.93641827422e-05
3.01845520039e-05
2.76843651068e-05
2.91844845779e-05
2.04227751978e-05
3.28704034714e-06
3.92428583985e-05
3.06803093922e-05
3.20692806882e-05
3.68643233332e-05
2.73927104682e-05
3.69672922374e-05
3.76227544708e-05
2.44341570751e-05
3.72625831767e-05
2.58339684934e-05
3.06313663248e-05
2.80900270161e-05
2.95657293394e-05
2.43867001796e-05
2.69078793776e-05
2.38933251892e-05
2.62738969134e-05
2.784917497e-05
2.65496041582e-05
2.98946594741e-05
2.6941615064e-05
2.86494642052e-05
3.11195272812e-05
2.39452709752e-05
2.29425766928e-05
2.36801972208e-05
2.04810741035e-05
2.21864886424e-05
1.88699729863e-05
2.13720056359e-05
1.87034970391e-05
2.11733061056e-05
1.97725623359e-05
2.2443171846e-05
2.16062752455e-05
2.22965396157e-05
2.2184004711e-05
2.40709433116e-05
1.83964523391e-05
1.80605713864e-05
1.87778866617e-05
1.87676421116e-05
1.72508687198e-05
1.82270499784e-05
1.60841258766e-05
1.76626523129e-05
1.58300344331e-05
1.74347230486e-05
1.6574408902e-05
1.79398019589e-05
1.75361393565e-05
1.65231758066e-05
1.67632948789e-05
1.32452136157e-05
1.41228513118e-05
1.56736673306e-05
1.5910532536e-05
1.45293450194e-05
1.59138125736e-05
1.40435166698e-05
1.54304079605e-05
1.54615755673e-05
1.37743080656e-05
1.49271556138e-05
1.40521229234e-05
8.82450367578e-06
1.14861846183e-05
1.16917295131e-05
1.2316255422e-05
1.35173111376e-05
1.11981544855e-05
1.2455052005e-05
9.06433015704e-06
6.03502547166e-06
7.09667961108e-06
7.09261676596e-06
4.25833766513e-06
9.37415399026e-06
2.24420630085e-05
1.40536086461e-05
4.17418856639e-06
1.55764206746e-05
8.99059212399e-06
3.02549652985e-05
1.54538485851e-05
2.80313410713e-05
6.76373004585e-06
2.89272221473e-06
1.24967974947e-05
0.000109766447069
0.000132082752958
3.36170922894e-05
1.14292840835e-05
2.06248636087e-05
3.2050922978e-05
1.6839141034e-05
2.49659497554e-05
9.18139563008e-06
7.58721216881e-06
3.82524226467e-06
6.24794806648e-06
1.3568926e-06
1.01881448553e-05
2.35437854009e-06
0.000275938766754
7.96116919175e-06
0.000269468088232
0.000128589919939
0.000291771061927
0.000160401497416
0.000377875486035
0.000222580236542
0.000248179340503
0.000303431131791
0.000265759838725
0.000312941446899
0.000269586660359
0.00030814830579
0.000245706519914
0.000159332518459
0.000167144569999
0.000233818180226
0.000193248756255
0.000169465561893
0.000266892181817
0.000197105236314
0.000255026063168
0.000256214639348
0.000274772471304
0.00033442121838
0.000241933213635
0.000307509396171
0.000476519948381
0.000401290856041
0.000267124325187
3.33602154091e-05
0.000106722549231
0.000145907942591
0.000142550967238
0.000177537523638
4.33891575413e-05
0.000371354661173
0.000441041282218
6.5454688191e-05
0.000946566568565
1.19089127876e-05
0.000600228905717
0.000133963222299
6.22604136623e-05
0.00028246289501
0.000414485477289
0.000435276696177
7.56948451385e-06
4.7177375237e-05
8.53446377152e-05
5.74289962084e-05
3.41675454546e-05
6.63361728327e-05
0.000387320283243
0.000584498509198
2.90031439428e-05
0.000117500534621
0.000236424547193
0.000661308433218
0.00124560074215
0.00114230117535
0.000836207418429
0.00055086704732
0.000225163254788
2.40919159381e-06
3.41950431421e-06
2.13446692487e-05
0.00064658405336
0.0035308999395
0.000133440421074
0.00113503016896
0.00105717992532
0.000311872343545
8.72056793736e-05
0.00140492268359
0.000422655958448
0.000144595725079
0.000244840820337
0.000669713207581
0.000403768138088
0.00236199743651
0.0001938339374
0.00121743448486
0.00336254190408
0.000452240855182
0.00146489520995
0.0102934618104
0.00407440595564
0.0054624040272
0.0043524022391
0.00129944507059
0.0034968296417
0.00372182307077
0.00141800495528
0.00397027514974
0.00346195271115
0.00073065285881
0.00201187716418
0.00177150897022
0.000425508812536
0.00137776107586
0.000451838630888
0.00120675330894
0.000649597068768
3.24663202525e-05
0.000848030485031
0.000153589324929
0.000125286563837
0.000652528773458
0.00110263883638
0.00409987927261
0.00136114806182
0.00147940424201
0.00477235286754
0.0018762106283
0.00260295803315
0.000828890154228
0.00215262722263
0.00218241696515
0.00740041365435
0.00285532397438
0.0027118354198
0.000657971634048
0.00128876009562
0.00149434523384
0.00224661411476
0.000634634400218
0.000957765292796
0.00311003879694
0.000653380197707
0.00147517308183
0.00192897843175
0.000299395054199
0.00119293130145

