# vtk DataFile Version 3.0
File Name: Molecule/methanol/Error_   2.00.vtk
ASCII
DATASET UNSTRUCTURED_GRID
FIELD FieldData 1
TIME 1 1 double
0.0
POINTS 115 double
1.611 0.0 -0.359
1.445 -0.731 -0.342
1.403 0.0 -0.933
1.252 -0.666 -0.918
0.98 -1.317 -0.296
0.828 -1.2 -0.876
0.308 -1.642 -0.229
0.216 -1.496 -0.815
-0.438 -1.642 -0.155
-0.464 -1.496 -0.747
-1.11 -1.317 -0.088
-1.076 -1.2 -0.686
-1.576 -0.731 -0.042
-1.5 -0.666 -0.644
-1.742 0.0 -0.025
-1.651 0.0 -0.629
-1.576 0.731 -0.042
-1.5 0.666 -0.644
-1.11 1.317 -0.088
-1.076 1.2 -0.686
-0.438 1.642 -0.155
-0.464 1.496 -0.747
0.308 1.642 -0.229
0.216 1.496 -0.815
0.98 1.317 -0.296
0.828 1.2 -0.876
1.445 0.731 -0.342
1.252 0.666 -0.918
1.907 0.0 0.656
1.763 0.722 0.656
1.763 0.361 1.281
1.763 -0.361 1.281
1.763 -0.722 0.656
1.763 -0.361 0.03
1.763 0.361 0.03
1.354 1.123 1.377
1.354 0.554 1.87
1.354 -0.19 1.977
1.354 -0.874 1.664
1.354 -1.281 1.032
1.354 -1.281 0.28
1.354 1.335 0.656
0.741 1.571 1.412
0.741 1.087 2.019
0.741 0.388 2.356
0.741 -0.388 2.356
0.741 -1.087 2.019
0.741 -1.571 1.412
0.741 -1.744 0.656
0.741 1.744 0.656
0.019 1.744 1.378
0.019 1.335 1.99
0.019 0.722 2.399
0.019 -0.0 2.543
0.019 -0.722 2.399
0.019 -1.335 1.99
0.019 -1.744 1.378
0.019 -1.888 0.656
0.019 1.888 0.656
-0.703 1.744 0.656
-0.703 1.571 1.412
-0.703 1.087 2.019
-0.703 0.388 2.356
-0.703 -0.388 2.356
-0.703 -1.087 2.019
-0.703 -1.571 1.412
-0.703 -1.744 0.656
-1.316 1.335 0.656
-1.316 1.123 1.377
-1.316 0.554 1.87
-1.316 -0.19 1.977
-1.316 -0.874 1.664
-1.316 -1.281 1.032
-1.725 0.722 0.656
-1.725 0.361 1.281
-1.725 -0.361 1.281
-1.725 -0.722 0.656
-1.868 0.0 0.656
1.21 -0.384 -1.402
0.648 -0.871 -1.742
0.648 -0.189 -2.053
1.21 0.384 -1.402
0.648 0.552 -1.946
0.648 1.118 -1.456
-0.12 0.185 -2.261
-0.12 0.872 -2.0
-0.12 1.359 -1.451
-0.12 -0.544 -2.172
-0.12 -1.149 -1.755
-0.887 -0.871 -1.742
-0.887 -0.189 -2.053
-0.887 0.552 -1.946
-0.887 1.118 -1.456
-1.449 -0.384 -1.402
-1.449 0.384 -1.402
-0.887 -1.276 -1.112
1.22566666667 -0.904666666667 -0.518666666667
0.136 -0.854666666667 -1.88966666667
0.392 -0.534666666667 -1.989
0.136 -0.182666666667 -2.162
-0.122666666667 -1.38033333333 -1.10566666667
-0.490333333333 -1.307 -1.20466666667
-1.15433333333 -1.04733333333 -0.814
-1.27866666667 -0.775333333333 -1.05266666667
-1.53333333333 -0.35 -0.891666666667
1.22566666667 -0.904666666667 -0.518666666667
0.136 -0.854666666667 -1.88966666667
-0.631333333333 -1.09866666667 -1.53633333333
-1.07433333333 -0.843666666667 -1.41866666667
0.248 -1.172 -1.43733333333
-1.51633333333 0.0 -1.14433333333
0.592444444444 0.134555555557 -1.15988888889
0.455888888889 0.065 -1.35422222222
0.394444444443 -0.608444444444 -1.12422222222
0.108222222223 -0.535 -1.34522222222

CELLS 232 928
3 0 1 2
3 2 1 3
3 3 4 5
3 4 6 5
3 5 6 7
3 6 8 7
3 7 8 9
3 8 10 9
3 9 10 11
3 10 12 11
3 11 12 13
3 12 14 13
3 13 14 15
3 14 16 15
3 15 16 17
3 16 18 17
3 17 18 19
3 18 20 19
3 19 20 21
3 20 22 21
3 21 22 23
3 22 24 23
3 23 24 25
3 24 26 25
3 25 26 27
3 26 0 27
3 27 0 2
3 28 29 30
3 28 30 31
3 28 31 32
3 28 32 33
3 28 33 34
3 28 34 29
3 30 29 35
3 30 35 36
3 30 36 37
3 31 30 37
3 31 37 38
3 31 38 39
3 32 31 39
3 32 39 40
3 33 32 40
3 29 41 35
3 35 41 42
3 35 42 43
3 36 35 43
3 36 43 44
3 37 36 44
3 37 44 45
3 38 37 45
3 38 45 46
3 38 46 47
3 39 38 47
3 39 47 48
3 40 39 48
3 41 49 42
3 42 49 50
3 42 50 51
3 43 42 51
3 43 51 52
3 44 43 52
3 44 52 53
3 45 44 53
3 45 53 54
3 46 45 54
3 46 54 55
3 47 46 55
3 47 55 56
3 48 47 56
3 48 56 57
3 49 58 50
3 50 58 59
3 50 59 60
3 51 50 60
3 51 60 61
3 52 51 61
3 52 61 62
3 53 52 62
3 53 62 63
3 54 53 63
3 54 63 64
3 55 54 64
3 55 64 65
3 56 55 65
3 56 65 66
3 57 56 66
3 60 59 67
3 60 67 68
3 61 60 68
3 61 68 69
3 62 61 69
3 62 69 70
3 63 62 70
3 63 70 71
3 64 63 71
3 65 64 71
3 65 71 72
3 66 65 72
3 68 67 73
3 68 73 74
3 69 68 74
3 70 69 74
3 70 74 75
3 71 70 75
3 72 71 75
3 72 75 76
3 74 73 77
3 75 74 77
3 76 75 77
3 76 77 14
3 76 14 12
3 76 12 10
3 76 10 72
3 72 10 66
3 66 10 8
3 66 8 57
3 57 8 6
3 57 6 48
3 48 6 4
3 48 4 40
3 40 4 1
3 40 1 33
3 33 1 0
3 33 0 34
3 34 0 26
3 34 26 29
3 29 26 41
3 41 26 24
3 41 24 49
3 49 24 22
3 49 22 58
3 58 22 20
3 58 20 59
3 59 20 18
3 59 18 67
3 67 18 16
3 67 16 73
3 73 16 14
3 73 14 77
3 78 79 80
3 81 78 80
3 81 80 82
3 81 82 83
3 82 80 84
3 82 84 85
3 83 82 85
3 83 85 86
3 87 88 89
3 87 89 90
3 84 87 90
3 84 90 91
3 85 84 91
3 85 91 92
3 86 85 92
3 90 89 93
3 90 93 94
3 91 90 94
3 92 91 94
3 92 94 17
3 92 17 19
3 92 19 21
3 92 21 86
3 86 21 23
3 86 23 83
3 83 23 25
3 83 25 27
3 83 27 81
3 81 27 2
3 81 2 78
3 78 2 3
3 78 3 79
3 79 3 5
3 79 5 7
3 95 9 11
3 94 15 17
3 1 4 96
3 4 3 96
3 1 3 96
3 79 88 97
3 88 87 97
3 79 87 97
3 80 79 98
3 79 87 98
3 80 87 98
3 80 87 99
3 87 84 99
3 80 84 99
3 88 7 100
3 7 9 100
3 88 9 100
3 88 9 101
3 9 95 101
3 88 95 101
3 95 11 102
3 11 13 102
3 95 13 102
3 95 13 103
3 13 93 103
3 95 93 103
3 93 13 104
3 13 15 104
3 93 15 104
3 1 4 105
3 4 3 105
3 1 3 105
3 79 88 106
3 88 87 106
3 79 87 106
3 88 95 107
3 95 89 107
3 88 89 107
3 89 95 108
3 95 93 108
3 89 93 108
3 79 7 109
3 7 88 109
3 79 88 109
3 93 15 110
3 15 94 110
3 93 94 110
3 83 27 111
3 27 100 111
3 83 100 111
3 83 81 112
3 81 101 112
3 83 101 112
3 78 3 113
3 3 103 113
3 78 103 113
3 78 79 114
3 79 104 114
3 78 104 114

CELL_TYPES 232
5
5
5
5
5
5
5
5
5
5
5
5
5
5
5
5
5
5
5
5
5
5
5
5
5
5
5
5
5
5
5
5
5
5
5
5
5
5
5
5
5
5
5
5
5
5
5
5
5
5
5
5
5
5
5
5
5
5
5
5
5
5
5
5
5
5
5
5
5
5
5
5
5
5
5
5
5
5
5
5
5
5
5
5
5
5
5
5
5
5
5
5
5
5
5
5
5
5
5
5
5
5
5
5
5
5
5
5
5
5
5
5
5
5
5
5
5
5
5
5
5
5
5
5
5
5
5
5
5
5
5
5
5
5
5
5
5
5
5
5
5
5
5
5
5
5
5
5
5
5
5
5
5
5
5
5
5
5
5
5
5
5
5
5
5
5
5
5
5
5
5
5
5
5
5
5
5
5
5
5
5
5
5
5
5
5
5
5
5
5
5
5
5
5
5
5
5
5
5
5
5
5
5
5
5
5
5
5
5
5
5
5
5
5
5
5
5
5
5
5
5
5
5
5
5
5
5
5
5
5
5
5

CELL_DATA 232
SCALARS cell_data_0 double
LOOKUP_TABLE default
0.000313247217905
0.00283651870868
0.000127858152543
2.75526400671e-05
7.76874043095e-05
0.000110463484089
0.000236980953761
0.000241400185857
0.000517408803195
0.000271350172621
0.000508798973799
0.000264550153226
0.000424228185208
0.000155547463921
0.000311126714665
7.53675905081e-05
0.000175522204252
2.62932256104e-05
0.000126327408738
1.07035297618e-05
5.85353801096e-05
4.54658660262e-05
8.51006888897e-05
7.0635211347e-05
0.000353042636658
0.000192356392877
0.00244817496251
1.25250025864e-05
1.11075153298e-05
1.11280339275e-05
1.51421152309e-05
2.24736696941e-05
1.28292601048e-05
1.29430962981e-05
8.01670856737e-06
7.23351250241e-06
8.78441080676e-06
5.63606062201e-06
8.0875925045e-06
9.64537288121e-06
7.85476150319e-06
1.7042133343e-05
7.42121819006e-06
5.12679971204e-06
4.56930328773e-06
4.29785424413e-06
2.58867566289e-06
3.17920437863e-06
1.9299090902e-06
1.72026912064e-06
2.86024755494e-06
1.28432406282e-06
3.08181169123e-06
1.80301022369e-06
3.62281740479e-06
6.68215511627e-06
4.58784922423e-07
5.23693438348e-07
6.05811484564e-07
1.35711486981e-07
5.56775161587e-07
7.54634080748e-07
6.71459843944e-07
1.44707715285e-06
1.91402617839e-06
1.92014325504e-06
3.28984858587e-06
2.78266205059e-06
5.13932282755e-06
3.09251132747e-06
1.00045965377e-06
2.41871828741e-06
4.03020106958e-06
2.78271136112e-06
4.37713953917e-06
2.94661289162e-06
3.8098234135e-06
3.3066741525e-06
4.11223427688e-06
3.2080383321e-06
4.93392993742e-06
5.17124377799e-06
7.65453063863e-06
6.71533990181e-06
9.22164743268e-06
7.43052208001e-06
5.80755774215e-06
5.91578398218e-06
5.5575596734e-06
6.48365961594e-06
5.68892150425e-06
6.71987355977e-06
6.96288480437e-06
8.06604378509e-06
8.62978877746e-06
1.05591740017e-05
1.08564002887e-05
1.11060699132e-05
6.78508590146e-06
8.77891505769e-06
8.0769979618e-06
9.50726523675e-06
1.105731908e-05
9.42398583373e-06
1.19061652026e-05
1.62552682006e-05
8.00742411808e-06
7.5664252966e-06
8.2224130427e-06
2.32355429812e-05
8.33165849762e-05
6.52577413624e-05
2.5906954915e-05
5.26854484992e-06
7.75973095394e-05
3.25209738734e-06
3.27427080181e-05
8.2211474722e-07
5.04586627869e-06
2.34045796186e-06
1.48146264681e-05
8.03025316808e-06
0.000179141630151
1.16372959639e-05
6.78594049265e-05
1.29616255052e-05
2.36401043432e-05
1.30704621633e-05
3.52460027929e-06
9.21358432216e-06
2.52582790905e-06
2.00074524919e-05
4.19036056037e-06
4.9319019593e-05
6.29524019279e-06
7.36364487853e-05
8.64238327647e-06
8.65491188917e-05
2.09181386279e-05
0.0103116704531
0.0326835853385
0.0186033907713
0.0325780573957
0.00057404867781
0.000254029689957
4.02992518535e-05
5.76383878152e-05
0.00108943340442
0.000959062538572
0.000399530507159
0.000440881014603
0.000280531694682
0.000260822256189
0.000225190824954
0.00246330214601
0.00277460558526
0.000562247465362
0.000459262426523
0.000740269483378
0.000326636912235
0.000146294330709
0.000198276687841
3.81614999037e-05
0.000135410599837
7.65816612833e-05
0.000394186715315
0.0160411894378
0.0144090756703
0.0126607861192
0.000390439443629
0.0164751154978
0.00267445268398
0.000297989805356
0.000585272090912
0.000708297656586
5.24530987327e-06
3.57659295597e-05
0.000212494252784
8.53826741263e-06
7.9479773812e-05
9.58744339577e-05
0.000734146486384
0.000258515259398
0.00030074083388
0.000185871363937
8.85176465924e-05
0.00025429452874
0.00046811754922
0.000498185096
0.000796712846092
0.000633619618068
0.000617333856767
0.0009341323904
0.000148095267596
0.000286309994502
0.000459613931758
0.00101107570842
0.00110173640966
0.00114259647775
0.000624291981018
0.000482783696857
0.00103872976667
5.24530987327e-06
3.57659295597e-05
0.000212494252784
8.53826741263e-06
7.9479773812e-05
9.58744339577e-05
0.000748128097789
0.000488488516608
0.000669332103698
0.000514001932487
0.00136406803052
0.00105150713836
0.000275370254308
0.000557728104262
0.000138614107221
0.00152355209486
0.000309805849733
0.00144545811161
0.014534525638
0.00743067193041
0.00271366211642
0.0101682350526
0.0572394704024
0.0100100675139
0.00129592608764
0.00807138064882
0.00156840669467
0.00407932560392
0.0062753884656
0.0860439885891

