# vtk DataFile Version 3.0
File Name: Molecule/methanol/methanol_16.0-16_06.vtk
ASCII
DATASET UNSTRUCTURED_GRID
FIELD FieldData 1
TIME 1 1 double
0.0
POINTS 779 double
1.611 0.0 -0.359
1.588 -0.277 -0.357
1.475 0.0 -0.634
1.454 -0.26 -0.632
1.403 0.0 -0.933
1.382 -0.253 -0.931
1.52 -0.547 -0.35
1.39 -0.512 -0.626
1.32 -0.498 -0.925
1.409 -0.802 -0.339
1.286 -0.75 -0.615
1.219 -0.73 -0.914
1.257 -1.035 -0.324
1.144 -0.968 -0.601
1.081 -0.942 -0.901
1.07 -1.239 -0.305
0.969 -1.16 -0.584
0.91 -1.129 -0.884
0.851 -1.41 -0.283
0.764 -1.32 -0.564
0.711 -1.285 -0.864
0.608 -1.543 -0.259
0.536 -1.444 -0.541
0.489 -1.405 -0.842
0.346 -1.633 -0.233
0.291 -1.529 -0.516
0.251 -1.487 -0.818
0.073 -1.679 -0.206
0.036 -1.571 -0.491
0.002 -1.529 -0.793
-0.204 -1.679 -0.178
-0.223 -1.571 -0.465
-0.25 -1.529 -0.768
-0.477 -1.633 -0.151
-0.479 -1.529 -0.44
-0.499 -1.487 -0.743
-0.739 -1.543 -0.125
-0.724 -1.444 -0.415
-0.737 -1.405 -0.72
-0.982 -1.41 -0.101
-0.952 -1.32 -0.393
-0.959 -1.285 -0.698
-1.201 -1.239 -0.079
-1.157 -1.16 -0.372
-1.158 -1.129 -0.678
-1.388 -1.035 -0.06
-1.332 -0.968 -0.355
-1.329 -0.942 -0.661
-1.54 -0.802 -0.045
-1.474 -0.75 -0.341
-1.467 -0.73 -0.647
-1.651 -0.547 -0.034
-1.578 -0.512 -0.33
-1.568 -0.498 -0.637
-1.719 -0.277 -0.027
-1.641 -0.26 -0.324
-1.63 -0.253 -0.631
-1.742 -0.0 -0.025
-1.663 -0.0 -0.322
-1.651 -0.0 -0.629
-1.719 0.277 -0.027
-1.641 0.26 -0.324
-1.63 0.253 -0.631
-1.651 0.547 -0.034
-1.578 0.512 -0.33
-1.568 0.498 -0.637
-1.54 0.802 -0.045
-1.474 0.75 -0.341
-1.467 0.73 -0.647
-1.388 1.035 -0.06
-1.332 0.968 -0.355
-1.329 0.942 -0.661
-1.201 1.239 -0.079
-1.157 1.16 -0.372
-1.158 1.129 -0.678
-0.982 1.41 -0.101
-0.952 1.32 -0.393
-0.959 1.285 -0.698
-0.739 1.543 -0.125
-0.724 1.444 -0.415
-0.737 1.405 -0.72
-0.477 1.633 -0.151
-0.479 1.529 -0.44
-0.499 1.487 -0.743
-0.204 1.679 -0.178
-0.223 1.571 -0.465
-0.25 1.529 -0.768
0.073 1.679 -0.206
0.036 1.571 -0.491
0.002 1.529 -0.793
0.346 1.633 -0.233
0.291 1.529 -0.516
0.251 1.487 -0.818
0.608 1.543 -0.259
0.536 1.444 -0.541
0.489 1.405 -0.842
0.851 1.41 -0.283
0.764 1.32 -0.564
0.711 1.285 -0.864
1.07 1.239 -0.305
0.969 1.16 -0.584
0.91 1.129 -0.884
1.257 1.035 -0.324
1.144 0.968 -0.601
1.081 0.942 -0.901
1.409 0.802 -0.339
1.286 0.75 -0.615
1.219 0.73 -0.914
1.52 0.547 -0.35
1.39 0.512 -0.626
1.32 0.498 -0.925
1.588 0.277 -0.357
1.454 0.26 -0.632
1.382 0.253 -0.931
1.907 0.0 0.656
1.889 0.257 0.656
1.889 0.129 0.878
1.889 -0.129 0.878
1.889 -0.257 0.656
1.889 -0.129 0.433
1.889 0.129 0.433
1.837 0.441 0.91
1.837 0.255 1.097
1.837 -0.0 1.165
1.837 -0.255 1.097
1.837 -0.441 0.91
1.837 -0.509 0.656
1.837 -0.441 0.401
1.837 -0.255 0.215
1.837 -0.0 0.146
1.837 0.255 0.215
1.837 0.441 0.401
1.837 0.509 0.656
1.75 0.707 0.913
1.75 0.576 1.139
1.75 0.376 1.307
1.75 0.131 1.396
1.75 -0.131 1.396
1.75 -0.376 1.307
1.75 -0.576 1.139
1.75 -0.707 0.913
1.75 -0.752 0.656
1.75 -0.707 0.398
1.75 -0.576 0.172
1.75 -0.376 0.004
1.75 -0.131 -0.085
1.75 0.131 -0.085
1.75 0.376 0.004
1.75 0.576 0.172
1.75 0.707 0.398
1.75 0.752 0.656
1.632 0.947 0.909
1.632 0.849 1.146
1.632 0.693 1.349
1.632 0.49 1.505
1.632 0.254 1.603
1.632 0.0 1.636
1.632 -0.254 1.603
1.632 -0.49 1.505
1.632 -0.693 1.349
1.632 -0.849 1.146
1.632 -0.947 0.909
1.632 -0.981 0.656
1.632 -0.947 0.402
1.632 -0.849 0.165
1.632 -0.693 -0.038
1.632 -0.49 -0.194
1.632 0.49 -0.194
1.632 0.693 -0.038
1.632 0.849 0.165
1.632 0.947 0.402
1.632 0.981 0.656
1.483 1.163 0.912
1.483 1.081 1.156
1.483 0.948 1.376
1.483 0.771 1.563
1.483 0.558 1.708
1.483 0.319 1.803
1.483 0.064 1.845
1.483 -0.193 1.831
1.483 -0.441 1.762
1.483 -0.668 1.642
1.483 -0.865 1.475
1.483 -1.021 1.27
1.483 -1.129 1.036
1.483 -1.184 0.784
1.483 -1.184 0.527
1.483 -1.129 0.275
1.483 -1.021 0.041
1.483 -0.865 -0.164
1.483 0.948 -0.065
1.483 1.081 0.155
1.483 1.163 0.4
1.483 1.191 0.656
1.307 1.356 0.909
1.307 1.286 1.154
1.307 1.173 1.382
1.307 1.019 1.585
1.307 0.831 1.756
1.307 0.615 1.89
1.307 0.378 1.982
1.307 0.127 2.029
1.307 -0.127 2.029
1.307 -0.378 1.982
1.307 -0.615 1.89
1.307 -0.831 1.756
1.307 -1.019 1.585
1.307 -1.173 1.382
1.307 -1.286 1.154
1.307 -1.356 0.909
1.307 -1.379 0.656
1.307 -1.356 0.402
1.307 -1.286 0.157
1.307 -1.173 -0.071
1.307 1.173 -0.071
1.307 1.286 0.157
1.307 1.356 0.402
1.307 1.379 0.656
1.107 1.521 0.909
1.107 1.458 1.156
1.107 1.356 1.39
1.107 1.217 1.603
1.107 1.044 1.79
1.107 0.843 1.947
1.107 0.619 2.068
1.107 0.379 2.15
1.107 0.127 2.192
1.107 -0.127 2.192
1.107 -0.379 2.15
1.107 -0.619 2.068
1.107 -0.843 1.947
1.107 -1.044 1.79
1.107 -1.217 1.603
1.107 -1.356 1.39
1.107 -1.458 1.156
1.107 -1.521 0.909
1.107 -1.542 0.656
1.107 -1.521 0.402
1.107 -1.458 0.155
1.107 -1.356 -0.078
1.107 1.356 -0.078
1.107 1.458 0.155
1.107 1.521 0.402
1.107 1.542 0.656
0.887 1.656 0.911
0.887 1.598 1.161
0.887 1.502 1.399
0.887 1.371 1.62
0.887 1.208 1.818
0.887 1.016 1.988
0.887 0.801 2.128
0.887 0.566 2.233
0.887 0.319 2.301
0.887 0.064 2.33
0.887 -0.192 2.32
0.887 -0.444 2.272
0.887 -0.686 2.185
0.887 -0.911 2.062
0.887 -1.115 1.907
0.887 -1.293 1.722
0.887 -1.441 1.512
0.887 -1.554 1.282
0.887 -1.632 1.037
0.887 -1.671 0.784
0.887 -1.671 0.527
0.887 -1.632 0.274
0.887 -1.554 0.029
0.887 1.502 -0.088
0.887 1.598 0.15
0.887 1.656 0.4
0.887 1.676 0.656
0.651 1.76 0.909
0.651 1.706 1.157
0.651 1.618 1.394
0.651 1.496 1.617
0.651 1.344 1.82
0.651 1.165 2.0
0.651 0.962 2.152
0.651 0.739 2.273
0.651 0.501 2.362
0.651 0.253 2.416
0.651 0.0 2.434
0.651 -0.253 2.416
0.651 -0.501 2.362
0.651 -0.739 2.273
0.651 -0.962 2.152
0.651 -1.165 2.0
0.651 -1.344 1.82
0.651 -1.496 1.617
0.651 -1.618 1.394
0.651 -1.706 1.157
0.651 -1.76 0.909
0.651 -1.779 0.656
0.651 -1.76 0.402
0.651 -1.706 0.155
0.651 -1.618 -0.083
0.651 1.618 -0.083
0.651 1.706 0.155
0.651 1.76 0.402
0.651 1.779 0.656
0.403 1.831 0.907
0.403 1.779 1.154
0.403 1.695 1.392
0.403 1.579 1.616
0.403 1.434 1.822
0.403 1.261 2.006
0.403 1.066 2.165
0.403 0.85 2.296
0.403 0.619 2.397
0.403 0.376 2.465
0.403 0.126 2.499
0.403 -0.126 2.499
0.403 -0.376 2.465
0.403 -0.619 2.397
0.403 -0.85 2.296
0.403 -1.066 2.165
0.403 -1.261 2.006
0.403 -1.434 1.822
0.403 -1.579 1.616
0.403 -1.695 1.392
0.403 -1.779 1.154
0.403 -1.831 0.907
0.403 -1.848 0.656
0.403 -1.831 0.404
0.403 -1.779 0.157
0.403 -1.695 -0.081
0.403 1.695 -0.081
0.403 1.779 0.157
0.403 1.831 0.404
0.403 1.848 0.656
0.148 1.866 0.912
0.148 1.813 1.164
0.148 1.727 1.406
0.148 1.609 1.634
0.148 1.461 1.844
0.148 1.285 2.032
0.148 1.086 2.194
0.148 0.866 2.328
0.148 0.631 2.43
0.148 0.383 2.499
0.148 0.129 2.534
0.148 -0.129 2.534
0.148 -0.383 2.499
0.148 -0.631 2.43
0.148 -0.866 2.328
0.148 -1.086 2.194
0.148 -1.285 2.032
0.148 -1.461 1.844
0.148 -1.609 1.634
0.148 -1.727 1.406
0.148 -1.813 1.164
0.148 -1.866 0.912
0.148 -1.883 0.656
0.148 -1.866 0.399
0.148 -1.813 0.148
0.148 1.813 0.148
0.148 1.866 0.399
0.148 1.883 0.656
-0.11 1.866 0.912
-0.11 1.813 1.164
-0.11 1.727 1.406
-0.11 1.609 1.634
-0.11 1.461 1.844
-0.11 1.285 2.032
-0.11 1.086 2.194
-0.11 0.866 2.328
-0.11 0.631 2.43
-0.11 0.383 2.499
-0.11 0.129 2.534
-0.11 -0.129 2.534
-0.11 -0.383 2.499
-0.11 -0.631 2.43
-0.11 -0.866 2.328
-0.11 -1.086 2.194
-0.11 -1.285 2.032
-0.11 -1.461 1.844
-0.11 -1.609 1.634
-0.11 -1.727 1.406
-0.11 -1.813 1.164
-0.11 -1.866 0.912
-0.11 -1.883 0.656
-0.11 -1.866 0.399
-0.11 -1.813 0.148
-0.11 1.813 0.148
-0.11 1.866 0.399
-0.11 1.883 0.656
-0.365 1.831 0.907
-0.365 1.779 1.154
-0.365 1.695 1.392
-0.365 1.579 1.616
-0.365 1.434 1.822
-0.365 1.261 2.006
-0.365 1.066 2.165
-0.365 0.85 2.296
-0.365 0.619 2.397
-0.365 0.376 2.465
-0.365 0.126 2.499
-0.365 -0.126 2.499
-0.365 -0.376 2.465
-0.365 -0.619 2.397
-0.365 -0.85 2.296
-0.365 -1.066 2.165
-0.365 -1.261 2.006
-0.365 -1.434 1.822
-0.365 -1.579 1.616
-0.365 -1.695 1.392
-0.365 -1.779 1.154
-0.365 -1.831 0.907
-0.365 -1.848 0.656
-0.365 -1.831 0.404
-0.365 -1.779 0.157
-0.365 1.779 0.157
-0.365 1.831 0.404
-0.365 1.848 0.656
-0.613 1.779 0.656
-0.613 1.76 0.909
-0.613 1.706 1.157
-0.613 1.618 1.394
-0.613 1.496 1.617
-0.613 1.344 1.82
-0.613 1.165 2.0
-0.613 0.962 2.152
-0.613 0.739 2.273
-0.613 0.501 2.362
-0.613 0.253 2.416
-0.613 0.0 2.434
-0.613 -0.253 2.416
-0.613 -0.501 2.362
-0.613 -0.739 2.273
-0.613 -0.962 2.152
-0.613 -1.165 2.0
-0.613 -1.344 1.82
-0.613 -1.496 1.617
-0.613 -1.618 1.394
-0.613 -1.706 1.157
-0.613 -1.76 0.909
-0.613 -1.779 0.656
-0.613 -1.76 0.402
-0.613 -1.706 0.155
-0.613 1.706 0.155
-0.613 1.76 0.402
-0.849 1.676 0.656
-0.849 1.656 0.911
-0.849 1.598 1.161
-0.849 1.502 1.399
-0.849 1.371 1.62
-0.849 1.208 1.818
-0.849 1.016 1.988
-0.849 0.801 2.128
-0.849 0.566 2.233
-0.849 0.319 2.301
-0.849 0.064 2.33
-0.849 -0.192 2.32
-0.849 -0.444 2.272
-0.849 -0.686 2.185
-0.849 -0.911 2.062
-0.849 -1.115 1.907
-0.849 -1.293 1.722
-0.849 -1.441 1.512
-0.849 -1.554 1.282
-0.849 -1.632 1.037
-0.849 -1.671 0.784
-0.849 -1.671 0.527
-0.849 -1.632 0.274
-0.849 -1.554 0.029
-0.849 1.598 0.15
-0.849 1.656 0.4
-1.069 1.542 0.656
-1.069 1.521 0.909
-1.069 1.458 1.156
-1.069 1.356 1.39
-1.069 1.217 1.603
-1.069 1.044 1.79
-1.069 0.843 1.947
-1.069 0.619 2.068
-1.069 0.379 2.15
-1.069 0.127 2.192
-1.069 -0.127 2.192
-1.069 -0.379 2.15
-1.069 -0.619 2.068
-1.069 -0.843 1.947
-1.069 -1.044 1.79
-1.069 -1.217 1.603
-1.069 -1.356 1.39
-1.069 -1.458 1.156
-1.069 -1.521 0.909
-1.069 -1.542 0.656
-1.069 -1.521 0.402
-1.069 -1.458 0.155
-1.069 1.458 0.155
-1.069 1.521 0.402
-1.269 1.379 0.656
-1.269 1.356 0.909
-1.269 1.286 1.154
-1.269 1.173 1.382
-1.269 1.019 1.585
-1.269 0.831 1.756
-1.269 0.615 1.89
-1.269 0.378 1.982
-1.269 0.127 2.029
-1.269 -0.127 2.029
-1.269 -0.378 1.982
-1.269 -0.615 1.89
-1.269 -0.831 1.756
-1.269 -1.019 1.585
-1.269 -1.173 1.382
-1.269 -1.286 1.154
-1.269 -1.356 0.909
-1.269 -1.379 0.656
-1.269 -1.356 0.402
-1.269 -1.286 0.157
-1.269 1.286 0.157
-1.269 1.356 0.402
-1.445 1.191 0.656
-1.445 1.163 0.912
-1.445 1.081 1.156
-1.445 0.948 1.376
-1.445 0.771 1.563
-1.445 0.558 1.708
-1.445 0.319 1.803
-1.445 0.064 1.845
-1.445 -0.193 1.831
[...]
CELL_DATA 1554
SCALARS cell_data_0 double
LOOKUP_TABLE default
3.09497604625e-09
9.56040266251e-09
5.59602428869e-09
2.35250856076e-09
7.53019906071e-09
4.34005634162e-09
1.74933664709e-09
1.23572983422e-09
4.1145537427e-11
5.13962005575e-10
5.48008771405e-09
3.0663395721e-09
6.15409685244e-10
3.23840978415e-10
1.10246940042e-09
1.65881686137e-09
3.91783423845e-10
5.3607487623e-10
9.17319803984e-11
4.13039633161e-10
8.08790528104e-11
4.92284659054e-11
2.14838259811e-10
1.12616369288e-10
4.11985319806e-11
2.29825995797e-11
2.00312646495e-11
2.6202820909e-12
8.75957847824e-11
1.38014855531e-11
9.05398542056e-11
1.39713641252e-10
1.30988944866e-10
5.8260613766e-12
1.66510500027e-10
4.05738840907e-10
8.23180466298e-11
2.02705400277e-10
1.15009515487e-10
2.97619584293e-10
1.99150340695e-11
1.32239125438e-10
1.03549897662e-10
1.34175867885e-10
1.5989622494e-10
1.43143757926e-10
2.05065438956e-10
4.79473773977e-10
4.97041057518e-10
1.27507490199e-10
5.32747600685e-10
4.56231012777e-10
3.03583444502e-10
8.23914138836e-13
1.02125647041e-10
4.87517468e-10
1.87098746697e-10
2.74004318728e-10
2.95645146352e-10
1.08517360366e-09
3.38930193218e-10
2.93681816441e-10
5.41219269002e-10
1.00960305035e-09
3.84413681794e-10
1.04830148287e-10
4.48764072957e-10
2.01328041714e-10
2.60002627837e-10
2.61180871342e-10
1.99630636272e-10
2.08412130183e-10
5.01726980507e-10
1.94892670152e-10
6.3631567506e-10
4.31532438832e-10
5.32049727737e-10
1.62416966952e-10
3.43976549126e-10
3.65734690913e-10
2.72818557774e-10
9.07635701314e-11
3.93380475342e-10
4.02472620042e-10
3.45268817725e-10
2.06199508173e-11
3.10431869074e-10
3.25530624421e-10
2.8771314344e-10
2.36982565279e-12
3.50019982631e-10
3.68205612277e-10
3.11035592025e-10
1.01394778706e-11
3.47987294263e-10
3.59745302786e-10
2.28758754782e-10
7.8636389927e-11
1.64338727746e-10
6.48499057443e-10
2.56703655415e-10
1.53785543695e-10
4.973418806e-10
5.30004394929e-10
1.78408038061e-10
1.80695559905e-11
9.21276311354e-11
2.13707381267e-10
3.10880220633e-11
5.17957157087e-11
1.09371433943e-10
2.34871454395e-10
2.14087467947e-11
3.15619123138e-11
1.23788945583e-10
1.76834270013e-10
1.7341148553e-10
8.44803367316e-11
1.82391697452e-10
1.33248738856e-10
7.73888937311e-11
2.65671521033e-11
1.89293766133e-11
1.37876301535e-10
6.35130710894e-11
2.79166014982e-11
1.50950114125e-10
2.96153047102e-11
3.65947031121e-11
5.74850178923e-11
2.45447352275e-11
1.25208098813e-10
1.42307519504e-10
3.92425175584e-11
2.03085368633e-10
3.05806211923e-11
1.46161158979e-10
4.14884689097e-11
5.71012238699e-10
9.4023823462e-11
1.09271764983e-09
2.13878318731e-10
2.29148497899e-09
2.6176993184e-10
1.92818562038e-11
5.55195955797e-10
2.96139739845e-09
2.92506989156e-09
1.821374675e-09
2.37593722372e-09
5.15543396619e-09
7.32592299712e-09
7.32425903049e-12
1.37335139398e-12
4.24759048e-12
7.96299185949e-12
4.8024131447e-12
1.02690884957e-11
3.60202543003e-11
5.97746291306e-12
2.48783946971e-12
3.47189943593e-11
1.1477737173e-11
1.36039868689e-12
5.79124632245e-11
1.99267337513e-11
3.22739735437e-11
1.31045216901e-10
5.65706690101e-12
1.67258292571e-12
1.34625042239e-10
2.57539025347e-11
2.04744952894e-11
7.96527732066e-11
2.35114940038e-11
7.94517761052e-12
7.33415467624e-12
3.07716136178e-12
3.67008397669e-11
7.68958537814e-12
9.39385800232e-12
9.05784468061e-12
1.47548960669e-11
4.89763017686e-11
2.57352734124e-11
5.36477739784e-12
1.47696528328e-12
3.84108445213e-12
7.89215311707e-11
6.93427733271e-11
8.37003607078e-12
4.55881092506e-11
3.09810405188e-12
1.56214321662e-10
3.51939418907e-10
6.43081343591e-11
1.43656835927e-10
1.76619055413e-10
4.18120150175e-10
3.8180762219e-10
4.37510291476e-13
4.87693847173e-11
1.33550315401e-11
5.95350867025e-12
4.04033225913e-11
1.12264823069e-11
1.30001789366e-11
5.58660991435e-12
2.06930816769e-11
2.17001204372e-11
7.38475813833e-11
4.09150486187e-11
1.23769795031e-11
3.48590637169e-11
1.62466334704e-12
3.44970053425e-11
9.57135402461e-12
4.81329402051e-11
6.24263921682e-11
3.77050794614e-12
8.89991786744e-12
1.55455058728e-11
2.35910020133e-11
1.7782350697e-12
2.67936716096e-11
5.49499747062e-11
2.15018285533e-12
2.94601428185e-11
7.77615045138e-11
1.81288735059e-10
4.10290512934e-11
4.91366199677e-11
7.602819342e-10
7.61690284579e-11
4.2798146811e-12
4.4066186858e-11
8.05448614101e-12
7.54418787536e-12
2.16239846584e-11
7.53446897129e-12
2.2817414673e-12
1.28734963337e-12
1.4254416542e-11
6.57634331056e-12
2.43745090047e-11
1.69067487653e-11
3.07154373243e-11
8.81209842604e-12
3.83467132151e-11
2.15620244092e-11
4.44424756448e-11
2.51899147574e-11
1.15350487027e-11
1.99007507426e-11
3.16714046497e-11
1.15675774443e-11
8.24957543844e-12
2.16188668762e-11
1.27486785322e-11
1.30569594998e-11
2.83831989802e-11
1.18753045292e-11
1.09622366923e-11
2.18436933205e-11
1.66762172863e-11
2.57780310011e-11
2.07968181504e-11
4.32187857648e-11
5.86281072628e-11
1.27996378171e-10
9.66650479445e-13
9.08512632079e-11
1.59351584773e-10
5.02244703595e-11
4.62349431636e-12
6.96635049555e-13
1.34358943195e-12
1.73518421773e-11
1.26454681714e-11
7.68202025418e-12
1.94212687054e-12
1.80926018635e-12
5.38890217801e-12
7.77743197927e-12
9.95281628485e-13
1.11406412205e-12
1.05873565988e-11
2.0558554865e-11
2.68856827559e-11
4.24914992707e-11
9.76558552581e-11
2.60831161814e-11
1.56932483573e-11
3.63504941926e-11
1.06753918854e-12
1.87830259292e-11
4.99537195312e-12
1.53298495574e-11
3.69558627243e-12
5.45777154759e-13
4.8858620108e-12
1.79025749506e-11
7.96662957586e-12
5.13188203866e-11
3.5306458694e-11
6.90003912314e-13
1.29083625855e-11
1.72534847317e-11
2.48858137957e-11
1.05365710257e-11
1.31211555488e-11
3.84650447516e-11
2.22352781354e-11
7.16160192905e-11
5.76710121769e-11
3.87835504134e-11
2.96653328525e-13
7.47148074297e-12
1.44250169015e-11
2.7093441192e-12
1.19346877375e-11
1.36234132999e-11
8.47409078381e-12
7.73708972081e-13
8.76193618072e-12
6.45269604457e-14
3.19954580373e-12
2.52355826879e-12
2.81243034722e-12
7.53561581806e-12
1.65738059535e-11
2.11528190709e-12
2.5899788891e-11
2.31789377808e-11
2.4947991553e-11
2.40250535814e-11
1.26227858618e-11
3.15177190009e-11
8.12514874353e-11
1.20106819308e-11
7.72181062784e-12
2.00858027935e-12
1.84755020088e-11
2.45440835922e-12
2.62453611568e-12
2.51560568241e-12
8.08597045409e-12
1.466858791e-11
6.90360003675e-12
1.90449631635e-11
6.65411273632e-12
1.7908339147e-11
6.97679334595e-12
7.03911676702e-12
1.47454371142e-11
9.96374581319e-12
5.29090688105e-13
3.07112097846e-11
5.08710836352e-12
1.34612168913e-11
1.12944426544e-12
5.97129861282e-11
1.38480109116e-10
1.51136680863e-10
1.45175776885e-11
2.16924398922e-12
8.9905130443e-12
1.36067052317e-11
3.5648011204e-12
3.5690491416e-12
1.14596818062e-11
6.45291364309e-13
3.46391173913e-12
4.06875133494e-13
3.27455353651e-12
2.08346726984e-12
2.9822285978e-12
2.70726982478e-12
4.99756858871e-12
3.98852761456e-12
6.42273470476e-12
4.37944282533e-12
4.35764730097e-12
1.51660424183e-11
2.24500200446e-11
2.85665554732e-11
2.70494725791e-11
3.63969827601e-11
2.22432814854e-11
5.38036369576e-12
4.80738886641e-12
3.93832908119e-12
1.72018837763e-13
1.43169035157e-11
1.80600660044e-11
6.21163008627e-12
3.15557253755e-11
1.7524504419e-11
2.96256225443e-12
3.19602980349e-12
7.62665421937e-12
2.57174815187e-12
4.0758702397e-12
1.08287027195e-11
3.67634558005e-12
3.12317755417e-12
9.44407552866e-12
9.35964084883e-12
2.01794899867e-11
1.40629034106e-11
3.88352413654e-11
1.81042963639e-11
1.37112321713e-12
1.88703758429e-11
4.03741480319e-11
1.31218586502e-11
1.2242110212e-11
1.19775050407e-11
2.09297573784e-12
1.7235607508e-11
8.71862581815e-13
1.08009819941e-11
1.55709906603e-12
4.64285856087e-12
6.05471867481e-13
3.71968184542e-13
2.45017744045e-13
3.43478208631e-12
8.73621255922e-13
4.29734761769e-13
3.29709715992e-13
2.92923891438e-12
6.92518911199e-14
5.86787837213e-12
9.07629249103e-12
1.24339768938e-11
7.29792413587e-13
1.61747911997e-12
2.61681248257e-11
8.78234430657e-12
1.36558998403e-11
1.19912116711e-11
6.41476724276e-12
7.18417478754e-12
1.69149905979e-12
6.24496591192e-12
8.33197307565e-12
1.5672013941e-11
4.37461090337e-11
1.65924166601e-11
7.82382482561e-12
4.69605887956e-12
6.35545499893e-12
4.80293251297e-13
2.04882306465e-12
4.87435623528e-12
8.78674559054e-12
4.4423810276e-12
8.30152514035e-12
4.517569941e-12
1.06864156194e-11
1.12288709566e-11
6.34080285208e-13
8.72782905247e-12
6.44409525692e-12
1.39058886857e-11
1.06987608566e-11
5.05191334974e-12
6.76753832966e-12
9.50633787765e-12
4.68491453046e-12
8.77127032968e-12
6.18202332355e-12
2.82052143842e-12
1.11186809117e-11
6.66182567117e-12
1.12088220897e-12
1.86981542072e-12
4.1321067372e-13
4.65159032362e-12
6.44604577581e-13
2.24222525102e-12
3.1149854373e-13
5.66920371192e-13
2.86376385853e-12
2.08294273082e-12
2.10448742671e-12
1.57460621859e-12
8.84422501123e-13
2.16369944223e-13
3.05603210313e-12
5.04878002893e-12
8.15971034484e-12
6.71961523385e-12
1.37106286141e-11
1.91721037182e-12
4.66410945678e-12
2.91174454905e-12
3.32778867584e-12
1.25046147847e-11
2.26197114103e-12
1.17646907907e-11
7.82241661252e-12
1.9897064919e-11
1.91812876688e-12
1.30299563053e-11
4.02576269725e-12
1.04037339241e-11
3.58122639901e-12
1.14626717692e-12
2.86078884406e-12
2.07003001926e-12
9.87413001463e-12
5.90587135532e-12
2.82411773484e-12
6.25203096608e-12
1.6102144283e-11
1.46192504764e-12
1.35310400015e-11
1.76749133136e-11
6.48875693807e-12
8.62459510157e-12
2.50470115761e-11
2.28573864958e-11
7.97326931123e-11
6.13071535637e-11
4.30191507457e-12
1.88434187875e-12
2.24843816096e-12
3.55960868716e-12
2.99431964334e-12
3.90631713634e-12
4.91895809376e-12
1.19415101309e-12
3.16481609147e-12
1.28701397683e-13
1.39200100788e-13
1.8068882683e-12
3.79255504094e-12
1.93306273678e-12
2.53289976624e-12
3.11082205545e-12
2.29352151937e-12
1.07418260136e-13
1.91669397079e-12
5.29467749527e-13
1.16325143965e-12
3.33147248807e-13
1.61915804745e-13
1.97299795196e-12
1.74078475404e-12
6.04445662771e-12
5.46262298653e-12
4.072973872e-12
2.16172766187e-12
6.92874545896e-13
5.7797312504e-12
1.23527652739e-13
7.96154319638e-13
2.02328880034e-12
2.57487373575e-12
3.62511063724e-12
6.9008981689e-12
1.0321743905e-12
4.52500098157e-12
5.19674550496e-12
6.1360028399e-12
2.92354913141e-12
1.76891352873e-12
4.49950235575e-12
7.41937052619e-14
1.14054461759e-11
2.0388655158e-12
3.55220638834e-12
2.63073393691e-12
1.48824233782e-11
5.37962526271e-12
4.61817942925e-12
1.45545771268e-11
1.0850881002e-11
4.17629379141e-11
2.31676568123e-11
7.99070424621e-12
1.90291379787e-12
6.40837170854e-12
6.46978821017e-12
5.80643533583e-12
2.48364243714e-12
3.07016466907e-12
5.53398024813e-13
2.0247971097e-12
5.03854926983e-12
7.78511546811e-13
5.11932814017e-12
4.99236083869e-13
4.12513587052e-12
2.35353761635e-13
5.0186071012e-12
2.1177856908e-12
5.44998608424e-12
3.05209612214e-12
4.91671705405e-12
4.43303740483e-12
4.94429125555e-12
1.87329832672e-12
3.25114972791e-12
9.64758863517e-13
1.21242483417e-12
1.34152451612e-12
4.28312969453e-12
2.19292525918e-12
1.76602174048e-12
3.86126386159e-12
9.16285628074e-13
3.3185305673e-12
1.39829027713e-12
3.35528060569e-12
4.9434876467e-13
1.85431587976e-12
2.59956152312e-12
3.70246907537e-12
9.63679516538e-13
3.93898523933e-12
4.33956754653e-13
2.01386650577e-12
3.33437879228e-12
3.78520514018e-12
1.17594632815e-12
5.16746636984e-12
1.45146207779e-12
1.48671105201e-13
7.78972028179e-13
1.2601617776e-11
1.75885136792e-11
3.57662059909e-11
1.14685821349e-10
1.23992198836e-10
1.26549382611e-11
1.78627854175e-12
7.83161666991e-12
2.349970843e-12
1.0730634137e-11
3.3595838006e-12
9.75577860629e-12
1.33592135291e-12
4.23645828641e-13
4.99159173846e-14
6.79561833598e-12
3.94195420431e-12
3.82383323642e-12
5.91048407827e-13
5.89922866342e-12
2.09266601865e-12
5.63107531925e-12
2.46079116483e-13
5.1645819053e-12
1.65088526884e-12
3.36611483659e-12
2.24283830237e-13
3.73012257709e-12
2.13732108586e-12
1.10534091002e-13
1.16128357647e-12
1.00274910531e-12
1.83464839789e-12
3.7148616597e-12
1.9048185317e-12
4.46245147723e-14
8.34126498224e-13
2.68352041991e-12
1.07265682065e-12
1.36474847456e-12
4.66167657149e-12
1.73116437374e-12
2.92259640828e-12
1.39861130563e-12
4.12860128811e-12
1.0245572236e-13
9.04527243457e-13
2.46390104912e-12
2.11464400184e-12
7.84353169198e-13
4.23592648948e-13
7.88330519399e-13
2.11062375705e-13
2.52300169456e-12
2.10428584811e-12
2.55721020496e-11
4.9555553269e-13
8.70693689549e-12
5.75917740667e-11
4.78063269698e-11
1.50505078191e-11
2.08900912348e-12
2.16529602028e-12
2.94834046e-12
2.19819039069e-12
3.01130878646e-12
6.37166764824e-13
4.75344440752e-12
4.61903892812e-12
2.97828400967e-12
4.37255372492e-12
5.12631423345e-12
2.93095832837e-12
3.39498263266e-13
6.97769183596e-12
2.03629584365e-12
3.43963159051e-12
3.27191131669e-12
3.60740984758e-12
2.59373924694e-12
3.38600483158e-12
2.93500480135e-12
6.07251298825e-13
2.96772679844e-12
2.08298666192e-12
2.0436066951e-12
2.11125095111e-12
8.61586127609e-13
4.98521746562e-12
5.77988218341e-12
2.52787338042e-12
1.21290074089e-11
1.61527913066e-11
3.21818296797e-12
1.82820022186e-11
1.17188932825e-11
6.94080559885e-12
9.68571731266e-12
2.45781228715e-12
4.4232559391e-12
3.53364438589e-13
2.75245531026e-12
6.36681923929e-13
3.026647525e-12
2.53807832808e-12
2.81333106217e-13
2.51236406756e-12
2.63815915988e-12
4.00866821546e-12
6.97338152236e-12
3.78584210472e-11
7.99319572163e-11
4.0248565871e-11
3.52850513107e-11
3.79086223795e-11
9.75418470144e-12
4.23332096177e-12
1.03347827199e-11
6.91565465375e-13
2.89988054263e-13
1.49178189766e-13
1.39296821634e-12
1.12268911294e-12
3.98257572347e-12
8.0551559666e-13
3.21263979524e-12
2.13418804395e-13
4.18793746974e-12
2.96442164912e-13
3.83146392766e-12
2.29218362986e-13
4.59561186237e-12
1.57336212181e-12
2.01640111733e-12
3.77367317769e-12
2.90099020037e-13
1.72324201316e-12
4.29620388069e-12
7.17963207087e-12
2.13899213026e-12
3.86310556725e-12
1.41623729316e-13
3.46911146088e-12
4.94232933302e-12
2.87591391583e-12
8.94028667432e-12
6.735205502e-12
6.76325349009e-12
5.14964988e-12
1.07300603973e-12
6.59084269384e-13
1.65211020178e-12
2.27754863993e-13
2.12318559297e-12
1.35886261131e-12
2.75322371995e-13
2.32665573362e-13
4.52933761855e-12
2.96242931292e-12
2.14164202063e-11
9.07193494633e-12
9.44889134361e-13
8.94424704437e-11
2.05440293103e-10
2.6132081744e-11
3.08131556003e-11
1.67535533038e-11
9.59672976505e-12
1.15433964108e-11
4.33875840906e-12
7.22925921809e-13
3.97772926735e-13
3.00265753225e-13
6.12148869743e-14
9.24650745635e-13
4.46648246203e-14
7.25328018806e-13
6.74255165681e-13
1.81371596535e-12
1.28853412264e-12
2.90664914271e-12
1.99506683055e-12
7.96896626967e-13
5.50091449133e-12
3.51795825904e-13
4.69337173872e-12
2.92182385383e-12
7.42123143026e-12
6.25315523472e-12
8.46881049163e-12
5.78863648888e-12
2.11254503354e-12
3.29757485966e-12
1.12009849507e-12
4.82664855048e-13
1.79114620583e-12
5.79949916384e-15
1.39034243048e-12
7.90657074467e-13
2.00306474339e-12
4.1106500904e-13
1.33532321661e-12
3.50404917902e-13
2.63431611557e-13
2.34731159097e-12
1.56699805395e-12
5.95310317804e-12
1.49638521781e-12
3.42285297353e-11
7.64448720388e-12
9.24094302142e-11
2.43756336036e-10
4.63054627946e-11
3.02777498263e-11
4.88220707258e-12
7.43139499017e-12
7.05369220655e-12
2.08205381574e-12
1.97436300199e-14
5.38879401709e-13
4.50274269997e-13
5.27718452745e-13
7.47827286214e-13
5.85986282922e-13
8.87572500445e-13
6.3695991872e-13
8.41722113395e-13
8.61888470342e-13
3.16086984855e-12
4.6845465046e-12
7.03869585354e-13
7.32681588905e-12
2.86540713641e-12
5.21356689186e-12
2.50698409912e-12
2.78292364693e-12
6.4079563093e-12
1.33984536502e-12
4.99637819387e-12
1.8470843496e-12
3.54390744034e-12
2.66537979859e-12
8.45503574661e-13
1.23794491572e-12
4.14998096611e-13
1.20239324168e-13
1.65918057528e-13
3.92050137782e-13
4.16738191617e-12
3.01600660596e-12
1.85723694553e-11
3.2118690564e-11
8.93844209586e-12
2.39598698651e-11
1.58786924927e-11
4.90800900513e-11
7.18786702669e-11
2.09968495355e-11
4.71476581967e-12
6.82809163508e-12
1.10193282577e-11
6.44335677615e-12
1.70792546189e-13
2.28030533781e-13
4.56762774599e-13
3.55731765108e-13
1.03469980893e-13
4.34231624335e-13
7.93182292936e-13
3.86060471115e-13
7.89499982045e-13
4.5226028178e-12
2.58056349353e-13
5.21222517513e-12
7.43259756042e-14
8.82834070058e-13
3.75986427599e-12
3.14674839993e-12
3.12382163432e-14
9.41288018127e-13
1.43258852047e-12
3.66465459908e-14
7.52422751432e-13
8.04799850067e-13
1.10286553438e-13
8.21904021571e-13
5.02468939385e-13
1.54787660256e-12
4.95845107203e-12
8.64829700059e-12
1.59590125948e-11
1.33070258234e-12
1.73216362999e-11
3.90586066256e-11
3.12392612013e-11
8.88997466622e-11
5.39008416311e-11
8.37976070139e-12
1.83455619896e-11
5.85943342222e-12
1.99163794405e-12
2.42497053113e-12
1.34509559744e-12
7.10031999731e-14
4.97695274247e-14
5.40840067738e-13
7.10937292229e-13
4.46808751061e-13
2.14691534617e-12
1.96403674756e-12
1.80390985448e-12
7.37036119831e-13
4.00356061902e-13
3.46829687811e-13
4.75516485853e-13
6.64743168334e-13
1.90621564641e-12
9.5357993457e-13
1.64962468072e-14
5.1017937792e-13
6.01810858355e-13
2.30397207448e-12
3.56387602503e-12
2.7077930277e-12
1.42229476771e-11
2.54468363172e-11
5.13898501729e-11
3.86720307755e-11
1.12599022838e-11
1.28894996718e-10
2.60197590395e-11
3.32333910521e-11
7.73121154032e-13
2.01933438813e-12
2.64663709651e-12
1.37553310648e-13
6.78723202934e-13
6.43195362923e-13
1.12890733035e-12
4.4699301481e-13
2.29176510974e-13
1.48317489742e-13
7.5308307065e-13
1.86913610605e-12
1.09307428107e-12
9.27675933249e-14
8.21524081179e-13
6.13384011833e-13
1.24754122371e-12
1.29309000051e-12
2.10354846732e-12
5.04519786214e-12
1.10253569069e-12
2.77453807761e-11
1.76080268777e-11
1.54284132878e-11
1.26216530419e-10
1.0171831997e-10
1.53854642136e-10
7.57194872157e-11
5.89145685493e-11
3.12476228562e-11
2.15653762483e-12
1.18297414624e-11
3.72676011622e-12
1.87971880604e-13
1.64798030092e-12
1.74758393218e-12
2.89543775991e-12
3.25389899758e-12
2.2928857771e-12
1.70410838598e-12
1.18820597615e-12
1.31918536475e-12
1.15404711643e-12
5.6201038936e-12
1.02413236611e-11
4.47687488863e-11
3.52309796757e-12
5.92500893846e-12
9.33122084894e-11
2.69661471038e-11
3.41357790618e-11
4.33458146e-11
2.28588295977e-11
7.10674059176e-12
5.01686576973e-12
4.74158112897e-12
2.5304600579e-12
1.05474188584e-11
3.15805783949e-12
3.90327078749e-12
8.02839626346e-11
8.20976494152e-11
6.00034689518e-11
1.28940703937e-10
2.89645106236e-10
2.64034189739e-10
1.55509819064e-10
3.11972592075e-12
1.10854152146e-11
3.35449928797e-11
1.10079389058e-11
2.81876420806e-11
2.70919932296e-11
3.2014065569e-11
9.82150057567e-11
1.42222122585e-10
7.15397649384e-12
1.81779508815e-12
2.44056487233e-12
3.59185370164e-10
3.89411892517e-10
1.88113200935e-11
4.35765527649e-11
2.69074125825e-10
2.67626324038e-10
5.68140726046e-11
5.24283932064e-11
7.13764216559e-11
2.1236643385e-11
1.2391848591e-10
2.29243587817e-11
5.19844356687e-10
1.20833186136e-10
9.74264697172e-11
1.43223892684e-10
3.71948545673e-10
1.36720014245e-10
7.66494458643e-11
1.5716493528e-10
4.00740675326e-11
1.6172586638e-11
1.216779301e-10
2.25796155142e-11
4.41775960576e-12
1.02628446338e-10
1.9945371193e-13
8.62779120124e-12
7.52285233962e-12
5.69242452329e-11
5.60380033567e-11
1.07541221757e-10
3.74278974878e-10
2.94437449222e-10
1.54161612756e-10
6.3828133976e-11
1.64057288581e-11
5.34224079686e-10
7.83431929373e-10
2.87165978912e-10
4.18423042984e-10
7.34639757982e-10
1.2456832631e-09
1.43362805362e-10
1.02930780784e-09
1.10432673796e-09
2.39749679172e-10
6.53532044053e-10
3.27692207218e-10
8.41864876597e-10
1.64581197567e-10
2.0402998299e-10
9.05785519627e-11
4.18962234623e-11
1.06716351768e-10
7.67608030165e-11
1.45287895106e-11
3.06269022244e-12
5.88345808344e-13
4.37726590437e-12
6.65549995248e-11
4.14181012686e-11
1.25560216331e-10
1.40885460744e-10
1.55744152515e-10
6.33094944043e-11
8.03598291703e-11
2.58641932362e-11
1.43098490054e-10
3.78359786491e-11
1.35683727855e-10