# vtk DataFile Version 3.0
File Name: Molecule/methanol/methanol_4.0-1.vtk
ASCII
DATASET UNSTRUCTURED_GRID
FIELD FieldData 1
TIME 1 1 double
0.0
POINTS 206 double
1.51 -0.576 -0.349
1.219 -1.083 -0.32
1.311 -0.525 -0.924
1.046 -0.986 -0.897
0.773 -1.459 -0.275
0.639 -1.329 -0.857
0.226 -1.659 -0.221
0.141 -1.511 -0.807
-0.356 -1.659 -0.163
-0.389 -1.511 -0.754
-0.903 -1.459 -0.108
-0.887 -1.329 -0.705
-1.349 -1.083 -0.064
-1.294 -0.986 -0.664
-1.64 -0.576 -0.035
-1.559 -0.525 -0.638
-1.742 -0.0 -0.025
-1.651 -0.0 -0.629
-1.64 0.576 -0.035
-1.559 0.525 -0.638
-1.349 1.083 -0.064
-1.294 0.986 -0.664
-0.903 1.459 -0.108
-0.887 1.329 -0.705
-0.356 1.659 -0.163
-0.389 1.511 -0.754
0.226 1.659 -0.221
0.141 1.511 -0.807
0.773 1.459 -0.275
0.639 1.329 -0.857
1.219 1.083 -0.32
1.046 0.986 -0.897
1.51 0.576 -0.349
1.311 0.525 -0.924
1.611 0.0 -0.359
1.907 0.0 0.656
1.83 0.532 0.656
1.83 0.266 1.116
1.83 -0.266 1.116
1.83 -0.532 0.656
1.83 -0.266 0.195
1.83 0.266 0.195
1.607 0.884 1.166
1.607 0.51 1.539
1.607 -0.0 1.676
1.607 -0.51 1.539
1.607 -0.884 1.166
1.607 -1.02 0.656
1.607 -0.884 0.145
1.607 0.884 0.145
1.607 1.02 0.656
1.255 1.33 1.171
1.255 1.054 1.617
1.255 0.636 1.933
1.255 0.132 2.076
1.255 -0.39 2.028
1.255 -0.86 1.794
1.255 -1.213 1.407
1.255 -1.402 0.918
1.255 -1.402 0.393
1.255 1.33 0.14
1.255 1.426 0.656
0.803 1.633 1.186
0.803 1.389 1.665
0.803 1.009 2.045
0.803 0.531 2.288
0.803 -0.0 2.373
0.803 -0.531 2.288
0.803 -1.009 2.045
0.803 -1.389 1.665
0.803 -1.633 1.186
0.803 -1.717 0.656
0.803 -1.633 0.125
0.803 1.633 0.125
0.803 1.717 0.656
0.288 1.793 1.182
0.288 1.572 1.666
0.288 1.223 2.068
0.288 0.776 2.355
0.288 0.266 2.505
0.288 -0.266 2.505
0.288 -0.776 2.355
0.288 -1.223 2.068
0.288 -1.572 1.666
0.288 -1.793 1.182
0.288 -1.868 0.656
0.288 -1.793 0.129
0.288 1.793 0.129
0.288 1.868 0.656
-0.25 1.793 1.182
-0.25 1.572 1.666
-0.25 1.223 2.068
-0.25 0.776 2.355
-0.25 0.266 2.505
-0.25 -0.266 2.505
-0.25 -0.776 2.355
-0.25 -1.223 2.068
-0.25 -1.572 1.666
-0.25 -1.793 1.182
-0.25 -1.868 0.656
-0.25 -1.793 0.129
-0.25 1.793 0.129
-0.25 1.868 0.656
-0.765 1.717 0.656
-0.765 1.633 1.186
-0.765 1.389 1.665
-0.765 1.009 2.045
-0.765 0.531 2.288
-0.765 -0.0 2.373
-0.765 -0.531 2.288
-0.765 -1.009 2.045
-0.765 -1.389 1.665
-0.765 -1.633 1.186
-0.765 -1.717 0.656
-1.217 1.426 0.656
-1.217 1.33 1.171
-1.217 1.054 1.617
-1.217 0.636 1.933
-1.217 0.132 2.076
-1.217 -0.39 2.028
-1.217 -0.86 1.794
-1.217 -1.213 1.407
-1.217 -1.402 0.918
-1.217 -1.402 0.393
-1.569 1.02 0.656
-1.569 0.884 1.166
-1.569 0.51 1.539
-1.569 -0.0 1.676
-1.569 -0.51 1.539
-1.569 -0.884 1.166
-1.569 -1.02 0.656
-1.792 0.532 0.656
-1.792 0.266 1.116
-1.792 -0.266 1.116
-1.792 -0.532 0.656
-1.868 0.0 0.656
1.056 -0.854 -1.231
0.648 -1.228 -1.246
0.648 -0.94 -1.677
1.056 0.854 -1.231
0.648 0.94 -1.677
0.648 1.228 -1.246
0.147 -1.421 -1.254
0.147 -1.158 -1.709
0.147 -0.756 -2.046
0.648 -0.509 -1.965
0.147 -0.263 -2.226
0.648 0.0 -2.067
0.147 0.262 -2.226
0.648 0.509 -1.965
0.147 0.756 -2.046
0.147 1.158 -1.709
0.147 1.421 -1.254
-0.386 -1.421 -1.254
-0.386 -1.158 -1.709
-0.386 -0.756 -2.046
-0.386 -0.263 -2.226
-0.386 0.262 -2.226
-0.386 0.756 -2.046
-0.386 1.158 -1.709
-0.386 1.421 -1.254
-0.887 -1.228 -1.246
-0.887 -0.94 -1.677
-0.887 -0.509 -1.965
-0.887 0.0 -2.067
-0.887 0.509 -1.965
-0.887 0.94 -1.677
-0.887 1.228 -1.246
-1.296 -0.854 -1.231
-1.296 -0.493 -1.592
-1.296 -0.0 -1.724
-1.296 0.493 -1.592
-1.296 0.854 -1.231
-1.562 -0.263 -1.192
-1.562 0.263 -1.192
1.5605 -0.288 -0.354
1.507 0.0 -0.646
1.4565 -0.288 -0.641
1.403 0.0 -0.933
1.323 -0.263 -1.192
1.1895 -0.5585 -1.2115
1.1895 -0.378 -1.392
1.056 -0.6735 -1.4115
1.056 -0.493 -1.592
1.1895 -0.1315 -1.458
1.056 -0.2465 -1.658
1.056 -0.0 -1.724
1.323 0.263 -1.192
1.323 0.0 -1.192
1.1895 0.1315 -1.458
1.1895 0.378 -1.392
1.056 0.2465 -1.658
1.056 0.493 -1.592
1.1895 0.5585 -1.2115
1.056 0.6735 -1.4115
0.852 -0.501 -1.7785
0.852 -0.2545 -1.8445
0.852 0.0 -1.8955
0.648 -0.2545 -2.016
0.852 0.2545 -1.8445
0.648 0.2545 -2.016
0.852 0.501 -1.7785
1.1835 0.6895 -1.0775
1.317 0.394 -1.058
1.317 -0.394 -1.058
1.1835 -0.6895 -1.0775

CELLS 408 1632
3 0 1 2
3 2 1 3
3 1 4 3
3 3 4 5
3 4 6 5
3 5 6 7
3 6 8 7
3 7 8 9
3 8 10 9
3 9 10 11
3 10 12 11
3 11 12 13
3 12 14 13
3 13 14 15
3 14 16 15
3 15 16 17
3 16 18 17
3 17 18 19
3 18 20 19
3 19 20 21
3 20 22 21
3 21 22 23
3 22 24 23
3 23 24 25
3 24 26 25
3 25 26 27
3 26 28 27
3 27 28 29
3 28 30 29
3 29 30 31
3 30 32 31
3 31 32 33
3 32 34 33
3 35 36 37
3 35 37 38
3 35 38 39
3 35 39 40
3 35 40 41
3 35 41 36
3 37 36 42
3 37 42 43
3 37 43 44
3 38 37 44
3 38 44 45
3 38 45 46
3 39 38 46
3 39 46 47
3 39 47 48
3 40 39 48
3 36 41 49
3 36 49 50
3 36 50 42
3 42 50 51
3 42 51 52
3 43 42 52
3 43 52 53
3 43 53 54
3 44 43 54
3 44 54 55
3 45 44 55
3 45 55 56
3 46 45 56
3 46 56 57
3 46 57 58
3 47 46 58
3 47 58 59
3 48 47 59
3 50 49 60
3 50 60 61
3 50 61 51
3 51 61 62
3 51 62 63
3 52 51 63
3 52 63 64
3 53 52 64
3 53 64 65
3 54 53 65
3 54 65 66
3 55 54 66
3 55 66 67
3 56 55 67
3 56 67 68
3 56 68 69
3 57 56 69
3 57 69 70
3 58 57 70
3 58 70 71
3 59 58 71
3 59 71 72
3 61 60 73
3 61 73 74
3 61 74 62
3 62 74 75
3 62 75 76
3 63 62 76
3 63 76 77
3 64 63 77
3 64 77 78
3 65 64 78
3 65 78 79
3 66 65 79
3 66 79 80
3 67 66 80
3 67 80 81
3 68 67 81
3 68 81 82
3 69 68 82
3 69 82 83
3 70 69 83
3 70 83 84
3 71 70 84
3 71 84 85
3 71 85 86
3 72 71 86
3 74 73 87
3 74 87 88
3 74 88 75
3 75 88 89
3 75 89 90
3 76 75 90
3 76 90 91
3 77 76 91
3 77 91 92
3 78 77 92
3 78 92 93
3 79 78 93
3 79 93 94
3 80 79 94
3 80 94 95
3 81 80 95
3 81 95 96
3 82 81 96
3 82 96 97
3 83 82 97
3 83 97 98
3 84 83 98
3 84 98 99
3 85 84 99
3 85 99 100
3 86 85 100
3 88 87 101
3 88 101 102
3 88 102 89
3 89 102 103
3 89 103 104
3 90 89 104
3 90 104 105
3 91 90 105
3 91 105 106
3 92 91 106
3 92 106 107
3 93 92 107
3 93 107 108
3 94 93 108
3 94 108 109
3 95 94 109
3 95 109 110
3 96 95 110
3 96 110 111
3 97 96 111
3 97 111 112
3 98 97 112
3 98 112 113
3 99 98 113
3 100 99 113
3 102 101 103
3 104 103 114
3 104 114 115
3 105 104 115
3 105 115 116
3 106 105 116
3 106 116 117
3 107 106 117
3 107 117 118
3 108 107 118
3 108 118 119
3 109 108 119
3 109 119 120
3 110 109 120
3 111 110 120
3 111 120 121
3 112 111 121
3 112 121 122
3 113 112 122
3 113 122 123
3 115 114 124
3 115 124 125
3 116 115 125
3 116 125 126
3 117 116 126
3 118 117 126
3 118 126 127
3 119 118 127
3 119 127 128
3 120 119 128
3 120 128 129
3 121 120 129
3 122 121 129
3 122 129 130
3 123 122 130
3 125 124 131
3 125 131 132
3 126 125 132
3 127 126 132
3 127 132 133
3 128 127 133
3 129 128 133
3 129 133 134
3 130 129 134
3 132 131 135
3 133 132 135
3 134 133 135
3 134 135 16
3 134 16 14
3 134 14 130
3 130 14 12
3 130 12 123
3 123 12 10
3 123 10 113
3 113 10 100
3 100 10 8
3 100 8 6
3 100 6 86
3 86 6 72
3 72 6 4
3 72 4 1
3 72 1 59
3 59 1 48
3 48 1 0
3 48 0 40
3 40 34 41
3 41 34 32
3 41 32 49
3 49 32 30
3 49 30 60
3 60 30 28
3 60 28 73
3 73 28 26
3 73 26 87
3 87 26 101
3 101 26 24
3 101 24 22
3 101 22 103
3 103 22 114
3 114 22 20
3 114 20 124
3 124 20 18
3 124 18 131
3 131 18 16
3 131 16 135
3 136 137 138
3 139 140 141
3 137 142 143
3 138 137 143
3 138 143 144
3 145 138 144
3 145 144 146
3 147 146 148
3 149 148 150
3 140 149 150
3 140 150 151
3 141 140 151
3 141 151 152
3 142 153 154
3 143 142 154
3 144 143 154
3 144 154 155
3 144 155 156
3 146 144 156
3 146 156 157
3 148 146 157
3 148 157 158
3 150 148 158
3 150 158 159
3 151 150 159
3 151 159 160
3 152 151 160
3 154 153 161
3 154 161 162
3 155 154 162
3 155 162 163
3 156 155 163
3 156 163 164
3 157 156 164
3 157 164 165
3 158 157 165
3 158 165 166
3 159 158 166
3 159 166 167
3 160 159 167
3 162 161 168
3 162 168 169
3 163 162 169
3 163 169 170
3 164 163 170
3 165 164 170
3 165 170 171
3 166 165 171
3 166 171 172
3 167 166 172
3 169 168 173
3 170 169 173
3 170 173 174
3 171 170 174
3 172 171 174
3 172 174 19
3 172 19 21
3 172 21 167
3 167 21 23
3 167 23 160
3 160 23 25
3 160 25 27
3 160 27 152
3 152 27 29
3 152 29 141
3 141 29 31
3 141 31 139
3 136 3 137
3 137 3 5
3 137 5 142
3 142 5 7
3 142 7 153
3 153 7 9
3 153 9 11
3 153 11 161
3 161 11 13
3 161 13 168
3 168 13 15
3 168 15 173
3 173 15 17
3 173 17 174
3 174 17 19
3 34 175 176
3 175 177 176
3 175 0 177
3 176 177 178
3 178 177 2
3 177 0 2
3 34 176 33
3 33 176 178
3 0 175 40
3 40 175 34
3 179 180 181
3 180 182 181
3 180 136 182
3 181 182 183
3 179 181 184
3 181 185 184
3 181 183 185
3 184 185 186
3 187 188 189
3 188 184 189
3 188 179 184
3 189 184 186
3 187 189 190
3 189 191 190
3 189 186 191
3 190 191 192
3 187 190 193
3 190 194 193
3 190 192 194
3 193 194 139
3 183 182 138
3 182 136 138
3 145 195 138
3 138 195 183
3 186 185 196
3 185 195 196
3 185 183 195
3 196 195 145
3 186 196 197
3 196 198 197
3 196 145 198
3 197 198 147
3 186 197 199
3 197 200 199
3 197 147 200
3 199 200 149
3 192 191 201
3 191 199 201
3 191 186 199
3 201 199 149
3 192 201 140
3 201 149 140
3 139 194 140
3 194 192 140
3 147 198 146
3 198 145 146
3 149 200 148
3 200 147 148
3 33 202 31
3 31 202 139
3 139 202 193
3 202 203 193
3 202 33 203
3 193 203 187
3 187 203 178
3 203 33 178
3 179 188 178
3 178 188 187
3 2 204 178
3 178 204 179
3 179 204 180
3 204 205 180
3 204 2 205
3 180 205 136
3 136 205 3
3 205 2 3

CELL_TYPES 408
5
5
5
5
5
5
5
5
5
5
5
5
5
5
5
5
5
5
5
5
5
5
5
5
5
5
5
5
5
5
5
5
5
5
5
5
5
5
5
5
5
5
5
5
5
5
5
5
5
5
5
5
5
5
5
5
5
5
5
5
5
5
5
5
5
5
5
5
5
5
5
5
5
5
5
5
5
5
5
5
5
5
5
5
5
5
5
5
5
5
5
5
5
5
5
5
5
5
5
5
5
5
5
5
5
5
5
5
5
5
5
5
5
5
5
5
5
5
5
5
5
5
5
5
5
5
5
5
5
5
5
5
5
5
5
5
5
5
5
5
5
5
5
5
5
5
5
5
5
5
5
5
5
5
5
5
5
5
5
5
5
5
5
5
5
5
5
5
5
5
5
5
5
5
5
5
5
5
5
5
5
5
5
5
5
5
5
5
5
5
5
5
5
5
5
5
5
5
5
5
5
5
5
5
5
5
5
5
5
5
5
5
5
5
5
5
5
5
5
5
5
5
5
5
5
5
5
5
5
5
5
5
5
5
5
5
5
5
5
5
5
5
5
5
5
5
5
5
5
5
5
5
5
5
5
5
5
5
5
5
5
5
5
5
5
5
5
5
5
5
5
5
5
5
5
5
5
5
5
5
5
5
5
5
5
5
5
5
5
5
5
5
5
5
5
5
5
5
5
5
5
5
5
5
5
5
5
5
5
5
5
5
5
5
5
5
5
5
5
5
5
5
5
5
5
5
5
5
5
5
5
5
5
5
5
5
5
5
5
5
5
5
5
5
5
5
5
5
5
5
5
5
5
5
5
5
5
5
5
5
5
5
5
5
5
5
5
5
5
5
5
5
5
5
5
5
5
5
5
5
5
5
5
5
5
5
5
5
5
5
5
5
5
5
5
5
5
5
5
5
5
5
5
5
5
5
5
5

CELL_DATA 408
SCALARS cell_data_0 double
LOOKUP_TABLE default
9.97389392465e-07
8.34989155643e-07
6.45790103461e-08
9.99749582294e-08
1.47584504238e-08
6.31095802591e-09
4.98584756426e-08
4.70529970877e-08
8.87067589233e-08
7.9606381382e-08
1.26461182376e-07
1.38629145587e-07
1.34369879683e-07
1.48946171178e-07
1.54467471443e-07
1.42233230259e-07
1.40548623364e-07
1.53554988374e-07
1.74525233487e-07
1.80911154775e-07
1.70346603425e-07
1.6938113255e-07
1.92167935237e-07
1.56356113103e-07
1.82621320428e-07
1.19801874698e-07
1.58621011293e-07
1.1889454178e-07
1.00514381118e-07
1.87064930297e-07
1.26601965257e-08
8.6607514952e-07
8.7122141455e-07
5.71176157625e-10
1.93187193116e-09
1.53184463232e-10
1.73506454505e-09
3.72560660897e-09
1.24677076684e-09
1.94621022676e-09
3.0126578332e-10
1.65190011801e-09
2.30708101545e-09
2.08679339496e-10
6.93622948822e-11
1.44603687407e-09
8.25900662694e-10
5.16716709343e-09
2.63832999268e-09
5.54959372961e-09
3.28162752143e-10
1.29438466831e-09
4.82708831147e-10
5.3050685868e-10
7.34522855761e-10
4.85341575161e-10
1.39797640492e-09
1.40992369216e-09
1.92469602356e-09
1.78558133495e-09
1.61311004185e-09
2.80392842598e-10
1.69060832618e-09
7.29863587551e-10
2.03288206724e-09
2.40531955391e-09
7.28722794716e-09
1.7318460041e-09
3.27014436037e-10
1.18138353055e-09
1.4200729e-09
6.10296487353e-10
2.83028276696e-10
9.71069661501e-10
4.96725931448e-10
1.04618218212e-10
2.4241306748e-10
3.30585629459e-10
5.97428734475e-10
4.30722433039e-10
5.71307950846e-10
1.25280871171e-09
5.18568788111e-10
6.27874010126e-10
5.21439009771e-10
6.9135496964e-11
1.93847377574e-09
2.38118678895e-09
3.5191600631e-09
4.88606321198e-09
4.03140864655e-09
2.25079828166e-09
1.59335520994e-09
2.43961862961e-10
2.16792588973e-10
1.10626087133e-09
3.95089435714e-11
1.25212352929e-09
4.21911165767e-10
1.48055675936e-09
1.02116759431e-10
1.68953689489e-09
3.79165933043e-10
1.90989219399e-09
2.61430759579e-10
1.10870699832e-09
3.82291982882e-10
1.74622922025e-09
1.10621561058e-09
1.33801241333e-09
2.43903521756e-09
3.70236338157e-09
8.96015560927e-09
9.7913565516e-09
1.05603914114e-08
9.87074159158e-09
3.41927041024e-09
3.39864635082e-09
2.21890587159e-10
8.56004069522e-10
2.2395613484e-10
6.77265503591e-11
8.68458514872e-10
3.67018597884e-10
1.03885549245e-09
6.64876391557e-10
8.89223839087e-10
1.07805405974e-09
1.23858634599e-09
9.92395840153e-10
6.24805416675e-10
6.54380544364e-10
2.95462802126e-10
1.95329407319e-10
1.26960653107e-09
7.84578344717e-10
3.9520505559e-09
4.69399359235e-09
1.44686944525e-08
1.4683853784e-08
1.5199808072e-08
1.4597793283e-08
4.7336154391e-09
4.81611810584e-09
3.99934812671e-09
1.61640161889e-09
2.19252803704e-09
1.82942289082e-09
5.22469483542e-10
1.24382147281e-09
2.31134052339e-10
1.67933438321e-09
1.52434085994e-10
1.67495915561e-09
7.17619233651e-10
2.16513134331e-09
5.29831760474e-10
1.66002889757e-09
8.4662011716e-13
2.03356843195e-09
1.02513441003e-09
2.82300046548e-09
5.03546301708e-09
5.8718885039e-09
1.12324363751e-08
1.13295567898e-08
8.70920526149e-09
3.80751490297e-09
2.24259453134e-09
2.411315867e-09
2.09281594992e-09
1.93998036977e-10
7.11269916962e-10
4.80237672312e-10
1.03704200084e-09
2.96308489038e-11
1.95838730384e-10
4.79990759602e-11
3.55921333558e-10
1.72886794009e-09
2.16208115621e-09
2.03288312515e-09
3.04398128751e-09
4.77188452326e-09
8.81419961332e-09
9.73103368626e-09
4.05277301776e-09
2.39933676237e-09
3.00432437511e-09
2.34533835848e-09
3.68697022093e-10
1.41164912651e-09
2.76435298072e-09
1.48020344606e-09
2.62119842609e-09
2.02676852041e-09
2.3290572692e-09
2.54501553289e-09
4.72736376096e-09
6.97838599704e-09
8.71948663024e-09
4.59008368629e-09
2.73300677542e-09
3.95583643462e-09
3.3889037717e-09
3.59879971137e-09
2.655787585e-09
5.47492197763e-09
9.92124139851e-09
7.40604045647e-09
3.27345607722e-09
7.4114437662e-09
1.21376835107e-07
1.3596637163e-07
1.35532618776e-07
1.56332790588e-07
9.90174480769e-08
5.31091289608e-08
1.01556193075e-07
1.39678025073e-07
3.01646606085e-08
2.56169028299e-08
8.67086676147e-09
3.47184520938e-08
5.75316208483e-08
1.1982412825e-08
1.13592966993e-08
1.18733417736e-08
2.63640301382e-08
2.37431562111e-08
2.38245487592e-08
9.75155435368e-09
7.40999215094e-09
3.08016627741e-09
2.28361210892e-09
1.92724151352e-08
1.53533532039e-08
3.19513526503e-08
2.82253318543e-08
6.13007452443e-09
1.57043296833e-08
2.17173387099e-08
1.27566203369e-07
1.30802145504e-07
1.41476575573e-07
1.3715837534e-07
1.44021839434e-07
1.37904227116e-07
1.39434462092e-07
1.21210973221e-07
3.36674500899e-07
3.27955494324e-07
6.41018946549e-08
1.40595708156e-07
1.6748525432e-07
2.65555723255e-07
3.1089570461e-07
4.03726367266e-07
3.13195461004e-07
2.65165847886e-07
1.76983122571e-07
1.56984893737e-07
8.69997039335e-08
2.7761510798e-08
3.50913286645e-08
4.34129621625e-08
3.37762869931e-08
5.75379907251e-08
8.05872596927e-08
6.34231302855e-08
8.84559816406e-08
6.1366427572e-08
7.58681082723e-08
3.85479197778e-08
4.72224084876e-08
2.55462151295e-08
4.29208044621e-09
3.18625837004e-08
7.89030591078e-09
2.90128059643e-08
3.63697524351e-09
3.30917772881e-08
1.13866647931e-09
2.45357822121e-08
3.43942211621e-09
4.96050904401e-08
5.98559015348e-09
3.75621280211e-08
2.04097996325e-10
5.28708483102e-08
6.49419518616e-08
1.50087374279e-08
1.02849812753e-08
1.33791468426e-08
1.31057549067e-08
9.6915800236e-09
1.85261636391e-08
5.06643939003e-09
1.45863891076e-08
6.45298130682e-08
5.25128919948e-08
2.76195491169e-08
1.8881554691e-08
2.87582396083e-08
5.52409059882e-08
1.08998761953e-07
2.89529793281e-08
2.10351307667e-08
6.46228240859e-08
7.40675786317e-09
5.06760373313e-08
1.13462153941e-08
3.74860693649e-08
7.60238780869e-09
4.13925468554e-08
1.18779374208e-07
2.22926600575e-07
2.01731683963e-07
1.28355218269e-07
6.01851771052e-08
7.07262582113e-08
3.08471317061e-08
2.37014932654e-08
2.74472699867e-08
2.57355220124e-09
4.00267119882e-08
2.07794789505e-08
2.26401071763e-08
1.04894174649e-07
8.1466118444e-09
2.39946854597e-08
1.32385547401e-08
6.98409086298e-08
5.56360323145e-08
7.54405477207e-08
8.38375861998e-07
1.03273605515e-07
2.15385070942e-07
9.0573086141e-08
1.18737445463e-07
3.24941708545e-09
2.35426889516e-08
4.14346727632e-08
1.64087250556e-07
1.91927179004e-07
2.53037990041e-07
2.70029018475e-07
9.12522195016e-08
8.24610918472e-08
5.75754335318e-07
3.8882748997e-09
9.08556654748e-07
4.7725732849e-09
4.47090824411e-07
2.69745928461e-07
8.34572106849e-08
5.76756933178e-07
7.56620049894e-08
1.42218363456e-08
1.80153501445e-07
2.43086949918e-07
2.08240747716e-07
6.06613929985e-07
2.76768343608e-07
1.91497735849e-07
5.41330304448e-07
2.66957375724e-08
2.02430506134e-07
1.93938365567e-07
1.84691424569e-07
3.69330704057e-08
1.1887499206e-07
1.93659273341e-07
1.11701293176e-07
3.66949834573e-08
1.19292518081e-07
1.12918981567e-07
1.94303361043e-07
1.9402467158e-07
2.02826854661e-07
2.8669417179e-08
1.83209964951e-07
5.40825947766e-07
1.91100035499e-07
2.68478847038e-07
6.0667557497e-07
2.05372357371e-07
1.7384136723e-07
1.75942991259e-07
2.07733952444e-07
1.85208614476e-07
1.13210183214e-07
1.27604004773e-07
6.42051332645e-08
1.61881806033e-07
1.00094868754e-07
3.3024417918e-08
1.13557077213e-07
4.96650017511e-07
5.11261094635e-07
2.56605796416e-07
2.13762510031e-08
1.26744533484e-07
1.42762846719e-07
1.15493468177e-07
1.5764809418e-07
1.54875206123e-07
5.17538795712e-09

