# vtk DataFile Version 3.0
File Name: Molecule/methanol/methanol_20.0-0.vtk
ASCII
DATASET UNSTRUCTURED_GRID
FIELD FieldData 1
TIME 1 1 double
0.0
POINTS 981 double
1.611 0.0 -0.359
1.594 -0.24 -0.357
1.475 0.0 -0.634
1.459 -0.224 -0.633
1.403 0.0 -0.933
1.387 -0.218 -0.931
1.543 -0.475 -0.352
1.412 -0.444 -0.628
1.341 -0.432 -0.927
1.459 -0.7 -0.344
1.333 -0.655 -0.62
1.265 -0.637 -0.919
1.345 -0.911 -0.332
1.226 -0.852 -0.61
1.16 -0.83 -0.909
1.201 -1.103 -0.318
1.092 -1.033 -0.596
1.03 -1.005 -0.896
1.032 -1.273 -0.301
0.934 -1.192 -0.58
0.876 -1.16 -0.88
0.841 -1.417 -0.282
0.754 -1.326 -0.563
0.701 -1.291 -0.863
0.631 -1.532 -0.261
0.558 -1.434 -0.543
0.51 -1.396 -0.844
0.407 -1.616 -0.239
0.348 -1.513 -0.522
0.306 -1.472 -0.824
0.173 -1.667 -0.216
0.129 -1.561 -0.5
0.093 -1.519 -0.802
-0.065 -1.684 -0.192
-0.094 -1.577 -0.478
-0.124 -1.534 -0.781
-0.304 -1.667 -0.168
-0.317 -1.561 -0.456
-0.341 -1.519 -0.759
-0.538 -1.616 -0.145
-0.536 -1.513 -0.434
-0.554 -1.472 -0.738
-0.762 -1.532 -0.123
-0.746 -1.434 -0.413
-0.758 -1.396 -0.718
-0.972 -1.417 -0.102
-0.942 -1.326 -0.394
-0.95 -1.291 -0.699
-1.163 -1.273 -0.083
-1.121 -1.192 -0.376
-1.124 -1.16 -0.681
-1.332 -1.103 -0.066
-1.28 -1.033 -0.36
-1.278 -1.005 -0.666
-1.475 -0.911 -0.051
-1.414 -0.852 -0.347
-1.408 -0.83 -0.653
-1.59 -0.7 -0.04
-1.521 -0.655 -0.336
-1.513 -0.637 -0.642
-1.674 -0.475 -0.032
-1.599 -0.444 -0.328
-1.589 -0.432 -0.635
-1.724 -0.24 -0.027
-1.647 -0.224 -0.323
-1.635 -0.218 -0.63
-1.742 -0.0 -0.025
-1.663 -0.0 -0.322
-1.651 -0.0 -0.629
-1.724 0.24 -0.027
-1.647 0.224 -0.323
-1.635 0.218 -0.63
-1.674 0.475 -0.032
-1.599 0.444 -0.328
-1.589 0.432 -0.635
-1.59 0.7 -0.04
-1.521 0.655 -0.336
-1.513 0.637 -0.642
-1.475 0.911 -0.051
-1.414 0.852 -0.347
-1.408 0.83 -0.653
-1.332 1.103 -0.066
-1.28 1.033 -0.36
-1.278 1.005 -0.666
-1.163 1.273 -0.083
-1.121 1.192 -0.376
-1.124 1.16 -0.681
-0.972 1.417 -0.102
-0.942 1.326 -0.394
-0.95 1.291 -0.699
-0.762 1.532 -0.123
-0.746 1.434 -0.413
-0.758 1.396 -0.718
-0.538 1.616 -0.145
-0.536 1.513 -0.434
-0.554 1.472 -0.738
-0.304 1.667 -0.168
-0.317 1.561 -0.456
-0.341 1.519 -0.759
-0.065 1.684 -0.192
-0.094 1.577 -0.478
-0.124 1.534 -0.781
0.173 1.667 -0.216
0.129 1.561 -0.5
0.093 1.519 -0.802
0.407 1.616 -0.239
0.348 1.513 -0.522
0.306 1.472 -0.824
0.631 1.532 -0.261
0.558 1.434 -0.543
0.51 1.396 -0.844
0.841 1.417 -0.282
0.754 1.326 -0.563
0.701 1.291 -0.863
1.032 1.273 -0.301
0.934 1.192 -0.58
0.876 1.16 -0.88
1.201 1.103 -0.318
1.092 1.033 -0.596
1.03 1.005 -0.896
1.345 0.911 -0.332
1.226 0.852 -0.61
1.16 0.83 -0.909
1.459 0.7 -0.344
1.333 0.655 -0.62
1.265 0.637 -0.919
1.543 0.475 -0.352
1.412 0.444 -0.628
1.341 0.432 -0.927
1.594 0.24 -0.357
1.459 0.224 -0.633
1.387 0.218 -0.931
1.907 0.0 0.656
1.893 0.228 0.656
1.893 0.114 0.853
1.893 -0.114 0.853
1.893 -0.228 0.656
1.893 -0.114 0.459
1.893 0.114 0.459
1.852 0.391 0.881
1.852 0.226 1.047
1.852 -0.0 1.107
1.852 -0.226 1.047
1.852 -0.391 0.881
1.852 -0.452 0.656
1.852 -0.391 0.43
1.852 -0.226 0.264
1.852 -0.0 0.204
1.852 0.226 0.264
1.852 0.391 0.43
1.852 0.452 0.656
1.784 0.629 0.885
1.784 0.513 1.086
1.784 0.335 1.235
1.784 0.116 1.315
1.784 -0.116 1.315
1.784 -0.335 1.235
1.784 -0.513 1.086
1.784 -0.629 0.885
1.784 -0.669 0.656
1.784 -0.629 0.427
1.784 -0.513 0.225
1.784 -0.335 0.076
1.784 -0.116 -0.004
1.784 0.116 -0.004
1.784 0.335 0.076
1.784 0.513 0.225
1.784 0.629 0.427
1.784 0.669 0.656
1.69 0.847 0.883
1.69 0.76 1.094
1.69 0.62 1.276
1.69 0.439 1.415
1.69 0.227 1.503
1.69 0.0 1.533
1.69 -0.227 1.503
1.69 -0.439 1.415
1.69 -0.62 1.276
1.69 -0.76 1.094
1.69 -0.847 0.883
1.69 -0.877 0.656
1.69 -0.847 0.429
1.69 -0.76 0.217
1.69 -0.62 0.035
1.69 -0.439 -0.104
1.69 -0.227 -0.192
1.69 -0.0 -0.222
1.69 0.227 -0.192
1.69 0.439 -0.104
1.69 0.62 0.035
1.69 0.76 0.217
1.69 0.847 0.429
1.69 0.877 0.656
1.572 1.049 0.879
1.572 0.98 1.092
1.572 0.867 1.286
1.572 0.717 1.452
1.572 0.536 1.584
1.572 0.331 1.675
1.572 0.112 1.722
1.572 -0.112 1.722
1.572 -0.331 1.675
1.572 -0.536 1.584
1.572 -0.717 1.452
1.572 -0.867 1.286
1.572 -0.98 1.092
1.572 -1.049 0.879
1.572 -1.072 0.656
1.572 -1.049 0.433
1.572 -0.98 0.219
1.572 -0.867 0.025
1.572 -0.717 -0.141
1.572 0.717 -0.141
1.572 0.867 0.025
1.572 0.98 0.219
1.572 1.049 0.433
1.572 1.072 0.656
1.432 1.232 0.879
1.432 1.172 1.095
1.432 1.074 1.298
1.432 0.943 1.479
1.432 0.78 1.634
1.432 0.593 1.758
1.432 0.387 1.846
1.432 0.168 1.896
1.432 -0.056 1.906
1.432 -0.279 1.876
1.432 -0.492 1.807
1.432 -0.69 1.7
1.432 -0.865 1.56
1.432 -1.013 1.391
1.432 -1.128 1.199
1.432 -1.207 0.989
1.432 -1.247 0.768
1.432 -1.247 0.543
1.432 -1.207 0.323
1.432 -1.128 0.113
1.432 -1.013 -0.08
1.432 0.943 -0.168
1.432 1.074 0.014
1.432 1.172 0.216
1.432 1.232 0.432
1.432 1.252 0.656
1.271 1.395 0.882
1.271 1.34 1.103
1.271 1.251 1.312
1.271 1.129 1.504
1.271 0.979 1.675
1.271 0.803 1.818
1.271 0.606 1.932
1.271 0.393 2.013
1.271 0.17 2.058
1.271 -0.057 2.067
1.271 -0.283 2.04
1.271 -0.501 1.977
1.271 -0.706 1.879
1.271 -0.894 1.75
1.271 -1.058 1.592
1.271 -1.194 1.411
1.271 -1.3 1.209
1.271 -1.372 0.994
1.271 -1.408 0.769
1.271 -1.408 0.542
1.271 -1.372 0.317
1.271 -1.3 0.102
1.271 -1.194 -0.1
1.271 1.129 -0.193
1.271 1.251 -0.001
1.271 1.34 0.208
1.271 1.395 0.429
1.271 1.413 0.656
1.091 1.537 0.882
1.091 1.488 1.103
1.091 1.407 1.315
1.091 1.296 1.513
1.091 1.157 1.692
1.091 0.994 1.85
1.091 0.809 1.982
1.091 0.608 2.085
1.091 0.393 2.158
1.091 0.17 2.2
1.091 -0.057 2.208
1.091 -0.282 2.183
1.091 -0.502 2.126
1.091 -0.71 2.037
1.091 -0.904 1.919
1.091 -1.078 1.774
1.091 -1.229 1.605
1.091 -1.355 1.416
1.091 -1.451 1.211
1.091 -1.516 0.993
1.091 -1.549 0.769
1.091 -1.549 0.542
1.091 -1.516 0.318
1.091 -1.451 0.101
1.091 -1.355 -0.105
1.091 1.296 -0.202
1.091 1.407 -0.004
1.091 1.488 0.208
1.091 1.537 0.429
1.091 1.553 0.656
0.896 1.656 0.883
0.896 1.609 1.107
0.896 1.533 1.321
0.896 1.428 1.524
0.896 1.296 1.71
0.896 1.141 1.877
0.896 0.964 2.021
0.896 0.769 2.14
0.896 0.56 2.23
0.896 0.34 2.292
0.896 0.114 2.323
0.896 -0.114 2.323
0.896 -0.34 2.292
0.896 -0.56 2.23
0.896 -0.769 2.14
0.896 -0.964 2.021
0.896 -1.141 1.877
0.896 -1.296 1.71
0.896 -1.428 1.524
0.896 -1.533 1.321
0.896 -1.609 1.107
0.896 -1.656 0.883
0.896 -1.671 0.656
0.896 -1.656 0.428
0.896 -1.609 0.205
0.896 -1.533 -0.01
0.896 1.533 -0.01
0.896 1.609 0.205
0.896 1.656 0.428
0.896 1.671 0.656
0.688 1.75 0.881
0.688 1.707 1.103
0.688 1.636 1.318
0.688 1.538 1.522
0.688 1.414 1.711
0.688 1.268 1.883
0.688 1.1 2.035
0.688 0.915 2.165
0.688 0.714 2.269
0.688 0.502 2.347
0.688 0.282 2.398
0.688 0.057 2.42
0.688 -0.169 2.412
0.688 -0.393 2.376
0.688 -0.61 2.312
0.688 -0.816 2.22
0.688 -1.01 2.103
0.688 -1.187 1.962
0.688 -1.344 1.8
0.688 -1.479 1.618
0.688 -1.59 1.421
0.688 -1.675 1.212
0.688 -1.732 0.993
0.688 -1.761 0.769
0.688 -1.761 0.543
0.688 -1.732 0.318
0.688 -1.675 0.099
0.688 -1.59 -0.11
0.688 1.636 -0.007
0.688 1.707 0.208
0.688 1.75 0.43
0.688 1.765 0.656
0.471 1.819 0.881
0.471 1.777 1.103
0.471 1.709 1.318
0.471 1.615 1.523
0.471 1.496 1.714
0.471 1.354 1.89
0.471 1.192 2.047
0.471 1.012 2.183
0.471 0.817 2.296
0.471 0.609 2.384
0.471 0.392 2.446
0.471 0.169 2.48
0.471 -0.056 2.487
0.471 -0.281 2.467
0.471 -0.502 2.418
0.471 -0.714 2.343
0.471 -0.916 2.243
0.471 -1.104 2.118
0.471 -1.276 1.971
0.471 -1.428 1.805
0.471 -1.558 1.62
0.471 -1.665 1.422
0.471 -1.746 1.211
0.471 -1.801 0.992
0.471 -1.829 0.768
0.471 -1.829 0.543
0.471 -1.801 0.319
0.471 -1.746 0.1
0.471 -1.665 -0.11
0.471 1.709 -0.006
0.471 1.777 0.209
0.471 1.819 0.43
0.471 1.833 0.656
0.247 1.86 0.881
0.247 1.819 1.104
0.247 1.752 1.32
0.247 1.659 1.526
0.247 1.542 1.72
0.247 1.403 1.898
0.247 1.243 2.058
0.247 1.064 2.198
0.247 0.871 2.315
0.247 0.664 2.408
0.247 0.448 2.475
0.247 0.226 2.516
0.247 -0.0 2.529
0.247 -0.226 2.516
0.247 -0.448 2.475
0.247 -0.664 2.408
0.247 -0.871 2.315
0.247 -1.064 2.198
0.247 -1.243 2.058
0.247 -1.403 1.898
0.247 -1.542 1.72
0.247 -1.659 1.526
0.247 -1.752 1.32
0.247 -1.819 1.104
0.247 -1.86 0.881
0.247 -1.874 0.656
0.247 -1.86 0.43
0.247 -1.819 0.207
0.247 -1.752 -0.009
0.247 1.752 -0.009
0.247 1.819 0.207
0.247 1.86 0.43
0.247 1.874 0.656
0.019 1.874 0.879
0.019 1.835 1.099
0.019 1.769 1.313
0.019 1.679 1.517
0.019 1.566 1.71
0.019 1.43 1.888
0.019 1.274 2.048
0.019 1.1 2.189
0.019 0.911 2.309
0.019 0.709 2.405
0.019 0.498 2.476
0.019 0.279 2.522
0.019 0.056 2.542
0.019 -0.168 2.536
0.019 -0.389 2.503
0.019 -0.605 2.444
0.019 -0.812 2.36
0.019 -1.008 2.252
0.019 -1.189 2.121
0.019 -1.354 1.97
0.019 -1.5 1.801
0.019 -1.625 1.615
0.019 -1.727 1.416
0.019 -1.805 1.207
0.019 -1.858 0.989
0.019 -1.884 0.767
0.019 -1.884 0.544
0.019 -1.858 0.322
0.019 -1.805 0.104
0.019 1.769 -0.002
0.019 1.835 0.212
0.019 1.874 0.432
0.019 1.888 0.656
-0.209 1.874 0.656
-0.209 1.86 0.881
-0.209 1.819 1.104
-0.209 1.752 1.32
-0.209 1.659 1.526
-0.209 1.542 1.72
-0.209 1.403 1.898
-0.209 1.243 2.058
-0.209 1.064 2.198
-0.209 0.871 2.315
-0.209 0.664 2.408
-0.209 0.448 2.475
-0.209 0.226 2.516
-0.209 -0.0 2.529
-0.209 -0.226 2.516
-0.209 -0.448 2.475
-0.209 -0.664 2.408
-0.209 -0.871 2.315
-0.209 -1.064 2.198
-0.209 -1.243 2.058
-0.209 -1.403 1.898
-0.209 -1.542 1.72
-0.209 -1.659 1.526
-0.209 -1.752 1.32
-0.209 -1.819 1.104
-0.209 -1.86 0.881
-0.209 -1.874 0.656
-0.209 -1.86 0.43
-0.209 -1.819 0.207
-0.209 -1.752 -0.009
-0.209 1.752 -0.009
-0.209 1.819 0.207
-0.209 1.86 0.43
-0.433 1.833 0.656
-0.433 1.819 0.881
-0.433 1.777 1.103
-0.433 1.709 1.318
-0.433 1.615 1.523
-0.433 1.496 1.714
-0.433 1.354 1.89
-0.433 1.192 2.047
-0.433 1.012 2.183
-0.433 0.817 2.296
-0.433 0.609 2.384
-0.433 0.392 2.446
-0.433 0.169 2.48
-0.433 -0.056 2.487
-0.433 -0.281 2.467
-0.433 -0.502 2.418
-0.433 -0.714 2.343
-0.433 -0.916 2.243
-0.433 -1.104 2.118
-0.433 -1.276 1.971
-0.433 -1.428 1.805
-0.433 -1.558 1.62
-0.433 -1.665 1.422
-0.433 -1.746 1.211
-0.433 -1.801 0.992
-0.433 -1.829 0.768
-0.433 -1.829 0.543
-0.433 -1.801 0.319
-0.433 -1.746 0.1
-0.433 1.709 -0.006
-0.433 1.777 0.209
[...]
CELL_DATA 1958
SCALARS cell_data_0 double
LOOKUP_TABLE default
5.72734563565e-10
8.77403360199e-11
3.28406103266e-10
6.20527250236e-10
8.39293986474e-11
1.79789167639e-11
2.6881330315e-10
4.08998440151e-10
1.33485343555e-10
8.80588536053e-11
7.68148122823e-11
1.95611423135e-10
1.54542211274e-10
1.29713993545e-11
1.67019062117e-11
1.4713612292e-10
2.0228289785e-11
1.04188341942e-11
7.67478730066e-11
1.31451672712e-10
3.725139514e-12
1.34286231826e-11
2.07948112906e-11
5.55916436066e-11
2.75942837342e-12
4.54602222564e-13
1.52126810065e-11
1.59713435127e-11
1.95413735143e-12
5.64688478112e-12
2.35726546797e-12
1.69234534797e-11
1.98930559435e-11
1.15678736604e-11
2.91977884035e-11
6.00076398306e-11
5.17976995237e-11
2.95552504046e-11
4.50431732206e-11
6.70768619363e-11
5.69944951357e-11
1.15740635426e-11
3.56389771383e-11
8.18310752388e-11
6.91944291097e-11
2.70571235815e-11
8.24426299034e-11
1.37054184202e-10
7.68740211338e-11
8.86823831831e-12
9.89274585233e-11
9.18616517915e-11
9.15296157034e-11
1.79838087324e-11
6.16370881451e-11
1.37058961094e-10
9.07791399822e-11
4.03321354924e-11
1.12216014165e-10
2.09467349779e-10
1.49692640088e-10
6.36601013872e-11
1.47040153822e-10
1.95870668935e-10
1.61493257917e-10
6.02324430761e-11
8.89465582584e-11
1.8683532527e-10
1.44059523837e-10
1.71294184798e-13
1.90614952364e-10
1.5993477521e-10
9.87084134484e-11
4.73653077649e-12
7.05277171984e-11
1.66118933494e-10
1.97738091022e-10
8.03004852166e-11
2.18390469848e-10
1.99584417155e-10
1.77633879546e-10
3.12111559742e-11
1.20230438144e-10
1.21866306027e-10
1.87119222452e-10
8.05712368911e-11
1.52287201584e-10
1.39531027533e-10
1.98435921091e-10
3.82383529402e-11
1.57158954227e-10
1.34385589022e-10
1.61463486724e-10
4.83528042602e-11
1.43326234258e-10
1.23633855932e-10
1.94954723904e-10
1.83159538396e-11
1.21697149887e-10
1.78180230509e-10
1.59729921281e-10
3.82572421311e-11
1.68867970797e-10
1.6664405502e-10
9.90570062234e-11
2.39847834792e-11
9.02701860437e-11
1.11434879311e-10
7.1182089363e-11
1.06387215739e-11
1.13669371202e-10
1.23719662457e-10
1.05030906418e-10
5.33594888387e-12
1.08790134174e-10
1.27749873113e-10
9.85268191127e-11
1.97333685083e-11
9.97719538888e-11
1.20123318709e-10
1.26855469543e-10
3.90374814933e-11
9.72103535668e-11
1.09698379373e-10
1.16716725616e-10
2.04804033373e-11
8.07636704528e-11
9.49309221631e-11
8.96693581324e-11
1.99515538343e-11
7.2058886829e-11
9.25784293313e-11
6.09877794819e-11
1.95846998468e-11
4.71156047415e-11
9.18430223845e-11
4.33077649629e-11
1.77257321997e-11
5.11542187871e-11
6.23583522522e-11
1.4367160615e-11
5.41078592276e-12
5.44520979598e-12
3.29428234652e-11
3.47058108694e-12
2.91337578802e-12
1.16733859582e-11
1.08811809175e-11
3.63091487498e-12
6.21573713609e-12
2.56042159297e-12
2.10108604874e-12
1.75852381186e-11
6.99927664247e-12
1.94054974309e-11
3.87310707393e-12
7.91195526435e-11
4.79519477847e-12
5.69119196164e-11
3.20645834277e-11
1.75526682548e-10
5.02150690431e-11
1.16545406019e-10
1.91380429746e-10
2.43739753477e-10
1.67516799179e-11
3.07166324634e-10
3.26520244629e-10
4.48291922601e-10
1.63916162064e-10
3.70919712134e-10
5.38695544534e-10
6.9676231818e-10
3.4901849478e-10
3.89718859716e-10
7.58865663205e-11
3.02828072735e-12
5.99808836687e-13
2.92908196694e-12
4.99843755099e-12
1.62001475772e-11
5.29265061088e-12
9.14025107056e-13
1.31027375639e-12
1.3439441351e-12
2.16136109277e-12
1.35484965082e-12
1.26867206092e-12
8.92848625548e-13
3.1115096343e-13
1.205955182e-11
3.40987331898e-12
2.90948377425e-11
3.17792713477e-11
8.75624966416e-12
1.45604685489e-12
1.28265643161e-11
1.02771847759e-11
1.3509918925e-12
1.62713324327e-12
6.53576322474e-13
9.22054808004e-13
1.15721048836e-12
3.10779620824e-13
1.80643598534e-12
1.18501651599e-12
3.91577395469e-13
7.55547704499e-13
6.99136186878e-13
1.29723204246e-12
1.32648060237e-12
6.88394882704e-13
2.31064898888e-13
3.43064758409e-12
8.22054107727e-13
1.67466834848e-11
9.52425732767e-12
3.72345604274e-11
6.11710703124e-11
1.40838274444e-10
3.78684689759e-11
8.26664107551e-11
3.36515834393e-12
1.48728385386e-11
1.22405715434e-13
3.86186256928e-12
5.14738208998e-13
8.97218123767e-13
1.53346723619e-13
1.54820366528e-12
1.09793371927e-12
6.36234226875e-13
4.17083361612e-13
1.56267568529e-12
1.47380944993e-12
1.18525864696e-12
1.36860085203e-12
8.76477268603e-13
1.10535180208e-12
6.49952233882e-13
1.85717901348e-12
3.07882768101e-12
3.57432431679e-13
1.80842444676e-12
1.26454784992e-12
3.13616481062e-12
1.58379128682e-12
1.9438160303e-12
9.78596769229e-13
2.95985599859e-12
1.08205285174e-12
8.68555486523e-12
1.13070305326e-11
3.12606664736e-11
3.03835595661e-11
9.46969852513e-11
2.41629271183e-11
2.83884941468e-10
6.32563332973e-11
3.09602918324e-10
2.8505151711e-11
1.38172666051e-10
4.42256794177e-12
1.03823881154e-11
4.76055492298e-12
4.12137123006e-12
1.19091330646e-12
1.91213002946e-12
1.42855938987e-12
2.09861573283e-12
6.70026549224e-13
1.99568528037e-12
1.13097918233e-12
5.8634957482e-14
5.39788965421e-13
9.50967617952e-13
6.92028840303e-14
9.1213483703e-13
8.50905578051e-14
4.16703106022e-13
1.5954973956e-12
2.37376044112e-12
1.59104930763e-12
1.01493629844e-12
2.09463634729e-12
1.5694337643e-13
6.84258684729e-13
7.27113163354e-14
1.61010176316e-12
1.1782634086e-13
6.74916178321e-13
9.18397710167e-13
2.1518486389e-12
3.01666555873e-12
9.49075778851e-13
3.47921301102e-13
3.6915739483e-13
4.83550200295e-12
8.12991056766e-13
8.47129778989e-12
2.1468971724e-11
5.40374565145e-11
2.39473116491e-11
7.83065330678e-11
1.7176783064e-10
1.98065559263e-10
3.1338082997e-11
1.46312027152e-11
3.81311359926e-12
5.68447785234e-13
8.69399036747e-13
1.45155283569e-12
1.14118930315e-12
1.81107561521e-12
2.68376573274e-12
8.5396546967e-13
2.51924054352e-13
5.30183919378e-13
6.82416559844e-13
6.95159110752e-13
4.45718042058e-13
1.18841846728e-13
4.00582199303e-13
9.01411949947e-13
6.6657076539e-13
4.85447523544e-14
6.69897950736e-13
7.2297865632e-13
4.74560713258e-13
7.33126908484e-13
1.57914620447e-12
6.66484924305e-13
7.07536748973e-13
3.65664256076e-14
1.95306726227e-13
5.14369019815e-13
6.09588603445e-13
6.4638393567e-13
1.50049303809e-12
8.01130223752e-13
6.4148262939e-13
1.24853635815e-12
1.53586286427e-15
5.43202383234e-13
1.03355758531e-12
4.48837199952e-12
2.88750991693e-12
2.44947990157e-12
9.10784867868e-14
3.25869968645e-11
1.66619219375e-11
6.99691197487e-11
1.45692337407e-10
2.22464046121e-11
2.36598531581e-12
1.70329328141e-12
6.65067739452e-13
4.18945298544e-13
1.94824800114e-12
2.1425007881e-13
1.92550112938e-12
2.13394324404e-12
4.99150540132e-13
3.68680108758e-13
1.6086559865e-13
5.82570293804e-13
3.52504908816e-13
1.92446873495e-13
3.15257685413e-13
3.2651524427e-13
1.00228283725e-12
7.45325067518e-13
3.80910016321e-13
1.37032125108e-13
5.75085656069e-13
6.11853000155e-13
1.31140691369e-12
2.47215094001e-12
3.08747092237e-12
9.66125473383e-14
2.06445798121e-12
4.7555356212e-13
1.1213591551e-12
6.76778330042e-13
1.2188438488e-12
9.33121047476e-13
1.31332116551e-12
8.62770754643e-13
1.00088162768e-12
1.89364618538e-13
6.60374128125e-13
9.44280947498e-14
2.35452991299e-12
7.09402295232e-13
5.62652136437e-13
7.8137120272e-13
1.08638495156e-12
2.00184683737e-12
3.46865116938e-12
3.41384171058e-12
1.24747779778e-11
5.30928369892e-13
2.93189139785e-11
4.6668838038e-11
6.95783282871e-11
4.21870085047e-12
1.04257860278e-13
1.97534685008e-13
1.13918635342e-14
1.04226584127e-12
1.49405601233e-12
3.49716166438e-13
1.1650245759e-12
1.82474785727e-12
4.84929662118e-13
2.76219493999e-13
1.93075342706e-13
5.49986471689e-13
4.23543285873e-13
1.37190206907e-13
1.52794443552e-13
1.47181426864e-13
2.10651355678e-13
2.38076706288e-13
1.31340504491e-13
1.33894362997e-13
2.52307825909e-13
7.92952683752e-14
7.18477598426e-13
5.86935153856e-13
6.74240984338e-13
1.77913555162e-12
5.98454245795e-13
8.8508536907e-13
3.83113159618e-13
1.0615989565e-12
1.5497090754e-12
7.68146832612e-14
1.51432971775e-13
1.44354127542e-12
2.21266363666e-13
4.29026486318e-13
7.21013063281e-14
9.67352410798e-13
5.85939693393e-13
1.11067255717e-12
6.77467968479e-13
1.28923049188e-12
1.50134795867e-12
1.32268933088e-12
1.11127601065e-12
1.20196979554e-12
3.29130020625e-13
1.25385507496e-12
4.90851251717e-12
2.7239159824e-12
6.22648860745e-12
4.20371094748e-12
1.0307743783e-11
1.02808696441e-11
1.63147933159e-11
4.3479251932e-12
3.0794683632e-12
5.11815740583e-13
8.28800468577e-13
1.87733712226e-12
1.32688939465e-12
4.64349418662e-13
1.96963725525e-12
1.44479769911e-12
4.39249885404e-13
3.75017517009e-13
1.25205669542e-13
1.12811707699e-13
8.36594392469e-14
3.89527228387e-14
2.39851802067e-13
1.89982741718e-13
8.71006450351e-14
1.12068982081e-13
2.094913167e-13
2.64746060695e-13
3.08066171649e-13
4.0792156165e-13
8.53284547375e-14
7.89448137475e-14
2.91911446306e-14
5.83512004759e-13
9.94120554844e-14
4.30776856742e-13
3.39047013067e-14
1.21815848677e-13
1.04295116503e-12
6.05700737649e-13
5.61996603967e-13
1.83034091448e-12
3.00237279585e-12
9.88604732314e-13
5.82885723024e-13
4.17556007651e-13
1.93862250766e-13
4.87456075302e-14
2.23382249784e-13
1.21110366556e-13
3.81454988438e-13
6.39719718855e-13
3.93260979013e-13
1.27850014567e-13
1.02895321675e-12
3.03816667445e-13
7.7032198773e-13
2.57330954638e-13
1.29146097475e-12
8.27292116311e-13
1.48750935385e-12
2.86662310577e-12
3.7106811605e-12
1.87205815655e-12
1.46537309776e-12
3.25269204331e-12
7.29833112656e-13
4.02979643085e-13
1.61416179203e-12
8.69325235736e-13
8.79815802537e-13
8.62679733753e-13
9.49593799611e-13
1.24863475266e-13
5.82854526099e-14
4.47620954752e-15
4.0641616848e-13
6.02396914702e-14
3.6316015296e-13
1.57158328167e-13
3.01205232437e-13
1.43730066739e-13
2.01087719448e-13
2.82819973028e-13
2.55897242663e-13
1.48151916214e-13
2.69812222153e-13
5.03767605528e-13
4.51486547499e-13
5.34247508763e-13
3.43563928715e-13
5.08850176409e-13
1.00210060854e-13
5.14169991107e-13
4.81746693052e-13
5.00496665194e-13
3.93358344273e-13
8.62222437499e-13
1.24325459065e-12
2.70970800581e-13
1.53305526689e-12
1.08620901517e-12
5.95763533208e-13
1.93504387843e-13
3.199145754e-13
1.20891954314e-12
1.52378008923e-13
1.52224303915e-13
7.38934806078e-14
3.77930353677e-13
2.3629206266e-13
2.93030528766e-14
3.53339501443e-13
3.12803798619e-13
7.30883830157e-13
1.92511493466e-13
4.69164920823e-13
1.54253634596e-13
1.27353217742e-12
4.22914179046e-13
2.03650255756e-12
4.24018684202e-13
6.93242925084e-13
7.86104094503e-15
1.50362835184e-12
3.7383447869e-13
7.26937473914e-14
9.0732793257e-13
1.12602100995e-12
3.81061036869e-13
1.77412844395e-14
7.86224904512e-13
9.27629771452e-13
1.29767181561e-13
6.89414628429e-13
7.40593941327e-14
2.49625735753e-13
1.54325821615e-13
2.4220429559e-13
3.00894729045e-13
2.04294594246e-13
1.17530509627e-14
1.93227074669e-13
1.79941544077e-13
7.12621288571e-14
7.03378555444e-14
1.35940312702e-13
1.71291377731e-13
1.06986786198e-13
1.68035682825e-13
1.7420506339e-14
8.78203085396e-14
1.58193593169e-13
2.37910455955e-14
1.68877272342e-14
7.39810307009e-14
3.40907923501e-13
1.24892911362e-13
1.52536102249e-13
2.16303677395e-14
4.43555518676e-13
4.24511812356e-13
4.53012454404e-13
1.94604812602e-13
4.67736818833e-13
5.40680629791e-13
2.42976986467e-13
3.01570611679e-13
4.17734947503e-13
4.33209092276e-13
7.87527248068e-14
2.41571746433e-13
2.24435800667e-13
7.82964545684e-14
3.46057519795e-13
2.45788325625e-13
4.60753638255e-13
1.35131966648e-13
3.96529707413e-13
8.40881184591e-13
2.84386875639e-14
3.22999110148e-13
4.9500895093e-13
6.21691507501e-14
5.13376480269e-14
1.14710284437e-12
2.47761754209e-12
8.11749674709e-12
2.75445774723e-12
3.55841448805e-13
1.89873307548e-13
6.24252683726e-14
5.52091992983e-14
2.71247502151e-13
7.93519548306e-13
6.66038685114e-13
7.10026265163e-14
8.78797596645e-14
2.3262471718e-13
6.01801802337e-13
1.70314058464e-14
4.21428257653e-13
1.97979777965e-13
3.95317926634e-13
1.3491895103e-13
2.63848708419e-13
2.29765043027e-14
4.3556166305e-13
1.16149975386e-13
2.32627463949e-13
1.49370614433e-14
2.27732516915e-13
4.70322810064e-14
2.15747569785e-13
9.61725954212e-14
1.65310704407e-13
1.23975212216e-13
2.56841717937e-13
2.86744319077e-13
2.33805936574e-13
2.33038926218e-13
2.70920564513e-13
3.48413790979e-13
3.13828409655e-13
2.82739586729e-13
2.17896636791e-13
4.11947628283e-13
3.14695092827e-13
6.24493383087e-13
2.10083095634e-13
8.0663872617e-13
3.53019124876e-13
5.02748711065e-13
3.39141778451e-14
2.07358224484e-13
2.03131313475e-13
3.7520962428e-13
2.44177623595e-13
1.6546379785e-13
3.12710069043e-13
1.97213506447e-13
4.09707770942e-13
1.12939693646e-13
5.22210169919e-14
2.60930503053e-13
5.31279922638e-14
1.38866585504e-13
4.05201953044e-13
3.23810248488e-13
8.92116693354e-12
1.10583179518e-11
2.03583746423e-11
1.4376304146e-11
7.92248622325e-13
6.37300516178e-13
6.32258051121e-14
1.84488385553e-13
1.5283423002e-13
6.70069949094e-13
9.14125638945e-13
8.59440476382e-14
3.87752392336e-13
3.92032786269e-13
3.00012976574e-15
2.74747523028e-13
5.47822083267e-13
1.91034009952e-13
4.49830930217e-13
3.55634157121e-13
3.22297928728e-13
9.56616787793e-14
5.48202396448e-13
7.96407286186e-15
6.17061965425e-13
8.98127312018e-14
5.82902770978e-13
3.45484346073e-14
4.74333321731e-13
5.72493168109e-14
4.29026523997e-13
1.00742382098e-13
3.60473920581e-13
2.93973352801e-14
2.36929793382e-13
6.67747459391e-14
3.74225213203e-13
4.57157018432e-14
2.03221062042e-13
7.45160416978e-14
9.72060845797e-14
7.51899460473e-14
1.70802231993e-13
1.25578437903e-13
1.52448087148e-13
1.22007422092e-13
1.35868408644e-13
2.37654728013e-13
7.62415763751e-14
2.65691381149e-14
1.42107138086e-13
1.39856018565e-13
2.5022098453e-13
4.21692247422e-14
4.57275728776e-14
3.76138147289e-14
7.17489295908e-14
1.13024954239e-13
2.84632277545e-13
2.26324779023e-14
3.46718985151e-14
6.57528703749e-15
7.40497598183e-13
2.23882813398e-12
1.46630823785e-13
7.55107495376e-12
1.56457684296e-11
2.83781252846e-11
1.28502679207e-12
1.554010909e-13
7.26453346819e-14
3.81182720977e-14
1.57801072187e-13
2.4070331743e-13
1.23518068895e-13
2.30485055909e-13
3.05850229183e-13
4.72526973827e-13
1.02404503866e-13
2.87931243675e-13
4.00428380972e-13
8.96469964618e-13
2.11630009902e-13
3.79948955778e-13
4.07748738527e-14
6.3278904845e-13
4.08354083751e-13
6.98556046892e-13
5.46301681712e-14
4.69342485577e-13
1.23194169911e-13
4.74969389807e-13
1.49217194677e-13
3.62100070447e-13
1.55263687319e-13
3.04743968259e-13
2.62783936111e-13
1.03777424789e-13
1.9195794289e-13
3.15543988002e-13
5.11040544636e-14
2.69894870281e-13
1.04110378511e-13
1.48495589191e-13
1.33026744423e-13
8.52015026173e-14
9.94354034049e-14
1.51763374288e-13
4.13256658675e-14
7.5420430237e-15
2.66991948954e-13
1.02126176555e-13
1.56608423948e-13
6.96622835592e-14
3.08651971959e-13
4.06500592796e-14
5.83385455019e-14
2.30204366333e-13
2.3324917534e-13
1.86108040144e-13
3.3995412041e-13
1.71203042107e-15
1.20909321108e-14
2.33632349004e-13
8.25870579469e-14
1.09682756091e-13
1.87384780658e-13
1.38662392642e-12
4.55045029339e-13
4.30999812846e-12
5.8450890834e-12
5.54718824967e-12
2.8002607435e-11
1.43368246964e-11
7.32291716439e-13
2.44571260007e-13
3.5268608945e-13
3.54543651818e-13
5.18653591731e-14
7.76281657401e-15
2.67188730987e-15
1.10045350009e-13
5.13079559818e-14
5.07021393484e-14
1.70357223233e-13
1.84876253326e-14
1.00157409928e-13
2.54433479905e-13
3.23383344831e-15
4.35509246521e-14
1.68458781004e-13
5.8290657806e-14
1.32291235274e-13
3.01153502613e-13
2.13554793364e-13
1.75068166273e-13
1.873187252e-13
2.65999712484e-13
2.31801007987e-13
1.88859927509e-13
1.17927806275e-13
2.29451843423e-13
4.82145116386e-15
2.16818945959e-13
1.89786823116e-13
2.89715999891e-13
8.45522373578e-14
1.72180609145e-13
1.36792008301e-13
2.74724988498e-13
1.05308029683e-13
1.20607505065e-13
2.13696800224e-14
2.12722786913e-13
5.90732023101e-15
9.48098412097e-14
1.10917250472e-13
3.99018460916e-13
1.88592479926e-13
1.13393603266e-13
1.19849491277e-13
2.80793023503e-13
1.13815600282e-13
2.23901494501e-13
5.206207879e-14
4.7037748485e-14
1.22297285965e-13
2.19250263994e-14
9.47840509598e-14
1.15668755909e-13
6.85145821648e-13
1.820321105e-13
6.24268374017e-13
3.72790079823e-13
1.06868389267e-11
2.68379353573e-11
3.88711067349e-11
9.10477094104e-12
5.08951491992e-12
9.37219075399e-13
1.46179111141e-12
4.40458927734e-13
7.57984562016e-14
8.63561821202e-14
3.60243832594e-14
5.17980704746e-14
1.26798535309e-13
2.21279944628e-13
2.3265620291e-13
1.12734618962e-13
3.65643753643e-14
2.52128186539e-14
1.251175695e-13
9.98286322104e-14
3.1816583069e-13
1.47778334483e-13
1.18360936691e-13
5.98224633295e-14
3.67956921186e-13
1.41913417628e-13
1.2893265215e-13
5.64282987601e-14
3.29237684012e-13
1.79398191817e-14
2.36985851333e-14
5.88203132386e-14
1.72831678743e-14
2.14811126594e-14
6.45722172307e-15
1.83506933908e-13
1.28646868276e-13
1.34714256625e-13
2.30891834254e-13
2.87393420502e-13
6.81573921502e-14
1.07648364669e-13
1.41657112989e-13
3.89797199294e-13
2.37755342464e-13
3.06099218096e-13
1.61766899556e-13
5.80591401156e-13
4.70043926683e-13
3.98484996713e-13
2.04204160085e-13
2.76163460973e-13
2.28793821252e-13
2.67026227966e-13
2.2839696729e-13
2.19604663415e-13
2.24782574506e-13
1.01864955004e-12
1.27048016999e-12
2.52286300569e-12
2.55548285035e-12
1.7321218562e-11
3.01076262329e-11
5.57973878933e-11
1.36106693622e-11
9.84452017073e-12
3.23905669035e-12
1.78486353789e-12
1.02885981833e-12
3.80073092203e-13
2.89806551699e-13
9.04087105413e-14
1.13155280305e-13
1.21734258429e-13
1.00216521689e-13
9.87524552119e-14
5.83690328845e-15
6.30478942904e-15
4.01083080643e-14
1.03073018842e-13
3.91651389687e-14
1.77683673862e-13
1.51763739392e-13
2.83362259998e-13
1.45218504321e-14
2.29601846764e-13
3.13721629677e-13
3.97467822237e-13
1.23816048359e-13
1.02571178324e-13
5.83191375551e-14
5.38644302433e-15
4.24288866296e-14
9.76018062098e-14
1.15492587385e-13
1.29485427453e-13
1.16188065108e-13
3.19863157588e-13
4.45779497885e-13
5.71843774948e-13
7.1359344541e-13
2.64230301196e-13
2.67328474006e-13
2.86624623548e-13
3.8728115793e-13
1.22603601878e-13
1.96028711058e-13
1.98575784083e-13
9.01881247029e-14
1.03998946556e-13
1.95406212539e-13
2.02968003213e-14
1.1708025159e-13
6.01780117395e-14
2.30835639234e-13
6.25426895494e-13
2.13376419582e-12
3.27639467305e-14
7.11080110303e-12
1.65797297853e-11
2.21248810031e-11
2.85661161601e-11
8.27018394284e-12
5.08103001683e-12
6.72214569431e-12
1.513197603e-13
2.93457975428e-12
1.43692511536e-12
5.07618699587e-13
2.64272242729e-13
1.12654058654e-13
9.99290539502e-14
1.80223860641e-14
9.47264653149e-15
2.9567360958e-15
2.62677991228e-14
1.1788127223e-13
1.34607899343e-13
8.25938011315e-14
4.3715185159e-14
8.8296645829e-14
1.36499128733e-13
1.03807772126e-14
1.740500825e-13
1.48655898316e-13
1.93171830214e-13
2.83569982043e-14
7.46231063447e-16
6.1513475485e-14
1.54949877785e-13
1.63094042239e-13
5.27421289325e-13
4.35869353049e-14
5.28047828466e-13
1.09327630738e-12
7.69062726181e-13
2.89829093758e-14
5.32725943768e-13
3.15064402348e-13
8.01236791641e-14
1.51240137472e-13
3.65908869847e-13
1.05981901401e-13
1.13640909316e-13
1.10967878e-13
2.34278020772e-14
1.24058816999e-13
1.51709911847e-13
4.60228713865e-13
5.83652309369e-13
1.81480148711e-12
1.28684833732e-12
3.54187432594e-12
1.01669102046e-11
3.18417523985e-11
2.27509843018e-11
2.23563815593e-11
1.20717380068e-11
2.50532795728e-12
4.76796407288e-12
6.84903824306e-13
9.02422543226e-13
3.2179352611e-13
4.8398488285e-14
5.62067322548e-14
1.11313337325e-14
4.95704862777e-14
7.77361446924e-14
6.0425246144e-14
1.38353032557e-14
5.80599511576e-14
1.87891222501e-14
5.63485518588e-14
1.25259783864e-13
1.40592187188e-13
2.12707889192e-14
3.52193419351e-13
1.81663678301e-13
1.25257444517e-13
5.21755708691e-13
7.69283198256e-13
1.52351521613e-13
1.16987722755e-13
5.33463748548e-13
4.87537253596e-13
1.11339300453e-13
9.23458761461e-14
4.99414528855e-13
1.44432758522e-13
4.18957413484e-14
1.4937613184e-13
3.10075824238e-14
1.84697219916e-13
1.45057507474e-13
1.06513990196e-13
1.64423775841e-14
2.47365734949e-14