# vtk DataFile Version 3.0
File Name: Molecule/methanol/methanol_3.0-2.vtk
ASCII
DATASET UNSTRUCTURED_GRID
FIELD FieldData 1
TIME 1 1 double
0.0
POINTS 151 double
1.611 0.0 -0.359
1.483 -0.645 -0.346
1.403 0.0 -0.933
1.287 -0.587 -0.921
1.12 -1.191 -0.31
0.956 -1.085 -0.888
0.576 -1.556 -0.256
0.46 -1.418 -0.839
-0.065 -1.684 -0.192
-0.124 -1.534 -0.781
-0.707 -1.556 -0.128
-0.708 -1.418 -0.723
-1.251 -1.191 -0.074
-1.204 -1.085 -0.673
-1.614 -0.645 -0.038
-1.535 -0.587 -0.64
-1.742 0.0 -0.025
-1.651 0.0 -0.629
-1.614 0.645 -0.038
-1.535 0.587 -0.64
-1.251 1.191 -0.074
-1.204 1.085 -0.673
-0.707 1.556 -0.128
-0.708 1.418 -0.723
-0.065 1.684 -0.192
-0.124 1.534 -0.781
0.576 1.556 -0.256
0.46 1.418 -0.839
1.12 1.191 -0.31
0.956 1.085 -0.888
1.483 0.645 -0.346
1.287 0.587 -0.921
1.907 0.0 0.656
1.814 0.583 0.656
1.814 0.292 1.161
1.814 -0.292 1.161
1.814 -0.583 0.656
1.814 -0.292 0.15
1.814 0.292 0.15
1.546 0.933 1.255
1.546 0.461 1.665
1.546 -0.158 1.754
1.546 -0.727 1.494
1.546 -1.065 0.968
1.546 -1.065 0.343
1.546 0.933 0.056
1.546 1.109 0.656
1.128 1.411 1.24
1.128 1.08 1.735
1.128 0.584 2.066
1.128 -0.0 2.183
1.128 -0.584 2.066
1.128 -1.08 1.735
1.128 -1.411 1.24
1.128 -1.527 0.656
1.128 -1.411 0.071
1.128 1.411 0.071
1.128 1.527 0.656
0.602 1.698 1.238
0.602 1.417 1.758
0.602 0.982 2.158
0.602 0.441 2.396
0.602 -0.148 2.445
0.602 -0.721 2.3
0.602 -1.216 1.976
0.602 -1.579 1.51
0.602 -1.771 0.951
0.602 -1.771 0.36
0.602 1.698 0.073
0.602 1.795 0.656
0.019 1.795 1.239
0.019 1.527 1.765
0.019 1.109 2.183
0.019 0.583 2.451
0.019 -0.0 2.543
0.019 -0.583 2.451
0.019 -1.109 2.183
0.019 -1.527 1.765
0.019 -1.795 1.239
0.019 -1.888 0.656
0.019 1.888 0.656
-0.564 1.795 0.656
-0.564 1.698 1.238
-0.564 1.417 1.758
-0.564 0.982 2.158
-0.564 0.441 2.396
-0.564 -0.148 2.445
-0.564 -0.721 2.3
-0.564 -1.216 1.976
-0.564 -1.579 1.51
-0.564 -1.771 0.951
-0.564 -1.771 0.36
-1.09 1.527 0.656
-1.09 1.411 1.24
-1.09 1.08 1.735
-1.09 0.584 2.066
-1.09 -0.0 2.183
-1.09 -0.584 2.066
-1.09 -1.08 1.735
-1.09 -1.411 1.24
-1.09 -1.527 0.656
-1.508 1.109 0.656
-1.508 0.933 1.255
-1.508 0.461 1.665
-1.508 -0.158 1.754
-1.508 -0.727 1.494
-1.508 -1.065 0.968
-1.508 -1.065 0.343
-1.776 0.583 0.656
-1.776 0.292 1.161
-1.776 -0.292 1.161
-1.776 -0.583 0.656
-1.868 -0.0 0.656
1.298 0.294 -1.246
0.966 -0.154 -1.812
0.966 0.451 -1.725
0.966 0.913 -1.324
0.966 -0.711 -1.557
0.468 -1.278 -1.353
0.468 -0.884 -1.846
0.468 -0.316 -2.12
0.468 0.316 -2.12
0.468 0.884 -1.846
0.468 1.278 -1.353
-0.12 -1.418 -1.325
-0.12 -1.085 -1.823
-0.12 -0.587 -2.155
-0.12 0.0 -2.272
-0.12 0.587 -2.155
-0.12 1.085 -1.823
-0.12 1.418 -1.325
-0.707 -1.278 -1.353
-0.707 -0.884 -1.846
-0.707 -0.316 -2.12
-0.707 0.316 -2.12
-0.707 0.884 -1.846
-0.707 1.278 -1.353
-1.205 -1.041 -1.043
-1.205 -0.711 -1.557
-1.205 -0.154 -1.812
-1.205 0.451 -1.725
-1.205 0.913 -1.324
-1.538 -0.294 -1.246
-1.538 0.294 -1.246
1.298 -0.294 -1.246
1.132 -0.5025 -1.4015
1.132 -0.224 -1.529
0.966 -0.4325 -1.6845
-1.3715 0.6035 -1.285
-1.37 0.75 -0.982
-1.5365 0.4405 -0.943

CELLS 298 1192
3 0 1 2
3 2 1 3
3 1 4 3
3 3 4 5
3 4 6 5
3 5 6 7
3 6 8 7
3 7 8 9
3 8 10 9
3 9 10 11
3 10 12 11
3 11 12 13
3 12 14 13
3 13 14 15
3 14 16 15
3 15 16 17
3 16 18 17
3 17 18 19
3 18 20 19
3 19 20 21
3 20 22 21
3 21 22 23
3 22 24 23
3 23 24 25
3 24 26 25
3 25 26 27
3 26 28 27
3 27 28 29
3 28 30 29
3 29 30 31
3 30 0 31
3 31 0 2
3 32 33 34
3 32 34 35
3 32 35 36
3 32 36 37
3 32 37 38
3 32 38 33
3 34 33 39
3 34 39 40
3 34 40 41
3 35 34 41
3 35 41 42
3 35 42 43
3 36 35 43
3 36 43 44
3 37 36 44
3 33 38 45
3 33 45 46
3 33 46 39
3 39 46 47
3 39 47 48
3 40 39 48
3 40 48 49
3 40 49 50
3 41 40 50
3 41 50 51
3 42 41 51
3 42 51 52
3 42 52 53
3 43 42 53
3 43 53 54
3 44 43 54
3 44 54 55
3 46 45 56
3 46 56 57
3 46 57 47
3 47 57 58
3 47 58 59
3 48 47 59
3 48 59 60
3 49 48 60
3 49 60 61
3 50 49 61
3 50 61 62
3 51 50 62
3 51 62 63
3 51 63 64
3 52 51 64
3 52 64 65
3 53 52 65
3 53 65 66
3 54 53 66
3 54 66 67
3 55 54 67
3 57 56 68
3 57 68 69
3 57 69 58
3 58 69 70
3 58 70 71
3 59 58 71
3 59 71 72
3 60 59 72
3 60 72 73
3 61 60 73
3 61 73 74
3 62 61 74
3 62 74 75
3 63 62 75
3 63 75 76
3 64 63 76
3 64 76 77
3 65 64 77
3 65 77 78
3 66 65 78
3 66 78 79
3 67 66 79
3 69 80 70
3 70 80 81
3 70 81 82
3 71 70 82
3 71 82 83
3 72 71 83
3 72 83 84
3 73 72 84
3 73 84 85
3 74 73 85
3 74 85 86
3 75 74 86
3 75 86 87
3 76 75 87
3 76 87 88
3 77 76 88
3 77 88 89
3 78 77 89
3 78 89 90
3 79 78 90
3 79 90 91
3 82 81 92
3 82 92 93
3 83 82 93
3 83 93 94
3 84 83 94
3 84 94 95
3 85 84 95
3 85 95 96
3 86 85 96
3 86 96 97
3 87 86 97
3 88 87 97
3 88 97 98
3 89 88 98
3 89 98 99
3 90 89 99
3 90 99 100
3 91 90 100
3 93 92 101
3 93 101 102
3 94 93 102
3 94 102 103
3 95 94 103
3 96 95 103
3 96 103 104
3 97 96 104
3 97 104 105
3 98 97 105
3 99 98 105
3 99 105 106
3 100 99 106
3 100 106 107
3 102 101 108
3 102 108 109
3 103 102 109
3 104 103 109
3 104 109 110
3 105 104 110
3 106 105 110
3 106 110 111
3 107 106 111
3 109 108 112
3 110 109 112
3 111 110 112
3 111 112 16
3 111 16 14
3 111 14 107
3 107 14 12
3 107 12 100
3 100 12 10
3 100 10 91
3 91 10 8
3 91 8 79
3 79 8 67
3 67 8 6
3 67 6 55
3 55 6 4
3 55 4 44
3 44 4 1
3 44 1 37
3 37 1 0
3 37 0 38
3 38 0 30
3 38 30 45
3 45 30 28
3 45 28 56
3 56 28 26
3 56 26 68
3 68 26 24
3 68 24 80
3 68 80 69
3 80 24 81
3 81 24 22
3 81 22 92
3 92 22 20
3 92 20 101
3 101 20 18
3 101 18 108
3 108 18 16
3 108 16 112
3 113 114 115
3 113 115 116
3 117 118 119
3 117 119 120
3 114 120 121
3 115 114 121
3 115 121 122
3 116 115 122
3 116 122 123
3 118 124 125
3 119 118 125
3 119 125 126
3 120 119 126
3 120 126 127
3 121 120 127
3 121 127 128
3 122 121 128
3 122 128 129
3 123 122 129
3 123 129 130
3 125 124 131
3 125 131 132
3 126 125 132
3 126 132 133
3 127 126 133
3 127 133 134
3 128 127 134
3 128 134 135
3 129 128 135
3 129 135 136
3 130 129 136
3 131 137 138
3 132 131 138
3 133 132 138
3 133 138 139
3 134 133 139
3 134 139 140
3 135 134 140
3 135 140 141
3 136 135 141
3 138 137 142
3 139 138 142
3 139 142 143
3 140 139 143
3 141 21 136
3 136 21 23
3 136 23 130
3 130 23 25
3 130 25 27
3 130 27 123
3 123 27 29
3 123 29 116
3 116 29 31
3 116 31 113
3 113 31 2
3 113 2 144
3 144 2 3
3 117 3 5
3 117 5 118
3 118 5 7
3 118 7 124
3 124 7 9
3 124 9 11
3 124 11 131
3 131 11 137
3 137 11 13
3 137 13 15
3 137 15 142
3 142 15 17
3 142 17 143
3 144 145 146
3 145 147 146
3 145 117 147
3 146 147 114
3 144 146 113
3 113 146 114
3 114 147 120
3 147 117 120
3 117 145 3
3 144 145 3
3 143 148 140
3 141 148 140
3 141 148 149
3 148 150 149
3 148 143 150
3 149 150 19
3 141 149 21
3 149 19 21
3 19 150 17
3 143 150 17

CELL_TYPES 298
5
5
5
5
5
5
5
5
5
5
5
5
5
5
5
5
5
5
5
5
5
5
5
5
5
5
5
5
5
5
5
5
5
5
5
5
5
5
5
5
5
5
5
5
5
5
5
5
5
5
5
5
5
5
5
5
5
5
5
5
5
5
5
5
5
5
5
5
5
5
5
5
5
5
5
5
5
5
5
5
5
5
5
5
5
5
5
5
5
5
5
5
5
5
5
5
5
5
5
5
5
5
5
5
5
5
5
5
5
5
5
5
5
5
5
5
5
5
5
5
5
5
5
5
5
5
5
5
5
5
5
5
5
5
5
5
5
5
5
5
5
5
5
5
5
5
5
5
5
5
5
5
5
5
5
5
5
5
5
5
5
5
5
5
5
5
5
5
5
5
5
5
5
5
5
5
5
5
5
5
5
5
5
5
5
5
5
5
5
5
5
5
5
5
5
5
5
5
5
5
5
5
5
5
5
5
5
5
5
5
5
5
5
5
5
5
5
5
5
5
5
5
5
5
5
5
5
5
5
5
5
5
5
5
5
5
5
5
5
5
5
5
5
5
5
5
5
5
5
5
5
5
5
5
5
5
5
5
5
5
5
5
5
5
5
5
5
5
5
5
5
5
5
5
5
5
5
5
5
5
5
5
5
5
5
5
5
5
5
5
5
5
5
5
5
5
5
5

CELL_DATA 298
SCALARS cell_data_0 double
LOOKUP_TABLE default
3.82638523311e-06
2.33387268855e-06
1.28368435992e-05
1.23632627368e-06
1.2390793643e-09
2.8960350502e-08
4.00554499636e-08
8.23215902617e-09
5.37228257624e-08
1.21184154604e-07
1.34207163752e-07
8.82828510288e-08
1.14227225544e-07
1.12969902247e-07
1.71018262973e-07
1.81968502322e-07
2.07505947838e-07
1.52588598118e-07
1.31604103224e-07
1.54572690222e-07
2.16860613376e-07
2.38574829811e-07
2.27333025642e-07
1.94636403854e-07
1.97404766601e-07
1.54031859308e-07
1.72203564227e-07
2.26554471687e-07
2.76018435147e-08
7.35984912358e-07
5.15379536635e-07
2.05183832841e-06
2.28819141085e-09
1.55511145855e-09
4.64521680505e-09
1.00016090963e-08
8.90917742301e-09
1.10368511442e-09
1.53150120482e-08
1.83466285017e-08
8.40786305409e-09
1.06723434687e-08
1.83946767333e-08
1.16923730928e-08
4.91900454467e-10
2.1450306469e-08
2.7529769104e-08
3.50716844458e-08
1.42821363784e-08
3.02928471773e-08
6.63720858249e-08
6.20824395736e-08
3.58937249597e-08
2.45650774996e-08
1.98816118508e-09
1.61577259867e-08
2.74952022769e-08
4.71886592778e-08
5.17435568575e-08
6.59914953371e-08
4.0228882862e-08
2.35033954765e-08
2.10777277338e-08
7.48253672433e-09
9.83047413628e-09
5.99042814681e-08
7.49695660028e-08
1.03067208593e-07
9.38123100782e-08
7.41726029833e-08
5.82562908917e-08
3.79452105615e-08
2.42880863884e-08
3.7251386424e-09
9.72570238558e-09
3.34146844107e-08
4.53859996039e-08
6.88641413289e-08
7.45847687079e-08
8.83710765958e-08
8.2879169851e-08
8.43506378714e-08
5.90148575997e-08
3.01452346762e-08
3.85081817153e-09
9.93115078172e-08
1.23906755802e-07
1.20381836018e-07
1.44306674554e-07
1.2265917252e-07
1.0036807384e-07
7.91397013853e-08
6.09084841899e-08
3.92423909614e-08
2.29885388468e-08
2.65312204953e-09
1.26749632869e-08
3.32372831481e-08
4.627041175e-08
6.72685692488e-08
7.92658245866e-08
1.00078934307e-07
1.04830052814e-07
1.15346312444e-07
1.06661700831e-07
7.34480275681e-08
3.28837396924e-08
1.63907802985e-07
1.09708118883e-07
4.93693487123e-08
7.81872403825e-08
3.15109058864e-08
5.17703848547e-08
1.86959283882e-08
2.47414609137e-08
5.26966009764e-09
2.37682678445e-10
6.25093881682e-09
2.36904204088e-08
1.89784355663e-08
4.91129913596e-08
3.22837747878e-08
7.29078604225e-08
4.35378996856e-08
8.67614709618e-08
4.4120244963e-08
3.86157750584e-08
9.61628833403e-09
1.19879794521e-08
5.39875249552e-09
3.44669125597e-09
3.10889317254e-09
3.54006126672e-09
1.79194790576e-11
1.82334526428e-09
1.41975548377e-10
2.42170008449e-09
4.11348728272e-11
8.57175093183e-13
2.73267380675e-10
7.53198733565e-10
2.27837588426e-09
1.24008276415e-09
2.28500273575e-09
5.59536787363e-09
8.24239829267e-09
1.35374110534e-08
6.65280069581e-09
3.70908111889e-09
3.37616521066e-09
3.28359534885e-09
2.5665846272e-10
8.54188051308e-10
5.21240185406e-09
2.80581575743e-09
2.36005679712e-09
2.15890812703e-09
4.28909903936e-09
7.04509022634e-09
2.01473292048e-08
1.4260531858e-08
7.98805646308e-09
5.10658960858e-09
5.17051905217e-09
4.00546271882e-09
5.71359666245e-09
4.146452142e-09
8.44936076553e-09
1.36360000008e-08
1.11517546344e-08
5.63536157758e-09
1.07276813956e-08
1.25530093436e-07
1.61932283919e-07
1.09166145084e-07
2.84210101206e-08
1.10407365579e-07
1.9190965978e-07
9.03946916753e-08
4.49850016159e-08
9.75175857887e-08
1.51215413636e-07
1.38275674807e-07
6.84878292933e-08
5.50965336608e-08
9.72052746694e-09
1.14449085996e-05
1.32102611425e-05
8.57648257575e-06
4.39221687416e-09
3.33891886439e-08
1.72132390018e-08
1.71544934606e-08
1.95877126762e-09
2.86491531483e-08
3.39552132967e-08
8.49110981242e-09
1.57324568005e-07
1.59703517265e-07
1.30683929071e-07
1.32379346512e-07
1.39237151108e-07
1.50677559094e-07
1.51425262695e-07
1.59221969658e-07
1.53875980106e-07
1.42477514568e-07
1.26566959706e-07
1.72600555435e-05
6.54581852545e-06
4.68337261324e-06
3.17745672634e-06
6.20608338277e-08
2.78532527049e-06
5.34522628756e-07
6.24119243034e-07
3.45434473584e-06
5.07155777202e-07
2.94571010492e-07
1.77004050417e-07
7.7300271836e-08
2.05372527785e-07
5.17597711727e-07
6.9436307407e-07
1.02148869554e-06
9.3713016802e-07
1.94585886019e-06
2.39446564506e-06
3.84753950524e-07
3.21686466388e-07
2.46667719218e-07
1.18259535592e-07
7.07560546991e-08
1.86974886997e-07
4.209195194e-07
3.95805264296e-07
5.44246217498e-07
7.45798010334e-07
1.50386367507e-06
4.88192301963e-08
9.48860376254e-08
1.37693015123e-07
6.86123638814e-08
1.05955570726e-07
5.08507937099e-08
2.09043306802e-07
1.59759351148e-07
8.8712067449e-07
6.91291551832e-08
1.19956247532e-07
3.07011159945e-05
2.90833329474e-05
6.97403372365e-07
3.75932372568e-07
1.42297873221e-06
7.32392471653e-07
7.85821920068e-07
1.89091478393e-06
9.82698408503e-07
1.93389572947e-06
3.55673607824e-07
2.83724501694e-06
5.71335592491e-06
1.00987263066e-05
3.65624059274e-06
2.39268813068e-06
4.91705120294e-06
6.97617109201e-08
3.5566268523e-07
6.06245602421e-08
2.09370126624e-07
3.20450383156e-07
8.91203502421e-08
1.53923471567e-07
1.51282788532e-07
9.76722767399e-08
3.79717748756e-08
2.86682562543e-05
3.22544227946e-06
1.19388256864e-06
1.14373274948e-06
5.50392796291e-07
8.61064728631e-06
1.44200766054e-05
8.72791033154e-07
1.17947638093e-06
7.615832719e-07
2.98701684444e-06
1.37325530976e-05
2.74646354913e-07
4.99365925755e-08
2.78337986727e-09
8.81104104378e-06
5.17332797451e-08
1.79230577296e-07
4.85061537924e-08
7.6281324802e-08
1.41136727496e-05

