# vtk DataFile Version 3.0
File Name: Molecule/methanol/methanol_1.0-5.vtk
ASCII
DATASET UNSTRUCTURED_GRID
FIELD FieldData 1
TIME 1 1 double
0.0
POINTS 66 double
1.611 0.0 -0.359
1.12 -1.191 -0.31
1.403 0.0 -0.933
-0.065 -1.684 -0.192
0.956 -1.085 -0.888
-0.124 -1.534 -0.781
-1.251 -1.191 -0.074
-1.204 -1.085 -0.673
-1.742 0.0 -0.025
-1.651 0.0 -0.629
-1.251 1.191 -0.074
-1.204 1.085 -0.673
-0.065 1.684 -0.192
-0.124 1.534 -0.781
1.12 1.191 -0.31
0.956 1.085 -0.888
1.907 0.0 0.656
1.546 1.109 0.656
1.546 0.555 1.616
1.546 -0.555 1.616
1.546 -1.109 0.656
0.602 1.452 1.711
0.602 0.555 2.363
0.602 -0.555 2.363
0.602 -1.452 1.711
0.602 -1.795 0.656
0.602 1.795 0.656
-0.564 1.452 1.711
-0.564 0.555 2.363
-0.564 -0.555 2.363
-0.564 -1.452 1.711
-0.564 -1.795 0.656
-0.564 1.795 0.656
-1.508 1.109 0.656
-1.508 0.555 1.616
-1.508 -0.555 1.616
-1.508 -1.109 0.656
-1.868 -0.0 0.656
-0.12 0.267 -2.249
-0.12 -0.768 -2.067
-1.205 -0.543 -1.677
-1.205 0.543 -1.677
-0.12 1.176 -1.724
1.1795 -0.5425 -0.9105
0.961 -0.814 -1.2825
1.1795 0.5425 -0.9105
0.961 0.814 -1.2825
0.966 0.543 -1.677
1.1845 0.2715 -1.305
1.1845 -0.2715 -1.305
0.423 -0.138 -1.963
0.966 -0.543 -1.677
0.423 0.405 -1.963
0.966 0.2715 -1.677
0.6945 0.474 -1.82
0.6945 0.2025 -1.82
0.966 0.0 -1.677
0.6945 -0.069 -1.82
0.423 0.1335 -1.963
1.07525 -0.40725 -1.491
0.9635 -0.6785 -1.47975
1.07275 -0.54275 -1.29375
1.182 -0.407 -1.10775
1.07025 -0.67825 -1.0965
0.966 -0.2715 -1.677
1.07525 -0.13575 -1.491

CELLS 128 512
3 0 1 2
3 1 3 4
3 4 3 5
3 3 6 5
3 5 6 7
3 6 8 7
3 7 8 9
3 8 10 9
3 9 10 11
3 10 12 11
3 11 12 13
3 12 14 13
3 13 14 15
3 14 0 15
3 16 17 18
3 16 18 19
3 16 19 20
3 18 17 21
3 18 21 22
3 18 22 23
3 19 18 23
3 19 23 24
3 20 19 24
3 20 24 25
3 17 26 21
3 21 26 27
3 21 27 28
3 22 21 28
3 22 28 29
3 23 22 29
3 24 23 29
3 24 29 30
3 24 30 31
3 25 24 31
3 26 32 27
3 27 32 33
3 27 33 34
3 28 27 34
3 28 34 35
3 29 28 35
3 30 29 35
3 30 35 36
3 31 30 36
3 34 33 37
3 35 34 37
3 36 35 37
3 36 37 8
3 36 8 6
3 36 6 31
3 31 6 3
3 31 3 25
3 25 3 1
3 25 1 20
3 20 1 0
3 20 0 16
3 16 0 17
3 17 0 14
3 17 14 26
3 26 14 12
3 26 12 32
3 32 12 10
3 32 10 33
3 33 10 8
3 33 8 37
3 38 39 40
3 38 40 41
3 42 38 41
3 42 41 11
3 42 11 13
3 42 13 15
3 39 4 5
3 39 5 40
3 40 5 7
3 40 7 9
3 40 9 41
3 41 9 11
3 4 43 1
3 1 43 2
3 44 4 39
3 2 45 0
3 0 45 15
3 15 46 42
3 42 46 47
3 47 46 48
3 46 45 48
3 46 15 45
3 48 45 2
3 47 48 49
3 49 48 2
3 38 50 39
3 39 50 51
3 52 38 42
3 47 53 54
3 53 55 54
3 53 56 55
3 54 55 52
3 56 57 55
3 57 58 55
3 57 50 58
3 55 58 52
3 50 57 51
3 52 58 38
3 58 50 38
3 47 54 42
3 54 52 42
3 49 53 47
3 51 59 60
3 59 61 60
3 59 49 61
3 60 61 44
3 49 62 61
3 62 63 61
3 62 43 63
3 61 63 44
3 43 62 2
3 2 62 49
3 44 63 4
3 63 43 4
3 51 60 39
3 60 44 39
3 51 64 59
3 64 65 59
3 64 56 65
3 59 65 49
3 56 64 57
3 57 64 51
3 49 65 53
3 53 65 56

CELL_TYPES 128
5
5
5
5
5
5
5
5
5
5
5
5
5
5
5
5
5
5
5
5
5
5
5
5
5
5
5
5
5
5
5
5
5
5
5
5
5
5
5
5
5
5
5
5
5
5
5
5
5
5
5
5
5
5
5
5
5
5
5
5
5
5
5
5
5
5
5
5
5
5
5
5
5
5
5
5
5
5
5
5
5
5
5
5
5
5
5
5
5
5
5
5
5
5
5
5
5
5
5
5
5
5
5
5
5
5
5
5
5
5
5
5
5
5
5
5
5
5
5
5
5
5
5
5
5
5
5
5

CELL_DATA 128
SCALARS cell_data_0 double
LOOKUP_TABLE default
4.03197859775e-06
1.57833706307e-07
1.15656259512e-07
2.91856757036e-07
1.04448528243e-07
8.18057926932e-08
2.09486318349e-07
3.59911444238e-07
9.28305860376e-08
5.89989367143e-07
3.33575986427e-07
8.93246326023e-07
1.14990108277e-06
2.9405940571e-07
6.86972200018e-09
3.14491743815e-09
9.66698044159e-09
2.53085231495e-11
1.5088391171e-08
1.09816441843e-09
6.4597612548e-09
5.79814461187e-09
7.60611842837e-09
1.72409124668e-08
4.79064685478e-09
2.37537778891e-09
2.95773005454e-09
9.11050012618e-10
9.71295876779e-09
1.02066094767e-08
8.83637700903e-10
3.62188490759e-09
1.40709846391e-09
4.86441946421e-08
2.67586251824e-08
6.70644792141e-08
1.25131404292e-08
1.65962364559e-08
3.19890649652e-08
9.86276137035e-09
6.7659736003e-09
2.96426064282e-09
5.72778442429e-08
4.54777157976e-08
2.1043146965e-08
4.80870576597e-08
8.95667799612e-08
4.05470180365e-07
1.74531130373e-07
3.24051577662e-07
2.20720891285e-07
3.17963771642e-07
2.28479899689e-07
4.99672572617e-07
5.09900313184e-08
1.75107462807e-08
2.66681558776e-07
7.66669252718e-08
6.95307652772e-08
2.19020622559e-08
3.98809479314e-07
4.19164045031e-08
4.213990961e-07
9.200411614e-08
4.06079942525e-07
4.88404081631e-07
2.77734710667e-07
3.2801572716e-07
7.43956093386e-08
8.93894846812e-07
2.37455313504e-06
1.02143779924e-06
1.36109756554e-07
1.68192703316e-07
2.96353050107e-07
4.85662046443e-08
4.21215451279e-07
2.01540869084e-06
1.55409184412e-06
3.9138100109e-07
1.26246436565e-06
1.80432476864e-06
3.2843886036e-06
2.35471588119e-06
1.17581275219e-07
7.77825843449e-07
1.52091820646e-06
4.46935111045e-06
7.15244013878e-07
5.45419858557e-07
1.98929552216e-06
4.10510170984e-07
2.63576877891e-08
1.62335491406e-07
2.44876152913e-07
3.14287167046e-07
1.75667074646e-07
7.8341502538e-09
6.05187389872e-07
3.56276015239e-07
6.39586582196e-07
6.59713775923e-08
1.23232841619e-07
4.31321768405e-07
3.78068211181e-07
4.98630055828e-06
8.12386899498e-09
2.76595752132e-07
3.43088657908e-07
1.36726063706e-08
2.50551543689e-07
1.05854549002e-07
2.37769512535e-07
6.21383318635e-08
5.25302091276e-07
6.05949195792e-07
1.47884885684e-07
3.15361214248e-07
1.27727220429e-06
9.13953457896e-07
1.89242301913e-07
5.92373214128e-07
2.06083310909e-07
1.00866971183e-06
1.19628978126e-07
1.1502904987e-07
1.60215393154e-06
3.72701492196e-07

