# vtk DataFile Version 3.0
File Name: Molecule/methanol/methanol_8.0-1.vtk
ASCII
DATASET UNSTRUCTURED_GRID
FIELD FieldData 1
TIME 1 1 double
0.0
POINTS 406 double
1.611 0.0 -0.359
1.569 -0.375 -0.355
1.403 0.0 -0.933
1.365 -0.341 -0.929
1.445 -0.731 -0.342
1.252 -0.666 -0.918
1.245 -1.05 -0.322
0.98 -1.317 -0.296
1.07 -0.957 -0.9
0.828 -1.2 -0.876
0.662 -1.518 -0.264
0.538 -1.382 -0.847
0.308 -1.642 -0.229
0.216 -1.496 -0.815
-0.065 -1.684 -0.192
-0.124 -1.534 -0.781
-0.438 -1.642 -0.155
-0.464 -1.496 -0.747
-0.793 -1.518 -0.119
-0.787 -1.382 -0.715
-1.11 -1.317 -0.088
-1.076 -1.2 -0.686
-1.376 -1.05 -0.061
-1.318 -0.957 -0.662
-1.576 -0.731 -0.042
-1.5 -0.666 -0.644
-1.7 -0.375 -0.029
-1.613 -0.341 -0.633
-1.742 0.0 -0.025
-1.651 0.0 -0.629
-1.7 0.375 -0.029
-1.613 0.341 -0.633
-1.576 0.731 -0.042
-1.5 0.666 -0.644
-1.376 1.05 -0.061
-1.318 0.957 -0.662
-1.11 1.317 -0.088
-1.076 1.2 -0.686
-0.793 1.518 -0.119
-0.787 1.382 -0.715
-0.438 1.642 -0.155
-0.464 1.496 -0.747
-0.065 1.684 -0.192
-0.124 1.534 -0.781
0.308 1.642 -0.229
0.216 1.496 -0.815
0.662 1.518 -0.264
0.538 1.382 -0.847
0.98 1.317 -0.296
0.828 1.2 -0.876
1.245 1.05 -0.322
1.07 0.957 -0.9
1.445 0.731 -0.342
1.252 0.666 -0.918
1.569 0.375 -0.355
1.365 0.341 -0.929
1.907 0.0 0.656
1.87 0.368 0.656
1.87 0.184 0.974
1.87 -0.184 0.974
1.87 -0.368 0.656
1.87 -0.184 0.337
1.87 0.184 0.337
1.763 0.626 1.017
1.763 0.361 1.281
1.763 -0.0 1.378
1.763 -0.361 1.281
1.763 -0.626 1.017
1.763 -0.722 0.656
1.763 -0.626 0.294
1.763 -0.0 -0.067
1.763 0.361 0.03
1.763 0.626 0.294
1.763 0.722 0.656
1.588 0.985 1.014
1.588 0.803 1.33
1.588 0.524 1.564
1.588 0.182 1.688
1.588 -0.182 1.688
1.588 -0.524 1.564
1.588 -0.803 1.33
1.588 -0.985 1.014
1.588 -1.049 0.656
1.588 -0.985 0.297
1.588 0.803 -0.018
1.588 0.985 0.297
1.588 1.049 0.656
1.354 1.285 1.016
1.354 1.14 1.349
1.354 0.911 1.631
1.354 0.614 1.841
1.354 0.272 1.962
1.354 -0.091 1.987
1.354 -0.447 1.913
1.354 -0.77 1.746
1.354 -1.035 1.498
1.354 -1.224 1.187
1.354 -1.322 0.837
1.354 -1.322 0.474
1.354 -1.224 0.124
1.588 -0.803 -0.018
1.354 1.14 -0.038
1.354 1.285 0.296
1.354 1.335 0.656
1.068 1.527 1.018
1.068 1.402 1.36
1.068 1.202 1.664
1.068 0.937 1.914
1.068 0.622 2.097
1.068 0.273 2.201
1.068 -0.091 2.222
1.068 -0.45 2.159
1.068 -0.785 2.015
1.068 -1.077 1.797
1.068 -1.311 1.518
1.068 -1.475 1.192
1.068 -1.559 0.838
1.068 -1.559 0.473
1.068 -1.475 0.119
1.068 1.402 -0.049
1.068 1.527 0.294
1.068 1.569 0.656
0.741 1.706 1.018
0.741 1.593 1.365
0.741 1.411 1.681
0.741 1.167 1.952
0.741 0.872 2.166
0.741 0.539 2.314
0.741 0.182 2.39
0.741 -0.182 2.39
0.741 -0.539 2.314
0.741 -0.872 2.166
0.741 -1.167 1.952
0.741 -1.411 1.681
0.741 -1.593 1.365
0.741 -1.706 1.018
0.741 -1.744 0.656
0.741 -1.706 0.293
0.741 -1.593 -0.054
0.741 1.593 -0.054
0.741 1.706 0.293
0.741 1.744 0.656
0.387 1.816 1.017
0.387 1.71 1.364
0.387 1.539 1.684
0.387 1.309 1.965
0.387 1.028 2.195
0.387 0.708 2.366
0.387 0.361 2.471
0.387 0.0 2.507
0.387 -0.361 2.471
0.387 -0.708 2.366
0.387 -1.028 2.195
0.387 -1.309 1.965
0.387 -1.539 1.684
0.387 -1.71 1.364
0.387 -1.816 1.017
0.387 -1.851 0.656
0.387 -1.816 0.294
0.387 -1.71 -0.053
0.387 1.71 -0.053
0.387 1.816 0.294
0.387 1.851 0.656
0.019 1.853 1.013
0.019 1.752 1.357
0.019 1.588 1.676
0.019 1.366 1.958
0.019 1.095 2.193
0.019 0.784 2.373
0.019 0.445 2.49
0.019 0.09 2.541
0.019 -0.269 2.524
0.019 -0.617 2.439
0.019 -0.944 2.29
0.019 -1.236 2.082
0.019 -1.484 1.822
0.019 -1.678 1.521
0.019 -1.811 1.187
0.019 -1.879 0.835
0.019 -1.879 0.476
0.019 -1.811 0.124
0.019 1.853 0.298
0.019 1.888 0.656
-0.349 1.851 0.656
-0.349 1.816 1.017
-0.349 1.71 1.364
-0.349 1.539 1.684
-0.349 1.309 1.965
-0.349 1.028 2.195
-0.349 0.708 2.366
-0.349 0.361 2.471
-0.349 0.0 2.507
-0.349 -0.361 2.471
-0.349 -0.708 2.366
-0.349 -1.028 2.195
-0.349 -1.309 1.965
-0.349 -1.539 1.684
-0.349 -1.71 1.364
-0.349 -1.816 1.017
-0.349 -1.851 0.656
-0.349 -1.816 0.294
-0.349 1.816 0.294
-0.703 1.744 0.656
-0.703 1.706 1.018
-0.703 1.593 1.365
-0.703 1.411 1.681
-0.703 1.167 1.952
-0.703 0.872 2.166
-0.703 0.539 2.314
-0.703 0.182 2.39
-0.703 -0.182 2.39
-0.703 -0.539 2.314
-0.703 -0.872 2.166
-0.703 -1.167 1.952
-0.703 -1.411 1.681
-0.703 -1.593 1.365
-0.703 -1.706 1.018
-0.703 -1.744 0.656
-0.703 -1.706 0.293
-0.703 1.706 0.293
-1.03 1.569 0.656
-1.03 1.527 1.018
-1.03 1.402 1.36
-1.03 1.202 1.664
-1.03 0.937 1.914
-1.03 0.622 2.097
-1.03 0.273 2.201
-1.03 -0.091 2.222
-1.03 -0.45 2.159
-1.03 -0.785 2.015
-1.03 -1.077 1.797
-1.03 -1.311 1.518
-1.03 -1.475 1.192
-1.03 -1.559 0.838
-1.03 -1.559 0.473
-1.03 -1.475 0.119
-1.03 1.527 0.294
-1.316 1.335 0.656
-1.316 1.285 1.016
-1.316 1.14 1.349
-1.316 0.911 1.631
-1.316 0.614 1.841
-1.316 0.272 1.962
-1.316 -0.091 1.987
-1.316 -0.447 1.913
-1.316 -0.77 1.746
-1.316 -1.035 1.498
-1.316 -1.224 1.187
-1.316 -1.322 0.837
-1.316 -1.322 0.474
-1.316 -1.224 0.124
-1.316 1.285 0.296
-1.55 1.049 0.656
-1.55 0.985 1.014
-1.55 0.803 1.33
-1.55 0.524 1.564
-1.55 0.182 1.688
-1.55 -0.182 1.688
-1.55 -0.524 1.564
-1.55 -0.803 1.33
-1.55 -0.985 1.014
-1.55 -1.049 0.656
-1.55 -0.985 0.297
-1.55 0.985 0.297
-1.725 0.722 0.656
-1.725 0.626 1.017
-1.725 0.361 1.281
-1.725 -0.0 1.378
-1.725 -0.361 1.281
-1.725 -0.626 1.017
-1.725 -0.722 0.656
-1.725 -0.626 0.294
-1.725 0.626 0.294
-1.832 0.368 0.656
-1.832 0.184 0.974
-1.832 -0.184 0.974
-1.832 -0.368 0.656
-1.832 -0.184 0.337
-1.832 0.184 0.337
-1.868 -0.0 0.656
1.239 0.357 -1.355
1.029 0.094 -1.751
1.029 0.454 -1.648
1.029 0.752 -1.423
0.752 0.18 -1.988
0.752 0.525 -1.886
0.752 0.827 -1.692
0.752 1.063 -1.42
1.029 0.949 -1.105
0.752 1.212 -1.093
0.752 -1.063 -1.42
0.425 -1.334 -1.266
0.425 -1.161 -1.581
0.752 -0.827 -1.692
0.425 -0.915 -1.843
0.752 -0.525 -1.886
0.425 -0.611 -2.036
0.425 -0.269 -2.147
0.752 -0.18 -1.988
0.425 0.09 -2.17
0.425 0.444 -2.102
0.425 0.769 -1.949
0.425 1.046 -1.72
0.425 1.258 -1.429
0.425 1.39 -1.094
0.065 -1.48 -1.102
0.065 -1.349 -1.445
0.065 -1.141 -1.748
0.065 -0.866 -1.991
0.065 -0.54 -2.162
0.065 -0.184 -2.25
0.065 0.184 -2.25
0.065 0.54 -2.162
0.065 0.866 -1.991
0.065 1.141 -1.748
0.065 1.349 -1.445
0.065 1.48 -1.102
-0.305 -1.48 -1.102
-0.305 -1.349 -1.445
-0.305 -1.141 -1.748
-0.305 -0.866 -1.991
-0.305 -0.54 -2.162
-0.305 -0.184 -2.25
-0.305 0.184 -2.25
-0.305 0.54 -2.162
-0.305 0.866 -1.991
-0.305 1.141 -1.748
-0.305 1.349 -1.445
-0.305 1.48 -1.102
-0.664 -1.424 -0.917
-0.664 -1.334 -1.266
-0.664 -1.161 -1.581
-0.664 -0.915 -1.843
-0.664 -0.611 -2.036
-0.664 -0.269 -2.147
-0.664 0.09 -2.17
-0.664 0.444 -2.102
-0.664 0.769 -1.949
-0.664 1.046 -1.72
-0.664 1.258 -1.429
-0.664 1.39 -1.094
-0.992 -1.212 -1.093
-0.992 -1.063 -1.42
-0.992 -0.827 -1.692
-0.992 -0.525 -1.886
-0.992 -0.18 -1.988
-0.992 0.18 -1.988
-0.992 0.525 -1.886
-0.992 0.827 -1.692
-0.992 1.063 -1.42
-0.992 1.212 -1.093
-1.269 -1.001 -0.924
-1.269 -0.865 -1.273
-1.269 -0.613 -1.549
-1.269 -0.279 -1.716
-1.269 0.094 -1.751
-1.269 0.454 -1.648
-1.269 0.752 -1.423
-1.269 0.949 -1.105
-1.479 -0.618 -1.094
-1.479 -0.357 -1.355
-1.479 -0.0 -1.451
-1.479 0.357 -1.355
-1.479 0.618 -1.094
-1.61 -0.184 -1.055
-1.61 0.184 -1.055
1.239 -0.0 -1.451
1.239 -0.357 -1.355
0.752 -1.212 -1.093
1.161 -0.8115 -0.909
1.763 -0.361 0.03
1.763 -0.4935 0.162
1.763 -0.1805 -0.0185
1.6755 -0.7145 0.138
1.6755 -0.582 0.006
1.5785 -0.589 -0.1865
1.666 -0.368 -0.1625
1.666 -0.1875 -0.211
1.134 -0.485 -1.452
1.134 -0.318 -1.5355
1.029 -0.446 -1.6325
1.029 -0.613 -1.549
1.029 -0.279 -1.716
1.239 -0.1785 -1.403
1.134 -0.1395 -1.5835
1.134 0.047 -1.601
1.029 -0.0925 -1.7335
1.029 -0.865 -1.273
0.8905 -1.0385 -1.183
0.8905 -0.964 -1.3465
0.752 -1.1375 -1.2565
0.8905 -0.846 -1.4825
0.752 -0.945 -1.556
1.029 -0.739 -1.411
0.8905 -0.72 -1.6205
0.8905 -0.569 -1.7175
0.752 -0.676 -1.789
0.8905 -0.402 -1.801
0.8905 -0.2295 -1.852
0.752 -0.3525 -1.937
0.8905 -0.043 -1.8695
1.2455 -0.5115 -1.1365
1.134 -0.611 -1.314
1.1405 -0.7655 -1.0955
1.0495 -0.911 -1.0865
0.911 -1.0845 -0.9965

CELLS 808 3232
3 0 1 2
3 2 1 3
3 1 4 3
3 3 4 5
3 4 6 5
3 6 7 8
3 8 7 9
3 7 10 9
3 9 10 11
3 10 12 11
3 11 12 13
3 12 14 13
3 13 14 15
3 14 16 15
3 15 16 17
3 16 18 17
3 17 18 19
3 18 20 19
3 19 20 21
3 20 22 21
3 21 22 23
3 22 24 23
3 23 24 25
3 24 26 25
3 25 26 27
3 26 28 27
3 27 28 29
3 28 30 29
3 29 30 31
3 30 32 31
3 31 32 33
3 32 34 33
3 33 34 35
3 34 36 35
3 35 36 37
3 36 38 37
3 37 38 39
3 38 40 39
3 39 40 41
3 40 42 41
3 41 42 43
3 42 44 43
3 43 44 45
3 44 46 45
3 45 46 47
3 46 48 47
3 47 48 49
3 48 50 49
3 49 50 51
3 50 52 51
3 51 52 53
3 52 54 53
3 53 54 55
3 54 0 55
3 55 0 2
3 56 57 58
3 56 58 59
3 56 59 60
3 56 60 61
3 56 61 62
3 56 62 57
3 58 57 63
3 58 63 64
3 58 64 65
3 59 58 65
3 59 65 66
3 59 66 67
3 60 59 67
3 60 67 68
3 60 68 69
3 61 60 69
3 62 61 70
3 62 70 71
3 62 71 72
3 57 62 72
3 57 72 73
3 57 73 63
3 63 73 74
3 63 74 75
3 64 63 75
3 64 75 76
3 64 76 77
3 65 64 77
3 65 77 78
3 66 65 78
3 66 78 79
3 66 79 80
3 67 66 80
3 67 80 81
3 68 67 81
3 68 81 82
3 68 82 83
3 69 68 83
3 72 71 84
3 72 84 85
3 73 72 85
3 73 85 86
3 73 86 74
3 74 86 87
3 74 87 88
3 75 74 88
3 75 88 89
3 76 75 89
3 76 89 90
3 77 76 90
3 77 90 91
3 77 91 92
3 78 77 92
3 78 92 93
3 79 78 93
3 79 93 94
3 80 79 94
3 80 94 95
3 80 95 96
3 81 80 96
3 81 96 97
3 82 81 97
3 82 97 98
3 83 82 98
3 83 98 99
3 100 83 99
3 85 84 101
3 85 101 102
3 86 85 102
3 86 102 103
3 86 103 87
3 87 103 104
3 87 104 105
3 88 87 105
3 88 105 106
3 89 88 106
3 89 106 107
3 90 89 107
3 90 107 108
3 91 90 108
3 91 108 109
3 92 91 109
3 92 109 110
3 92 110 111
3 93 92 111
3 93 111 112
3 94 93 112
3 94 112 113
3 95 94 113
3 95 113 114
3 96 95 114
3 96 114 115
3 97 96 115
3 97 115 116
3 97 116 117
3 98 97 117
3 98 117 118
3 99 98 118
3 102 101 119
3 102 119 120
3 103 102 120
3 103 120 121
3 103 121 104
3 104 121 122
3 104 122 123
3 105 104 123
3 105 123 124
3 106 105 124
3 106 124 125
3 107 106 125
3 107 125 126
3 108 107 126
3 108 126 127
3 109 108 127
3 109 127 128
3 110 109 128
3 110 128 129
3 111 110 129
3 111 129 130
3 112 111 130
3 112 130 131
[...]
CELL_DATA 808
SCALARS cell_data_0 double
LOOKUP_TABLE default
1.04861735943e-07
1.75182271117e-07
2.21884839888e-07
5.32256095008e-08
5.17127891447e-09
8.40185508847e-09
1.37667368915e-08
1.66009749139e-08
2.30487702312e-08
1.81138793373e-08
2.45555152143e-08
1.72926263889e-08
2.27916581103e-08
1.53015965443e-08
2.00795655883e-08
1.35901439706e-08
1.72289530337e-08
1.17584408732e-08
1.47333901668e-08
1.04119813286e-08
1.32585699317e-08
9.34456470566e-09
1.2116739311e-08
8.55067797481e-09
1.11645976066e-08
7.9794543372e-09
1.01255347794e-08
7.63590429828e-09
9.93401909589e-09
7.54784631403e-09
1.04014048325e-08
7.99343063107e-09
1.07194874519e-08
7.94425673673e-09
1.08454456935e-08
8.43221263699e-09
1.15865602229e-08
9.205122976e-09
1.27178266057e-08
1.00926210355e-08
1.39018954416e-08
1.08310395243e-08
1.49509836725e-08
1.14419681119e-08
1.49498537538e-08
1.05966727885e-08
1.19783542427e-08
6.27664389726e-09
1.09090553845e-10
3.68672147632e-09
3.72469157559e-08
3.70644614004e-08
1.29861284531e-07
7.85089739746e-08
6.11208365942e-08
1.89911446185e-09
2.02681617793e-09
1.88717089548e-09
8.80698859748e-10
1.06808056772e-09
1.99795624846e-09
2.29334671519e-09
2.03088868559e-09
2.02514326973e-09
2.429552282e-09
2.21266302559e-09
2.23429113883e-09
2.26681691536e-09
3.57896749855e-09
7.13667401701e-09
4.44570273532e-09
1.0903602547e-09
2.06723510542e-09
2.05368961102e-09
2.36515951398e-09
1.95016299437e-09
2.03945682512e-09
2.10235575787e-09
1.74928041613e-09
2.08931153832e-09
1.77851050979e-09
1.8389761606e-09
2.14993430353e-09
1.86497333668e-09
2.23037661157e-09
2.06073991511e-09
2.03232396844e-09
2.21311497211e-09
1.65985778216e-09
3.70077998788e-09
3.39753463232e-09
3.46423543384e-09
7.51596143259e-09
1.89330833001e-09
1.57614397574e-09
1.97629771505e-09
1.76537295989e-09
1.79433914526e-09
1.62887651982e-09
1.49635339572e-09
1.66306481255e-09
1.54306093804e-09
1.70394933805e-09
1.56547708249e-09
1.71028222099e-09
1.71370772499e-09
1.79248287372e-09
1.92289317353e-09
1.79612172909e-09
1.98764818982e-09
1.88155838611e-09
1.96874965028e-09
1.83316654027e-09
9.97917137232e-10
7.18929225259e-10
2.45675923754e-09
3.95215729131e-09
3.31729088418e-09
1.14992470473e-09
8.90805029834e-10
1.44941018052e-09
1.62710690298e-09
1.48507564701e-09
1.55944157649e-09
1.53222517419e-09
1.57146946599e-09
1.48691061696e-09
1.36733301739e-09
1.44242141168e-09
1.34205487659e-09
1.48191534527e-09
1.3923230631e-09
1.51986134239e-09
1.36620731389e-09
1.52942420082e-09
1.40248371546e-09
1.6196536788e-09
1.56231061602e-09
1.63259859842e-09
1.75355212836e-09
1.67108717191e-09
1.86104785063e-09
1.76322924539e-09
1.90560346334e-09
1.76222938322e-09
1.08631643461e-09
9.25356601305e-10
2.57359547818e-09
2.82436295188e-09
2.16060572257e-09
2.25779010399e-09
3.11309461808e-10
7.81883307759e-10
1.43507890054e-09
1.29603661e-09
1.41846581086e-09
1.41994285612e-09
1.45254196209e-09
1.33670058655e-09
1.23623856891e-09
1.28997210412e-09
1.23997914574e-09
1.31521153253e-09
1.2360479047e-09
1.29553723294e-09
1.22782752611e-09
1.29803490569e-09
1.2235237436e-09
1.26531450201e-09
1.25201440605e-09
1.39331888582e-09
1.35294304361e-09
1.43704330021e-09
1.38227029352e-09
1.56213192339e-09
1.53481874608e-09
1.57801121318e-09
1.67412896146e-09
1.60687080321e-09
1.66464756462e-09
1.5353316161e-09
1.49097350896e-09
1.15015797643e-09
8.65261696344e-10
4.98581485945e-11
3.46738892829e-10
7.18216504266e-10
4.63331782138e-11
2.30547954495e-10
1.19968898029e-09
1.10908957219e-09
1.2459693469e-09
1.24825136968e-09
1.30176081195e-09
1.20425369969e-09
1.1581051406e-09
1.18182319184e-09
1.08950547255e-09
1.13259790825e-09
1.07302004524e-09
1.15569697229e-09
1.07387630434e-09
1.15056291631e-09
1.09488181461e-09
1.1683754083e-09
1.04001497682e-09
1.15053691296e-09
1.15615053569e-09
1.28707621203e-09
1.21166579916e-09
1.28507359976e-09
1.26489911182e-09
1.38424756056e-09
1.32965433067e-09
1.46287532316e-09
1.39108984778e-09
1.49051699274e-09
1.41011543324e-09
1.45828475144e-09
1.288984566e-09
1.1031226655e-09
7.62799657854e-10
9.65480281625e-11
6.2216167017e-10
1.23930921531e-09
1.0075042327e-09
5.2659712173e-10
7.01400071347e-11
9.8398733687e-10
9.29455626636e-10
1.06363480114e-09
1.06646126006e-09
1.15110694813e-09
1.06874775867e-09
1.02086082808e-09
1.07918325817e-09
1.0314735949e-09
1.04988300916e-09
9.99242074455e-10
1.01131937327e-09
1.01598699858e-09
1.03553886087e-09
9.74192904514e-10
9.94883330878e-10
1.01482021615e-09
1.03153329313e-09
9.5539794115e-10
1.01586473157e-09
1.04363447196e-09
1.15353044601e-09
1.09364123058e-09
1.18429483368e-09
1.17382749145e-09
1.25094700009e-09
1.2308059885e-09
1.29387657182e-09
1.2378644546e-09
1.30629319107e-09
1.19163894405e-09
1.18302013532e-09
9.30601585605e-10
7.32655845333e-10
2.30478971746e-10
4.5173146423e-10
3.92117501005e-10
7.0663498033e-10
1.88816342922e-12
7.72813264258e-12
8.41040019179e-10
8.72585799767e-10
1.01491556355e-09
8.97165076702e-10
8.76729658843e-10
9.48410082978e-10
9.25922926131e-10
9.50522113686e-10
9.59437797022e-10
9.94297343643e-10
9.50137254674e-10
9.56329533696e-10
8.89522235959e-10
8.87238182748e-10
8.38532560333e-10
9.43387160056e-10
9.63139940817e-10
9.59984707771e-10
8.96018944802e-10
9.21697016677e-10
1.00532318347e-09
1.06882431766e-09
1.04683475326e-09
1.06782259688e-09
1.04687302132e-09
1.13719024556e-09
1.10499956054e-09
1.14944132602e-09
1.11459254579e-09
1.10791533316e-09
1.05986597379e-09
9.09891879733e-10
7.99094848669e-10
3.70614393121e-10
2.02414156321e-10
4.56317956893e-11
2.22098271986e-10
3.76592074047e-10
5.21488107922e-10
7.53265577946e-10
7.73556605356e-10
7.83290977346e-10
8.5419898018e-10
8.21646303412e-10
8.65799736068e-10
8.35261529911e-10
8.57476819955e-10
8.30505490989e-10
8.27266318939e-10
8.33740557973e-10
8.19317502755e-10
8.39674456042e-10
8.45141610899e-10
8.82620275762e-10
8.98328145614e-10
8.88863577848e-10
9.32853313588e-10
9.48214706316e-10
9.54476560676e-10
9.2465672508e-10
9.54407966492e-10
1.0065080547e-09
1.02312412625e-09
1.0016565332e-09
1.00976992968e-09
9.653499887e-10
9.72343613804e-10
7.88120812843e-10
7.27383471754e-10
4.46262182938e-10
3.41126522287e-10
2.17464735396e-10
2.41787979805e-10
4.20501360934e-10
6.11343245501e-10
6.9428233126e-10
7.06189284597e-10
7.63608250599e-10
7.62259575334e-10
7.64107617637e-10
7.69058077688e-10
7.81104292097e-10
7.93409278202e-10
8.06279924019e-10
8.1009296631e-10
8.07931468939e-10
7.91339789252e-10
8.08351594085e-10
8.32069290203e-10
8.49819814013e-10
8.50415885903e-10
8.64236523801e-10
8.57964940547e-10
8.78292517229e-10
9.21109565781e-10
8.91671487492e-10
9.22984711294e-10
8.76202899791e-10
8.66891836779e-10
7.88930396499e-10
6.68800524838e-10
3.62534475492e-10
1.63885938068e-10
2.17930665687e-10
9.15471465077e-11
1.97784142905e-10
3.45306977098e-10
5.35214499301e-10
6.21449642612e-10
6.41237973063e-10
7.03355788993e-10
7.14973712501e-10
7.20680459451e-10
7.42872350637e-10
7.34663583819e-10
7.49803387459e-10
7.41852425991e-10
7.66318269458e-10
7.60685408497e-10
7.64804395083e-10
7.8021446421e-10
8.15019709805e-10
8.10388037729e-10
8.05065085919e-10
8.02876505764e-10
7.96982548463e-10
7.9054665931e-10
7.76759999197e-10
6.92236672556e-10
6.65883779553e-10
3.64439001497e-10
1.32086070125e-10
4.17853668305e-10
5.35492915042e-10
4.08181166071e-10
2.1100396532e-10
2.70549469412e-10
4.56464082634e-10
5.73693019745e-10
6.07754614084e-10
6.41423370338e-10
6.75972819895e-10
6.70269678952e-10
7.1535515833e-10
7.10517964075e-10
7.11494147919e-10
7.19187054412e-10
7.28391296225e-10
7.29050655654e-10
7.19626636442e-10
7.39526742631e-10
7.24410020708e-10
6.88279862821e-10
6.73915344972e-10
6.07565776782e-10
4.43546051079e-10
1.45716494073e-10
2.06877783856e-10
4.47344338576e-10
3.69551670432e-10
2.48004617114e-10
2.38893891114e-10
4.08988264263e-10
5.49307413279e-10
6.09330831959e-10
5.95506591049e-10
6.67942715686e-10
6.4776896425e-10
6.63117119458e-10
6.88824986229e-10
6.39499242266e-10
6.60521433719e-10
6.36115125444e-10
5.97008692608e-10
4.48858367609e-10
2.55707011413e-10
2.97937187659e-11
1.3597707872e-10
2.36866187428e-10
1.91462527943e-10
2.31128537025e-10
3.89989002417e-10
5.10340605002e-10
5.7321168759e-10
5.61688997471e-10
5.55669175494e-10
4.01095470858e-10
3.87020155113e-10
2.09566469856e-10
8.75174627295e-11
9.6359652815e-11
1.21926073824e-10
1.02624421301e-10
1.50529282804e-10
3.49705823289e-10
8.25646943168e-08
8.26525365876e-08
8.2405831544e-08
8.23620567354e-08
8.25465484307e-08
8.28237387989e-08
1.06663739822e-09
1.91071044212e-09
9.09602605546e-10
1.85624017448e-09
1.12803182033e-09
1.76711727566e-09
9.60866237778e-10
1.9663598648e-09
7.3720020042e-10
1.34858629275e-09
7.23377949262e-10
1.62830700257e-09
1.1227013166e-09
3.16322983947e-09
1.31665321626e-09
1.23056800199e-09
2.45128691934e-09
2.73010972415e-09
6.3515072516e-10
1.88706475074e-09
7.50405364995e-10
2.13642444169e-09
5.33662167262e-11
1.10138207687e-10
2.04244325391e-09
1.37165084028e-09
1.91583669503e-09
5.07834251976e-09
2.34868618316e-09
2.9973236596e-09
1.06363667432e-09
3.44569488253e-10
1.09886583243e-09
8.89613726112e-10
4.40302594385e-10
1.26508918272e-10
9.97357109774e-10
1.33809643458e-10
1.02704370203e-09
1.02891561099e-09
8.83387360195e-10
7.46612795929e-10
1.00351812977e-09
2.65788282625e-09
9.51771397096e-10
2.2811244401e-09
8.67760914099e-10
2.02758199635e-09
8.47183752043e-10
1.81914062638e-09
7.88710494604e-10
1.64422261145e-09
7.89745712551e-10
1.61795026243e-09
2.70428547734e-08
2.18893135099e-08
7.90403760976e-09
1.21858168342e-08
1.34936678937e-08
7.05202441392e-10
2.76818605036e-09
3.08691318285e-09
6.05123014157e-09
8.72898106458e-09
1.0482671239e-08
1.22006566232e-08
1.57640059462e-08
1.50253236098e-08
1.00115803404e-08
1.58368162989e-08
7.36662672203e-09
1.29648802199e-08
6.83914325514e-10
1.00429723707e-08
8.22850480478e-10
9.74394931404e-09
3.36465115492e-09
1.02378947775e-08
1.08841694864e-08
8.97392324396e-09
1.14435390295e-08
1.04164232084e-08
1.17905214453e-08
1.11295216356e-08
1.16055187987e-08
1.29557233728e-08
1.45461374084e-08
1.67535557796e-08
1.70306088953e-08
1.75414822894e-08
1.74274790322e-08
1.73411775684e-08
1.80781721652e-08
1.7771156552e-08
1.79956916933e-08
1.64121156606e-08
1.65464448901e-08
1.50027692481e-08
1.58245773925e-08
1.43561346148e-08
1.35812699715e-08
1.31490099506e-08
1.28355847773e-08
1.24553366022e-08
1.24355394767e-08
1.16991090937e-08
1.16167863167e-08
1.14897388213e-08
1.3011625747e-08
1.3806632765e-08
1.55664718214e-08
1.50493769932e-08
1.63554411938e-08
1.55108860504e-08
1.71682574553e-08
1.63038937982e-08
1.70544807304e-08
1.59008356651e-08
1.66753550106e-08
1.55164334478e-08
1.59764684239e-08
1.32601885676e-08
1.34985191522e-08
1.22052702846e-08
1.24882313846e-08
1.13126970738e-08
1.14831678364e-08
1.03001013269e-08
1.04653020959e-08
1.03522218174e-08
1.14624284698e-08
1.19137084245e-08
1.26812843916e-08
1.28128226442e-08
1.3425861767e-08
1.27116465346e-08
1.35041254178e-08
1.28610652282e-08
1.40879085959e-08
1.2945316519e-08
1.40213841973e-08
1.26012357767e-08
1.34107453375e-08
1.13331794251e-08
1.05443465303e-08
1.07362883622e-08
9.82846829935e-09
9.83387625082e-09
9.1328011397e-09
9.37931861033e-09
9.82338258224e-09
1.02022148339e-08
1.10070272509e-08
1.08744297468e-08
1.16303341852e-08
1.14502999829e-08
1.15249322841e-08
1.08359108304e-08
1.11051659457e-08
1.09536928336e-08
1.12400738262e-08
1.02583631538e-08
1.04273503731e-08
9.50934225888e-09
9.29499706675e-09
8.89561159892e-09
9.12086507059e-09
8.51333238249e-09
9.58728231795e-09
9.10770031505e-09
9.69436262532e-09
9.32018413831e-09
9.02332400989e-09
9.40723149668e-09
9.03720292366e-09
8.78972737243e-09
9.08952295214e-09
9.09797973484e-09
8.56338784021e-09
1.05217667331e-07
1.08752505062e-07
3.73131847768e-07
1.41773047742e-07
1.84335837404e-07
2.07563597754e-08
2.2912622167e-08
7.07613790752e-09
6.39670238788e-09
2.74056968532e-08
7.51937732801e-09
3.37274466552e-07
1.95891524464e-07
3.87882469212e-09
2.91659252888e-08
4.17516926587e-08
1.24103037174e-08
1.04888184742e-08
1.06771226923e-08
1.08576846788e-08
9.81272920029e-09
9.99250908894e-09
9.65232626585e-09
1.07670557094e-08
1.04255913411e-08
1.19833756133e-08
1.08812688725e-08
1.28440635485e-08
1.09669726735e-08
1.17863862406e-08
8.9269321885e-09
7.24939803872e-09
4.86664025894e-09
1.74121355108e-09
1.15354788665e-09
1.73100648491e-08
2.59113885263e-08
6.64463504882e-08
1.27310817734e-07
8.62921575431e-08
1.60543200854e-07
2.53140854227e-08
1.10589143676e-08
1.4824349325e-08
1.83279151397e-08
1.41318913795e-08
1.41558229916e-08
1.44615536509e-08
1.46958541693e-08
1.12650796512e-08
6.95861233305e-09
9.20714482125e-09
1.19672258534e-08
9.64662894702e-09
6.83602591365e-09
6.55770093662e-09
1.44376132967e-07
1.15358396703e-07
1.09085566669e-07
8.75308675587e-09
9.75062792567e-09
1.45649791848e-08
5.44755131036e-09
5.6715307231e-09
1.43468522554e-09
7.08270833826e-10
1.27195612046e-09
6.05059897061e-10
6.0585876795e-09
3.86478360476e-09
3.96400738898e-10
2.12849139292e-09
2.82506376986e-09
2.79261455491e-09
3.26999549703e-08
9.73950104259e-08
2.46990626891e-08
7.54217470053e-08
4.69121232006e-08
9.21851008841e-08
7.27241623635e-08
8.18452321394e-08
6.46452346375e-08
8.37099582417e-10
3.82296191181e-08
7.9130484261e-09
1.59254653355e-07
3.35811543747e-07
1.84540772164e-07
2.57284493012e-07
4.93380917998e-08
1.21234005332e-07
5.70040142687e-09
2.17246006272e-07
1.20169593389e-07
1.61073149046e-07
1.01644920228e-07
3.84581731237e-08
6.90117319283e-09
4.31390788726e-08
1.8922582717e-08
8.88843509202e-09
5.0363251343e-10
3.36783160526e-09
1.15502517725e-08
2.90712014179e-09
4.04137484095e-09
3.89365898327e-09
2.50176791459e-08
1.48135704228e-08
1.73946420325e-09
1.81349502963e-08
1.25607757203e-08
7.31618041168e-09
2.00912724361e-08
1.3288066507e-08
8.88413698145e-08
1.21031302181e-07
1.74177154013e-07
2.90209905952e-08
4.1415847947e-08
3.09516960326e-08
2.92057488086e-08
1.94632891337e-08
1.50407651146e-08
2.60615799229e-08
1.87094703178e-08
9.65171266883e-09
6.78395692756e-10
6.46608979947e-10
3.68822248586e-09
2.5996232142e-09
3.13188167579e-09
1.62996015028e-09
6.97804629861e-09
4.96601463616e-09
1.41484857957e-08
2.0748890765e-08
3.74257763879e-07
2.85693866527e-07
1.44643138089e-07
1.04616185564e-07
6.18898162878e-08
6.45247978845e-08
1.02690596035e-07
4.4635853334e-08
1.68044129824e-08
1.81065637355e-08
3.23810687223e-08
3.72080397742e-08
1.59823034532e-08
1.35267759166e-09
1.10574875204e-08
6.25517722682e-09
3.17539745395e-08
1.56545285032e-08
9.3090984554e-09
5.07157535307e-10
2.69724598382e-09
4.02309789923e-09

