# vtk DataFile Version 3.0
File Name: Molecule/methanol/methanol_16.0-0.vtk
ASCII
DATASET UNSTRUCTURED_GRID
FIELD FieldData 1
TIME 1 1 double
0.0
POINTS 779 double
1.611 0.0 -0.359
1.588 -0.277 -0.357
1.475 0.0 -0.634
1.454 -0.26 -0.632
1.403 0.0 -0.933
1.382 -0.253 -0.931
1.52 -0.547 -0.35
1.39 -0.512 -0.626
1.32 -0.498 -0.925
1.409 -0.802 -0.339
1.286 -0.75 -0.615
1.219 -0.73 -0.914
1.257 -1.035 -0.324
1.144 -0.968 -0.601
1.081 -0.942 -0.901
1.07 -1.239 -0.305
0.969 -1.16 -0.584
0.91 -1.129 -0.884
0.851 -1.41 -0.283
0.764 -1.32 -0.564
0.711 -1.285 -0.864
0.608 -1.543 -0.259
0.536 -1.444 -0.541
0.489 -1.405 -0.842
0.346 -1.633 -0.233
0.291 -1.529 -0.516
0.251 -1.487 -0.818
0.073 -1.679 -0.206
0.036 -1.571 -0.491
0.002 -1.529 -0.793
-0.204 -1.679 -0.178
-0.223 -1.571 -0.465
-0.25 -1.529 -0.768
-0.477 -1.633 -0.151
-0.479 -1.529 -0.44
-0.499 -1.487 -0.743
-0.739 -1.543 -0.125
-0.724 -1.444 -0.415
-0.737 -1.405 -0.72
-0.982 -1.41 -0.101
-0.952 -1.32 -0.393
-0.959 -1.285 -0.698
-1.201 -1.239 -0.079
-1.157 -1.16 -0.372
-1.158 -1.129 -0.678
-1.388 -1.035 -0.06
-1.332 -0.968 -0.355
-1.329 -0.942 -0.661
-1.54 -0.802 -0.045
-1.474 -0.75 -0.341
-1.467 -0.73 -0.647
-1.651 -0.547 -0.034
-1.578 -0.512 -0.33
-1.568 -0.498 -0.637
-1.719 -0.277 -0.027
-1.641 -0.26 -0.324
-1.63 -0.253 -0.631
-1.742 -0.0 -0.025
-1.663 -0.0 -0.322
-1.651 -0.0 -0.629
-1.719 0.277 -0.027
-1.641 0.26 -0.324
-1.63 0.253 -0.631
-1.651 0.547 -0.034
-1.578 0.512 -0.33
-1.568 0.498 -0.637
-1.54 0.802 -0.045
-1.474 0.75 -0.341
-1.467 0.73 -0.647
-1.388 1.035 -0.06
-1.332 0.968 -0.355
-1.329 0.942 -0.661
-1.201 1.239 -0.079
-1.157 1.16 -0.372
-1.158 1.129 -0.678
-0.982 1.41 -0.101
-0.952 1.32 -0.393
-0.959 1.285 -0.698
-0.739 1.543 -0.125
-0.724 1.444 -0.415
-0.737 1.405 -0.72
-0.477 1.633 -0.151
-0.479 1.529 -0.44
-0.499 1.487 -0.743
-0.204 1.679 -0.178
-0.223 1.571 -0.465
-0.25 1.529 -0.768
0.073 1.679 -0.206
0.036 1.571 -0.491
0.002 1.529 -0.793
0.346 1.633 -0.233
0.291 1.529 -0.516
0.251 1.487 -0.818
0.608 1.543 -0.259
0.536 1.444 -0.541
0.489 1.405 -0.842
0.851 1.41 -0.283
0.764 1.32 -0.564
0.711 1.285 -0.864
1.07 1.239 -0.305
0.969 1.16 -0.584
0.91 1.129 -0.884
1.257 1.035 -0.324
1.144 0.968 -0.601
1.081 0.942 -0.901
1.409 0.802 -0.339
1.286 0.75 -0.615
1.219 0.73 -0.914
1.52 0.547 -0.35
1.39 0.512 -0.626
1.32 0.498 -0.925
1.588 0.277 -0.357
1.454 0.26 -0.632
1.382 0.253 -0.931
1.907 0.0 0.656
1.889 0.257 0.656
1.889 0.129 0.878
1.889 -0.129 0.878
1.889 -0.257 0.656
1.889 -0.129 0.433
1.889 0.129 0.433
1.837 0.441 0.91
1.837 0.255 1.097
1.837 -0.0 1.165
1.837 -0.255 1.097
1.837 -0.441 0.91
1.837 -0.509 0.656
1.837 -0.441 0.401
1.837 -0.255 0.215
1.837 -0.0 0.146
1.837 0.255 0.215
1.837 0.441 0.401
1.837 0.509 0.656
1.75 0.707 0.913
1.75 0.576 1.139
1.75 0.376 1.307
1.75 0.131 1.396
1.75 -0.131 1.396
1.75 -0.376 1.307
1.75 -0.576 1.139
1.75 -0.707 0.913
1.75 -0.752 0.656
1.75 -0.707 0.398
1.75 -0.576 0.172
1.75 -0.376 0.004
1.75 -0.131 -0.085
1.75 0.131 -0.085
1.75 0.376 0.004
1.75 0.576 0.172
1.75 0.707 0.398
1.75 0.752 0.656
1.632 0.947 0.909
1.632 0.849 1.146
1.632 0.693 1.349
1.632 0.49 1.505
1.632 0.254 1.603
1.632 0.0 1.636
1.632 -0.254 1.603
1.632 -0.49 1.505
1.632 -0.693 1.349
1.632 -0.849 1.146
1.632 -0.947 0.909
1.632 -0.981 0.656
1.632 -0.947 0.402
1.632 -0.849 0.165
1.632 -0.693 -0.038
1.632 -0.49 -0.194
1.632 0.49 -0.194
1.632 0.693 -0.038
1.632 0.849 0.165
1.632 0.947 0.402
1.632 0.981 0.656
1.483 1.163 0.912
1.483 1.081 1.156
1.483 0.948 1.376
1.483 0.771 1.563
1.483 0.558 1.708
1.483 0.319 1.803
1.483 0.064 1.845
1.483 -0.193 1.831
1.483 -0.441 1.762
1.483 -0.668 1.642
1.483 -0.865 1.475
1.483 -1.021 1.27
1.483 -1.129 1.036
1.483 -1.184 0.784
1.483 -1.184 0.527
1.483 -1.129 0.275
1.483 -1.021 0.041
1.483 -0.865 -0.164
1.483 0.948 -0.065
1.483 1.081 0.155
1.483 1.163 0.4
1.483 1.191 0.656
1.307 1.356 0.909
1.307 1.286 1.154
1.307 1.173 1.382
1.307 1.019 1.585
1.307 0.831 1.756
1.307 0.615 1.89
1.307 0.378 1.982
1.307 0.127 2.029
1.307 -0.127 2.029
1.307 -0.378 1.982
1.307 -0.615 1.89
1.307 -0.831 1.756
1.307 -1.019 1.585
1.307 -1.173 1.382
1.307 -1.286 1.154
1.307 -1.356 0.909
1.307 -1.379 0.656
1.307 -1.356 0.402
1.307 -1.286 0.157
1.307 -1.173 -0.071
1.307 1.173 -0.071
1.307 1.286 0.157
1.307 1.356 0.402
1.307 1.379 0.656
1.107 1.521 0.909
1.107 1.458 1.156
1.107 1.356 1.39
1.107 1.217 1.603
1.107 1.044 1.79
1.107 0.843 1.947
1.107 0.619 2.068
1.107 0.379 2.15
1.107 0.127 2.192
1.107 -0.127 2.192
1.107 -0.379 2.15
1.107 -0.619 2.068
1.107 -0.843 1.947
1.107 -1.044 1.79
1.107 -1.217 1.603
1.107 -1.356 1.39
1.107 -1.458 1.156
1.107 -1.521 0.909
1.107 -1.542 0.656
1.107 -1.521 0.402
1.107 -1.458 0.155
1.107 -1.356 -0.078
1.107 1.356 -0.078
1.107 1.458 0.155
1.107 1.521 0.402
1.107 1.542 0.656
0.887 1.656 0.911
0.887 1.598 1.161
0.887 1.502 1.399
0.887 1.371 1.62
0.887 1.208 1.818
0.887 1.016 1.988
0.887 0.801 2.128
0.887 0.566 2.233
0.887 0.319 2.301
0.887 0.064 2.33
0.887 -0.192 2.32
0.887 -0.444 2.272
0.887 -0.686 2.185
0.887 -0.911 2.062
0.887 -1.115 1.907
0.887 -1.293 1.722
0.887 -1.441 1.512
0.887 -1.554 1.282
0.887 -1.632 1.037
0.887 -1.671 0.784
0.887 -1.671 0.527
0.887 -1.632 0.274
0.887 -1.554 0.029
0.887 1.502 -0.088
0.887 1.598 0.15
0.887 1.656 0.4
0.887 1.676 0.656
0.651 1.76 0.909
0.651 1.706 1.157
0.651 1.618 1.394
0.651 1.496 1.617
0.651 1.344 1.82
0.651 1.165 2.0
0.651 0.962 2.152
0.651 0.739 2.273
0.651 0.501 2.362
0.651 0.253 2.416
0.651 0.0 2.434
0.651 -0.253 2.416
0.651 -0.501 2.362
0.651 -0.739 2.273
0.651 -0.962 2.152
0.651 -1.165 2.0
0.651 -1.344 1.82
0.651 -1.496 1.617
0.651 -1.618 1.394
0.651 -1.706 1.157
0.651 -1.76 0.909
0.651 -1.779 0.656
0.651 -1.76 0.402
0.651 -1.706 0.155
0.651 -1.618 -0.083
0.651 1.618 -0.083
0.651 1.706 0.155
0.651 1.76 0.402
0.651 1.779 0.656
0.403 1.831 0.907
0.403 1.779 1.154
0.403 1.695 1.392
0.403 1.579 1.616
0.403 1.434 1.822
0.403 1.261 2.006
0.403 1.066 2.165
0.403 0.85 2.296
0.403 0.619 2.397
0.403 0.376 2.465
0.403 0.126 2.499
0.403 -0.126 2.499
0.403 -0.376 2.465
0.403 -0.619 2.397
0.403 -0.85 2.296
0.403 -1.066 2.165
0.403 -1.261 2.006
0.403 -1.434 1.822
0.403 -1.579 1.616
0.403 -1.695 1.392
0.403 -1.779 1.154
0.403 -1.831 0.907
0.403 -1.848 0.656
0.403 -1.831 0.404
0.403 -1.779 0.157
0.403 -1.695 -0.081
0.403 1.695 -0.081
0.403 1.779 0.157
0.403 1.831 0.404
0.403 1.848 0.656
0.148 1.866 0.912
0.148 1.813 1.164
0.148 1.727 1.406
0.148 1.609 1.634
0.148 1.461 1.844
0.148 1.285 2.032
0.148 1.086 2.194
0.148 0.866 2.328
0.148 0.631 2.43
0.148 0.383 2.499
0.148 0.129 2.534
0.148 -0.129 2.534
0.148 -0.383 2.499
0.148 -0.631 2.43
0.148 -0.866 2.328
0.148 -1.086 2.194
0.148 -1.285 2.032
0.148 -1.461 1.844
0.148 -1.609 1.634
0.148 -1.727 1.406
0.148 -1.813 1.164
0.148 -1.866 0.912
0.148 -1.883 0.656
0.148 -1.866 0.399
0.148 -1.813 0.148
0.148 1.813 0.148
0.148 1.866 0.399
0.148 1.883 0.656
-0.11 1.866 0.912
-0.11 1.813 1.164
-0.11 1.727 1.406
-0.11 1.609 1.634
-0.11 1.461 1.844
-0.11 1.285 2.032
-0.11 1.086 2.194
-0.11 0.866 2.328
-0.11 0.631 2.43
-0.11 0.383 2.499
-0.11 0.129 2.534
-0.11 -0.129 2.534
-0.11 -0.383 2.499
-0.11 -0.631 2.43
-0.11 -0.866 2.328
-0.11 -1.086 2.194
-0.11 -1.285 2.032
-0.11 -1.461 1.844
-0.11 -1.609 1.634
-0.11 -1.727 1.406
-0.11 -1.813 1.164
-0.11 -1.866 0.912
-0.11 -1.883 0.656
-0.11 -1.866 0.399
-0.11 -1.813 0.148
-0.11 1.813 0.148
-0.11 1.866 0.399
-0.11 1.883 0.656
-0.365 1.831 0.907
-0.365 1.779 1.154
-0.365 1.695 1.392
-0.365 1.579 1.616
-0.365 1.434 1.822
-0.365 1.261 2.006
-0.365 1.066 2.165
-0.365 0.85 2.296
-0.365 0.619 2.397
-0.365 0.376 2.465
-0.365 0.126 2.499
-0.365 -0.126 2.499
-0.365 -0.376 2.465
-0.365 -0.619 2.397
-0.365 -0.85 2.296
-0.365 -1.066 2.165
-0.365 -1.261 2.006
-0.365 -1.434 1.822
-0.365 -1.579 1.616
-0.365 -1.695 1.392
-0.365 -1.779 1.154
-0.365 -1.831 0.907
-0.365 -1.848 0.656
-0.365 -1.831 0.404
-0.365 -1.779 0.157
-0.365 1.779 0.157
-0.365 1.831 0.404
-0.365 1.848 0.656
-0.613 1.779 0.656
-0.613 1.76 0.909
-0.613 1.706 1.157
-0.613 1.618 1.394
-0.613 1.496 1.617
-0.613 1.344 1.82
-0.613 1.165 2.0
-0.613 0.962 2.152
-0.613 0.739 2.273
-0.613 0.501 2.362
-0.613 0.253 2.416
-0.613 0.0 2.434
-0.613 -0.253 2.416
-0.613 -0.501 2.362
-0.613 -0.739 2.273
-0.613 -0.962 2.152
-0.613 -1.165 2.0
-0.613 -1.344 1.82
-0.613 -1.496 1.617
-0.613 -1.618 1.394
-0.613 -1.706 1.157
-0.613 -1.76 0.909
-0.613 -1.779 0.656
-0.613 -1.76 0.402
-0.613 -1.706 0.155
-0.613 1.706 0.155
-0.613 1.76 0.402
-0.849 1.676 0.656
-0.849 1.656 0.911
-0.849 1.598 1.161
-0.849 1.502 1.399
-0.849 1.371 1.62
-0.849 1.208 1.818
-0.849 1.016 1.988
-0.849 0.801 2.128
-0.849 0.566 2.233
-0.849 0.319 2.301
-0.849 0.064 2.33
-0.849 -0.192 2.32
-0.849 -0.444 2.272
-0.849 -0.686 2.185
-0.849 -0.911 2.062
-0.849 -1.115 1.907
-0.849 -1.293 1.722
-0.849 -1.441 1.512
-0.849 -1.554 1.282
-0.849 -1.632 1.037
-0.849 -1.671 0.784
-0.849 -1.671 0.527
-0.849 -1.632 0.274
-0.849 -1.554 0.029
-0.849 1.598 0.15
-0.849 1.656 0.4
-1.069 1.542 0.656
-1.069 1.521 0.909
-1.069 1.458 1.156
-1.069 1.356 1.39
-1.069 1.217 1.603
-1.069 1.044 1.79
-1.069 0.843 1.947
-1.069 0.619 2.068
-1.069 0.379 2.15
-1.069 0.127 2.192
-1.069 -0.127 2.192
-1.069 -0.379 2.15
-1.069 -0.619 2.068
-1.069 -0.843 1.947
-1.069 -1.044 1.79
-1.069 -1.217 1.603
-1.069 -1.356 1.39
-1.069 -1.458 1.156
-1.069 -1.521 0.909
-1.069 -1.542 0.656
-1.069 -1.521 0.402
-1.069 -1.458 0.155
-1.069 1.458 0.155
-1.069 1.521 0.402
-1.269 1.379 0.656
-1.269 1.356 0.909
-1.269 1.286 1.154
-1.269 1.173 1.382
-1.269 1.019 1.585
-1.269 0.831 1.756
-1.269 0.615 1.89
-1.269 0.378 1.982
-1.269 0.127 2.029
-1.269 -0.127 2.029
-1.269 -0.378 1.982
-1.269 -0.615 1.89
-1.269 -0.831 1.756
-1.269 -1.019 1.585
-1.269 -1.173 1.382
-1.269 -1.286 1.154
-1.269 -1.356 0.909
-1.269 -1.379 0.656
-1.269 -1.356 0.402
-1.269 -1.286 0.157
-1.269 1.286 0.157
-1.269 1.356 0.402
-1.445 1.191 0.656
-1.445 1.163 0.912
-1.445 1.081 1.156
-1.445 0.948 1.376
-1.445 0.771 1.563
-1.445 0.558 1.708
-1.445 0.319 1.803
-1.445 0.064 1.845
-1.445 -0.193 1.831
[...]
CELL_DATA 1554
SCALARS cell_data_0 double
LOOKUP_TABLE default
6.80697164942e-10
6.52343171962e-10
6.37132303018e-10
4.83373958739e-10
1.89789928908e-10
3.0727637794e-11
2.31238840232e-10
4.96881770824e-10
1.68961736984e-10
2.26662221755e-12
2.37504195206e-11
2.77462729249e-10
8.21550286358e-11
8.84856468823e-12
9.41032382702e-11
1.52489117738e-10
5.28943622036e-12
1.48222544822e-11
5.22584239903e-11
6.87293456214e-11
2.95744507679e-12
3.90842243198e-12
2.93114406272e-11
2.23401195859e-11
2.46616799064e-12
3.13571134533e-12
2.29075706477e-12
1.81410327161e-11
2.70461525927e-11
3.73159047058e-11
1.93611145104e-11
7.62359081305e-11
5.90441501832e-11
1.13617521112e-11
6.88970241788e-11
9.83417879158e-11
3.66260354196e-11
1.54662422491e-11
3.59174945567e-11
7.42856917185e-11
6.79277165127e-11
1.11358413859e-11
8.42598563975e-11
1.01478737925e-10
8.92724358554e-11
3.77868798994e-11
6.01899904669e-11
1.14989966325e-10
1.49545608348e-10
6.78645913816e-11
1.04600541817e-10
1.93651082073e-10
1.55271113864e-10
4.92993833733e-11
1.3085602221e-10
1.59276230507e-10
1.02619036746e-10
4.02952514722e-11
4.07462055118e-11
1.8751692601e-10
1.37988017466e-10
7.09535715482e-11
1.77202453309e-10
2.42786931091e-10
2.45923154896e-10
1.21285703325e-10
1.23682883808e-10
1.40840001133e-10
2.16355170271e-10
2.35842608703e-11
1.4492267291e-10
1.43689180902e-10
2.75283331675e-10
1.58899726362e-10
1.53477319277e-10
1.49600446744e-10
2.71177405694e-10
2.68378508186e-11
1.49645053472e-10
1.34304326861e-10
2.29505736482e-10
1.23668935921e-10
1.28947690402e-10
1.32903793886e-10
2.13121032311e-10
9.1028512429e-12
1.13316203032e-10
1.26663138085e-10
1.527580952e-10
6.88498172718e-11
1.14930126404e-10
1.44275651132e-10
1.85030343523e-10
3.31597104183e-11
1.22328559663e-10
1.20235823882e-10
1.40971112485e-10
3.55648890378e-11
7.8723902149e-11
1.5718011269e-10
1.32426038546e-10
4.43826343009e-11
1.35978523009e-10
1.4145125803e-10
1.09208507038e-10
2.25172657735e-11
5.60895753084e-11
8.4325679402e-11
7.0488550028e-11
1.68045296772e-11
6.42404088464e-11
8.23841060924e-11
4.68905446866e-11
7.53279737258e-12
4.51131062305e-11
7.96246068726e-11
5.8847177477e-11
4.1246901002e-11
4.26343061556e-11
6.7741496786e-11
3.27153963814e-11
6.16618080554e-12
1.55847128272e-11
4.16986326277e-11
6.55721645966e-12
2.56821775259e-12
1.56603143768e-11
9.58233752065e-12
3.24722984264e-12
1.24877293943e-11
1.28641783053e-11
4.60315499203e-12
1.53941881562e-11
1.04025620845e-11
4.55475774206e-12
1.04090539542e-11
4.75101771249e-11
2.25537169864e-11
7.09797671139e-11
1.52938069956e-10
2.87085572076e-10
5.75095360135e-11
3.90522349192e-10
2.95376137439e-10
5.21672469479e-10
9.69133880818e-11
2.90650761009e-10
5.61788618639e-10
3.97247202181e-10
4.59056473225e-10
9.19740088313e-11
1.17335757435e-10
4.92932484971e-12
2.78928754389e-12
4.80207659027e-12
5.24472710673e-13
5.55337705394e-12
1.32540346333e-12
9.39649947933e-13
2.40629971222e-13
5.2061363599e-13
1.38783855894e-12
7.80280882475e-13
2.2815917735e-12
6.01491070458e-13
3.39491773463e-12
8.47817294504e-12
1.30680971458e-12
4.487889496e-11
4.66789134443e-11
7.98963077881e-12
1.49245039033e-13
5.85989344904e-12
5.04940361636e-12
8.89171379616e-13
1.77053553382e-12
1.17911293579e-13
8.72414054335e-13
3.91945947564e-13
2.36934282355e-12
3.43905862578e-12
1.86353192852e-12
1.09530954165e-12
2.10377947723e-12
5.63748416532e-13
3.48877445112e-12
7.79534522491e-13
6.70677895233e-13
1.59169931799e-12
5.82310498155e-12
1.41727575425e-11
1.5876493382e-11
4.63559362721e-11
1.34645338151e-10
7.91644914399e-11
9.91269099136e-11
4.02347115464e-11
1.79729331893e-11
1.14965031617e-10
8.34437787711e-11
1.03908504726e-11
3.51377766469e-12
1.62605200366e-12
1.92952977436e-12
1.30418411774e-12
2.007197418e-12
1.57192179497e-12
3.31880892278e-13
7.43343514895e-15
4.19388385687e-13
6.7245361611e-13
5.69679433555e-13
1.59895695249e-13
2.54838596121e-12
1.53076308679e-12
2.67128452244e-13
9.91508645371e-13
5.76178341515e-13
1.0346874073e-12
4.23441910852e-13
1.94930034052e-12
2.08983559499e-12
3.92461382864e-12
1.13041487131e-13
9.85169667264e-13
2.85040535479e-12
1.56049835198e-11
1.37359475242e-12
1.86993849895e-11
7.05255821708e-11
1.12081472472e-10
2.12123406778e-10
5.98152094848e-10
1.80998026321e-11
1.07104084178e-11
1.86249729026e-11
1.29314832103e-12
5.09219287739e-12
4.62668457142e-13
2.77721970971e-12
3.10719343073e-12
1.10140101263e-12
2.83157731637e-15
8.61407698424e-13
9.13556709655e-13
4.39986873115e-15
3.54431002432e-13
1.28617145062e-12
2.36461221606e-12
2.89594396318e-12
9.20164048791e-13
2.24656416359e-12
8.1818983618e-13
8.62565513345e-13
8.84297957396e-13
4.29200662708e-13
1.53525291108e-13
1.28247373713e-12
5.8144483128e-13
2.70643313297e-12
2.30326014878e-12
1.12338740317e-13
1.07109097095e-12
7.35101465103e-13
4.44767205141e-12
2.09286982837e-12
3.83616099799e-12
4.9918507736e-12
3.62452118733e-11
7.13031696367e-11
2.94483390507e-11
7.95281577092e-11
1.95743811365e-10
1.81808350551e-11
7.96445934606e-13
4.11369628239e-12
1.81445469069e-12
5.66518802679e-13
1.61082127678e-12
2.8809664615e-12
8.12678841474e-13
3.8969854984e-13
5.61846755726e-13
1.08371100582e-12
6.78729113994e-13
9.55668346606e-14
7.16253962133e-13
7.69962724397e-13
6.7512436147e-13
1.84004673394e-12
1.41285092082e-13
8.5211988144e-14
1.07474987801e-12
2.67278188902e-12
1.14133591602e-12
8.57883178078e-13
2.1215614021e-12
1.81733780722e-12
1.66883655157e-12
1.55269701374e-12
1.69009786758e-12
6.23001761256e-13
1.25137194764e-12
1.00442359158e-12
8.90514911857e-13
1.31747089799e-12
4.17796177424e-13
3.26296090946e-13
5.24473785395e-12
3.77221802069e-12
2.34452868893e-12
4.99578993275e-12
2.19105443832e-11
2.28666713305e-11
5.12175757136e-11
8.66078046526e-11
4.99540029205e-12
1.81961759609e-12
1.60392183419e-12
2.11449910559e-12
3.46744525825e-13
2.90130385528e-12
2.8858706442e-12
8.32469840812e-13
6.56436203661e-13
1.89754910078e-13
7.48154408005e-13
7.37974176219e-13
5.24539722957e-13
3.54677123472e-13
4.41503174958e-13
2.86410368251e-13
4.2225894702e-13
2.65354416884e-13
1.14651224296e-12
6.44798196369e-13
6.52401455536e-13
1.44284175756e-12
6.78253564181e-13
1.27950165853e-12
2.81696756875e-13
6.16693039774e-13
1.55868768547e-12
2.25953336504e-13
3.04352200684e-13
9.57315395289e-14
1.49381901753e-12
1.50353772673e-12
1.07802539437e-12
8.78385138478e-13
4.61828914732e-13
2.85047463546e-13
6.62660612608e-13
1.5219712145e-12
1.46729226979e-12
1.43057997479e-12
1.1864101752e-12
5.55302106378e-12
1.69975732193e-12
5.72537064088e-12
1.18073075814e-12
1.07257969997e-11
9.30231761436e-12
9.62468331902e-12
4.03680182517e-13
2.02237707534e-12
1.58783628141e-12
2.23706069717e-12
1.78881728354e-13
1.90457142027e-12
2.63845154174e-12
3.8801862831e-13
7.54544182321e-13
4.00190688023e-14
2.07149646313e-13
5.29650387882e-14
9.2689567937e-14
4.20304262826e-13
3.28651152871e-13
5.4412594492e-13
2.56245559751e-13
3.03804340489e-13
8.3366200861e-14
1.45108943691e-12
1.00731603641e-12
7.00982647976e-13
1.29715235512e-13
7.59081448915e-13
3.41984985755e-13
1.33532080872e-12
5.80352613132e-13
1.41794144634e-12
1.76687099683e-13
7.67545521329e-13
3.38645891435e-12
3.19866729397e-12
1.21997525349e-12
7.35797800963e-13
3.14609818989e-13
6.41339095938e-13
3.42261476195e-13
4.35067999001e-14
3.06431281673e-13
1.41220283288e-13
6.92813894129e-13
1.5240385027e-13
6.19358656357e-13
1.14277622539e-12
2.08549949224e-12
1.08665746408e-12
3.58489517229e-12
6.28422637394e-12
2.57087561824e-12
2.14923972246e-12
4.02717345244e-13
1.60053182332e-12
2.52136941809e-13
4.02557804471e-13
6.10022703655e-13
8.2342851246e-13
1.49999322311e-12
2.23585816569e-12
1.53960767832e-13
8.76479318211e-13
1.10162531516e-13
8.93784760895e-13
2.19579069006e-13
2.34355607846e-13
8.68251919191e-14
6.88636643444e-13
4.50140970255e-13
9.67699945399e-13
6.05935233242e-13
1.11341529458e-12
4.20916531698e-13
1.25622803321e-12
3.6863740268e-13
1.17412540759e-12
1.03146255639e-12
1.73762275906e-12
1.71456562954e-12
1.78421708135e-12
1.20089941456e-12
8.54944690288e-13
6.76092812329e-13
2.09995753302e-12
9.68500009866e-13
3.66970503674e-13
7.76360021887e-13
2.39566300778e-12
1.4734499849e-12
2.58150432029e-13
3.56663353238e-13
1.12508598004e-13
1.0469430906e-12
2.33032436119e-13
1.14896723278e-12
5.06023711757e-13
1.03666248977e-12
2.40655565825e-13
9.55730973502e-13
1.56559082679e-12
6.82224961458e-13
2.5197457867e-12
2.64594286331e-13
7.08388821637e-13
2.30842082786e-13
2.10652685901e-12
8.74697658693e-15
1.77289229458e-12
1.26586284539e-12
4.37335642179e-13
8.25919312335e-14
7.46780983204e-13
2.41535456998e-12
1.46747254651e-12
7.51880542323e-14
5.90826248992e-13
1.44186962386e-13
4.66122372659e-13
4.92432962583e-13
7.97007204683e-14
5.10378758879e-13
1.77393924683e-13
4.88592346125e-13
6.87686035546e-14
6.50110423942e-13
1.99605171048e-13
1.04236360755e-12
1.66239151858e-13
1.07810434813e-12
1.82380019901e-13
1.17743212032e-12
1.65982473399e-13
8.96010501006e-13
8.38046527754e-14
8.72060490792e-13
2.83292592094e-13
8.78814686673e-13
2.08594271738e-13
1.19936005699e-12
3.51502464579e-13
1.79907725805e-12
1.13160380381e-13
1.13336277325e-12
9.92651651482e-14
6.86316317083e-13
7.15584338728e-14
7.54467235942e-13
1.42490375682e-13
8.75484932607e-13
4.2735140484e-14
1.0667086691e-12
5.70454425079e-13
3.39161951401e-14
9.01897838605e-13
2.66295716657e-12
6.2573994248e-13
1.1822964327e-12
1.57974843242e-12
2.28702638893e-13
5.04235881234e-13
3.70807224023e-12
5.47310478011e-12
2.2163755037e-11
1.20440778495e-11
2.63749291721e-13
2.81097030398e-14
5.02619687934e-13
1.05887766772e-12
4.23502433937e-13
4.76775726696e-13
1.15854685685e-12
5.92410327698e-14
8.62576097664e-13
1.79658343442e-13
3.93218994965e-13
2.5570791591e-13
1.0100835351e-12
6.8006114325e-13
6.93098097558e-13
2.26540690154e-13
5.51199994577e-13
6.84358223845e-13
7.75917478751e-13
5.81270490446e-13
7.86127030979e-13
8.40713345423e-13
9.46986161832e-13
7.95005096966e-13
6.80606775313e-13
6.65795298322e-13
5.51302627283e-13
6.63389832934e-13
6.16414137289e-13
5.87216434267e-13
4.14585378692e-13
5.98254102498e-13
1.71745455815e-13
5.77831742099e-13
6.31524852305e-14
7.48514683543e-13
2.42931979914e-13
3.74448434641e-13
2.27973622739e-13
4.78207501129e-13
5.76028731674e-13
7.25988415011e-13
5.2199830297e-13
4.53041767038e-13
6.40596512596e-13
1.60838781178e-12
2.60913187031e-13
1.38121804464e-12
2.00463671325e-14
1.54947994127e-12
8.34609198853e-13
5.34501787314e-13
7.91174685916e-14
2.33375695128e-12
7.01882026641e-12
2.8196143758e-12
9.62055537183e-13
8.6566730779e-13
1.61980966857e-12
1.57044204448e-12
5.30135255991e-13
1.01226704741e-12
9.90985594387e-14
5.16599210105e-13
2.31629095748e-13
5.73477480566e-13
2.88027983797e-13
4.11037044068e-13
4.03233802527e-13
1.6753333588e-13
4.45971571738e-13
1.23063478922e-13
4.35853863781e-13
4.22412662033e-13
6.17198746131e-13
2.7289366458e-13
6.16125104739e-13
4.23809618866e-13
6.83330618601e-13
5.49145441757e-13
6.82565339236e-13
8.09405225482e-13
6.86820093673e-13
7.48685371667e-13
5.56229740699e-13
6.98376445944e-13
5.80096020965e-13
9.51263778443e-13
3.69871888112e-13
9.74896424761e-13
2.92238110134e-13
8.63767195983e-13
1.68622469413e-13
4.45271757167e-13
3.75459386185e-13
3.49332721419e-13
3.070219761e-13
1.6069304393e-13
2.17007435367e-13
1.05294776714e-14
4.2166263918e-13
6.28860227141e-14
8.10416284291e-13
1.90181912178e-13
6.49518399703e-13
7.40680781004e-13
3.03456668876e-12
7.72026807308e-12
1.04526940886e-12
5.92234671006e-13
4.79603058409e-12
4.13956170156e-12
6.08245044005e-13
9.64224683127e-13
3.69199594147e-13
1.63623546411e-12
1.80388282075e-13
1.09951074e-12
9.59655821372e-14
1.18754769306e-13
2.07459707951e-13
8.28022373938e-13
1.94586121153e-13
4.87356565381e-13
2.75127467134e-13
6.4072324855e-13
2.32306069619e-13
6.78757660408e-13
3.29442896153e-13
8.65257814185e-13
6.49710619931e-13
7.96123057214e-13
2.52272671739e-13
5.08320600266e-13
5.59996752548e-13
5.25036928888e-13
6.4733539436e-13
3.61865405343e-13
5.78067630438e-13
3.41174697031e-13
6.43244995045e-13
3.55251398959e-13
7.61223653327e-13
2.64696477623e-13
1.00347869262e-12
1.75765479198e-13
6.5592582785e-13
6.72173347889e-14
4.80042278016e-13
3.75036402707e-13
3.18910530682e-13
1.29683453605e-13
2.75422411167e-14
2.67913742168e-13
2.11772830185e-13
1.05771229438e-13
2.8848462987e-13
1.12876710606e-13
3.74713550948e-13
7.70023620936e-13
4.42309768393e-12
1.3617753997e-11
1.0428603864e-11
1.05121208114e-11
1.01855979935e-11
6.65111395946e-12
9.56213163079e-13
6.14012125636e-13
3.14572752111e-13
6.68155021328e-13
3.29289914958e-13
5.16505993216e-13
3.07545719825e-13
2.94308925616e-14
6.44600192465e-13
5.32664827059e-13
6.73364996985e-13
1.29320419321e-14
6.92315008161e-13
9.1940861036e-14
4.66961521358e-13
2.17060411256e-13
3.1930528856e-13
5.61970588356e-13
2.48593782709e-13
5.39481695855e-13
1.8045017467e-13
8.34875932197e-13
1.32453222689e-14
8.09149481062e-13
3.31724147137e-13
9.16956999225e-13
3.38559827284e-13
7.27779046129e-13
2.47453369153e-13
6.62443364963e-13
3.38160498604e-13
1.02192624241e-12
7.73725420997e-13
9.85847356011e-13
7.06870990765e-13
8.34011004964e-13
4.89179370596e-13
5.1223995573e-14
4.96627150367e-13
2.48998823872e-13
2.75797601367e-14
8.82076034028e-14
2.56019960717e-13
4.35204381496e-13
2.66900810168e-13
8.09288751258e-14
3.18262110392e-14
8.75046895746e-13
1.13768867628e-12
6.31278242416e-12
1.07430981901e-11
2.05958848623e-11
1.99358560201e-11
2.15965064598e-11
6.93841334695e-12
4.3186052786e-13
1.43467287387e-12
2.52633071014e-12
3.41359204645e-13
1.79602836149e-13
1.8051882328e-13
2.2777262139e-13
2.94958077538e-14
3.18994935642e-13
1.01514762908e-13
3.65531358486e-13
1.78905057276e-13
4.68420317565e-13
7.43713132545e-14
5.77265453298e-13
1.89454315211e-13
8.53705915561e-13
3.62306049034e-13
9.45344016397e-13
2.00355493968e-13
7.80319082788e-13
2.33584152247e-13
7.69333697944e-13
3.66346649005e-13
8.36008640386e-13
2.18281518994e-13
4.69466503787e-13
1.16534218224e-13
9.22629055142e-13
6.62049446017e-13
4.04685138213e-13
5.9931536097e-13
1.37428292529e-13
6.47185498671e-13
3.69891190133e-13
5.77023295459e-14
3.86010284645e-13
2.5780446561e-13
3.66186139458e-13
3.36564457569e-14
5.40500193956e-14
1.60247040939e-13
7.39070143997e-13
6.20696928931e-14
2.58083163574e-12
3.04852299632e-12
2.66895126952e-12
1.07069719789e-11
3.79104330824e-11
3.22499785353e-11
1.97551242948e-11
5.73740297934e-12
2.57529314173e-13
1.50961366224e-12
2.40207918309e-14
2.72139168818e-13
1.03924949592e-13
1.23851299053e-13
1.05534679202e-13
1.55945257998e-13
1.46780344058e-13
4.4528571443e-14
4.50469157499e-14
8.48357260702e-14
3.51269751899e-14
1.64984885335e-13
2.98453685533e-14
7.98456583141e-14
2.65888132662e-13
5.10952426342e-15
4.53146276332e-13
1.3589936116e-13
6.57016571962e-14
2.24817076031e-13
1.04483491733e-13
1.12338705641e-13
3.97012860869e-13
4.17479288118e-13
4.54379446189e-13
1.37963916886e-12
6.73127189944e-13
3.89609651085e-13
6.35033197207e-13
1.77559111983e-13
3.25354635087e-13
2.12181926764e-14
1.28991140828e-13
9.32805310949e-14
5.70402378601e-14
8.31534529573e-14
6.12149584493e-13
2.00096225579e-12
4.58496243969e-13
1.4436503914e-12
8.28552614114e-12
1.47789903818e-11
5.7753309134e-11
4.0989290078e-11
1.96183909924e-11
1.73756267476e-12
8.50113625746e-13
7.55693278096e-13
9.25907871516e-14
1.05578069623e-13
7.31951053897e-15
7.29173040395e-14
1.00991025103e-13
1.33107049936e-13
1.23476021554e-14
9.88983247873e-14
5.25701805825e-14
2.66762892584e-14
1.9576828563e-13
2.75901329551e-14
3.07924982658e-13
1.48365329791e-14
5.13042933766e-13
1.36142703257e-13
4.8150847377e-13
2.88062496486e-13
6.36641384231e-13
1.86844169857e-13
6.81707755752e-14
1.51818223992e-13
3.09826192763e-13
3.26822710381e-13
2.84222504244e-13
3.79496520647e-13
8.42050297581e-14
7.77988638426e-14
2.43732815476e-13
2.09492248708e-13
1.69041322214e-13
1.90911071633e-13
8.68194592514e-14
2.64499370197e-12
1.77111815338e-12
2.63127939764e-12
2.61705752037e-12
2.96209691855e-11
5.16065293749e-11
5.3963737895e-11
1.89070678299e-11
1.4529207066e-12
8.20034304065e-13
1.25935464481e-13
3.41278203663e-13
2.60590107688e-14
3.83085002401e-14
4.71845080637e-14
4.82190297239e-14
4.01850281728e-15
4.91452343097e-14
2.08650429033e-13
1.66939284159e-13
2.54657616152e-13
2.33778759701e-13
5.14359729763e-13
7.95092323506e-13
9.76473943038e-14
2.82545860011e-13
3.29040179665e-13
8.1437787658e-14
5.48703462725e-13
3.92075467147e-13
1.61167241767e-13
4.29159475606e-13
1.6485197772e-14
1.03006204764e-14
2.03686927847e-13
1.11710600066e-13
5.79616595337e-14
2.50661620921e-13
5.36159812926e-13
6.91816004064e-13
2.8852718548e-12
2.36784719692e-12
1.10071692916e-11
1.07087434436e-11
1.69376894331e-11
6.78078317205e-11
2.08033983908e-11
7.42086993469e-12
1.15494195798e-12
1.17600090124e-12
5.5461686543e-13
2.36363198555e-14
5.42149592925e-14
1.21201610271e-14
2.87333510999e-14
7.18398350808e-14
1.69477882639e-13
9.3406621015e-14
2.91053249398e-14
5.45040267078e-14
2.61958324441e-14
9.32386698201e-14
5.28045069481e-13
8.08101181453e-14
2.93908176858e-14
2.37446675525e-13
5.46856140975e-14
1.38666933266e-13
2.28506745259e-13
1.91947734117e-14
2.47596811011e-14
2.21221966972e-13
1.12366400234e-12
1.35643326493e-12
2.28229342108e-12
2.70546935856e-12
5.90475673256e-12
2.88411512754e-12
1.78575009615e-11
3.7526001056e-11
2.55525135318e-11
8.94125181862e-12
4.30840636297e-12
1.88320405626e-12
1.17536476646e-12
5.78014930066e-14
2.33968261983e-13
1.42457314473e-13
1.1000108323e-13
5.38950774174e-14
1.93879749344e-13
6.9265630929e-14
5.56759583921e-14
8.13772350973e-14
7.66861208983e-14
7.36767076977e-14
1.78212091158e-13
2.29594730733e-14
1.71050474034e-13
1.8633928907e-13
2.6378669065e-13
6.16829462109e-13
1.65178270589e-12
1.59127391348e-12
1.8199221518e-12
1.29295527572e-11
8.69486666278e-12
9.04854179895e-11
6.78612818979e-11
1.74820097115e-11
1.27009305249e-11
3.54507940839e-13
1.67729135959e-12
1.15433525939e-12
9.16426846221e-13
4.95288280241e-13
1.28669599479e-13
1.60464410332e-13
2.75283598855e-13
8.86450994335e-15
3.63909479179e-13
1.86256297827e-13
1.61275395013e-14
5.80432239185e-13
9.27904698928e-13
1.65882177569e-12
1.62121125514e-12
1.20508468382e-11
2.07347761344e-11
4.74636578672e-11
7.40915511161e-11
7.05696798755e-11
5.78642787423e-11
8.56537619411e-12
7.87771959669e-12
1.92594640131e-12
2.63807792902e-12
9.33848398033e-13
4.73243761824e-14
1.35587150432e-12
4.34011700092e-13
5.41741215292e-13
7.73355590388e-12
6.14015206264e-12
1.31947737157e-11
7.82350052575e-11
8.22048011343e-11
9.12158558636e-11
8.69299586529e-11
2.29573487713e-11
1.50720722647e-11
7.39460374846e-12
2.73234598016e-12
2.92148282498e-12
3.17148324226e-12
5.6976940186e-12
6.29929539343e-11
6.28736162466e-11
5.48759631251e-12
4.86913495402e-11
5.28429733325e-11
1.70094108292e-10
1.66955771474e-10
4.83521865053e-11
5.98206510125e-11
6.53485123144e-11
8.29163798407e-11
6.72793273233e-11
4.60309330962e-11
7.4352715843e-12
1.83457213802e-11
5.62434983907e-11
1.12077361461e-13
9.67481244104e-11
1.39277896644e-11
3.84631562785e-11
9.26893751092e-12
8.51072082853e-11
1.6728481909e-11
6.72395909162e-11
1.33827641443e-11
3.51808573354e-11
1.07195831885e-11
1.3334872824e-11
1.76620887683e-11
6.81123247724e-12
4.80600348932e-12
7.45111926304e-12
5.60877574061e-13
3.48475407562e-13
3.78503612328e-12
5.09288834864e-12
1.16989049565e-11
2.06304127679e-11
3.25173980651e-11
1.02115440284e-10
5.10703561165e-11
1.21082459309e-10
2.21619761387e-10
3.64514489225e-10
1.94073553287e-10
6.71534504015e-10
4.75556727865e-10
1.02910649504e-10
4.04334563433e-11
6.10063908512e-10
4.95121120747e-10
5.82497504206e-11
3.57395349133e-10
1.32565585124e-10
3.40807992241e-10
5.8159178046e-11
7.14242757462e-11
4.16764176001e-11
3.89154230209e-11
4.37010430458e-12
3.30234347384e-12
3.90413199541e-12
1.45403602571e-12
3.9020072417e-13
1.26870475451e-12
1.43382746899e-11
2.40601063497e-11
1.6185969499e-12
9.55715521813e-12
2.83443061392e-11
5.20356683557e-12
6.44094573421e-11
8.75772028991e-12
7.90588751997e-11
3.28566865017e-12