# vtk DataFile Version 3.0
File Name: Molecule/methanol/methanol_2-16_06.vtk
ASCII
DATASET UNSTRUCTURED_GRID
FIELD FieldData 1
TIME 1 1 double
0.0
POINTS 96 double
1.611 0.0 -0.359
1.445 -0.731 -0.342
1.403 0.0 -0.933
1.252 -0.666 -0.918
0.98 -1.317 -0.296
0.828 -1.2 -0.876
0.308 -1.642 -0.229
0.216 -1.496 -0.815
-0.438 -1.642 -0.155
-0.464 -1.496 -0.747
-1.11 -1.317 -0.088
-1.076 -1.2 -0.686
-1.576 -0.731 -0.042
-1.5 -0.666 -0.644
-1.742 0.0 -0.025
-1.651 0.0 -0.629
-1.576 0.731 -0.042
-1.5 0.666 -0.644
-1.11 1.317 -0.088
-1.076 1.2 -0.686
-0.438 1.642 -0.155
-0.464 1.496 -0.747
0.308 1.642 -0.229
0.216 1.496 -0.815
0.98 1.317 -0.296
0.828 1.2 -0.876
1.445 0.731 -0.342
1.252 0.666 -0.918
1.907 0.0 0.656
1.763 0.722 0.656
1.763 0.361 1.281
1.763 -0.361 1.281
1.763 -0.722 0.656
1.763 -0.361 0.03
1.763 0.361 0.03
1.354 1.123 1.377
1.354 0.554 1.87
1.354 -0.19 1.977
1.354 -0.874 1.664
1.354 -1.281 1.032
1.354 -1.281 0.28
1.354 1.335 0.656
0.741 1.571 1.412
0.741 1.087 2.019
0.741 0.388 2.356
0.741 -0.388 2.356
0.741 -1.087 2.019
0.741 -1.571 1.412
0.741 -1.744 0.656
0.741 1.744 0.656
0.019 1.744 1.378
0.019 1.335 1.99
0.019 0.722 2.399
0.019 -0.0 2.543
0.019 -0.722 2.399
0.019 -1.335 1.99
0.019 -1.744 1.378
0.019 -1.888 0.656
0.019 1.888 0.656
-0.703 1.744 0.656
-0.703 1.571 1.412
-0.703 1.087 2.019
-0.703 0.388 2.356
-0.703 -0.388 2.356
-0.703 -1.087 2.019
-0.703 -1.571 1.412
-0.703 -1.744 0.656
-1.316 1.335 0.656
-1.316 1.123 1.377
-1.316 0.554 1.87
-1.316 -0.19 1.977
-1.316 -0.874 1.664
-1.316 -1.281 1.032
-1.725 0.722 0.656
-1.725 0.361 1.281
-1.725 -0.361 1.281
-1.725 -0.722 0.656
-1.868 0.0 0.656
1.21 -0.384 -1.402
0.648 -0.871 -1.742
0.648 -0.189 -2.053
1.21 0.384 -1.402
0.648 0.552 -1.946
0.648 1.118 -1.456
-0.12 -1.149 -1.755
-0.12 -0.544 -2.172
-0.12 0.185 -2.261
-0.12 0.872 -2.0
-0.12 1.359 -1.451
-0.887 -1.276 -1.112
-0.887 -0.871 -1.742
-0.887 -0.189 -2.053
-0.887 0.552 -1.946
-0.887 1.118 -1.456
-1.449 -0.384 -1.402
-1.449 0.384 -1.402

CELLS 188 752
3 0 1 2
3 2 1 3
3 1 4 3
3 3 4 5
3 4 6 5
3 5 6 7
3 6 8 7
3 7 8 9
3 8 10 9
3 9 10 11
3 10 12 11
3 11 12 13
3 12 14 13
3 13 14 15
3 14 16 15
3 15 16 17
3 16 18 17
3 17 18 19
3 18 20 19
3 19 20 21
3 20 22 21
3 21 22 23
3 22 24 23
3 23 24 25
3 24 26 25
3 25 26 27
3 26 0 27
3 27 0 2
3 28 29 30
3 28 30 31
3 28 31 32
3 28 32 33
3 28 33 34
3 28 34 29
3 30 29 35
3 30 35 36
3 30 36 37
3 31 30 37
3 31 37 38
3 31 38 39
3 32 31 39
3 32 39 40
3 33 32 40
3 29 41 35
3 35 41 42
3 35 42 43
3 36 35 43
3 36 43 44
3 37 36 44
3 37 44 45
3 38 37 45
3 38 45 46
3 38 46 47
3 39 38 47
3 39 47 48
3 40 39 48
3 41 49 42
3 42 49 50
3 42 50 51
3 43 42 51
3 43 51 52
3 44 43 52
3 44 52 53
3 45 44 53
3 45 53 54
3 46 45 54
3 46 54 55
3 47 46 55
3 47 55 56
3 48 47 56
3 48 56 57
3 49 58 50
3 50 58 59
3 50 59 60
3 51 50 60
3 51 60 61
3 52 51 61
3 52 61 62
3 53 52 62
3 53 62 63
3 54 53 63
3 54 63 64
3 55 54 64
3 55 64 65
3 56 55 65
3 56 65 66
3 57 56 66
3 60 59 67
3 60 67 68
3 61 60 68
3 61 68 69
3 62 61 69
3 62 69 70
3 63 62 70
3 63 70 71
3 64 63 71
3 65 64 71
3 65 71 72
3 66 65 72
3 68 67 73
3 68 73 74
3 69 68 74
3 70 69 74
3 70 74 75
3 71 70 75
3 72 71 75
3 72 75 76
3 74 73 77
3 75 74 77
3 76 75 77
3 76 77 14
3 76 14 12
3 76 12 10
3 76 10 72
3 72 10 66
3 66 10 8
3 66 8 57
3 57 8 6
3 57 6 48
3 48 6 4
3 48 4 40
3 40 4 1
3 40 1 33
3 33 1 0
3 33 0 34
3 34 0 26
3 34 26 29
3 29 26 41
3 41 26 24
3 41 24 49
3 49 24 22
3 49 22 58
3 58 22 20
3 58 20 59
3 59 20 18
3 59 18 67
3 67 18 16
3 67 16 73
3 73 16 14
3 73 14 77
3 78 79 80
3 81 78 80
3 81 80 82
3 81 82 83
3 79 84 85
3 80 79 85
3 80 85 86
3 82 80 86
3 82 86 87
3 83 82 87
3 83 87 88
3 84 89 90
3 85 84 90
3 85 90 91
3 86 85 91
3 86 91 92
3 87 86 92
3 87 92 93
3 88 87 93
3 90 89 94
3 91 90 94
3 91 94 95
3 92 91 95
3 93 92 95
3 93 95 17
3 93 17 19
3 93 19 21
3 93 21 88
3 88 21 23
3 88 23 83
3 83 23 25
3 83 25 27
3 83 27 81
3 81 27 2
3 81 2 78
3 78 2 3
3 78 3 79
3 79 3 5
3 79 5 7
3 79 7 84
3 84 7 9
3 84 9 89
3 89 9 11
3 89 11 13
3 89 13 94
3 94 13 15
3 94 15 95
3 95 15 17

CELL_TYPES 188
5
5
5
5
5
5
5
5
5
5
5
5
5
5
5
5
5
5
5
5
5
5
5
5
5
5
5
5
5
5
5
5
5
5
5
5
5
5
5
5
5
5
5
5
5
5
5
5
5
5
5
5
5
5
5
5
5
5
5
5
5
5
5
5
5
5
5
5
5
5
5
5
5
5
5
5
5
5
5
5
5
5
5
5
5
5
5
5
5
5
5
5
5
5
5
5
5
5
5
5
5
5
5
5
5
5
5
5
5
5
5
5
5
5
5
5
5
5
5
5
5
5
5
5
5
5
5
5
5
5
5
5
5
5
5
5
5
5
5
5
5
5
5
5
5
5
5
5
5
5
5
5
5
5
5
5
5
5
5
5
5
5
5
5
5
5
5
5
5
5
5
5
5
5
5
5
5
5
5
5
5
5
5
5
5
5
5
5

CELL_DATA 188
SCALARS cell_data_0 double
LOOKUP_TABLE default
6.19775922762e-06
4.23965374247e-06
1.70947060123e-05
9.44407660272e-07
6.40037792605e-08
1.51641228914e-07
1.13662646613e-07
2.81948093148e-07
8.4438656734e-08
3.75965090561e-08
3.38122089288e-08
2.06926095411e-07
2.75783336739e-07
2.75630354074e-07
1.83221259658e-07
3.55744785821e-07
3.40677298978e-07
3.65102084428e-07
2.00761092621e-07
2.38850403007e-07
2.82409797793e-07
2.60461474124e-07
2.33407134709e-07
2.07529652439e-07
1.0600207387e-07
6.62042162322e-07
1.14378952346e-07
1.21327474251e-06
1.27235459171e-08
7.27311879288e-09
5.86295813482e-09
3.29265302863e-08
2.18435539963e-08
7.54112295229e-11
1.82959007884e-08
4.36429640648e-08
1.21490934043e-08
2.14799527059e-08
4.61165336721e-08
7.41405850516e-08
3.59644738879e-08
2.78749943616e-08
2.04764514385e-08
6.94344065735e-08
1.66752028441e-07
1.39962203462e-07
7.7562747201e-08
4.51870571887e-08
1.42896311656e-08
5.0560627934e-08
9.9022314585e-08
1.41470605066e-07
1.76675051979e-07
1.41781811148e-07
9.35686095309e-08
1.13769395449e-08
2.26212303051e-07
2.75247793695e-07
2.06173256931e-07
1.55821870216e-07
9.63840602137e-08
4.99142831579e-08
2.49775659193e-09
5.11803030693e-08
8.76900906535e-08
1.45053443614e-07
1.71058024555e-07
2.11447306656e-07
2.26411172181e-07
1.6917541737e-07
7.39357791567e-08
3.06571362926e-07
2.02953513576e-07
9.53562168729e-08
1.33026206523e-07
4.84910069674e-08
6.33329135135e-08
1.29935121043e-08
3.13033361768e-10
1.65007739089e-08
5.43006335797e-08
4.47756845423e-08
1.17793339939e-07
8.49193646915e-08
1.64609324919e-07
9.2099701658e-08
7.03651308352e-08
2.61750294303e-08
1.43318215837e-08
8.60370900998e-09
2.34362287353e-09
3.91188038531e-09
1.44854832465e-09
8.16299011809e-09
1.50209226434e-10
3.97784493193e-09
4.0737655711e-09
1.0631138294e-08
2.61255214099e-08
2.32462269591e-08
1.67840370721e-08
8.5219357867e-09
5.75302334181e-09
5.06211147655e-09
9.19454687727e-09
1.21827790963e-08
2.72801398731e-08
2.00330031078e-08
1.13503265242e-08
1.4250137336e-08
1.57877706199e-07
2.09581856121e-07
1.62664959384e-07
2.99501715334e-07
3.33779928384e-07
1.8323109807e-07
1.77977454953e-07
1.74842707683e-07
1.37937153223e-07
1.61849477546e-07
4.6745383437e-08
1.53451288001e-05
1.68099920942e-05
9.79347103015e-06
2.5123020628e-08
7.56714314511e-08
3.04097457254e-08
1.21120965648e-07
1.37683298874e-07
1.34516787167e-07
9.66125269763e-08
2.19747859651e-07
1.3084010005e-07
2.09462365993e-07
1.85273174704e-07
1.9243907329e-07
1.69848575457e-07
1.79816168172e-07
1.55749995227e-07
1.56196889027e-07
7.87428398212e-05
1.3560655047e-05
6.52268504594e-06
2.6694505177e-06
1.29944047464e-06
4.92432225529e-05
4.08933135046e-05
4.14233585761e-05
7.09700738854e-07
7.99912877868e-07
1.97538092001e-07
1.22640690371e-07
2.33381677723e-07
6.75015290007e-09
4.28224361834e-07
1.08845895299e-07
1.6190739912e-07
4.80765233474e-08
7.92681392671e-08
1.89375194546e-08
2.16418765859e-07
9.47959905633e-08
9.26520866792e-08
3.95884845063e-07
4.50263580719e-07
2.6284676596e-07
9.63300833029e-08
4.13227060266e-08
9.18171835596e-09
1.14400084562e-08
1.81960342276e-07
9.95902550004e-07
4.64049105835e-07
2.27601390804e-06
2.45887216576e-05
6.00780904449e-06
1.43370484409e-05
1.33106259596e-06
1.34974323674e-06
1.49845010066e-06
1.17726156714e-08
1.84161964102e-07
3.99698049946e-07
9.3022347293e-08
6.12214581951e-07
8.04090194975e-08
1.85180405057e-08
7.94770418087e-08

