# vtk DataFile Version 3.0
File Name: Molecule/methanol/methanol_3.0-0.vtk
ASCII
DATASET UNSTRUCTURED_GRID
FIELD FieldData 1
TIME 1 1 double
0.0
POINTS 145 double
1.611 0.0 -0.359
1.483 -0.645 -0.346
1.403 0.0 -0.933
1.287 -0.587 -0.921
1.12 -1.191 -0.31
0.956 -1.085 -0.888
0.576 -1.556 -0.256
0.46 -1.418 -0.839
-0.065 -1.684 -0.192
-0.124 -1.534 -0.781
-0.707 -1.556 -0.128
-0.708 -1.418 -0.723
-1.251 -1.191 -0.074
-1.204 -1.085 -0.673
-1.614 -0.645 -0.038
-1.535 -0.587 -0.64
-1.742 0.0 -0.025
-1.651 0.0 -0.629
-1.614 0.645 -0.038
-1.535 0.587 -0.64
-1.251 1.191 -0.074
-1.204 1.085 -0.673
-0.707 1.556 -0.128
-0.708 1.418 -0.723
-0.065 1.684 -0.192
-0.124 1.534 -0.781
0.576 1.556 -0.256
0.46 1.418 -0.839
1.12 1.191 -0.31
0.956 1.085 -0.888
1.483 0.645 -0.346
1.287 0.587 -0.921
1.907 0.0 0.656
1.814 0.583 0.656
1.814 0.292 1.161
1.814 -0.292 1.161
1.814 -0.583 0.656
1.814 -0.292 0.15
1.814 0.292 0.15
1.546 0.933 1.255
1.546 0.461 1.665
1.546 -0.158 1.754
1.546 -0.727 1.494
1.546 -1.065 0.968
1.546 -1.065 0.343
1.546 0.933 0.056
1.546 1.109 0.656
1.128 1.411 1.24
1.128 1.08 1.735
1.128 0.584 2.066
1.128 -0.0 2.183
1.128 -0.584 2.066
1.128 -1.08 1.735
1.128 -1.411 1.24
1.128 -1.527 0.656
1.128 -1.411 0.071
1.128 1.411 0.071
1.128 1.527 0.656
0.602 1.698 1.238
0.602 1.417 1.758
0.602 0.982 2.158
0.602 0.441 2.396
0.602 -0.148 2.445
0.602 -0.721 2.3
0.602 -1.216 1.976
0.602 -1.579 1.51
0.602 -1.771 0.951
0.602 -1.771 0.36
0.602 1.698 0.073
0.602 1.795 0.656
0.019 1.795 1.239
0.019 1.527 1.765
0.019 1.109 2.183
0.019 0.583 2.451
0.019 -0.0 2.543
0.019 -0.583 2.451
0.019 -1.109 2.183
0.019 -1.527 1.765
0.019 -1.795 1.239
0.019 -1.888 0.656
0.019 1.888 0.656
-0.564 1.795 0.656
-0.564 1.698 1.238
-0.564 1.417 1.758
-0.564 0.982 2.158
-0.564 0.441 2.396
-0.564 -0.148 2.445
-0.564 -0.721 2.3
-0.564 -1.216 1.976
-0.564 -1.579 1.51
-0.564 -1.771 0.951
-0.564 -1.771 0.36
-1.09 1.527 0.656
-1.09 1.411 1.24
-1.09 1.08 1.735
-1.09 0.584 2.066
-1.09 -0.0 2.183
-1.09 -0.584 2.066
-1.09 -1.08 1.735
-1.09 -1.411 1.24
-1.09 -1.527 0.656
-1.508 1.109 0.656
-1.508 0.933 1.255
-1.508 0.461 1.665
-1.508 -0.158 1.754
-1.508 -0.727 1.494
-1.508 -1.065 0.968
-1.508 -1.065 0.343
-1.776 0.583 0.656
-1.776 0.292 1.161
-1.776 -0.292 1.161
-1.776 -0.583 0.656
-1.868 -0.0 0.656
1.298 -0.294 -1.246
0.966 -0.711 -1.557
0.966 -0.154 -1.812
1.298 0.294 -1.246
0.966 0.451 -1.725
0.966 0.913 -1.324
0.468 -1.278 -1.353
0.468 -0.884 -1.846
0.468 -0.316 -2.12
0.468 0.316 -2.12
0.468 0.884 -1.846
0.468 1.278 -1.353
-0.12 -1.418 -1.325
-0.12 -1.085 -1.823
-0.12 -0.587 -2.155
-0.12 0.0 -2.272
-0.12 0.587 -2.155
-0.12 1.085 -1.823
-0.12 1.418 -1.325
-0.707 -1.278 -1.353
-0.707 -0.884 -1.846
-0.707 -0.316 -2.12
-0.707 0.316 -2.12
-0.707 0.884 -1.846
-0.707 1.278 -1.353
-1.205 -1.041 -1.043
-1.205 -0.711 -1.557
-1.205 -0.154 -1.812
-1.205 0.451 -1.725
-1.205 0.913 -1.324
-1.538 -0.294 -1.246
-1.538 0.294 -1.246

CELLS 286 1144
3 0 1 2
3 2 1 3
3 1 4 3
3 3 4 5
3 4 6 5
3 5 6 7
3 6 8 7
3 7 8 9
3 8 10 9
3 9 10 11
3 10 12 11
3 11 12 13
3 12 14 13
3 13 14 15
3 14 16 15
3 15 16 17
3 16 18 17
3 17 18 19
3 18 20 19
3 19 20 21
3 20 22 21
3 21 22 23
3 22 24 23
3 23 24 25
3 24 26 25
3 25 26 27
3 26 28 27
3 27 28 29
3 28 30 29
3 29 30 31
3 30 0 31
3 31 0 2
3 32 33 34
3 32 34 35
3 32 35 36
3 32 36 37
3 32 37 38
3 32 38 33
3 34 33 39
3 34 39 40
3 34 40 41
3 35 34 41
3 35 41 42
3 35 42 43
3 36 35 43
3 36 43 44
3 37 36 44
3 33 38 45
3 33 45 46
3 33 46 39
3 39 46 47
3 39 47 48
3 40 39 48
3 40 48 49
3 40 49 50
3 41 40 50
3 41 50 51
3 42 41 51
3 42 51 52
3 42 52 53
3 43 42 53
3 43 53 54
3 44 43 54
3 44 54 55
3 46 45 56
3 46 56 57
3 46 57 47
3 47 57 58
3 47 58 59
3 48 47 59
3 48 59 60
3 49 48 60
3 49 60 61
3 50 49 61
3 50 61 62
3 51 50 62
3 51 62 63
3 51 63 64
3 52 51 64
3 52 64 65
3 53 52 65
3 53 65 66
3 54 53 66
3 54 66 67
3 55 54 67
3 57 56 68
3 57 68 69
3 57 69 58
3 58 69 70
3 58 70 71
3 59 58 71
3 59 71 72
3 60 59 72
3 60 72 73
3 61 60 73
3 61 73 74
3 62 61 74
3 62 74 75
3 63 62 75
3 63 75 76
3 64 63 76
3 64 76 77
3 65 64 77
3 65 77 78
3 66 65 78
3 66 78 79
3 67 66 79
3 69 80 70
3 70 80 81
3 70 81 82
3 71 70 82
3 71 82 83
3 72 71 83
3 72 83 84
3 73 72 84
3 73 84 85
3 74 73 85
3 74 85 86
3 75 74 86
3 75 86 87
3 76 75 87
3 76 87 88
3 77 76 88
3 77 88 89
3 78 77 89
3 78 89 90
3 79 78 90
3 79 90 91
3 82 81 92
3 82 92 93
3 83 82 93
3 83 93 94
3 84 83 94
3 84 94 95
3 85 84 95
3 85 95 96
3 86 85 96
3 86 96 97
3 87 86 97
3 88 87 97
3 88 97 98
3 89 88 98
3 89 98 99
3 90 89 99
3 90 99 100
3 91 90 100
3 93 92 101
3 93 101 102
3 94 93 102
3 94 102 103
3 95 94 103
3 96 95 103
3 96 103 104
3 97 96 104
3 97 104 105
3 98 97 105
3 99 98 105
3 99 105 106
3 100 99 106
3 100 106 107
3 102 101 108
3 102 108 109
3 103 102 109
3 104 103 109
3 104 109 110
3 105 104 110
3 106 105 110
3 106 110 111
3 107 106 111
3 109 108 112
3 110 109 112
3 111 110 112
3 111 112 16
3 111 16 14
3 111 14 107
3 107 14 12
3 107 12 100
3 100 12 10
3 100 10 91
3 91 10 8
3 91 8 79
3 79 8 67
3 67 8 6
3 67 6 55
3 55 6 4
3 55 4 44
3 44 4 1
3 44 1 37
3 37 1 0
3 37 0 38
3 38 0 30
3 38 30 45
3 45 30 28
3 45 28 56
3 56 28 26
3 56 26 68
3 68 26 24
3 68 24 80
3 68 80 69
3 80 24 81
3 81 24 22
3 81 22 92
3 92 22 20
3 92 20 101
3 101 20 18
3 101 18 108
3 108 18 16
3 108 16 112
3 113 114 115
3 116 113 115
3 116 115 117
3 116 117 118
3 114 119 120
3 114 120 121
3 115 114 121
3 115 121 122
3 117 115 122
3 117 122 123
3 118 117 123
3 118 123 124
3 119 125 126
3 120 119 126
3 120 126 127
3 121 120 127
3 121 127 128
3 122 121 128
3 122 128 129
3 123 122 129
3 123 129 130
3 124 123 130
3 124 130 131
3 126 125 132
3 126 132 133
3 127 126 133
3 127 133 134
3 128 127 134
3 128 134 135
3 129 128 135
3 129 135 136
3 130 129 136
3 130 136 137
3 131 130 137
3 132 138 139
3 133 132 139
3 134 133 139
3 134 139 140
3 135 134 140
3 135 140 141
3 136 135 141
3 136 141 142
3 137 136 142
3 139 138 143
3 140 139 143
3 140 143 144
3 141 140 144
3 142 141 144
3 142 144 19
3 142 19 21
3 142 21 137
3 137 21 23
3 137 23 131
3 131 23 25
3 131 25 27
3 131 27 124
3 124 27 29
3 124 29 118
3 118 29 31
3 118 31 116
3 116 31 2
3 116 2 113
3 113 2 3
3 113 3 114
3 114 3 5
3 114 5 119
3 119 5 7
3 119 7 125
3 125 7 9
3 125 9 11
3 125 11 132
3 132 11 138
3 138 11 13
3 138 13 15
3 138 15 143
3 143 15 17
3 143 17 144
3 144 17 19

CELL_TYPES 286
5
5
5
5
5
5
5
5
5
5
5
5
5
5
5
5
5
5
5
5
5
5
5
5
5
5
5
5
5
5
5
5
5
5
5
5
5
5
5
5
5
5
5
5
5
5
5
5
5
5
5
5
5
5
5
5
5
5
5
5
5
5
5
5
5
5
5
5
5
5
5
5
5
5
5
5
5
5
5
5
5
5
5
5
5
5
5
5
5
5
5
5
5
5
5
5
5
5
5
5
5
5
5
5
5
5
5
5
5
5
5
5
5
5
5
5
5
5
5
5
5
5
5
5
5
5
5
5
5
5
5
5
5
5
5
5
5
5
5
5
5
5
5
5
5
5
5
5
5
5
5
5
5
5
5
5
5
5
5
5
5
5
5
5
5
5
5
5
5
5
5
5
5
5
5
5
5
5
5
5
5
5
5
5
5
5
5
5
5
5
5
5
5
5
5
5
5
5
5
5
5
5
5
5
5
5
5
5
5
5
5
5
5
5
5
5
5
5
5
5
5
5
5
5
5
5
5
5
5
5
5
5
5
5
5
5
5
5
5
5
5
5
5
5
5
5
5
5
5
5
5
5
5
5
5
5
5
5
5
5
5
5
5
5
5
5
5
5
5
5
5
5
5
5
5
5
5
5
5
5
5
5
5
5
5
5

CELL_DATA 286
SCALARS cell_data_0 double
LOOKUP_TABLE default
3.55306989262e-06
1.87354697543e-06
1.17016017594e-05
1.04231507774e-06
1.25581427103e-08
5.18797564525e-08
4.0400839293e-08
1.7038479785e-09
4.99945181014e-08
1.19717134724e-07
1.36495426725e-07
9.1250995798e-08
1.15390949673e-07
1.28286387018e-07
1.92463278973e-07
1.61335792997e-07
1.64067173145e-07
1.95170160838e-07
2.17828577007e-07
2.44912649069e-07
2.20950261631e-07
2.53196872749e-07
2.31965006248e-07
1.99050710357e-07
1.97176692057e-07
1.53434025619e-07
1.70860478274e-07
2.266230847e-07
2.85992564212e-08
7.24290144122e-07
5.04061358809e-07
2.20836995683e-06
1.26840509037e-09
2.26355404218e-09
3.19991045237e-09
8.65964983335e-09
6.8284441138e-09
1.36937074467e-09
1.60220409021e-08
1.88854048364e-08
7.74941664878e-09
1.02942665361e-08
1.79510620311e-08
1.30425207796e-08
1.18664350823e-09
2.12004710005e-08
2.50756725202e-08
3.46532186701e-08
1.36113128709e-08
3.08726642171e-08
6.69954763263e-08
6.25456069981e-08
3.62954853407e-08
2.48114407031e-08
2.33799573762e-09
1.57025746619e-08
2.71232833781e-08
4.65504324477e-08
5.12065879857e-08
6.55467938253e-08
4.09715596653e-08
2.49097294945e-08
1.88326479122e-08
7.99589271377e-09
1.02250942396e-08
6.00978270856e-08
7.5686415202e-08
1.038105701e-07
9.40746964119e-08
7.44258767466e-08
5.84237273105e-08
3.82034781649e-08
2.45929167868e-08
3.90685451662e-09
9.5393248312e-09
3.31273892513e-08
4.51051612822e-08
6.8612388432e-08
7.42815456885e-08
8.79402449178e-08
8.25128595226e-08
8.41760238466e-08
5.94093040991e-08
3.0612812755e-08
3.95149993765e-09
9.92709883904e-08
1.24412065596e-07
1.20736686397e-07
1.43747010795e-07
1.22555528261e-07
1.00462380657e-07
7.90834765434e-08
6.09378249611e-08
3.92679793667e-08
2.31986021798e-08
2.72941686431e-09
1.2537072093e-08
3.3122293132e-08
4.60926096879e-08
6.71084919814e-08
7.91022865946e-08
9.97209297909e-08
1.04268236108e-07
1.14861825318e-07
1.06485193339e-07
7.34692443345e-08
3.29547172325e-08
1.63504684594e-07
1.09250347459e-07
4.90186880552e-08
7.82637701192e-08
3.14669694471e-08
5.15704158239e-08
1.84194449566e-08
2.45619198646e-08
5.1681575188e-09
1.84719798699e-10
6.36607978197e-09
2.37017336822e-08
1.90353278239e-08
4.91235193072e-08
3.22265353588e-08
7.26853130228e-08
4.35482936789e-08
8.68880376597e-08
4.38954929682e-08
3.8338050678e-08
9.7445525335e-09
1.18667040178e-08
5.3730105571e-09
3.10858677633e-09
2.72060500933e-09
3.27642740218e-09
2.60278250855e-10
1.66588396711e-09
3.773750278e-10
2.15326851599e-09
2.33472848547e-10
8.57237552123e-11
3.69617280644e-10
8.5301556856e-10
2.24157999279e-09
1.14946153689e-09
2.49197412783e-09
5.35226863732e-09
8.0629803781e-09
1.29165806545e-08
6.12429584834e-09
3.4712470201e-09
2.96017367642e-09
2.76560002294e-09
6.50142510539e-10
5.10166017995e-10
5.03582173015e-09
2.42877300876e-09
2.02807004112e-09
1.78549635813e-09
4.03481691312e-09
6.75255784791e-09
2.01762660214e-08
1.30234580795e-08
7.16509036194e-09
4.66052726253e-09
4.62868965241e-09
3.35548278972e-09
5.21028404648e-09
3.73641821715e-09
7.79455430452e-09
1.33161497759e-08
9.79550574625e-09
4.74000923354e-09
9.71518565306e-09
1.27857082942e-07
1.65934618546e-07
1.08013732376e-07
2.83373114646e-08
1.10770508943e-07
1.93075152099e-07
9.10107338249e-08
4.44475523592e-08
9.58256330249e-08
1.47838691386e-07
1.38015408117e-07
7.11402958552e-08
5.6836342249e-08
1.11794977198e-08
1.06871681079e-05
1.23151833705e-05
8.05098729774e-06
9.56630623548e-09
2.69057663448e-08
1.63209609794e-08
1.71386463714e-08
1.84599724561e-09
2.81289298248e-08
3.35198064425e-08
8.25080112591e-09
1.57306502068e-07
1.59737055065e-07
1.30949559672e-07
1.33458645083e-07
1.39417050795e-07
1.44721450739e-07
1.45289934079e-07
1.50764958166e-07
1.49294880823e-07
1.46003865768e-07
1.28235918421e-07
3.50376544535e-05
2.01236080066e-05
1.04123164258e-05
6.25845962476e-06
9.11086426378e-06
7.79272759045e-06
3.06970776662e-05
1.87473572831e-05
1.85010130975e-05
2.09774847174e-06
1.67740578584e-06
2.59411827319e-07
1.20087016018e-07
2.03215291369e-07
1.78351524215e-07
2.33086811718e-07
1.73959235453e-07
2.39401285012e-07
1.78296121301e-07
2.36810461811e-07
1.82923516646e-07
1.71831656547e-07
1.27201681488e-07
9.32486393718e-09
1.15133097918e-08
4.88099348677e-08
4.89731452945e-08
9.29002338024e-08
6.25624231147e-08
7.12492555663e-08
1.98290666762e-08
5.0264928234e-08
6.37110420433e-09
5.57416688298e-08
2.51764225728e-08
4.56912890802e-08
4.41825975754e-08
3.89276025015e-08
6.79028240862e-08
2.90537636918e-08
3.08644996993e-08
1.62683103463e-08
1.05654732242e-07
2.19639758521e-08
1.29556883485e-07
2.58531248042e-08
3.78861679742e-08
1.05505388018e-07
1.47506319377e-07
6.73692804156e-08
4.34733664085e-08
9.04407797882e-08
3.52212397705e-09
7.3898685331e-08
2.4972488761e-08
5.57446351818e-08
1.5150752109e-07
2.02534865014e-07
3.5287443085e-07
3.49955650762e-06
4.88333907459e-06
1.10256890858e-05
3.51355495586e-06
1.15747612686e-05
7.41827855013e-06
1.11399949342e-05
2.59141880666e-07
1.10514254164e-07
9.60097026064e-08
3.98159449174e-08
5.28306942796e-08
5.54184853242e-08
8.59918738857e-08
9.09622037881e-08
2.14251123717e-07
5.54299384929e-09
5.0395239947e-08
4.84228619652e-09

