# vtk DataFile Version 3.0
File Name: Molecule/methanol/methanol_6.0-2.vtk
ASCII
DATASET UNSTRUCTURED_GRID
FIELD FieldData 1
TIME 1 1 double
0.0
POINTS 425 double
1.198 -0.767 -0.912
1.12 -1.191 -0.31
0.956 -1.085 -0.888
0.773 -1.459 -0.275
0.639 -1.329 -0.857
0.368 -1.627 -0.235
0.271 -1.482 -0.82
-0.065 -1.684 -0.192
-0.124 -1.534 -0.781
-0.499 -1.627 -0.149
-0.519 -1.482 -0.741
-0.903 -1.459 -0.108
-0.887 -1.329 -0.705
-1.251 -1.191 -0.074
-1.204 -1.085 -0.673
-1.517 -0.842 -0.047
-1.446 -0.767 -0.649
-1.684 -0.436 -0.031
-1.599 -0.397 -0.634
-1.742 0.0 -0.025
-1.684 0.436 -0.031
-1.651 0.0 -0.629
-1.599 0.397 -0.634
-1.517 0.842 -0.047
-1.446 0.767 -0.649
-1.251 1.191 -0.074
-1.204 1.085 -0.673
-0.903 1.459 -0.108
-0.499 1.627 -0.149
-0.887 1.329 -0.705
-0.519 1.482 -0.741
-0.065 1.684 -0.192
-0.124 1.534 -0.781
0.368 1.627 -0.235
0.271 1.482 -0.82
0.773 1.459 -0.275
0.639 1.329 -0.857
1.12 1.191 -0.31
0.956 1.085 -0.888
1.386 0.842 -0.336
1.198 0.767 -0.912
1.907 0.0 0.656
1.859 0.42 0.656
1.859 0.21 1.019
1.859 -0.21 1.019
1.859 -0.42 0.656
1.859 -0.21 0.292
1.859 0.21 0.292
1.72 0.709 1.065
1.72 0.409 1.365
1.72 -0.0 1.475
1.72 -0.409 1.365
1.72 -0.709 1.065
1.72 -0.0 -0.163
1.72 0.409 -0.054
1.72 0.709 0.246
1.72 0.819 0.656
1.495 1.106 1.058
1.495 0.902 1.412
1.495 0.588 1.675
1.495 0.204 1.815
1.495 -0.204 1.815
1.495 -0.588 1.675
1.495 -0.902 1.412
1.495 -1.106 1.058
1.72 -0.819 0.656
1.495 0.902 -0.101
1.495 1.106 0.253
1.495 1.177 0.656
1.196 1.416 1.071
1.196 1.241 1.453
1.196 0.966 1.771
1.196 0.613 1.998
1.196 0.21 2.116
1.196 -0.21 2.116
1.196 -0.613 1.998
1.196 -0.966 1.771
1.196 -1.241 1.453
1.196 -1.416 1.071
1.495 -1.177 0.656
1.196 -1.476 0.656
1.196 1.416 0.24
1.196 1.476 0.656
0.838 1.651 1.063
0.838 1.506 1.446
0.838 1.273 1.783
0.838 0.966 2.055
0.838 0.603 2.246
0.838 0.205 2.344
0.838 -0.205 2.344
0.838 -0.603 2.246
0.838 -0.966 2.055
0.838 -1.273 1.783
0.838 -1.506 1.446
0.838 -1.651 1.063
0.838 -1.701 0.656
0.838 -1.651 0.249
1.196 -1.416 0.24
0.838 1.651 0.249
0.838 1.701 0.656
0.439 1.794 1.065
0.439 1.658 1.454
0.439 1.439 1.803
0.439 1.147 2.094
0.439 0.798 2.314
0.439 0.409 2.45
0.439 0.0 2.496
0.439 -0.409 2.45
0.439 -0.798 2.314
0.439 -1.147 2.094
0.439 -1.439 1.803
0.439 -1.658 1.454
0.439 -1.794 1.065
0.439 -1.84 0.656
0.439 -1.794 0.246
0.439 1.794 0.246
0.439 1.84 0.656
0.019 1.843 1.061
0.019 1.713 1.448
0.019 1.503 1.798
0.019 1.222 2.094
0.019 0.884 2.323
0.019 0.505 2.474
0.019 0.102 2.54
0.019 -0.305 2.518
0.019 -0.699 2.409
0.019 -1.059 2.218
0.019 -1.37 1.954
0.019 -1.617 1.629
0.019 -1.789 1.258
0.019 -1.876 0.86
0.019 -1.876 0.452
0.019 -1.789 0.053
0.019 1.843 0.25
0.019 1.888 0.656
-0.401 1.84 0.656
-0.401 1.794 1.065
-0.401 1.658 1.454
-0.401 1.439 1.803
-0.401 1.147 2.094
-0.401 0.798 2.314
-0.401 0.409 2.45
-0.401 0.0 2.496
-0.401 -0.409 2.45
-0.401 -0.798 2.314
-0.401 -1.147 2.094
-0.401 -1.439 1.803
-0.401 -1.658 1.454
-0.401 -1.794 1.065
-0.401 -1.84 0.656
-0.401 -1.794 0.246
-0.401 1.794 0.246
-0.8 1.701 0.656
-0.8 1.651 1.063
-0.8 1.506 1.446
-0.8 1.273 1.783
-0.8 0.966 2.055
-0.8 0.603 2.246
-0.8 0.205 2.344
-0.8 -0.205 2.344
-0.8 -0.603 2.246
-0.8 -0.966 2.055
-0.8 -1.273 1.783
-0.8 -1.506 1.446
-0.8 -1.651 1.063
-0.8 -1.701 0.656
-0.8 -1.651 0.249
-0.8 1.651 0.249
-1.158 1.476 0.656
-1.158 1.416 1.071
-1.158 1.241 1.453
-1.158 0.966 1.771
-1.158 0.613 1.998
-1.158 0.21 2.116
-1.158 -0.21 2.116
-1.158 -0.613 1.998
-1.158 -0.966 1.771
-1.158 -1.241 1.453
-1.158 -1.416 1.071
-1.158 -1.476 0.656
-1.158 -1.416 0.24
-1.158 1.416 0.24
-1.457 1.177 0.656
-1.457 1.106 1.058
-1.457 0.902 1.412
-1.457 0.588 1.675
-1.457 0.204 1.815
-1.457 -0.204 1.815
-1.457 -0.588 1.675
-1.457 -0.902 1.412
-1.457 -1.106 1.058
-1.457 -1.177 0.656
-1.457 -1.106 0.253
-1.457 1.106 0.253
-1.682 0.819 0.656
-1.682 0.709 1.065
-1.682 0.409 1.365
-1.682 -0.0 1.475
-1.682 -0.409 1.365
-1.682 -0.709 1.065
-1.682 -0.819 0.656
-1.682 -0.709 0.246
-1.682 0.709 0.246
-1.821 0.42 0.656
-1.821 0.21 1.019
-1.821 -0.21 1.019
-1.821 -0.42 0.656
-1.821 -0.21 0.292
-1.821 0.21 0.292
-1.868 -0.0 0.656
1.554 0.436 -0.353
1.172 -0.415 -1.456
0.886 -0.699 -1.663
0.886 -0.317 -1.853
1.172 -0.0 -1.567
1.172 0.415 -1.456
0.886 0.107 -1.892
0.886 0.517 -1.776
0.886 0.857 -1.519
1.172 0.719 -1.152
0.886 1.082 -1.156
0.518 0.431 -2.065
0.518 0.821 -1.867
0.518 1.13 -1.558
0.518 1.328 -1.169
0.518 -1.328 -1.169
0.099 -1.458 -1.165
0.099 -1.278 -1.559
0.518 -1.13 -1.558
0.099 -0.995 -1.885
0.518 -0.821 -1.867
0.518 -0.431 -2.065
0.099 -0.631 -2.119
0.099 -0.216 -2.241
0.099 0.631 -2.119
0.099 0.995 -1.885
0.099 1.278 -1.559
0.099 1.458 -1.165
-0.338 -1.458 -1.165
-0.338 -1.278 -1.559
-0.338 -0.995 -1.885
-0.338 -0.631 -2.119
0.099 0.216 -2.241
-0.338 0.216 -2.241
-0.338 0.631 -2.119
-0.338 0.995 -1.885
-0.338 1.278 -1.559
-0.338 1.458 -1.165
-0.757 -1.328 -1.169
-0.757 -1.13 -1.558
-0.757 -0.821 -1.867
-0.757 -0.431 -2.065
-0.338 -0.216 -2.241
-0.757 0.0 -2.133
-0.757 0.431 -2.065
-0.757 0.821 -1.867
-0.757 1.13 -1.558
-0.757 1.328 -1.169
-1.125 -1.14 -0.95
-1.125 -0.986 -1.348
-1.125 -0.699 -1.663
-1.125 -0.317 -1.853
-1.125 0.107 -1.892
-1.125 0.517 -1.776
-1.125 0.857 -1.519
-1.411 -0.719 -1.152
-1.411 -0.415 -1.456
-1.411 -0.0 -1.567
-1.411 0.415 -1.456
-1.411 0.719 -1.152
-1.593 0.216 -1.112
1.351 -0.397 -0.928
1.172 -0.719 -1.152
1.253 -1.0165 -0.323
1.386 -0.842 -0.336
1.376 0.6015 -0.6325
1.2745 0.582 -0.92
1.4525 0.4165 -0.6405
1.351 0.397 -0.928
1.611 0.0 -0.359
1.859 -0.315 0.474
1.7895 -0.6195 0.656
1.7895 -0.5645 0.451
1.72 -0.764 0.451
1.72 -0.709 0.246
1.7895 -0.4595 0.269
1.7895 -0.3095 0.119
1.72 -0.559 0.096
1.72 -0.409 -0.054
1.7895 -0.105 0.0645
1.72 -0.2045 -0.1085
1.6075 -0.998 0.656
1.6075 -0.9625 0.4545
1.495 -1.1415 0.4545
1.495 -1.106 0.253
1.6075 -0.9075 0.2495
1.6075 -0.8055 0.0725
1.495 -1.004 0.076
1.495 -0.902 -0.101
1.6075 -0.6555 -0.0775
1.3455 -1.2965 0.448
1.3455 -1.261 0.2465
1.158 -1.3035 -0.035
1.3075 -1.1485 -0.0285
1.3075 -1.0465 -0.2055
1.4405 -0.872 -0.2185
1.5245 -0.669 -0.227
1.637 -0.4225 -0.2035
1.029 -0.709 -1.4075
0.886 -0.105 -1.8725
0.702 -1.157 -1.2585
0.518 -1.229 -1.3635
0.702 -1.058 -1.453
0.702 -0.9145 -1.6105
0.518 -0.626 -1.966
0.702 -0.374 -1.959
0.702 -0.1585 -1.993
0.518 -0.2155 -2.099
0.518 0.0 -2.133
0.702 0.0535 -2.0125
0.702 0.269 -1.9785
0.518 0.2155 -2.099
0.3085 -0.726 -1.993
0.3085 -0.531 -2.092
0.3085 -0.108 -2.187
0.3085 -0.3235 -2.153
0.3085 0.108 -2.187
0.099 0.0 -2.241
0.3085 0.3235 -2.153
-0.1195 -0.631 -2.119
0.099 -0.4235 -2.18
-0.1195 -0.4235 -2.18
1.2615 0.406 -1.192
1.064 -0.902 -1.02
1.029 -0.8525 -1.25
0.921 -1.0355 -1.118
0.886 -0.986 -1.348
0.737 -1.2065 -1.0285
1.5825 -0.218 -0.356
1.507 0.0 -0.646
1.4785 -0.218 -0.643
1.554 -0.436 -0.353
1.403 0.0 -0.933
-1.625 -0.1985 -0.6315
-1.0455 1.207 -0.689
-1.682 0.2045 1.42
-1.7515 0.3095 1.192
-1.7515 0.105 1.247
1.6655 0.0 -0.261
1.172 0.2075 -1.5115
-0.1195 -0.216 -2.241
-0.757 1.229 -1.3635
-0.941 0.9935 -1.5385
-0.941 1.106 -1.357
-1.125 0.9695 -1.3375
-1.125 1.082 -1.156
-0.941 1.205 -1.1625
-1.411 -0.567 -1.304
-1.411 -0.2075 -1.5115
-1.268 0.788 -1.3355
-1.268 0.9005 -1.154
-1.502 -0.3155 -1.284
-1.502 -0.4675 -1.132
-1.593 -0.216 -1.112
-1.502 -0.108 -1.3395
-1.502 0.108 -1.3395
-1.593 0.0 -1.112
-1.3075 0.902 -0.9125
-1.1645 1.0835 -0.9145
-1.006 1.2055 -0.9305
-0.822 1.3285 -0.937
1.2875 0.0 -1.25
1.377 -0.1985 -0.9305
-1.505 -0.558 -0.893
-1.596 -0.3065 -0.873
-1.622 -0.108 -0.8705
-1.622 0.108 -0.8705
1.50325 -0.42625 -0.49675
1.42775 -0.20825 -0.78675
1.4525 -0.4165 -0.6405
1.40175 -0.40675 -0.78425
1.512 -0.5375 -0.34875
1.46125 -0.52775 -0.4925
1.47 -0.639 -0.3445
1.41925 -0.62925 -0.48825
1.4105 -0.518 -0.63625
1.3685 -0.6195 -0.632
1.428 -0.7405 -0.34025
1.37725 -0.73075 -0.484
1.35975 -0.50825 -0.78
1.377 0.1985 -0.9305
1.494 0.09925 -0.64475
1.39 0.09925 -0.93175
1.49725 -0.654 -0.28575
1.53925 -0.5525 -0.29
1.58075 -0.54575 -0.21525
1.5955 -0.42925 -0.27825
1.637 -0.32025 -0.23075
1.637 -0.218 -0.258
1.5955 -0.327 -0.3055
1.6785 -0.109 -0.2105
1.624 -0.109 -0.3085
1.029 -0.78075 -1.32875
0.9575 -0.8475 -1.37775
0.9575 -0.77575 -1.4565
0.886 -0.8425 -1.5055
0.9575 -0.91925 -1.299
0.886 -0.91425 -1.42675
0.9575 -0.704 -1.53525
0.886 -0.77075 -1.58425
0.794 -1.022 -1.4005
0.794 -0.80675 -1.63675
0.794 -0.8785 -1.558
0.794 -0.95025 -1.47925
0.702 -0.98625 -1.53175
-0.01025 -0.31975 -2.2105
-0.22875 -0.31975 -2.2105
1.21675 0.4105 -1.324
1.22975 0.31125 -1.32525
1.2745 0.30675 -1.19325
1.2875 0.2075 -1.1945
1.31925 0.30225 -1.06125
1.33225 0.203 -1.0625
1.34525 0.10375 -1.06375
1.22975 0.10375 -1.38075

CELLS 843 3372
3 0 1 2
3 1 3 2
3 2 3 4
3 3 5 4
3 4 5 6
3 5 7 6
3 6 7 8
3 7 9 8
3 8 9 10
3 9 11 10
3 10 11 12
3 11 13 12
3 12 13 14
3 13 15 14
3 14 15 16
3 15 17 16
3 16 17 18
3 17 19 18
3 19 20 21
3 21 20 22
3 20 23 22
3 22 23 24
3 23 25 24
3 24 25 26
3 25 27 26
3 27 28 29
3 29 28 30
3 28 31 30
3 30 31 32
3 31 33 32
3 32 33 34
3 33 35 34
3 34 35 36
3 35 37 36
3 36 37 38
3 37 39 38
3 38 39 40
3 41 42 43
3 41 43 44
3 41 44 45
3 41 46 47
3 41 47 42
3 43 42 48
3 43 48 49
3 43 49 50
3 44 43 50
3 44 50 51
3 44 51 52
3 45 44 52
3 47 53 54
3 47 54 55
3 42 47 55
3 42 55 56
3 42 56 48
3 48 56 57
3 48 57 58
3 49 48 58
3 49 58 59
3 49 59 60
3 50 49 60
3 50 60 61
3 51 50 61
3 51 61 62
3 51 62 63
3 52 51 63
3 52 63 64
3 65 52 64
3 55 54 66
3 55 66 67
3 56 55 67
3 56 67 68
3 56 68 57
3 57 68 69
3 57 69 70
3 58 57 70
3 58 70 71
3 59 58 71
3 59 71 72
3 60 59 72
3 60 72 73
3 60 73 74
3 61 60 74
3 61 74 75
3 62 61 75
3 62 75 76
3 63 62 76
3 63 76 77
3 64 63 77
3 64 77 78
3 79 64 78
3 79 78 80
3 68 67 81
3 68 81 82
3 68 82 69
3 69 82 83
3 69 83 84
3 70 69 84
3 70 84 85
3 71 70 85
3 71 85 86
3 72 71 86
3 72 86 87
3 73 72 87
3 73 87 88
3 73 88 89
3 74 73 89
3 74 89 90
3 75 74 90
3 75 90 91
3 76 75 91
3 76 91 92
3 77 76 92
3 77 92 93
3 78 77 93
3 78 93 94
3 80 78 94
3 80 94 95
3 80 95 96
3 97 80 96
3 82 81 98
3 82 98 99
3 82 99 83
3 83 99 100
3 83 100 101
3 84 83 101
3 84 101 102
[...]
CELL_DATA 843
SCALARS cell_data_0 double
LOOKUP_TABLE default
1.81339244463e-08
2.61038175628e-08
1.35214695349e-08
1.58100899452e-08
4.82532154612e-09
2.82701667335e-09
3.31745433402e-09
1.40948308252e-08
1.08528511607e-08
3.65596896932e-08
3.40354112912e-08
7.5761782296e-09
1.03349820676e-08
8.30043462424e-09
6.32537353421e-09
2.50932485367e-08
4.95460726196e-09
7.02836362987e-08
2.02069011227e-08
3.47855581793e-09
6.66720552677e-09
5.45527230038e-09
2.50252573739e-09
9.39305369569e-09
8.96462645242e-09
1.36057494284e-08
1.53182644138e-08
2.73662745905e-08
1.72809905032e-08
1.53084039118e-08
8.55503502241e-09
9.90203416456e-08
8.40305107847e-08
7.83868061694e-08
6.7429990885e-09
8.44543343753e-09
7.58331900515e-09
3.75440604744e-09
3.898486114e-09
3.86072641141e-09
1.8121194811e-09
1.30223670563e-09
4.75999929849e-09
4.0159229641e-09
3.7176963727e-09
4.60435472967e-09
3.79593498545e-09
3.80710363378e-09
4.61740534544e-09
4.28267033283e-10
3.41240885553e-09
2.08892623091e-09
2.4905891434e-09
4.63498482776e-09
4.62086747476e-09
3.49585424335e-09
3.96508692405e-09
3.14935401583e-09
3.10496868064e-09
3.60406389315e-09
2.79512285988e-09
3.37111171875e-09
2.83363071971e-09
2.87870987479e-09
3.4062085051e-09
2.89796576069e-09
3.5348716795e-09
2.46708925191e-09
2.63033555503e-09
2.11090690632e-09
3.80524294589e-09
3.853197245e-09
3.35109803238e-09
2.99997215138e-09
3.06232176496e-09
2.43555976433e-09
2.75327831836e-09
2.38566649692e-09
2.61177187471e-09
2.33414480755e-09
2.35715689808e-09
2.43072757841e-09
2.1981033732e-09
2.44930136737e-09
2.25920531381e-09
2.54679379266e-09
2.30692373935e-09
2.67064968023e-09
2.53387242848e-09
2.77856705127e-09
2.62486739676e-09
3.36636196568e-09
3.00761666385e-09
2.92101193718e-09
2.63282468379e-09
2.11422035479e-09
2.37753357243e-09
1.80340854364e-09
2.18333421362e-09
2.02785569753e-09
2.32905628835e-09
1.94174512866e-09
1.94442230866e-09
1.69360762138e-09
1.73595381113e-09
1.92667235388e-09
1.67477699608e-09
1.91099930367e-09
1.66138604013e-09
1.94493259921e-09
1.70439207077e-09
2.04538842381e-09
1.74501961447e-09
2.12208733188e-09
1.84702697661e-09
2.2557165067e-09
1.97067530615e-09
2.03534056822e-09
2.39019227426e-09
2.76615015813e-09
2.66955727109e-09
2.43888345487e-09
2.44047152577e-09
2.14305071493e-09
1.85209723576e-09
1.34457586978e-09
1.17444759071e-09
9.24500007474e-10
1.34755503925e-09
1.25052535838e-09
1.64661570563e-09
1.18638138973e-09
1.26639282035e-09
1.08934108093e-09
1.36692792189e-09
1.17165190562e-09
1.37780954212e-09
1.22478626427e-09
1.40335578991e-09
1.25051513891e-09
1.41780043101e-09
1.28032647231e-09
1.42644926118e-09
1.30405409552e-09
1.4890373278e-09
1.36802425575e-09
1.53055243744e-09
1.40990593031e-09
1.44767655334e-09
1.6348129861e-09
2.24086020599e-09
2.24377191028e-09
2.37046448151e-09
1.91164646612e-09
1.60960059731e-09
1.69963207755e-09
1.17518251499e-09
1.00216359647e-09
6.23458856686e-11
9.12118898203e-11
6.63211054288e-11
5.23361145897e-10
4.77405723619e-10
8.74021499484e-10
3.46866035e-10
4.94807938785e-10
3.09380533366e-10
7.39694237386e-10
5.44373364695e-10
8.4845469753e-10
6.5457146773e-10
9.08784918582e-10
7.23804793575e-10
9.57653773076e-10
8.05664114552e-10
1.03426996234e-09
8.90423116376e-10
1.06141952231e-09
9.03356296111e-10
1.10881793292e-09
9.92440855471e-10
1.16888949133e-09
1.02220140242e-09
1.53089888352e-09
1.52302367657e-09
1.67053041337e-09
1.32259335092e-09
1.19294839758e-09
1.27266873852e-09
1.06812212144e-09
9.56136521817e-10
6.82702242899e-10
9.7590366178e-11
9.48180124802e-11
2.64613067877e-10
5.73684108681e-10
3.389296945e-10
5.48382607611e-10
1.75522670839e-10
4.2190424081e-10
9.66144935156e-11
5.96285650872e-11
1.93768870635e-10
1.86987218908e-10
3.71417516166e-10
3.53720606545e-10
4.70913135629e-10
4.37288157433e-10
5.51850004375e-10
5.22678163415e-10
6.44110049558e-10
5.93492018547e-10
6.90587027928e-10
6.28059589905e-10
7.32043284176e-10
6.62563339287e-10
7.82119172865e-10
8.47934444974e-10
1.14705992697e-09
8.43972796129e-10
6.15763365793e-10
7.27183776428e-10
3.88177486964e-10
4.15382992706e-10
1.082654885e-10
1.30689679007e-10
1.12009155277e-09
1.46079688813e-09
1.6680922997e-09
1.01280386831e-09
8.80835253032e-10
6.1176129723e-10
5.09133591862e-10
2.66315080146e-10
2.37640344509e-10
3.81024678194e-11
4.312518369e-11
2.54292585988e-10
2.8635245035e-10
3.39478692374e-10
2.70474110979e-10
3.22863940321e-10
2.68675543835e-10
4.03702663199e-10
2.98420667279e-10
4.10199505305e-10
4.24193460191e-10
2.78105448113e-10
2.95640165196e-10
6.86291619455e-10
1.10287541886e-10
3.9989270519e-10
2.93335819771e-10
1.71911255783e-09
1.40963740187e-09
1.79405919574e-09
1.38759088378e-09
1.63520371408e-09
1.41700305194e-09
1.01376110372e-09
8.78922890745e-10
4.58414925312e-10
4.00545660002e-10
1.75695461154e-10
2.83957302986e-10
3.06866678916e-10
1.4008608184e-10
2.50716643553e-10
6.37035048442e-11
2.6737779454e-11
1.72752609535e-10
2.30206252367e-12
2.54530886823e-10
8.83646340374e-11
1.18443014216e-10
5.1063419151e-10
5.24499484698e-10
4.13194561623e-11
1.13834571182e-09
1.45650699828e-09
2.0699625234e-09
1.88958593925e-09
1.72362405511e-09
6.53991864242e-10
7.46163412621e-10
5.45358971456e-10
6.4544775638e-10
4.7920552827e-10
3.56630648108e-10
3.27941957462e-10
6.09459678133e-10
4.41051603014e-10
8.85643806765e-10
5.89602542541e-10
1.27517130258e-09
9.22319396037e-10
1.51351248813e-09
1.12717777909e-09
1.28747553053e-09
1.81778179407e-09
1.61231168981e-10
1.01649822914e-09
1.34361836267e-09
1.44186375518e-09
1.30238830782e-09
2.35000651394e-09
1.18798913393e-09
9.81177606141e-10
1.31078146479e-09
2.41837748861e-09
1.2378529983e-09
1.48105754813e-09
1.20399802211e-09
1.47020232387e-09
1.44577399873e-07
1.09942203214e-07
1.09547457968e-07
1.39000471753e-07
1.12736823079e-07
4.9360826339e-10
1.77970609525e-07
7.17215884903e-07
8.85688123827e-09
2.58000516234e-08
2.05012840816e-08
2.25415036603e-07
2.17354066999e-07
7.21991184864e-08
6.81541919812e-07
4.24153730927e-07
6.07291180723e-07
2.88413630407e-07
2.48660557797e-08
6.48589171088e-08
6.76884359973e-08
2.76122607666e-07
1.51154057499e-07
8.47384958367e-09
3.17170785627e-08
1.93833217034e-08
1.36527706338e-09
1.08472815167e-08
9.06834134284e-11
9.23103196822e-09
1.51780383024e-08
5.74553224533e-09
8.02009853968e-09
1.85229502838e-08
2.71309677454e-09
5.32142234076e-09
1.3336797507e-11
1.38504119527e-09
1.65432408879e-09
1.99356167576e-09
1.131768422e-08
4.72161499709e-09
1.05811516076e-09
2.65219370374e-09
2.75287128972e-09
4.09246702986e-09
6.08355716204e-09
5.56090563654e-09
7.10800829451e-08
6.20537322551e-08
7.52787000433e-08
7.85547147547e-09
7.51885735025e-09
4.21678581663e-09
2.75701506274e-09
1.14453084957e-08
2.53842207035e-09
4.21876475037e-09
9.16532206524e-10
7.76823139688e-09
5.24238613593e-09
9.56392104337e-09
7.35883167278e-08
4.40085915438e-08
1.53091237477e-08
1.00991386265e-08
1.74694694157e-08
7.63975278049e-10
1.12549973029e-08
7.9902189099e-09
2.24699728118e-08
9.08886624147e-09
1.66970759614e-08
1.25090385848e-08
9.99060118375e-09
2.15135459164e-08
1.63902437437e-08
1.15221744467e-08
6.5025625928e-09
1.02238081522e-08
3.49029483699e-09
5.34160359929e-09
1.17085100947e-09
2.22415910405e-09
5.69062139085e-09
7.07512937081e-09
1.5248394282e-08
3.02331248469e-09
5.38133693337e-09
6.04571832167e-09
2.21415123048e-08
2.43649064506e-08
1.66315317844e-08
5.35670095527e-09
7.59847948658e-09
5.54213028368e-09
4.31950511046e-09
9.31792904575e-09
1.81223046361e-08
4.3288579537e-08
2.97921709472e-08
3.0295848859e-08
7.65100219521e-09
1.55452512567e-08
2.17160805224e-08
4.26105922223e-08
2.16577864156e-08
2.28977541525e-08
2.08928877687e-08
3.0664087167e-08
2.14119784908e-08
4.77627923029e-08
4.46162237427e-08
2.6058500849e-08
1.55299918442e-07
3.65509727912e-08
5.51757800755e-08
2.74149221841e-09
1.88516113238e-09
7.31238706492e-09
1.08129651281e-09
1.71377568873e-09
6.51724499219e-09
9.38996088024e-08
6.18515004446e-09
9.45384964516e-08
2.25391563564e-07
1.14329433063e-07
5.58478220393e-09
1.30417130807e-08
4.76373883428e-09
1.48706009896e-07
1.38581525367e-07
9.303044354e-11
5.15148572355e-10
1.05333916412e-08
1.25347570131e-08
8.52787093999e-09
4.35986310563e-09
8.33598401718e-09
1.03155999067e-08
3.45896654258e-09
5.78216206511e-09
3.987323672e-10
5.14378754604e-09
5.94233256918e-10
4.12503525276e-09
4.18388706357e-09
6.67403460232e-09
1.1341945492e-08
5.10278040583e-09
7.80434004666e-09
6.54187766527e-11
1.14321891693e-08
2.25153344457e-08
4.20793112044e-08
2.73992733003e-08
2.02016604715e-08
7.35917345878e-08
1.2800412595e-08
1.22897324795e-08
9.52281490838e-09
7.65460517628e-09
1.75253213784e-09
5.44141962748e-10
1.66077109813e-09
1.13315093994e-09
1.28440218467e-08
1.58117929798e-08
3.08344762071e-10
8.00979898586e-10
2.53366387978e-09
2.5612500652e-09
9.44364193172e-10
9.97973588485e-10
1.54368355248e-09
1.0359571918e-09
7.50324756627e-10
2.66502631709e-10
1.50924469865e-13
1.06247155869e-09
4.11038880705e-10
2.19435209554e-09
1.09587192921e-09
1.53437419735e-09
4.67048125786e-10
1.54764743313e-09
1.35259688803e-09
1.74093399031e-09
3.56019250351e-10
1.31778598832e-09
1.53894462212e-09
1.46182073977e-09
6.95172603042e-10
3.12959264371e-10
7.30056442704e-10
1.06839379585e-09
2.26284437169e-09
1.79223035665e-09
1.39175474453e-09
1.94291888002e-09
1.77724864524e-09
2.27920822943e-08
2.06299602842e-08
2.0067828962e-08
3.6918702202e-08
4.0899369262e-08
1.69821725003e-09
3.56076379098e-08
3.52005765695e-09
3.26464100476e-09
2.30933247007e-09
1.69098423774e-09
1.89521951579e-09
1.25345430295e-09
6.10483241984e-09
1.76170942631e-08
2.56808683886e-09
5.1917429403e-10
7.2737142062e-09
1.28159467323e-10
1.9014422205e-08
1.74743540734e-08
7.18104046405e-09
2.14090294349e-08
9.03188823609e-09
1.19213246778e-08
3.47032696739e-09
1.07973925315e-08
1.40595734395e-08
4.27963210924e-08
2.77684595056e-08
3.41119657033e-09
6.40693812417e-09
8.65914695181e-09
6.3317722617e-09
8.03721816144e-10
2.09795523138e-09
2.17162849912e-09
7.86150794533e-09
1.45840762389e-08
1.38459201742e-08
8.27748328242e-09
1.11342922559e-08
5.25775219398e-09
6.66084533173e-09
4.18896065561e-09
8.83046629447e-09
1.19114928639e-08
1.61534172132e-08
6.66947236574e-09
2.00591459806e-08
7.45233259334e-08
8.63248621929e-08
7.98935715658e-09
6.82455749973e-08
1.63778748388e-07
1.52632004036e-07
9.03342794938e-09
9.68384877336e-09
4.26154539623e-09
3.98512551624e-09
2.73078281011e-09
1.66475261051e-08
5.64070344598e-09
7.99833509613e-09
3.24487402867e-09
2.8392896093e-10
4.63365530356e-09
2.9012457775e-09
1.65939081795e-09
2.42432192202e-08
5.85776846115e-09
1.09515767321e-08
2.43828302991e-08
2.39013193281e-08
4.93559228714e-09
1.16528166056e-08
2.01966483093e-08
1.64846310364e-08
9.59954310713e-09
8.80082329961e-09
4.66144177203e-08
6.45534245127e-08
1.92073415635e-08
2.23347673395e-09
3.92233796272e-10
9.22769141323e-10
8.9149619732e-10
2.6495098226e-08
9.52453557287e-10
3.28493861874e-10
1.85949514973e-08
1.55770994875e-08
3.6209464186e-10
3.35000572862e-09
1.70888324374e-09
1.93211990473e-09
5.78776131793e-10
3.52037353619e-09
4.22425548011e-09
6.31716563631e-08
4.6225426009e-08
6.29442011934e-08
2.11859548555e-08
3.33751028863e-08
2.58533597583e-08
3.36392284594e-08
3.28463936052e-08
1.48373169945e-09
1.74066098057e-09
1.94341645388e-08
8.92232448031e-08
1.69447977403e-09
1.01726857821e-08
1.24997246687e-08
3.29154096862e-08
1.50188816795e-09
1.4315671608e-07
9.50827961987e-09
1.95027481805e-09
4.2008788943e-08
3.93530545876e-08
7.00761827465e-08
6.51068538792e-08
1.65412695079e-08
2.45898326655e-08
1.39737078853e-08
8.02632155173e-09
2.20374210256e-09
3.691213813e-08
1.5225157524e-08
6.10302719331e-09
1.32738468282e-08
7.72077427025e-10
3.54483087601e-09
2.55878151675e-09
2.11141519792e-08
1.61030602855e-08
8.9727006954e-09
9.18779890138e-09
5.49347519309e-09
1.66418954476e-08
5.57685513192e-09
5.42394395937e-08
2.33793918296e-08
2.10604122288e-08
7.26700854178e-09
3.65586728372e-08
2.92334666301e-08
7.78240150027e-09
5.46825918761e-08
2.34858751439e-08
3.21024341309e-09
6.73390903917e-08
1.9531260606e-07
1.14420285184e-07
6.12994140118e-08
2.06810712647e-08
7.9449538462e-08
7.40206611467e-08
2.13213090148e-08
2.65008843981e-08
1.61085427258e-08
7.31301208073e-09
1.50547595094e-08
1.10764501024e-08
1.58554770327e-09
2.64627448892e-08
4.42753945926e-09
4.12542852277e-08
5.84441988356e-09
1.91109249258e-08
1.21332903601e-08
2.96653190562e-09
6.06936403942e-09
3.09507356956e-09
3.72270977239e-08
3.25861946737e-08
2.86945542292e-08
3.07600160109e-08
6.35227375075e-08
3.62713583977e-08
3.87828186928e-08
3.20028075343e-08
3.7086873524e-08
4.47462753438e-09
1.53185284639e-09
2.58978330371e-09
1.03932308385e-08
9.50096582106e-09
8.85762397879e-09
1.03306727084e-08
7.96639740874e-09
8.1375350838e-09
7.72458508229e-10
4.28644788266e-09
7.61186981577e-10
3.81924774316e-09
5.40523142462e-09
7.21643441705e-09
4.04180265044e-09
7.76417403485e-09
1.84289979644e-08
1.09501766839e-09
2.40156688223e-09
1.91721226056e-10
2.62520725125e-09
3.51611060785e-11
5.91687362082e-09
1.39174902423e-08
8.47454310497e-09
2.3016934269e-08
1.38685427261e-09
4.67698633778e-08
5.31934128275e-08
2.46858354949e-08
2.47030278142e-08
2.70542224604e-08
4.19590444724e-09
2.03455254128e-08
1.12532509948e-07
9.21277700982e-08
5.15716553565e-09
4.39749984356e-09
5.90809803993e-09
1.44675957645e-08
9.73158827645e-10
2.24029546547e-09
2.56401393145e-09
7.26214639091e-09
7.74391524171e-09
4.84888041342e-09
1.35139913197e-08
1.27565615188e-08
1.69297407082e-10
5.77734266125e-10
2.0738758668e-10
1.34560631761e-10
2.56563878806e-08
1.67905530308e-08
1.31448483414e-09
2.78331169373e-09
2.29468794e-09
2.07013902653e-09
2.19194095935e-09
9.68946452479e-10
1.24351366091e-09
5.38709724117e-10
1.76375757347e-09
1.86306339743e-10
1.02252442042e-08
1.32205924037e-08
1.26917647868e-08
7.79204735528e-09
6.09856059364e-09
1.22835188129e-08
5.00248100446e-09
3.28262142984e-09
7.59266256193e-09
2.97578589273e-09
4.89683290146e-09
1.16631843511e-08
3.09302608267e-09
7.1206742973e-09
2.45622203019e-09
8.69134150575e-09
5.94766787221e-09
1.24888796848e-08
1.09658676445e-08
9.19849770914e-09
2.69761278169e-10
1.55235102518e-10
8.29994126206e-10
2.90222660722e-09
8.51100112466e-09
5.04708946921e-09
2.1479064705e-09
1.00781542761e-09
1.34196652868e-09
1.62443420455e-09
1.49244771812e-09
4.60508649067e-10
1.82743531636e-10
3.634694586e-10
1.7874610826e-11
4.81881003597e-10
8.9543337544e-09
9.14142630295e-09
1.09126364407e-09
8.38317538927e-09
1.41270879762e-09
1.41329702856e-09
4.31579843427e-09
2.7235805148e-09
1.56309359822e-08
1.47557997585e-08
2.19436925389e-08
2.57543489913e-08
2.60630809602e-08
2.31176008668e-08
4.80974506056e-08
4.30423110608e-08
4.35600203971e-08
4.21773636448e-08
3.56698115489e-09
6.1430336775e-08
1.7075424312e-08
6.7077359756e-08
3.3513363442e-08
1.15265423442e-07
3.93050070365e-08
9.02209951912e-08
3.8633307362e-09
6.42280533855e-10
5.67045842102e-08
6.1815145349e-08
1.4477578431e-08
3.11129955659e-08
1.35160866079e-08
2.63374311642e-08
6.73622408678e-08
1.06397507076e-09
2.55294159713e-08
5.47052522928e-08
6.73344110079e-08
1.80910004166e-09
9.15679106229e-09
1.79358683687e-09

