# vtk DataFile Version 3.0
File Name: Molecule/methanol/methanol_9.0-1.vtk
ASCII
DATASET UNSTRUCTURED_GRID
FIELD FieldData 1
TIME 1 1 double
0.0
POINTS 422 double
1.611 0.0 -0.359
1.569 -0.375 -0.355
1.403 0.0 -0.933
1.365 -0.341 -0.929
1.445 -0.731 -0.342
1.252 -0.666 -0.918
1.245 -1.05 -0.322
0.98 -1.317 -0.296
1.07 -0.957 -0.9
0.828 -1.2 -0.876
0.662 -1.518 -0.264
0.538 -1.382 -0.847
0.308 -1.642 -0.229
0.216 -1.496 -0.815
-0.065 -1.684 -0.192
-0.124 -1.534 -0.781
-0.438 -1.642 -0.155
-0.464 -1.496 -0.747
-0.793 -1.518 -0.119
-0.787 -1.382 -0.715
-1.11 -1.317 -0.088
-1.076 -1.2 -0.686
-1.376 -1.05 -0.061
-1.318 -0.957 -0.662
-1.576 -0.731 -0.042
-1.5 -0.666 -0.644
-1.7 -0.375 -0.029
-1.613 -0.341 -0.633
-1.742 0.0 -0.025
-1.651 0.0 -0.629
-1.7 0.375 -0.029
-1.613 0.341 -0.633
-1.576 0.731 -0.042
-1.5 0.666 -0.644
-1.376 1.05 -0.061
-1.318 0.957 -0.662
-1.11 1.317 -0.088
-1.076 1.2 -0.686
-0.793 1.518 -0.119
-0.787 1.382 -0.715
-0.438 1.642 -0.155
-0.464 1.496 -0.747
-0.065 1.684 -0.192
-0.124 1.534 -0.781
0.308 1.642 -0.229
0.216 1.496 -0.815
0.662 1.518 -0.264
0.538 1.382 -0.847
0.98 1.317 -0.296
0.828 1.2 -0.876
1.245 1.05 -0.322
1.07 0.957 -0.9
1.445 0.731 -0.342
1.252 0.666 -0.918
1.569 0.375 -0.355
1.365 0.341 -0.929
1.907 0.0 0.656
1.874 0.347 0.656
1.874 0.173 0.956
1.874 -0.173 0.956
1.874 -0.347 0.656
1.874 -0.173 0.355
1.874 0.173 0.355
1.779 0.59 0.997
1.779 0.341 1.246
1.779 -0.0 1.337
1.779 -0.341 1.246
1.779 -0.59 0.997
1.779 -0.682 0.656
1.779 -0.59 0.315
1.779 -0.341 0.065
1.779 -0.0 -0.026
1.779 0.341 0.065
1.779 0.59 0.315
1.779 0.682 0.656
1.624 0.934 0.995
1.624 0.761 1.294
1.624 0.497 1.516
1.624 0.173 1.634
1.624 -0.173 1.634
1.624 -0.497 1.516
1.624 -0.761 1.294
1.624 -0.934 0.995
1.624 -0.994 0.656
1.624 -0.934 0.316
1.624 -0.761 0.017
1.624 0.761 0.017
1.624 0.934 0.316
1.624 0.994 0.656
1.414 1.224 0.999
1.414 1.086 1.316
1.414 0.868 1.585
1.414 0.585 1.785
1.414 0.259 1.901
1.414 -0.087 1.924
1.414 -0.426 1.854
1.414 -0.733 1.694
1.414 -0.986 1.458
1.414 -1.166 1.162
1.414 -1.26 0.829
1.414 -1.26 0.482
1.414 -1.166 0.149
1.414 -0.986 -0.147
1.414 1.086 -0.005
1.414 1.224 0.313
1.414 1.272 0.656
1.156 1.466 1.003
1.156 1.346 1.332
1.156 1.154 1.624
1.156 0.899 1.864
1.156 0.597 2.039
1.156 0.262 2.139
1.156 -0.088 2.159
1.156 -0.432 2.099
1.156 -0.753 1.96
1.156 -1.034 1.751
1.156 -1.258 1.483
1.156 -1.415 1.171
1.156 -1.496 0.83
1.156 -1.496 0.481
1.156 -1.415 0.14
1.156 1.346 -0.02
1.156 1.466 0.308
1.156 1.506 0.656
0.86 1.655 0.996
0.86 1.553 1.322
0.86 1.387 1.621
0.86 1.164 1.88
0.86 0.894 2.089
0.86 0.587 2.24
0.86 0.256 2.326
0.86 -0.086 2.343
0.86 -0.424 2.291
0.86 -0.744 2.173
0.86 -1.034 1.992
0.86 -1.282 1.756
0.86 -1.477 1.476
0.86 -1.612 1.161
0.86 -1.681 0.827
0.86 -1.681 0.485
0.86 -1.612 0.15
0.86 1.553 -0.011
0.86 1.655 0.315
0.86 1.69 0.656
0.536 1.783 0.999
0.536 1.685 1.33
0.536 1.527 1.637
0.536 1.314 1.908
0.536 1.053 2.134
0.536 0.754 2.307
0.536 0.428 2.42
0.536 0.086 2.469
0.536 -0.258 2.453
0.536 -0.594 2.371
0.536 -0.908 2.228
0.536 -1.189 2.028
0.536 -1.427 1.778
0.536 -1.614 1.487
0.536 -1.742 1.167
0.536 -1.807 0.828
0.536 -1.807 0.483
0.536 -1.742 0.144
0.536 1.685 -0.019
0.536 1.783 0.312
0.536 1.815 0.656
0.193 1.847 1.001
0.193 1.753 1.335
0.193 1.598 1.645
0.193 1.389 1.922
0.193 1.133 2.155
0.193 0.838 2.338
0.193 0.514 2.463
0.193 0.173 2.527
0.193 -0.173 2.527
0.193 -0.514 2.463
0.193 -0.838 2.338
0.193 -1.133 2.155
0.193 -1.389 1.922
0.193 -1.598 1.645
0.193 -1.753 1.335
0.193 -1.847 1.001
0.193 -1.879 0.656
0.193 -1.847 0.31
0.193 -1.753 -0.023
0.193 1.753 -0.023
0.193 1.847 0.31
0.193 1.879 0.656
-0.155 1.847 1.001
-0.155 1.753 1.335
-0.155 1.598 1.645
-0.155 1.389 1.922
-0.155 1.133 2.155
-0.155 0.838 2.338
-0.155 0.514 2.463
-0.155 0.173 2.527
-0.155 -0.173 2.527
-0.155 -0.514 2.463
-0.155 -0.838 2.338
-0.155 -1.133 2.155
-0.155 -1.389 1.922
-0.155 -1.598 1.645
-0.155 -1.753 1.335
-0.155 -1.847 1.001
-0.155 -1.879 0.656
-0.155 -1.847 0.31
-0.155 1.847 0.31
-0.155 1.879 0.656
-0.498 1.815 0.656
-0.498 1.783 0.999
-0.498 1.685 1.33
-0.498 1.527 1.637
-0.498 1.314 1.908
-0.498 1.053 2.134
-0.498 0.754 2.307
-0.498 0.428 2.42
-0.498 0.086 2.469
-0.498 -0.258 2.453
-0.498 -0.594 2.371
-0.498 -0.908 2.228
-0.498 -1.189 2.028
-0.498 -1.427 1.778
-0.498 -1.614 1.487
-0.498 -1.742 1.167
-0.498 -1.807 0.828
-0.498 -1.807 0.483
-0.498 -1.742 0.144
-0.498 1.783 0.312
-0.822 1.69 0.656
-0.822 1.655 0.996
-0.822 1.553 1.322
-0.822 1.387 1.621
-0.822 1.164 1.88
-0.822 0.894 2.089
-0.822 0.587 2.24
-0.822 0.256 2.326
-0.822 -0.086 2.343
-0.822 -0.424 2.291
-0.822 -0.744 2.173
-0.822 -1.034 1.992
-0.822 -1.282 1.756
-0.822 -1.477 1.476
-0.822 -1.612 1.161
-0.822 -1.681 0.827
-0.822 -1.681 0.485
-0.822 -1.612 0.15
-0.822 1.655 0.315
-1.118 1.506 0.656
-1.118 1.466 1.003
-1.118 1.346 1.332
-1.118 1.154 1.624
-1.118 0.899 1.864
-1.118 0.597 2.039
-1.118 0.262 2.139
-1.118 -0.088 2.159
-1.118 -0.432 2.099
-1.118 -0.753 1.96
-1.118 -1.034 1.751
-1.118 -1.258 1.483
-1.118 -1.415 1.171
-1.118 -1.496 0.83
-1.118 -1.496 0.481
-1.118 -1.415 0.14
-1.118 1.466 0.308
-1.376 1.272 0.656
-1.376 1.224 0.999
-1.376 1.086 1.316
-1.376 0.868 1.585
-1.376 0.585 1.785
-1.376 0.259 1.901
-1.376 -0.087 1.924
-1.376 -0.426 1.854
-1.376 -0.733 1.694
-1.376 -0.986 1.458
-1.376 -1.166 1.162
-1.376 -1.26 0.829
-1.376 -1.26 0.482
-1.376 -1.166 0.149
-1.376 1.224 0.313
-1.586 0.994 0.656
-1.586 0.934 0.995
-1.586 0.761 1.294
-1.586 0.497 1.516
-1.586 0.173 1.634
-1.586 -0.173 1.634
-1.586 -0.497 1.516
-1.586 -0.761 1.294
-1.586 -0.934 0.995
-1.586 -0.994 0.656
-1.586 -0.934 0.316
-1.586 0.934 0.316
-1.741 0.682 0.656
-1.741 0.59 0.997
-1.741 0.341 1.246
-1.741 -0.0 1.337
-1.741 -0.341 1.246
-1.741 -0.59 0.997
-1.741 -0.682 0.656
-1.741 -0.59 0.315
-1.741 0.59 0.315
-1.836 0.347 0.656
-1.836 0.173 0.956
-1.836 -0.173 0.956
-1.836 -0.347 0.656
-1.836 -0.173 0.355
-1.836 0.173 0.355
-1.868 -0.0 0.656
1.263 -0.0 -1.403
1.263 -0.333 -1.314
1.08 -0.262 -1.658
1.08 0.088 -1.69
1.263 0.333 -1.314
1.08 0.427 -1.594
1.08 0.707 -1.382
1.08 -0.577 -1.501
0.837 -0.6 -1.777
0.837 -0.267 -1.907
0.837 0.09 -1.934
0.837 0.438 -1.854
0.837 0.748 -1.675
0.837 0.992 -1.413
1.08 0.892 -1.083
0.837 1.147 -1.091
0.837 -1.081 -1.258
0.546 -1.286 -1.246
0.546 -1.119 -1.55
0.837 -0.88 -1.553
0.546 -0.882 -1.803
0.546 -0.589 -1.989
0.546 -0.259 -2.096
0.546 0.087 -2.117
0.546 0.427 -2.052
0.546 0.741 -1.905
0.546 1.008 -1.684
0.546 1.212 -1.403
0.546 1.34 -1.081
0.222 -1.406 -1.249
0.222 -1.25 -1.56
0.222 -1.027 -1.826
0.222 -0.748 -2.033
0.222 -0.429 -2.171
0.222 -0.087 -2.231
0.222 0.26 -2.211
0.222 0.593 -2.111
0.222 0.894 -1.938
0.222 1.146 -1.699
0.222 1.337 -1.409
0.222 1.456 -1.082
-0.12 -1.497 -1.079
-0.12 -1.383 -1.403
-0.12 -1.2 -1.694
-0.12 -0.957 -1.937
-0.12 -0.666 -2.12
-0.12 -0.342 -2.234
-0.12 0.0 -2.272
-0.12 0.342 -2.234
-0.12 0.666 -2.12
-0.12 0.957 -1.937
-0.12 1.2 -1.694
-0.12 1.383 -1.403
-0.12 1.497 -1.079
-0.461 -1.406 -1.249
-0.461 -1.25 -1.56
-0.461 -1.027 -1.826
-0.461 -0.748 -2.033
-0.461 -0.429 -2.171
-0.461 -0.087 -2.231
-0.461 0.26 -2.211
-0.461 0.593 -2.111
-0.461 0.894 -1.938
-0.461 1.146 -1.699
-0.461 1.337 -1.409
-0.461 1.456 -1.082
-0.786 -1.372 -0.911
-0.786 -1.286 -1.246
-0.786 -1.119 -1.55
-0.786 -0.882 -1.803
-0.786 -0.589 -1.989
-0.786 -0.259 -2.096
-0.786 0.087 -2.117
-0.786 0.427 -2.052
-0.786 0.741 -1.905
-0.786 1.008 -1.684
-0.786 1.212 -1.403
-0.786 1.34 -1.081
-1.077 -1.187 -0.916
-1.077 -1.081 -1.258
-1.077 -0.88 -1.553
-1.077 -0.6 -1.777
-1.077 -0.267 -1.907
-1.077 0.09 -1.934
-1.077 0.438 -1.854
-1.077 0.748 -1.675
-1.077 0.992 -1.413
-1.077 1.147 -1.091
-1.32 -0.941 -0.913
-1.32 -0.814 -1.241
-1.32 -0.577 -1.501
-1.32 -0.262 -1.658
-1.32 0.088 -1.69
-1.32 0.427 -1.594
-1.32 0.707 -1.382
-1.32 0.892 -1.083
-1.503 -0.577 -1.07
-1.503 -0.333 -1.314
-1.503 -0.0 -1.403
-1.503 0.333 -1.314
-1.503 0.577 -1.07
-1.616 -0.171 -1.033
-1.616 0.171 -1.033
1.161 -0.8115 -0.909
1.1715 -0.455 -1.4075
1.08 -0.814 -1.241
0.9585 -0.9475 -1.2495
0.9585 -0.847 -1.397
0.837 -0.9805 -1.4055
1.08 -0.6955 -1.371
0.9585 -0.7285 -1.527
1.2575 -0.4995 -1.116
1.1715 -0.5735 -1.2775
1.166 -0.74 -1.0795
1.075 -0.8855 -1.0705
0.9535 -1.019 -1.079

CELLS 840 3360
3 0 1 2
3 2 1 3
3 1 4 3
3 3 4 5
3 4 6 5
3 6 7 8
3 8 7 9
3 7 10 9
3 9 10 11
3 10 12 11
3 11 12 13
3 12 14 13
3 13 14 15
3 14 16 15
3 15 16 17
3 16 18 17
3 17 18 19
3 18 20 19
3 19 20 21
3 20 22 21
3 21 22 23
3 22 24 23
3 23 24 25
3 24 26 25
3 25 26 27
3 26 28 27
3 27 28 29
3 28 30 29
3 29 30 31
3 30 32 31
3 31 32 33
3 32 34 33
3 33 34 35
3 34 36 35
3 35 36 37
3 36 38 37
3 37 38 39
3 38 40 39
3 39 40 41
3 40 42 41
3 41 42 43
3 42 44 43
3 43 44 45
3 44 46 45
3 45 46 47
3 46 48 47
3 47 48 49
3 48 50 49
3 49 50 51
3 50 52 51
3 51 52 53
3 52 54 53
3 53 54 55
3 54 0 55
3 55 0 2
3 56 57 58
3 56 58 59
3 56 59 60
3 56 60 61
3 56 61 62
3 56 62 57
3 58 57 63
3 58 63 64
3 58 64 65
3 59 58 65
3 59 65 66
3 59 66 67
3 60 59 67
3 60 67 68
3 60 68 69
3 61 60 69
3 61 69 70
3 61 70 71
3 62 61 71
3 62 71 72
3 62 72 73
3 57 62 73
3 57 73 74
3 57 74 63
3 63 74 75
3 63 75 76
3 64 63 76
3 64 76 77
3 64 77 78
3 65 64 78
3 65 78 79
3 66 65 79
3 66 79 80
3 66 80 81
3 67 66 81
3 67 81 82
3 68 67 82
3 68 82 83
3 68 83 84
3 69 68 84
3 69 84 85
3 70 69 85
3 73 72 86
3 73 86 87
3 74 73 87
3 74 87 88
3 74 88 75
3 75 88 89
3 75 89 90
3 76 75 90
3 76 90 91
3 77 76 91
3 77 91 92
3 78 77 92
3 78 92 93
3 78 93 94
3 79 78 94
3 79 94 95
3 80 79 95
3 80 95 96
3 81 80 96
3 81 96 97
3 81 97 98
3 82 81 98
3 82 98 99
3 83 82 99
3 83 99 100
3 84 83 100
3 84 100 101
3 85 84 101
3 85 101 102
3 87 86 103
3 87 103 104
3 88 87 104
3 88 104 105
3 88 105 89
3 89 105 106
3 89 106 107
3 90 89 107
3 90 107 108
3 91 90 108
3 91 108 109
3 92 91 109
3 92 109 110
3 93 92 110
3 93 110 111
3 94 93 111
3 94 111 112
3 94 112 113
3 95 94 113
3 95 113 114
3 96 95 114
3 96 114 115
3 97 96 115
3 97 115 116
3 98 97 116
3 98 116 117
3 99 98 117
3 99 117 118
3 99 118 119
3 100 99 119
3 100 119 120
[...]
CELL_DATA 840
SCALARS cell_data_0 double
LOOKUP_TABLE default
8.13703655436e-08
8.28959171939e-08
1.053278082e-07
5.58566824398e-09
4.04622384318e-09
5.66078737426e-09
6.99283467331e-09
8.2323226339e-09
1.01642262776e-08
7.86250713176e-09
1.08396671489e-08
7.26055688209e-09
9.15154607942e-09
6.17288800374e-09
7.54495135654e-09
5.11776761759e-09
6.0387562553e-09
4.45988712649e-09
5.18878757957e-09
4.00927220503e-09
4.36316075396e-09
3.19638029853e-09
3.70905818789e-09
2.87188777196e-09
3.42229802209e-09
2.63320295045e-09
3.00024523381e-09
2.43590999802e-09
2.85361582519e-09
2.33979820065e-09
2.73779189124e-09
2.19642346299e-09
2.69058552723e-09
2.25509338136e-09
2.85361023507e-09
2.41276911226e-09
3.24805837346e-09
2.65935461574e-09
3.32100743597e-09
2.5217400984e-09
3.31522897013e-09
2.77468676409e-09
3.53436281502e-09
2.74040307084e-09
3.39529995252e-09
2.42594034707e-09
2.5495943368e-09
1.26559819296e-09
7.04494113206e-10
1.9979731004e-09
1.17327350942e-08
1.17532255987e-08
2.9620658639e-08
1.90410635382e-08
1.59491994053e-08
3.73322834294e-10
4.89520182125e-10
3.47734350041e-10
6.14969718979e-10
9.7172499828e-10
5.66421388366e-10
6.79657068914e-10
6.14021654418e-10
6.22495804662e-10
8.24207348034e-10
7.3477645198e-10
7.22937579517e-10
6.36685701956e-10
5.04160744383e-10
4.28621713587e-11
4.71000146421e-10
7.02191632039e-10
6.8982165537e-11
1.67163171659e-09
8.50520175565e-10
7.39257051849e-10
9.73741381545e-10
5.50799210655e-10
5.28323385246e-10
5.81604078912e-10
5.01213064573e-10
5.71995751625e-10
5.20694047554e-10
5.51172091319e-10
6.18335395432e-10
5.72404674274e-10
7.13533256259e-10
6.64141912375e-10
7.09346774661e-10
7.50208815103e-10
5.77513737744e-10
6.08284765025e-10
5.88669784781e-10
8.99651629384e-11
7.39946208599e-10
9.9203612019e-10
1.63286051241e-09
4.93553627342e-10
5.29893487938e-10
5.75206214729e-10
4.79200048518e-10
5.0942249393e-10
4.86898994887e-10
4.52270133378e-10
4.98129299515e-10
4.49843865243e-10
5.07848485808e-10
4.69461809623e-10
5.26362909239e-10
5.04910567058e-10
5.15950074671e-10
5.80619862566e-10
5.4707920823e-10
6.20489105872e-10
5.85641353156e-10
6.76474138568e-10
6.63706710119e-10
6.69504477939e-10
6.26366655366e-10
5.6907257193e-10
6.09145842267e-10
4.19349205764e-10
2.42802589504e-10
2.54508834355e-09
3.0421031539e-09
2.23128047421e-09
4.38572273516e-10
3.62837922584e-10
4.4809455748e-10
4.49519393928e-10
4.58639781573e-10
4.2781788209e-10
4.01359225891e-10
4.31629203176e-10
4.06346075668e-10
4.38934851933e-10
4.09734191526e-10
4.39788230222e-10
4.15797608468e-10
4.54027547639e-10
4.36948296541e-10
4.69732835344e-10
4.66166097918e-10
4.86238303695e-10
5.28751870354e-10
5.29634842742e-10
5.82077958308e-10
5.66697901667e-10
6.24989736997e-10
6.29577439074e-10
6.65261894457e-10
6.01120135868e-10
6.01830517135e-10
6.19066318374e-10
2.58770402549e-10
1.89616855591e-11
2.40542844532e-10
1.88217227488e-09
3.27805409329e-10
3.27131590594e-10
3.9220712729e-10
3.8291900709e-10
4.08294292879e-10
3.68895806612e-10
3.41545447232e-10
3.78537865624e-10
3.49777792914e-10
3.83498953217e-10
3.50750153218e-10
3.88958448969e-10
3.54556139873e-10
3.9547001872e-10
3.66070428624e-10
4.04696682342e-10
3.74608434619e-10
4.22425745471e-10
4.06913242604e-10
4.21494456579e-10
4.63960922035e-10
4.45082274481e-10
5.04298955551e-10
4.86554931457e-10
5.51502615816e-10
5.15721892302e-10
6.0085211885e-10
5.81270353548e-10
6.1578336013e-10
5.41805454245e-10
5.93867504103e-10
5.46504045791e-10
4.40471090586e-10
1.92664323207e-10
5.60332563086e-11
2.20369806351e-10
2.6011147462e-10
2.53773358966e-10
3.27231241496e-10
3.25376731055e-10
3.42613265751e-10
3.09230470894e-10
3.00667755403e-10
3.18825459965e-10
3.11698537259e-10
3.25877606133e-10
3.12713023351e-10
3.28605302135e-10
3.17904030866e-10
3.32900684025e-10
3.24508446404e-10
3.42578150947e-10
3.35717611228e-10
3.53344323749e-10
3.46727924313e-10
3.71707288851e-10
3.67689064858e-10
3.96132780874e-10
3.91515028871e-10
4.21275297673e-10
4.18517168668e-10
4.58222390371e-10
4.58059208674e-10
4.9032297243e-10
4.78370242923e-10
5.26072261512e-10
5.28039217843e-10
5.42485924678e-10
5.0687845798e-10
5.01087279916e-10
4.44163276753e-10
3.17151106435e-10
2.81840182373e-10
3.04890530396e-11
5.19151829448e-11
1.88235170942e-10
1.89177304064e-10
2.50973878962e-10
2.57505022531e-10
2.99431708129e-10
2.70341833498e-10
2.67158445613e-10
2.88223638691e-10
2.83674836656e-10
2.89485300427e-10
2.83177086914e-10
2.95452998393e-10
2.89020690061e-10
3.0062374602e-10
2.9061717387e-10
3.04423768672e-10
2.98613647772e-10
3.18533692013e-10
3.12595918254e-10
3.31085584235e-10
3.26147319481e-10
3.47801542626e-10
3.46214042642e-10
3.70983942775e-10
3.70366805124e-10
3.96451924685e-10
3.94072966792e-10
4.25788684743e-10
4.25654044238e-10
4.56702440902e-10
4.46594315698e-10
4.79015600914e-10
4.59617244688e-10
4.79274330514e-10
4.2280010481e-10
4.04283397865e-10
2.62419915362e-10
1.83251847983e-10
1.32855401378e-11
7.10319978954e-11
9.07810066017e-11
1.16325929354e-10
1.38436481906e-10
2.14142404744e-10
2.37559338627e-10
2.60225963395e-10
2.49468259346e-10
2.39828055384e-10
2.43865701209e-10
2.47247607594e-10
2.65729902209e-10
2.52149193571e-10
2.62286199261e-10
2.54635089416e-10
2.68459448061e-10
2.63809513217e-10
2.73893867984e-10
2.65737626252e-10
2.76297447039e-10
2.86785276868e-10
2.81427700212e-10
2.91348072447e-10
3.07258577339e-10
3.08445434421e-10
3.25621958476e-10
3.28234226102e-10
3.49497212094e-10
3.52098738346e-10
3.71493852018e-10
3.73284435123e-10
3.97777940692e-10
3.9292915703e-10
4.12552722985e-10
3.95372918815e-10
4.13809497821e-10
3.6484175659e-10
3.5953412101e-10
2.62199067075e-10
1.75056637081e-10
7.9956834762e-11
2.45255192605e-11
9.61363313857e-11
1.84806313406e-10
1.88073758289e-10
2.1695738517e-10
1.73452294856e-10
1.61957535421e-10
2.01229054065e-10
1.91435557403e-10
2.31729399562e-10
2.26687312217e-10
2.30672190013e-10
2.24776474087e-10
2.39788734282e-10
2.35605747573e-10
2.45777112341e-10
2.43476558299e-10
2.53820706971e-10
2.47009567024e-10
2.59737375106e-10
2.59309166097e-10
2.74263590788e-10
2.69897039291e-10
2.87592623751e-10
2.84682417984e-10
3.06960064126e-10
3.02774139819e-10
3.26449563958e-10
3.18977458441e-10
3.4608926508e-10
3.40804023598e-10
3.62090767169e-10
3.45919162793e-10
3.60050797175e-10
3.48290733514e-10
3.32606454814e-10
3.00685626806e-10
2.47820942461e-10
1.57995380085e-10
7.91478346056e-11
4.31863784026e-11
6.98216422553e-11
1.18709520361e-10
7.30160839248e-11
1.2741127979e-10
1.70097906975e-10
1.79050857512e-10
2.06136664628e-10
1.94977922843e-10
2.03219615865e-10
2.06758585671e-10
2.21345339255e-10
2.15279086584e-10
2.22867539167e-10
2.21512589353e-10
2.30521817976e-10
2.2828796748e-10
2.38328517765e-10
2.36826615672e-10
2.46155448976e-10
2.47321570885e-10
2.61358116755e-10
2.60716057598e-10
2.73840706539e-10
2.72442484225e-10
2.87075191511e-10
2.8655755255e-10
3.04901934985e-10
2.96549437648e-10
3.10128434866e-10
2.95896324462e-10
3.11773009583e-10
2.73148262804e-10
2.77752917422e-10
1.92679341662e-10
1.02226347846e-10
1.97665716453e-11
9.88760647024e-12
1.30904129197e-10
5.03596397882e-11
4.90744149671e-11
1.10976980777e-10
1.57099191716e-10
1.68720135588e-10
1.83363384935e-10
1.87157676643e-10
1.85346071313e-10
2.00361452059e-10
2.02588301858e-10
2.0829291376e-10
2.0491985863e-10
2.15802551139e-10
2.16826589401e-10
2.23001192464e-10
2.22078413193e-10
2.29012980897e-10
2.35742844775e-10
2.40973543486e-10
2.4973068942e-10
2.50899943544e-10
2.64658398707e-10
2.65787344502e-10
2.70602921306e-10
2.65996793052e-10
2.65923119426e-10
2.64088511116e-10
2.41274985706e-10
2.32182573117e-10
1.55931596566e-10
8.00507078283e-11
3.35859923425e-11
4.66363301958e-12
1.02787658522e-10
3.26794834178e-13
8.73388062875e-12
9.03929312646e-11
1.5449155268e-10
1.56917331419e-10
1.72520180677e-10
1.75098257745e-10
1.78856023139e-10
1.91045039555e-10
1.97585867781e-10
1.98656287026e-10
2.01381753377e-10
2.06704135551e-10
2.17104551763e-10
2.19968406039e-10
2.23610909663e-10
2.30751204132e-10
2.32234090166e-10
2.39169200685e-10
2.34453789229e-10
2.36190805008e-10
2.2815657876e-10
2.29528867808e-10
2.03186843376e-10
2.08017259824e-10
8.15162457254e-11
3.53142006314e-13
1.01629142322e-10
3.44671153268e-11
8.57443738516e-11
1.66410174317e-11
1.48979583918e-11
8.88944426289e-11
1.45151038207e-10
1.4838014492e-10
1.5722424422e-10
1.66539612693e-10
1.69750249919e-10
1.78403745146e-10
1.89440250317e-10
1.91096923163e-10
1.96696296921e-10
1.99066454527e-10
2.00725705781e-10
2.00903929358e-10
2.03304451528e-10
2.06416214183e-10
2.01374266032e-10
1.82053878598e-10
1.77825034397e-10
1.28394768157e-10
1.07513195865e-11
8.41192408953e-11
5.03012607189e-11
6.81135113878e-11
6.85758782596e-11
1.87490217571e-11
8.96345296449e-11
1.38984983585e-10
1.49361299631e-10
1.50004778216e-10
1.61081953192e-10
1.74276970069e-10
1.70290918299e-10
1.81783412325e-10
1.76105008607e-10
1.75392553263e-10
1.77982512295e-10
1.67018634124e-10
1.01646502837e-10
1.24998139044e-11
4.21873785785e-11
6.37845970369e-11
8.76555818715e-11
6.0387076391e-11
2.84250261974e-11
8.38527038034e-11
1.43661661722e-10
1.42113641766e-10
1.71748304363e-10
1.4843219079e-10
1.59228606382e-10
9.84640028228e-11
1.93219883813e-11
6.02897529292e-11
1.30478592862e-10
1.2392417324e-10
6.36789410533e-11
5.84485000684e-11
4.54141712205e-11
5.73004797187e-11
7.2488820915e-11
8.64923375518e-11
6.87145944874e-11
2.63416855147e-11
4.93759690212e-10
3.11375025453e-11
5.39613751229e-10
5.43042963787e-11
5.62699091014e-10
1.25805701519e-10
7.49844480814e-10
9.74820213493e-11
5.39782255606e-10
2.1755356666e-10
7.57763714218e-10
3.66741608581e-10
3.58348659994e-10
9.56230915549e-10
1.06481293318e-09
6.5693804024e-10
5.13317935514e-10
6.02836610148e-11
8.51304403063e-10
5.23228521219e-10
1.68854438173e-09
7.5982795626e-10
3.60714355111e-09
2.04719973086e-09
2.35357738125e-09
2.56841773828e-09
1.08340640962e-09
1.17398845889e-09
1.54915899556e-09
5.62584940411e-08
6.17150590724e-08
5.24734276517e-08
4.8444900449e-08
4.14445061271e-10
7.92137606927e-10
7.80237647242e-10
6.95917720496e-10
4.88272850776e-10
1.22694563229e-10
1.48545207335e-10
1.35032107287e-10
1.23556973887e-13
3.29873122625e-10
9.84686401472e-11
3.95991564801e-10
1.66286697773e-10
4.1470968441e-10
3.29438720913e-10
8.32132662438e-10
1.69907813941e-10
5.10935495342e-10
5.78318082224e-11
8.58647917899e-11
5.23014734665e-10
4.10909298883e-11
4.84356926049e-10
2.98836586673e-11
4.46461369244e-10
4.91398749752e-11
4.89755209575e-10
1.47711471126e-07
6.35514551922e-08
7.41875359586e-08
3.30193577088e-09
1.74477112224e-08
3.18468631813e-08
1.51396561294e-08
2.31690003326e-08
7.53887704405e-09
6.78163420766e-09
2.10907501689e-08
1.8957706574e-08
7.79837128256e-10
1.36880825718e-08
2.76838440578e-08
9.83502141972e-09
5.63547530586e-09
7.07555519593e-09
6.64055773382e-09
3.65940730779e-09
4.02074027287e-09
3.48119547707e-09
2.08943801564e-09
2.39417759703e-09
1.25649920846e-09
5.02438015056e-10
7.98216120435e-11
9.61162262703e-10
4.12082868944e-10
2.60291381907e-09
2.97576511424e-09
4.29285154448e-09
4.70161694225e-09
6.73254914606e-09
4.822102259e-09
3.08431494861e-09
5.64320203529e-10
1.93007614297e-09
6.50402053378e-10
4.16081464806e-10
1.91546448402e-09
1.676962033e-10
1.43201396883e-09
5.47749344717e-10
3.09151322387e-10
1.14355721816e-09
7.47452736149e-10
1.60780271578e-09
1.47931321438e-09
1.94315363628e-09
1.87067767764e-09
2.08340730058e-09
3.49945954086e-09
4.78096906436e-09
5.57816012268e-09
5.26574696084e-09
4.8337092735e-09
4.40392653764e-09
4.38964164561e-09
3.69392518173e-09
3.66511015461e-09
2.90847311101e-09
3.01769261043e-09
2.41287203558e-09
2.67045488878e-09
2.21220844273e-09
2.48451430232e-09
2.16287709015e-09
2.38553663259e-09
2.18794561787e-09
2.32582053639e-09
2.2630569694e-09
2.35948873838e-09
2.33696909836e-09
2.22717255754e-09
3.16875129578e-09
4.01187862167e-09
4.97106019374e-09
4.77561960836e-09
4.93627410955e-09
4.5146906591e-09
4.42991991011e-09
3.98923483793e-09
3.83054434436e-09
3.5674606865e-09
3.38708296876e-09
3.20838874338e-09
3.0386854097e-09
2.90196403205e-09
2.79572929669e-09
2.68504823299e-09
2.61505340711e-09
2.52254864738e-09
2.44515298903e-09
2.36231642233e-09
2.3415128797e-09
2.2528248796e-09
2.15581252331e-09
2.64532731541e-09
3.5537476312e-09
3.9203759328e-09
4.11047108708e-09
3.8766454609e-09
3.92459146016e-09
3.69409531203e-09
3.63951998452e-09
3.45465189148e-09
3.3452879413e-09
3.17435646146e-09
3.03249921339e-09
2.88880525321e-09
2.76936578414e-09
2.61395106563e-09
2.50278291779e-09
2.37987208307e-09
2.35191159946e-09
2.22281298556e-09
2.22277395895e-09
1.95733755747e-09
1.93885725352e-09
2.00549483927e-09
2.80531849715e-09
3.53766996394e-09
3.47996440539e-09
3.34300842383e-09
3.28631002776e-09
3.24803184751e-09
3.16447366984e-09
3.06738677404e-09
3.00508917188e-09
2.91995732831e-09
2.6812417777e-09
2.56841248725e-09
2.35905821184e-09
2.33785194963e-09
2.26090794767e-09
2.20947997036e-09
1.95726443508e-09
1.96217877717e-09
1.73999678104e-09
1.9657168568e-09
2.07008438506e-09
2.98405960476e-09
2.78557785951e-09
2.8111458517e-09
2.78716687545e-09
2.68334057764e-09
2.6457901712e-09
2.64033088525e-09
2.58350941091e-09
2.47184968843e-09
2.29779505433e-09
2.13744914074e-09
1.86089330545e-09
1.76286064679e-09
1.81978320221e-09
2.12340270941e-09
2.21203235174e-09
2.29475696663e-09
2.34012681327e-09
2.16983426272e-09
2.27281515075e-09
2.16720675047e-09
2.14342315709e-09
2.0592561523e-09
1.99871880142e-09
1.72350635304e-09
1.98064989663e-09
1.98873166965e-09
1.80182810097e-09
1.7660528153e-09
2.59079662308e-10
8.04545952573e-11
1.95380489085e-10
1.5925231924e-10
2.38814182835e-09
2.76509896312e-09
2.62003340468e-09
2.83359342827e-09
2.51214057332e-09
2.74604658544e-09
2.57758825444e-09
2.70823768059e-09
2.91026659308e-09
2.83275290095e-09
3.24972465755e-09
2.81225156941e-09
3.27960903666e-09
2.62749094375e-09
3.32020526725e-09
2.25176555936e-09
2.57750684394e-09
3.53032098218e-10
7.63123073456e-09
1.00756024266e-08
3.93278709517e-08
7.79451342693e-08
3.7668591543e-08
3.03961738574e-08
8.32559237091e-08
1.5809780494e-07
7.67479648567e-08
5.77292269005e-09
9.01928912668e-09
9.4742821783e-09
9.64097922442e-09
8.15625153665e-09
5.56885275435e-09
4.87643898906e-09
7.35291331225e-09
6.34083522684e-09
2.38748525859e-09
2.0739822916e-09
2.36479605398e-09
2.17142128289e-09
2.1493429962e-09
1.93599166546e-09
3.11679679368e-09
2.76501282737e-09
2.8775763044e-09
2.35769134222e-09
1.14597276597e-11
7.31021990332e-10
2.29965899622e-07
1.83240294832e-07
1.59174283929e-08
3.67807235203e-08
1.75513815621e-08
1.38678213284e-09
6.73325876759e-09
2.25415573837e-09
1.50626227523e-08
2.24003149182e-08
1.60798436972e-09
9.6121187429e-09
8.50063067712e-09
1.27783299206e-08
3.00284433216e-09
1.62456084469e-09
1.49661706705e-07
1.64253303744e-07
5.48071408543e-08
1.00076160765e-07
1.24143644755e-07
3.17841973229e-08
1.5444214732e-08
2.06994610436e-08
2.43443535809e-08
3.36994355258e-08
1.71055388868e-08
6.83849822647e-08
8.9642451797e-08
4.54191732055e-08
3.95805493729e-08
1.37112548718e-08
6.17926265526e-09
5.55314207614e-09
4.70777335045e-09
1.7960803673e-10

