# vtk DataFile Version 3.0
File Name: Molecule/methanol/methanol_10.0-16_06.vtk
ASCII
DATASET UNSTRUCTURED_GRID
FIELD FieldData 1
TIME 1 1 double
0.0
POINTS 491 double
1.611 0.0 -0.359
1.574 -0.35 -0.355
1.475 0.0 -0.634
1.441 -0.328 -0.631
1.403 0.0 -0.933
1.369 -0.319 -0.929
1.466 -0.685 -0.344
1.339 -0.641 -0.621
1.271 -0.624 -0.92
1.291 -0.99 -0.327
1.175 -0.927 -0.604
1.111 -0.902 -0.904
1.056 -1.252 -0.304
0.956 -1.172 -0.583
0.898 -1.14 -0.882
0.773 -1.459 -0.275
0.691 -1.366 -0.556
0.639 -1.329 -0.857
0.453 -1.602 -0.243
0.391 -1.5 -0.526
0.348 -1.459 -0.828
0.11 -1.675 -0.209
0.07 -1.568 -0.494
0.036 -1.526 -0.797
-0.241 -1.675 -0.174
-0.258 -1.568 -0.462
-0.284 -1.526 -0.765
-0.583 -1.602 -0.14
-0.579 -1.5 -0.43
-0.596 -1.459 -0.734
-0.903 -1.459 -0.108
-0.878 -1.366 -0.4
-0.887 -1.329 -0.705
-1.187 -1.252 -0.08
-1.144 -1.172 -0.374
-1.146 -1.14 -0.679
-1.421 -0.99 -0.057
-1.363 -0.927 -0.352
-1.359 -0.902 -0.658
-1.597 -0.685 -0.039
-1.527 -0.641 -0.335
-1.519 -0.624 -0.642
-1.705 -0.35 -0.029
-1.629 -0.328 -0.325
-1.617 -0.319 -0.632
-1.742 0.0 -0.025
-1.663 0.0 -0.322
-1.651 0.0 -0.629
-1.705 0.35 -0.029
-1.629 0.328 -0.325
-1.617 0.319 -0.632
-1.597 0.685 -0.039
-1.527 0.641 -0.335
-1.519 0.624 -0.642
-1.421 0.99 -0.057
-1.363 0.927 -0.352
-1.359 0.902 -0.658
-1.187 1.252 -0.08
-1.144 1.172 -0.374
-1.146 1.14 -0.679
-0.903 1.459 -0.108
-0.878 1.366 -0.4
-0.887 1.329 -0.705
-0.583 1.602 -0.14
-0.579 1.5 -0.43
-0.596 1.459 -0.734
-0.241 1.675 -0.174
-0.258 1.568 -0.462
-0.284 1.526 -0.765
0.11 1.675 -0.209
0.07 1.568 -0.494
0.036 1.526 -0.797
0.453 1.602 -0.243
0.391 1.5 -0.526
0.348 1.459 -0.828
0.773 1.459 -0.275
0.691 1.366 -0.556
0.639 1.329 -0.857
1.056 1.252 -0.304
0.956 1.172 -0.583
0.898 1.14 -0.882
1.291 0.99 -0.327
1.175 0.927 -0.604
1.111 0.902 -0.904
1.466 0.685 -0.344
1.339 0.641 -0.621
1.271 0.624 -0.92
1.574 0.35 -0.355
1.441 0.328 -0.631
1.369 0.319 -0.929
1.907 0.0 0.656
1.878 0.328 0.656
1.878 0.164 0.939
1.878 -0.164 0.939
1.878 -0.328 0.656
1.878 -0.164 0.372
1.878 0.164 0.372
1.793 0.559 0.978
1.793 0.323 1.215
1.793 -0.0 1.301
1.793 -0.323 1.215
1.793 -0.559 0.978
1.793 -0.646 0.656
1.793 -0.559 0.333
1.793 -0.323 0.097
1.793 -0.0 0.01
1.793 0.323 0.097
1.793 0.559 0.333
1.793 0.646 0.656
1.654 0.887 0.978
1.654 0.723 1.262
1.654 0.472 1.473
1.654 0.164 1.585
1.654 -0.164 1.585
1.654 -0.472 1.473
1.654 -0.723 1.262
1.654 -0.887 0.978
1.654 -0.944 0.656
1.654 -0.887 0.333
1.654 -0.723 0.049
1.654 -0.472 -0.162
1.654 0.472 -0.162
1.654 0.723 0.049
1.654 0.887 0.333
1.654 0.944 0.656
1.465 1.168 0.983
1.465 1.037 1.286
1.465 0.828 1.542
1.465 0.558 1.733
1.465 0.247 1.843
1.465 -0.083 1.866
1.465 -0.406 1.799
1.465 -0.7 1.647
1.465 -0.941 1.421
1.465 -1.113 1.139
1.465 -1.202 0.821
1.465 -1.202 0.49
1.465 -1.113 0.172
1.465 -0.941 -0.11
1.465 1.037 0.025
1.465 1.168 0.328
1.465 1.213 0.656
1.232 1.41 0.977
1.232 1.303 1.283
1.232 1.13 1.557
1.232 0.902 1.786
1.232 0.627 1.958
1.232 0.322 2.065
1.232 0.0 2.102
1.232 -0.322 2.065
1.232 -0.627 1.958
1.232 -0.902 1.786
1.232 -1.13 1.557
1.232 -1.303 1.283
1.232 -1.41 0.977
1.232 -1.446 0.656
1.232 -1.41 0.334
1.232 -1.303 0.028
1.232 1.303 0.028
1.232 1.41 0.334
1.232 1.446 0.656
0.963 1.603 0.974
0.963 1.51 1.281
0.963 1.359 1.564
0.963 1.156 1.811
0.963 0.908 2.015
0.963 0.626 2.166
0.963 0.319 2.259
0.963 0.0 2.29
0.963 -0.319 2.259
0.963 -0.626 2.166
0.963 -0.908 2.015
0.963 -1.156 1.811
0.963 -1.359 1.564
0.963 -1.51 1.281
0.963 -1.603 0.974
0.963 -1.635 0.656
0.963 -1.603 0.337
0.963 -1.51 0.03
0.963 1.51 0.03
0.963 1.603 0.337
0.963 1.635 0.656
0.665 1.743 0.982
0.665 1.654 1.296
0.665 1.508 1.589
0.665 1.311 1.851
0.665 1.069 2.071
0.665 0.791 2.243
0.665 0.485 2.362
0.665 0.164 2.422
0.665 -0.164 2.422
0.665 -0.485 2.362
0.665 -0.791 2.243
0.665 -1.069 2.071
0.665 -1.311 1.851
0.665 -1.508 1.589
0.665 -1.654 1.296
0.665 -1.743 0.982
0.665 -1.774 0.656
0.665 -1.743 0.33
0.665 -1.654 0.015
0.665 1.654 0.015
0.665 1.743 0.33
0.665 1.774 0.656
0.347 1.831 0.978
0.347 1.747 1.291
0.347 1.61 1.585
0.347 1.424 1.85
0.347 1.195 2.08
0.347 0.929 2.265
0.347 0.636 2.402
0.347 0.323 2.486
0.347 0.0 2.514
0.347 -0.323 2.486
0.347 -0.636 2.402
0.347 -0.929 2.265
0.347 -1.195 2.08
0.347 -1.424 1.85
0.347 -1.61 1.585
0.347 -1.747 1.291
0.347 -1.831 0.978
0.347 -1.859 0.656
0.347 -1.831 0.333
0.347 -1.747 0.02
0.347 1.747 0.02
0.347 1.831 0.333
0.347 1.859 0.656
0.019 1.86 0.975
0.019 1.78 1.284
0.019 1.648 1.576
0.019 1.469 1.841
0.019 1.247 2.072
0.019 0.99 2.263
0.019 0.704 2.407
0.019 0.398 2.501
0.019 0.08 2.541
0.019 -0.24 2.528
0.019 -0.553 2.46
0.019 -0.85 2.341
0.019 -1.122 2.173
0.019 -1.363 1.962
0.019 -1.564 1.713
0.019 -1.72 1.433
0.019 -1.827 1.131
0.019 -1.881 0.816
0.019 -1.881 0.496
0.019 -1.827 0.18
0.019 1.78 0.027
0.019 1.86 0.337
0.019 1.888 0.656
-0.309 1.859 0.656
-0.309 1.831 0.978
-0.309 1.747 1.291
-0.309 1.61 1.585
-0.309 1.424 1.85
-0.309 1.195 2.08
-0.309 0.929 2.265
-0.309 0.636 2.402
-0.309 0.323 2.486
-0.309 0.0 2.514
-0.309 -0.323 2.486
-0.309 -0.636 2.402
-0.309 -0.929 2.265
-0.309 -1.195 2.08
-0.309 -1.424 1.85
-0.309 -1.61 1.585
-0.309 -1.747 1.291
-0.309 -1.831 0.978
-0.309 -1.859 0.656
-0.309 -1.831 0.333
-0.309 -1.747 0.02
-0.309 1.747 0.02
-0.309 1.831 0.333
-0.627 1.774 0.656
-0.627 1.743 0.982
-0.627 1.654 1.296
-0.627 1.508 1.589
-0.627 1.311 1.851
-0.627 1.069 2.071
-0.627 0.791 2.243
-0.627 0.485 2.362
-0.627 0.164 2.422
-0.627 -0.164 2.422
-0.627 -0.485 2.362
-0.627 -0.791 2.243
-0.627 -1.069 2.071
-0.627 -1.311 1.851
-0.627 -1.508 1.589
-0.627 -1.654 1.296
-0.627 -1.743 0.982
-0.627 -1.774 0.656
-0.627 -1.743 0.33
-0.627 1.743 0.33
-0.925 1.635 0.656
-0.925 1.603 0.974
-0.925 1.51 1.281
-0.925 1.359 1.564
-0.925 1.156 1.811
-0.925 0.908 2.015
-0.925 0.626 2.166
-0.925 0.319 2.259
-0.925 0.0 2.29
-0.925 -0.319 2.259
-0.925 -0.626 2.166
-0.925 -0.908 2.015
-0.925 -1.156 1.811
-0.925 -1.359 1.564
-0.925 -1.51 1.281
-0.925 -1.603 0.974
-0.925 -1.635 0.656
-0.925 -1.603 0.337
-0.925 1.603 0.337
-1.194 1.446 0.656
-1.194 1.41 0.977
-1.194 1.303 1.283
-1.194 1.13 1.557
-1.194 0.902 1.786
-1.194 0.627 1.958
-1.194 0.322 2.065
-1.194 0.0 2.102
-1.194 -0.322 2.065
-1.194 -0.627 1.958
-1.194 -0.902 1.786
-1.194 -1.13 1.557
-1.194 -1.303 1.283
-1.194 -1.41 0.977
-1.194 -1.446 0.656
-1.194 -1.41 0.334
-1.194 1.41 0.334
-1.427 1.213 0.656
-1.427 1.168 0.983
-1.427 1.037 1.286
-1.427 0.828 1.542
-1.427 0.558 1.733
-1.427 0.247 1.843
-1.427 -0.083 1.866
-1.427 -0.406 1.799
-1.427 -0.7 1.647
-1.427 -0.941 1.421
-1.427 -1.113 1.139
-1.427 -1.202 0.821
-1.427 -1.202 0.49
-1.427 -1.113 0.172
-1.427 1.168 0.328
-1.616 0.944 0.656
-1.616 0.887 0.978
-1.616 0.723 1.262
-1.616 0.472 1.473
-1.616 0.164 1.585
-1.616 -0.164 1.585
-1.616 -0.472 1.473
-1.616 -0.723 1.262
-1.616 -0.887 0.978
-1.616 -0.944 0.656
-1.616 -0.887 0.333
-1.616 0.887 0.333
-1.755 0.646 0.656
-1.755 0.559 0.978
-1.755 0.323 1.215
-1.755 -0.0 1.301
-1.755 -0.323 1.215
-1.755 -0.559 0.978
-1.755 -0.646 0.656
-1.755 -0.559 0.333
-1.755 0.559 0.333
-1.84 0.328 0.656
-1.84 0.164 0.939
-1.84 -0.164 0.939
-1.84 -0.328 0.656
-1.84 -0.164 0.372
-1.84 0.164 0.372
-1.868 0.0 0.656
1.283 -0.312 -1.278
1.122 -0.544 -1.457
1.122 -0.247 -1.605
1.283 -0.0 -1.362
1.122 0.083 -1.636
1.283 0.312 -1.278
1.122 0.402 -1.545
1.122 0.667 -1.345
1.122 -0.767 -1.212
0.907 -1.095 -1.059
0.907 -0.96 -1.354
0.907 -0.747 -1.599
0.907 -0.474 -1.775
0.907 -0.162 -1.866
0.907 0.162 -1.866
0.907 0.474 -1.775
0.907 0.747 -1.599
0.907 0.96 -1.354
0.648 -1.236 -1.227
0.648 -1.075 -1.519
0.648 -0.847 -1.761
0.648 -0.566 -1.94
0.648 -0.249 -2.043
0.648 0.083 -2.064
0.648 0.411 -2.001
0.648 0.712 -1.86
0.648 0.969 -1.647
0.648 1.165 -1.378
0.907 1.095 -1.059
0.648 1.288 -1.068
0.355 -1.423 -1.062
0.355 -1.315 -1.371
0.355 -1.141 -1.647
0.355 -0.91 -1.879
0.355 -0.633 -2.052
0.355 -0.325 -2.16
0.355 0.0 -2.197
0.355 0.325 -2.16
0.355 0.633 -2.052
0.355 0.91 -1.879
0.355 1.141 -1.647
0.355 1.315 -1.371
0.355 1.423 -1.062
0.041 -1.447 -1.225
0.041 -1.308 -1.524
0.041 -1.108 -1.787
0.041 -0.857 -2.001
0.041 -0.565 -2.155
0.041 -0.247 -2.244
0.041 0.083 -2.262
0.041 0.408 -2.208
0.041 0.715 -2.086
0.041 0.988 -1.901
0.041 1.215 -1.661
0.041 1.385 -1.378
0.041 1.491 -1.065
-0.28 -1.447 -1.225
-0.28 -1.308 -1.524
-0.28 -1.108 -1.787
-0.28 -0.857 -2.001
-0.28 -0.565 -2.155
-0.28 -0.247 -2.244
-0.28 0.083 -2.262
-0.28 0.408 -2.208
-0.28 0.715 -2.086
-0.28 0.988 -1.901
-0.28 1.215 -1.661
-0.28 1.385 -1.378
-0.28 1.491 -1.065
-0.594 -1.423 -1.062
-0.594 -1.315 -1.371
-0.594 -1.141 -1.647
-0.594 -0.91 -1.879
-0.594 -0.633 -2.052
-0.594 -0.325 -2.16
-0.594 0.0 -2.197
-0.594 0.325 -2.16
-0.594 0.633 -2.052
-0.594 0.91 -1.879
-0.594 1.141 -1.647
-0.594 1.315 -1.371
-0.594 1.423 -1.062
-0.887 -1.319 -0.904
-0.887 -1.236 -1.227
-0.887 -1.075 -1.519
-0.887 -0.847 -1.761
-0.887 -0.566 -1.94
-0.887 -0.249 -2.043
-0.887 0.083 -2.064
-0.887 0.411 -2.001
-0.887 0.712 -1.86
-0.887 0.969 -1.647
-0.887 1.165 -1.378
-0.887 1.288 -1.068
-1.147 -1.095 -1.059
-1.147 -0.96 -1.354
-1.147 -0.747 -1.599
-1.147 -0.474 -1.775
-1.147 -0.162 -1.866
-1.147 0.162 -1.866
-1.147 0.474 -1.775
-1.147 0.747 -1.599
-1.147 0.96 -1.354
-1.147 1.095 -1.059
-1.362 -0.887 -0.903
-1.362 -0.767 -1.212
-1.362 -0.544 -1.457
-1.362 -0.247 -1.605
-1.362 0.083 -1.636
-1.362 0.402 -1.545
-1.362 0.667 -1.345
-1.362 0.841 -1.063
-1.522 -0.541 -1.049
-1.522 -0.312 -1.278
-1.522 -0.0 -1.362
-1.522 0.312 -1.278
-1.522 0.541 -1.049
-1.621 -0.16 -1.014
-1.621 0.16 -1.014

CELLS 978 3912
3 0 1 2
3 2 1 3
3 2 3 4
3 4 3 5
3 1 6 3
3 3 6 7
3 3 7 5
3 5 7 8
3 6 9 7
3 7 9 10
3 7 10 8
3 8 10 11
3 9 12 10
3 10 12 13
3 10 13 11
3 11 13 14
3 12 15 13
3 13 15 16
3 13 16 14
3 14 16 17
3 15 18 16
3 16 18 19
3 16 19 17
3 17 19 20
3 18 21 19
3 19 21 22
3 19 22 20
3 20 22 23
3 21 24 22
3 22 24 25
3 22 25 23
3 23 25 26
3 24 27 25
3 25 27 28
3 25 28 26
3 26 28 29
3 27 30 28
3 28 30 31
3 28 31 29
3 29 31 32
3 30 33 31
3 31 33 34
3 31 34 32
3 32 34 35
3 33 36 34
3 34 36 37
[...]
CELL_DATA 978
SCALARS cell_data_0 double
LOOKUP_TABLE default
1.13478386462e-09
1.90817519865e-08
1.85509169546e-08
2.34083584953e-08
2.2702681588e-08
1.31962804476e-08
1.49651008355e-08
1.22466015208e-08
2.1155321258e-09
2.94681455934e-09
8.55111846618e-09
4.13397341386e-09
3.51995992206e-10
7.69359326009e-10
4.17134902356e-09
3.31632011309e-09
2.5022882792e-10
2.78487887773e-10
6.58558574768e-10
1.96777673273e-10
2.45830150116e-10
1.4161876205e-10
1.24586306337e-10
1.85801525898e-10
1.74550282937e-10
2.62468440218e-10
2.73774975424e-10
5.35436742549e-11
2.3382495217e-10
6.2386006909e-11
3.91427005894e-10
2.18290137486e-10
1.10762307204e-10
1.53273105049e-10
1.4229617949e-10
2.57132527938e-10
1.80580753187e-10
1.79695316856e-10
2.75486702214e-10
8.10541927265e-10
1.29970609476e-10
1.40858840517e-10
7.38094913557e-10
1.25273114118e-09
5.29589399554e-10
9.86538837333e-11
8.21268154748e-10
1.09805675469e-09
2.91035965529e-10
4.10444440985e-10
9.18618023821e-10
1.03217069271e-09
1.29515827281e-10
3.08222126106e-12
6.8703140213e-10
7.46166150672e-10
4.83710362552e-11
5.6431618609e-10
6.03648250754e-10
2.96043241539e-10
1.33376951268e-10
3.67914066562e-10
5.5691390333e-10
4.74589347118e-10
1.95697985488e-10
2.94213135494e-10
8.50885054832e-10
5.03655002183e-10
1.55318134406e-10
4.79507328351e-10
6.72394408497e-10
3.86745991911e-10
7.59044765097e-11
2.48676105747e-10
5.93580998224e-10
4.50235609196e-10
3.57205774535e-11
1.82884269568e-10
2.88773610886e-10
3.88629433036e-10
1.63917718756e-10
8.99977026346e-11
1.99265160392e-10
7.22558620863e-10
3.65058383077e-10
1.65479602191e-10
8.09129956306e-10
5.9637322743e-10
3.70430503989e-10
3.02652732406e-10
4.46494061887e-10
6.15946643265e-11
1.49538797387e-10
1.33640369507e-10
2.2426787881e-10
8.31740264251e-12
5.4842245691e-11
2.96405890642e-11
8.68377493891e-11
5.37706306983e-11
3.32919714858e-11
1.15991873105e-12
1.08911928664e-11
1.4708046392e-11
2.09114804905e-10
3.48442749418e-10
6.28004008457e-10
9.41645429326e-10
1.85704157496e-09
1.11941786639e-09
5.18909039851e-09
1.19878552412e-09
6.08504462155e-10
3.84527405439e-09
3.60138557018e-09
3.76810848768e-09
1.28703293786e-09
2.13926539413e-09
9.84700984935e-09
7.5726205912e-09
9.74138061889e-11
2.07270885897e-11
7.58498223221e-11
2.52914233815e-11
1.50739991006e-10
1.03585084644e-11
8.86985379981e-11
2.49263105989e-11
2.23722605225e-11
4.11095120329e-12
7.93535056238e-12
1.57105077011e-11
9.33738529957e-11
1.83503545812e-11
3.89731749801e-10
4.580407647e-10
4.14916726755e-10
6.29850590856e-10
4.51326116033e-10
3.39974085766e-10
2.93857107946e-10
1.05076929791e-10
4.90606212694e-11
9.29120919019e-11
4.4363599669e-11
3.01773620353e-11
8.81634681432e-11
6.85576757003e-11
3.46623865085e-11
2.77491984294e-11
4.12949291822e-11
1.0275763e-10
8.06010452413e-11
5.65075109829e-12
4.65547357826e-12
3.97165629498e-11
9.89740001762e-12
1.58036852823e-10
8.9538849479e-11
5.03362733632e-10
3.30581854159e-10
4.94924040399e-10
2.84463870114e-09
2.8393266613e-12
1.64966627625e-11
5.69771382447e-11
6.28306873915e-11
3.63151643302e-11
1.78297141872e-11
1.26160284567e-11
2.67215453127e-11
3.8732132087e-11
4.31689813641e-11
2.70175574468e-11
5.95756862033e-11
5.37844076195e-11
6.04845724427e-11
9.87827950763e-12
2.52508152385e-11
2.51115078479e-11
3.18745160908e-11
4.77249840072e-11
2.4445369403e-11
5.00979973111e-11
1.87411715803e-11
6.50050018722e-12
3.38826976386e-11
1.30817780559e-10
2.25850816247e-10
4.0194916683e-10
4.98142099347e-10
2.05636780884e-09
2.20376602257e-09
6.08926025834e-11
2.41956074543e-11
8.04543476244e-12
3.80886363027e-11
6.9744264706e-12
5.05651236787e-12
2.24446565139e-11
2.67015329475e-12
5.5805801301e-12
2.42960118391e-11
3.14927443842e-11
5.15417241785e-11
6.44013867256e-11
1.70727236693e-10
6.13915631036e-11
3.54486248997e-12
3.47029381899e-11
1.70324051994e-12
4.4629287616e-11
1.24146103187e-11
2.33828868257e-11
3.66870077748e-11
8.66590248898e-11
3.19698079091e-11
3.17973332435e-12
2.32844517211e-11
4.77806561837e-11
3.1150209643e-11
1.30372774299e-10
1.08412365911e-10
2.07674934513e-10
4.2484320623e-10
6.2822541207e-10
9.55046199937e-10
9.44795091761e-12
6.57686300629e-12
3.69188149424e-12
1.07923866037e-12
2.11104694752e-11
1.99715687648e-12
1.73783675304e-12
4.42001332379e-12
1.16229330983e-11
1.22727498277e-11
2.41958402142e-11
1.33516164692e-12
4.09629256453e-11
3.9370930424e-11
3.99555346026e-11
3.67150303817e-11
2.39480848727e-11
5.08793459725e-11
1.37105041319e-10
6.87688152559e-12
3.49327161773e-11
1.58669284981e-11
9.34718279749e-12
2.15483159869e-11
1.48340004091e-11
3.14424560321e-11
5.50934091832e-12
3.14626377206e-11
3.43729569476e-12
2.89277242473e-11
2.89662901278e-11
3.46337412283e-11
9.17156287216e-11
1.01776379991e-10
6.10370134732e-12
4.52491417013e-11
9.82211210719e-11
6.14472921954e-11
6.72671375972e-13
9.4444713323e-12
1.99697442236e-11
1.34994201073e-11
1.5304467261e-11
9.44040315766e-12
1.02343978429e-11
4.90503244669e-12
5.46836172739e-12
5.02992602341e-12
3.45965747711e-12
2.04190473401e-12
1.17490441472e-11
4.8984538819e-12
8.37596860808e-12
2.61615035347e-11
3.51095391053e-11
4.33904102171e-11
4.07214373352e-11
6.14373652255e-11
2.86974499482e-11
9.10759269797e-12
8.07817951524e-12
1.00048200064e-11
4.04695470456e-12
1.35343149276e-12
1.37229139372e-11
1.51717529516e-11
9.79557348422e-12
2.07292571918e-12
4.64116798371e-12
1.14259576466e-13
1.6226059704e-11
8.91043306534e-13
5.94064347895e-12
1.51533974131e-11
1.21845439341e-11
2.16759681503e-11
5.30790471799e-11
3.40740250569e-11
4.59010321986e-11
1.54248520371e-11
6.25396900182e-12
2.96051037738e-11
2.54678993433e-11
3.2657368518e-12
6.95317648314e-12
9.90354435068e-12
2.73924101985e-12
1.20179043533e-11
1.41987836352e-12
8.19758578375e-12
2.82300157537e-12
7.27366144784e-12
1.36207283773e-12
1.1837450947e-11
1.1523050897e-11
9.61476418718e-12
2.00031172906e-12
6.2182822088e-12
4.1773468289e-11
1.02905899872e-11
1.76832651693e-11
1.4699446487e-11
5.11971496403e-12
2.00791827273e-12
1.09729529181e-12
3.89412130824e-12
3.47720250976e-12
7.67241241119e-12
2.84349706301e-12
6.14282303583e-12
7.97343203955e-12
1.46967644977e-11
1.55908355582e-12
6.75913105125e-12
2.63020386283e-11
2.54580339861e-11
5.46006450922e-11
2.34402930206e-11
3.93870113746e-11
2.32917900244e-11
7.07668648003e-11
2.44418162078e-11
1.06254409875e-11
4.49689673993e-12
9.05163879091e-13
1.97197128176e-12
1.15478469681e-11
7.95753910251e-12
1.20071215671e-11
6.70395117098e-12
5.71701760461e-12
6.00627938771e-12
1.29984137971e-11
1.74049464163e-12
4.04624156952e-12
6.77972582404e-12
1.03336256378e-11
2.57208746559e-12
1.2660166237e-12
9.59097978509e-12
2.18406994177e-12
1.28411171846e-11
4.69478590984e-12
1.56738855633e-11
1.96390246736e-12
3.66468337422e-12
4.28830609258e-12
6.34098190624e-13
2.18448071161e-12
5.72153584045e-12
5.58710773247e-12
3.15875280738e-12
3.32810358843e-14
7.2934680079e-12
1.34081732765e-11
6.24331144834e-12
6.3004050899e-12
4.69688858615e-12
1.54120671218e-11
1.65465819368e-11
8.91242804093e-12
1.38746514846e-11
4.84799452226e-11
2.6812853065e-11
1.86897518516e-11
1.99048502907e-10
2.35583845881e-12
2.69400245526e-12
7.0874698711e-12
5.44960445113e-12
6.85233843033e-12
1.26235899286e-11
3.00576662155e-12
7.53487548448e-12
1.17278789444e-11
2.73837643468e-12
4.68018868394e-12
2.05184490065e-11
4.36101080194e-12
5.58754096425e-13
1.70380693054e-11
1.26384292121e-12
7.94180072317e-13
1.16270374844e-11
4.64321047075e-14
3.7519382315e-12
1.70124295527e-11
2.31328534397e-11
3.88084707431e-12
7.01353747404e-12
2.10711914724e-11
4.4058785446e-12
5.10724406174e-12
1.05516147748e-11
5.54165452984e-12
3.96840386083e-12
4.74777338938e-12
2.98945497241e-13
2.71685784604e-12
2.21473450561e-11
9.42166156676e-12
3.44982578062e-13
1.79013563337e-11
2.23967413682e-13
7.52425693507e-12
5.22619139745e-12
2.40720232389e-12
1.10848955584e-10
1.40614309565e-10
5.35488952361e-11
4.79641608956e-10
7.76127555946e-11
6.82868714959e-12
1.94216754659e-11
7.85367851207e-14
6.63379220261e-12
3.41987256511e-12
1.22766849676e-12
3.67252438263e-12
2.24376585108e-11
1.62739593419e-12
8.96803181343e-12
1.57972119948e-12
2.00828878281e-11
3.00993333886e-12
2.1313181064e-13
1.40463632335e-12
1.03911119418e-11
4.21460649051e-12
2.46328619633e-12
2.54336028847e-12
3.13704367807e-12
1.23296965015e-11
5.99313721498e-13
4.70638992878e-12
5.45538598139e-12
3.389686217e-12
1.96163347873e-12
3.3149350586e-12
8.39507242699e-12
1.83060720546e-12
8.18454297013e-12
4.43194994567e-12
2.02354726766e-11
3.04491154119e-12
9.14466559235e-12
2.97427318536e-12
5.05115824019e-12
5.49306672067e-12
3.81460126818e-12
2.97862196437e-11
4.65943869376e-11
2.05045025262e-10
7.24477480088e-12
5.73765310498e-11
6.59098746756e-12
5.43360314733e-11
1.56898362043e-11
9.59217436595e-13
8.53977606689e-12
1.59861232445e-11
3.48514670259e-12
1.90063633283e-11
1.56200073135e-12
7.1779949147e-12
2.04921460553e-12
8.2857207197e-12
4.93063145077e-12
8.37997974608e-13
1.04094586526e-11
1.24561937084e-11
9.56939034808e-12
1.17090116184e-11
1.39246720368e-11
1.34269162825e-11
5.01669233698e-12
1.85916830983e-12
6.76228758014e-12
8.96897059555e-13
8.96355890813e-13
4.28309910976e-12
2.61826313888e-12
9.70528913159e-12
6.35917530229e-13
1.85524154649e-11
8.25788261127e-12
3.50099299866e-12
4.44571243785e-12
5.11715385679e-11
3.73371052979e-11
1.06781988691e-10
1.14585136175e-10
5.90587483278e-11
9.05441776917e-11
2.07882611404e-12
1.41720865646e-11
8.16014060173e-12
1.09187965874e-11
1.98692997183e-12
7.36438772549e-12
1.50956947578e-12
4.50748061183e-12
1.06185660791e-12
5.80638066083e-12
1.3956755609e-11
6.05906213895e-12
4.0170108076e-12
3.69453041463e-13
5.42272111761e-12
1.43981167424e-11
4.63260795792e-13
9.12087300354e-12
2.43890070886e-12
3.78952132036e-13
2.06199197871e-12
5.07040100845e-12
1.48540095299e-12
1.49377055758e-12
3.67508967411e-12
2.51411813592e-12
1.02169709224e-11
2.83141073726e-11
8.39926246112e-11
1.71634263677e-10
2.00368053771e-10
1.15791538073e-10
3.75053477302e-11
6.3780741656e-11
2.20060672769e-11
1.91686421505e-11
6.77179781626e-12
3.63373439627e-12
1.18057080931e-12
4.45395559866e-12
2.33791977281e-12
6.83671911732e-12
9.17064379247e-12
1.40859736427e-11
2.19836810102e-12
1.44680191741e-11
1.02611604906e-12
3.75655513308e-12
1.07470308039e-12
8.14197617294e-12
4.6488472851e-13
5.26963359069e-12
2.6696311314e-12
4.57466883817e-12
2.133796605e-12
4.01746325197e-12
2.8524528796e-11
1.90728059327e-11
7.58042092603e-11
1.28871292117e-10
2.39323040811e-10
1.32740743547e-11
9.89517583903e-11
4.55523769864e-11
1.4246163176e-12
1.81171352679e-11
1.39749922821e-12
1.88901781563e-12
2.29090501959e-12
6.72289499923e-12
5.21193615084e-12
6.00342738422e-12
3.11941696241e-13
3.1315121826e-12
3.22942788796e-12
4.22893649679e-13
7.88605258801e-13
1.02339166465e-12
1.04936575473e-12
2.3602228097e-12
8.8574136481e-13
4.60090732056e-11
1.46999532296e-11
5.9777260975e-11
6.52697381786e-11
3.66334028775e-10
1.22374686788e-11
8.525368391e-11
4.22458978117e-11
4.49191236404e-11
2.53722109505e-11
5.01389041989e-12
3.84980093206e-12
1.14133941671e-12
4.84916797382e-13
8.66180958962e-13
5.14892782848e-13
1.27791899116e-12
3.12506704421e-12
5.46194615404e-12
3.3439390077e-11
1.2673385871e-11
1.15252433243e-10
4.02510161492e-11
1.64214577925e-10
5.86744367344e-11
2.12127066175e-11
2.23849078921e-11
9.14908923599e-12
2.31883183028e-11
6.72065489313e-12
3.98531469647e-11
5.06431526883e-12
1.74067692871e-11
3.32434184394e-11
4.05884582678e-11
1.4654714346e-10
2.86278115626e-11
4.71051153228e-11
1.86755930783e-10
1.39847996853e-10
6.23580455803e-11
1.12409556396e-10
8.66857781612e-11
1.38811935621e-10
2.34408631677e-11
4.36413606291e-10
5.96893057093e-10
4.86651999716e-10
4.48666504949e-10
4.21084508862e-10
9.37757107829e-11
2.94447586452e-10
1.14432993987e-09
1.02891364972e-10
9.49708741392e-11
6.3537714462e-11
6.74906139525e-10
3.80641236718e-10
4.33941569898e-11
6.22372455303e-10
2.60658209469e-11
1.3275768931e-10
3.00121542226e-10
1.02778162056e-10
9.82978684156e-11
4.25385047891e-11
2.75234360957e-11
8.95464960606e-12
1.14774242476e-11
3.02313493087e-10
4.11434733512e-10
1.12021210835e-10
6.39788783099e-10
1.64348918544e-09
3.05303347321e-10
1.29503807651e-09
5.12015785947e-10
1.92675392219e-09
9.18329325656e-10
1.28614464227e-09
4.46058393983e-09
2.98728541815e-09
5.54370808749e-10
2.24292266316e-09
1.19259520893e-09
1.5649650699e-09
9.27966632644e-10
2.52880615776e-10
7.06968663583e-11
1.16165919756e-10
5.44616890573e-11
1.56400530608e-11
5.52752581055e-11
5.33228374559e-11
2.34533984335e-10
1.00334524514e-10
3.71921839462e-10
1.09734552717e-10
8.78170000451e-11
2.00535484251e-10
3.36869377909e-10
1.63287181452e-10
3.59015303929e-10
2.57289197052e-10
3.18713730602e-10
4.53379972275e-10
2.7080314967e-10
6.43864362482e-10
2.50145404337e-10
3.32211549205e-10
7.49408913333e-08
5.06054220963e-08
3.39851837447e-09
4.16579610243e-08
2.88609161078e-08
3.58550963254e-08
4.87905317692e-09
1.54725909698e-08
1.64975828677e-08
1.87331103131e-08
3.22864062566e-08
2.14877434479e-08
1.31168388213e-08
6.51185581603e-09
1.02802104254e-08
2.5796551061e-09
2.79535004132e-09
1.80507108534e-08
1.03543992143e-08
6.49512377999e-10
1.13588810022e-09
4.47428317864e-09
2.12958197921e-09
1.17555692106e-08
4.43132481552e-09
4.42522763783e-09
5.6848827724e-09
1.77766018636e-09
5.28874221539e-09
3.2207457334e-09
1.41621563583e-09
3.02694957175e-09
1.81914627477e-09
6.64646247355e-10
1.10852958854e-09
3.02620228849e-10
2.96437899665e-10
2.31218065703e-10
6.62955265095e-11
1.57822414052e-09
7.20525956886e-10
6.20734404241e-10
5.78699727343e-10
9.16329520972e-12
5.75951220653e-10
6.78631797071e-10
1.8715355183e-10
3.79840307602e-10
6.53086588e-10
8.01719976648e-10
8.62564371953e-10
2.11028419025e-10
5.29231229341e-10
2.22209725428e-10
1.73433881919e-10
2.66664920131e-11
2.72858171623e-10
9.29940982319e-11
1.55045427707e-10
1.27843984276e-10
3.32546488798e-10
2.8785408778e-10
5.26049049956e-10
1.92770159092e-10
4.35440335339e-10
6.55828343784e-11
1.62559398486e-10
1.16059578077e-10
8.53796570655e-11
1.5398324765e-11
9.57263478439e-11
1.04054193398e-10
1.2441295715e-12
6.93663282438e-11
3.08307349837e-11
2.85591545269e-11
1.99373212679e-12
1.26037946823e-11
4.8597043312e-11
9.24172610288e-11
1.04154648731e-10
4.08860708914e-11
1.13101318752e-10
1.04491761116e-10
3.25646123217e-10
1.88083249434e-10
6.12870858219e-11
7.72300703028e-10
2.00592611147e-10
1.87152885776e-10
4.37603203859e-10
1.20412877674e-10
1.36118903013e-11
1.38461012846e-10
4.20044221523e-11
2.27865662838e-10
4.93328753655e-11
1.22076647804e-10
1.26881636198e-11
7.56572691489e-11
1.33821144072e-10
3.46480486631e-11
2.35979776958e-11
2.1498482098e-10
7.44269137571e-11
6.33871087273e-11
1.7390857677e-10
2.1928909784e-10
1.0537354252e-10
1.98499577752e-10
7.13918984494e-11
2.39439213616e-10
3.36822846963e-10
7.25908933409e-10
1.46129809376e-10
2.97588548245e-10
6.97717219983e-11
1.86528167885e-11
5.16320600958e-11
4.39370508673e-10
1.64801614746e-12
7.62828787174e-11
3.00977717089e-11
3.83543653245e-11
1.97865061572e-11
9.18744720993e-11
5.64481280485e-11
1.01597704241e-10
4.39191679024e-11
3.40465173507e-10
2.61232178047e-10
2.40737047807e-10
6.9284312077e-10
9.35716289544e-11
1.42614373127e-10
4.06965279326e-11
9.65102856479e-11
1.10575939674e-10
9.56623124628e-11
4.37748754548e-10
2.82599255432e-10
2.6933878759e-10
5.7071164706e-10
6.37989711974e-11
3.77758970209e-11
1.19997408667e-10
2.24285351216e-11
2.42176290196e-10
1.02183108637e-10
1.07405070737e-10
1.43617964087e-10
4.88783133696e-11
3.23935665491e-11
7.45327549581e-11
5.12172876353e-10
7.17317251803e-10
4.99718850512e-10
2.54947643896e-10
1.32817849598e-10
3.85414119231e-10
1.4505350219e-10
1.1920241099e-10
9.9892903939e-11
9.44244537347e-12
2.09202392518e-10
1.81485375332e-12
4.43063886609e-10
1.99012980634e-10
2.83246860831e-10
2.12766403217e-10
3.31058054775e-10
2.73358589284e-11
3.58604370145e-10
1.57160260732e-10
4.5924967752e-10
5.21862304822e-10
6.23419002516e-10
7.95243912127e-10
1.84570931205e-10
4.91569459319e-10
7.154178704e-10
4.07578727259e-11
1.25596389394e-10
4.92016426647e-11
3.87020209141e-10
3.58208265878e-10
3.07736479296e-10
5.56673141369e-10
2.36002239603e-10
1.11194355766e-10
1.56896526203e-10
8.58017747496e-10
3.48824379014e-10
7.4915134214e-11
4.15357364396e-10
4.99747356436e-10
4.6974942681e-10
6.57913452387e-11
3.42640430653e-10
2.21288013161e-10
4.48895499955e-11
4.39522047488e-10
2.73691352677e-10
3.80121857184e-10
8.45261983628e-10
1.10697327144e-10
1.08055241189e-10
5.3566925065e-10
2.77640309376e-10
5.160721311e-10
9.14841110319e-11
3.37985030532e-10
7.62904222082e-11
3.21531669899e-10
4.31772915757e-10
4.63532104558e-10
2.16913294544e-10
3.13376358143e-10
5.10114901144e-10
1.78123276606e-10
1.17161687974e-10
8.40668625603e-12
1.51541317329e-11
6.45290546774e-12
6.0684433034e-11
2.9770016423e-11
2.44365428864e-11
8.20849835429e-10
2.20429401525e-09
8.51357408503e-09
2.277467815e-08
7.00746409929e-08
2.85835721244e-08
1.11224772671e-08
4.25284704083e-08
3.39033887382e-08
4.25075852694e-08
1.87923968695e-08
3.52634801245e-08
6.24359070247e-08
2.86683417898e-09
1.33257104361e-08
2.54347203951e-09
3.32164917353e-10
9.65528443491e-10
7.10824040956e-11
1.35586873871e-10
5.53823833336e-11
3.24830801484e-10
7.58648744361e-11
1.85163453704e-10
2.65632214411e-10
5.06839274326e-11
5.95406657102e-10
1.34248697424e-10
8.29997859869e-12
1.10049538116e-09
9.15557743746e-10
4.39475339563e-12
1.11044432236e-10
1.43492433292e-09
1.05249678822e-11
9.5898427179e-10
1.90303567613e-10
4.67015888393e-10
6.51512656538e-12

