# vtk DataFile Version 3.0
File Name: Molecule/methanol/methanol_6.0-16_06.vtk
ASCII
DATASET UNSTRUCTURED_GRID
FIELD FieldData 1
TIME 1 1 double
0.0
POINTS 286 double
1.611 0.0 -0.359
1.554 -0.436 -0.353
1.403 0.0 -0.933
1.351 -0.397 -0.928
1.386 -0.842 -0.336
1.198 -0.767 -0.912
1.12 -1.191 -0.31
0.956 -1.085 -0.888
0.773 -1.459 -0.275
0.639 -1.329 -0.857
0.368 -1.627 -0.235
0.271 -1.482 -0.82
-0.065 -1.684 -0.192
-0.124 -1.534 -0.781
-0.499 -1.627 -0.149
-0.519 -1.482 -0.741
-0.903 -1.459 -0.108
-0.887 -1.329 -0.705
-1.251 -1.191 -0.074
-1.204 -1.085 -0.673
-1.517 -0.842 -0.047
-1.446 -0.767 -0.649
-1.684 -0.436 -0.031
-1.599 -0.397 -0.634
-1.742 0.0 -0.025
-1.651 0.0 -0.629
-1.684 0.436 -0.031
-1.599 0.397 -0.634
-1.517 0.842 -0.047
-1.446 0.767 -0.649
-1.251 1.191 -0.074
-1.204 1.085 -0.673
-0.903 1.459 -0.108
-0.887 1.329 -0.705
-0.499 1.627 -0.149
-0.519 1.482 -0.741
-0.065 1.684 -0.192
-0.124 1.534 -0.781
0.368 1.627 -0.235
0.271 1.482 -0.82
0.773 1.459 -0.275
0.639 1.329 -0.857
1.12 1.191 -0.31
0.956 1.085 -0.888
1.386 0.842 -0.336
1.198 0.767 -0.912
1.554 0.436 -0.353
1.351 0.397 -0.928
1.907 0.0 0.656
1.859 0.42 0.656
1.859 0.21 1.019
1.859 -0.21 1.019
1.859 -0.42 0.656
1.859 -0.21 0.292
1.859 0.21 0.292
1.72 0.709 1.065
1.72 0.409 1.365
1.72 -0.0 1.475
1.72 -0.409 1.365
1.72 -0.709 1.065
1.72 -0.819 0.656
1.72 -0.709 0.246
1.72 -0.409 -0.054
1.72 -0.0 -0.163
1.72 0.409 -0.054
1.72 0.709 0.246
1.72 0.819 0.656
1.495 1.106 1.058
1.495 0.902 1.412
1.495 0.588 1.675
1.495 0.204 1.815
1.495 -0.204 1.815
1.495 -0.588 1.675
1.495 -0.902 1.412
1.495 -1.106 1.058
1.495 -1.177 0.656
1.495 -1.106 0.253
1.495 -0.902 -0.101
1.495 0.902 -0.101
1.495 1.106 0.253
1.495 1.177 0.656
1.196 1.416 1.071
1.196 1.241 1.453
1.196 0.966 1.771
1.196 0.613 1.998
1.196 0.21 2.116
1.196 -0.21 2.116
1.196 -0.613 1.998
1.196 -0.966 1.771
1.196 -1.241 1.453
1.196 -1.416 1.071
1.196 -1.476 0.656
1.196 -1.416 0.24
1.196 1.416 0.24
1.196 1.476 0.656
0.838 1.651 1.063
0.838 1.506 1.446
0.838 1.273 1.783
0.838 0.966 2.055
0.838 0.603 2.246
0.838 0.205 2.344
0.838 -0.205 2.344
0.838 -0.603 2.246
0.838 -0.966 2.055
0.838 -1.273 1.783
0.838 -1.506 1.446
0.838 -1.651 1.063
0.838 -1.701 0.656
0.838 -1.651 0.249
0.838 1.651 0.249
0.838 1.701 0.656
0.439 1.794 1.065
0.439 1.658 1.454
0.439 1.439 1.803
0.439 1.147 2.094
0.439 0.798 2.314
0.439 0.409 2.45
0.439 0.0 2.496
0.439 -0.409 2.45
0.439 -0.798 2.314
0.439 -1.147 2.094
0.439 -1.439 1.803
0.439 -1.658 1.454
0.439 -1.794 1.065
0.439 -1.84 0.656
0.439 -1.794 0.246
0.439 1.794 0.246
0.439 1.84 0.656
0.019 1.843 1.061
0.019 1.713 1.448
0.019 1.503 1.798
0.019 1.222 2.094
0.019 0.884 2.323
0.019 0.505 2.474
0.019 0.102 2.54
0.019 -0.305 2.518
0.019 -0.699 2.409
0.019 -1.059 2.218
0.019 -1.37 1.954
0.019 -1.617 1.629
0.019 -1.789 1.258
0.019 -1.876 0.86
0.019 -1.876 0.452
0.019 -1.789 0.053
0.019 1.843 0.25
0.019 1.888 0.656
-0.401 1.84 0.656
-0.401 1.794 1.065
-0.401 1.658 1.454
-0.401 1.439 1.803
-0.401 1.147 2.094
-0.401 0.798 2.314
-0.401 0.409 2.45
-0.401 0.0 2.496
-0.401 -0.409 2.45
-0.401 -0.798 2.314
-0.401 -1.147 2.094
-0.401 -1.439 1.803
-0.401 -1.658 1.454
-0.401 -1.794 1.065
-0.401 -1.84 0.656
-0.401 -1.794 0.246
-0.401 1.794 0.246
-0.8 1.701 0.656
-0.8 1.651 1.063
-0.8 1.506 1.446
-0.8 1.273 1.783
-0.8 0.966 2.055
-0.8 0.603 2.246
-0.8 0.205 2.344
-0.8 -0.205 2.344
-0.8 -0.603 2.246
-0.8 -0.966 2.055
-0.8 -1.273 1.783
-0.8 -1.506 1.446
-0.8 -1.651 1.063
-0.8 -1.701 0.656
-0.8 -1.651 0.249
-0.8 1.651 0.249
-1.158 1.476 0.656
-1.158 1.416 1.071
-1.158 1.241 1.453
-1.158 0.966 1.771
-1.158 0.613 1.998
-1.158 0.21 2.116
-1.158 -0.21 2.116
-1.158 -0.613 1.998
-1.158 -0.966 1.771
-1.158 -1.241 1.453
-1.158 -1.416 1.071
-1.158 -1.476 0.656
-1.158 -1.416 0.24
-1.158 1.416 0.24
-1.457 1.177 0.656
-1.457 1.106 1.058
-1.457 0.902 1.412
-1.457 0.588 1.675
-1.457 0.204 1.815
-1.457 -0.204 1.815
-1.457 -0.588 1.675
-1.457 -0.902 1.412
-1.457 -1.106 1.058
-1.457 -1.177 0.656
-1.457 -1.106 0.253
-1.457 1.106 0.253
-1.682 0.819 0.656
-1.682 0.709 1.065
-1.682 0.409 1.365
-1.682 -0.0 1.475
-1.682 -0.409 1.365
-1.682 -0.709 1.065
-1.682 -0.819 0.656
-1.682 -0.709 0.246
-1.682 0.709 0.246
-1.821 0.42 0.656
-1.821 0.21 1.019
-1.821 -0.21 1.019
-1.821 -0.42 0.656
-1.821 -0.21 0.292
-1.821 0.21 0.292
-1.868 -0.0 0.656
1.172 -0.719 -1.152
0.886 -0.986 -1.348
0.886 -0.699 -1.663
1.172 -0.415 -1.456
0.886 -0.317 -1.853
1.172 -0.0 -1.567
0.886 0.107 -1.892
1.172 0.415 -1.456
0.886 0.517 -1.776
0.886 0.857 -1.519
1.172 0.719 -1.152
0.886 1.082 -1.156
0.518 -1.328 -1.169
0.518 -1.13 -1.558
0.518 -0.821 -1.867
0.518 -0.431 -2.065
0.518 0.0 -2.133
0.518 0.431 -2.065
0.518 0.821 -1.867
0.518 1.13 -1.558
0.518 1.328 -1.169
0.099 -1.458 -1.165
0.099 -1.278 -1.559
0.099 -0.995 -1.885
0.099 -0.631 -2.119
0.099 -0.216 -2.241
0.099 0.216 -2.241
0.099 0.631 -2.119
0.099 0.995 -1.885
0.099 1.278 -1.559
0.099 1.458 -1.165
-0.338 -1.458 -1.165
-0.338 -1.278 -1.559
-0.338 -0.995 -1.885
-0.338 -0.631 -2.119
-0.338 -0.216 -2.241
-0.338 0.216 -2.241
-0.338 0.631 -2.119
-0.338 0.995 -1.885
-0.338 1.278 -1.559
-0.338 1.458 -1.165
-0.757 -1.328 -1.169
-0.757 -1.13 -1.558
-0.757 -0.821 -1.867
-0.757 -0.431 -2.065
-0.757 0.0 -2.133
-0.757 0.431 -2.065
-0.757 0.821 -1.867
-0.757 1.13 -1.558
-0.757 1.328 -1.169
-1.125 -1.14 -0.95
-1.125 -0.986 -1.348
-1.125 -0.699 -1.663
-1.125 -0.317 -1.853
-1.125 0.107 -1.892
-1.125 0.517 -1.776
-1.125 0.857 -1.519
-1.125 1.082 -1.156
-1.411 -0.719 -1.152
-1.411 -0.415 -1.456
-1.411 -0.0 -1.567
-1.411 0.415 -1.456
-1.411 0.719 -1.152
-1.593 -0.216 -1.112
-1.593 0.216 -1.112

CELLS 568 2272
3 0 1 2
3 2 1 3
3 1 4 3
3 3 4 5
3 4 6 5
3 5 6 7
3 6 8 7
3 7 8 9
3 8 10 9
3 9 10 11
3 10 12 11
3 11 12 13
3 12 14 13
3 13 14 15
3 14 16 15
3 15 16 17
3 16 18 17
3 17 18 19
3 18 20 19
3 19 20 21
3 20 22 21
3 21 22 23
3 22 24 23
3 23 24 25
3 24 26 25
3 25 26 27
3 26 28 27
3 27 28 29
3 28 30 29
3 29 30 31
3 30 32 31
3 31 32 33
3 32 34 33
3 33 34 35
3 34 36 35
3 35 36 37
3 36 38 37
3 37 38 39
3 38 40 39
3 39 40 41
3 40 42 41
3 41 42 43
3 42 44 43
3 43 44 45
3 44 46 45
3 45 46 47
3 46 0 47
3 47 0 2
3 48 49 50
3 48 50 51
3 48 51 52
3 48 52 53
3 48 53 54
3 48 54 49
3 50 49 55
3 50 55 56
3 50 56 57
3 51 50 57
3 51 57 58
3 51 58 59
3 52 51 59
3 52 59 60
3 52 60 61
3 53 52 61
3 53 61 62
3 53 62 63
3 54 53 63
3 54 63 64
3 54 64 65
3 49 54 65
3 49 65 66
3 49 66 55
3 55 66 67
3 55 67 68
3 56 55 68
3 56 68 69
3 56 69 70
3 57 56 70
3 57 70 71
3 58 57 71
3 58 71 72
3 58 72 73
3 59 58 73
3 59 73 74
3 60 59 74
3 60 74 75
3 60 75 76
3 61 60 76
3 61 76 77
3 62 61 77
3 65 64 78
3 65 78 79
3 66 65 79
3 66 79 80
3 66 80 67
3 67 80 81
3 67 81 82
3 68 67 82
3 68 82 83
3 69 68 83
3 69 83 84
3 70 69 84
3 70 84 85
3 70 85 86
3 71 70 86
3 71 86 87
3 72 71 87
3 72 87 88
3 73 72 88
3 73 88 89
3 74 73 89
3 74 89 90
3 75 74 90
3 75 90 91
3 75 91 92
3 76 75 92
3 80 79 93
3 80 93 94
3 80 94 81
3 81 94 95
3 81 95 96
3 82 81 96
3 82 96 97
3 83 82 97
3 83 97 98
3 84 83 98
3 84 98 99
3 85 84 99
3 85 99 100
3 85 100 101
3 86 85 101
3 86 101 102
3 87 86 102
3 87 102 103
3 88 87 103
3 88 103 104
3 89 88 104
3 89 104 105
3 90 89 105
3 90 105 106
3 91 90 106
3 91 106 107
3 91 107 108
3 92 91 108
3 94 93 109
3 94 109 110
3 94 110 95
3 95 110 111
3 95 111 112
3 96 95 112
3 96 112 113
3 97 96 113
3 97 113 114
3 98 97 114
3 98 114 115
3 99 98 115
3 99 115 116
3 100 99 116
3 100 116 117
3 101 100 117
3 101 117 118
3 102 101 118
3 102 118 119
3 103 102 119
3 103 119 120
3 104 103 120
3 104 120 121
3 105 104 121
3 105 121 122
3 106 105 122
3 106 122 123
3 107 106 123
3 107 123 124
3 107 124 125
3 108 107 125
3 110 109 126
3 110 126 127
3 110 127 111
3 111 127 128
3 111 128 129
3 112 111 129
3 112 129 130
3 113 112 130
3 113 130 131
3 114 113 131
3 114 131 132
3 115 114 132
3 115 132 133
3 116 115 133
3 116 133 134
3 117 116 134
3 117 134 135
3 118 117 135
3 118 135 136
3 119 118 136
3 119 136 137
3 120 119 137
3 120 137 138
3 121 120 138
3 121 138 139
3 122 121 139
3 122 139 140
3 123 122 140
3 123 140 141
3 124 123 141
3 124 141 142
3 125 124 142
3 125 142 143
3 127 126 144
3 127 144 145
3 127 145 128
3 128 145 146
3 128 146 147
3 129 128 147
3 129 147 148
3 130 129 148
3 130 148 149
3 131 130 149
3 131 149 150
3 132 131 150
3 132 150 151
3 133 132 151
3 133 151 152
3 134 133 152
3 134 152 153
3 135 134 153
3 135 153 154
3 136 135 154
3 136 154 155
3 137 136 155
3 137 155 156
3 138 137 156
3 138 156 157
3 139 138 157
3 139 157 158
3 140 139 158
3 140 158 159
3 141 140 159
3 141 159 160
3 142 141 160
3 142 160 161
3 143 142 161
3 146 144 162
3 145 144 146
3 147 146 163
3 147 163 164
3 148 147 164
3 148 164 165
3 149 148 165
3 149 165 166
3 150 149 166
3 150 166 167
3 151 150 167
3 151 167 168
3 152 151 168
3 152 168 169
3 153 152 169
3 153 169 170
3 154 153 170
3 154 170 171
3 155 154 171
3 155 171 172
3 156 155 172
3 156 172 173
3 157 156 173
3 157 173 174
3 158 157 174
3 158 174 175
3 159 158 175
3 159 175 176
3 160 159 176
3 161 160 176
3 161 176 177
3 163 162 178
3 146 162 163
3 164 163 179
3 164 179 180
3 165 164 180
3 165 180 181
3 166 165 181
3 166 181 182
3 167 166 182
3 167 182 183
3 168 167 183
3 168 183 184
3 169 168 184
3 169 184 185
3 170 169 185
3 171 170 185
3 171 185 186
3 172 171 186
3 172 186 187
3 173 172 187
3 173 187 188
3 174 173 188
3 174 188 189
3 175 174 189
3 175 189 190
3 176 175 190
3 177 176 190
3 177 190 191
3 179 178 192
3 163 178 179
3 180 179 193
3 180 193 194
3 181 180 194
3 181 194 195
3 182 181 195
3 182 195 196
3 183 182 196
3 183 196 197
3 184 183 197
3 184 197 198
3 185 184 198
3 186 185 198
3 186 198 199
3 187 186 199
3 187 199 200
3 188 187 200
3 188 200 201
3 189 188 201
3 189 201 202
3 190 189 202
3 191 190 202
3 191 202 203
3 193 192 204
3 179 192 193
3 194 193 205
3 194 205 206
3 195 194 206
3 195 206 207
3 196 195 207
3 197 196 207
3 197 207 208
3 198 197 208
3 198 208 209
3 199 198 209
3 200 199 209
3 200 209 210
3 201 200 210
3 201 210 211
3 202 201 211
3 203 202 211
3 203 211 212
3 205 204 213
3 193 204 205
3 206 205 214
3 206 214 215
3 207 206 215
3 208 207 215
3 208 215 216
3 209 208 216
3 210 209 216
3 210 216 217
3 211 210 217
3 212 211 217
3 212 217 218
3 214 213 219
3 205 213 214
3 215 214 220
3 216 215 220
3 217 216 220
3 218 217 220
3 219 218 220
3 214 219 220
3 219 213 26
3 219 26 24
3 219 24 218
3 218 24 22
3 218 22 212
3 212 22 20
3 212 20 203
3 203 20 18
3 203 18 191
3 191 18 16
3 191 16 177
3 177 16 14
3 177 14 161
3 161 14 12
3 161 12 143
3 143 12 10
3 143 10 125
3 125 10 108
3 108 10 8
3 108 8 92
3 92 8 6
3 92 6 76
3 76 6 77
3 77 6 4
3 77 4 1
3 77 1 62
3 62 1 63
3 63 1 0
3 63 0 46
3 63 46 64
3 64 46 78
3 78 46 44
3 78 44 42
3 78 42 79
3 79 42 93
3 93 42 40
3 93 40 109
3 109 40 38
3 109 38 126
3 126 38 144
3 144 38 36
3 144 36 162
3 162 36 34
3 162 34 178
3 178 34 32
3 178 32 192
3 192 32 30
3 192 30 204
3 204 30 28
3 204 28 213
3 213 28 26
3 221 222 223
3 224 221 223
3 224 223 225
3 226 224 225
3 226 225 227
3 228 226 227
3 228 227 229
3 228 229 230
3 231 228 230
3 231 230 232
3 222 233 234
3 223 222 234
3 223 234 235
3 223 235 236
3 225 223 236
3 225 236 237
3 227 225 237
3 227 237 238
3 229 227 238
3 229 238 239
3 230 229 239
3 230 239 240
3 232 230 240
3 232 240 241
3 233 242 243
3 234 233 243
3 234 243 244
3 235 234 244
3 235 244 245
3 236 235 245
3 236 245 246
3 237 236 246
3 237 246 247
3 238 237 247
3 238 247 248
3 239 238 248
3 239 248 249
3 240 239 249
3 240 249 250
3 241 240 250
3 241 250 251
3 242 252 253
3 243 242 253
3 243 253 254
3 244 243 254
3 244 254 255
3 245 244 255
3 246 245 255
3 246 255 256
3 246 256 257
3 247 246 257
3 247 257 258
3 248 247 258
3 248 258 259
3 249 248 259
3 249 259 260
3 250 249 260
3 250 260 261
3 251 250 261
3 253 252 262
3 253 262 263
3 254 253 263
3 254 263 264
3 255 254 264
3 255 264 265
3 256 255 265
3 256 265 266
3 257 256 266
3 257 266 267
3 258 257 267
3 258 267 268
3 259 258 268
3 259 268 269
3 260 259 269
3 260 269 270
3 261 260 270
3 262 271 272
3 263 262 272
3 263 272 273
3 264 263 273
3 265 264 273
3 265 273 274
3 266 265 274
3 266 274 275
3 267 266 275
3 267 275 276
3 268 267 276
3 268 276 277
3 269 268 277
3 269 277 278
3 270 269 278
3 272 271 279
3 273 272 279
3 273 279 280
3 274 273 280
3 274 280 281
3 275 274 281
3 275 281 282
3 276 275 282
3 277 276 282
3 277 282 283
3 278 277 283
3 280 279 284
3 281 280 284
3 281 284 285
3 282 281 285
3 283 282 285
3 283 285 27
3 283 27 29
3 283 29 31
3 283 31 278
3 278 31 33
3 278 33 270
3 270 33 35
3 270 35 261
3 261 35 37
3 261 37 251
3 251 37 39
3 251 39 241
3 241 39 41
3 241 41 232
3 232 41 43
3 232 43 231
3 231 43 45
3 231 45 47
3 231 47 228
3 228 47 2
3 228 2 226
3 226 2 224
3 224 2 3
3 224 3 221
3 221 3 5
3 221 5 7
3 221 7 222
3 222 7 233
3 233 7 9
3 233 9 11
3 233 11 242
3 242 11 13
3 242 13 252
3 252 13 15
3 252 15 262
3 262 15 17
3 262 17 271
3 271 17 19
3 271 19 21
3 271 21 279
3 279 21 23
3 279 23 284
3 284 23 25
3 284 25 285
3 285 25 27

CELL_TYPES 568
5
5
5
5
5
5
5
5
5
5
5
5
5
5
5
5
5
5
5
5
5
5
5
5
5
5
5
5
5
5
5
5
5
5
5
5
5
5
5
5
5
5
5
5
5
5
5
5
5
5
5
5
5
5
5
5
5
5
5
5
5
5
5
5
5
5
5
5
5
5
5
5
5
5
5
5
5
5
5
5
5
5
5
5
5
5
5
5
5
5
5
5
5
5
5
5
5
5
5
5
5
5
5
5
5
5
5
5
5
5
5
5
5
5
5
5
5
5
5
5
5
5
5
5
5
5
5
5
5
5
5
5
5
5
5
5
5
5
5
5
5
5
5
5
5
5
5
5
5
5
5
5
5
5
5
5
5
5
5
5
5
5
5
5
5
5
5
5
5
5
5
5
5
5
5
5
5
5
5
5
5
5
5
5
5
5
5
5
5
5
5
5
5
5
5
5
5
5
5
5
5
5
5
5
5
5
5
5
5
5
5
5
5
5
5
5
5
5
5
5
5
5
5
5
5
5
5
5
5
5
5
5
5
5
5
5
5
5
5
5
5
5
5
5
5
5
5
5
5
5
5
5
5
5
5
5
5
5
5
5
5
5
5
5
5
5
5
5
5
5
5
5
5
5
5
5
5
5
5
5
5
5
5
5
5
5
5
5
5
5
5
5
5
5
5
5
5
5
5
5
5
5
5
5
5
5
5
5
5
5
5
5
5
5
5
5
5
5
5
5
5
5
5
5
5
5
5
5
5
5
5
5
5
5
5
5
5
5
5
5
5
5
5
5
5
5
5
5
5
5
5
5
5
5
5
5
5
5
5
5
5
5
5
5
5
5
5
5
5
5
5
5
5
5
5
5
5
5
5
5
5
5
5
5
5
5
5
5
5
5
5
5
5
5
5
5
5
5
5
5
5
5
5
5
5
5
5
5
5
5
5
5
5
5
5
5
5
5
5
5
5
5
5
5
5
5
5
5
5
5
5
5
5
5
5
5
5
5
5
5
5
5
5
5
5
5
5
5
5
5
5
5
5
5
5
5
5
5
5
5
5
5
5
5
5
5
5
5
5
5
5
5
5
5
5
5
5
5
5
5
5
5
5
5
5
5
5
5
5
5
5
5
5
5
5
5
5
5
5
5
5
5
5
5
5
5
5
5
5
5
5
5
5
5
5
5
5
5
5
5
5
5
5
5
5
5
5
5
5
5
5
5
5
5
5
5
5
5
5
5
5
5
5
5
5
5
5
5
5
5
5
5
5
5
5
5
5
5
5
5
5
5
5
5
5
5
5
5

CELL_DATA 568
SCALARS cell_data_0 double
LOOKUP_TABLE default
7.88658707784e-08
3.81259860699e-08
9.98388215966e-09
3.5299189825e-09
5.74062734941e-09
4.83460734614e-10
3.08937232076e-09
1.04038248745e-09
4.60044474374e-10
3.57888476462e-10
1.43118406348e-10
7.753841759e-10
1.40393004154e-10
1.90477361885e-09
8.69279977002e-10
1.77317388073e-09
5.8401014513e-10
4.29496975824e-09
1.09389114373e-09
4.75348842985e-09
8.98776094916e-10
3.27551706061e-09
1.54169708034e-09
1.84553371935e-09
1.21769796978e-09
2.03750249424e-09
1.60824958765e-09
2.89027727637e-09
9.34017401657e-10
2.64701041464e-09
1.39061009726e-09
1.46750398997e-09
2.74049751566e-10
1.22324341738e-09
8.52114111768e-10
1.20363150008e-09
8.53727796595e-10
3.14004863534e-10
4.73844414396e-10
1.19101932589e-10
2.97273854924e-10
9.27206921761e-10
3.71328234471e-09
1.10605049952e-09
4.38187213156e-09
1.58829095151e-08
4.58203408385e-08
6.60373505188e-08
1.69976337173e-09
5.64028201024e-10
2.57897873116e-09
1.77417477271e-10
4.7136761083e-09
3.32034837652e-10
5.12663966639e-10
1.17236946997e-10
3.30348534429e-10
1.3613398579e-09
1.21225674655e-09
9.22999428478e-10
1.4822731398e-09
6.07995436651e-10
3.60981145804e-09
1.03248411078e-09
1.52610546081e-08
6.74756620261e-09
1.43281677621e-08
5.0107481256e-09
1.81656538074e-09
3.83613876772e-09
5.06352751393e-11
3.93799536755e-10
1.34285628593e-10
2.71187290515e-11
6.32655214525e-10
4.51206118365e-10
3.79384461628e-11
6.4694730082e-10
5.98335874939e-11
2.83288023711e-10
4.75742880122e-10
4.56462097944e-10
3.965616327e-11
3.20255649867e-10
1.41381281645e-09
3.12302314411e-09
2.51106880719e-09
9.07075431203e-09
1.15036117382e-08
2.41480241113e-08
9.92443244381e-11
7.70479827052e-10
4.26928693861e-10
7.00773353651e-10
4.93712199373e-11
9.91970236161e-11
6.17909752206e-11
4.2447714858e-12
1.08965518969e-10
2.50561663674e-11
1.40882627902e-10
3.75789944991e-10
8.39273340268e-11
3.33936315372e-11
2.39246784804e-10
5.28305467728e-11
2.21090537398e-11
1.0376698139e-11
3.25704449117e-11
1.75068720754e-10
6.06561550947e-11
5.27734252202e-10
1.9450507442e-09
3.73221890867e-10
2.27707120236e-10
3.86023649192e-09
4.21374628554e-11
4.99932186794e-10
4.63063457063e-11
3.53922928575e-11
2.78195670041e-11
5.80611521416e-11
2.41564785864e-11
3.68781273184e-11
1.24666794919e-11
3.03359259108e-11
6.76413353292e-11
2.47080494754e-10
1.41547704743e-10
7.73095245941e-13
1.45877229919e-10
4.39801708086e-12
4.11639308803e-12
3.31964880461e-11
3.03419607509e-11
1.78270242574e-10
5.48962357267e-11
2.50532825814e-10
1.76000621387e-10
4.00847218967e-10
4.83767632403e-10
7.46578327499e-10
9.00822046961e-10
1.16830752918e-09
4.11646641942e-10
5.49650945064e-11
4.69774088283e-11
8.16379807857e-11
7.73926166507e-11
6.42445349896e-11
3.8919810391e-12
1.55773844109e-11
1.34183311198e-11
5.08007545444e-12
6.31060618328e-11
2.33570947785e-11
4.41718488852e-11
2.78279714316e-12
6.40355232541e-11
7.55517177827e-11
2.16349081162e-11
4.58291074988e-11
3.42158222666e-11
3.4620468869e-11
9.66540146452e-11
5.4767511379e-11
9.82833780476e-11
6.98057638206e-12
1.05832006563e-10
7.81092579532e-11
5.97660485033e-11
1.14126223267e-10
3.49827491123e-11
3.62176482928e-11
1.84864091603e-11
1.17630027108e-10
9.35025654142e-11
5.7053360603e-11
1.06621949318e-10
2.53698894701e-12
3.21742327047e-11
3.70132611259e-11
1.84582404084e-11
1.30946933879e-11
3.18848984976e-13
2.79640470466e-11
1.39049408582e-11
6.67132860914e-13
2.85806361696e-11
2.57210432837e-12
1.43740698779e-11
1.30243992997e-11
3.01435365137e-11
7.00178660613e-12
7.86484783291e-12
3.88268919956e-11
1.58739053527e-11
1.04386395801e-11
6.24698643037e-11
2.53217012779e-11
4.98632846679e-11
7.24271551624e-12
9.63649663188e-12
1.46769004169e-12
2.9527957088e-12
3.05166729092e-11
3.74409068649e-11
6.02565749725e-11
7.86262559864e-11
5.21720875918e-11
1.48495234822e-12
2.51714680598e-11
8.65736343394e-12
2.29168782409e-11
1.56368856934e-11
7.68242357531e-12
2.21732834819e-11
2.42635104729e-11
1.35455290011e-11
2.11959082047e-12
2.71252943063e-11
8.7462969451e-12
1.38902790391e-11
3.3722064167e-11
1.34076352528e-11
4.52968859602e-11
5.73732860473e-11
2.11956031063e-11
2.33305012265e-11
4.00452729444e-12
1.53171567345e-11
2.79788582612e-11
1.54775912163e-11
3.02901445257e-11
3.40016848859e-11
6.90258954189e-12
5.0558163543e-11
2.20377279487e-11
3.50769557792e-11
1.63172094309e-10
1.40555481503e-11
1.66199172679e-10
1.35237226809e-10
1.79132753463e-11
3.79407830813e-11
3.41188088297e-12
3.33660598688e-12
1.50911506943e-11
3.00969466776e-11
4.00042709196e-12
3.03966982668e-12
1.38903707398e-12
1.50267896554e-11
2.11275979524e-12
2.83251141584e-12
9.14960419543e-12
3.70358627451e-11
4.80617045338e-12
1.76887652125e-11
1.70253633797e-11
1.07309271249e-11
4.1920891055e-12
8.3040080232e-12
2.28258242114e-13
1.93963758393e-11
4.5635168214e-12
1.39764961473e-11
5.48461868742e-12
2.20142379295e-11
2.22485348972e-11
5.20435674174e-11
2.98788243812e-11
5.8450012833e-12
1.16871552427e-10
1.18997095497e-10
1.14626324883e-11
1.73638471326e-11
4.84203268809e-12
6.27021908615e-12
9.0580229436e-12
2.0362641871e-12
9.5910467827e-12
1.335850607e-11
8.85833613428e-12
2.62657837421e-12
8.5653235336e-12
1.3289625594e-13
2.01847146329e-11
1.3098206196e-11
2.01829104833e-11
1.22915001243e-11
4.9176732203e-12
3.75016269171e-12
2.50653826849e-12
1.070083909e-11
1.01003852146e-11
7.64014602956e-12
2.65117825304e-11
3.6425926e-11
1.09201612428e-10
2.22288599646e-10
2.40446487036e-10
8.1105275867e-11
1.15067085111e-11
8.95802508541e-12
5.76143270457e-12
2.21207148064e-12
3.1558922922e-12
1.02128461217e-11
1.85280636639e-12
2.97131321005e-12
1.12422234856e-12
4.60078528921e-12
8.88882797566e-12
2.01075059516e-11
5.50976212217e-12
1.33060921218e-11
4.77750390328e-12
2.89759080391e-12
5.23481899918e-13
3.33247164642e-12
9.20455325732e-12
2.8217246642e-11
1.69736191284e-10
4.32896722944e-10
3.63978076805e-10
1.68412871544e-10
5.48229780961e-11
6.88831986036e-11
6.09404399616e-12
3.89860532236e-12
2.41513514718e-13
2.36761420298e-12
3.53305531002e-12
8.48127900268e-12
1.73545501353e-12
6.84734359841e-12
3.42388563356e-12
1.97081493652e-12
1.95966946248e-12
5.64868270513e-11
6.47450972915e-11
5.98547758653e-11
7.30064737989e-10
6.53981612183e-10
4.77230980534e-11
1.30100085032e-10
4.3712724096e-11
5.18210181884e-12
2.19663450991e-12
4.89988379459e-12
9.96481620229e-13
8.02587140597e-12
5.9760281582e-11
1.47766020579e-10
3.04327348393e-10
5.99505601311e-10
4.86196579746e-10
3.23227972214e-10
8.32197399166e-11
1.077414383e-10
5.50676654981e-11
8.67167940855e-11
1.36974312606e-10
3.64252903586e-11
1.85029180758e-10
1.20336867608e-09
3.17449009338e-10
1.2874708962e-09
2.25400835995e-10
1.40476440736e-09
2.44062090859e-10
1.79112800862e-09
2.10899771459e-10
1.20993985505e-09
3.18831063546e-10
7.95511279514e-10
2.45937034976e-10
1.05409435185e-09
6.1061604267e-10
3.22213942864e-10
1.70073846476e-10
1.40428849918e-10
5.63663640797e-11
3.65340689034e-10
1.21535870147e-09
4.41993663208e-09
5.57269418843e-09
6.70553171618e-11
3.59483483793e-09
3.20909345213e-08
1.88399994448e-08
2.36796785286e-08
1.71136610122e-08
5.24852646234e-10
1.84337528259e-09
1.99256467517e-09
1.3618360016e-09
5.79037821546e-10
1.25903119187e-09
3.40209869923e-10
3.84869964901e-10
3.43933343331e-11
1.60058661514e-12
4.39448782146e-11
4.46927682963e-11
1.83142978567e-11
5.44297918786e-10
1.37147069009e-10
8.47544010061e-10
2.45656290647e-10
9.34386385887e-10
1.07071419014e-10
1.44246434007e-09
1.89427514167e-10
1.09554617433e-09
3.80257427698e-10
3.12514233609e-08
4.04970928703e-09
2.88386064806e-08
1.41316277654e-08
2.12259941338e-08
1.91938354248e-09
1.38401186162e-08
5.01753678401e-08
4.03785770391e-08
3.00717669726e-08
1.12087980559e-08
1.93884849866e-08
8.18518320601e-09
1.01099951801e-08
4.70319331661e-08
3.64096549787e-08
8.44103751698e-09
1.71832901975e-08
7.01429058047e-09
2.22562408173e-08
4.82870475504e-09
1.24644796719e-11
2.93462089806e-09
1.58991686844e-09
2.99783475845e-10
5.104256499e-10
2.5394754327e-10
6.35991105311e-10
3.14162491058e-09
2.44471507139e-09
8.31410131176e-09
2.5243265188e-09
4.33407100755e-09
2.61922533907e-10
1.18497917191e-09
5.48603173695e-10
7.23137638021e-10
3.62000289708e-10
5.52318108302e-10
4.36578270235e-10
2.77871093158e-10
9.32641967535e-10
1.50354024373e-09
1.45909710025e-09
2.92577109811e-09
1.31207959563e-10
3.1019050762e-09
5.80381142307e-11
4.010253489e-10
1.79662334893e-09
2.20368211689e-11
1.50779837721e-09
6.13308336398e-10
1.09918084343e-09
1.05302360725e-09
1.47397564347e-09
1.39408315975e-10
1.63890969809e-09
1.07227137957e-10
1.6149770584e-09
1.06924312724e-09
1.556011953e-09
4.76960759971e-10
4.76054890139e-10
3.08564351782e-09
7.1568429455e-10
2.10193515026e-09
1.28776046685e-09
1.8414859195e-09
2.64473904598e-10
1.23901731884e-09
4.98886050341e-10
4.71270104518e-10
5.34224639424e-10
9.55852392214e-10
6.30934057953e-10
9.93662173527e-10
4.55733474487e-10
1.82611940643e-09
1.34766377538e-09
1.39080096312e-09
1.41202466658e-09
4.25456428714e-11
5.31184557409e-10
1.64317303952e-10
7.35943373301e-10
4.01660105458e-11
4.48700598563e-10
4.04203729726e-10
6.32190965179e-10
1.37508722682e-09
1.12437551797e-09
1.67314403878e-09
2.96407709283e-10
1.92632819834e-09
1.51085171803e-09
5.57193288057e-13
1.11384038551e-09
1.58619633771e-09
1.13816930628e-09
2.73129781237e-09
5.65478130359e-10
1.13773315789e-09
2.88847594997e-09
1.54132087881e-10
1.77939697079e-09
1.61249885011e-09
2.59179758096e-09
1.3606098707e-09
1.73251306793e-09
2.00748930471e-09
5.00524724292e-10
1.72358836863e-10
4.54917891261e-10
1.8381737587e-09
1.91510623346e-10
1.12193905117e-09
6.79981129903e-11
9.84903766046e-10
1.6427475336e-09
1.66830899323e-09
1.68008683407e-08
1.8920856535e-08
2.16445422875e-08
2.52805160137e-08
1.93169438903e-08
1.12915735548e-08
1.21989050557e-08
1.65152714869e-08
1.36233600707e-08
7.96933117526e-09
3.74359846462e-09
2.69248402323e-08
4.28783621736e-08
5.44610000235e-10
6.30781105479e-11
2.02821125948e-10
3.11534699941e-10
7.57016930929e-10
8.89922455301e-10
1.32762890892e-09
1.40639336154e-09
2.97148259325e-09
4.09530381447e-10
9.87476714474e-10
4.54976951888e-09
2.55351764986e-09
2.88269506003e-09
1.1729633825e-09
1.29525378914e-09
2.00195413004e-09

