# vtk DataFile Version 3.0
File Name: Molecule/methanol/methanol_9.0-0.vtk
ASCII
DATASET UNSTRUCTURED_GRID
FIELD FieldData 1
TIME 1 1 double
0.0
POINTS 410 double
1.611 0.0 -0.359
1.569 -0.375 -0.355
1.403 0.0 -0.933
1.365 -0.341 -0.929
1.445 -0.731 -0.342
1.252 -0.666 -0.918
1.245 -1.05 -0.322
1.07 -0.957 -0.9
0.98 -1.317 -0.296
0.828 -1.2 -0.876
0.662 -1.518 -0.264
0.538 -1.382 -0.847
0.308 -1.642 -0.229
0.216 -1.496 -0.815
-0.065 -1.684 -0.192
-0.124 -1.534 -0.781
-0.438 -1.642 -0.155
-0.464 -1.496 -0.747
-0.793 -1.518 -0.119
-0.787 -1.382 -0.715
-1.11 -1.317 -0.088
-1.076 -1.2 -0.686
-1.376 -1.05 -0.061
-1.318 -0.957 -0.662
-1.576 -0.731 -0.042
-1.5 -0.666 -0.644
-1.7 -0.375 -0.029
-1.613 -0.341 -0.633
-1.742 0.0 -0.025
-1.651 0.0 -0.629
-1.7 0.375 -0.029
-1.613 0.341 -0.633
-1.576 0.731 -0.042
-1.5 0.666 -0.644
-1.376 1.05 -0.061
-1.318 0.957 -0.662
-1.11 1.317 -0.088
-1.076 1.2 -0.686
-0.793 1.518 -0.119
-0.787 1.382 -0.715
-0.438 1.642 -0.155
-0.464 1.496 -0.747
-0.065 1.684 -0.192
-0.124 1.534 -0.781
0.308 1.642 -0.229
0.216 1.496 -0.815
0.662 1.518 -0.264
0.538 1.382 -0.847
0.98 1.317 -0.296
0.828 1.2 -0.876
1.245 1.05 -0.322
1.07 0.957 -0.9
1.445 0.731 -0.342
1.252 0.666 -0.918
1.569 0.375 -0.355
1.365 0.341 -0.929
1.907 0.0 0.656
1.874 0.347 0.656
1.874 0.173 0.956
1.874 -0.173 0.956
1.874 -0.347 0.656
1.874 -0.173 0.355
1.874 0.173 0.355
1.779 0.59 0.997
1.779 0.341 1.246
1.779 -0.0 1.337
1.779 -0.341 1.246
1.779 -0.59 0.997
1.779 -0.682 0.656
1.779 -0.59 0.315
1.779 -0.341 0.065
1.779 -0.0 -0.026
1.779 0.341 0.065
1.779 0.59 0.315
1.779 0.682 0.656
1.624 0.934 0.995
1.624 0.761 1.294
1.624 0.497 1.516
1.624 0.173 1.634
1.624 -0.173 1.634
1.624 -0.497 1.516
1.624 -0.761 1.294
1.624 -0.934 0.995
1.624 -0.994 0.656
1.624 -0.934 0.316
1.624 -0.761 0.017
1.624 0.761 0.017
1.624 0.934 0.316
1.624 0.994 0.656
1.414 1.224 0.999
1.414 1.086 1.316
1.414 0.868 1.585
1.414 0.585 1.785
1.414 0.259 1.901
1.414 -0.087 1.924
1.414 -0.426 1.854
1.414 -0.733 1.694
1.414 -0.986 1.458
1.414 -1.166 1.162
1.414 -1.26 0.829
1.414 -1.26 0.482
1.414 -1.166 0.149
1.414 -0.986 -0.147
1.414 1.086 -0.005
1.414 1.224 0.313
1.414 1.272 0.656
1.156 1.466 1.003
1.156 1.346 1.332
1.156 1.154 1.624
1.156 0.899 1.864
1.156 0.597 2.039
1.156 0.262 2.139
1.156 -0.088 2.159
1.156 -0.432 2.099
1.156 -0.753 1.96
1.156 -1.034 1.751
1.156 -1.258 1.483
1.156 -1.415 1.171
1.156 -1.496 0.83
1.156 -1.496 0.481
1.156 -1.415 0.14
1.156 1.346 -0.02
1.156 1.466 0.308
1.156 1.506 0.656
0.86 1.655 0.996
0.86 1.553 1.322
0.86 1.387 1.621
0.86 1.164 1.88
0.86 0.894 2.089
0.86 0.587 2.24
0.86 0.256 2.326
0.86 -0.086 2.343
0.86 -0.424 2.291
0.86 -0.744 2.173
0.86 -1.034 1.992
0.86 -1.282 1.756
0.86 -1.477 1.476
0.86 -1.612 1.161
0.86 -1.681 0.827
0.86 -1.681 0.485
0.86 -1.612 0.15
0.86 1.553 -0.011
0.86 1.655 0.315
0.86 1.69 0.656
0.536 1.783 0.999
0.536 1.685 1.33
0.536 1.527 1.637
0.536 1.314 1.908
0.536 1.053 2.134
0.536 0.754 2.307
0.536 0.428 2.42
0.536 0.086 2.469
0.536 -0.258 2.453
0.536 -0.594 2.371
0.536 -0.908 2.228
0.536 -1.189 2.028
0.536 -1.427 1.778
0.536 -1.614 1.487
0.536 -1.742 1.167
0.536 -1.807 0.828
0.536 -1.807 0.483
0.536 -1.742 0.144
0.536 1.685 -0.019
0.536 1.783 0.312
0.536 1.815 0.656
0.193 1.847 1.001
0.193 1.753 1.335
0.193 1.598 1.645
0.193 1.389 1.922
0.193 1.133 2.155
0.193 0.838 2.338
0.193 0.514 2.463
0.193 0.173 2.527
0.193 -0.173 2.527
0.193 -0.514 2.463
0.193 -0.838 2.338
0.193 -1.133 2.155
0.193 -1.389 1.922
0.193 -1.598 1.645
0.193 -1.753 1.335
0.193 -1.847 1.001
0.193 -1.879 0.656
0.193 -1.847 0.31
0.193 -1.753 -0.023
0.193 1.753 -0.023
0.193 1.847 0.31
0.193 1.879 0.656
-0.155 1.847 1.001
-0.155 1.753 1.335
-0.155 1.598 1.645
-0.155 1.389 1.922
-0.155 1.133 2.155
-0.155 0.838 2.338
-0.155 0.514 2.463
-0.155 0.173 2.527
-0.155 -0.173 2.527
-0.155 -0.514 2.463
-0.155 -0.838 2.338
-0.155 -1.133 2.155
-0.155 -1.389 1.922
-0.155 -1.598 1.645
-0.155 -1.753 1.335
-0.155 -1.847 1.001
-0.155 -1.879 0.656
-0.155 -1.847 0.31
-0.155 1.847 0.31
-0.155 1.879 0.656
-0.498 1.815 0.656
-0.498 1.783 0.999
-0.498 1.685 1.33
-0.498 1.527 1.637
-0.498 1.314 1.908
-0.498 1.053 2.134
-0.498 0.754 2.307
-0.498 0.428 2.42
-0.498 0.086 2.469
-0.498 -0.258 2.453
-0.498 -0.594 2.371
-0.498 -0.908 2.228
-0.498 -1.189 2.028
-0.498 -1.427 1.778
-0.498 -1.614 1.487
-0.498 -1.742 1.167
-0.498 -1.807 0.828
-0.498 -1.807 0.483
-0.498 -1.742 0.144
-0.498 1.783 0.312
-0.822 1.69 0.656
-0.822 1.655 0.996
-0.822 1.553 1.322
-0.822 1.387 1.621
-0.822 1.164 1.88
-0.822 0.894 2.089
-0.822 0.587 2.24
-0.822 0.256 2.326
-0.822 -0.086 2.343
-0.822 -0.424 2.291
-0.822 -0.744 2.173
-0.822 -1.034 1.992
-0.822 -1.282 1.756
-0.822 -1.477 1.476
-0.822 -1.612 1.161
-0.822 -1.681 0.827
-0.822 -1.681 0.485
-0.822 -1.612 0.15
-0.822 1.655 0.315
-1.118 1.506 0.656
-1.118 1.466 1.003
-1.118 1.346 1.332
-1.118 1.154 1.624
-1.118 0.899 1.864
-1.118 0.597 2.039
-1.118 0.262 2.139
-1.118 -0.088 2.159
-1.118 -0.432 2.099
-1.118 -0.753 1.96
-1.118 -1.034 1.751
-1.118 -1.258 1.483
-1.118 -1.415 1.171
-1.118 -1.496 0.83
-1.118 -1.496 0.481
-1.118 -1.415 0.14
-1.118 1.466 0.308
-1.376 1.272 0.656
-1.376 1.224 0.999
-1.376 1.086 1.316
-1.376 0.868 1.585
-1.376 0.585 1.785
-1.376 0.259 1.901
-1.376 -0.087 1.924
-1.376 -0.426 1.854
-1.376 -0.733 1.694
-1.376 -0.986 1.458
-1.376 -1.166 1.162
-1.376 -1.26 0.829
-1.376 -1.26 0.482
-1.376 -1.166 0.149
-1.376 1.224 0.313
-1.586 0.994 0.656
-1.586 0.934 0.995
-1.586 0.761 1.294
-1.586 0.497 1.516
-1.586 0.173 1.634
-1.586 -0.173 1.634
-1.586 -0.497 1.516
-1.586 -0.761 1.294
-1.586 -0.934 0.995
-1.586 -0.994 0.656
-1.586 -0.934 0.316
-1.586 0.934 0.316
-1.741 0.682 0.656
-1.741 0.59 0.997
-1.741 0.341 1.246
-1.741 -0.0 1.337
-1.741 -0.341 1.246
-1.741 -0.59 0.997
-1.741 -0.682 0.656
-1.741 -0.59 0.315
-1.741 0.59 0.315
-1.836 0.347 0.656
-1.836 0.173 0.956
-1.836 -0.173 0.956
-1.836 -0.347 0.656
-1.836 -0.173 0.355
-1.836 0.173 0.355
-1.868 -0.0 0.656
1.263 -0.333 -1.314
1.08 -0.577 -1.501
1.08 -0.262 -1.658
1.263 -0.0 -1.403
1.08 0.088 -1.69
1.263 0.333 -1.314
1.08 0.427 -1.594
1.08 0.707 -1.382
1.08 -0.814 -1.241
0.837 -1.081 -1.258
0.837 -0.88 -1.553
0.837 -0.6 -1.777
0.837 -0.267 -1.907
0.837 0.09 -1.934
0.837 0.438 -1.854
0.837 0.748 -1.675
0.837 0.992 -1.413
1.08 0.892 -1.083
0.837 1.147 -1.091
0.546 -1.286 -1.246
0.546 -1.119 -1.55
0.546 -0.882 -1.803
0.546 -0.589 -1.989
0.546 -0.259 -2.096
0.546 0.087 -2.117
0.546 0.427 -2.052
0.546 0.741 -1.905
0.546 1.008 -1.684
0.546 1.212 -1.403
0.546 1.34 -1.081
0.222 -1.406 -1.249
0.222 -1.25 -1.56
0.222 -1.027 -1.826
0.222 -0.748 -2.033
0.222 -0.429 -2.171
0.222 -0.087 -2.231
0.222 0.26 -2.211
0.222 0.593 -2.111
0.222 0.894 -1.938
0.222 1.146 -1.699
0.222 1.337 -1.409
0.222 1.456 -1.082
-0.12 -1.497 -1.079
-0.12 -1.383 -1.403
-0.12 -1.2 -1.694
-0.12 -0.957 -1.937
-0.12 -0.666 -2.12
-0.12 -0.342 -2.234
-0.12 0.0 -2.272
-0.12 0.342 -2.234
-0.12 0.666 -2.12
-0.12 0.957 -1.937
-0.12 1.2 -1.694
-0.12 1.383 -1.403
-0.12 1.497 -1.079
-0.461 -1.406 -1.249
-0.461 -1.25 -1.56
-0.461 -1.027 -1.826
-0.461 -0.748 -2.033
-0.461 -0.429 -2.171
-0.461 -0.087 -2.231
-0.461 0.26 -2.211
-0.461 0.593 -2.111
-0.461 0.894 -1.938
-0.461 1.146 -1.699
-0.461 1.337 -1.409
-0.461 1.456 -1.082
-0.786 -1.372 -0.911
-0.786 -1.286 -1.246
-0.786 -1.119 -1.55
-0.786 -0.882 -1.803
-0.786 -0.589 -1.989
-0.786 -0.259 -2.096
-0.786 0.087 -2.117
-0.786 0.427 -2.052
-0.786 0.741 -1.905
-0.786 1.008 -1.684
-0.786 1.212 -1.403
-0.786 1.34 -1.081
-1.077 -1.187 -0.916
-1.077 -1.081 -1.258
-1.077 -0.88 -1.553
-1.077 -0.6 -1.777
-1.077 -0.267 -1.907
-1.077 0.09 -1.934
-1.077 0.438 -1.854
-1.077 0.748 -1.675
-1.077 0.992 -1.413
-1.077 1.147 -1.091
-1.32 -0.941 -0.913
-1.32 -0.814 -1.241
-1.32 -0.577 -1.501
-1.32 -0.262 -1.658
-1.32 0.088 -1.69
-1.32 0.427 -1.594
-1.32 0.707 -1.382
-1.32 0.892 -1.083
-1.503 -0.577 -1.07
-1.503 -0.333 -1.314
-1.503 -0.0 -1.403
-1.503 0.333 -1.314
-1.503 0.577 -1.07
-1.616 -0.171 -1.033
-1.616 0.171 -1.033

CELLS 816 3264
3 0 1 2
3 2 1 3
3 1 4 3
3 3 4 5
3 4 6 5
3 5 6 7
3 6 8 7
3 7 8 9
3 8 10 9
3 9 10 11
3 10 12 11
3 11 12 13
3 12 14 13
3 13 14 15
3 14 16 15
3 15 16 17
3 16 18 17
3 17 18 19
3 18 20 19
3 19 20 21
3 20 22 21
3 21 22 23
3 22 24 23
3 23 24 25
3 24 26 25
3 25 26 27
3 26 28 27
3 27 28 29
3 28 30 29
3 29 30 31
3 30 32 31
3 31 32 33
3 32 34 33
3 33 34 35
3 34 36 35
3 35 36 37
3 36 38 37
3 37 38 39
3 38 40 39
3 39 40 41
3 40 42 41
3 41 42 43
3 42 44 43
3 43 44 45
3 44 46 45
3 45 46 47
3 46 48 47
3 47 48 49
3 48 50 49
3 49 50 51
3 50 52 51
3 51 52 53
3 52 54 53
3 53 54 55
3 54 0 55
3 55 0 2
3 56 57 58
3 56 58 59
3 56 59 60
3 56 60 61
3 56 61 62
3 56 62 57
3 58 57 63
3 58 63 64
3 58 64 65
3 59 58 65
3 59 65 66
3 59 66 67
3 60 59 67
3 60 67 68
3 60 68 69
3 61 60 69
3 61 69 70
3 61 70 71
3 62 61 71
3 62 71 72
3 62 72 73
3 57 62 73
3 57 73 74
3 57 74 63
3 63 74 75
3 63 75 76
3 64 63 76
3 64 76 77
3 64 77 78
3 65 64 78
3 65 78 79
3 66 65 79
3 66 79 80
3 66 80 81
3 67 66 81
3 67 81 82
3 68 67 82
3 68 82 83
3 68 83 84
3 69 68 84
3 69 84 85
3 70 69 85
3 73 72 86
3 73 86 87
3 74 73 87
3 74 87 88
3 74 88 75
3 75 88 89
3 75 89 90
3 76 75 90
3 76 90 91
3 77 76 91
3 77 91 92
3 78 77 92
3 78 92 93
3 78 93 94
3 79 78 94
3 79 94 95
3 80 79 95
3 80 95 96
3 81 80 96
3 81 96 97
3 81 97 98
3 82 81 98
3 82 98 99
3 83 82 99
3 83 99 100
3 84 83 100
3 84 100 101
3 85 84 101
3 85 101 102
3 87 86 103
3 87 103 104
3 88 87 104
3 88 104 105
3 88 105 89
3 89 105 106
3 89 106 107
3 90 89 107
3 90 107 108
3 91 90 108
3 91 108 109
3 92 91 109
3 92 109 110
3 93 92 110
3 93 110 111
3 94 93 111
3 94 111 112
3 94 112 113
3 95 94 113
3 95 113 114
3 96 95 114
3 96 114 115
3 97 96 115
3 97 115 116
3 98 97 116
3 98 116 117
3 99 98 117
3 99 117 118
3 99 118 119
3 100 99 119
3 100 119 120
3 101 100 120
3 104 103 121
3 104 121 122
3 105 104 122
3 105 122 123
3 105 123 106
3 106 123 124
3 106 124 125
3 107 106 125
3 107 125 126
3 108 107 126
3 108 126 127
3 109 108 127
3 109 127 128
3 110 109 128
3 110 128 129
3 111 110 129
3 111 129 130
[...]
CELL_DATA 816
SCALARS cell_data_0 double
LOOKUP_TABLE default
8.35770427798e-07
2.3258474703e-06
8.70348518418e-06
5.00909178848e-07
5.48275179354e-07
9.38552981101e-08
9.50972421866e-08
1.34890463962e-08
2.52763589008e-08
4.35659748999e-09
1.65066861679e-08
4.18456638351e-08
1.83168546085e-08
7.12929553149e-08
5.14988528267e-08
1.0397368682e-07
8.82717563098e-08
1.12962967743e-07
9.99660993946e-08
1.19359375764e-07
1.23541352193e-07
1.26355295917e-07
1.32117793046e-07
1.33114282716e-07
1.43772404802e-07
1.45958209913e-07
1.57474681161e-07
1.43221602143e-07
1.56564521214e-07
1.45334089044e-07
1.68891064299e-07
1.46858376069e-07
1.69891080837e-07
1.42777228037e-07
1.73078612393e-07
1.36609897391e-07
1.73034052741e-07
1.23650711056e-07
1.66972274296e-07
1.05373575631e-07
1.61522015922e-07
8.70323276493e-08
1.53379476097e-07
5.90362787958e-08
1.31986708476e-07
2.62989395999e-08
9.26596216539e-08
4.76289116381e-10
3.11381906082e-08
4.08538514257e-08
5.60852448849e-09
3.7824927409e-07
2.37652479898e-07
1.23110061993e-06
1.42859840093e-06
7.93116487244e-07
5.10899799634e-11
2.73111891393e-10
8.09871000617e-11
8.8601661303e-10
2.76977990959e-10
6.90789072581e-10
3.59615073473e-10
6.56284562032e-10
1.66118278108e-10
4.34691302671e-10
6.56767047486e-10
9.60576065808e-10
2.01622893748e-09
8.93556071136e-09
2.52170421041e-08
1.7482792903e-08
4.28801916824e-08
3.32042825081e-09
2.96181532261e-09
1.79076863587e-08
2.0354822478e-08
9.84228245905e-09
1.0302909258e-08
1.13543143052e-09
1.15242173517e-09
4.68791462294e-09
2.99581839349e-09
3.48841306382e-09
1.72652281037e-09
1.63189885865e-10
1.53980521577e-09
2.46263765167e-09
3.5291754831e-09
4.20413079663e-09
7.357655293e-10
1.5407833663e-10
9.6030221668e-09
9.77195885792e-09
2.58705380458e-08
4.5484971657e-08
3.3060576207e-08
4.09391485361e-08
3.41916851093e-08
2.27050827532e-08
1.61064852066e-08
6.9062353436e-09
5.42249472089e-10
6.42818134712e-09
9.47134833701e-09
8.16910675181e-09
8.50803193748e-09
6.41179733891e-09
5.74705310352e-09
2.53205222988e-09
1.653144909e-09
5.95829183366e-10
2.51710234059e-09
4.22988413278e-09
5.52082741163e-09
6.81929761516e-09
6.6606263242e-09
8.21580927735e-09
8.68475488866e-09
5.28176574919e-09
3.96521017939e-09
3.08135529751e-09
4.53234451002e-09
2.13739929261e-08
3.29411512242e-08
3.56518322912e-08
3.65381171698e-09
2.03978100758e-08
1.09194685015e-08
5.0190820702e-09
1.20810426841e-09
6.62900298692e-09
1.26592238418e-08
1.4836491987e-08
1.30650740365e-08
1.31208704624e-08
1.1168682857e-08
1.02173594331e-08
7.70784914089e-09
6.42708217123e-09
3.8260496876e-09
2.681570469e-09
3.44072016808e-10
1.9440074521e-09
4.53497275139e-09
5.71440523506e-09
8.01903112133e-09
9.14618609645e-09
1.09790645038e-08
1.14308508655e-08
1.29060251665e-08
1.1708688863e-08
1.28210052352e-08
8.28770752505e-09
7.3354417675e-09
5.82106484974e-09
2.77703236412e-10
1.0851440817e-09
1.31841212915e-08
5.39130554582e-09
1.91145719756e-09
4.98133967687e-09
1.02977449313e-08
1.37469410733e-08
1.88195893378e-08
1.93061173394e-08
1.80221723372e-08
1.68481540026e-08
1.53158988834e-08
1.36447677335e-08
1.17513990039e-08
9.91662796043e-09
7.81296712108e-09
6.23651822097e-09
3.86916493738e-09
2.23247417566e-09
6.90710903939e-10
2.04390377183e-09
4.3582382034e-09
5.88834547221e-09
7.79653788205e-09
9.63519592234e-09
1.13096043887e-08
1.30001045177e-08
1.42018389779e-08
1.54652103074e-08
1.63465540153e-08
1.65051822319e-08
1.6790223156e-08
1.28885662495e-08
1.14647428668e-08
8.78250119447e-09
6.32986979894e-09
3.18241979487e-09
3.30146735785e-09
6.95552229285e-09
1.26407496573e-08
1.46925005094e-08
1.78442663581e-08
1.96991075102e-08
2.37508929787e-08
2.42415576444e-08
2.17325085985e-08
2.08473200617e-08
1.85269578272e-08
1.70000424889e-08
1.47790111802e-08
1.292615129e-08
1.07823796533e-08
8.82969068996e-09
6.87404547358e-09
4.91864696135e-09
2.89880549031e-09
8.94904874734e-10
9.40140155563e-10
2.80136631508e-09
4.72629655208e-09
6.77387749742e-09
8.56774376837e-09
1.0565559096e-08
1.22195273043e-08
1.42414945488e-08
1.56207290201e-08
1.76128790776e-08
1.82498634504e-08
2.02565491409e-08
1.95376880014e-08
2.06837945267e-08
1.70581957835e-08
1.58452265191e-08
1.0620582897e-08
6.51769127196e-09
1.73312607868e-09
6.29809641892e-09
1.43990210475e-08
2.08576841575e-08
2.15921344409e-08
2.50866176652e-08
2.58514676374e-08
2.91247094055e-08
2.89322380014e-08
2.64814000509e-08
2.46231287332e-08
2.21922954555e-08
2.00693721142e-08
1.78035354176e-08
1.54418608795e-08
1.33426746495e-08
1.08631269333e-08
8.86930067987e-09
6.63076469524e-09
4.81387700161e-09
2.49050846e-09
6.21887750966e-10
1.65132727092e-09
3.36574639304e-09
5.78370746276e-09
7.50573989763e-09
9.95696344747e-09
1.14923173023e-08
1.39705307641e-08
1.53990620548e-08
1.8031686264e-08
1.92916135247e-08
2.15811981418e-08
2.2245195727e-08
2.39620583235e-08
2.35020767107e-08
2.33249841958e-08
1.97396990203e-08
1.33119693686e-08
6.81795502504e-09
9.02545009828e-09
1.5179957232e-08
1.54039962015e-08
1.76299173805e-08
2.46954056453e-08
2.81772908597e-08
3.0934187763e-08
3.10925739567e-08
3.35599037801e-08
3.23738433791e-08
2.99481854221e-08
2.77422469006e-08
2.53323573582e-08
2.23922336188e-08
2.02278417124e-08
1.70927118061e-08
1.51748137302e-08
1.22984865053e-08
1.05200859083e-08
7.26795120777e-09
5.72365680307e-09
2.81292468158e-09
1.20577217666e-09
1.68584188258e-09
2.91744418372e-09
6.16544816356e-09
7.35241013953e-09
1.07353647137e-08
1.1764907421e-08
1.52498341898e-08
1.61324536865e-08
1.96866210934e-08
2.04304991369e-08
2.38561945014e-08
2.39162655869e-08
2.64808657569e-08
2.58924333535e-08
2.58675526452e-08
2.32110974468e-08
1.76020103543e-08
9.94897420223e-09
4.2541249865e-09
4.61045690954e-09
2.36495814952e-08
3.11446461871e-08
3.52554802571e-08
3.62020990201e-08
2.14324006947e-08
1.03636209222e-08
2.07019243751e-08
9.51380860598e-09
1.77112303462e-08
7.95847819522e-09
1.45551474427e-08
6.18774496888e-09
1.10951020206e-08
4.63510099165e-09
7.99765008791e-09
3.1342981827e-09
4.73892800519e-09
1.30250864008e-09
1.49606058308e-09
4.79795259635e-11
1.31279001023e-09
1.51314915933e-09
4.38762743887e-09
3.1215589133e-09
7.52485524073e-09
4.6414039623e-09
1.0695168278e-08
6.1765021191e-09
1.37665094528e-08
7.65054552809e-09
1.66554606035e-08
8.98189417913e-09
1.89306776825e-08
9.69568903205e-09
1.88695023353e-08
8.63852448797e-09
1.38372962922e-08
2.51594367038e-09
2.35229583881e-09
4.00172055991e-09
9.34538651813e-09
2.05403426246e-08
3.01636711687e-10
1.61318059416e-09
3.36714073691e-10
5.46801416602e-10
1.08677801206e-10
3.24885799324e-10
1.34341396597e-10
1.29817482585e-10
5.39967095774e-11
1.51001874453e-11
1.52366301397e-10
1.70218760041e-11
4.17053779393e-11
1.33337325474e-11
1.52692188223e-10
2.8292336737e-11
6.30856514215e-11
7.82922214499e-11
7.84516724956e-11
1.36062725361e-11
7.26924050829e-11
4.46611014642e-11
1.1147051851e-10
4.65603765575e-12
1.25043231758e-10
7.20970596512e-11
1.82242917146e-10
4.84144925672e-10
7.61150089251e-10
9.1338573761e-10
1.76569436757e-09
1.98085981247e-09
3.49275092173e-09
1.75905552124e-10
6.56021438219e-09
1.80313272057e-09
1.00824777628e-09
1.1827215078e-10
1.95509494606e-09
2.85019035631e-10
7.59515220134e-10
7.9734485273e-11
3.08336374407e-10
1.39993789097e-10
1.18850817303e-10
1.37957388481e-10
1.45255091952e-11
1.39042776408e-10
8.2036770012e-11
1.76720171477e-10
1.46309936069e-10
2.86416129587e-11
6.87082632066e-11
1.09857364656e-10
2.51414198223e-10
7.96641041874e-11
2.80770189916e-10
2.95769579346e-11
3.97672172793e-10
2.32909087171e-10
6.27501707387e-10
5.38611479063e-10
1.04627769124e-09
1.08740651864e-09
1.59945539076e-09
2.89902777403e-09
3.74512662839e-09
2.38187305884e-10
8.15654770202e-09
1.56482416546e-09
1.24636754968e-09
1.11335009688e-10
2.04901288673e-09
2.55806210666e-10
7.38718222102e-10
8.8218546696e-11
3.60047351414e-10
6.32640093601e-11
1.62908280167e-11
1.71185086703e-10
1.28955148001e-10
2.074873784e-10
1.92151029799e-10
2.56671835686e-10
3.46372846914e-10
7.2754478478e-11
3.2092772675e-10
8.64947040307e-11
4.74380257778e-10
2.055637274e-10
4.74494722024e-10
4.06318151245e-10
8.69063867681e-10
1.08692189409e-09
2.0345836343e-09
3.00867132032e-09
5.00589338257e-09
7.75453753736e-13
8.33053299341e-09
1.71097037708e-09
1.9670978322e-09
1.34716593266e-10
2.39633208623e-09
2.56724558491e-10
6.75018429133e-10
9.73851339586e-11
1.70276994165e-10
2.15318529623e-10
3.1516269799e-11
2.2564078235e-10
2.8927140564e-10
5.57926791732e-11
5.49833968394e-10
2.92038981177e-11
5.45949625237e-10
3.84060438861e-11
7.23829076103e-10
4.74725420016e-10
1.08324816964e-09
6.90279204732e-10
2.33515586021e-09
9.59976160225e-10
4.69367718501e-09
2.67852343134e-09
1.59449934955e-09
2.2709791528e-09
8.84938417039e-11
2.49956548956e-09
2.58678092651e-10
7.14533585516e-10
1.60938221897e-10
3.12626764588e-10
5.25415387549e-12
9.25038306093e-10
6.78033976618e-11
8.29041028846e-10
8.32879114516e-10
7.38328870629e-10
1.13854170723e-09
2.38809156483e-09
2.6722537123e-09
7.32070200908e-11
6.16411970982e-09
1.39354146485e-09
3.15091563287e-09
1.29718812641e-10
2.28146084547e-09
3.06983705773e-10
9.81443152201e-10
4.77528354787e-11
1.48402181763e-09
1.19861721739e-09
2.5202492608e-09
2.91698310245e-09
1.1077810791e-10
4.27562042072e-09
9.15682605666e-10
3.98052263236e-09
2.44526647211e-10
1.84888599091e-09
1.77534335294e-09
3.68699958852e-10
3.69139190238e-09
2.89178989427e-09
3.22093030408e-08
9.81261081183e-10
3.05534272261e-08
1.11724098726e-09
3.24837681447e-08
5.04067534199e-10
2.99270710256e-08
2.34464505329e-09
8.66755425246e-09
3.1902976605e-10
9.25689695698e-09
7.32218513115e-10
1.05446575421e-08
1.89939016407e-08
3.26297579414e-09
2.72543806507e-09
3.87560907091e-08
1.66716775148e-08
8.01501559193e-09
3.06906530319e-09
2.07236447894e-08
2.27651599324e-08
2.51692500488e-08
1.7279390193e-08
1.36297243976e-08
1.74951321996e-08
9.55378166359e-09
6.93785534295e-09
1.27752958895e-08
6.64855022229e-09
3.65803826735e-06
5.56387254347e-06
4.29241195607e-06
2.83145269493e-06
4.12825119351e-08
3.17676904389e-08
3.31122693483e-08
1.45774016016e-09
1.98177216432e-08
6.75681667029e-10
8.36987431504e-09
4.17615007389e-09
3.17740459309e-09
8.58038356254e-10
1.82955526957e-09
6.81731880419e-09
4.72272877717e-09
1.34239791214e-08
1.59318735354e-08
2.07491430753e-08
2.82811723517e-08
2.46330891326e-09
3.47961829326e-08
2.40689926827e-08
4.96047488154e-10
2.58096779338e-08
3.85069657305e-10
2.54906761161e-08
1.82027775993e-10
2.55391055343e-08
3.18111325614e-10
6.39317333825e-06
3.95570352619e-06
4.84194602675e-06
7.42201650267e-06
4.43880357401e-06
2.41009922829e-06
1.09255699678e-05
1.79510842764e-05
3.89636276101e-06
6.96358815624e-06
2.63438464592e-06
1.16977970306e-06
1.39901913874e-06
1.71200811684e-06
1.87954124732e-06
1.07126135033e-06
8.16900303388e-07
1.8593090339e-07
1.55761484463e-07
8.42071070658e-08
3.67170566663e-08
4.63853973935e-07
1.76927747736e-07
8.40686423726e-07
2.68532202966e-07
7.56590291522e-07
1.0361424314e-07
1.48620609339e-07
1.61554028141e-07
1.38731848296e-07
1.95325796958e-07
1.36596925577e-07
1.05656935496e-07
2.17277184767e-08
1.39674809611e-07
1.08761901961e-07
2.80348784584e-07
6.92125904908e-09
1.89279290366e-09
1.26545732434e-08
7.4728364237e-09
1.93672027915e-08
4.81879821841e-09
3.74306827366e-08
4.54438825941e-09
6.07704898016e-08
4.43615542975e-09
9.25882615278e-08
4.33139801974e-09
1.04376314381e-07
3.69896966042e-09
9.42745212232e-08
3.52038052535e-09
6.69874394028e-08
4.13691420165e-09
4.29812228256e-08
3.71589295134e-09
2.57528178785e-08
2.52737599625e-09
3.06133812534e-09
3.59891409728e-09
6.2933565209e-10
8.52371822648e-09
1.00777981604e-09
1.48709838075e-08
8.73700511897e-10
2.29522820866e-08
3.25473719284e-10
3.09981199077e-08
3.20602727938e-10
3.60134651095e-08
1.14652963374e-09
3.48135623887e-08
2.41955897999e-09
2.95128717216e-08
3.81174337249e-09
2.26087723748e-08
4.6492531542e-09
1.38518822169e-08
6.4622569197e-09
9.20257695973e-09
1.29727806888e-09
9.31444857699e-09
6.60438565203e-09
4.26606244185e-09
1.804766212e-09
7.10628812831e-09
2.04108267618e-09
8.72508895825e-09
9.18827794617e-10
1.02708990491e-08
3.62776330301e-11
1.21878796937e-08
4.66771022034e-10
1.26484677003e-08
9.58026290681e-10
1.30081348724e-08
1.37927322439e-09
1.02249051647e-08
9.3452677585e-10
7.29610592456e-09
9.92703526245e-10
6.2772709398e-09
1.92068768265e-09
4.27637999774e-09
2.46374960263e-10
4.03830730004e-09
2.20739752606e-09
4.73405565681e-10
2.12879693153e-09
1.97491846031e-09
1.55445044072e-09
2.95798324692e-09
1.76723025442e-10
5.91927865368e-09
7.86248258052e-10
5.64462670512e-09
8.52761974192e-10
7.43093815971e-09
9.05475436977e-11
5.72154711726e-09
8.94086559944e-10
5.95479421467e-09
1.33707274807e-09
4.06711701293e-09
3.65688398633e-11
1.00563323937e-09
9.07519358881e-09
5.55699146194e-09
6.444956204e-09
3.92016467547e-10
3.49957583875e-09
1.66514805908e-09
3.25925226286e-09
9.36312707385e-10
3.66667617837e-09
9.5334115483e-10
2.1251796398e-09
3.76511206087e-10
7.08000167547e-10
3.84656012883e-09
1.34095066143e-09
4.46634686522e-09
1.77661509505e-09
2.37936818177e-09
2.15461211807e-10
5.35656796888e-09
8.01872967516e-09
5.52552592744e-09
1.1602778701e-09
2.49159846146e-09
3.31103163438e-09
1.00142498391e-09
1.09482656549e-09
4.21185293287e-10
5.21198935031e-10
3.03692621798e-09
5.16321480066e-10
1.17010740336e-09
3.08201229464e-09
9.01384374588e-10
5.02660027761e-10
6.40703505368e-09
4.50358151404e-09
7.30652367092e-10
2.59536631096e-09
1.8369513109e-10
5.10602927573e-09
7.05302137948e-09
3.14980804756e-09
6.36318976179e-09
2.56997400803e-10
1.41612382504e-09
1.07487853946e-08
8.84516115137e-09
6.25162291949e-10
3.35431257355e-09
3.75074109385e-09
9.79307055595e-09
2.211413481e-08
8.04539063542e-09
1.03248851546e-08
3.76743853508e-09
6.64899183459e-09
3.62131264069e-09
3.3448201578e-10
6.42258737328e-09
1.29291861675e-08
3.079621733e-09
1.28323594456e-08
1.21024472102e-09
1.03843922974e-08
6.56197557798e-10
1.1913594583e-08
1.62044736457e-09
1.95462645219e-08
3.77313634631e-09
4.33190951957e-08
2.47437098937e-08
1.57839611163e-08
5.8319483587e-07
8.69838127424e-07
9.77133336692e-07
4.62333971956e-06
8.45710547482e-06
8.99379682385e-06
4.25492719267e-06
5.74144944846e-08
1.84482748608e-05
1.96054615205e-05
8.55969087994e-06
1.0121629757e-05
1.43295176545e-07
3.62079014439e-08
5.5615992941e-08
2.17868086264e-09
3.9182669107e-08
4.44645219371e-09
2.8966204503e-08
1.7539795729e-08
1.70730881779e-08
1.7527210888e-08
2.46862142611e-08
7.92440156038e-09
2.10443275761e-08
1.79086255851e-08
9.97553815285e-09
2.2878033592e-08
7.19244306036e-09
1.05796240539e-08
1.78501179446e-08
1.62292030712e-08
1.45073604526e-09
1.56332240377e-08

