# vtk DataFile Version 3.0
File Name: Molecule/methanol/methanol_1.0-3.vtk
ASCII
DATASET UNSTRUCTURED_GRID
FIELD FieldData 1
TIME 1 1 double
0.0
POINTS 54 double
1.611 0.0 -0.359
1.12 -1.191 -0.31
1.403 0.0 -0.933
-0.065 -1.684 -0.192
0.956 -1.085 -0.888
-0.124 -1.534 -0.781
-1.251 -1.191 -0.074
-1.204 -1.085 -0.673
-1.742 0.0 -0.025
-1.651 0.0 -0.629
-1.251 1.191 -0.074
-1.204 1.085 -0.673
-0.065 1.684 -0.192
-0.124 1.534 -0.781
1.12 1.191 -0.31
0.956 1.085 -0.888
1.907 0.0 0.656
1.546 1.109 0.656
1.546 0.555 1.616
1.546 -0.555 1.616
1.546 -1.109 0.656
0.602 1.452 1.711
0.602 0.555 2.363
0.602 -0.555 2.363
0.602 -1.452 1.711
0.602 -1.795 0.656
0.602 1.795 0.656
-0.564 1.452 1.711
-0.564 0.555 2.363
-0.564 -0.555 2.363
-0.564 -1.452 1.711
-0.564 -1.795 0.656
-0.564 1.795 0.656
-1.508 1.109 0.656
-1.508 0.555 1.616
-1.508 -0.555 1.616
-1.508 -1.109 0.656
-1.868 -0.0 0.656
-0.12 0.267 -2.249
-0.12 -0.768 -2.067
-1.205 -0.543 -1.677
-1.205 0.543 -1.677
-0.12 1.176 -1.724
1.1795 -0.5425 -0.9105
0.966 -0.543 -1.677
1.1845 -0.2715 -1.305
0.961 -0.814 -1.2825
1.1795 0.5425 -0.9105
0.961 0.814 -1.2825
0.966 0.543 -1.677
1.1845 0.2715 -1.305
0.423 -0.138 -1.963
0.966 0.0 -1.677
0.423 0.405 -1.963

CELLS 104 416
3 0 1 2
3 1 3 4
3 4 3 5
3 3 6 5
3 5 6 7
3 6 8 7
3 7 8 9
3 8 10 9
3 9 10 11
3 10 12 11
3 11 12 13
3 12 14 13
3 13 14 15
3 14 0 15
3 16 17 18
3 16 18 19
3 16 19 20
3 18 17 21
3 18 21 22
3 18 22 23
3 19 18 23
3 19 23 24
3 20 19 24
3 20 24 25
3 17 26 21
3 21 26 27
3 21 27 28
3 22 21 28
3 22 28 29
3 23 22 29
3 24 23 29
3 24 29 30
3 24 30 31
3 25 24 31
3 26 32 27
3 27 32 33
3 27 33 34
3 28 27 34
3 28 34 35
3 29 28 35
3 30 29 35
3 30 35 36
3 31 30 36
3 34 33 37
3 35 34 37
3 36 35 37
3 36 37 8
3 36 8 6
3 36 6 31
3 31 6 3
3 31 3 25
3 25 3 1
3 25 1 20
3 20 1 0
3 20 0 16
3 16 0 17
3 17 0 14
3 17 14 26
3 26 14 12
3 26 12 32
3 32 12 10
3 32 10 33
3 33 10 8
3 33 8 37
3 38 39 40
3 38 40 41
3 42 38 41
3 42 41 11
3 42 11 13
3 42 13 15
3 39 4 5
3 39 5 40
3 40 5 7
3 40 7 9
3 40 9 41
3 41 9 11
3 4 43 1
3 1 43 2
3 44 45 46
3 45 43 46
3 45 2 43
3 46 43 4
3 44 46 39
3 46 4 39
3 2 47 0
3 0 47 15
3 15 48 42
3 42 48 49
3 49 48 50
3 48 47 50
3 48 15 47
3 50 47 2
3 49 50 45
3 45 50 2
3 38 51 39
3 39 51 44
3 49 52 53
3 52 51 53
3 52 44 51
3 53 51 38
3 49 53 42
3 53 38 42
3 44 52 45
3 45 52 49

CELL_TYPES 104
5
5
5
5
5
5
5
5
5
5
5
5
5
5
5
5
5
5
5
5
5
5
5
5
5
5
5
5
5
5
5
5
5
5
5
5
5
5
5
5
5
5
5
5
5
5
5
5
5
5
5
5
5
5
5
5
5
5
5
5
5
5
5
5
5
5
5
5
5
5
5
5
5
5
5
5
5
5
5
5
5
5
5
5
5
5
5
5
5
5
5
5
5
5
5
5
5
5
5
5
5
5
5
5

CELL_DATA 104
SCALARS cell_data_0 double
LOOKUP_TABLE default
4.21810186802e-06
8.28862881688e-08
1.66295955726e-07
3.10274467937e-07
9.45682345317e-08
8.41271565646e-08
2.18245366545e-07
3.61998225216e-07
9.71415549015e-08
5.95413028354e-07
3.36833675004e-07
9.05459230028e-07
1.18352854707e-06
2.57773506986e-07
8.29441690691e-09
2.91265972355e-09
1.12472150338e-08
1.09580200277e-10
1.47834269245e-08
1.07236343877e-09
6.77466213311e-09
5.10484464881e-09
7.22214279023e-09
1.95093633834e-08
4.01606535682e-09
2.10161768125e-09
2.78970097619e-09
8.72042621549e-10
9.74050861422e-09
1.04610608832e-08
9.4283684876e-10
3.86272713383e-09
7.16469696571e-10
4.82021537501e-08
2.81319921947e-08
6.8519419536e-08
1.33779853971e-08
1.6359171054e-08
3.18379460092e-08
9.8181961764e-09
6.70493592023e-09
2.84623325099e-09
5.81098610174e-08
4.46515518602e-08
2.04326674169e-08
4.72283240198e-08
9.06642612335e-08
4.03737688486e-07
1.73178960727e-07
3.22988914865e-07
2.22312901355e-07
3.3032786661e-07
2.34488672576e-07
5.20231682593e-07
5.18272044335e-08
2.03715202694e-08
2.67588905328e-07
7.79560406926e-08
7.10893330007e-08
2.22809217492e-08
3.92093710295e-07
4.28265726536e-08
4.22553338718e-07
9.29791800737e-08
2.0149127494e-07
5.10536092247e-07
2.232652461e-07
3.20584156144e-07
9.32964594477e-08
9.82173983658e-07
2.75748294665e-06
1.1643104105e-06
1.96811527799e-07
1.69040999517e-07
3.04283939526e-07
5.03673529803e-08
4.17112849295e-07
1.97681678076e-06
2.70736639188e-06
5.12831215863e-06
1.63596925295e-06
4.28939018945e-07
1.60719290752e-06
9.93064669842e-07
2.09681099312e-07
1.23189261199e-06
1.59606678425e-06
3.2347766631e-06
2.35324685771e-06
1.06822147993e-07
7.67208436032e-07
1.86409665623e-06
4.69138227558e-06
1.88219627866e-06
5.41662482496e-07
1.92480661397e-06
5.9836326898e-06
7.71192829876e-06
4.07052650338e-06
3.55181957268e-07
2.48574711138e-06
2.78653671468e-07
4.79567727474e-06
1.58665490951e-06

