# vtk DataFile Version 3.0
File Name: Molecule/methanol/methanol_1.0-0.vtk
ASCII
DATASET UNSTRUCTURED_GRID
FIELD FieldData 1
TIME 1 1 double
0.0
POINTS 45 double
1.611 0.0 -0.359
1.12 -1.191 -0.31
1.403 0.0 -0.933
0.956 -1.085 -0.888
-0.065 -1.684 -0.192
-0.124 -1.534 -0.781
-1.251 -1.191 -0.074
-1.204 -1.085 -0.673
-1.742 0.0 -0.025
-1.651 0.0 -0.629
-1.251 1.191 -0.074
-1.204 1.085 -0.673
-0.065 1.684 -0.192
-0.124 1.534 -0.781
1.12 1.191 -0.31
0.956 1.085 -0.888
1.907 0.0 0.656
1.546 1.109 0.656
1.546 0.555 1.616
1.546 -0.555 1.616
1.546 -1.109 0.656
0.602 1.452 1.711
0.602 0.555 2.363
0.602 -0.555 2.363
0.602 -1.452 1.711
0.602 -1.795 0.656
0.602 1.795 0.656
-0.564 1.452 1.711
-0.564 0.555 2.363
-0.564 -0.555 2.363
-0.564 -1.452 1.711
-0.564 -1.795 0.656
-0.564 1.795 0.656
-1.508 1.109 0.656
-1.508 0.555 1.616
-1.508 -0.555 1.616
-1.508 -1.109 0.656
-1.868 -0.0 0.656
0.966 -0.543 -1.677
-0.12 -0.768 -2.067
-0.12 0.267 -2.249
0.966 0.543 -1.677
-0.12 1.176 -1.724
-1.205 -0.543 -1.677
-1.205 0.543 -1.677

CELLS 86 344
3 0 1 2
3 2 1 3
3 1 4 3
3 3 4 5
3 4 6 5
3 5 6 7
3 6 8 7
3 7 8 9
3 8 10 9
3 9 10 11
3 10 12 11
3 11 12 13
3 12 14 13
3 13 14 15
3 14 0 15
3 15 0 2
3 16 17 18
3 16 18 19
3 16 19 20
3 18 17 21
3 18 21 22
3 18 22 23
3 19 18 23
3 19 23 24
3 20 19 24
3 20 24 25
3 17 26 21
3 21 26 27
3 21 27 28
3 22 21 28
3 22 28 29
3 23 22 29
3 24 23 29
3 24 29 30
3 24 30 31
3 25 24 31
3 26 32 27
3 27 32 33
3 27 33 34
3 28 27 34
3 28 34 35
3 29 28 35
3 30 29 35
3 30 35 36
3 31 30 36
3 34 33 37
3 35 34 37
3 36 35 37
3 36 37 8
3 36 8 6
3 36 6 31
3 31 6 4
3 31 4 25
3 25 4 1
3 25 1 20
3 20 1 0
3 20 0 16
3 16 0 17
3 17 0 14
3 17 14 26
3 26 14 12
3 26 12 32
3 32 12 10
3 32 10 33
3 33 10 8
3 33 8 37
3 38 39 40
3 41 38 40
3 41 40 42
3 40 39 43
3 40 43 44
3 42 40 44
3 42 44 11
3 42 11 13
3 42 13 15
3 42 15 41
3 41 15 2
3 41 2 38
3 38 2 3
3 38 3 39
3 39 3 5
3 39 5 43
3 43 5 7
3 43 7 9
3 43 9 44
3 44 9 11

CELL_TYPES 86
5
5
5
5
5
5
5
5
5
5
5
5
5
5
5
5
5
5
5
5
5
5
5
5
5
5
5
5
5
5
5
5
5
5
5
5
5
5
5
5
5
5
5
5
5
5
5
5
5
5
5
5
5
5
5
5
5
5
5
5
5
5
5
5
5
5
5
5
5
5
5
5
5
5
5
5
5
5
5
5
5
5
5
5
5
5

CELL_DATA 86
SCALARS cell_data_0 double
LOOKUP_TABLE default
2.25782156316e-05
7.69431900881e-06
4.87436969332e-09
3.04413581378e-07
7.28528919864e-07
1.4653393829e-06
2.64045652782e-07
3.88725242682e-07
1.2358386643e-07
5.4940658752e-07
4.09148921353e-07
6.00320124035e-07
6.47074012045e-07
1.00259789766e-06
5.61301937013e-06
1.20148910737e-05
5.64587632901e-07
3.63288576712e-08
8.07986381965e-07
9.49204616859e-08
4.75564114859e-08
8.08411020188e-08
4.48172814495e-07
1.32434390976e-07
2.34153048178e-07
7.94830697052e-07
9.6753064188e-08
1.00056433577e-07
5.02221818289e-08
3.4094822088e-08
4.68435337646e-08
1.06256814129e-07
3.75908163785e-08
1.43766273249e-07
2.15015773398e-07
1.67703570765e-08
3.83061481711e-08
8.48623652426e-08
9.96958417559e-08
1.11246991762e-07
1.40206100305e-07
5.02869035907e-08
1.19036072017e-07
7.75576101087e-08
3.99836117481e-08
8.94815681961e-08
2.68079674261e-08
8.46702856122e-08
3.07732215634e-08
5.51361202177e-07
2.12695257064e-07
8.30224869662e-07
1.7680276156e-07
1.9012024995e-07
7.76811362433e-07
5.14259289241e-06
9.29469176487e-07
1.63835733468e-06
1.54399030336e-06
3.5373971106e-07
2.88199443006e-07
5.91135432982e-09
5.06897472405e-07
2.92205072772e-08
7.57934748236e-07
1.0189415145e-07
4.97370527005e-06
2.70768799612e-05
5.00756712203e-06
7.72245249839e-06
7.39444494474e-07
7.05858823316e-06
2.57161054118e-06
4.1893611637e-07
2.09198588844e-06
5.07641104941e-07
3.04453161411e-05
0.000165481738029
2.9424932987e-05
3.69291337511e-07
3.72247827524e-06
5.38107720819e-06
5.78097440723e-06
1.6556834153e-06
3.14985479847e-06
2.03695687508e-06

