# vtk DataFile Version 3.0
File Name: Molecule/methanol/methanol_3.0-1.vtk
ASCII
DATASET UNSTRUCTURED_GRID
FIELD FieldData 1
TIME 1 1 double
0.0
POINTS 175 double
0.956 -1.085 -0.888
0.576 -1.556 -0.256
0.46 -1.418 -0.839
-0.065 -1.684 -0.192
-0.124 -1.534 -0.781
-0.707 -1.556 -0.128
-0.708 -1.418 -0.723
-1.251 -1.191 -0.074
-1.204 -1.085 -0.673
-1.614 -0.645 -0.038
-1.535 -0.587 -0.64
-1.742 0.0 -0.025
-1.651 0.0 -0.629
-1.614 0.645 -0.038
-1.535 0.587 -0.64
-1.251 1.191 -0.074
-1.204 1.085 -0.673
-0.707 1.556 -0.128
-0.708 1.418 -0.723
-0.065 1.684 -0.192
-0.124 1.534 -0.781
0.576 1.556 -0.256
0.46 1.418 -0.839
1.12 1.191 -0.31
0.956 1.085 -0.888
1.483 0.645 -0.346
1.287 0.587 -0.921
1.611 0.0 -0.359
1.403 0.0 -0.933
1.907 0.0 0.656
1.814 0.583 0.656
1.814 0.292 1.161
1.814 -0.292 1.161
1.814 -0.583 0.656
1.814 -0.292 0.15
1.814 0.292 0.15
1.546 0.933 1.255
1.546 0.461 1.665
1.546 -0.158 1.754
1.546 -0.727 1.494
1.546 -1.065 0.968
1.546 -1.065 0.343
1.546 0.933 0.056
1.546 1.109 0.656
1.128 1.411 1.24
1.128 1.08 1.735
1.128 0.584 2.066
1.128 -0.0 2.183
1.128 -0.584 2.066
1.128 -1.08 1.735
1.128 -1.411 1.24
1.128 -1.527 0.656
1.128 -1.411 0.071
1.128 1.411 0.071
1.128 1.527 0.656
0.602 1.698 1.238
0.602 1.417 1.758
0.602 0.982 2.158
0.602 0.441 2.396
0.602 -0.148 2.445
0.602 -0.721 2.3
0.602 -1.216 1.976
0.602 -1.579 1.51
0.602 -1.771 0.951
0.602 -1.771 0.36
0.602 1.698 0.073
0.602 1.795 0.656
0.019 1.795 1.239
0.019 1.527 1.765
0.019 1.109 2.183
0.019 0.583 2.451
0.019 -0.0 2.543
0.019 -0.583 2.451
0.019 -1.109 2.183
0.019 -1.527 1.765
0.019 -1.795 1.239
0.019 -1.888 0.656
0.019 1.888 0.656
-0.564 1.795 0.656
-0.564 1.698 1.238
-0.564 1.417 1.758
-0.564 0.982 2.158
-0.564 0.441 2.396
-0.564 -0.148 2.445
-0.564 -0.721 2.3
-0.564 -1.216 1.976
-0.564 -1.579 1.51
-0.564 -1.771 0.951
-0.564 -1.771 0.36
-1.09 1.527 0.656
-1.09 1.411 1.24
-1.09 1.08 1.735
-1.09 0.584 2.066
-1.09 -0.0 2.183
-1.09 -0.584 2.066
-1.09 -1.08 1.735
-1.09 -1.411 1.24
-1.09 -1.527 0.656
-1.508 1.109 0.656
-1.508 0.933 1.255
-1.508 0.461 1.665
-1.508 -0.158 1.754
-1.508 -0.727 1.494
-1.508 -1.065 0.968
-1.508 -1.065 0.343
-1.776 0.583 0.656
-1.776 0.292 1.161
-1.776 -0.292 1.161
-1.776 -0.583 0.656
-1.868 -0.0 0.656
1.12 -1.191 -0.31
0.966 0.913 -1.324
0.966 0.451 -1.725
0.468 0.884 -1.846
0.468 1.278 -1.353
0.468 -1.278 -1.353
-0.12 -1.418 -1.325
-0.12 -1.085 -1.823
0.468 -0.884 -1.846
-0.12 -0.587 -2.155
0.468 -0.316 -2.12
-0.12 0.0 -2.272
0.468 0.316 -2.12
-0.12 0.587 -2.155
-0.12 1.085 -1.823
-0.12 1.418 -1.325
-0.707 -1.278 -1.353
-0.707 -0.884 -1.846
-0.707 -0.316 -2.12
-0.707 0.316 -2.12
-0.707 0.884 -1.846
-0.707 1.278 -1.353
-1.205 -1.041 -1.043
-1.205 -0.711 -1.557
-1.205 -0.154 -1.812
-1.205 0.451 -1.725
-1.205 0.913 -1.324
-1.538 -0.294 -1.246
-1.538 0.294 -1.246
1.298 0.294 -1.246
1.483 -0.645 -0.346
1.443 -0.3225 -0.6395
1.345 -0.2935 -0.927
1.385 -0.616 -0.6335
1.287 -0.587 -0.921
1.3015 -0.918 -0.328
1.2035 -0.889 -0.6155
1.1215 -0.836 -0.9045
1.038 -1.138 -0.599
1.68 -0.6785 0.2465
1.333 -1.128 0.0165
1.5145 -0.855 -0.0015
1.6485 -0.4685 -0.098
1.298 -0.294 -1.246
1.132 -0.5025 -1.4015
1.132 -0.224 -1.529
0.966 -0.4325 -1.6845
0.966 -0.711 -1.557
0.966 -0.154 -1.812
1.298 0.0 -1.246
1.132 0.07 -1.529
1.132 0.3725 -1.4855
0.966 0.1485 -1.7685
0.717 -0.9945 -1.455
0.717 -0.5135 -1.8385
0.717 -0.235 -1.966
0.717 0.081 -1.966
0.468 0.0 -2.12
0.717 0.3835 -1.9225
1.3505 0.147 -1.0895
1.3505 -0.147 -1.0895
1.2925 -0.4405 -1.0835
1.1265 -0.649 -1.239
0.961 -0.898 -1.2225
0.712 -1.1815 -1.1205

CELLS 346 1384
3 0 1 2
3 1 3 2
3 2 3 4
3 3 5 4
3 4 5 6
3 5 7 6
3 6 7 8
3 7 9 8
3 8 9 10
3 9 11 10
3 10 11 12
3 11 13 12
3 12 13 14
3 13 15 14
3 14 15 16
3 15 17 16
3 16 17 18
3 17 19 18
3 18 19 20
3 19 21 20
3 20 21 22
3 21 23 22
3 22 23 24
3 23 25 24
3 24 25 26
3 25 27 26
3 26 27 28
3 29 30 31
3 29 31 32
3 29 32 33
3 29 33 34
3 29 34 35
3 29 35 30
3 31 30 36
3 31 36 37
3 31 37 38
3 32 31 38
3 32 38 39
3 32 39 40
3 33 32 40
3 33 40 41
3 30 35 42
3 30 42 43
3 30 43 36
3 36 43 44
3 36 44 45
3 37 36 45
3 37 45 46
3 37 46 47
3 38 37 47
3 38 47 48
3 39 38 48
3 39 48 49
3 39 49 50
3 40 39 50
3 40 50 51
3 41 40 51
3 41 51 52
3 43 42 53
3 43 53 54
3 43 54 44
3 44 54 55
3 44 55 56
3 45 44 56
3 45 56 57
3 46 45 57
3 46 57 58
3 47 46 58
3 47 58 59
3 48 47 59
3 48 59 60
3 48 60 61
3 49 48 61
3 49 61 62
3 50 49 62
3 50 62 63
3 51 50 63
3 51 63 64
3 52 51 64
3 54 53 65
3 54 65 66
3 54 66 55
3 55 66 67
3 55 67 68
3 56 55 68
3 56 68 69
3 57 56 69
3 57 69 70
3 58 57 70
3 58 70 71
3 59 58 71
3 59 71 72
3 60 59 72
3 60 72 73
3 61 60 73
3 61 73 74
3 62 61 74
3 62 74 75
3 63 62 75
3 63 75 76
3 64 63 76
3 66 77 67
3 67 77 78
3 67 78 79
3 68 67 79
3 68 79 80
3 69 68 80
3 69 80 81
3 70 69 81
3 70 81 82
3 71 70 82
3 71 82 83
3 72 71 83
3 72 83 84
3 73 72 84
3 73 84 85
3 74 73 85
3 74 85 86
3 75 74 86
3 75 86 87
3 76 75 87
3 76 87 88
3 79 78 89
3 79 89 90
3 80 79 90
3 80 90 91
3 81 80 91
3 81 91 92
3 82 81 92
3 82 92 93
3 83 82 93
3 83 93 94
3 84 83 94
3 85 84 94
3 85 94 95
3 86 85 95
3 86 95 96
3 87 86 96
3 87 96 97
3 88 87 97
3 90 89 98
3 90 98 99
3 91 90 99
3 91 99 100
3 92 91 100
3 93 92 100
3 93 100 101
3 94 93 101
3 94 101 102
3 95 94 102
3 96 95 102
3 96 102 103
3 97 96 103
3 97 103 104
3 99 98 105
3 99 105 106
3 100 99 106
3 101 100 106
3 101 106 107
3 102 101 107
3 103 102 107
3 103 107 108
3 104 103 108
3 106 105 109
3 107 106 109
3 108 107 109
3 108 109 11
3 108 11 9
3 108 9 104
3 104 9 7
3 104 7 97
3 97 7 5
3 97 5 88
3 88 5 3
3 88 3 76
3 76 3 64
3 64 3 1
3 64 1 52
3 52 1 110
3 34 27 35
3 35 27 25
3 35 25 42
3 42 25 23
3 42 23 53
3 53 23 21
3 53 21 65
3 65 21 19
3 65 19 77
3 65 77 66
3 77 19 78
3 78 19 17
3 78 17 89
3 89 17 15
3 89 15 98
3 98 15 13
3 98 13 105
3 105 13 11
3 105 11 109
3 111 112 113
3 111 113 114
3 115 116 117
3 118 115 117
3 118 117 119
3 120 118 119
3 120 119 121
3 122 121 123
3 113 122 123
3 113 123 124
3 114 113 124
3 114 124 125
3 117 116 126
3 117 126 127
3 119 117 127
3 119 127 128
3 121 119 128
3 121 128 129
3 123 121 129
3 123 129 130
3 124 123 130
3 124 130 131
3 125 124 131
3 126 132 133
3 127 126 133
3 128 127 133
3 128 133 134
3 129 128 134
3 129 134 135
3 130 129 135
3 130 135 136
3 131 130 136
3 133 132 137
3 134 133 137
3 134 137 138
3 135 134 138
3 136 135 138
3 136 138 14
3 136 14 16
3 136 16 131
3 131 16 18
3 131 18 125
3 125 18 20
3 125 20 22
3 125 22 114
3 114 22 24
3 114 24 111
3 111 24 26
3 111 26 139
3 115 2 116
3 116 2 4
3 116 4 6
3 116 6 126
3 126 6 132
3 132 6 8
3 132 8 10
3 132 10 137
3 137 10 12
3 137 12 138
3 138 12 14
3 140 141 27
3 27 141 28
3 28 141 142
3 141 143 142
3 141 140 143
3 142 143 144
3 140 145 143
3 145 146 143
3 145 110 146
3 143 146 144
3 144 146 147
3 146 148 147
3 146 110 148
3 147 148 0
3 0 148 1
3 110 148 1
3 41 149 33
3 34 149 33
3 110 150 52
3 52 150 41
3 41 150 151
3 150 145 151
3 150 110 145
3 151 145 140
3 41 151 149
3 151 152 149
3 151 140 152
3 149 152 34
3 34 152 27
3 152 140 27
3 153 154 155
3 154 156 155
3 154 157 156
3 155 156 158
3 139 159 160
3 159 155 160
3 159 153 155
3 160 155 158
3 139 160 161
3 160 162 161
3 160 158 162
3 161 162 112
3 139 161 111
3 161 112 111
3 157 163 118
3 163 115 118
3 120 164 118
3 157 164 118
3 158 156 165
3 156 164 165
3 156 157 164
3 165 164 120
3 158 165 166
3 165 167 166
3 165 120 167
3 166 167 122
3 112 162 168
3 162 166 168
3 162 158 166
3 168 166 122
3 112 168 113
3 168 122 113
3 122 167 121
3 167 120 121
3 28 169 26
3 139 169 26
3 139 169 159
3 169 170 159
3 169 28 170
3 159 170 153
3 153 170 171
3 170 142 171
3 170 28 142
3 171 142 144
3 153 171 154
3 171 172 154
3 171 144 172
3 154 172 157
3 157 172 173
3 172 147 173
3 172 144 147
3 173 147 0
3 157 173 163
3 173 174 163
3 173 0 174
3 163 174 115
3 115 174 2
3 174 0 2

CELL_TYPES 346
5
5
5
5
5
5
5
5
5
5
5
5
5
5
5
5
5
5
5
5
5
5
5
5
5
5
5
5
5
5
5
5
5
5
5
5
5
5
5
5
5
5
5
5
5
5
5
5
5
5
5
5
5
5
5
5
5
5
5
5
5
5
5
5
5
5
5
5
5
5
5
5
5
5
5
5
5
5
5
5
5
5
5
5
5
5
5
5
5
5
5
5
5
5
5
5
5
5
5
5
5
5
5
5
5
5
5
5
5
5
5
5
5
5
5
5
5
5
5
5
5
5
5
5
5
5
5
5
5
5
5
5
5
5
5
5
5
5
5
5
5
5
5
5
5
5
5
5
5
5
5
5
5
5
5
5
5
5
5
5
5
5
5
5
5
5
5
5
5
5
5
5
5
5
5
5
5
5
5
5
5
5
5
5
5
5
5
5
5
5
5
5
5
5
5
5
5
5
5
5
5
5
5
5
5
5
5
5
5
5
5
5
5
5
5
5
5
5
5
5
5
5
5
5
5
5
5
5
5
5
5
5
5
5
5
5
5
5
5
5
5
5
5
5
5
5
5
5
5
5
5
5
5
5
5
5
5
5
5
5
5
5
5
5
5
5
5
5
5
5
5
5
5
5
5
5
5
5
5
5
5
5
5
5
5
5
5
5
5
5
5
5
5
5
5
5
5
5
5
5
5
5
5
5
5
5
5
5
5
5
5
5
5
5
5
5
5
5
5
5
5
5
5
5
5
5
5
5
5
5
5
5
5
5
5
5
5
5
5
5
5
5
5
5
5
5

CELL_DATA 346
SCALARS cell_data_0 double
LOOKUP_TABLE default
3.81089256431e-06
5.56504388797e-06
1.99050503405e-06
4.25205018416e-06
8.64966920863e-07
3.15113790048e-06
8.85747561687e-08
2.20300334513e-06
7.79323039291e-07
1.27299786999e-06
1.42148078856e-06
2.07562591226e-07
2.01916731668e-06
1.04875228617e-06
2.54967231835e-06
2.31303630428e-06
2.45862465411e-06
1.97788234665e-06
3.90332708413e-07
7.96246301025e-06
8.59467992619e-06
2.87641144799e-05
1.41129943162e-05
1.01435445924e-05
6.47258697203e-07
3.35261267402e-07
1.07676771703e-06
2.73038227665e-08
7.17541332953e-08
1.61654202285e-08
1.04059514952e-07
1.26978239078e-07
5.66188567052e-08
3.70273316753e-08
1.13788363575e-08
1.41502081565e-08
8.22853281248e-08
3.01933208926e-08
1.04810334008e-09
5.76467281229e-09
5.1166651036e-08
8.8499555888e-08
1.33455145739e-08
1.75634936684e-08
6.94819510231e-08
3.75113841614e-08
3.59995055085e-08
5.86500860796e-08
1.12852175175e-07
7.57513292768e-08
8.00122250162e-08
6.79473805397e-08
7.84603481961e-08
7.94817946897e-08
7.66758276921e-08
5.69221176299e-08
3.47547090075e-08
5.28933123188e-08
1.07031054992e-07
1.94508044485e-07
1.65520675151e-07
2.39711095523e-07
1.7090863401e-07
8.34966635492e-08
2.33264618097e-08
5.37532575264e-08
1.00828311428e-07
1.55469882646e-07
1.79428245924e-07
1.53686015246e-07
1.75653292328e-07
1.14424453177e-07
5.63745253553e-08
8.27381403542e-08
9.69687861379e-08
8.30758192695e-08
4.54978716515e-08
6.78789048971e-08
1.60458739845e-07
3.73507520985e-07
4.18469396151e-07
3.31687685546e-07
3.59561212245e-07
2.57076037138e-07
1.77787038332e-07
8.59989558614e-08
2.30206963797e-08
6.05666498213e-08
1.12817339412e-07
1.85102188241e-07
2.13582024184e-07
2.56306575752e-07
2.56736688096e-07
2.77167628924e-07
1.90467972502e-07
2.08744490638e-07
1.63947050446e-07
1.75979939679e-07
8.950328947e-08
3.35911401759e-08
1.69049304136e-07
4.61618480719e-07
5.0065644538e-07
4.27916887699e-07
2.85392653677e-07
2.30959084143e-07
1.10635658894e-07
6.76879653945e-08
4.05305096407e-08
7.3533452925e-08
1.68360649901e-07
1.96342069172e-07
2.65153950147e-07
2.59739263432e-07
2.65506874845e-07
2.26461514634e-07
2.54889127549e-07
2.36439953274e-07
2.16121635621e-07
1.15964733483e-07
5.46904989875e-08
2.57604671329e-07
5.10917709091e-07
4.35050942249e-07
2.85539922218e-07
2.07667521087e-07
1.0449594369e-07
1.06447347866e-08
5.18278412341e-08
1.50915226508e-07
1.84416033187e-07
2.63029924706e-07
2.54090874525e-07
2.17570051618e-07
2.22038297129e-07
2.08684753604e-07
1.92617267432e-07
1.00342262904e-07
9.73182723564e-08
2.84347923361e-07
4.80370243537e-07
3.3531513509e-07
1.68828372807e-07
2.16423421325e-08
6.99012934713e-08
1.62929736025e-07
1.42352673334e-07
1.65284541686e-07
1.45232769426e-07
2.28273459663e-07
1.7967873568e-07
9.14861296375e-08
9.8908470117e-08
2.62757431621e-07
1.83570309429e-07
2.29161963314e-08
8.37283748111e-08
7.91185573279e-08
6.40893808147e-09
1.67401077183e-09
3.37657163749e-08
1.06162256209e-06
1.31067287651e-06
4.5530514388e-06
4.63857475896e-06
7.76289063171e-06
7.98355382417e-06
2.10121686213e-06
9.79902801741e-07
1.95092214598e-06
8.79918052743e-07
4.56900898499e-06
1.03694429991e-06
3.12897823027e-06
1.429144229e-06
1.83023376781e-06
4.60192620574e-06
1.38711441247e-06
3.14308853772e-06
1.34637467909e-07
1.56205197421e-07
1.86606937111e-07
7.45046471877e-06
7.6192924878e-06
1.65734636189e-05
3.18660947077e-06
3.87993105793e-06
6.67246723613e-07
5.45729826301e-07
5.89670647585e-07
8.06610007372e-07
7.17604587132e-09
3.20837403119e-07
2.57901727268e-07
1.07002462771e-06
7.10219276771e-07
2.74379914291e-06
5.39879568555e-06
6.66082019418e-06
3.3026285783e-06
1.90564045752e-06
1.41882551018e-06
1.70716284173e-06
2.22603466847e-06
4.22843224949e-06
2.07313634294e-06
2.22956922959e-06
3.53035930845e-06
3.6736015262e-06
3.0181636737e-06
1.49342537276e-06
2.25720955079e-06
2.92671372243e-06
2.6952825438e-06
3.20004290718e-06
2.75880686295e-06
3.03565734215e-06
2.51663044172e-06
2.74656784479e-06
2.53534434821e-06
2.67612490138e-06
2.1221130062e-05
2.05998422107e-05
2.09610124469e-05
3.0687587492e-05
1.4073010699e-06
8.66706044427e-07
9.4276881601e-07
2.31860042819e-05
1.15648148915e-05
3.2527447124e-05
4.28539788402e-05
1.32610977675e-05
1.53177011608e-05
4.45545056857e-05
4.33571105388e-05
2.14404887145e-05
1.70607935841e-05
2.32886996715e-06
8.57437373627e-07
1.46112473534e-06
8.72107446688e-07
1.60972908206e-07
1.39173272005e-07
1.01439120643e-06
1.43061603631e-07
1.71641441158e-06
1.15326344861e-06
4.25409700173e-07
5.35507396017e-07
2.76220083079e-07
1.40917201925e-07
5.08907441523e-07
8.1049020459e-07
2.65312065518e-06
1.20683974518e-06
8.05270310567e-06
4.46985611849e-06
1.38942273915e-06
9.23244377771e-07
1.5538192222e-07
4.27640508501e-07
2.12462872945e-07
2.92635153318e-07
3.21689869202e-07
1.86928506917e-08
5.59679596897e-07
1.20010695436e-07
1.00474140051e-07
2.57419644347e-08
3.50589176179e-07
1.23175757919e-07
1.45269405121e-06
2.28043375246e-06
2.23071239539e-08
4.15535345906e-09
4.38603686951e-06
5.78797134946e-06
1.1930942698e-05
1.09771900962e-05
3.48664803978e-06
1.93316657264e-06
3.61842756216e-06
1.75436176455e-05
1.36960511081e-05
8.75291845275e-06
1.03400355234e-05
7.65335729538e-06
3.78608220471e-06
3.03174809247e-06
1.08215503485e-06
1.72089546282e-06
8.59091468491e-06
7.50310190193e-06
7.73608448889e-06
6.17435297513e-06
6.42571692049e-06
2.56921800884e-07
3.44410542003e-06
2.44540109958e-06
3.94204422916e-06
1.83432755703e-06
1.96277780693e-07
2.18519520037e-07
3.54888325595e-07
5.85120159478e-08
9.68266655852e-07
6.99467070979e-08
4.89669738788e-07
3.58120909429e-09
9.26700418508e-07
1.23214424441e-07
1.23272528551e-07
1.66074335766e-07
1.03970323668e-06
2.68084782077e-07
1.71261266916e-06
1.44031748457e-07
1.30217612343e-06
3.32038898211e-07
5.20101862853e-07
1.26848482631e-06
3.22491625498e-06
3.12958550594e-06
2.93153808293e-06
3.72711086074e-07
2.05027541674e-06
2.7706948843e-06
1.98946223257e-06
1.34306136181e-06
1.76065366103e-06
9.35875781948e-07
2.68239612362e-06
7.09916632607e-07
1.17978200228e-06
9.68436536326e-07
5.4107903463e-07
1.66808415173e-07
8.83331340148e-07
2.77613768491e-08
4.6596558572e-08
1.01493366609e-07
1.75224372489e-07
1.95909796682e-07
4.45834397273e-07
5.33748886959e-07

