# vtk DataFile Version 3.0
File Name: Molecule/methanol/methanol_1.0-4.vtk
ASCII
DATASET UNSTRUCTURED_GRID
FIELD FieldData 1
TIME 1 1 double
0.0
POINTS 59 double
1.611 0.0 -0.359
1.12 -1.191 -0.31
1.403 0.0 -0.933
-0.065 -1.684 -0.192
0.956 -1.085 -0.888
-0.124 -1.534 -0.781
-1.251 -1.191 -0.074
-1.204 -1.085 -0.673
-1.742 0.0 -0.025
-1.651 0.0 -0.629
-1.251 1.191 -0.074
-1.204 1.085 -0.673
-0.065 1.684 -0.192
-0.124 1.534 -0.781
1.12 1.191 -0.31
0.956 1.085 -0.888
1.907 0.0 0.656
1.546 1.109 0.656
1.546 0.555 1.616
1.546 -0.555 1.616
1.546 -1.109 0.656
0.602 1.452 1.711
0.602 0.555 2.363
0.602 -0.555 2.363
0.602 -1.452 1.711
0.602 -1.795 0.656
0.602 1.795 0.656
-0.564 1.452 1.711
-0.564 0.555 2.363
-0.564 -0.555 2.363
-0.564 -1.452 1.711
-0.564 -1.795 0.656
-0.564 1.795 0.656
-1.508 1.109 0.656
-1.508 0.555 1.616
-1.508 -0.555 1.616
-1.508 -1.109 0.656
-1.868 -0.0 0.656
-0.12 0.267 -2.249
-0.12 -0.768 -2.067
-1.205 -0.543 -1.677
-1.205 0.543 -1.677
-0.12 1.176 -1.724
1.1795 -0.5425 -0.9105
0.966 -0.543 -1.677
1.1845 -0.2715 -1.305
0.961 -0.814 -1.2825
1.1795 0.5425 -0.9105
0.961 0.814 -1.2825
0.966 0.543 -1.677
1.1845 0.2715 -1.305
0.423 -0.138 -1.963
0.423 0.405 -1.963
0.966 0.0 -1.677
0.966 0.2715 -1.677
0.6945 0.474 -1.82
0.6945 0.2025 -1.82
0.6945 -0.069 -1.82
0.423 0.1335 -1.963

CELLS 114 456
3 0 1 2
3 1 3 4
3 4 3 5
3 3 6 5
3 5 6 7
3 6 8 7
3 7 8 9
3 8 10 9
3 9 10 11
3 10 12 11
3 11 12 13
3 12 14 13
3 13 14 15
3 14 0 15
3 16 17 18
3 16 18 19
3 16 19 20
3 18 17 21
3 18 21 22
3 18 22 23
3 19 18 23
3 19 23 24
3 20 19 24
3 20 24 25
3 17 26 21
3 21 26 27
3 21 27 28
3 22 21 28
3 22 28 29
3 23 22 29
3 24 23 29
3 24 29 30
3 24 30 31
3 25 24 31
3 26 32 27
3 27 32 33
3 27 33 34
3 28 27 34
3 28 34 35
3 29 28 35
3 30 29 35
3 30 35 36
3 31 30 36
3 34 33 37
3 35 34 37
3 36 35 37
3 36 37 8
3 36 8 6
3 36 6 31
3 31 6 3
3 31 3 25
3 25 3 1
3 25 1 20
3 20 1 0
3 20 0 16
3 16 0 17
3 17 0 14
3 17 14 26
3 26 14 12
3 26 12 32
3 32 12 10
3 32 10 33
3 33 10 8
3 33 8 37
3 38 39 40
3 38 40 41
3 42 38 41
3 42 41 11
3 42 11 13
3 42 13 15
3 39 4 5
3 39 5 40
3 40 5 7
3 40 7 9
3 40 9 41
3 41 9 11
3 4 43 1
3 1 43 2
3 44 45 46
3 45 43 46
3 45 2 43
3 46 43 4
3 44 46 39
3 46 4 39
3 2 47 0
3 0 47 15
3 15 48 42
3 42 48 49
3 49 48 50
3 48 47 50
3 48 15 47
3 50 47 2
3 49 50 45
3 45 50 2
3 38 51 39
3 39 51 44
3 52 38 42
3 44 53 45
3 49 54 55
3 54 56 55
3 54 53 56
3 55 56 52
3 53 57 56
3 57 58 56
3 57 51 58
3 56 58 52
3 51 57 44
3 44 57 53
3 52 58 38
3 58 51 38
3 49 55 42
3 55 52 42
3 53 54 45
3 45 54 49

CELL_TYPES 114
5
5
5
5
5
5
5
5
5
5
5
5
5
5
5
5
5
5
5
5
5
5
5
5
5
5
5
5
5
5
5
5
5
5
5
5
5
5
5
5
5
5
5
5
5
5
5
5
5
5
5
5
5
5
5
5
5
5
5
5
5
5
5
5
5
5
5
5
5
5
5
5
5
5
5
5
5
5
5
5
5
5
5
5
5
5
5
5
5
5
5
5
5
5
5
5
5
5
5
5
5
5
5
5
5
5
5
5
5
5
5
5
5
5

CELL_DATA 114
SCALARS cell_data_0 double
LOOKUP_TABLE default
4.21891613971e-06
8.15675292239e-08
1.67545404054e-07
3.1030232962e-07
9.47442232981e-08
8.57372417896e-08
2.19575061335e-07
3.61332961639e-07
9.27945260478e-08
5.93191289662e-07
3.35660004322e-07
8.98648111936e-07
1.17112353663e-06
2.61620010204e-07
8.10241021419e-09
3.12860844187e-09
1.10379845435e-08
4.31705003624e-11
1.46888906287e-08
1.10281904545e-09
6.8028019004e-09
4.95503678817e-09
7.45856140556e-09
1.95485784974e-08
3.93046503112e-09
2.12644507021e-09
2.87393422511e-09
8.99483482175e-10
9.80790563262e-09
1.05260067285e-08
9.8101680688e-10
3.76289384475e-09
2.71283857316e-10
4.81367548478e-08
2.76763365454e-08
6.81901858403e-08
1.31218410869e-08
1.63231596564e-08
3.17525288545e-08
9.82488358429e-09
6.62056161505e-09
3.13189319881e-09
5.88029486414e-08
4.50555350021e-08
2.05467670341e-08
4.70884380322e-08
9.05879710074e-08
4.02182709897e-07
1.73107005341e-07
3.23022350445e-07
2.22518805794e-07
3.3056291433e-07
2.34598081621e-07
5.20294157868e-07
5.17275416684e-08
2.01008270841e-08
2.68246900851e-07
7.79421639477e-08
7.07141613028e-08
2.2151760986e-08
3.94884065641e-07
4.21992477137e-08
4.21140639509e-07
9.29112470472e-08
1.95403392213e-07
4.81557435656e-07
1.93779435515e-07
3.09792295542e-07
8.50336100568e-08
9.45804246238e-07
2.75865277875e-06
1.15951141154e-06
1.90900436858e-07
1.68939498642e-07
2.95606991227e-07
3.94582280817e-08
4.17107176593e-07
1.97351579256e-06
2.77414661351e-06
5.16983454482e-06
1.65630411695e-06
4.29175099116e-07
1.58535157936e-06
9.89686473729e-07
2.09731949105e-07
1.23239876077e-06
1.69313591191e-06
3.21705995091e-06
2.43764634864e-06
1.00613664507e-07
7.56879029421e-07
1.87320874914e-06
4.08061212844e-06
1.76463372028e-06
5.55901320955e-07
1.93531692853e-06
4.70893989462e-07
4.70253241502e-06
2.60979956588e-08
3.02026282095e-07
1.52852651752e-08
2.93434747267e-07
1.33122760832e-07
1.72446801127e-08
6.07162048755e-07
3.12630421555e-07
5.26611744541e-07
4.9494580512e-07
5.25788049726e-08
1.83214600163e-07
2.96745762969e-07
2.79915100248e-07
2.25485877215e-06
3.83064182891e-06

