# vtk DataFile Version 3.0
File Name: Molecule/methanol/methanol_6.0-1.vtk
ASCII
DATASET UNSTRUCTURED_GRID
FIELD FieldData 1
TIME 1 1 double
0.0
POINTS 349 double
1.611 0.0 -0.359
1.554 -0.436 -0.353
1.403 0.0 -0.933
1.198 -0.767 -0.912
1.12 -1.191 -0.31
0.956 -1.085 -0.888
0.773 -1.459 -0.275
0.639 -1.329 -0.857
0.368 -1.627 -0.235
0.271 -1.482 -0.82
-0.065 -1.684 -0.192
-0.124 -1.534 -0.781
-0.499 -1.627 -0.149
-0.519 -1.482 -0.741
-0.903 -1.459 -0.108
-0.887 -1.329 -0.705
-1.251 -1.191 -0.074
-1.204 -1.085 -0.673
-1.517 -0.842 -0.047
-1.446 -0.767 -0.649
-1.684 -0.436 -0.031
-1.599 -0.397 -0.634
-1.742 0.0 -0.025
-1.651 0.0 -0.629
-1.684 0.436 -0.031
-1.599 0.397 -0.634
-1.517 0.842 -0.047
-1.446 0.767 -0.649
-1.251 1.191 -0.074
-1.204 1.085 -0.673
-0.903 1.459 -0.108
-0.887 1.329 -0.705
-0.499 1.627 -0.149
-0.519 1.482 -0.741
-0.065 1.684 -0.192
-0.124 1.534 -0.781
0.368 1.627 -0.235
0.271 1.482 -0.82
0.773 1.459 -0.275
0.639 1.329 -0.857
1.12 1.191 -0.31
0.956 1.085 -0.888
1.386 0.842 -0.336
1.198 0.767 -0.912
1.907 0.0 0.656
1.859 0.42 0.656
1.859 0.21 1.019
1.859 -0.21 1.019
1.859 -0.42 0.656
1.859 -0.21 0.292
1.859 0.21 0.292
1.72 0.709 1.065
1.72 0.409 1.365
1.72 -0.0 1.475
1.72 -0.409 1.365
1.72 -0.709 1.065
1.72 -0.0 -0.163
1.72 0.409 -0.054
1.72 0.709 0.246
1.72 0.819 0.656
1.495 1.106 1.058
1.495 0.902 1.412
1.495 0.588 1.675
1.495 0.204 1.815
1.495 -0.204 1.815
1.495 -0.588 1.675
1.495 -0.902 1.412
1.495 -1.106 1.058
1.72 -0.819 0.656
1.495 0.902 -0.101
1.495 1.106 0.253
1.495 1.177 0.656
1.196 1.416 1.071
1.196 1.241 1.453
1.196 0.966 1.771
1.196 0.613 1.998
1.196 0.21 2.116
1.196 -0.21 2.116
1.196 -0.613 1.998
1.196 -0.966 1.771
1.196 -1.241 1.453
1.196 -1.416 1.071
1.495 -1.177 0.656
1.196 -1.476 0.656
1.196 1.416 0.24
1.196 1.476 0.656
0.838 1.651 1.063
0.838 1.506 1.446
0.838 1.273 1.783
0.838 0.966 2.055
0.838 0.603 2.246
0.838 0.205 2.344
0.838 -0.205 2.344
0.838 -0.603 2.246
0.838 -0.966 2.055
0.838 -1.273 1.783
0.838 -1.506 1.446
0.838 -1.651 1.063
0.838 -1.701 0.656
0.838 -1.651 0.249
1.196 -1.416 0.24
0.838 1.651 0.249
0.838 1.701 0.656
0.439 1.794 1.065
0.439 1.658 1.454
0.439 1.439 1.803
0.439 1.147 2.094
0.439 0.798 2.314
0.439 0.409 2.45
0.439 0.0 2.496
0.439 -0.409 2.45
0.439 -0.798 2.314
0.439 -1.147 2.094
0.439 -1.439 1.803
0.439 -1.658 1.454
0.439 -1.794 1.065
0.439 -1.84 0.656
0.439 -1.794 0.246
0.439 1.794 0.246
0.439 1.84 0.656
0.019 1.843 1.061
0.019 1.713 1.448
0.019 1.503 1.798
0.019 1.222 2.094
0.019 0.884 2.323
0.019 0.505 2.474
0.019 0.102 2.54
0.019 -0.305 2.518
0.019 -0.699 2.409
0.019 -1.059 2.218
0.019 -1.37 1.954
0.019 -1.617 1.629
0.019 -1.789 1.258
0.019 -1.876 0.86
0.019 -1.876 0.452
0.019 -1.789 0.053
0.019 1.843 0.25
0.019 1.888 0.656
-0.401 1.84 0.656
-0.401 1.794 1.065
-0.401 1.658 1.454
-0.401 1.439 1.803
-0.401 1.147 2.094
-0.401 0.798 2.314
-0.401 0.409 2.45
-0.401 0.0 2.496
-0.401 -0.409 2.45
-0.401 -0.798 2.314
-0.401 -1.147 2.094
-0.401 -1.439 1.803
-0.401 -1.658 1.454
-0.401 -1.794 1.065
-0.401 -1.84 0.656
-0.401 -1.794 0.246
-0.401 1.794 0.246
-0.8 1.701 0.656
-0.8 1.651 1.063
-0.8 1.506 1.446
-0.8 1.273 1.783
-0.8 0.966 2.055
-0.8 0.603 2.246
-0.8 0.205 2.344
-0.8 -0.205 2.344
-0.8 -0.603 2.246
-0.8 -0.966 2.055
-0.8 -1.273 1.783
-0.8 -1.506 1.446
-0.8 -1.651 1.063
-0.8 -1.701 0.656
-0.8 -1.651 0.249
-0.8 1.651 0.249
-1.158 1.476 0.656
-1.158 1.416 1.071
-1.158 1.241 1.453
-1.158 0.966 1.771
-1.158 0.613 1.998
-1.158 0.21 2.116
-1.158 -0.21 2.116
-1.158 -0.613 1.998
-1.158 -0.966 1.771
-1.158 -1.241 1.453
-1.158 -1.416 1.071
-1.158 -1.476 0.656
-1.158 -1.416 0.24
-1.158 1.416 0.24
-1.457 1.177 0.656
-1.457 1.106 1.058
-1.457 0.902 1.412
-1.457 0.588 1.675
-1.457 0.204 1.815
-1.457 -0.204 1.815
-1.457 -0.588 1.675
-1.457 -0.902 1.412
-1.457 -1.106 1.058
-1.457 -1.177 0.656
-1.457 -1.106 0.253
-1.457 1.106 0.253
-1.682 0.819 0.656
-1.682 0.709 1.065
-1.682 0.409 1.365
-1.682 -0.0 1.475
-1.682 -0.409 1.365
-1.682 -0.709 1.065
-1.682 -0.819 0.656
-1.682 -0.709 0.246
-1.682 0.709 0.246
-1.821 0.42 0.656
-1.821 0.21 1.019
-1.821 -0.21 1.019
-1.821 -0.42 0.656
-1.821 -0.21 0.292
-1.821 0.21 0.292
-1.868 -0.0 0.656
1.554 0.436 -0.353
1.172 -0.415 -1.456
0.886 -0.699 -1.663
0.886 -0.317 -1.853
1.172 -0.0 -1.567
1.172 0.415 -1.456
0.886 0.107 -1.892
0.886 0.517 -1.776
0.886 0.857 -1.519
1.172 0.719 -1.152
0.886 1.082 -1.156
0.518 0.431 -2.065
0.518 0.821 -1.867
0.518 1.13 -1.558
0.518 1.328 -1.169
0.518 -1.328 -1.169
0.099 -1.458 -1.165
0.099 -1.278 -1.559
0.518 -1.13 -1.558
0.099 -0.995 -1.885
0.518 -0.821 -1.867
0.518 -0.431 -2.065
0.099 -0.631 -2.119
0.099 -0.216 -2.241
0.099 0.631 -2.119
0.099 0.995 -1.885
0.099 1.278 -1.559
0.099 1.458 -1.165
-0.338 -1.458 -1.165
-0.338 -1.278 -1.559
-0.338 -0.995 -1.885
-0.338 -0.631 -2.119
-0.338 -0.216 -2.241
-0.338 0.216 -2.241
0.099 0.216 -2.241
-0.338 0.631 -2.119
-0.338 0.995 -1.885
-0.338 1.278 -1.559
-0.338 1.458 -1.165
-0.757 -1.328 -1.169
-0.757 -1.13 -1.558
-0.757 -0.821 -1.867
-0.757 -0.431 -2.065
-0.757 0.0 -2.133
-0.757 0.431 -2.065
-0.757 0.821 -1.867
-0.757 1.13 -1.558
-0.757 1.328 -1.169
-1.125 -1.14 -0.95
-1.125 -0.986 -1.348
-1.125 -0.699 -1.663
-1.125 -0.317 -1.853
-1.125 0.107 -1.892
-1.125 0.517 -1.776
-1.125 0.857 -1.519
-1.125 1.082 -1.156
-1.411 -0.719 -1.152
-1.411 -0.415 -1.456
-1.411 -0.0 -1.567
-1.411 0.415 -1.456
-1.411 0.719 -1.152
-1.593 -0.216 -1.112
-1.593 0.216 -1.112
1.351 -0.397 -0.928
1.172 -0.719 -1.152
1.4525 -0.4165 -0.6405
1.47 -0.639 -0.3445
1.3685 -0.6195 -0.632
1.386 -0.842 -0.336
1.253 -1.0165 -0.323
1.376 0.6015 -0.6325
1.2745 0.582 -0.92
1.4525 0.4165 -0.6405
1.351 0.397 -0.928
1.377 0.1985 -0.9305
1.859 -0.315 0.474
1.7895 -0.6195 0.656
1.7895 -0.5645 0.451
1.72 -0.764 0.451
1.72 -0.709 0.246
1.7895 -0.4595 0.269
1.7895 -0.3095 0.119
1.72 -0.559 0.096
1.72 -0.409 -0.054
1.7895 -0.105 0.0645
1.72 -0.2045 -0.1085
1.6075 -0.998 0.656
1.6075 -0.9625 0.4545
1.495 -1.1415 0.4545
1.495 -1.106 0.253
1.6075 -0.9075 0.2495
1.6075 -0.8055 0.0725
1.495 -1.004 0.076
1.495 -0.902 -0.101
1.6075 -0.6555 -0.0775
1.3455 -1.2965 0.448
1.3455 -1.261 0.2465
1.158 -1.3035 -0.035
1.3075 -1.1485 -0.0285
1.3075 -1.0465 -0.2055
1.4405 -0.872 -0.2185
1.5245 -0.669 -0.227
1.637 -0.4225 -0.2035
1.637 -0.218 -0.258
1.029 -0.8525 -1.25
1.029 -0.709 -1.4075
0.886 -0.8425 -1.5055
0.886 -0.986 -1.348
0.886 -0.105 -1.8725
0.702 -1.157 -1.2585
0.702 -1.058 -1.453
0.518 -1.229 -1.3635
0.702 -0.9145 -1.6105
0.518 -0.626 -1.966
0.702 -0.374 -1.959
0.702 -0.1585 -1.993
0.518 -0.2155 -2.099
0.518 0.0 -2.133
0.702 0.0535 -2.0125
0.702 0.269 -1.9785
0.518 0.2155 -2.099
0.3085 -0.726 -1.993
0.3085 -0.531 -2.092
0.3085 -0.108 -2.187
0.3085 -0.3235 -2.153
0.3085 0.108 -2.187
0.099 0.0 -2.241
0.3085 0.3235 -2.153
-0.1195 -0.631 -2.119
0.099 -0.4235 -2.18
-0.1195 -0.4235 -2.18
1.2615 0.406 -1.192
1.2875 0.2075 -1.1945
1.064 -0.902 -1.02
0.921 -1.0355 -1.118
0.737 -1.2065 -1.0285

CELLS 691 2764
3 0 1 2
3 3 4 5
3 4 6 5
3 5 6 7
3 6 8 7
3 7 8 9
3 8 10 9
3 9 10 11
3 10 12 11
3 11 12 13
3 12 14 13
3 13 14 15
3 14 16 15
3 15 16 17
3 16 18 17
3 17 18 19
3 18 20 19
3 19 20 21
3 20 22 21
3 21 22 23
3 22 24 23
3 23 24 25
3 24 26 25
3 25 26 27
3 26 28 27
3 27 28 29
3 28 30 29
3 29 30 31
3 30 32 31
3 31 32 33
3 32 34 33
3 33 34 35
3 34 36 35
3 35 36 37
3 36 38 37
3 37 38 39
3 38 40 39
3 39 40 41
3 40 42 41
3 41 42 43
3 44 45 46
3 44 46 47
3 44 47 48
3 44 49 50
3 44 50 45
3 46 45 51
3 46 51 52
3 46 52 53
3 47 46 53
3 47 53 54
3 47 54 55
3 48 47 55
3 50 56 57
3 50 57 58
3 45 50 58
3 45 58 59
3 45 59 51
3 51 59 60
3 51 60 61
3 52 51 61
3 52 61 62
3 52 62 63
3 53 52 63
3 53 63 64
3 54 53 64
3 54 64 65
3 54 65 66
3 55 54 66
3 55 66 67
3 68 55 67
3 58 57 69
3 58 69 70
3 59 58 70
3 59 70 71
3 59 71 60
3 60 71 72
3 60 72 73
3 61 60 73
3 61 73 74
3 62 61 74
3 62 74 75
3 63 62 75
3 63 75 76
3 63 76 77
3 64 63 77
3 64 77 78
3 65 64 78
3 65 78 79
3 66 65 79
3 66 79 80
3 67 66 80
3 67 80 81
3 82 67 81
3 82 81 83
3 71 70 84
3 71 84 85
3 71 85 72
3 72 85 86
3 72 86 87
3 73 72 87
3 73 87 88
3 74 73 88
3 74 88 89
3 75 74 89
3 75 89 90
3 76 75 90
3 76 90 91
3 76 91 92
3 77 76 92
3 77 92 93
3 78 77 93
3 78 93 94
3 79 78 94
3 79 94 95
3 80 79 95
3 80 95 96
3 81 80 96
3 81 96 97
3 83 81 97
3 83 97 98
3 83 98 99
3 100 83 99
3 85 84 101
3 85 101 102
3 85 102 86
3 86 102 103
3 86 103 104
3 87 86 104
3 87 104 105
3 88 87 105
3 88 105 106
3 89 88 106
3 89 106 107
3 90 89 107
3 90 107 108
3 91 90 108
3 91 108 109
3 92 91 109
3 92 109 110
3 93 92 110
3 93 110 111
3 94 93 111
3 94 111 112
3 95 94 112
3 95 112 113
3 96 95 113
3 96 113 114
3 97 96 114
3 97 114 115
3 98 97 115
3 98 115 116
3 98 116 117
3 99 98 117
3 102 101 118
3 102 118 119
3 102 119 103
3 103 119 120
3 103 120 121
3 104 103 121
3 104 121 122
3 105 104 122
3 105 122 123
3 106 105 123
3 106 123 124
3 107 106 124
3 107 124 125
3 108 107 125
3 108 125 126
3 109 108 126
3 109 126 127
3 110 109 127
3 110 127 128
3 111 110 128
3 111 128 129
3 112 111 129
3 112 129 130
3 113 112 130
3 113 130 131
3 114 113 131
3 114 131 132
3 115 114 132
3 115 132 133
3 116 115 133
3 116 133 134
3 117 116 134
3 117 134 135
3 119 118 136
3 119 136 137
3 119 137 120
3 120 137 138
3 120 138 139
3 121 120 139
3 121 139 140
3 122 121 140
3 122 140 141
3 123 122 141
3 123 141 142
3 124 123 142
3 124 142 143
3 125 124 143
3 125 143 144
3 126 125 144
3 126 144 145
3 127 126 145
3 127 145 146
3 128 127 146
3 128 146 147
3 129 128 147
3 129 147 148
3 130 129 148
3 130 148 149
3 131 130 149
3 131 149 150
3 132 131 150
3 132 150 151
3 133 132 151
3 133 151 152
3 134 133 152
3 134 152 153
3 135 134 153
3 138 136 154
3 137 136 138
3 139 138 155
3 139 155 156
3 140 139 156
3 140 156 157
3 141 140 157
3 141 157 158
3 142 141 158
3 142 158 159
3 143 142 159
3 143 159 160
3 144 143 160
3 144 160 161
3 145 144 161
3 145 161 162
3 146 145 162
3 146 162 163
3 147 146 163
3 147 163 164
3 148 147 164
3 148 164 165
3 149 148 165
3 149 165 166
3 150 149 166
3 150 166 167
3 151 150 167
3 151 167 168
3 152 151 168
3 153 152 168
3 153 168 169
3 155 154 170
3 138 154 155
3 156 155 171
3 156 171 172
3 157 156 172
3 157 172 173
3 158 157 173
3 158 173 174
3 159 158 174
3 159 174 175
3 160 159 175
3 160 175 176
3 161 160 176
3 161 176 177
3 162 161 177
3 163 162 177
3 163 177 178
3 164 163 178
3 164 178 179
3 165 164 179
3 165 179 180
3 166 165 180
3 166 180 181
3 167 166 181
3 167 181 182
3 168 167 182
3 169 168 182
3 169 182 183
3 171 170 184
3 155 170 171
3 172 171 185
3 172 185 186
3 173 172 186
3 173 186 187
3 174 173 187
3 174 187 188
3 175 174 188
3 175 188 189
3 176 175 189
3 176 189 190
3 177 176 190
3 178 177 190
3 178 190 191
3 179 178 191
3 179 191 192
3 180 179 192
3 180 192 193
3 181 180 193
3 181 193 194
3 182 181 194
3 183 182 194
3 183 194 195
3 185 184 196
3 171 184 185
3 186 185 197
3 186 197 198
3 187 186 198
3 187 198 199
3 188 187 199
3 189 188 199
3 189 199 200
3 190 189 200
3 190 200 201
3 191 190 201
3 192 191 201
3 192 201 202
3 193 192 202
3 193 202 203
3 194 193 203
3 195 194 203
3 195 203 204
3 197 196 205
3 185 196 197
3 198 197 206
3 198 206 207
3 199 198 207
3 200 199 207
3 200 207 208
3 201 200 208
3 202 201 208
3 202 208 209
3 203 202 209
3 204 203 209
3 204 209 210
3 206 205 211
3 197 205 206
3 207 206 212
3 208 207 212
3 209 208 212
3 210 209 212
3 211 210 212
3 206 211 212
3 211 205 24
3 211 24 22
3 211 22 210
3 210 22 20
3 210 20 204
3 204 20 18
3 204 18 195
3 195 18 16
3 195 16 183
3 183 16 14
3 183 14 169
3 169 14 12
3 169 12 153
3 153 12 10
3 153 10 135
3 135 10 8
3 135 8 117
3 117 8 99
3 99 8 6
3 99 6 100
3 56 0 213
3 56 213 57
3 57 213 69
3 69 213 42
3 69 42 40
3 69 40 70
3 70 40 84
3 84 40 38
3 84 38 101
3 101 38 36
3 101 36 118
3 118 36 136
3 136 36 34
3 136 34 154
3 154 34 32
3 154 32 170
3 170 32 30
3 170 30 184
3 184 30 28
3 184 28 196
3 196 28 26
3 196 26 205
3 205 26 24
3 214 215 216
3 217 214 216
3 218 217 219
3 218 219 220
3 218 220 221
3 222 218 221
3 222 221 223
3 220 224 225
3 221 220 225
3 221 225 226
3 223 221 226
3 223 226 227
3 228 229 230
3 231 230 232
3 233 231 232
3 234 235 236
3 225 224 237
3 225 237 238
3 226 225 238
3 226 238 239
3 227 226 239
3 227 239 240
3 229 241 242
3 230 229 242
3 230 242 243
3 232 230 243
3 232 243 244
3 236 245 246
3 247 246 248
3 237 247 248
3 237 248 249
3 238 237 249
3 238 249 250
3 239 238 250
3 239 250 251
3 240 239 251
3 242 241 252
3 242 252 253
3 243 242 253
3 243 253 254
3 244 243 254
3 244 254 255
3 245 244 255
3 245 255 256
3 246 245 256
3 246 256 257
3 248 246 257
3 248 257 258
3 249 248 258
3 249 258 259
3 250 249 259
3 250 259 260
3 251 250 260
3 252 261 262
3 253 252 262
3 253 262 263
3 254 253 263
3 255 254 263
3 255 263 264
3 256 255 264
3 256 264 265
3 257 256 265
3 257 265 266
3 258 257 266
3 258 266 267
3 259 258 267
3 259 267 268
3 260 259 268
3 262 261 269
3 263 262 269
3 263 269 270
3 264 263 270
3 264 270 271
3 265 264 271
3 265 271 272
3 266 265 272
3 267 266 272
3 267 272 273
3 268 267 273
3 270 269 274
3 271 270 274
3 271 274 275
3 272 271 275
3 273 272 275
3 273 275 25
3 273 25 27
3 273 27 29
3 273 29 268
3 268 29 31
3 268 31 260
3 260 31 33
3 260 33 251
3 251 33 35
3 251 35 240
3 240 35 37
3 240 37 227
3 227 37 39
3 227 39 223
3 223 39 41
3 223 41 222
3 222 41 43
3 217 2 214
3 214 2 276
3 214 276 277
3 277 276 3
3 228 7 9
3 228 9 229
3 229 9 11
3 229 11 241
3 241 11 13
3 241 13 252
3 252 13 15
3 252 15 261
3 261 15 17
3 261 17 19
3 261 19 269
3 269 19 21
3 269 21 274
3 274 21 23
3 274 23 275
3 275 23 25
3 1 278 2
3 276 278 2
3 1 279 278
3 279 280 278
3 279 280 281
3 278 276 280
3 281 280 3
3 276 280 3
3 4 282 3
3 281 282 3
3 43 283 42
3 213 283 42
3 43 283 284
3 283 285 284
3 283 285 213
3 284 286 285
3 213 285 0
3 286 285 0
3 286 287 0
3 2 287 0
3 49 288 44
3 48 288 44
3 48 289 55
3 68 289 55
3 48 289 290
3 289 291 290
3 289 291 68
3 290 292 291
3 49 288 293
3 288 290 293
3 288 290 48
3 293 292 290
3 49 293 294
3 293 295 294
3 293 295 292
3 294 296 295
3 49 294 297
3 294 298 297
3 294 298 296
3 297 56 298
3 49 297 50
3 56 297 50
3 68 299 67
3 82 299 67
3 68 299 300
3 299 301 300
3 299 301 82
3 300 302 301
3 292 291 303
3 291 300 303
3 291 300 68
3 303 302 300
3 292 303 304
3 303 305 304
3 303 305 302
3 304 306 305
3 296 295 307
3 295 304 307
3 295 304 292
3 307 306 304
3 82 308 83
3 100 308 83
3 302 301 309
3 301 308 309
3 301 308 82
3 309 100 308
3 100 310 6
3 4 310 6
3 100 310 309
3 310 311 309
3 310 311 4
3 309 302 311
3 302 311 305
3 311 312 305
3 311 312 4
3 305 306 312
3 306 312 313
3 312 282 313
3 312 282 4
3 313 281 282
3 306 313 314
3 313 279 314
3 313 279 281
3 314 1 279
3 306 314 307
3 314 315 307
3 314 315 1
3 307 296 315
3 296 315 298
3 315 316 298
3 315 316 1
3 298 56 316
3 1 316 0
3 56 316 0
3 277 317 318
3 317 319 318
3 317 319 320
3 318 215 319
3 277 318 214
3 215 318 214
3 219 321 217
3 216 321 217
3 320 322 323
3 322 324 323
3 322 324 228
3 323 231 324
3 215 319 325
3 319 323 325
3 319 323 320
3 325 231 323
3 215 325 233
3 231 325 233
3 234 326 215
3 233 326 215
3 216 327 215
3 234 327 215
3 216 327 328
3 327 329 328
3 327 329 234
3 328 330 329
3 219 321 331
3 321 328 331
3 321 328 216
3 331 330 328
3 219 331 332
3 331 333 332
3 331 333 330
3 332 224 333
3 219 332 220
3 224 332 220
3 228 324 230
3 231 324 230
3 233 334 232
3 235 334 232
3 234 326 335
3 326 334 335
3 326 334 233
3 335 235 334
3 330 329 336
3 329 337 336
3 329 337 234
3 336 236 337
3 330 336 338
3 336 339 338
3 336 339 236
3 338 247 339
3 224 333 340
3 333 338 340
3 333 338 330
3 340 247 338
3 224 340 237
3 247 340 237
3 235 341 232
3 244 341 232
3 236 342 343
3 342 341 343
3 342 341 235
3 343 244 341
3 236 343 245
3 244 343 245
3 236 339 246
3 247 339 246
3 43 284 222
3 286 284 222
3 218 344 222
3 286 344 222
3 218 344 345
3 344 287 345
3 344 287 286
3 345 2 287
3 218 345 217
3 2 345 217
3 277 346 3
3 5 346 3
3 277 346 317
3 346 347 317
3 346 347 5
3 317 320 347
3 320 347 322
3 347 348 322
3 347 348 5
3 322 228 348
3 5 348 7
3 228 348 7

CELL_TYPES 691
5
5
5
5
5
5
5
5
5
5
5
5
5
5
5
5
5
5
5
5
5
5
5
5
5
5
5
5
5
5
5
5
5
5
5
5
5
5
5
5
5
5
5
5
5
5
5
5
5
5
5
5
5
5
5
5
5
5
5
5
5
5
5
5
5
5
5
5
5
5
5
5
5
5
5
5
5
5
5
5
5
5
5
5
5
5
5
5
5
5
5
5
5
5
5
5
5
5
5
5
5
5
5
5
5
5
5
5
5
5
5
5
5
5
5
5
5
5
5
5
5
5
5
5
5
5
5
5
5
5
5
5
5
5
5
5
5
5
5
5
5
5
5
5
5
5
5
5
5
5
5
5
5
5
5
5
5
5
5
5
5
5
5
5
5
5
5
5
5
5
5
5
5
5
5
5
5
5
5
5
5
5
5
5
5
5
5
5
5
5
5
5
5
5
5
5
5
5
5
5
5
5
5
5
5
5
5
5
5
5
5
5
5
5
5
5
5
5
5
5
5
5
5
5
5
5
5
5
5
5
5
5
5
5
5
5
5
5
5
5
5
5
5
5
5
5
5
5
5
5
5
5
5
5
5
5
5
5
5
5
5
5
5
5
5
5
5
5
5
5
5
5
5
5
5
5
5
5
5
5
5
5
5
5
5
5
5
5
5
5
5
5
5
5
5
5
5
5
5
5
5
5
5
5
5
5
5
5
5
5
5
5
5
5
5
5
5
5
5
5
5
5
5
5
5
5
5
5
5
5
5
5
5
5
5
5
5
5
5
5
5
5
5
5
5
5
5
5
5
5
5
5
5
5
5
5
5
5
5
5
5
5
5
5
5
5
5
5
5
5
5
5
5
5
5
5
5
5
5
5
5
5
5
5
5
5
5
5
5
5
5
5
5
5
5
5
5
5
5
5
5
5
5
5
5
5
5
5
5
5
5
5
5
5
5
5
5
5
5
5
5
5
5
5
5
5
5
5
5
5
5
5
5
5
5
5
5
5
5
5
5
5
5
5
5
5
5
5
5
5
5
5
5
5
5
5
5
5
5
5
5
5
5
5
5
5
5
5
5
5
5
5
5
5
5
5
5
5
5
5
5
5
5
5
5
5
5
5
5
5
5
5
5
5
5
5
5
5
5
5
5
5
5
5
5
5
5
5
5
5
5
5
5
5
5
5
5
5
5
5
5
5
5
5
5
5
5
5
5
5
5
5
5
5
5
5
5
5
5
5
5
5
5
5
5
5
5
5
5
5
5
5
5
5
5
5
5
5
5
5
5
5
5
5
5
5
5
5
5
5
5
5
5
5
5
5
5
5
5
5
5
5
5
5
5
5
5
5
5
5
5
5
5
5
5
5
5
5
5
5
5
5
5
5
5
5
5
5
5
5
5
5
5
5
5
5
5
5
5
5
5
5
5
5
5
5
5
5
5
5
5
5
5
5
5
5
5
5
5
5
5
5
5
5
5
5
5
5
5
5
5
5
5
5
5
5
5
5
5
5
5
5
5
5
5
5
5
5
5
5
5
5
5
5
5
5
5
5
5
5
5
5
5
5
5
5
5
5
5
5
5

CELL_DATA 691
SCALARS cell_data_0 double
LOOKUP_TABLE default
8.28247394839e-08
1.46646352752e-08
1.55503507241e-08
2.09712001877e-08
1.60141525516e-08
2.05449836281e-08
1.56623660777e-08
1.86482310334e-08
1.26201077785e-08
1.57632749429e-08
1.11615031746e-08
1.41296724163e-08
1.03140570324e-08
1.30210441788e-08
9.45987923525e-09
1.18641055466e-08
9.00338350052e-09
1.10420769533e-08
8.84721466808e-09
1.12853630093e-08
9.27172725485e-09
1.2452476294e-08
1.02742859855e-08
1.36268358561e-08
1.10143925555e-08
1.50449966545e-08
1.28322681317e-08
1.75263359692e-08
1.48355785129e-08
2.07464135591e-08
1.72838462462e-08
2.38794148178e-08
1.87103024394e-08
2.44388626025e-08
1.62611553742e-08
8.89940594492e-09
1.25874518475e-08
8.8523908728e-08
8.45843224539e-08
6.57904970744e-08
1.43188639068e-09
3.78088605491e-09
3.1837715717e-09
3.13345693955e-09
1.37516083637e-09
2.49855805066e-09
4.10745346975e-09
2.63075312869e-10
5.20062022233e-09
3.6298165755e-09
3.38291178128e-09
3.97331257545e-09
3.0662472132e-09
3.50378907331e-09
2.59415884993e-09
1.76600668438e-09
2.61371473364e-09
6.09484508459e-10
3.75799155709e-09
9.18477507677e-09
3.54527179345e-09
2.17016252316e-10
5.71578658439e-11
3.16235239241e-09
3.62307578121e-09
2.89582586184e-09
2.92678702426e-09
3.38354355393e-09
2.61688317033e-09
3.04989650361e-09
3.29310039104e-09
3.00932860203e-09
3.56140905747e-09
2.36395471762e-09
1.97360447388e-09
2.99889068249e-09
3.4382597502e-09
3.61194820806e-10
6.05723214136e-10
2.69390736098e-10
2.44927246212e-09
2.87084979624e-09
2.67316845192e-09
2.64255565632e-09
2.74495003427e-09
2.43980628963e-09
2.56413637211e-09
2.29908116673e-09
2.52023241476e-09
2.26696305237e-09
2.37060729199e-09
2.090011809e-09
2.22323147342e-09
2.15691630589e-09
2.30630902513e-09
2.70231058737e-09
3.79658811926e-09
4.10790233669e-09
3.31583820066e-09
3.65362695747e-09
2.38047418676e-09
2.42488025098e-09
1.88236399518e-09
2.15720929317e-09
1.48990851853e-09
1.87308622498e-09
1.43221038152e-09
1.96119025018e-09
2.30526016658e-09
2.12014556259e-09
2.19548501655e-09
1.97985601651e-09
2.16323946607e-09
1.95158090102e-09
2.10550233276e-09
1.90495641572e-09
2.02986988354e-09
1.78916279774e-09
1.91251170619e-09
1.79178164967e-09
1.80516295922e-09
1.9744007789e-09
2.78584121095e-09
2.69948275033e-09
2.78987426234e-09
2.09426358585e-09
1.98520868872e-09
2.111091409e-09
2.02709294972e-09
2.14638220595e-09
2.01690089346e-09
1.9366107394e-09
1.7176593217e-09
1.25871974363e-09
9.38000493358e-10
8.3493094325e-10
8.72572665356e-10
1.37094388788e-09
1.39459292757e-09
1.8639953963e-09
1.65644110716e-09
1.79311029483e-09
1.70256297289e-09
1.84622868125e-09
1.70227767934e-09
1.77281344348e-09
1.6514338966e-09
1.68784175417e-09
1.61053632295e-09
1.67687353794e-09
1.63642263888e-09
1.60197672351e-09
1.65058859645e-09
1.81897943487e-09
1.82188430268e-09
1.94226539596e-09
1.72248329092e-09
1.66742410299e-09
1.79088363266e-09
1.70539061935e-09
1.83545583974e-09
1.69825462636e-09
1.79427563608e-09
1.56698310447e-09
1.56166531486e-09
1.11333623446e-09
8.74619782442e-10
6.7350898155e-11
1.00885790117e-10
5.03268368695e-12
7.94432373376e-10
9.12037704694e-10
1.40611475058e-09
1.11256151077e-09
1.34036556856e-09
1.22111523277e-09
1.49284671336e-09
1.39160480209e-09
1.52714728584e-09
1.44166763194e-09
1.52247599369e-09
1.44463823251e-09
1.52353687732e-09
1.40651389708e-09
1.46694458545e-09
1.35511906294e-09
1.51300175516e-09
1.54118458527e-09
1.61885915915e-09
1.47818280166e-09
1.40012438645e-09
1.49066515606e-09
1.43215680018e-09
1.53141660462e-09
1.42941175111e-09
1.48534814995e-09
1.4408685825e-09
1.43406466868e-09
1.32703551696e-09
1.06116007026e-09
8.63886880403e-10
1.7308906863e-10
5.38682691782e-12
2.19475110491e-10
1.68705941203e-12
3.82620766294e-10
4.62955471207e-10
7.10771672347e-10
7.45496572725e-10
1.0148117349e-09
1.15741031441e-09
1.26233296187e-09
1.27580452784e-09
1.32184200942e-09
1.28548972699e-09
1.33053057027e-09
1.28290523249e-09
1.28668593845e-09
1.24884413245e-09
1.26263559237e-09
1.27414071368e-09
1.39903841581e-09
1.26461536391e-09
1.23552936334e-09
1.29387419307e-09
1.26446201134e-09
1.27543349345e-09
1.22245440091e-09
1.28977675457e-09
1.17645577306e-09
1.17830789723e-09
9.01205099195e-10
7.85314210488e-10
2.04020850693e-10
5.51468735257e-11
3.0148137922e-10
1.6997889989e-10
3.68640767027e-11
2.18107975373e-10
5.47104959347e-10
8.02597892621e-10
9.81472671624e-10
1.07730230944e-09
1.10025750986e-09
1.15353899751e-09
1.10936340816e-09
1.16934335711e-09
1.13484631429e-09
1.17628105818e-09
1.16437389479e-09
1.13129209636e-09
1.1384222491e-09
1.22198883292e-09
1.1532384479e-09
1.12849182476e-09
1.12900708376e-09
1.05383915981e-09
1.04667280885e-09
8.01462031153e-10
8.17639610284e-10
2.6600714346e-10
2.71585647657e-10
3.74294090002e-10
2.58390506406e-10
2.90190211696e-10
1.93171760446e-10
7.05576735931e-12
4.00504225966e-10
6.4038826474e-10
8.63673892001e-10
9.13870051494e-10
9.89996667652e-10
9.85316308001e-10
1.01619263835e-09
1.01664363094e-09
1.03688957401e-09
1.04784276332e-09
1.056820886e-09
1.01736118652e-09
1.03930219909e-09
1.10311807376e-09
9.33943828945e-10
6.39122251222e-10
6.74243091491e-10
1.21750045093e-10
1.56683882403e-10
3.86382587343e-10
3.84031381405e-10
4.10821297266e-10
3.76239330519e-10
1.13610436478e-10
1.24924805349e-10
5.34972903506e-10
7.3610087824e-10
8.00543536695e-10
8.56445289641e-10
8.78449315269e-10
8.60145047462e-10
8.90734910985e-10
7.99938124826e-10
8.72142320482e-10
8.54606954109e-10
5.95815851036e-10
2.97266333142e-10
8.95386827091e-10
1.55107639184e-11
2.97471723073e-10
1.75130077994e-10
2.52253271294e-11
1.70987822351e-10
3.8599571178e-11
4.63369101308e-10
4.41963486078e-10
4.54239696255e-10
4.91617597088e-10
5.55627964075e-10
1.57405251501e-10
3.9548307582e-10
1.04294954191e-11
3.33125027005e-10
1.00394362301e-10
2.26169099624e-10
1.57344561697e-09
2.59869076307e-10
1.90308243696e-07
2.00473499068e-07
3.1594509498e-08
3.46225993008e-08
2.94382966087e-08
6.72635716805e-08
6.06281716094e-08
1.84880880773e-07
5.16521013941e-08
4.43390716428e-08
3.62422395805e-07
4.7877603187e-07
2.35593699631e-07
1.90581438912e-07
3.68135054278e-08
1.66917674361e-07
3.26503307168e-07
3.75314220645e-07
3.99699579282e-07
5.38794183361e-08
3.81488066437e-08
2.5229136581e-07
1.29753439942e-07
1.52149359041e-07
1.88324741785e-09
9.46150550226e-10
1.95021588797e-09
5.0305392232e-10
1.62311483248e-09
2.08934009525e-10
2.00089115499e-09
1.71018341409e-10
2.28728634e-09
3.62940813089e-11
1.71920100332e-09
4.91038067759e-11
5.32326447478e-11
3.68780630526e-09
5.61264874192e-10
8.43607187903e-09
2.65022063695e-09
3.0839713702e-09
2.25669516092e-09
4.97154561004e-09
9.16901776854e-09
1.11430853887e-08
7.45994544847e-09
2.5932905231e-09
9.9758254418e-10
1.35652719953e-09
1.22278332893e-09
2.42332712822e-09
2.39357001665e-10
2.73026043019e-09
1.43104214131e-10
2.52269644791e-09
3.23623212827e-10
2.20493507289e-09
9.86349221069e-10
2.58846818863e-09
2.86388159343e-09
4.2953493992e-09
5.87925256895e-09
8.37023102046e-09
7.26719096384e-09
1.5007391949e-08
1.16368290754e-08
2.67829723464e-09
1.00025764252e-08
1.98803266159e-08
1.91414713175e-08
1.88920265417e-08
1.72124128978e-08
1.80685290592e-08
1.76049610197e-08
1.50994083119e-08
1.06473061822e-08
1.62530085562e-08
1.70153990151e-08
1.68973943525e-08
2.08135637217e-08
1.8743842252e-08
1.82358515546e-08
1.7070115647e-08
1.40051653932e-08
1.23240539898e-08
1.06382707541e-08
1.40886789735e-08
1.25649715994e-08
1.63510570164e-08
1.971347224e-08
1.77513780575e-08
1.25282962442e-08
1.35537275192e-08
1.6086534008e-08
1.74661302655e-08
1.47681002488e-08
1.5559897568e-08
1.25343522692e-08
1.29000092479e-08
1.23157797712e-08
1.28508264626e-08
8.47570616587e-09
9.41624985405e-09
7.0934476004e-09
1.17432788826e-08
1.08102193399e-08
1.24360358815e-08
1.32547132874e-08
1.41956498877e-08
1.45328090968e-08
1.26600528023e-08
1.29893473469e-08
1.17879721691e-08
1.16012084747e-08
1.07775061942e-08
1.14618668848e-08
1.12403351203e-08
1.27403001965e-08
1.30715840777e-08
1.12342239294e-08
1.23470480436e-08
1.13978173582e-08
1.17972150401e-08
2.61978065119e-08
2.49503773442e-08
6.60033393599e-08
1.79201294503e-11
3.51412554569e-08
4.49221226093e-08
2.43269984704e-09
2.57954243523e-09
2.42521409067e-08
1.73003796606e-08
2.96118522503e-08
1.78818958179e-08
1.5060280615e-08
3.89000946783e-08
1.03896957801e-07
4.96076324291e-08
3.55019629235e-08
1.75925293338e-07
1.69655631604e-07
1.43921426526e-07
2.98550645121e-08
3.62329219953e-08
1.07482552308e-08
2.7869314923e-08
2.86315561849e-08
8.79376691986e-08
5.49253237752e-08
5.44943102946e-08
1.66722231109e-08
1.47637052342e-08
1.77104199686e-08
1.67972117335e-08
1.79416620256e-08
1.68786585484e-08
1.25761862048e-08
1.26009669907e-08
2.19063325167e-08
2.12859862125e-08
2.68792882145e-08
4.60210099495e-08
5.50909259374e-08
4.64433874959e-08
2.25398357059e-08
1.46994640325e-08
1.78602183389e-08
1.4132851192e-08
1.37217103125e-08
1.28626674959e-08
1.29827225301e-08
1.31483293792e-08
1.07319002338e-08
7.05612655313e-09
6.56296053287e-09
4.81941181656e-09
4.61955838913e-09
1.14780945313e-07
2.30411515161e-08
9.51870424305e-08
2.29161747167e-08
4.99435054237e-08
3.50842016053e-08
1.523542924e-07
1.30586241788e-07
6.87773913657e-08
3.35452719297e-08
5.76504369247e-09
4.24480853572e-09
4.48236679251e-09
4.93408697108e-09
5.47462363399e-10
3.07134228925e-10
5.54639301465e-10
8.53582249859e-10
2.41687638514e-10
1.08646427964e-09
1.0530294003e-08
1.09665365518e-08
1.03707782892e-08
2.3869698756e-08
5.10823191025e-10
4.59210615581e-10
2.0091548732e-09
1.92393971901e-09
1.76002457811e-09
1.66542185188e-10
4.76937260267e-10
1.6176882847e-10
1.70354799348e-09
2.36093033262e-09
4.47787914025e-10
4.2921989002e-09
1.21673681183e-09
5.83861677205e-11
1.77096040914e-09
1.06560284835e-09
1.25615727399e-10
9.34980398524e-10
9.88292648469e-10
3.97964882972e-10
2.55081754849e-09
2.51932030189e-09
1.85087151045e-09
1.83044923112e-09
7.80183618807e-10
9.17624270806e-10
1.27830080929e-09
9.59139374265e-10
6.69632249532e-10
1.37030673536e-09
7.79448646145e-10
6.32502649583e-10
6.61695238022e-11
2.93738689419e-09
1.51800527208e-09
2.23032395007e-09
7.45726596556e-10
3.05198331869e-10
8.22931537426e-10
8.05893491448e-10
2.38219734912e-09
2.30845877097e-09
8.13178184712e-10
1.07628081741e-09
1.57872259781e-09
9.43839771298e-10
6.70374865954e-10
3.33985764811e-09
2.23262758906e-10
1.24361135569e-09
4.53478320618e-10
2.22318062135e-09
7.70636610343e-10
6.27078022591e-10
1.66386449937e-09
1.25533488703e-09
3.0024570966e-09
1.71264741058e-09
4.3706595987e-10
5.41467399761e-10
4.55557528872e-09
2.64842093677e-08
2.74433074954e-08
3.48681827126e-08
4.29046099599e-09
1.52833074862e-08
2.39920563153e-08
9.74460012954e-09
6.67547348545e-09
3.00883649692e-08
4.36472586777e-08
3.20336039921e-08
7.22174341714e-08
4.52093377026e-08
8.37714448441e-09
6.50144803137e-08
5.45572060923e-08
5.59293384024e-08
7.72914584905e-09
9.20780355522e-09
1.92769380626e-09
3.09345877755e-09
9.85522206253e-10
6.26866453088e-09
6.57395441498e-09
1.01368072454e-08
4.99205715145e-08
4.41476281995e-08
4.11977486376e-08
4.14147741877e-09
5.29743985949e-09
1.47940685439e-09
1.9798800385e-08
1.8274987514e-08
7.855029417e-09
8.74353948172e-09
1.63423925662e-09
9.19671477671e-09
9.34317358686e-09
4.2811712689e-09
1.11696380633e-08
2.28246356131e-08
1.89219401905e-09
1.51799602109e-08
3.19407683139e-09
4.30960187064e-09
1.2348092669e-08
1.15249246011e-08
1.34346961479e-08
1.46986683464e-08
1.85825423328e-09
4.90190396906e-09
9.06622061018e-09
1.04243370526e-08
7.63422256391e-09
6.50742187532e-09
8.24020797777e-09
4.29075981923e-09
2.98520515876e-09
1.80466148025e-09
4.39407895711e-09
2.65516775804e-09
8.19762031909e-10
3.51167546607e-10
5.46821323397e-09
2.82839194441e-09
1.08004423e-09
2.642429676e-09
1.74299026773e-09
2.31526742501e-10
9.24720200784e-09
8.45940271923e-09
2.19851072778e-08
2.28161596217e-08
1.0271503065e-08
1.34643013527e-08
6.61048278783e-09
2.12242485042e-08
3.24884942168e-08
3.19613297793e-08
1.82962175115e-08
1.53345246149e-08
1.05674836092e-09
1.26170354442e-09
1.91949628456e-08
1.9838784339e-08
2.13721460881e-07
2.17918487775e-07
1.58748064724e-08
1.53526267116e-07
3.67480689815e-07
3.71753735384e-07
7.57280015748e-09
1.17449453691e-08
4.77242096425e-09
1.06193671087e-08
1.21034933715e-08
1.70709160493e-09
2.72497046563e-09
1.68398521132e-09
9.21770317816e-10
2.66530623488e-09
6.3177210234e-09
3.15894866822e-09

