# vtk DataFile Version 3.0
File Name: Molecule/methanol/methanol_0.5-5.vtk
ASCII
DATASET UNSTRUCTURED_GRID
FIELD FieldData 1
TIME 1 1 double
0.0
POINTS 41 double
1.611 0.0 -0.359
0.773 -1.459 -0.275
1.403 0.0 -0.933
-0.903 -1.459 -0.108
0.639 -1.329 -0.857
-0.887 -1.329 -0.705
-1.742 0.0 -0.025
-1.651 0.0 -0.629
-0.903 1.459 -0.108
-0.887 1.329 -0.705
0.773 1.459 -0.275
0.639 1.329 -0.857
1.907 0.0 0.656
1.354 1.335 0.656
1.354 0.412 1.925
1.354 -1.08 1.44
0.019 1.335 1.99
0.019 -0.0 2.543
0.019 -1.335 1.99
0.019 -1.888 0.656
0.019 1.888 0.656
-1.316 0.412 1.925
-1.316 -1.08 1.44
0.648 0.411 -2.001
-0.887 -1.075 -1.519
-0.887 0.411 -2.001
1.021 0.6645 -0.895
0.6435 0.87 -1.429
1.0255 0.2055 -1.467
0.6435 -0.459 -1.429
0.83675 0.30825 -1.734
1.021 -0.6645 -0.895
0.735625 -0.945375 -1.0095
1.117625 -0.280875 -1.0475
0.83225 -0.56175 -1.162
0.931125 0.256875 -1.6005
0.8345 -0.12675 -1.448
0.928875 -0.178125 -1.3145
0.737875 -0.510375 -1.2955
0.739 -0.292875 -1.4385
0.833375 -0.34425 -1.305

CELLS 78 312
3 0 1 2
3 1 3 4
3 4 3 5
3 3 6 5
3 5 6 7
3 6 8 7
3 7 8 9
3 8 10 9
3 9 10 11
3 10 0 11
3 12 13 14
3 12 14 15
3 14 13 16
3 14 16 17
3 15 14 17
3 15 17 18
3 15 18 19
3 13 20 16
3 17 16 21
3 17 21 22
3 18 17 22
3 19 18 22
3 19 22 3
3 19 3 1
3 19 1 15
3 15 1 12
3 12 1 0
3 12 0 13
3 13 0 10
3 13 10 20
3 20 10 8
3 20 8 21
3 20 21 16
3 21 8 6
3 21 6 22
3 22 6 3
3 23 24 25
3 24 4 5
3 24 5 7
3 24 7 25
3 25 7 9
3 25 9 11
3 2 26 0
3 0 26 11
3 11 27 25
3 25 27 23
3 27 26 28
3 27 11 26
3 28 26 2
3 23 29 24
3 29 4 24
3 27 30 23
3 23 30 29
3 4 31 1
3 1 31 2
3 29 32 4
3 4 32 31
3 32 33 31
3 32 34 33
3 31 33 2
3 2 33 28
3 28 35 27
3 35 30 27
3 30 35 36
3 35 37 36
3 35 28 37
3 34 37 33
3 33 37 28
3 29 38 32
3 32 38 34
3 36 39 30
3 30 39 29
3 36 40 39
3 40 38 39
3 40 34 38
3 39 38 29
3 34 40 37
3 37 40 36

CELL_TYPES 78
5
5
5
5
5
5
5
5
5
5
5
5
5
5
5
5
5
5
5
5
5
5
5
5
5
5
5
5
5
5
5
5
5
5
5
5
5
5
5
5
5
5
5
5
5
5
5
5
5
5
5
5
5
5
5
5
5
5
5
5
5
5
5
5
5
5
5
5
5
5
5
5
5
5
5
5
5
5

CELL_DATA 78
SCALARS cell_data_0 double
LOOKUP_TABLE default
5.87952133926e-06
1.03853496522e-06
3.96911583913e-07
1.51851820575e-07
5.10227456228e-07
6.64092391376e-07
5.62275574735e-08
1.39079951371e-06
1.70160394536e-06
2.72342152902e-06
1.95550394168e-08
4.43682915618e-08
3.48588568014e-09
3.31300842865e-08
1.04588070896e-08
2.73936969886e-08
1.42632122089e-07
1.39591447079e-08
7.18103948006e-08
5.52552427452e-08
8.36004225956e-08
9.67513550756e-08
7.43307816024e-07
5.42461448728e-07
7.68347109179e-07
5.12825061418e-07
3.01619769172e-07
2.41602111107e-08
4.12375015768e-07
1.0085161773e-07
3.28930691777e-07
1.67608582445e-06
1.31482645673e-07
4.15706402174e-06
3.27228108087e-07
2.56761250745e-06
1.38021914642e-05
1.44063452835e-06
3.33241222843e-07
1.83249093451e-06
1.33551458577e-06
1.74199540471e-06
5.34732284763e-07
1.96275698895e-06
1.05109689265e-06
5.42812018523e-06
4.00996432806e-07
2.04697864487e-06
1.34598529847e-05
3.45770599298e-06
1.36609412737e-06
5.4016599472e-08
1.47231088211e-06
3.84886530787e-07
7.55963776067e-07
2.86170310544e-07
5.37383905047e-08
6.68918440475e-07
1.4032660404e-07
8.08812795969e-07
1.28071562542e-05
4.64686987972e-06
2.27221038382e-06
1.30347383478e-07
4.77492403075e-06
5.12705102078e-06
4.60610131586e-06
1.0899392394e-05
1.37212583734e-06
5.68519506372e-07
2.12901971944e-06
2.88155818446e-06
1.27851023742e-06
5.25028381544e-07
1.20547219828e-06
1.45824574445e-06
3.03709256157e-06
1.27991344907e-06

