# vtk DataFile Version 3.0
File Name: Molecule/methanol/methanol_6.25-16_06.vtk
ASCII
DATASET UNSTRUCTURED_GRID
FIELD FieldData 1
TIME 1 1 double
0.0
POINTS 296 double
1.611 0.0 -0.359
1.554 -0.436 -0.353
1.403 0.0 -0.933
1.351 -0.397 -0.928
1.386 -0.842 -0.336
1.198 -0.767 -0.912
1.12 -1.191 -0.31
0.956 -1.085 -0.888
0.773 -1.459 -0.275
0.639 -1.329 -0.857
0.368 -1.627 -0.235
0.271 -1.482 -0.82
-0.065 -1.684 -0.192
-0.124 -1.534 -0.781
-0.499 -1.627 -0.149
-0.519 -1.482 -0.741
-0.903 -1.459 -0.108
-0.887 -1.329 -0.705
-1.251 -1.191 -0.074
-1.204 -1.085 -0.673
-1.517 -0.842 -0.047
-1.446 -0.767 -0.649
-1.684 -0.436 -0.031
-1.599 -0.397 -0.634
-1.742 0.0 -0.025
-1.651 0.0 -0.629
-1.684 0.436 -0.031
-1.599 0.397 -0.634
-1.517 0.842 -0.047
-1.446 0.767 -0.649
-1.251 1.191 -0.074
-1.204 1.085 -0.673
-0.903 1.459 -0.108
-0.887 1.329 -0.705
-0.499 1.627 -0.149
-0.519 1.482 -0.741
-0.065 1.684 -0.192
-0.124 1.534 -0.781
0.368 1.627 -0.235
0.271 1.482 -0.82
0.773 1.459 -0.275
0.639 1.329 -0.857
1.12 1.191 -0.31
0.956 1.085 -0.888
1.386 0.842 -0.336
1.198 0.767 -0.912
1.554 0.436 -0.353
1.351 0.397 -0.928
1.907 0.0 0.656
1.859 0.42 0.656
1.859 0.21 1.019
1.859 -0.21 1.019
1.859 -0.42 0.656
1.859 -0.21 0.292
1.859 0.21 0.292
1.72 0.709 1.065
1.72 0.409 1.365
1.72 -0.0 1.475
1.72 -0.409 1.365
1.72 -0.709 1.065
1.72 -0.819 0.656
1.72 -0.709 0.246
1.72 -0.409 -0.054
1.72 -0.0 -0.163
1.72 0.409 -0.054
1.72 0.709 0.246
1.72 0.819 0.656
1.495 1.106 1.058
1.495 0.902 1.412
1.495 0.588 1.675
1.495 0.204 1.815
1.495 -0.204 1.815
1.495 -0.588 1.675
1.495 -0.902 1.412
1.495 -1.106 1.058
1.495 -1.177 0.656
1.495 -1.106 0.253
1.495 -0.902 -0.101
1.495 0.902 -0.101
1.495 1.106 0.253
1.495 1.177 0.656
1.196 1.416 1.071
1.196 1.241 1.453
1.196 0.966 1.771
1.196 0.613 1.998
1.196 0.21 2.116
1.196 -0.21 2.116
1.196 -0.613 1.998
1.196 -0.966 1.771
1.196 -1.241 1.453
1.196 -1.416 1.071
1.196 -1.476 0.656
1.196 -1.416 0.24
1.196 1.416 0.24
1.196 1.476 0.656
0.838 1.651 1.063
0.838 1.506 1.446
0.838 1.273 1.783
0.838 0.966 2.055
0.838 0.603 2.246
0.838 0.205 2.344
0.838 -0.205 2.344
0.838 -0.603 2.246
0.838 -0.966 2.055
0.838 -1.273 1.783
0.838 -1.506 1.446
0.838 -1.651 1.063
0.838 -1.701 0.656
0.838 -1.651 0.249
0.838 1.651 0.249
0.838 1.701 0.656
0.439 1.794 1.065
0.439 1.658 1.454
0.439 1.439 1.803
0.439 1.147 2.094
0.439 0.798 2.314
0.439 0.409 2.45
0.439 0.0 2.496
0.439 -0.409 2.45
0.439 -0.798 2.314
0.439 -1.147 2.094
0.439 -1.439 1.803
0.439 -1.658 1.454
0.439 -1.794 1.065
0.439 -1.84 0.656
0.439 -1.794 0.246
0.439 1.794 0.246
0.439 1.84 0.656
0.019 1.843 1.061
0.019 1.713 1.448
0.019 1.503 1.798
0.019 1.222 2.094
0.019 0.884 2.323
0.019 0.505 2.474
0.019 0.102 2.54
0.019 -0.305 2.518
0.019 -0.699 2.409
0.019 -1.059 2.218
0.019 -1.37 1.954
0.019 -1.617 1.629
0.019 -1.789 1.258
0.019 -1.876 0.86
0.019 -1.876 0.452
0.019 -1.789 0.053
0.019 1.843 0.25
0.019 1.888 0.656
-0.401 1.84 0.656
-0.401 1.794 1.065
-0.401 1.658 1.454
-0.401 1.439 1.803
-0.401 1.147 2.094
-0.401 0.798 2.314
-0.401 0.409 2.45
-0.401 0.0 2.496
-0.401 -0.409 2.45
-0.401 -0.798 2.314
-0.401 -1.147 2.094
-0.401 -1.439 1.803
-0.401 -1.658 1.454
-0.401 -1.794 1.065
-0.401 -1.84 0.656
-0.401 -1.794 0.246
-0.401 1.794 0.246
-0.8 1.701 0.656
-0.8 1.651 1.063
-0.8 1.506 1.446
-0.8 1.273 1.783
-0.8 0.966 2.055
-0.8 0.603 2.246
-0.8 0.205 2.344
-0.8 -0.205 2.344
-0.8 -0.603 2.246
-0.8 -0.966 2.055
-0.8 -1.273 1.783
-0.8 -1.506 1.446
-0.8 -1.651 1.063
-0.8 -1.701 0.656
-0.8 -1.651 0.249
-0.8 1.651 0.249
-1.158 1.476 0.656
-1.158 1.416 1.071
-1.158 1.241 1.453
-1.158 0.966 1.771
-1.158 0.613 1.998
-1.158 0.21 2.116
-1.158 -0.21 2.116
-1.158 -0.613 1.998
-1.158 -0.966 1.771
-1.158 -1.241 1.453
-1.158 -1.416 1.071
-1.158 -1.476 0.656
-1.158 -1.416 0.24
-1.158 1.416 0.24
-1.457 1.177 0.656
-1.457 1.106 1.058
-1.457 0.902 1.412
-1.457 0.588 1.675
-1.457 0.204 1.815
-1.457 -0.204 1.815
-1.457 -0.588 1.675
-1.457 -0.902 1.412
-1.457 -1.106 1.058
-1.457 -1.177 0.656
-1.457 -1.106 0.253
-1.457 1.106 0.253
-1.682 0.819 0.656
-1.682 0.709 1.065
-1.682 0.409 1.365
-1.682 -0.0 1.475
-1.682 -0.409 1.365
-1.682 -0.709 1.065
-1.682 -0.819 0.656
-1.682 -0.709 0.246
-1.682 0.709 0.246
-1.821 0.42 0.656
-1.821 0.21 1.019
-1.821 -0.21 1.019
-1.821 -0.42 0.656
-1.821 -0.21 0.292
-1.821 0.21 0.292
-1.868 -0.0 0.656
1.21 -0.665 -1.121
0.966 -1.003 -1.153
0.966 -0.768 -1.505
1.21 -0.384 -1.402
0.966 -0.415 -1.74
1.21 -0.0 -1.505
0.966 0.0 -1.823
0.966 0.415 -1.74
1.21 0.384 -1.402
0.966 0.768 -1.505
1.21 0.665 -1.121
0.966 1.003 -1.153
0.648 -1.264 -1.148
0.648 -1.075 -1.519
0.648 -0.781 -1.813
0.648 -0.411 -2.001
0.648 0.0 -2.067
0.648 0.411 -2.001
0.648 0.781 -1.813
0.648 1.075 -1.519
0.648 1.264 -1.148
0.278 -1.36 -1.328
0.278 -1.15 -1.673
0.278 -0.855 -1.949
0.278 -0.497 -2.134
0.278 -0.101 -2.216
0.278 0.302 -2.189
0.278 0.682 -2.054
0.278 1.012 -1.821
0.278 1.267 -1.508
0.278 1.428 -1.137
-0.12 -1.483 -1.134
-0.12 -1.329 -1.505
-0.12 -1.085 -1.823
-0.12 -0.768 -2.067
-0.12 -0.397 -2.22
-0.12 -0.0 -2.272
-0.12 0.397 -2.22
-0.12 0.767 -2.067
-0.12 1.085 -1.823
-0.12 1.329 -1.505
-0.12 1.483 -1.134
-0.517 -1.36 -1.328
-0.517 -1.15 -1.673
-0.517 -0.855 -1.949
-0.517 -0.497 -2.134
-0.517 -0.101 -2.216
-0.517 0.302 -2.189
-0.517 0.682 -2.054
-0.517 1.012 -1.821
-0.517 1.267 -1.508
-0.517 1.428 -1.137
-0.887 -1.264 -1.148
-0.887 -1.075 -1.519
-0.887 -0.781 -1.813
-0.887 -0.411 -2.001
-0.887 0.0 -2.067
-0.887 0.411 -2.001
-0.887 0.781 -1.813
-0.887 1.075 -1.519
-0.887 1.264 -1.148
-1.205 -1.003 -1.153
-1.205 -0.768 -1.505
-1.205 -0.415 -1.74
-1.205 0.0 -1.823
-1.205 0.415 -1.74
-1.205 0.768 -1.505
-1.205 1.003 -1.153
-1.449 -0.665 -1.121
-1.449 -0.384 -1.402
-1.449 -0.0 -1.505
-1.449 0.384 -1.402
-1.449 0.665 -1.121
-1.602 -0.199 -1.081
-1.602 0.199 -1.081

CELLS 588 2352
3 0 1 2
3 2 1 3
3 1 4 3
3 3 4 5
3 4 6 5
3 5 6 7
3 6 8 7
3 7 8 9
3 8 10 9
3 9 10 11
3 10 12 11
3 11 12 13
3 12 14 13
3 13 14 15
3 14 16 15
3 15 16 17
3 16 18 17
3 17 18 19
3 18 20 19
3 19 20 21
3 20 22 21
3 21 22 23
3 22 24 23
3 23 24 25
3 24 26 25
3 25 26 27
3 26 28 27
3 27 28 29
3 28 30 29
3 29 30 31
3 30 32 31
3 31 32 33
3 32 34 33
3 33 34 35
3 34 36 35
3 35 36 37
3 36 38 37
3 37 38 39
3 38 40 39
3 39 40 41
3 40 42 41
3 41 42 43
3 42 44 43
3 43 44 45
3 44 46 45
3 45 46 47
3 46 0 47
3 47 0 2
3 48 49 50
3 48 50 51
3 48 51 52
3 48 52 53
3 48 53 54
3 48 54 49
3 50 49 55
3 50 55 56
3 50 56 57
3 51 50 57
3 51 57 58
3 51 58 59
3 52 51 59
3 52 59 60
3 52 60 61
3 53 52 61
3 53 61 62
3 53 62 63
3 54 53 63
3 54 63 64
3 54 64 65
3 49 54 65
3 49 65 66
3 49 66 55
3 55 66 67
3 55 67 68
3 56 55 68
3 56 68 69
3 56 69 70
3 57 56 70
3 57 70 71
3 58 57 71
3 58 71 72
3 58 72 73
3 59 58 73
3 59 73 74
3 60 59 74
3 60 74 75
3 60 75 76
3 61 60 76
3 61 76 77
3 62 61 77
3 65 64 78
3 65 78 79
3 66 65 79
3 66 79 80
3 66 80 67
3 67 80 81
3 67 81 82
3 68 67 82
3 68 82 83
3 69 68 83
3 69 83 84
3 70 69 84
3 70 84 85
3 70 85 86
3 71 70 86
3 71 86 87
3 72 71 87
3 72 87 88
3 73 72 88
3 73 88 89
3 74 73 89
3 74 89 90
3 75 74 90
3 75 90 91
3 75 91 92
3 76 75 92
3 80 79 93
3 80 93 94
3 80 94 81
3 81 94 95
3 81 95 96
3 82 81 96
3 82 96 97
3 83 82 97
3 83 97 98
3 84 83 98
3 84 98 99
3 85 84 99
3 85 99 100
3 85 100 101
3 86 85 101
3 86 101 102
3 87 86 102
3 87 102 103
3 88 87 103
3 88 103 104
3 89 88 104
3 89 104 105
3 90 89 105
3 90 105 106
3 91 90 106
3 91 106 107
3 91 107 108
3 92 91 108
3 94 93 109
3 94 109 110
3 94 110 95
3 95 110 111
3 95 111 112
3 96 95 112
3 96 112 113
3 97 96 113
3 97 113 114
3 98 97 114
3 98 114 115
3 99 98 115
3 99 115 116
3 100 99 116
3 100 116 117
3 101 100 117
3 101 117 118
3 102 101 118
3 102 118 119
3 103 102 119
3 103 119 120
3 104 103 120
3 104 120 121
3 105 104 121
3 105 121 122
3 106 105 122
3 106 122 123
3 107 106 123
3 107 123 124
3 107 124 125
3 108 107 125
3 110 109 126
3 110 126 127
3 110 127 111
3 111 127 128
3 111 128 129
3 112 111 129
3 112 129 130
3 113 112 130
3 113 130 131
3 114 113 131
3 114 131 132
3 115 114 132
3 115 132 133
3 116 115 133
3 116 133 134
3 117 116 134
3 117 134 135
3 118 117 135
3 118 135 136
3 119 118 136
3 119 136 137
3 120 119 137
3 120 137 138
3 121 120 138
3 121 138 139
3 122 121 139
3 122 139 140
3 123 122 140
3 123 140 141
3 124 123 141
3 124 141 142
3 125 124 142
3 125 142 143
3 127 126 144
3 127 144 145
3 127 145 128
3 128 145 146
3 128 146 147
3 129 128 147
3 129 147 148
3 130 129 148
3 130 148 149
3 131 130 149
3 131 149 150
3 132 131 150
3 132 150 151
3 133 132 151
3 133 151 152
3 134 133 152
3 134 152 153
3 135 134 153
3 135 153 154
3 136 135 154
3 136 154 155
3 137 136 155
3 137 155 156
3 138 137 156
3 138 156 157
3 139 138 157
3 139 157 158
3 140 139 158
3 140 158 159
3 141 140 159
3 141 159 160
3 142 141 160
3 142 160 161
3 143 142 161
3 146 144 162
3 145 144 146
3 147 146 163
3 147 163 164
3 148 147 164
3 148 164 165
3 149 148 165
3 149 165 166
3 150 149 166
3 150 166 167
3 151 150 167
3 151 167 168
3 152 151 168
3 152 168 169
3 153 152 169
3 153 169 170
3 154 153 170
3 154 170 171
3 155 154 171
3 155 171 172
3 156 155 172
3 156 172 173
3 157 156 173
3 157 173 174
3 158 157 174
3 158 174 175
3 159 158 175
3 159 175 176
3 160 159 176
3 161 160 176
3 161 176 177
3 163 162 178
3 146 162 163
3 164 163 179
3 164 179 180
3 165 164 180
3 165 180 181
3 166 165 181
3 166 181 182
3 167 166 182
3 167 182 183
3 168 167 183
3 168 183 184
3 169 168 184
3 169 184 185
3 170 169 185
3 171 170 185
3 171 185 186
3 172 171 186
3 172 186 187
3 173 172 187
3 173 187 188
3 174 173 188
3 174 188 189
3 175 174 189
3 175 189 190
3 176 175 190
3 177 176 190
3 177 190 191
3 179 178 192
3 163 178 179
3 180 179 193
3 180 193 194
3 181 180 194
3 181 194 195
3 182 181 195
3 182 195 196
3 183 182 196
3 183 196 197
3 184 183 197
3 184 197 198
3 185 184 198
3 186 185 198
3 186 198 199
3 187 186 199
3 187 199 200
3 188 187 200
3 188 200 201
3 189 188 201
3 189 201 202
3 190 189 202
3 191 190 202
3 191 202 203
3 193 192 204
3 179 192 193
3 194 193 205
3 194 205 206
3 195 194 206
3 195 206 207
3 196 195 207
3 197 196 207
3 197 207 208
3 198 197 208
3 198 208 209
3 199 198 209
3 200 199 209
3 200 209 210
3 201 200 210
3 201 210 211
3 202 201 211
3 203 202 211
3 203 211 212
3 205 204 213
3 193 204 205
3 206 205 214
3 206 214 215
3 207 206 215
3 208 207 215
3 208 215 216
3 209 208 216
3 210 209 216
3 210 216 217
3 211 210 217
3 212 211 217
3 212 217 218
3 214 213 219
3 205 213 214
3 215 214 220
3 216 215 220
3 217 216 220
3 218 217 220
3 219 218 220
3 214 219 220
3 219 213 26
3 219 26 24
3 219 24 218
3 218 24 22
3 218 22 212
3 212 22 20
3 212 20 203
3 203 20 18
3 203 18 191
3 191 18 16
3 191 16 177
3 177 16 14
3 177 14 161
3 161 14 12
3 161 12 143
3 143 12 10
3 143 10 125
3 125 10 108
3 108 10 8
3 108 8 92
3 92 8 6
3 92 6 76
3 76 6 77
3 77 6 4
3 77 4 1
3 77 1 62
3 62 1 63
3 63 1 0
3 63 0 46
3 63 46 64
3 64 46 78
3 78 46 44
3 78 44 42
3 78 42 79
3 79 42 93
3 93 42 40
3 93 40 109
3 109 40 38
3 109 38 126
3 126 38 144
3 144 38 36
3 144 36 162
3 162 36 34
3 162 34 178
3 178 34 32
3 178 32 192
3 192 32 30
3 192 30 204
3 204 30 28
3 204 28 213
3 213 28 26
3 221 222 223
3 224 221 223
3 224 223 225
3 226 224 225
3 226 225 227
3 226 227 228
3 229 226 228
3 229 228 230
3 231 229 230
3 231 230 232
3 222 233 234
3 223 222 234
3 223 234 235
3 225 223 235
3 225 235 236
3 227 225 236
3 227 236 237
3 227 237 238
3 228 227 238
3 228 238 239
3 230 228 239
3 230 239 240
3 232 230 240
3 232 240 241
3 234 233 242
3 234 242 243
3 235 234 243
3 235 243 244
3 235 244 245
3 236 235 245
3 236 245 246
3 237 236 246
3 237 246 247
3 238 237 247
3 238 247 248
3 239 238 248
3 239 248 249
3 240 239 249
3 240 249 250
3 241 240 250
3 241 250 251
3 242 252 253
3 243 242 253
3 243 253 254
3 244 243 254
3 244 254 255
3 245 244 255
3 245 255 256
3 246 245 256
3 246 256 257
3 247 246 257
3 247 257 258
3 248 247 258
3 248 258 259
3 249 248 259
3 249 259 260
3 250 249 260
3 250 260 261
3 251 250 261
3 251 261 262
3 253 252 263
3 253 263 264
3 254 253 264
3 254 264 265
3 255 254 265
3 255 265 266
3 256 255 266
3 256 266 267
3 257 256 267
3 257 267 268
3 258 257 268
3 258 268 269
3 259 258 269
3 259 269 270
3 260 259 270
3 260 270 271
3 261 260 271
3 261 271 272
3 262 261 272
3 263 273 274
3 264 263 274
3 264 274 275
3 265 264 275
3 266 265 275
3 266 275 276
3 267 266 276
3 267 276 277
3 268 267 277
3 268 277 278
3 269 268 278
3 269 278 279
3 270 269 279
3 270 279 280
3 271 270 280
3 271 280 281
3 272 271 281
3 274 273 282
3 274 282 283
3 275 274 283
3 275 283 284
3 276 275 284
3 276 284 285
3 277 276 285
3 278 277 285
3 278 285 286
3 279 278 286
3 279 286 287
3 280 279 287
3 280 287 288
3 281 280 288
3 283 282 289
3 283 289 290
3 284 283 290
3 284 290 291
3 285 284 291
3 286 285 291
3 286 291 292
3 287 286 292
3 287 292 293
3 288 287 293
3 290 289 294
3 291 290 294
3 291 294 295
3 292 291 295
3 293 292 295
3 293 295 27
3 293 27 29
3 293 29 288
3 288 29 31
3 288 31 281
3 281 31 33
3 281 33 272
3 272 33 35
3 272 35 37
3 272 37 262
3 262 37 39
3 262 39 251
3 251 39 41
3 251 41 241
3 241 41 43
3 241 43 232
3 232 43 45
3 232 45 231
3 231 45 47
3 231 47 229
3 229 47 2
3 229 2 226
3 226 2 224
3 224 2 3
3 224 3 221
3 221 3 5
3 221 5 222
3 222 5 7
3 222 7 233
3 233 7 9
3 233 9 11
3 233 11 242
3 242 11 252
3 252 11 13
3 252 13 15
3 252 15 263
3 263 15 273
3 273 15 17
3 273 17 19
3 273 19 282
3 282 19 21
3 282 21 289
3 289 21 23
3 289 23 294
3 294 23 25
3 294 25 295
3 295 25 27

CELL_TYPES 588
5
5
5
5
5
5
5
5
5
5
5
5
5
5
5
5
5
5
5
5
5
5
5
5
5
5
5
5
5
5
5
5
5
5
5
5
5
5
5
5
5
5
5
5
5
5
5
5
5
5
5
5
5
5
5
5
5
5
5
5
5
5
5
5
5
5
5
5
5
5
5
5
5
5
5
5
5
5
5
5
5
5
5
5
5
5
5
5
5
5
5
5
5
5
5
5
5
5
5
5
5
5
5
5
5
5
5
5
5
5
5
5
5
5
5
5
5
5
5
5
5
5
5
5
5
5
5
5
5
5
5
5
5
5
5
5
5
5
5
5
5
5
5
5
5
5
5
5
5
5
5
5
5
5
5
5
5
5
5
5
5
5
5
5
5
5
5
5
5
5
5
5
5
5
5
5
5
5
5
5
5
5
5
5
5
5
5
5
5
5
5
5
5
5
5
5
5
5
5
5
5
5
5
5
5
5
5
5
5
5
5
5
5
5
5
5
5
5
5
5
5
5
5
5
5
5
5
5
5
5
5
5
5
5
5
5
5
5
5
5
5
5
5
5
5
5
5
5
5
5
5
5
5
5
5
5
5
5
5
5
5
5
5
5
5
5
5
5
5
5
5
5
5
5
5
5
5
5
5
5
5
5
5
5
5
5
5
5
5
5
5
5
5
5
5
5
5
5
5
5
5
5
5
5
5
5
5
5
5
5
5
5
5
5
5
5
5
5
5
5
5
5
5
5
5
5
5
5
5
5
5
5
5
5
5
5
5
5
5
5
5
5
5
5
5
5
5
5
5
5
5
5
5
5
5
5
5
5
5
5
5
5
5
5
5
5
5
5
5
5
5
5
5
5
5
5
5
5
5
5
5
5
5
5
5
5
5
5
5
5
5
5
5
5
5
5
5
5
5
5
5
5
5
5
5
5
5
5
5
5
5
5
5
5
5
5
5
5
5
5
5
5
5
5
5
5
5
5
5
5
5
5
5
5
5
5
5
5
5
5
5
5
5
5
5
5
5
5
5
5
5
5
5
5
5
5
5
5
5
5
5
5
5
5
5
5
5
5
5
5
5
5
5
5
5
5
5
5
5
5
5
5
5
5
5
5
5
5
5
5
5
5
5
5
5
5
5
5
5
5
5
5
5
5
5
5
5
5
5
5
5
5
5
5
5
5
5
5
5
5
5
5
5
5
5
5
5
5
5
5
5
5
5
5
5
5
5
5
5
5
5
5
5
5
5
5
5
5
5
5
5
5
5
5
5
5
5
5
5
5
5
5
5
5
5
5
5
5
5
5
5
5
5
5
5
5
5
5
5
5
5
5
5
5
5
5
5
5

CELL_DATA 588
SCALARS cell_data_0 double
LOOKUP_TABLE default
7.72017021604e-08
4.38188286375e-08
3.37522645121e-08
3.89163629095e-09
1.36956638046e-09
2.24792016426e-11
2.6231070658e-09
9.59965024582e-10
6.06772408959e-10
8.62606600491e-10
6.35148411201e-10
1.36597736581e-09
1.25143541721e-09
2.1728469726e-09
9.19476109694e-11
2.28755320557e-09
1.02364791096e-09
2.86304343871e-09
1.04589791837e-09
1.9802990411e-09
1.69339320546e-09
2.24483424007e-09
6.72366269066e-10
2.35284332421e-09
1.38415613868e-09
2.29644371545e-09
1.31925180805e-09
2.51742929942e-09
1.39028168054e-09
2.36907535437e-09
1.42220101965e-09
2.31351043756e-09
5.20011698146e-10
2.68808135219e-09
3.14915614253e-11
1.8603022336e-09
1.72852443164e-11
7.09350661714e-10
3.31760877832e-10
1.53682264156e-10
1.4151807859e-11
7.09774202796e-10
3.05098544283e-09
4.77583379753e-10
9.75141835993e-10
1.77216615986e-08
2.33872719917e-08
3.21652267058e-08
1.4749719538e-09
3.95350349836e-10
2.03082933242e-09
1.34578661855e-11
3.84840219782e-09
3.45464581508e-10
1.1978457203e-10
1.06568674883e-10
1.81887685563e-10
1.09540347679e-09
9.88974352448e-10
5.2605672569e-10
1.48533799704e-09
4.3192788743e-10
1.95235987128e-09
4.39941228279e-10
1.19804985381e-08
6.99734936946e-09
1.03071392998e-08
3.909793587e-09
2.09022213785e-09
2.92759558691e-09
2.13255318743e-10
5.00945387751e-10
6.96178272475e-11
8.52339550857e-11
5.40091847068e-10
3.15996464653e-10
8.86909229423e-12
5.04398064006e-10
4.51659250415e-11
3.17080908745e-10
4.01767765019e-10
4.45944858227e-10
1.13227403794e-10
3.75551876719e-10
1.17101719887e-09
3.09438506724e-09
2.45046503919e-09
7.63940319758e-09
1.06367080076e-08
1.96932134032e-08
2.52920150963e-10
6.18150743933e-10
2.10925538534e-10
3.5540904457e-10
2.75870277102e-11
7.21388830656e-11
6.28910083244e-11
5.58453888314e-12
8.44706274319e-11
1.69324124552e-12
1.21207299979e-10
3.08401218994e-10
5.05918761497e-11
1.15710385721e-11
1.83472466088e-10
6.13528504235e-11
4.75431044976e-11
2.81034770927e-11
5.37354205338e-11
1.49120296754e-10
5.66286531413e-11
4.97344290288e-10
2.02152853099e-09
5.0381189607e-10
3.63685758923e-10
4.02119714653e-09
1.77433589104e-10
4.27008793537e-10
2.37801450587e-11
1.20537905876e-11
1.01286180455e-11
3.54067585934e-11
4.30122102492e-12
2.71650992472e-11
1.52363216722e-11
2.23071488345e-11
6.52483595566e-11
2.23305946084e-10
1.28264482819e-10
5.64074214711e-12
1.19594821462e-10
4.82796956843e-12
1.3276981536e-11
3.06153645496e-11
3.0980308122e-11
1.73762414794e-10
7.0427433515e-11
2.48906790194e-10
1.82850982111e-10
3.92166167708e-10
4.73479598347e-10
7.55316081011e-10
8.4126200205e-10
1.27840292535e-09
3.31516670957e-10
1.42468355864e-10
8.71683524907e-11
6.48986012754e-11
7.60397037035e-11
6.04554494227e-11
4.97255117226e-12
2.20582796574e-11
4.62955144641e-12
1.23465150619e-11
5.91895116412e-11
2.20397835782e-11
4.16620330482e-11
2.82567558123e-12
6.21053654307e-11
6.48043518427e-11
2.30240188502e-11
3.54379191683e-11
3.27986736555e-11
3.89672005016e-11
9.55584526997e-11
5.72632607179e-11
9.62088955618e-11
1.34229051349e-11
9.82580518738e-11
8.81311404418e-11
3.86314833202e-11
8.26281980569e-11
4.17803547709e-11
3.8454324784e-11
5.13020334835e-12
1.27028627676e-10
6.19434906528e-11
4.04304406511e-11
1.03339287588e-10
4.90442069601e-12
3.59422302088e-11
3.08506855688e-11
2.29311939816e-11
1.16191022765e-11
1.98484380427e-13
2.9539713744e-11
1.07844289218e-11
1.9894683473e-12
3.03982851042e-11
3.17261701842e-12
1.0858268063e-11
1.21869680116e-11
2.57937574284e-11
6.15978046156e-12
4.18631438331e-12
3.80615409769e-11
1.53980368473e-11
8.62862061226e-12
6.34654668753e-11
1.93221835684e-11
4.50129510603e-11
1.75890129876e-11
1.61402800937e-11
1.39624032947e-13
4.41090236361e-12
1.10566060976e-10
1.45411304625e-10
1.53861424429e-10
8.54573401713e-11
5.14818714351e-11
4.34997587812e-12
2.67570735443e-11
1.22934411499e-11
1.3160745912e-11
1.41286528303e-11
1.22670713185e-12
1.44713925992e-11
2.24714746355e-11
7.1740731048e-12
4.48718763662e-13
2.58435640264e-11
1.01203110468e-11
1.48913035136e-11
3.43482486971e-11
1.34947266485e-11
4.29740904086e-11
5.55705518293e-11
1.92698655652e-11
2.18132520618e-11
4.03405441051e-12
1.45137207427e-11
2.87594484932e-11
1.35128923473e-11
2.78897019247e-11
3.20326977381e-11
2.42835353798e-12
4.55306331776e-11
2.16051702662e-11
2.88558087816e-11
2.23415582452e-10
1.447329385e-10
4.57842217558e-11
1.52018249214e-10
1.96785276917e-11
3.02166210852e-11
1.86163531568e-12
4.03280625992e-13
1.41289655213e-11
2.54815245898e-11
4.89239117174e-12
2.74125792428e-13
1.33696698094e-12
1.40876218014e-11
2.41588545764e-12
2.6157401194e-12
9.48641289262e-12
3.73178056234e-11
4.14206869722e-12
1.67437426032e-11
1.70875721743e-11
1.13257091762e-11
4.01655477591e-12
8.42196423936e-12
2.00771719709e-12
1.70758832339e-11
1.13206664845e-12
1.05651673746e-11
8.9053095998e-12
2.03554362165e-11
1.86003536954e-11
5.01560900318e-11
3.25999441551e-11
4.87980115156e-11
1.98308070572e-10
1.23125470518e-10
5.1672621675e-12
2.00796219816e-11
6.06812526767e-12
5.64615266338e-12
7.30034335293e-12
1.76500055871e-12
8.82441521169e-12
1.36867862243e-11
8.94239171667e-12
2.34594419526e-12
8.15285071447e-12
5.8463226613e-13
2.04096341386e-11
1.41753767033e-11
2.14369512303e-11
1.38003060897e-11
3.78516830867e-12
2.85978429006e-12
6.08432566804e-13
1.00252774576e-11
9.03499486813e-12
8.26358812936e-12
3.16857785538e-11
2.0113211619e-11
1.28064644918e-10
2.91215678596e-10
3.23975356674e-10
1.15036798605e-10
2.18652453089e-11
9.84258366419e-12
5.7107213109e-12
2.45036078233e-12
3.44882606023e-12
9.71715710888e-12
1.70286353927e-12
2.8031528203e-12
1.60853316556e-12
5.47921158202e-12
8.89199657035e-12
2.22467761092e-11
5.09461226419e-12
1.5873646923e-11
4.66712342561e-12
5.99036852887e-12
1.43601878518e-12
4.83050300647e-12
3.63258786838e-12
2.74972187829e-11
1.8599684257e-10
3.3666635063e-10
3.83731218516e-10
1.54321433872e-10
5.49901968603e-11
6.78449201577e-11
6.73353309269e-12
4.66980932391e-12
3.25247844085e-13
2.98238328281e-12
3.28212531003e-12
8.48822222191e-12
2.3231312558e-12
6.57764822254e-12
1.56794338429e-12
4.13572826844e-12
6.56741439431e-12
4.43240904429e-11
2.82441167027e-11
4.3020132107e-12
5.0036633047e-10
6.37084133798e-10
6.36037743555e-11
1.25181553159e-10
4.14181122028e-11
4.38608723516e-12
1.87867259469e-12
4.68083210242e-12
1.01154801678e-12
5.17933026948e-12
5.97362601067e-11
1.15240111127e-10
2.65776372901e-10
4.94707851077e-10
4.74070608672e-10
2.97522995628e-10
8.02887635816e-11
1.03399881094e-10
5.67326432363e-11
9.81572935539e-11
1.59831149541e-10
5.03843377191e-11
1.24769960396e-10
1.26968929521e-09
4.26487902029e-10
1.26268890081e-09
1.68127580519e-10
9.34663050803e-10
1.26473306344e-10
1.25955764677e-09
1.26359071421e-10
1.17196044665e-09
4.15751729082e-10
1.01738423657e-09
2.2240428883e-10
1.2050772803e-09
6.49728908082e-10
5.86174366554e-10
5.69709655789e-11
6.57205344602e-12
1.61029917807e-10
4.08770923758e-10
7.38709601621e-10
5.43050037688e-09
6.72478774475e-09
5.86629846352e-10
8.22562403691e-09
1.18678337884e-08
3.88484735419e-09
2.39128384185e-08
1.28708644817e-08
2.15804169043e-09
1.45326983688e-09
2.83582457755e-09
1.16149477993e-09
2.17354804413e-10
8.29150571063e-11
3.1345932678e-10
3.93113541393e-10
1.21211229276e-11
2.18358890102e-11
5.20965832227e-12
7.866528926e-11
8.56964338062e-11
7.57643127344e-10
3.0631080466e-10
1.21208542093e-09
2.11461287346e-10
1.05879080551e-09
1.06478156117e-10
1.41072752199e-09
1.77537569173e-10
1.03221299789e-09
4.03316676741e-08
1.16115496718e-09
2.49362728346e-08
4.09114140508e-08
3.9924657865e-08
2.72228208091e-08
4.04508495966e-08
1.13569456542e-08
6.73262851826e-08
7.37062285877e-08
3.0593662515e-08
6.1646460536e-08
2.01931401315e-08
1.81802358952e-08
2.00131579759e-08
2.10448470426e-08
2.0963636892e-08
2.2306584578e-08
4.38078374091e-08
1.7468325813e-08
1.18923850634e-08
1.55836006865e-08
1.99314755204e-08
1.29296010472e-09
4.92043710628e-10
2.66250915869e-10
2.64869243424e-09
2.44337334182e-09
2.4791956422e-09
8.63731713239e-09
2.17776734154e-09
5.57656997203e-10
3.46848888933e-09
8.11631172083e-10
2.1024278599e-09
7.26052908674e-09
1.78896716809e-09
1.88972265158e-09
1.65718040054e-10
4.37933105039e-10
7.43627157243e-10
2.26019374914e-09
5.83429458132e-10
6.85168538972e-10
1.32086189127e-09
9.89862942006e-10
9.81299848475e-10
9.64641380096e-11
1.93597715829e-10
1.94494996124e-10
6.37625705432e-11
1.77729301484e-10
3.4448551873e-10
9.92563768063e-11
8.39681141976e-10
5.9940711496e-10
4.02310204733e-10
2.56980475788e-10
7.7063942477e-10
3.67199304912e-10
7.78594590836e-10
5.0127571793e-10
1.35412898021e-09
7.35300662135e-11
1.55290736046e-09
3.92864494124e-10
1.91301258024e-09
7.68181201854e-10
1.46245125123e-10
4.85739910109e-10
1.2007587695e-11
5.48429658819e-11
1.44869668546e-09
3.80458340214e-10
1.35973474787e-09
5.56518916925e-10
1.44053576295e-09
2.39011407695e-10
5.42955029562e-10
8.8572404088e-10
7.02110514619e-10
5.0800626379e-10
1.10854061602e-09
2.09035912366e-09
4.47064258237e-10
3.80685101408e-10
9.10178290158e-11
7.87648218081e-11
1.06852711797e-10
5.0331598736e-10
3.69924846738e-10
1.28299560546e-09
2.56536311545e-11
5.87750353373e-10
3.1622446656e-10
2.32093818505e-09
1.78798272292e-09
6.62900812823e-10
1.5854719243e-10
1.31024533933e-09
1.42136605762e-09
4.39641786043e-11
1.55066234212e-09
6.05631084159e-10
8.06090052247e-10
1.6617540624e-09
4.73331887772e-10
1.15465994251e-10
5.57890156877e-11
1.20302436168e-09
2.23693602657e-09
4.3703712246e-10
1.83151490641e-09
8.18523145857e-10
7.50926211876e-10
5.82417614815e-10
1.00919396559e-09
2.08472815056e-09
1.9190127864e-10
2.56343829462e-09
7.18677583256e-10
1.61375179992e-10
3.27408449607e-09
1.64220893929e-10
1.03432454501e-09
1.87531895115e-09
1.66434525639e-09
1.40416272398e-09
2.38505145253e-09
7.56492692793e-10
2.01535615822e-09
1.06935795135e-09
1.24230996168e-09
1.50336140467e-10
1.04184952245e-09
5.13674113834e-10
1.31529633169e-10
1.52181852288e-10
8.77978643587e-11
3.92300202332e-10
1.60275331619e-09
4.59303322253e-09
2.14404326448e-08
2.38385870319e-08
1.21428615622e-08
5.5886482629e-08
3.60399862953e-08
4.95244257515e-09
6.1968310586e-10
1.42304954195e-08
1.13209467148e-08
1.54202487671e-08
3.067995722e-08
2.31290310391e-08
4.41045152717e-10
2.33812525096e-10
2.75687804485e-10
1.60872164705e-09
4.1010128728e-10
8.34780045369e-11
3.36353779829e-10
3.95810581818e-10
1.06682825481e-09
7.15936143615e-10
1.93029616204e-09
2.40356931133e-09
1.39204495451e-09
1.28630520177e-09
1.74941940249e-09
1.61649214587e-09
1.33586525762e-09
1.89166213547e-09

