# vtk DataFile Version 3.0
File Name: Molecule/methanol/methanol_12.0-0.vtk
ASCII
DATASET UNSTRUCTURED_GRID
FIELD FieldData 1
TIME 1 1 double
0.0
POINTS 601 double
1.611 0.0 -0.359
1.582 -0.31 -0.356
1.475 0.0 -0.634
1.448 -0.29 -0.632
1.403 0.0 -0.933
1.377 -0.282 -0.93
1.498 -0.608 -0.348
1.369 -0.57 -0.624
1.3 -0.554 -0.923
1.36 -0.887 -0.334
1.24 -0.83 -0.611
1.174 -0.808 -0.91
1.173 -1.135 -0.315
1.066 -1.062 -0.594
1.004 -1.034 -0.893
0.945 -1.344 -0.292
0.852 -1.258 -0.572
0.796 -1.224 -0.872
0.682 -1.508 -0.266
0.605 -1.411 -0.548
0.557 -1.374 -0.849
0.393 -1.62 -0.238
0.335 -1.517 -0.521
0.294 -1.476 -0.822
0.089 -1.677 -0.207
0.051 -1.57 -0.493
0.017 -1.528 -0.795
-0.22 -1.677 -0.176
-0.239 -1.57 -0.464
-0.265 -1.528 -0.767
-0.524 -1.62 -0.146
-0.523 -1.517 -0.435
-0.542 -1.476 -0.739
-0.813 -1.508 -0.117
-0.793 -1.411 -0.408
-0.805 -1.374 -0.713
-1.075 -1.344 -0.091
-1.039 -1.258 -0.384
-1.044 -1.224 -0.689
-1.304 -1.135 -0.069
-1.253 -1.062 -0.363
-1.252 -1.034 -0.668
-1.49 -0.887 -0.05
-1.428 -0.83 -0.345
-1.422 -0.808 -0.651
-1.628 -0.608 -0.036
-1.557 -0.57 -0.332
-1.548 -0.554 -0.639
-1.713 -0.31 -0.028
-1.636 -0.29 -0.324
-1.625 -0.282 -0.631
-1.742 0.0 -0.025
-1.663 0.0 -0.322
-1.651 0.0 -0.629
-1.713 0.31 -0.028
-1.636 0.29 -0.324
-1.625 0.282 -0.631
-1.628 0.608 -0.036
-1.557 0.57 -0.332
-1.548 0.554 -0.639
-1.49 0.887 -0.05
-1.428 0.83 -0.345
-1.422 0.808 -0.651
-1.304 1.135 -0.069
-1.253 1.062 -0.363
-1.252 1.034 -0.668
-1.075 1.344 -0.091
-1.039 1.258 -0.384
-1.044 1.224 -0.689
-0.813 1.508 -0.117
-0.793 1.411 -0.408
-0.805 1.374 -0.713
-0.524 1.62 -0.146
-0.523 1.517 -0.435
-0.542 1.476 -0.739
-0.22 1.677 -0.176
-0.239 1.57 -0.464
-0.265 1.528 -0.767
0.089 1.677 -0.207
0.051 1.57 -0.493
0.017 1.528 -0.795
0.393 1.62 -0.238
0.335 1.517 -0.521
0.294 1.476 -0.822
0.682 1.508 -0.266
0.605 1.411 -0.548
0.557 1.374 -0.849
0.945 1.344 -0.292
0.852 1.258 -0.572
0.796 1.224 -0.872
1.173 1.135 -0.315
1.066 1.062 -0.594
1.004 1.034 -0.893
1.36 0.887 -0.334
1.24 0.83 -0.611
1.174 0.808 -0.91
1.498 0.608 -0.348
1.369 0.57 -0.624
1.3 0.554 -0.923
1.582 0.31 -0.356
1.448 0.29 -0.632
1.377 0.282 -0.93
1.907 0.0 0.656
1.883 0.295 0.656
1.883 0.148 0.911
1.883 -0.148 0.911
1.883 -0.295 0.656
1.883 -0.148 0.4
1.883 0.148 0.4
1.814 0.505 0.947
1.814 0.292 1.161
1.814 -0.0 1.239
1.814 -0.292 1.161
1.814 -0.505 0.947
1.814 -0.583 0.656
1.814 -0.505 0.364
1.814 -0.292 0.15
1.814 -0.0 0.072
1.814 0.292 0.15
1.814 0.505 0.364
1.814 0.583 0.656
1.701 0.805 0.949
1.701 0.656 1.206
1.701 0.428 1.398
1.701 0.149 1.499
1.701 -0.149 1.499
1.701 -0.428 1.398
1.701 -0.656 1.206
1.701 -0.805 0.949
1.701 -0.857 0.656
1.701 -0.805 0.363
1.701 -0.656 0.105
1.701 -0.428 -0.087
1.701 -0.149 -0.188
1.701 0.149 -0.188
1.701 0.428 -0.087
1.701 0.656 0.105
1.701 0.805 0.363
1.701 0.857 0.656
1.546 1.072 0.943
1.546 0.961 1.21
1.546 0.784 1.44
1.546 0.555 1.616
1.546 0.287 1.727
1.546 0.0 1.765
1.546 -0.287 1.727
1.546 -0.555 1.616
1.546 -0.784 1.44
1.546 -0.961 1.21
1.546 -1.072 0.943
1.546 -1.109 0.656
1.546 -1.072 0.368
1.546 -0.961 0.101
1.546 -0.784 -0.129
1.546 0.784 -0.129
1.546 0.961 0.101
1.546 1.072 0.368
1.546 1.109 0.656
1.354 1.301 0.953
1.354 1.202 1.235
1.354 1.043 1.488
1.354 0.832 1.699
1.354 0.579 1.858
1.354 0.297 1.957
1.354 0.0 1.99
1.354 -0.297 1.957
1.354 -0.579 1.858
1.354 -0.832 1.699
1.354 -1.043 1.488
1.354 -1.202 1.235
1.354 -1.301 0.953
1.354 -1.335 0.656
1.354 -1.301 0.359
1.354 -1.202 0.077
1.354 -1.043 -0.177
1.354 1.043 -0.177
1.354 1.202 0.077
1.354 1.301 0.359
1.354 1.335 0.656
1.128 1.499 0.945
1.128 1.418 1.223
1.128 1.285 1.481
1.128 1.105 1.709
1.128 0.886 1.899
1.128 0.634 2.045
1.128 0.36 2.14
1.128 0.073 2.181
1.128 -0.217 2.167
1.128 -0.499 2.099
1.128 -0.764 1.978
1.128 -1.0 1.81
1.128 -1.2 1.6
1.128 -1.357 1.355
1.128 -1.465 1.086
1.128 -1.52 0.801
1.128 -1.52 0.51
1.128 -1.465 0.225
1.128 -1.357 -0.044
1.128 1.285 -0.17
1.128 1.418 0.088
1.128 1.499 0.367
1.128 1.527 0.656
0.876 1.656 0.948
0.876 1.58 1.231
0.876 1.456 1.496
0.876 1.288 1.737
0.876 1.081 1.944
0.876 0.841 2.112
0.876 0.575 2.236
0.876 0.292 2.312
0.876 0.0 2.337
0.876 -0.292 2.312
0.876 -0.575 2.236
0.876 -0.841 2.112
0.876 -1.081 1.944
0.876 -1.288 1.737
0.876 -1.456 1.496
0.876 -1.58 1.231
0.876 -1.656 0.948
0.876 -1.682 0.656
0.876 -1.656 0.364
0.876 -1.58 0.08
0.876 1.58 0.08
0.876 1.656 0.364
0.876 1.682 0.656
0.602 1.771 0.951
0.602 1.698 1.238
0.602 1.579 1.51
0.602 1.417 1.758
0.602 1.216 1.976
0.602 0.982 2.158
0.602 0.721 2.3
0.602 0.441 2.396
0.602 0.148 2.445
0.602 -0.148 2.445
0.602 -0.441 2.396
0.602 -0.721 2.3
0.602 -0.982 2.158
0.602 -1.216 1.976
0.602 -1.417 1.758
0.602 -1.579 1.51
0.602 -1.698 1.238
0.602 -1.771 0.951
0.602 -1.795 0.656
0.602 -1.771 0.36
0.602 -1.698 0.073
0.602 1.698 0.073
0.602 1.771 0.36
0.602 1.795 0.656
0.314 1.841 0.947
0.314 1.773 1.232
0.314 1.661 1.502
0.314 1.508 1.751
0.314 1.318 1.974
0.314 1.096 2.164
0.314 0.846 2.317
0.314 0.576 2.429
0.314 0.292 2.497
0.314 -0.0 2.52
0.314 -0.292 2.497
0.314 -0.576 2.429
0.314 -0.846 2.317
0.314 -1.096 2.164
0.314 -1.318 1.974
0.314 -1.508 1.751
0.314 -1.661 1.502
0.314 -1.773 1.232
0.314 -1.841 0.947
0.314 -1.864 0.656
0.314 -1.841 0.364
0.314 -1.773 0.08
0.314 1.773 0.08
0.314 1.841 0.364
0.314 1.864 0.656
0.019 1.865 0.944
0.019 1.8 1.225
0.019 1.692 1.493
0.019 1.544 1.742
0.019 1.36 1.964
0.019 1.144 2.157
0.019 0.902 2.314
0.019 0.638 2.432
0.019 0.359 2.509
0.019 0.072 2.542
0.019 -0.216 2.531
0.019 -0.5 2.476
0.019 -0.772 2.378
0.019 -1.026 2.24
0.019 -1.256 2.065
0.019 -1.456 1.857
0.019 -1.622 1.62
0.019 -1.751 1.361
0.019 -1.838 1.086
0.019 -1.882 0.8
0.019 -1.882 0.511
0.019 -1.838 0.226
0.019 -1.751 -0.05
0.019 1.8 0.086
0.019 1.865 0.367
0.019 1.888 0.656
-0.276 1.864 0.656
-0.276 1.841 0.947
-0.276 1.773 1.232
-0.276 1.661 1.502
-0.276 1.508 1.751
-0.276 1.318 1.974
-0.276 1.096 2.164
-0.276 0.846 2.317
-0.276 0.576 2.429
-0.276 0.292 2.497
-0.276 -0.0 2.52
-0.276 -0.292 2.497
-0.276 -0.576 2.429
-0.276 -0.846 2.317
-0.276 -1.096 2.164
-0.276 -1.318 1.974
-0.276 -1.508 1.751
-0.276 -1.661 1.502
-0.276 -1.773 1.232
-0.276 -1.841 0.947
-0.276 -1.864 0.656
-0.276 -1.841 0.364
-0.276 -1.773 0.08
-0.276 1.773 0.08
-0.276 1.841 0.364
-0.564 1.795 0.656
-0.564 1.771 0.951
-0.564 1.698 1.238
-0.564 1.579 1.51
-0.564 1.417 1.758
-0.564 1.216 1.976
-0.564 0.982 2.158
-0.564 0.721 2.3
-0.564 0.441 2.396
-0.564 0.148 2.445
-0.564 -0.148 2.445
-0.564 -0.441 2.396
-0.564 -0.721 2.3
-0.564 -0.982 2.158
-0.564 -1.216 1.976
-0.564 -1.417 1.758
-0.564 -1.579 1.51
-0.564 -1.698 1.238
-0.564 -1.771 0.951
-0.564 -1.795 0.656
-0.564 -1.771 0.36
-0.564 -1.698 0.073
-0.564 1.698 0.073
-0.564 1.771 0.36
-0.838 1.682 0.656
-0.838 1.656 0.948
-0.838 1.58 1.231
-0.838 1.456 1.496
-0.838 1.288 1.737
-0.838 1.081 1.944
-0.838 0.841 2.112
-0.838 0.575 2.236
-0.838 0.292 2.312
-0.838 0.0 2.337
-0.838 -0.292 2.312
-0.838 -0.575 2.236
-0.838 -0.841 2.112
-0.838 -1.081 1.944
-0.838 -1.288 1.737
-0.838 -1.456 1.496
-0.838 -1.58 1.231
-0.838 -1.656 0.948
-0.838 -1.682 0.656
-0.838 -1.656 0.364
-0.838 -1.58 0.08
-0.838 1.58 0.08
-0.838 1.656 0.364
-1.09 1.527 0.656
-1.09 1.499 0.945
-1.09 1.418 1.223
-1.09 1.285 1.481
-1.09 1.105 1.709
-1.09 0.886 1.899
-1.09 0.634 2.045
-1.09 0.36 2.14
-1.09 0.073 2.181
-1.09 -0.217 2.167
-1.09 -0.499 2.099
-1.09 -0.764 1.978
-1.09 -1.0 1.81
-1.09 -1.2 1.6
-1.09 -1.357 1.355
-1.09 -1.465 1.086
-1.09 -1.52 0.801
-1.09 -1.52 0.51
-1.09 -1.465 0.225
-1.09 1.418 0.088
-1.09 1.499 0.367
-1.316 1.335 0.656
-1.316 1.301 0.953
-1.316 1.202 1.235
-1.316 1.043 1.488
-1.316 0.832 1.699
-1.316 0.579 1.858
-1.316 0.297 1.957
-1.316 0.0 1.99
-1.316 -0.297 1.957
-1.316 -0.579 1.858
-1.316 -0.832 1.699
-1.316 -1.043 1.488
-1.316 -1.202 1.235
-1.316 -1.301 0.953
-1.316 -1.335 0.656
-1.316 -1.301 0.359
-1.316 -1.202 0.077
-1.316 1.202 0.077
-1.316 1.301 0.359
-1.508 1.109 0.656
-1.508 1.072 0.943
-1.508 0.961 1.21
-1.508 0.784 1.44
-1.508 0.555 1.616
-1.508 0.287 1.727
-1.508 0.0 1.765
-1.508 -0.287 1.727
-1.508 -0.555 1.616
-1.508 -0.784 1.44
-1.508 -0.961 1.21
-1.508 -1.072 0.943
-1.508 -1.109 0.656
-1.508 -1.072 0.368
-1.508 -0.961 0.101
-1.508 0.961 0.101
-1.508 1.072 0.368
-1.663 0.857 0.656
-1.663 0.805 0.949
-1.663 0.656 1.206
-1.663 0.428 1.398
-1.663 0.149 1.499
-1.663 -0.149 1.499
-1.663 -0.428 1.398
-1.663 -0.656 1.206
-1.663 -0.805 0.949
-1.663 -0.857 0.656
-1.663 -0.805 0.363
-1.663 0.805 0.363
-1.776 0.583 0.656
-1.776 0.505 0.947
-1.776 0.292 1.161
-1.776 -0.0 1.239
-1.776 -0.292 1.161
-1.776 -0.505 0.947
-1.776 -0.583 0.656
-1.776 -0.505 0.364
-1.776 0.505 0.364
-1.845 0.295 0.656
-1.845 0.148 0.911
-1.845 -0.148 0.911
-1.845 -0.295 0.656
-1.845 -0.148 0.4
-1.776 -0.292 0.15
-1.776 0.292 0.15
-1.845 0.148 0.4
-1.868 -0.0 0.656
1.298 -0.294 -1.246
1.157 -0.653 -1.285
1.157 -0.426 -1.476
1.157 -0.148 -1.577
1.298 -0.0 -1.325
1.157 0.148 -1.577
1.298 0.294 -1.246
1.157 0.426 -1.476
1.157 0.653 -1.285
0.966 -0.996 -1.17
0.966 -0.842 -1.422
0.966 -0.626 -1.624
0.966 -0.363 -1.76
0.966 -0.074 -1.82
0.966 0.221 -1.8
0.966 0.499 -1.701
0.966 0.741 -1.53
0.966 0.927 -1.301
0.733 -1.199 -1.174
0.733 -1.066 -1.439
0.733 -0.876 -1.666
0.733 -0.638 -1.843
0.733 -0.366 -1.96
0.733 -0.074 -2.011
0.733 0.222 -1.994
0.733 0.506 -1.909
0.733 0.762 -1.761
0.733 0.978 -1.558
0.733 1.141 -1.31
0.468 -1.387 -1.032
0.468 -1.296 -1.314
0.468 -1.147 -1.571
0.468 -0.949 -1.791
0.468 -0.709 -1.965
0.468 -0.438 -2.086
0.468 -0.148 -2.148
0.468 0.148 -2.148
0.468 0.438 -2.086
0.468 0.709 -1.965
0.468 0.949 -1.791
0.468 1.147 -1.571
0.468 1.296 -1.314
0.733 1.242 -1.032
0.468 1.387 -1.032
0.18 -1.477 -1.031
0.18 -1.391 -1.313
0.18 -1.252 -1.574
0.18 -1.065 -1.802
0.18 -0.836 -1.989
0.18 -0.576 -2.128
0.18 -0.294 -2.214
0.18 0.0 -2.243
0.18 0.294 -2.214
0.18 0.576 -2.128
0.18 0.836 -1.989
0.18 1.065 -1.802
0.18 1.252 -1.574
0.18 1.391 -1.313
0.18 1.477 -1.031
-0.12 -1.473 -1.17
-0.12 -1.364 -1.441
-0.12 -1.207 -1.686
-0.12 -1.005 -1.897
[...]
CELL_DATA 1198
SCALARS cell_data_0 double
LOOKUP_TABLE default
1.85448622996e-09
1.60972064506e-09
8.38940466294e-10
1.4229665714e-10
1.79726486075e-10
3.92317963404e-10
2.02598091764e-10
6.94648088354e-10
2.26199875448e-11
1.26603031376e-11
1.52887264148e-10
2.09784922489e-10
1.17429920301e-10
7.24495546962e-11
1.70899872778e-11
3.3216450973e-11
8.5483253978e-12
1.74239311689e-11
9.91339875495e-11
7.20784068999e-11
1.11314846842e-12
6.68417978571e-12
1.38460943712e-11
1.36566567821e-12
1.29291548371e-11
1.50481364845e-11
1.89031457993e-11
4.90752103952e-11
4.69029131853e-11
1.91238027536e-11
4.2969085109e-11
8.17031311881e-11
7.44824988572e-11
3.08168427334e-11
6.62660919205e-11
7.59822209942e-11
1.1985954585e-10
2.56934500367e-11
7.56541603857e-11
8.19178179837e-11
1.33109752202e-10
5.90405631533e-11
5.77849476321e-11
1.23553481894e-10
1.17812048344e-10
3.15144901709e-11
9.52581248696e-11
1.48626359026e-10
1.12679693559e-10
8.67593466611e-11
4.70879379804e-11
1.92619438961e-10
2.45761448594e-10
1.53632835317e-10
1.54782195238e-10
2.11716200835e-10
1.94834625443e-10
2.55535202333e-11
1.26462246906e-10
1.43674049558e-10
1.8795330885e-10
1.2487309524e-10
1.14820765384e-10
1.18220201157e-10
2.12444252685e-10
1.15256299604e-11
1.11326162346e-10
1.130241767e-10
2.16852651461e-10
1.29830178891e-10
1.09278592541e-10
1.11031311716e-10
2.05641839171e-10
2.88766193309e-11
1.18565339617e-10
1.0546897515e-10
1.641452741e-10
1.05254676637e-10
8.23342723964e-11
1.7978580034e-10
2.58211331985e-10
7.89683355811e-11
1.79365676252e-10
1.7888051091e-10
2.13868209325e-10
7.22594633099e-11
7.18801431925e-11
7.6570923629e-11
1.33229403162e-10
1.2900109494e-12
7.45022149533e-11
8.59716456151e-11
1.08230319935e-10
4.63215785491e-11
7.85002026102e-11
8.67727986924e-11
1.10278701498e-10
2.37183281886e-11
5.76920459573e-11
7.72097122904e-11
7.65420220782e-11
1.60646369977e-11
6.32654961053e-11
7.02761962592e-11
3.59976260129e-11
1.99341615483e-11
9.39442906632e-12
7.11226142687e-11
2.02222577179e-11
7.43446721807e-12
4.53684928546e-11
2.67581148081e-11
2.07515405608e-12
1.33185837836e-12
6.64891093755e-12
7.32463740699e-12
3.01909921233e-11
2.35969274171e-11
5.1663156856e-11
5.09017130478e-11
2.48377083174e-11
3.2566702246e-11
1.47470597686e-10
1.52628540356e-10
3.04934924983e-10
3.42819720119e-11
6.77645450747e-10
2.87268969847e-10
4.17561198663e-10
1.56189333867e-10
7.83666834144e-11
1.65951848093e-10
2.10700412117e-10
9.42866094903e-10
5.33995928005e-10
6.85818790165e-10
1.39445928552e-11
4.11079071874e-12
1.13043889959e-11
5.67170321952e-12
1.59472835573e-11
1.14283170481e-12
7.44173968171e-12
2.87241029719e-14
5.88494616329e-13
5.53949364548e-12
2.50790939875e-12
4.59480113757e-14
6.37725227481e-12
2.87296935561e-12
1.04369531689e-11
1.42419081558e-11
6.97888517795e-11
1.11554039584e-10
2.93257116146e-11
1.46047439124e-11
3.56168632695e-11
7.4113724313e-12
9.4264986764e-12
7.60004848492e-12
5.12157595408e-14
1.30712021468e-12
2.12415415373e-13
2.75318182254e-13
5.58885072386e-12
4.96829126686e-12
4.06868708908e-13
2.75033045508e-12
3.00735967732e-12
3.23220472572e-13
2.85610869136e-12
4.23446827982e-12
7.21498434688e-12
1.28029403199e-11
9.47045431144e-12
3.40007607714e-11
2.13258579873e-11
6.52964316942e-11
3.77546489928e-12
1.58819449863e-10
3.43547842977e-11
2.28922203577e-10
8.21942754476e-11
1.03412241829e-10
1.07975144761e-11
1.40508030832e-11
4.49160311426e-12
2.08113092358e-13
7.5957196596e-13
9.23289392366e-13
2.42323536206e-12
1.17239390112e-12
1.54521703101e-12
2.62237065443e-12
2.23113255745e-12
3.08772423445e-12
2.00371250033e-12
2.02164767538e-12
6.26446436915e-13
1.71342051847e-13
3.71158520777e-12
4.27982569329e-12
6.29152916848e-13
2.99668483838e-12
2.35557304065e-12
4.89834560544e-12
4.52597090654e-12
5.28733204463e-12
1.10324645073e-13
9.09304648679e-12
5.69790150339e-12
4.17458795903e-11
2.66869356277e-11
8.56600373879e-11
1.52998979812e-10
1.33041518544e-10
3.46081904839e-11
5.94812719799e-13
4.50575704881e-12
5.65586793363e-12
1.89817501366e-12
4.93012242865e-12
3.85766468604e-12
1.13774333163e-12
5.62942640865e-13
1.06366164278e-12
1.60307984563e-12
5.40283314733e-13
2.9892751497e-13
2.28177429157e-12
2.17305256268e-13
2.44391124344e-12
4.00626524501e-12
8.26813678516e-13
8.4138699287e-13
1.81418991256e-12
9.04239787507e-14
2.59550597745e-12
2.30937388925e-12
1.94519240866e-12
9.73883405954e-13
1.33600764675e-12
3.38690181885e-12
1.01272218166e-12
3.75937332041e-12
2.32061186853e-12
4.61064279325e-12
1.34327391835e-11
3.38084418334e-12
2.0916090429e-11
3.47529816618e-12
8.27239184559e-11
1.28890443637e-10
1.47597725005e-10
1.43492287752e-11
8.64353921064e-12
6.48145380632e-12
4.62530159146e-12
7.4931516716e-13
1.62508708771e-12
4.53425399562e-12
9.63259874525e-13
1.2066820109e-12
5.46275532163e-13
1.47479032414e-12
1.02358589852e-12
9.5554036231e-14
4.87232967988e-13
1.02611155314e-13
2.81161226605e-12
3.71760663394e-12
2.89928642669e-12
1.29705046328e-12
1.33856697668e-12
2.28839833465e-13
5.32588872205e-13
2.65626359009e-12
3.39562496461e-13
1.55311874351e-12
6.76390310893e-13
1.47054092661e-12
2.26568419254e-12
4.16383127251e-12
1.31730233103e-12
1.12413754907e-12
2.34853961552e-12
9.79716569999e-13
3.05971447231e-12
1.85783045075e-12
6.76044005231e-12
1.50652032117e-12
1.03134036738e-11
1.58250224656e-11
1.12830585163e-11
4.28736185293e-11
7.65056671093e-11
1.30465827417e-11
2.39839089154e-12
7.91897307407e-13
1.54659146146e-12
3.07984042586e-12
3.55804982677e-12
5.03777978013e-12
9.03728280549e-13
1.57092640661e-12
4.27321837488e-13
1.40516018329e-12
7.21701943186e-13
4.39076838492e-13
3.57639305182e-13
8.01672951656e-13
2.70360685078e-15
1.02697450933e-12
7.59392270382e-14
3.43856622552e-13
7.52921966936e-13
1.44568697286e-12
9.49908378489e-13
9.27375720232e-13
2.32163584768e-13
4.61374359239e-13
1.60178469284e-12
3.11837263077e-12
2.62824644294e-12
5.15131992498e-13
5.61299151096e-13
9.70108394857e-13
1.73096053092e-12
4.51889500289e-13
3.86227486511e-13
2.53595770303e-13
5.64088226218e-13
2.70881435741e-12
2.39319210315e-14
2.4119320079e-12
1.44876226954e-12
9.01338090023e-12
5.56385690242e-12
1.93369205063e-12
9.91771686134e-13
1.37011436682e-11
9.53520179863e-14
4.24715133684e-12
7.88712347112e-13
4.02366226405e-12
4.84540030782e-12
1.94209301605e-13
2.70689598577e-12
4.06193931625e-13
2.20404630237e-13
1.54936619204e-14
9.10135480186e-13
2.61311025013e-13
8.74809716958e-14
7.19369873177e-13
6.57740824705e-15
1.1240623776e-12
6.00356157455e-13
9.35899329321e-13
3.13444301918e-13
4.34273462879e-13
7.96414924782e-13
4.80792241186e-14
4.27422105092e-13
2.45680419782e-13
1.40729040593e-12
7.81489378977e-14
7.75603946541e-13
2.79013123644e-13
1.19745717251e-12
3.84290072723e-13
8.24888482264e-13
1.30237301807e-13
1.06663712638e-12
3.67146707358e-13
6.70526479319e-13
1.12852434353e-13
3.80183111202e-12
1.74502154446e-12
2.52000105067e-12
8.53097387624e-13
2.32185799472e-12
2.72839447667e-12
6.77543375467e-13
8.48193100697e-13
7.76166058361e-13
5.13936639174e-13
1.28254263415e-12
1.0401546585e-12
1.8121327985e-12
2.98888779428e-12
1.54686197659e-13
4.39467614204e-13
1.98595412894e-13
2.1076717485e-12
2.33184520594e-13
9.51350686922e-13
1.15638624614e-13
1.60444139718e-12
4.54902497703e-13
1.17748905444e-12
1.42799338519e-13
1.09294682496e-12
4.76968780361e-13
1.15896909229e-12
7.11617522314e-13
8.47161591627e-13
8.38337194071e-13
7.22428217373e-13
1.16566812939e-12
5.89584386446e-13
1.02748938387e-12
1.14434517013e-13
1.16890158563e-12
1.97945266455e-13
1.2642074299e-12
3.0380746739e-14
1.07146001702e-12
4.11187988727e-13
5.16167263059e-13
1.64638401982e-13
3.44091103731e-13
2.38990675912e-12
9.5386317487e-13
2.2498100897e-12
5.27906868572e-13
2.16044765135e-12
1.31087924409e-12
4.44842705953e-13
9.98252089842e-13
1.87056345138e-13
2.32802561101e-12
1.4019145569e-12
3.80734320176e-13
1.51653015571e-12
1.29800935798e-12
2.12166781953e-12
3.63994234108e-12
7.52058001582e-13
1.64166550324e-12
8.89530166586e-13
4.00609937965e-15
7.55445931426e-13
1.23231728308e-12
8.02480096896e-13
1.01814063223e-12
5.17569549529e-13
1.20896954402e-12
5.54781020094e-13
1.15365726236e-12
3.53913250102e-13
1.20834211125e-12
1.67484874267e-13
9.77094269655e-13
1.30189304686e-13
5.70390126967e-13
3.19255749838e-14
2.33364930935e-13
9.47586146688e-14
9.84845136304e-15
2.01091211884e-13
2.02850896997e-13
3.8646701471e-13
2.98916437182e-13
3.34635448743e-13
4.00910723282e-13
6.79456629666e-13
1.61028881178e-14
5.65852294145e-14
1.07183276461e-12
7.18058345215e-13
7.4090959544e-13
6.2528075006e-13
8.97943790339e-13
4.11321913375e-13
1.25986383547e-13
1.99364818062e-13
9.56256731749e-13
2.57811154701e-12
1.75696703485e-11
2.07049825569e-11
3.02910664641e-11
5.422518926e-13
5.02485915624e-13
3.25867146579e-13
1.29548596279e-12
1.3055240948e-12
6.68227892419e-13
9.08263673027e-13
1.45901666507e-12
1.41960895333e-13
8.03736996897e-13
9.35886837914e-13
1.99442281348e-12
4.01681361454e-13
1.17278224709e-12
4.07687622982e-13
1.81928129735e-12
5.19254290808e-13
1.45882498227e-12
5.06744999553e-14
1.1748487075e-12
2.25344266293e-13
8.57149267414e-13
3.01311080692e-13
4.5876635922e-13
2.73322200491e-13
7.85425349177e-14
1.17775198519e-15
6.80393700998e-14
2.82234867721e-13
1.67221435453e-13
1.52420899323e-14
6.95595347278e-13
2.88453560295e-13
5.92211744714e-13
3.60421837346e-14
4.4268639634e-13
3.97372844618e-13
1.04636403527e-12
6.63393011306e-13
4.35964951682e-13
3.47207573055e-13
7.59768229244e-13
3.69240947709e-13
4.42229354792e-14
1.3639195917e-13
6.1285224613e-14
1.89609060042e-12
1.87726701029e-11
3.45497019957e-11
4.44767931589e-11
1.90833352317e-11
3.2643564087e-12
1.4082147954e-12
1.07456101791e-13
6.96567490692e-13
3.35291420972e-13
9.1826879657e-14
1.7213649813e-13
2.96356004244e-13
3.95966230842e-14
3.0248723459e-14
3.08526964917e-13
6.68150035119e-13
4.84729558856e-13
5.64282083764e-13
4.07198007366e-13
6.29109259262e-13
1.34743494191e-13
7.55829947061e-13
2.43118378209e-13
7.91666992981e-13
3.77128445258e-13
5.693186665e-13
6.05405896121e-13
3.73429785738e-13
8.70090611779e-13
2.8380367576e-13
7.67359283692e-13
7.0067245829e-14
1.89229323289e-13
2.55015325075e-13
4.30516449446e-13
4.48284513758e-13
5.47601795693e-13
1.24938554817e-13
3.30541466122e-13
2.00062057774e-13
6.82278206594e-13
4.86312022774e-14
2.90010034945e-13
2.19591327144e-13
2.01324023135e-13
1.60766336457e-14
1.22389439581e-12
2.78075586136e-13
1.22245701711e-11
4.10095288448e-11
4.2740674964e-11
1.65712696535e-11
1.18966078466e-12
1.7953895071e-12
5.18367464096e-13
1.76655771803e-13
1.60397661064e-13
2.28245605058e-13
3.13400723463e-13
7.58770987266e-14
3.05385089191e-13
4.07497429582e-13
2.72960557816e-14
1.56047415512e-13
1.25488302943e-13
1.29513127535e-13
6.57376220696e-14
1.64676234761e-13
1.19324089107e-13
3.09332392334e-13
2.78439215253e-13
2.18104907754e-13
3.32455946917e-13
9.28892509913e-14
6.07782102424e-13
1.0291166561e-13
7.6264045319e-13
2.95180156693e-13
2.2829872264e-13
2.38904250277e-13
4.40317777507e-13
4.96382286059e-13
3.60472680101e-13
4.20390752566e-13
6.87500708364e-13
6.89083154189e-13
7.1887961903e-13
1.13003210321e-13
2.00550800658e-14
1.01653443589e-12
1.42314023741e-12
2.62245770002e-12
3.6100649714e-12
2.48941359742e-11
5.65877655598e-11
2.21327786792e-11
1.9118663487e-11
4.34582571138e-12
1.00965157369e-12
1.29202301184e-12
8.84659624059e-13
5.93771112654e-13
2.9126978751e-13
1.82831535565e-13
7.32887638617e-14
3.38445006621e-13
1.60076523549e-13
4.90807672177e-14
9.68715007289e-14
9.50869718348e-14
9.205305546e-15
4.27962840907e-13
2.12134086363e-13
1.26952025534e-13
6.66202170069e-14
4.36427539807e-13
1.33064632908e-13
4.82275652395e-13
5.19662366057e-13
5.85122729017e-13
8.33523599681e-13
1.13187307143e-12
2.75225111624e-13
9.62731930377e-16
5.24075236638e-13
1.04052147928e-13
2.56818397776e-13
2.5553110933e-13
8.39325529769e-15
7.87465447387e-15
1.46602128616e-13
5.8966615312e-14
1.51593143502e-12
4.32076406913e-12
6.61611414961e-12
5.62728895642e-12
1.77778413837e-11
4.28727454874e-11
1.2865862854e-11
4.90500183038e-12
2.21676496437e-13
4.01752464039e-12
2.61762705893e-12
5.84248195167e-13
1.54721446273e-14
1.42706382103e-13
1.06427508981e-13
1.96981524769e-14
1.50213492829e-13
3.49142201859e-13
2.5521153045e-13
4.1575389021e-14
3.60519785589e-14
6.73921612272e-13
5.20749784281e-13
7.06122186905e-13
3.90328232545e-13
3.0725309305e-13
1.42508197387e-13
4.04155021319e-13
4.19745865381e-13
2.44149200604e-13
4.77352420032e-13
4.94252867742e-13
5.57574600459e-13
2.09873036876e-14
7.27701168233e-14
1.01573401714e-13
7.69107938801e-13
3.39449017729e-13
3.57841047953e-13
6.72864080916e-12
2.96804355138e-12
3.05380077326e-12
4.96677143867e-12
7.60262400127e-11
2.33961910648e-11
1.32400102711e-11
5.38762780245e-12
4.31314884225e-12
2.55040078205e-12
1.11409508953e-12
2.09999260416e-13
1.40637114362e-13
3.36046472674e-13
6.29443570513e-13
3.08186122155e-13
5.15042458859e-13
3.3508876958e-13
3.34497111336e-14
1.22031971013e-13
4.06236217468e-13
2.06909227195e-13
4.4237000237e-13
2.56229454293e-13
3.96519741012e-13
5.75703737453e-13
9.38103696885e-14
7.03471942729e-13
2.96761292919e-13
2.07458288688e-13
4.98230619724e-13
7.66402068384e-13
2.96348327637e-12
1.7053526618e-14
9.80609327353e-12
1.22860794195e-11
1.14518902433e-11
9.79624955277e-11
1.16844756966e-10
1.60425849752e-11
1.97366036016e-11
1.06016066857e-11
1.37599168039e-11
7.59644267619e-12
3.74671388931e-12
4.37013388385e-13
8.63977928905e-13
5.38155750466e-13
6.94023318747e-13
4.65125031896e-13
4.792737717e-13
2.85915673091e-13
2.09835977196e-13
1.63015931428e-13
6.46619288328e-13
4.89820662817e-13
5.35297066434e-13
5.30708350358e-13
8.81393559839e-13
3.75689642962e-13
4.06036229351e-12
7.95901630993e-12
1.26232034107e-11
2.07142141446e-11
6.45264190333e-12
2.41227940195e-11
2.61716256459e-11
5.75590703183e-12
2.17942318386e-11
2.30652702724e-11
2.45734880588e-12
5.80473303469e-12
1.34057481479e-12
1.08996505982e-12
1.53477592934e-13
3.70598724676e-13
3.19151772441e-14
3.95680987109e-13
1.4882221751e-13
1.04994549441e-12
1.35565954246e-12
5.81656053657e-12
2.54876157029e-12
2.41657990388e-11
9.80100479167e-12
2.92874425679e-11
1.89994406401e-11
9.98152268474e-12
5.51911975278e-13
8.08835216609e-12
1.05428867921e-11
1.5023418254e-11
2.54121004371e-13
1.63798965699e-11
2.62539411134e-11
3.94008985851e-11
7.50986490478e-11
9.3408376127e-11
2.16646251929e-10
7.17725506752e-11
5.53030965656e-12
3.46841062984e-11
4.66036721151e-12
2.38264490563e-11
1.15887151933e-11
6.00612530548e-11
1.81476003174e-10
6.32954935835e-11
1.47175650648e-11
3.87882576573e-11
4.6481310595e-11
6.91390413969e-11
1.3341308736e-10
1.23817483839e-10
6.99298334958e-11
1.29228816738e-10
2.97060536982e-12
5.14742442585e-11
6.68451118553e-11
3.38300349382e-11
2.49861211825e-11
3.42342947305e-13
5.76481492026e-12
5.29417291397e-11
4.1844541718e-12
7.29141657904e-11
8.9766884029e-12
7.42435442296e-11
1.14697435386e-11
3.68800682594e-11
6.33958945548e-12
3.27073137242e-11
2.42614437264e-12
9.4428666295e-12
3.51175250463e-13
3.72840604209e-12
2.0836859118e-11
3.9502501248e-11
6.34769350113e-11
1.56737130477e-12
1.3316907367e-11
6.4947991018e-11
4.08744403574e-11
2.89510634399e-10
4.97734831358e-11
8.36197836088e-11
1.7340963117e-10
2.5425907148e-10
2.14735088333e-10
5.69808393136e-10
1.49042926358e-10
1.57149600011e-10
6.42349594626e-11
7.90969879682e-11
2.98375935427e-11
1.36187196708e-11
5.27985244584e-13
2.34078441868e-12
4.30201765986e-12
2.55183035119e-13
5.32313095714e-12
5.36316398156e-12
3.37093347125e-11
1.55884035141e-11
5.82091978022e-11
9.74281457949e-12
7.11720500141e-11
3.0462742571e-12
4.28789217101e-11
4.10319594615e-12
1.77624567276e-11
3.98674601677e-11
1.65272063217e-11
7.86271787629e-11
2.38213875787e-11
7.85384366652e-11
4.1765155624e-11
7.39672028033e-13
1.08541783849e-10
1.46398317964e-12
8.69156355379e-11
9.26046994094e-11
5.09535440328e-09
5.55893861039e-09
8.13705694113e-10
9.22420220247e-10
5.53268589685e-10
8.69520407211e-10
1.27152779522e-09
5.58667784129e-10
3.36822073662e-10
5.19863131478e-09
4.57581524677e-09
4.49788234037e-09
9.7136560562e-10
4.34637487347e-10
4.52630070702e-10
7.56403163286e-10
1.14878264518e-09
8.72643448262e-10
1.1606413186e-09
2.72547835173e-10
8.48225665581e-11
2.35852157874e-11
1.67377630667e-10
4.41363951371e-11
2.1895618122e-11
2.84790874002e-10
5.37616754437e-10
5.46693831538e-10
1.3468373085e-10
5.86697636537e-11
2.50772519517e-10
2.19777938819e-10
5.67773030411e-10
1.19159905755e-10
1.20556541934e-10
7.47413714872e-11
9.64852382853e-11
5.42132435705e-12
3.67142188087e-12
2.57068106542e-11
1.30636903598e-11
6.55772572345e-11
7.32037881459e-11
1.59405311775e-10
5.88550490312e-11
4.91384439911e-11
5.55229842957e-11
1.26870225919e-11
1.27902880568e-10
1.306980677e-10
9.45112140223e-11
9.47218099109e-12
5.06973306933e-11
1.14191340824e-11
2.94865493588e-11
1.34194670247e-11
3.33747189265e-11
6.3294900802e-12
1.11140955561e-11
3.86793466833e-11
3.72406397143e-11
3.19311595348e-11
2.765647313e-11
2.16061474211e-11
1.79659055931e-11
1.81212042451e-11
2.8206333689e-11
3.3485482264e-13
5.96569169593e-12
4.17615691614e-11
1.80288179549e-11
3.53422003794e-11
7.15372377596e-12
2.48040416917e-11
1.2467329927e-11
2.33046531441e-11
1.09412613598e-11
1.45249823111e-11
5.22781661471e-12
6.33817313909e-12
5.48341076079e-12
3.31857335745e-12
1.244029863e-11
3.09805850086e-11
4.08901807632e-11
5.693707586e-12
6.66582827728e-11
1.00959917552e-11
3.77676002628e-11
7.74841503459e-11
8.64360808232e-12
2.62238974519e-11
1.44708372458e-11
2.14695268e-11
1.71211022177e-11
3.64508112849e-12
3.80801309973e-12
1.6558036259e-11
8.15361624689e-12
2.15117782084e-11
1.08952486093e-12
5.82055662901e-12
7.80093280453e-12
5.57470540332e-12
1.50012604823e-12
8.69893482717e-12
2.83900702807e-12
8.85272038493e-12
1.3348289584e-12
1.61349396734e-11
3.50165927983e-12
9.44621015265e-13
1.37608933805e-11
3.1659450423e-11
5.48032214395e-11
6.93816950326e-11
3.82647528008e-11
1.09433397472e-11
3.93422060162e-11
2.19372366401e-11
7.61928077427e-12
7.70475541299e-12
2.00655660669e-11
1.68773641836e-11
3.37094529358e-12
2.23365313113e-11
2.90811181812e-11
3.01454182439e-11
3.08325636765e-11
1.53135892073e-11
8.76296647065e-12
1.5642136295e-12
4.52622316227e-12
7.28147777279e-13
6.52483603671e-12
3.754550743e-12
9.76606820061e-12
1.38250760594e-11
2.52679291867e-11
2.89457601332e-11
2.12906970782e-11
5.73763322717e-12
3.20844060146e-11
4.65909322818e-11
5.30213934925e-11
5.90875671563e-11
4.56619356359e-12
2.9507538764e-11
1.5056451109e-11
8.88193612083e-12
1.85250907606e-11
2.56413328036e-11
1.77350113677e-11
1.232104155e-12
1.92260095305e-11
6.52535650691e-12
5.40964374169e-12
1.07496758215e-11
1.56204832352e-11
1.20575063195e-11
1.86561060398e-11
1.25137026758e-11
1.55060997749e-11
5.33289335704e-12
8.63463475969e-12
4.62844473068e-12
1.68437597462e-11
4.06913080798e-12
6.84282453368e-12
7.65621973359e-11
2.08082305851e-11
3.89218340694e-11
1.06695322981e-10
4.23705950179e-11
3.53645611474e-11
2.03096157191e-11
4.59514500539e-11
2.13245973135e-11
1.23889363801e-12
4.7639634903e-11
4.01487023482e-11
2.50195864854e-11
6.67706887688e-12
2.64958675244e-11
8.33064283886e-12
1.39926561726e-11
1.81065205189e-11
8.91716761983e-12
1.25737893764e-11
9.43676764301e-12
1.62093391709e-11
8.2437823759e-12
2.38678131896e-11
9.86000295168e-13
1.88246780809e-11
1.07592780087e-11
6.45933974893e-11
1.60758071534e-10
2.11096139687e-11
6.33856920965e-11
1.12219044067e-11
4.23282840938e-11
7.8680340492e-13
2.62023184882e-11
5.16879021697e-11
2.07614834549e-11
2.97083246082e-11
3.84632163096e-11
2.6264765946e-11
2.18799473689e-11
2.02094095022e-11
4.9707431681e-12
2.05749405838e-11
2.7696828572e-11
6.1196180006e-12
6.35753163354e-12
1.82916041966e-11
8.16090959899e-12
3.43205102217e-11
8.25730962331e-11
4.59110995401e-12
4.48834551903e-11
7.17171677778e-12
1.50242991274e-11
3.56703477062e-12
7.99431658363e-12
6.29017106964e-11
1.25419114291e-11
2.9002992067e-11
7.09135581651e-12
4.16952701732e-11
3.2450945397e-11
1.4699478201e-11