# vtk DataFile Version 3.0
File Name: Molecule/methanol/methanol_1.0-2.vtk
ASCII
DATASET UNSTRUCTURED_GRID
FIELD FieldData 1
TIME 1 1 double
0.0
POINTS 51 double
1.611 0.0 -0.359
1.12 -1.191 -0.31
1.403 0.0 -0.933
-0.065 -1.684 -0.192
0.956 -1.085 -0.888
-0.124 -1.534 -0.781
-1.251 -1.191 -0.074
-1.204 -1.085 -0.673
-1.742 0.0 -0.025
-1.651 0.0 -0.629
-1.251 1.191 -0.074
-1.204 1.085 -0.673
-0.065 1.684 -0.192
-0.124 1.534 -0.781
1.12 1.191 -0.31
0.956 1.085 -0.888
1.907 0.0 0.656
1.546 1.109 0.656
1.546 0.555 1.616
1.546 -0.555 1.616
1.546 -1.109 0.656
0.602 1.452 1.711
0.602 0.555 2.363
0.602 -0.555 2.363
0.602 -1.452 1.711
0.602 -1.795 0.656
0.602 1.795 0.656
-0.564 1.452 1.711
-0.564 0.555 2.363
-0.564 -0.555 2.363
-0.564 -1.452 1.711
-0.564 -1.795 0.656
-0.564 1.795 0.656
-1.508 1.109 0.656
-1.508 0.555 1.616
-1.508 -0.555 1.616
-1.508 -1.109 0.656
-1.868 -0.0 0.656
0.966 -0.543 -1.677
-0.12 -0.768 -2.067
-0.12 0.267 -2.249
0.966 0.543 -1.677
-0.12 1.176 -1.724
-1.205 -0.543 -1.677
-1.205 0.543 -1.677
1.1795 -0.5425 -0.9105
1.1845 -0.2715 -1.305
0.961 -0.814 -1.2825
1.1795 0.5425 -0.9105
0.961 0.814 -1.2825
1.1845 0.2715 -1.305

CELLS 98 392
3 0 1 2
3 1 3 4
3 4 3 5
3 3 6 5
3 5 6 7
3 6 8 7
3 7 8 9
3 8 10 9
3 9 10 11
3 10 12 11
3 11 12 13
3 12 14 13
3 13 14 15
3 14 0 15
3 16 17 18
3 16 18 19
3 16 19 20
3 18 17 21
3 18 21 22
3 18 22 23
3 19 18 23
3 19 23 24
3 20 19 24
3 20 24 25
3 17 26 21
3 21 26 27
3 21 27 28
3 22 21 28
3 22 28 29
3 23 22 29
3 24 23 29
3 24 29 30
3 24 30 31
3 25 24 31
3 26 32 27
3 27 32 33
3 27 33 34
3 28 27 34
3 28 34 35
3 29 28 35
3 30 29 35
3 30 35 36
3 31 30 36
3 34 33 37
3 35 34 37
3 36 35 37
3 36 37 8
3 36 8 6
3 36 6 31
3 31 6 3
3 31 3 25
3 25 3 1
3 25 1 20
3 20 1 0
3 20 0 16
3 16 0 17
3 17 0 14
3 17 14 26
3 26 14 12
3 26 12 32
3 32 12 10
3 32 10 33
3 33 10 8
3 33 8 37
3 38 39 40
3 41 38 40
3 41 40 42
3 40 39 43
3 40 43 44
3 42 40 44
3 42 44 11
3 42 11 13
3 42 13 15
3 39 4 5
3 39 5 43
3 43 5 7
3 43 7 9
3 43 9 44
3 44 9 11
3 4 45 1
3 1 45 2
3 41 46 38
3 38 46 47
3 46 45 47
3 46 2 45
3 47 45 4
3 38 47 39
3 47 4 39
3 2 48 0
3 0 48 15
3 15 49 42
3 42 49 41
3 41 49 50
3 49 48 50
3 49 15 48
3 50 48 2
3 41 50 46
3 46 50 2

CELL_TYPES 98
5
5
5
5
5
5
5
5
5
5
5
5
5
5
5
5
5
5
5
5
5
5
5
5
5
5
5
5
5
5
5
5
5
5
5
5
5
5
5
5
5
5
5
5
5
5
5
5
5
5
5
5
5
5
5
5
5
5
5
5
5
5
5
5
5
5
5
5
5
5
5
5
5
5
5
5
5
5
5
5
5
5
5
5
5
5
5
5
5
5
5
5
5
5
5
5
5
5

CELL_DATA 98
SCALARS cell_data_0 double
LOOKUP_TABLE default
4.13703619451e-06
4.9093875951e-08
2.48994736549e-07
2.9841014107e-07
1.0041559984e-07
9.06331188394e-08
2.09684616555e-07
3.56941007628e-07
2.75264519892e-08
5.84102095159e-07
3.43804288739e-07
8.51907864443e-07
1.14913653114e-06
1.66620692021e-07
8.40943355726e-09
3.2767350222e-09
1.10149329039e-08
1.59023457685e-10
1.42452730485e-08
1.2320927246e-09
6.54410461208e-09
4.8843495591e-09
7.81917384777e-09
2.16036666235e-08
1.0110145989e-09
1.94927276109e-09
3.44180235735e-09
6.5107616921e-10
9.91140865855e-09
1.06250115544e-08
1.33487467045e-09
4.44742140286e-09
2.58871628204e-10
4.42083778932e-08
2.7039214788e-08
6.8952788288e-08
1.1373041261e-08
1.63849130615e-08
3.13652271238e-08
9.27737095484e-09
6.08093671333e-09
1.0576252992e-09
6.25149657855e-08
4.85697047082e-08
2.21598531123e-08
4.83304022754e-08
8.74733924433e-08
3.79264455774e-07
1.73661908445e-07
3.47192972289e-07
2.3704170313e-07
3.2947681741e-07
2.39104271449e-07
5.32977639976e-07
5.26230144777e-08
2.25101355626e-08
2.9972152744e-07
8.25952090355e-08
8.83029768401e-08
2.50648000149e-08
4.00377390141e-07
3.97209708925e-08
4.0048576799e-07
8.96935680157e-08
1.49514734254e-05
1.52613827525e-05
1.24834477775e-05
4.17336702835e-07
5.09196724131e-08
5.44604315003e-07
1.53621972573e-07
5.9178355572e-08
8.52817426184e-07
2.84088831478e-06
1.00659293542e-06
1.02912625118e-08
1.49335229513e-07
1.45850569699e-07
4.8923343428e-08
4.19927681335e-07
1.91493932314e-06
6.79547829221e-06
3.48609943668e-06
5.71580978428e-06
2.19694042218e-06
5.45689282618e-07
1.47106923537e-06
8.41796260712e-09
3.45107801782e-07
1.21318601353e-06
1.17189568391e-06
3.77183258399e-06
2.73994499586e-06
3.68361931096e-07
8.59512616352e-07
1.84650857476e-06
3.60371386238e-06
1.30200667332e-06

