# vtk DataFile Version 3.0
File Name: Molecule/methanol/methanol_4.5-16_06.vtk
ASCII
DATASET UNSTRUCTURED_GRID
FIELD FieldData 1
TIME 1 1 double
0.0
POINTS 216 double
1.611 0.0 -0.359
1.529 -0.521 -0.351
1.403 0.0 -0.933
1.328 -0.474 -0.925
1.291 -0.99 -0.327
1.111 -0.902 -0.904
0.92 -1.363 -0.29
0.773 -1.241 -0.87
0.453 -1.602 -0.243
0.348 -1.459 -0.828
-0.065 -1.684 -0.192
-0.124 -1.534 -0.781
-0.583 -1.602 -0.14
-0.596 -1.459 -0.734
-1.051 -1.363 -0.094
-1.021 -1.241 -0.691
-1.421 -0.99 -0.057
-1.359 -0.902 -0.658
-1.659 -0.521 -0.033
-1.576 -0.474 -0.636
-1.742 0.0 -0.025
-1.651 0.0 -0.629
-1.659 0.521 -0.033
-1.576 0.474 -0.636
-1.421 0.99 -0.057
-1.359 0.902 -0.658
-1.051 1.363 -0.094
-1.021 1.241 -0.691
-0.583 1.602 -0.14
-0.596 1.459 -0.734
-0.065 1.684 -0.192
-0.124 1.534 -0.781
0.453 1.602 -0.243
0.348 1.459 -0.828
0.92 1.363 -0.29
0.773 1.241 -0.87
1.291 0.99 -0.327
1.111 0.902 -0.904
1.529 0.521 -0.351
1.328 0.474 -0.925
1.907 0.0 0.656
1.842 0.489 0.656
1.842 0.244 1.079
1.842 -0.244 1.079
1.842 -0.489 0.656
1.842 -0.244 0.233
1.842 0.244 0.233
1.654 0.817 1.127
1.654 0.472 1.473
1.654 -0.0 1.599
1.654 -0.472 1.473
1.654 -0.817 1.127
1.654 -0.944 0.656
1.654 -0.817 0.184
1.654 0.817 0.184
1.654 0.944 0.656
1.354 1.245 1.138
1.354 0.986 1.555
1.354 0.595 1.85
1.354 0.123 1.985
1.354 -0.365 1.939
1.354 -0.804 1.721
1.354 -1.135 1.358
1.354 -1.312 0.901
1.354 -1.312 0.41
1.354 -1.135 -0.047
1.354 1.245 0.173
1.354 1.335 0.656
0.963 1.562 1.137
0.963 1.351 1.576
0.963 1.019 1.934
0.963 0.597 2.177
0.963 0.122 2.286
0.963 -0.364 2.249
0.963 -0.817 2.071
0.963 -1.198 1.767
0.963 -1.473 1.365
0.963 -1.616 0.899
0.963 -1.616 0.412
0.963 -1.473 -0.054
0.963 1.562 0.174
0.963 1.635 0.656
0.508 1.761 1.127
0.508 1.579 1.567
0.508 1.289 1.945
0.508 0.912 2.235
0.508 0.472 2.417
0.508 0.0 2.479
0.508 -0.472 2.417
0.508 -0.912 2.235
0.508 -1.289 1.945
0.508 -1.579 1.567
0.508 -1.761 1.127
0.508 -1.823 0.656
0.508 -1.761 0.184
0.508 1.761 0.184
0.508 1.823 0.656
0.019 1.828 1.125
0.019 1.654 1.565
0.019 1.376 1.948
0.019 1.011 2.249
0.019 0.583 2.451
0.019 0.119 2.539
0.019 -0.354 2.51
0.019 -0.804 2.363
0.019 -1.203 2.11
0.019 -1.527 1.765
0.019 -1.755 1.35
0.019 -1.873 0.892
0.019 -1.873 0.419
0.019 1.828 0.186
0.019 1.888 0.656
-0.47 1.823 0.656
-0.47 1.761 1.127
-0.47 1.579 1.567
-0.47 1.289 1.945
-0.47 0.912 2.235
-0.47 0.472 2.417
-0.47 0.0 2.479
-0.47 -0.472 2.417
-0.47 -0.912 2.235
-0.47 -1.289 1.945
-0.47 -1.579 1.567
-0.47 -1.761 1.127
-0.47 -1.823 0.656
-0.47 -1.761 0.184
-0.47 1.761 0.184
-0.925 1.635 0.656
-0.925 1.562 1.137
-0.925 1.351 1.576
-0.925 1.019 1.934
-0.925 0.597 2.177
-0.925 0.122 2.286
-0.925 -0.364 2.249
-0.925 -0.817 2.071
-0.925 -1.198 1.767
-0.925 -1.473 1.365
-0.925 -1.616 0.899
-0.925 -1.616 0.412
-0.925 1.562 0.174
-1.316 1.335 0.656
-1.316 1.245 1.138
-1.316 0.986 1.555
-1.316 0.595 1.85
-1.316 0.123 1.985
-1.316 -0.365 1.939
-1.316 -0.804 1.721
-1.316 -1.135 1.358
-1.316 -1.312 0.901
-1.316 -1.312 0.41
-1.316 1.245 0.173
-1.616 0.944 0.656
-1.616 0.817 1.127
-1.616 0.472 1.473
-1.616 -0.0 1.599
-1.616 -0.472 1.473
-1.616 -0.817 1.127
-1.616 -0.944 0.656
-1.804 0.489 0.656
-1.804 0.244 1.079
-1.804 -0.244 1.079
-1.804 -0.489 0.656
-1.868 0.0 0.656
-1.804 -0.244 0.233
-1.804 0.244 0.233
1.122 -0.591 -1.419
0.783 -1.147 -1.212
0.783 -0.878 -1.615
0.783 -0.475 -1.885
1.122 -0.128 -1.63
0.783 0.0 -1.979
1.122 0.375 -1.558
0.783 0.475 -1.885
0.783 0.878 -1.615
1.122 0.759 -1.225
0.783 1.147 -1.212
0.355 -1.284 -1.432
0.355 -0.989 -1.811
0.355 -0.586 -2.074
0.355 -0.121 -2.192
0.355 0.358 -2.152
0.355 0.798 -1.959
0.355 1.152 -1.634
0.355 1.381 -1.211
-0.12 -1.46 -1.212
-0.12 -1.242 -1.639
-0.12 -0.902 -1.979
-0.12 -0.474 -2.197
-0.12 0.0 -2.272
-0.12 0.474 -2.197
-0.12 0.902 -1.979
-0.12 1.242 -1.639
-0.12 1.46 -1.212
-0.594 -1.44 -0.977
-0.594 -1.284 -1.432
-0.594 -0.989 -1.811
-0.594 -0.586 -2.074
-0.594 -0.121 -2.192
-0.594 0.358 -2.152
-0.594 0.798 -1.959
-0.594 1.152 -1.634
-0.594 1.381 -1.211
-1.022 -1.147 -1.212
-1.022 -0.878 -1.615
-1.022 -0.475 -1.885
-1.022 0.0 -1.979
-1.022 0.475 -1.885
-1.022 0.878 -1.615
-1.022 1.147 -1.212
-1.362 -0.866 -0.991
-1.362 -0.591 -1.419
-1.362 -0.128 -1.63
-1.362 0.375 -1.558
-1.362 0.759 -1.225
-1.58 -0.237 -1.148
-1.58 0.237 -1.148

CELLS 428 1712
3 0 1 2
3 2 1 3
3 1 4 3
3 3 4 5
3 4 6 5
3 5 6 7
3 6 8 7
3 7 8 9
3 8 10 9
3 9 10 11
3 10 12 11
3 11 12 13
3 12 14 13
3 13 14 15
3 14 16 15
3 15 16 17
3 16 18 17
3 17 18 19
3 18 20 19
3 19 20 21
3 20 22 21
3 21 22 23
3 22 24 23
3 23 24 25
3 24 26 25
3 25 26 27
3 26 28 27
3 27 28 29
3 28 30 29
3 29 30 31
3 30 32 31
3 31 32 33
3 32 34 33
3 33 34 35
3 34 36 35
3 35 36 37
3 36 38 37
3 37 38 39
3 38 0 39
3 39 0 2
3 40 41 42
3 40 42 43
3 40 43 44
3 40 44 45
3 40 45 46
3 40 46 41
3 42 41 47
3 42 47 48
3 42 48 49
3 43 42 49
3 43 49 50
3 43 50 51
3 44 43 51
3 44 51 52
3 44 52 53
3 45 44 53
3 41 46 54
3 41 54 55
3 41 55 47
3 47 55 56
3 47 56 57
3 48 47 57
3 48 57 58
3 48 58 59
3 49 48 59
3 49 59 60
3 50 49 60
3 50 60 61
3 51 50 61
3 51 61 62
3 51 62 63
3 52 51 63
3 52 63 64
3 53 52 64
3 53 64 65
3 55 54 66
3 55 66 67
3 55 67 56
3 56 67 68
3 56 68 69
3 57 56 69
3 57 69 70
3 58 57 70
3 58 70 71
3 59 58 71
3 59 71 72
3 59 72 73
3 60 59 73
3 60 73 74
3 61 60 74
3 61 74 75
3 62 61 75
3 62 75 76
3 63 62 76
3 63 76 77
3 63 77 78
3 64 63 78
3 64 78 79
3 65 64 79
3 67 66 80
3 67 80 81
3 67 81 68
3 68 81 82
3 68 82 83
3 69 68 83
3 69 83 84
3 70 69 84
3 70 84 85
3 71 70 85
3 71 85 86
3 72 71 86
3 72 86 87
3 73 72 87
3 73 87 88
3 74 73 88
3 74 88 89
3 74 89 90
3 75 74 90
3 75 90 91
3 76 75 91
3 76 91 92
3 77 76 92
3 77 92 93
3 78 77 93
3 78 93 94
3 79 78 94
3 81 80 95
3 81 95 96
3 81 96 82
3 82 96 97
3 82 97 98
3 83 82 98
3 83 98 99
3 84 83 99
3 84 99 100
3 85 84 100
3 85 100 101
3 86 85 101
3 86 101 102
3 87 86 102
3 87 102 103
3 88 87 103
3 88 103 104
3 89 88 104
3 89 104 105
3 90 89 105
3 90 105 106
3 91 90 106
3 91 106 107
3 92 91 107
3 92 107 108
3 93 92 108
3 93 108 109
3 94 93 109
3 96 95 110
3 96 110 111
3 96 111 97
3 97 111 112
3 97 112 113
3 98 97 113
3 98 113 114
3 99 98 114
3 99 114 115
3 100 99 115
3 100 115 116
3 101 100 116
3 101 116 117
3 102 101 117
3 102 117 118
3 103 102 118
3 103 118 119
3 104 103 119
3 104 119 120
3 105 104 120
3 105 120 121
3 106 105 121
3 106 121 122
3 107 106 122
3 107 122 123
3 108 107 123
3 108 123 124
3 109 108 124
3 109 124 125
3 112 110 126
3 111 110 112
3 113 112 127
3 113 127 128
3 114 113 128
3 114 128 129
3 115 114 129
3 115 129 130
3 116 115 130
3 116 130 131
3 117 116 131
3 117 131 132
3 118 117 132
3 118 132 133
3 119 118 133
3 119 133 134
3 120 119 134
3 121 120 134
3 121 134 135
3 122 121 135
3 122 135 136
3 123 122 136
3 123 136 137
3 124 123 137
3 124 137 138
3 125 124 138
3 127 126 139
3 112 126 127
3 128 127 140
3 128 140 141
3 129 128 141
3 129 141 142
3 130 129 142
3 130 142 143
3 131 130 143
3 131 143 144
3 132 131 144
3 133 132 144
3 133 144 145
3 134 133 145
3 134 145 146
3 135 134 146
3 135 146 147
3 136 135 147
3 136 147 148
3 137 136 148
3 137 148 149
3 138 137 149
3 140 139 150
3 127 139 140
3 141 140 151
3 141 151 152
3 142 141 152
3 142 152 153
3 143 142 153
3 144 143 153
3 144 153 154
3 145 144 154
3 145 154 155
3 146 145 155
3 146 155 156
3 147 146 156
3 148 147 156
3 148 156 157
3 149 148 157
3 140 150 151
3 152 151 158
3 152 158 159
3 153 152 159
3 154 153 159
3 154 159 160
3 155 154 160
3 156 155 160
3 156 160 161
3 157 156 161
3 159 158 162
3 160 159 162
3 161 160 162
3 163 161 162
3 164 163 162
3 158 164 162
3 164 158 22
3 164 22 20
3 164 20 163
3 163 20 18
3 163 18 161
3 161 18 157
3 157 18 16
3 157 16 149
3 149 16 14
3 149 14 138
3 138 14 12
3 138 12 125
3 125 12 10
3 125 10 109
3 109 10 94
3 94 10 8
3 94 8 79
3 79 8 6
3 79 6 65
3 65 6 4
3 65 4 53
3 53 4 1
3 53 1 45
3 45 1 0
3 45 0 46
3 46 0 38
3 46 38 54
3 54 38 36
3 54 36 66
3 66 36 34
3 66 34 80
3 80 34 32
3 80 32 95
3 95 32 110
3 110 32 30
3 110 30 126
3 126 30 28
3 126 28 139
3 139 28 26
3 139 26 150
3 150 26 24
3 150 24 151
3 151 24 22
3 151 22 158
3 165 166 167
3 165 167 168
3 169 165 168
3 169 168 170
3 171 169 170
3 171 170 172
3 171 172 173
3 174 171 173
3 174 173 175
3 167 166 176
3 167 176 177
3 168 167 177
3 168 177 178
3 168 178 179
3 170 168 179
3 170 179 180
3 172 170 180
3 172 180 181
3 173 172 181
3 173 181 182
3 175 173 182
3 175 182 183
3 176 184 185
3 177 176 185
3 177 185 186
3 178 177 186
3 178 186 187
3 179 178 187
3 179 187 188
3 180 179 188
3 180 188 189
3 181 180 189
3 181 189 190
3 182 181 190
3 182 190 191
3 183 182 191
3 183 191 192
3 184 193 194
3 185 184 194
3 185 194 195
3 186 185 195
3 186 195 196
3 187 186 196
3 187 196 197
3 188 187 197
3 188 197 198
3 189 188 198
3 189 198 199
3 190 189 199
3 190 199 200
3 191 190 200
3 191 200 201
3 192 191 201
3 194 193 202
3 194 202 203
3 195 194 203
3 195 203 204
3 196 195 204
3 197 196 204
3 197 204 205
3 198 197 205
3 198 205 206
3 199 198 206
3 199 206 207
3 200 199 207
3 200 207 208
3 201 200 208
3 202 209 210
3 203 202 210
3 204 203 210
3 204 210 211
3 205 204 211
3 205 211 212
3 206 205 212
3 207 206 212
3 207 212 213
3 208 207 213
3 210 209 214
3 211 210 214
3 211 214 215
3 212 211 215
3 213 212 215
3 213 215 23
3 213 23 25
3 213 25 208
3 208 25 27
3 208 27 201
3 201 27 29
3 201 29 31
3 201 31 192
3 192 31 33
3 192 33 183
3 183 33 35
3 183 35 175
3 175 35 37
3 175 37 174
3 174 37 39
3 174 39 171
3 171 39 2
3 171 2 169
3 169 2 3
3 169 3 165
3 165 3 5
3 165 5 166
3 166 5 7
3 166 7 9
3 166 9 176
3 176 9 184
3 184 9 11
3 184 11 193
3 193 11 13
3 193 13 15
3 193 15 202
3 202 15 209
3 209 15 17
3 209 17 19
3 209 19 214
3 214 19 21
3 214 21 215
3 215 21 23

CELL_TYPES 428
5
5
5
5
5
5
5
5
5
5
5
5
5
5
5
5
5
5
5
5
5
5
5
5
5
5
5
5
5
5
5
5
5
5
5
5
5
5
5
5
5
5
5
5
5
5
5
5
5
5
5
5
5
5
5
5
5
5
5
5
5
5
5
5
5
5
5
5
5
5
5
5
5
5
5
5
5
5
5
5
5
5
5
5
5
5
5
5
5
5
5
5
5
5
5
5
5
5
5
5
5
5
5
5
5
5
5
5
5
5
5
5
5
5
5
5
5
5
5
5
5
5
5
5
5
5
5
5
5
5
5
5
5
5
5
5
5
5
5
5
5
5
5
5
5
5
5
5
5
5
5
5
5
5
5
5
5
5
5
5
5
5
5
5
5
5
5
5
5
5
5
5
5
5
5
5
5
5
5
5
5
5
5
5
5
5
5
5
5
5
5
5
5
5
5
5
5
5
5
5
5
5
5
5
5
5
5
5
5
5
5
5
5
5
5
5
5
5
5
5
5
5
5
5
5
5
5
5
5
5
5
5
5
5
5
5
5
5
5
5
5
5
5
5
5
5
5
5
5
5
5
5
5
5
5
5
5
5
5
5
5
5
5
5
5
5
5
5
5
5
5
5
5
5
5
5
5
5
5
5
5
5
5
5
5
5
5
5
5
5
5
5
5
5
5
5
5
5
5
5
5
5
5
5
5
5
5
5
5
5
5
5
5
5
5
5
5
5
5
5
5
5
5
5
5
5
5
5
5
5
5
5
5
5
5
5
5
5
5
5
5
5
5
5
5
5
5
5
5
5
5
5
5
5
5
5
5
5
5
5
5
5
5
5
5
5
5
5
5
5
5
5
5
5
5
5
5
5
5
5
5
5
5
5
5
5
5
5
5
5
5
5
5
5
5
5
5
5
5
5
5
5
5
5
5
5
5
5
5
5
5
5
5
5
5
5
5
5
5
5
5
5
5
5
5
5
5
5

CELL_DATA 428
SCALARS cell_data_0 double
LOOKUP_TABLE default
6.72993504387e-08
1.08695679796e-07
7.58221532943e-08
3.2851764056e-08
9.392606344e-09
2.83419525893e-09
2.09798586613e-10
1.78164110364e-09
8.57238525503e-10
1.26871786969e-09
8.97929418291e-10
3.84580895415e-09
5.64080397581e-10
4.54615064966e-09
5.52735997031e-10
4.76184319664e-09
1.62145106544e-09
6.11364973151e-09
4.17687089902e-11
1.04647301407e-09
2.05177511136e-09
3.28557693265e-09
1.07341192664e-09
3.16728686995e-09
2.54927997635e-09
1.71725952427e-09
2.11996984607e-09
3.70871811627e-09
1.74334858742e-09
2.44345808395e-09
1.09932278524e-09
7.22597050204e-10
1.06582452508e-09
5.08860734052e-10
1.40369262971e-09
2.37208047355e-09
4.96120931625e-09
1.30697673803e-08
2.77707802796e-08
4.38172749078e-08
4.78255727724e-09
1.49485115313e-09
7.51931639544e-09
1.02133323806e-09
8.43753655405e-09
2.35084647167e-09
1.9423811717e-09
1.15353826551e-10
1.72925324168e-09
3.85360363545e-09
2.75089878283e-09
5.11993740592e-09
4.69920782676e-10
3.45418061485e-09
7.04374219812e-09
4.4640626431e-09
6.15243634272e-09
2.93675742454e-10
2.00244364317e-10
4.39665212386e-10
3.14232572875e-10
1.22513183371e-09
1.22851804897e-09
3.00773804625e-10
1.86229809784e-09
3.78040374868e-10
8.61267828562e-10
1.9324121374e-10
1.10611581585e-09
7.28098921555e-10
3.61711067289e-10
2.62059930461e-10
2.10510505228e-10
7.8346083602e-10
8.35062167305e-10
7.4175849744e-10
1.15460250265e-09
4.41290895971e-10
1.29415608148e-10
3.10905688049e-12
1.46153958369e-10
9.45003619385e-11
1.91939483059e-11
1.68252623852e-10
1.23100445882e-09
7.71844780059e-10
2.26227690896e-10
6.17745716667e-10
2.51835033016e-12
1.14587382398e-11
2.2989160577e-10
3.56245160996e-10
2.13664122916e-10
8.71285065862e-10
9.14577082414e-10
1.88848660547e-10
2.49311162072e-10
1.22130203501e-09
9.92604179902e-10
2.58949315583e-10
3.88750089215e-10
1.4617114729e-10
3.63282556511e-11
9.04921938875e-11
1.08063722564e-10
5.3024758438e-11
5.79187348759e-11
1.19958714175e-10
2.01426077547e-11
9.98603379032e-11
1.49006755725e-10
1.45647765805e-10
5.11827422334e-10
5.16269570136e-11
1.82773680159e-10
4.66105480391e-10
1.55942137933e-10
2.28680338049e-11
5.98061167199e-11
2.04422409965e-10
2.2463904391e-11
1.21100546211e-10
1.6707249598e-10
4.49662362818e-10
2.28014988853e-10
4.13849142672e-10
2.99404592628e-10
5.48409088689e-12
7.25446003557e-11
9.63486642963e-11
9.04308865079e-11
1.01998526897e-11
3.05428084968e-11
1.57667808135e-11
2.81453864933e-11
3.79937011286e-12
1.1432086597e-11
3.30060273836e-11
1.55415996394e-11
1.10338914002e-10
3.9789676969e-12
2.75483505747e-10
1.84350795029e-11
9.20642380213e-11
5.35042664693e-11
2.37156148884e-11
4.54697350679e-11
2.53632939554e-11
6.20885670428e-11
9.47020549875e-11
6.78407761169e-11
9.32785516815e-11
1.77196185227e-10
2.24612524545e-11
1.31085085592e-10
1.17933791093e-10
4.73564148971e-12
1.25101847503e-10
1.1250262989e-12
6.3306934239e-11
1.84174564711e-10
1.124309859e-10
1.66747848213e-11
8.68457933622e-11
9.81380798609e-11
4.85218107488e-11
3.44940889289e-11
5.87329997263e-11
7.38829195823e-11
1.28681320312e-10
9.16438019608e-11
1.9458227717e-10
1.426590385e-11
4.86193128394e-11
1.89302186097e-10
5.99982364615e-11
3.41984919319e-11
6.09078283272e-11
1.27152734621e-11
2.50060293148e-12
1.07238969851e-11
8.01908784768e-12
5.30082825716e-10
2.7462443099e-10
1.5579452936e-11
5.82250544275e-11
6.62539939216e-11
3.3201957325e-11
3.06382352223e-11
1.52475624361e-11
6.00694517132e-11
5.23388363378e-11
2.52659357057e-11
5.13004906429e-11
2.51532696819e-11
7.45524772048e-11
7.06440995156e-12
4.60887287843e-11
3.2285073287e-11
6.96312852134e-11
1.20169849935e-10
1.00380839847e-10
1.25331390859e-10
1.06856973018e-10
3.4116183385e-11
3.27087256238e-11
5.39213262894e-11
7.69813641716e-11
3.0019831208e-10
4.39157057514e-10
1.32989024463e-10
1.08391393562e-10
1.18849553713e-10
9.94685715942e-12
4.7413571733e-11
1.12368473089e-10
2.22479312226e-11
1.56230693113e-10
2.41783386514e-11
9.97914863871e-11
3.57241848816e-11
2.09334887976e-11
5.98501226124e-11
3.63843318336e-11
8.96923146778e-11
8.99298707118e-11
6.93562754028e-11
1.0393230614e-10
1.09449160359e-10
6.54165146482e-10
1.69461905471e-11
1.96509736403e-09
1.32901354262e-10
4.75573761343e-10
2.36976337526e-10
1.09642122985e-10
9.83135072432e-11
9.74269704673e-11
4.06796523486e-11
2.22211708547e-11
7.56202326329e-11
2.81543545853e-12
6.14088582644e-11
4.37344022118e-11
6.66002372602e-11
2.31298759284e-10
9.88749727702e-11
2.56861905274e-12
2.32006820515e-10
3.1924601212e-10
4.35760908372e-10
9.01961336288e-11
1.32852014323e-11
2.15227565787e-11
6.52596708324e-12
9.50100349326e-11
3.12472377548e-10
4.97219723522e-10
1.35290297269e-10
4.57826570482e-11
7.45652399161e-11
8.8687547445e-11
4.38388838373e-10
7.14336198048e-10
8.84522636439e-10
1.02720380898e-09
8.74186663173e-10
1.29625176676e-09
1.48943403949e-10
1.96911585646e-09
3.6095345528e-09
1.52720278192e-09
8.55444125127e-10
7.74461594802e-10
3.2434304304e-09
7.05873573239e-10
3.75398477212e-10
4.44926826868e-10
1.19730460193e-10
3.62798279039e-11
2.64756575543e-11
1.27114710892e-11
5.93331119525e-10
1.8797443949e-09
2.81523103596e-09
1.48502174743e-09
1.6874086701e-08
1.44684876725e-08
2.6678505268e-09
1.81673081188e-08
1.39551233334e-08
4.46818248303e-09
4.00366256948e-10
6.35933033146e-10
8.83232776629e-11
1.51636820871e-10
7.76730452293e-11
4.83452859679e-11
4.61018281269e-10
2.13654911114e-10
1.03265803647e-09
7.94638973007e-11
2.05498518876e-09
4.80405858485e-11
4.83296045925e-10
2.99051763462e-10
3.59181885213e-09
1.58247095635e-09
3.11017573848e-08
1.05527695295e-07
8.42275969906e-09
1.50052826876e-08
1.04558542146e-08
1.59311098683e-09
2.40833384445e-08
5.1115449581e-08
4.24200941873e-08
3.99143990568e-08
3.94064042386e-08
6.41368900446e-08
2.3403275472e-08
5.34963661337e-08
7.0171454054e-08
2.30344311177e-08
8.29696194438e-09
6.51111643103e-09
3.22914663188e-08
7.46616277091e-09
8.15051214121e-10
7.38198753718e-10
8.74427382911e-11
3.73106256236e-11
4.50643128048e-10
1.87888836294e-09
2.84060293413e-09
1.42218673953e-09
3.26210821387e-09
2.6050917686e-09
3.66176981843e-09
4.65457539373e-10
1.29934572174e-09
1.26348247742e-09
8.71291354219e-10
1.38024458598e-09
2.95428374356e-09
3.72011102138e-09
5.38769123393e-10
1.10667512346e-09
1.08322864995e-10
2.67987818051e-09
6.94472889008e-09
3.27420799939e-10
1.05335305261e-08
3.14261135282e-10
7.32498693897e-09
2.79274963266e-09
2.68085971298e-09
1.85283566227e-09
3.32123366527e-09
6.84497105015e-10
3.92995042091e-09
2.38397881769e-09
1.02241102421e-09
9.62724577174e-11
6.75381871734e-10
1.30318902101e-09
8.74911322977e-09
3.26489495208e-09
8.30471973314e-09
1.47783812735e-09
3.42255731358e-09
4.85533244032e-10
9.21852427815e-10
1.21473647171e-09
3.06022818455e-09
3.28490665278e-09
8.02010793046e-10
3.24173824194e-09
1.72205872547e-09
3.86743073169e-09
1.39718638499e-09
5.11592376478e-09
1.91431575144e-09
1.09721479976e-09
2.55135212074e-09
3.95915954654e-09
1.56101802712e-09
3.9531407714e-09
3.49079519367e-09
2.31486587251e-09
1.35546733598e-09
2.1590892532e-09
1.5030418514e-09
3.72435188187e-09
2.06733831787e-10
3.06473837341e-09
2.97467977089e-09
1.81856086797e-09
2.24608661512e-09
7.10626966038e-10
2.11188677568e-09
1.66507569186e-09
4.49637543299e-09
1.64523455295e-08
3.23843671366e-08
2.55253922294e-08
2.32764905829e-08
2.44868991122e-09
1.01761776794e-07
9.65631036e-08
6.36669738818e-08
2.08351128395e-07
1.0061079984e-07
7.25814980699e-08
1.15288323328e-07
1.24966134309e-09
1.28964184526e-10
2.44818890727e-09
5.74773342591e-10
7.50515600113e-10
1.46836301853e-09
1.46586679692e-09
2.58766529319e-10
2.40088666565e-10
2.69506285322e-09
4.17496074828e-09
2.07769508143e-10
1.90597241112e-09

