# vtk DataFile Version 3.0
File Name: Molecule/methanol/methanol_4.0-2.vtk
ASCII
DATASET UNSTRUCTURED_GRID
FIELD FieldData 1
TIME 1 1 double
0.0
POINTS 214 double
1.611 0.0 -0.359
1.51 -0.576 -0.349
1.403 0.0 -0.933
1.311 -0.525 -0.924
1.219 -1.083 -0.32
1.046 -0.986 -0.897
0.773 -1.459 -0.275
0.639 -1.329 -0.857
0.226 -1.659 -0.221
0.141 -1.511 -0.807
-0.356 -1.659 -0.163
-0.389 -1.511 -0.754
-0.903 -1.459 -0.108
-0.887 -1.329 -0.705
-1.349 -1.083 -0.064
-1.294 -0.986 -0.664
-1.64 -0.576 -0.035
-1.559 -0.525 -0.638
-1.742 -0.0 -0.025
-1.651 -0.0 -0.629
-1.64 0.576 -0.035
-1.559 0.525 -0.638
-1.349 1.083 -0.064
-1.294 0.986 -0.664
-0.903 1.459 -0.108
-0.887 1.329 -0.705
-0.356 1.659 -0.163
-0.389 1.511 -0.754
0.226 1.659 -0.221
0.141 1.511 -0.807
0.773 1.459 -0.275
0.639 1.329 -0.857
1.219 1.083 -0.32
1.046 0.986 -0.897
1.51 0.576 -0.349
1.311 0.525 -0.924
1.907 0.0 0.656
1.83 0.532 0.656
1.83 0.266 1.116
1.83 -0.266 1.116
1.83 -0.532 0.656
1.83 -0.266 0.195
1.83 0.266 0.195
1.607 0.884 1.166
1.607 0.51 1.539
1.607 -0.0 1.676
1.607 -0.51 1.539
1.607 -0.884 1.166
1.607 -1.02 0.656
1.607 -0.884 0.145
1.607 0.884 0.145
1.607 1.02 0.656
1.255 1.33 1.171
1.255 1.054 1.617
1.255 0.636 1.933
1.255 0.132 2.076
1.255 -0.39 2.028
1.255 -0.86 1.794
1.255 -1.213 1.407
1.255 -1.402 0.918
1.255 -1.402 0.393
1.255 1.33 0.14
1.255 1.426 0.656
0.803 1.633 1.186
0.803 1.389 1.665
0.803 1.009 2.045
0.803 0.531 2.288
0.803 -0.0 2.373
0.803 -0.531 2.288
0.803 -1.009 2.045
0.803 -1.389 1.665
0.803 -1.633 1.186
0.803 -1.717 0.656
0.803 -1.633 0.125
0.803 1.633 0.125
0.803 1.717 0.656
0.288 1.793 1.182
0.288 1.572 1.666
0.288 1.223 2.068
0.288 0.776 2.355
0.288 0.266 2.505
0.288 -0.266 2.505
0.288 -0.776 2.355
0.288 -1.223 2.068
0.288 -1.572 1.666
0.288 -1.793 1.182
0.288 -1.868 0.656
0.288 -1.793 0.129
0.288 1.793 0.129
0.288 1.868 0.656
-0.25 1.793 1.182
-0.25 1.572 1.666
-0.25 1.223 2.068
-0.25 0.776 2.355
-0.25 0.266 2.505
-0.25 -0.266 2.505
-0.25 -0.776 2.355
-0.25 -1.223 2.068
-0.25 -1.572 1.666
-0.25 -1.793 1.182
-0.25 -1.868 0.656
-0.25 -1.793 0.129
-0.25 1.793 0.129
-0.25 1.868 0.656
-0.765 1.717 0.656
-0.765 1.633 1.186
-0.765 1.389 1.665
-0.765 1.009 2.045
-0.765 0.531 2.288
-0.765 -0.0 2.373
-0.765 -0.531 2.288
-0.765 -1.009 2.045
-0.765 -1.389 1.665
-0.765 -1.633 1.186
-0.765 -1.717 0.656
-1.217 1.426 0.656
-1.217 1.33 1.171
-1.217 1.054 1.617
-1.217 0.636 1.933
-1.217 0.132 2.076
-1.217 -0.39 2.028
-1.217 -0.86 1.794
-1.217 -1.213 1.407
-1.217 -1.402 0.918
-1.217 -1.402 0.393
-1.569 1.02 0.656
-1.569 0.884 1.166
-1.569 0.51 1.539
-1.569 -0.0 1.676
-1.569 -0.51 1.539
-1.569 -0.884 1.166
-1.569 -1.02 0.656
-1.792 0.532 0.656
-1.792 0.266 1.116
-1.792 -0.266 1.116
-1.792 -0.532 0.656
-1.868 0.0 0.656
1.056 0.854 -1.231
1.056 0.493 -1.592
0.648 0.94 -1.677
0.648 1.228 -1.246
0.648 -1.228 -1.246
0.147 -1.421 -1.254
0.147 -1.158 -1.709
0.648 -0.94 -1.677
0.147 -0.756 -2.046
0.648 -0.509 -1.965
0.147 -0.263 -2.226
0.648 0.0 -2.067
0.147 0.262 -2.226
0.648 0.509 -1.965
0.147 0.756 -2.046
0.147 1.158 -1.709
0.147 1.421 -1.254
-0.386 -1.421 -1.254
-0.386 -1.158 -1.709
-0.386 -0.756 -2.046
-0.386 -0.263 -2.226
-0.386 0.262 -2.226
-0.386 0.756 -2.046
-0.386 1.158 -1.709
-0.386 1.421 -1.254
-0.887 -1.228 -1.246
-0.887 -0.94 -1.677
-0.887 -0.509 -1.965
-0.887 0.0 -2.067
-0.887 0.509 -1.965
-0.887 0.94 -1.677
-0.887 1.228 -1.246
-1.296 -0.854 -1.231
-1.296 -0.493 -1.592
-1.296 -0.0 -1.724
-1.296 0.493 -1.592
-1.296 0.854 -1.231
-1.562 -0.263 -1.192
-1.562 0.263 -1.192
1.323 0.263 -1.192
1.323 -0.263 -1.192
1.056 -0.854 -1.231
1.323 0.0 -1.192
1.1895 0.1315 -1.458
1.1895 -0.1315 -1.458
1.056 -0.0 -1.724
1.1895 0.378 -1.392
1.056 0.2465 -1.658
1.056 -0.2465 -1.658
0.852 -0.2545 -1.8445
0.852 -0.501 -1.7785
0.852 0.0 -1.8955
0.648 -0.2545 -2.016
0.852 0.2545 -1.8445
0.648 0.2545 -2.016
0.852 0.501 -1.7785
1.1895 -0.5585 -1.2115
0.852 -0.897 -1.454
1.1895 -0.46825 -1.30175
1.1895 -0.378 -1.392
1.12275 -0.616 -1.3115
1.12275 -0.52575 -1.40175
1.056 -0.6735 -1.4115
1.12275 -0.70625 -1.22125
1.056 -0.76375 -1.32125
1.12275 -0.4355 -1.492
1.056 -0.58325 -1.50175
1.056 -0.493 -1.592
1.1895 -0.25475 -1.425
1.12275 -0.31225 -1.525
1.12275 -0.189 -1.558
1.056 -0.36975 -1.625
0.852 -0.80675 -1.54425
0.852 -0.7165 -1.6345
0.954 -0.497 -1.68525
0.75 -0.7205 -1.72775
0.954 -0.37375 -1.71825

CELLS 424 1696
3 0 1 2
3 2 1 3
3 1 4 3
3 3 4 5
3 4 6 5
3 5 6 7
3 6 8 7
3 7 8 9
3 8 10 9
3 9 10 11
3 10 12 11
3 11 12 13
3 12 14 13
3 13 14 15
3 14 16 15
3 15 16 17
3 16 18 17
3 17 18 19
3 18 20 19
3 19 20 21
3 20 22 21
3 21 22 23
3 22 24 23
3 23 24 25
3 24 26 25
3 25 26 27
3 26 28 27
3 27 28 29
3 28 30 29
3 29 30 31
3 30 32 31
3 31 32 33
3 32 34 33
3 33 34 35
3 34 0 35
3 35 0 2
3 36 37 38
3 36 38 39
3 36 39 40
3 36 40 41
3 36 41 42
3 36 42 37
3 38 37 43
3 38 43 44
3 38 44 45
3 39 38 45
3 39 45 46
3 39 46 47
3 40 39 47
3 40 47 48
3 40 48 49
3 41 40 49
3 37 42 50
3 37 50 51
3 37 51 43
3 43 51 52
3 43 52 53
3 44 43 53
3 44 53 54
3 44 54 55
3 45 44 55
3 45 55 56
3 46 45 56
3 46 56 57
3 47 46 57
3 47 57 58
3 47 58 59
3 48 47 59
3 48 59 60
3 49 48 60
3 51 50 61
3 51 61 62
3 51 62 52
3 52 62 63
3 52 63 64
3 53 52 64
3 53 64 65
3 54 53 65
3 54 65 66
3 55 54 66
3 55 66 67
3 56 55 67
3 56 67 68
3 57 56 68
3 57 68 69
3 57 69 70
3 58 57 70
3 58 70 71
3 59 58 71
3 59 71 72
3 60 59 72
3 60 72 73
3 62 61 74
3 62 74 75
3 62 75 63
3 63 75 76
3 63 76 77
3 64 63 77
3 64 77 78
3 65 64 78
3 65 78 79
3 66 65 79
3 66 79 80
3 67 66 80
3 67 80 81
3 68 67 81
3 68 81 82
3 69 68 82
3 69 82 83
3 70 69 83
3 70 83 84
3 71 70 84
3 71 84 85
3 72 71 85
3 72 85 86
3 72 86 87
3 73 72 87
3 75 74 88
3 75 88 89
3 75 89 76
3 76 89 90
3 76 90 91
3 77 76 91
3 77 91 92
3 78 77 92
3 78 92 93
3 79 78 93
3 79 93 94
3 80 79 94
3 80 94 95
3 81 80 95
3 81 95 96
3 82 81 96
3 82 96 97
3 83 82 97
3 83 97 98
3 84 83 98
3 84 98 99
3 85 84 99
3 85 99 100
3 86 85 100
3 86 100 101
3 87 86 101
3 89 88 102
3 89 102 103
3 89 103 90
3 90 103 104
3 90 104 105
3 91 90 105
3 91 105 106
3 92 91 106
3 92 106 107
3 93 92 107
3 93 107 108
3 94 93 108
3 94 108 109
3 95 94 109
3 95 109 110
3 96 95 110
3 96 110 111
3 97 96 111
3 97 111 112
3 98 97 112
3 98 112 113
3 99 98 113
3 99 113 114
3 100 99 114
3 101 100 114
3 103 102 104
3 105 104 115
3 105 115 116
3 106 105 116
3 106 116 117
3 107 106 117
3 107 117 118
3 108 107 118
3 108 118 119
3 109 108 119
3 109 119 120
3 110 109 120
3 110 120 121
3 111 110 121
3 112 111 121
3 112 121 122
3 113 112 122
3 113 122 123
3 114 113 123
3 114 123 124
3 116 115 125
3 116 125 126
3 117 116 126
3 117 126 127
3 118 117 127
3 119 118 127
3 119 127 128
3 120 119 128
3 120 128 129
3 121 120 129
3 121 129 130
3 122 121 130
3 123 122 130
3 123 130 131
3 124 123 131
3 126 125 132
3 126 132 133
3 127 126 133
3 128 127 133
3 128 133 134
3 129 128 134
3 130 129 134
3 130 134 135
3 131 130 135
3 133 132 136
3 134 133 136
3 135 134 136
3 135 136 18
3 135 18 16
3 135 16 131
3 131 16 14
3 131 14 124
3 124 14 12
3 124 12 114
3 114 12 101
3 101 12 10
3 101 10 8
3 101 8 87
3 87 8 73
3 73 8 6
3 73 6 4
3 73 4 60
3 60 4 49
3 49 4 1
3 49 1 41
3 41 1 0
3 41 0 42
3 42 0 34
3 42 34 50
3 50 34 32
3 50 32 61
3 61 32 30
3 61 30 74
3 74 30 28
3 74 28 88
3 88 28 102
3 102 28 26
3 102 26 24
3 102 24 104
3 104 24 115
3 115 24 22
3 115 22 125
3 125 22 20
3 125 20 132
3 132 20 18
3 132 18 136
3 137 138 139
3 137 139 140
3 141 142 143
3 144 141 143
3 144 143 145
3 146 144 145
3 146 145 147
3 148 147 149
3 150 149 151
3 139 150 151
3 139 151 152
3 140 139 152
3 140 152 153
3 142 154 155
3 143 142 155
3 145 143 155
3 145 155 156
3 145 156 157
3 147 145 157
3 147 157 158
3 149 147 158
3 149 158 159
3 151 149 159
3 151 159 160
3 152 151 160
3 152 160 161
3 153 152 161
3 155 154 162
3 155 162 163
3 156 155 163
3 156 163 164
3 157 156 164
3 157 164 165
3 158 157 165
3 158 165 166
3 159 158 166
3 159 166 167
3 160 159 167
3 160 167 168
3 161 160 168
3 163 162 169
3 163 169 170
3 164 163 170
3 164 170 171
3 165 164 171
3 166 165 171
3 166 171 172
3 167 166 172
3 167 172 173
3 168 167 173
3 170 169 174
3 171 170 174
3 171 174 175
3 172 171 175
3 173 172 175
3 173 175 21
3 173 21 23
3 173 23 168
3 168 23 25
3 168 25 161
3 161 25 27
3 161 27 29
3 161 29 153
3 153 29 31
3 153 31 140
3 140 31 33
3 140 33 137
3 137 33 35
3 137 35 176
3 176 35 2
3 177 2 3
3 178 3 5
3 178 5 141
3 141 5 7
3 141 7 142
3 142 7 9
3 142 9 154
3 154 9 11
3 154 11 13
3 154 13 162
3 162 13 15
3 162 15 169
3 169 15 17
3 169 17 174
3 174 17 19
3 174 19 175
3 175 19 21
3 176 179 180
3 179 181 180
3 179 181 177
3 180 182 181
3 176 180 183
3 180 184 183
3 180 184 182
3 183 138 184
3 176 183 137
3 138 183 137
3 182 185 186
3 186 146 187
3 182 186 188
3 186 189 188
3 186 189 146
3 188 148 189
3 182 188 190
3 188 191 190
3 188 191 148
3 190 150 191
3 138 184 192
3 184 190 192
3 184 190 182
3 192 150 190
3 138 192 139
3 150 192 139
3 146 189 147
3 148 189 147
3 148 191 149
3 150 191 149
3 176 179 2
3 177 179 2
3 177 193 3
3 178 194 141
3 144 194 141
3 193 195 177
3 196 195 177
3 193 197 195
3 197 198 195
3 197 198 199
3 195 196 198
3 193 197 200
3 197 201 200
3 197 201 199
3 200 178 201
3 196 202 198
3 202 203 198
3 202 203 204
3 198 199 203
3 196 205 177
3 181 205 177
3 196 206 205
3 206 207 205
3 206 207 185
3 205 181 207
3 196 206 202
3 206 208 202
3 206 208 185
3 202 204 208
3 185 207 182
3 181 207 182
3 178 201 194
3 201 209 194
3 201 209 199
3 194 144 209
3 204 203 210
3 203 209 210
3 203 209 199
3 210 144 209
3 204 211 210
3 211 212 210
3 211 212 187
3 210 144 212
3 187 212 146
3 144 212 146
3 185 213 186
3 187 213 186
3 185 213 208
3 213 211 208
3 213 211 187
3 208 204 211
3 193 200 3
3 178 200 3

CELL_TYPES 424
5
5
5
5
5
5
5
5
5
5
5
5
5
5
5
5
5
5
5
5
5
5
5
5
5
5
5
5
5
5
5
5
5
5
5
5
5
5
5
5
5
5
5
5
5
5
5
5
5
5
5
5
5
5
5
5
5
5
5
5
5
5
5
5
5
5
5
5
5
5
5
5
5
5
5
5
5
5
5
5
5
5
5
5
5
5
5
5
5
5
5
5
5
5
5
5
5
5
5
5
5
5
5
5
5
5
5
5
5
5
5
5
5
5
5
5
5
5
5
5
5
5
5
5
5
5
5
5
5
5
5
5
5
5
5
5
5
5
5
5
5
5
5
5
5
5
5
5
5
5
5
5
5
5
5
5
5
5
5
5
5
5
5
5
5
5
5
5
5
5
5
5
5
5
5
5
5
5
5
5
5
5
5
5
5
5
5
5
5
5
5
5
5
5
5
5
5
5
5
5
5
5
5
5
5
5
5
5
5
5
5
5
5
5
5
5
5
5
5
5
5
5
5
5
5
5
5
5
5
5
5
5
5
5
5
5
5
5
5
5
5
5
5
5
5
5
5
5
5
5
5
5
5
5
5
5
5
5
5
5
5
5
5
5
5
5
5
5
5
5
5
5
5
5
5
5
5
5
5
5
5
5
5
5
5
5
5
5
5
5
5
5
5
5
5
5
5
5
5
5
5
5
5
5
5
5
5
5
5
5
5
5
5
5
5
5
5
5
5
5
5
5
5
5
5
5
5
5
5
5
5
5
5
5
5
5
5
5
5
5
5
5
5
5
5
5
5
5
5
5
5
5
5
5
5
5
5
5
5
5
5
5
5
5
5
5
5
5
5
5
5
5
5
5
5
5
5
5
5
5
5
5
5
5
5
5
5
5
5
5
5
5
5
5
5
5
5
5
5
5
5
5
5
5
5
5
5
5
5
5
5
5
5
5
5
5
5
5
5
5
5
5
5
5

CELL_DATA 424
SCALARS cell_data_0 double
LOOKUP_TABLE default
3.08537916624e-07
5.44375061948e-07
5.91850452995e-07
1.47909477252e-07
1.50111160114e-08
3.32932602465e-08
4.11002182878e-08
5.64334111522e-08
3.90547233144e-08
5.01408872646e-08
3.19982969039e-08
4.15121448572e-08
2.65030344558e-08
3.43444931136e-08
2.22374372555e-08
3.00177352624e-08
2.08631444997e-08
2.824127042e-08
2.01848943223e-08
2.75527059814e-08
2.03668152075e-08
2.91379139011e-08
2.2589310333e-08
3.28634278525e-08
2.63432766427e-08
3.79127781844e-08
3.11043814082e-08
4.38407361374e-08
3.42254828586e-08
4.61706862029e-08
2.95185656611e-08
1.72021853242e-08
2.27975058547e-09
1.66451115934e-07
1.51222989045e-07
1.19676174062e-07
5.44609357674e-09
5.76974445501e-09
5.22480374989e-09
6.74618638698e-09
8.03480141719e-09
5.87820180027e-09
7.51938979608e-09
6.18851978543e-09
6.16946123586e-09
7.64099321658e-09
6.49833753455e-09
6.5258027733e-09
6.97333305975e-09
6.32275750757e-09
5.75922819394e-09
8.43133075157e-09
8.25997293556e-09
6.18031717058e-09
6.18113561006e-09
6.05750024978e-09
5.12669162378e-09
5.81926586206e-09
5.07506569166e-09
5.28698625978e-09
5.71965508912e-09
5.28450386331e-09
6.46367487156e-09
5.79455250181e-09
6.35339142647e-09
5.70517341203e-09
5.72310722481e-09
7.16767157386e-09
5.64370718988e-09
5.15478441781e-09
6.21633273083e-09
5.65531523987e-09
5.59441950751e-09
5.13599349787e-09
4.75754637809e-09
4.88747090277e-09
4.4901618898e-09
4.76897066384e-09
4.47266163878e-09
4.78513026354e-09
4.51577499279e-09
4.98337788643e-09
4.76450683983e-09
5.12867067415e-09
5.04804960029e-09
5.31246332789e-09
5.60156743266e-09
5.24647016869e-09
5.55560509439e-09
4.64757712324e-09
4.13306476508e-09
2.41176171397e-09
5.0626022362e-09
4.90912354971e-09
4.98931752078e-09
4.50754617585e-09
4.14206563223e-09
4.35652304714e-09
3.89163269387e-09
4.15074493064e-09
3.72953430607e-09
4.10615386507e-09
3.72771287648e-09
4.15204549475e-09
3.85838824076e-09
4.27860254827e-09
4.04838579299e-09
4.58644678573e-09
4.40591637447e-09
4.98314174361e-09
4.66834532506e-09
4.89688834585e-09
4.26320278132e-09
4.08229819435e-09
2.36859562323e-09
6.23108594363e-10
1.28523636272e-09
4.18859413168e-09
4.05767422867e-09
4.2677261213e-09
3.84475896201e-09
3.63538226568e-09
3.79458027241e-09
3.55148644775e-09
3.55767017663e-09
3.3488336908e-09
3.41062871181e-09
3.37701351962e-09
3.47340296328e-09
3.48424915975e-09
3.61865779911e-09
3.64647593429e-09
3.83730823175e-09
3.81078048808e-09
4.01684146273e-09
3.90960328355e-09
4.14554957968e-09
3.61201782221e-09
3.65412065183e-09
1.74200799085e-09
8.00994848444e-10
1.03932241499e-09
7.78245233502e-10
3.20351324493e-09
3.21657444631e-09
3.61168124203e-09
3.13628505248e-09
2.97088628451e-09
3.25611105688e-09
3.14985284153e-09
3.17791147224e-09
3.12860366565e-09
3.17957394542e-09
3.13117940566e-09
3.13419480783e-09
3.09111955442e-09
3.19824379393e-09
3.13763754497e-09
3.30793996572e-09
3.22524383126e-09
3.4100640303e-09
3.38668089382e-09
3.55369316154e-09
3.41206808693e-09
3.12753085016e-09
2.81789670545e-09
1.4964628251e-09
3.17807650081e-10
2.69696032646e-09
2.61491701932e-09
2.35891138463e-09
2.66619550126e-09
2.67815553258e-09
2.8335499606e-09
2.84553711948e-09
2.88832701149e-09
2.85884784297e-09
2.8271827411e-09
2.86377892831e-09
2.8873899186e-09
2.92170747528e-09
3.00138593674e-09
3.08977610999e-09
2.94112608654e-09
2.99197144746e-09
2.55222929407e-09
2.40734635464e-09
1.83721952962e-09
2.17536023661e-09
1.94911329193e-09
2.1607124083e-09
2.48090914162e-09
2.511318365e-09
2.64489970726e-09
2.61572240219e-09
2.61071201108e-09
2.67930176873e-09
2.59537767441e-09
2.57932854948e-09
2.56685037887e-09
2.12327113663e-09
1.86161136733e-09
1.55238593295e-09
1.832403726e-09
1.88978241844e-09
1.95463357903e-09
2.21664004941e-09
2.24739016466e-09
2.21150803951e-09
2.01086889855e-09
1.9902122248e-09
1.96169911596e-09
1.57424483186e-09
1.37422931387e-09
1.57985332282e-09
1.31183761174e-09
6.49999317108e-09
1.07213450479e-09
6.92267542631e-09
1.63223890195e-09
6.36633031401e-09
2.41967099753e-09
5.44517779798e-09
5.84022803944e-09
7.17780559284e-09
3.98710008232e-09
3.6035946863e-09
1.01110728377e-08
1.08356521801e-08
6.85711580414e-09
6.38176084961e-09
2.75280579697e-07
3.41300683963e-07
3.36816844916e-07
3.9078212672e-09
1.65081203124e-08
4.55397921278e-09
1.78826347392e-09
3.04065774971e-09
3.96446091886e-09
5.56218388966e-11
6.07863752142e-09
9.18362092559e-10
1.27792443548e-09
5.25652447721e-09
4.45381871586e-09
2.79513432081e-09
1.30750024967e-09
7.35603852943e-09
8.69474423736e-10
6.58177784006e-09
1.21554808729e-09
6.742831528e-09
1.41241588779e-09
6.13861328965e-08
3.24350775553e-08
4.11127067127e-08
4.31256965378e-08
5.54141184063e-08
3.83521310506e-08
4.28404014926e-08
6.43701061251e-08
4.35152416272e-08
3.28248663204e-08
6.14759332632e-08
3.72760059115e-08
4.41564946058e-08
5.56475235084e-08
5.50496743409e-08
5.12878469645e-08
4.89936848623e-08
4.62396257286e-08
4.7735475384e-08
4.45183536828e-08
5.06248244001e-08
5.03903375966e-08
5.53335481023e-08
5.20824927772e-08
5.42058062021e-08
5.06935102934e-08
5.16436132596e-08
4.73323192482e-08
4.26885232071e-08
4.36323534636e-08
3.89971248273e-08
3.96964832887e-08
3.76206760847e-08
3.9576546735e-08
3.9188752958e-08
4.24938302668e-08
4.08869738995e-08
4.44441724778e-08
3.99055194993e-08
4.30320957735e-08
3.43402946279e-08
3.24029906597e-08
3.22451165547e-08
2.55320553506e-07
2.53467335649e-07
2.53745054222e-07
4.83672296106e-07
7.11377308991e-08
1.35309683456e-07
1.21091702873e-08
9.6622329191e-08
3.61766725951e-07
1.63074148137e-06
1.58531045872e-06
1.09116996696e-06
1.07836475397e-06
2.53259828948e-08
2.08154450019e-08
3.79579804727e-08
4.23009909904e-08
4.31891291255e-08
4.72050670814e-08
4.4270893227e-08
4.65268162238e-08
3.21094252999e-08
6.83484684024e-09
8.55070877085e-09
6.74582432068e-08
1.41576088357e-07
1.06175399572e-07
8.94071038097e-08
1.08435451059e-07
2.58365844652e-08
9.16254458253e-09
3.2160032048e-08
5.48963281112e-08
5.24878770402e-08
5.56359554254e-08
4.93256514106e-08
4.87921541439e-08
4.34149963805e-08
4.16446375463e-08
3.73922638863e-08
1.21714719469e-07
8.69831731659e-08
8.48815317713e-07
6.23040649594e-07
9.60892192848e-08
3.79071066552e-09
3.97817771659e-08
6.90839771746e-08
1.00284110012e-07
5.31487034778e-08
2.21346215012e-08
4.51246035905e-08
1.77068938618e-07
7.15000382522e-08
1.24799739449e-07
3.03959749547e-09
1.96914223852e-08
1.72369036914e-07
1.82058272646e-07
1.27766161388e-07
1.38721471102e-08
4.33629743831e-08
6.1471910258e-08
1.39924467775e-08
8.86603571798e-08
1.26565248422e-07
2.28998482632e-08
1.01853254144e-07
1.11641065625e-07
1.30859459401e-07
2.41293304865e-07
1.84655999271e-07
5.31669249295e-08
5.95099648515e-08
8.09925391049e-08
6.73877388607e-08
3.94666736805e-07
1.63336790028e-07
1.27322332681e-07
2.23113849549e-07
9.35584148935e-08
1.24498424013e-07
3.93073063443e-08
2.9932080463e-08
6.55432177042e-08
8.97182760858e-08
4.06851151534e-08
5.98472620827e-08
2.92940057448e-08
5.1193278272e-09
1.81646272441e-08
2.15118847393e-08
2.54376540671e-08
7.73353752093e-08
9.17930456711e-08
6.4036510063e-08
5.71785891108e-08
3.79450305451e-08
1.04310609691e-08
2.82499808737e-08
4.18492314814e-08
5.93996113352e-08
1.41308873321e-08
2.81695834081e-08
8.20367452276e-08
9.79016949684e-09
1.80135406732e-08
1.12862542061e-07
3.41090672452e-08
1.69618311323e-09
1.70799713201e-09
3.00638831748e-08
4.56732222565e-09
1.57091517515e-08
2.92683314019e-09
2.75803502553e-09
5.02725549733e-09
3.84157326222e-08
1.46600866626e-08
2.96914427315e-08
4.54714123064e-08
8.32335495679e-09
4.53500075562e-08
3.16176564458e-08
1.59857102764e-08
2.25209008155e-07
2.23241332363e-08

