# vtk DataFile Version 3.0
File Name: Molecule/methanol/methanol_2.0-test-4.vtk
ASCII
DATASET UNSTRUCTURED_GRID
FIELD FieldData 1
TIME 1 1 double
0.0
POINTS 108 double
1.611 0.0 -0.359
1.445 -0.731 -0.342
1.403 0.0 -0.933
1.252 -0.666 -0.918
0.98 -1.317 -0.296
0.828 -1.2 -0.876
0.308 -1.642 -0.229
0.216 -1.496 -0.815
-0.438 -1.642 -0.155
-0.464 -1.496 -0.747
-1.11 -1.317 -0.088
-1.076 -1.2 -0.686
-1.576 -0.731 -0.042
-1.5 -0.666 -0.644
-1.742 0.0 -0.025
-1.651 0.0 -0.629
-1.576 0.731 -0.042
-1.5 0.666 -0.644
-1.11 1.317 -0.088
-1.076 1.2 -0.686
-0.438 1.642 -0.155
-0.464 1.496 -0.747
0.308 1.642 -0.229
0.216 1.496 -0.815
0.98 1.317 -0.296
0.828 1.2 -0.876
1.445 0.731 -0.342
1.252 0.666 -0.918
1.907 0.0 0.656
1.763 0.722 0.656
1.763 0.361 1.281
1.763 -0.361 1.281
1.763 -0.722 0.656
1.763 -0.361 0.03
1.763 0.361 0.03
1.354 1.123 1.377
1.354 0.554 1.87
1.354 -0.19 1.977
1.354 -0.874 1.664
1.354 -1.281 1.032
1.354 -1.281 0.28
1.354 1.335 0.656
0.741 1.571 1.412
0.741 1.087 2.019
0.741 0.388 2.356
0.741 -0.388 2.356
0.741 -1.087 2.019
0.741 -1.571 1.412
0.741 -1.744 0.656
0.741 1.744 0.656
0.019 1.744 1.378
0.019 1.335 1.99
0.019 0.722 2.399
0.019 -0.0 2.543
0.019 -0.722 2.399
0.019 -1.335 1.99
0.019 -1.744 1.378
0.019 -1.888 0.656
0.019 1.888 0.656
-0.703 1.744 0.656
-0.703 1.571 1.412
-0.703 1.087 2.019
-0.703 0.388 2.356
-0.703 -0.388 2.356
-0.703 -1.087 2.019
-0.703 -1.571 1.412
-0.703 -1.744 0.656
-1.316 1.335 0.656
-1.316 1.123 1.377
-1.316 0.554 1.87
-1.316 -0.19 1.977
-1.316 -0.874 1.664
-1.316 -1.281 1.032
-1.725 0.722 0.656
-1.725 0.361 1.281
-1.725 -0.361 1.281
-1.725 -0.722 0.656
-1.868 0.0 0.656
1.21 0.384 -1.402
0.648 0.552 -1.946
0.648 1.118 -1.456
0.648 -0.871 -1.742
-0.12 -1.149 -1.755
-0.12 -0.544 -2.172
0.648 -0.189 -2.053
-0.12 0.185 -2.261
-0.12 0.872 -2.0
-0.12 1.359 -1.451
-0.887 -1.276 -1.112
-0.887 -0.871 -1.742
-0.887 -0.189 -2.053
-0.887 0.552 -1.946
-0.887 1.118 -1.456
-1.449 -0.384 -1.402
-1.449 0.384 -1.402
1.21 -0.384 -1.402
0.929 -0.2865 -1.7275
0.929 0.0975 -1.7275
1.0695 -0.33525 -1.56475
1.21 0.0 -1.402
1.0695 -0.14325 -1.56475
1.21 -0.192 -1.402
1.3065 0.192 -1.1675
1.21 0.192 -1.402
1.3065 0.0 -1.1675
1.25825 0.192 -1.28475
1.25825 0.096 -1.28475
1.3065 0.096 -1.1675

CELLS 212 848
3 0 1 2
3 2 1 3
3 1 4 3
3 3 4 5
3 4 6 5
3 5 6 7
3 6 8 7
3 7 8 9
3 8 10 9
3 9 10 11
3 10 12 11
3 11 12 13
3 12 14 13
3 13 14 15
3 14 16 15
3 15 16 17
3 16 18 17
3 17 18 19
3 18 20 19
3 19 20 21
3 20 22 21
3 21 22 23
3 22 24 23
3 23 24 25
3 24 26 25
3 25 26 27
3 26 0 27
3 27 0 2
3 28 29 30
3 28 30 31
3 28 31 32
3 28 32 33
3 28 33 34
3 28 34 29
3 30 29 35
3 30 35 36
3 30 36 37
3 31 30 37
3 31 37 38
3 31 38 39
3 32 31 39
3 32 39 40
3 33 32 40
3 29 41 35
3 35 41 42
3 35 42 43
3 36 35 43
3 36 43 44
3 37 36 44
3 37 44 45
3 38 37 45
3 38 45 46
3 38 46 47
3 39 38 47
3 39 47 48
3 40 39 48
3 41 49 42
3 42 49 50
3 42 50 51
3 43 42 51
3 43 51 52
3 44 43 52
3 44 52 53
3 45 44 53
3 45 53 54
3 46 45 54
3 46 54 55
3 47 46 55
3 47 55 56
3 48 47 56
3 48 56 57
3 49 58 50
3 50 58 59
3 50 59 60
3 51 50 60
3 51 60 61
3 52 51 61
3 52 61 62
3 53 52 62
3 53 62 63
3 54 53 63
3 54 63 64
3 55 54 64
3 55 64 65
3 56 55 65
3 56 65 66
3 57 56 66
3 60 59 67
3 60 67 68
3 61 60 68
3 61 68 69
3 62 61 69
3 62 69 70
3 63 62 70
3 63 70 71
3 64 63 71
3 65 64 71
3 65 71 72
3 66 65 72
3 68 67 73
3 68 73 74
3 69 68 74
3 70 69 74
3 70 74 75
3 71 70 75
3 72 71 75
3 72 75 76
3 74 73 77
3 75 74 77
3 76 75 77
3 76 77 14
3 76 14 12
3 76 12 10
3 76 10 72
3 72 10 66
3 66 10 8
3 66 8 57
3 57 8 6
3 57 6 48
3 48 6 4
3 48 4 40
3 40 4 1
3 40 1 33
3 33 1 0
3 33 0 34
3 34 0 26
3 34 26 29
3 29 26 41
3 41 26 24
3 41 24 49
3 49 24 22
3 49 22 58
3 58 22 20
3 58 20 59
3 59 20 18
3 59 18 67
3 67 18 16
3 67 16 73
3 73 16 14
3 73 14 77
3 78 79 80
3 81 82 83
3 84 81 83
3 84 83 85
3 79 84 85
3 79 85 86
3 80 79 86
3 80 86 87
3 82 88 89
3 83 82 89
3 83 89 90
3 85 83 90
3 85 90 91
3 86 85 91
3 86 91 92
3 87 86 92
3 89 88 93
3 90 89 93
3 90 93 94
3 91 90 94
3 92 91 94
3 92 94 17
3 92 17 19
3 92 19 21
3 92 21 87
3 87 21 23
3 87 23 80
3 80 23 25
3 80 25 27
3 80 27 78
3 95 2 3
3 95 3 81
3 81 3 5
3 81 5 7
3 81 7 82
3 82 7 9
3 82 9 88
3 88 9 11
3 88 11 13
3 88 13 93
3 93 13 15
3 93 15 94
3 94 15 17
3 84 96 81
3 97 96 84
3 78 97 79
3 97 84 79
3 95 98 81
3 98 96 81
3 99 100 97
3 100 96 97
3 99 101 100
3 101 98 100
3 101 95 98
3 100 98 96
3 95 101 2
3 2 102 27
3 78 102 27
3 78 103 97
3 103 99 97
3 99 104 101
3 101 104 2
3 103 105 78
3 78 105 102
3 103 106 105
3 106 107 105
3 106 104 107
3 105 107 102
3 104 106 99
3 103 106 99
3 102 107 2
3 107 104 2

CELL_TYPES 212
5
5
5
5
5
5
5
5
5
5
5
5
5
5
5
5
5
5
5
5
5
5
5
5
5
5
5
5
5
5
5
5
5
5
5
5
5
5
5
5
5
5
5
5
5
5
5
5
5
5
5
5
5
5
5
5
5
5
5
5
5
5
5
5
5
5
5
5
5
5
5
5
5
5
5
5
5
5
5
5
5
5
5
5
5
5
5
5
5
5
5
5
5
5
5
5
5
5
5
5
5
5
5
5
5
5
5
5
5
5
5
5
5
5
5
5
5
5
5
5
5
5
5
5
5
5
5
5
5
5
5
5
5
5
5
5
5
5
5
5
5
5
5
5
5
5
5
5
5
5
5
5
5
5
5
5
5
5
5
5
5
5
5
5
5
5
5
5
5
5
5
5
5
5
5
5
5
5
5
5
5
5
5
5
5
5
5
5
5
5
5
5
5
5
5
5
5
5
5
5
5
5
5
5
5
5
5
5
5
5
5
5

CELL_DATA 212
SCALARS cell_data_0 double
LOOKUP_TABLE default
3.01493386317e-07
4.352054037e-07
4.70732936924e-07
4.65923737956e-08
1.76703072026e-08
2.45071335699e-08
1.78946575776e-08
2.39258875235e-08
1.3546384909e-08
1.80240092761e-08
1.12392904349e-08
1.51067050433e-08
1.06356039776e-08
1.27305595847e-08
7.77516277935e-09
1.21058419924e-08
9.78073048252e-09
1.64185708982e-08
1.26413832558e-08
2.10167826064e-08
1.73430825958e-08
2.40251049286e-08
1.98762245071e-08
2.62306580605e-08
1.57849459211e-08
4.59737499558e-08
3.76080335385e-08
1.41566625481e-08
5.72713022563e-09
5.13776109356e-09
4.91965583476e-09
6.78410079826e-09
6.69606629949e-09
5.39488673773e-09
7.1379216109e-09
5.42266773686e-09
5.62048544245e-09
5.99778128101e-09
5.3454395936e-09
6.4559229278e-09
6.27997073989e-09
6.0769555993e-09
9.28535304915e-09
6.00140662232e-09
4.88523953412e-09
4.3100525128e-09
4.87879244795e-09
4.32383898925e-09
4.81972173607e-09
4.16349777409e-09
5.1719795091e-09
5.2315815823e-09
5.40054439127e-09
6.28625522606e-09
5.76328434943e-09
6.47007896712e-09
4.89513465892e-09
4.078308199e-09
3.36311041048e-09
3.99767699411e-09
3.20583794303e-09
3.52258368998e-09
3.30239734255e-09
3.99076955899e-09
3.2809059174e-09
3.88307209299e-09
3.6422429114e-09
4.71972241957e-09
3.93311508432e-09
4.58176539752e-09
3.98415433707e-09
3.85750894684e-09
3.10259701249e-09
2.95040424685e-09
2.92833487362e-09
3.05808434074e-09
2.80787000244e-09
2.90064121379e-09
3.09949749803e-09
3.30834898899e-09
2.88340761714e-09
2.61352627843e-09
2.89711660494e-09
3.21818032591e-09
3.19963850559e-09
3.21278026108e-09
3.58716063902e-09
2.43810549106e-09
2.22014523395e-09
2.61349152632e-09
2.48690768195e-09
2.523889342e-09
2.3425631025e-09
2.47994090626e-09
2.36080391458e-09
2.59319147014e-09
2.67171288085e-09
2.6140163476e-09
2.82968298557e-09
1.75436950548e-09
1.89922785354e-09
2.00390770905e-09
2.02722160263e-09
1.99538553159e-09
1.97557335638e-09
2.16805572292e-09
2.21705822885e-09
1.49636220821e-09
1.16743022195e-09
1.49981813937e-09
1.46987960173e-10
2.22123328988e-09
2.50436470895e-09
3.36675537746e-10
2.54694371765e-10
3.41545948594e-09
8.28132969151e-10
3.76198824482e-09
1.13744656218e-09
7.90100359514e-09
9.10260723193e-10
3.27371401938e-07
3.86550788498e-07
2.49549537682e-07
1.16564376883e-08
1.94761742594e-08
1.42856768935e-09
4.76553844287e-09
3.52403556072e-09
3.30136955384e-09
5.20997227323e-09
7.07848544825e-10
5.69437930861e-09
4.17770999952e-10
3.42255291761e-09
7.05895507194e-11
2.30022803133e-09
1.25227716588e-10
2.72176193663e-09
4.5733064448e-10
3.02351688624e-08
6.69244058746e-09
2.50807623529e-08
4.11678446221e-08
4.62607889062e-08
3.4948849272e-08
3.92417712263e-08
3.61022707761e-08
3.0342609542e-08
2.88690709216e-08
4.34223720625e-08
4.01902868886e-08
3.68014784607e-08
3.24394786152e-08
3.26269807237e-08
3.15983443395e-08
3.39177410747e-08
3.16021475849e-08
2.67846068186e-07
2.36518128661e-07
2.28472753275e-07
2.88148046543e-07
3.00946334382e-08
3.38422233054e-08
3.95990817701e-08
3.34053341208e-08
3.88213684126e-08
3.33696268534e-08
2.11398830313e-08
5.22226619413e-08
2.37645299947e-07
3.7082216936e-07
9.25123310667e-08
4.59457496537e-08
2.21255832879e-08
4.45337070013e-08
3.2657718769e-08
1.67739988384e-08
1.60319259183e-08
4.1519060985e-08
2.27901009443e-08
2.46515360155e-07
2.03441584542e-07
3.82073242752e-09
8.20339807363e-07
9.56631425669e-07
9.03346725735e-07
2.4430042952e-07
1.23198589303e-07
3.33142616597e-08
1.32175092836e-07
4.90163733636e-07
5.15929810939e-07
2.8480328057e-07
2.82179079814e-07
4.15732540958e-07
4.76497071391e-07
4.49351941487e-07
2.0572120186e-07
1.5701409262e-07
6.89270677391e-08
4.77524582718e-09
2.38340171118e-07
4.03379631008e-07
3.00334768892e-07
5.45163246299e-07
3.93437057275e-07
4.44954338554e-07
3.61169190291e-07
1.58967424794e-07
4.0186935604e-07
3.99927828611e-07

