# vtk DataFile Version 3.0
File Name: Molecule/methanol/methanol_5.0-0.vtk
ASCII
DATASET UNSTRUCTURED_GRID
FIELD FieldData 1
TIME 1 1 double
0.0
POINTS 240 double
1.611 0.0 -0.359
1.543 -0.475 -0.352
1.403 0.0 -0.933
1.341 -0.432 -0.927
1.345 -0.911 -0.332
1.16 -0.83 -0.909
1.032 -1.273 -0.301
0.876 -1.16 -0.88
0.631 -1.532 -0.261
0.51 -1.396 -0.844
0.173 -1.667 -0.216
0.093 -1.519 -0.802
-0.304 -1.667 -0.168
-0.341 -1.519 -0.759
-0.762 -1.532 -0.123
-0.758 -1.396 -0.718
-1.163 -1.273 -0.083
-1.124 -1.16 -0.681
-1.475 -0.911 -0.051
-1.408 -0.83 -0.653
-1.674 -0.475 -0.032
-1.589 -0.432 -0.635
-1.742 -0.0 -0.025
-1.651 -0.0 -0.629
-1.674 0.475 -0.032
-1.589 0.432 -0.635
-1.475 0.911 -0.051
-1.408 0.83 -0.653
-1.163 1.273 -0.083
-1.124 1.16 -0.681
-0.762 1.532 -0.123
-0.758 1.396 -0.718
-0.304 1.667 -0.168
-0.341 1.519 -0.759
0.173 1.667 -0.216
0.093 1.519 -0.802
0.631 1.532 -0.261
0.51 1.396 -0.844
1.032 1.273 -0.301
0.876 1.16 -0.88
1.345 0.911 -0.332
1.16 0.83 -0.909
1.543 0.475 -0.352
1.341 0.432 -0.927
1.907 0.0 0.656
1.852 0.452 0.656
1.852 0.226 1.047
1.852 -0.226 1.047
1.852 -0.452 0.656
1.852 -0.226 0.264
1.852 0.226 0.264
1.69 0.76 1.094
1.69 0.439 1.415
1.69 -0.0 1.533
1.69 -0.439 1.415
1.69 -0.76 1.094
1.69 -0.877 0.656
1.69 -0.76 0.217
1.69 -0.439 -0.104
1.69 0.439 -0.104
1.69 0.76 0.217
1.69 0.877 0.656
1.432 1.167 1.108
1.432 0.925 1.499
1.432 0.558 1.776
1.432 0.115 1.902
1.432 -0.343 1.859
1.432 -0.754 1.654
1.432 -1.064 1.315
1.432 -1.23 0.886
1.432 -1.23 0.426
1.432 -1.064 -0.003
1.432 1.167 0.203
1.432 1.252 0.656
1.091 1.484 1.113
1.091 1.283 1.531
1.091 0.969 1.87
1.091 0.568 2.102
1.091 0.116 2.205
1.091 -0.346 2.17
1.091 -0.777 2.001
1.091 -1.139 1.712
1.091 -1.4 1.33
1.091 -1.536 0.887
1.091 -1.536 0.424
1.091 -1.4 -0.018
1.091 1.484 0.198
1.091 1.553 0.656
0.688 1.705 1.112
0.688 1.528 1.538
0.688 1.248 1.904
0.688 0.882 2.184
0.688 0.457 2.36
0.688 0.0 2.42
0.688 -0.457 2.36
0.688 -0.882 2.184
0.688 -1.248 1.904
0.688 -1.528 1.538
0.688 -1.705 1.112
0.688 -1.765 0.656
0.688 -1.705 0.199
0.688 1.705 0.199
0.688 1.765 0.656
0.247 1.815 1.122
0.247 1.642 1.558
0.247 1.366 1.938
0.247 1.004 2.238
0.247 0.579 2.438
0.247 0.118 2.526
0.247 -0.351 2.496
0.247 -0.798 2.351
0.247 -1.194 2.099
0.247 -1.516 1.757
0.247 -1.742 1.345
0.247 -1.859 0.89
0.247 -1.859 0.421
0.247 1.815 0.19
0.247 1.874 0.656
-0.209 1.815 1.122
-0.209 1.642 1.558
-0.209 1.366 1.938
-0.209 1.004 2.238
-0.209 0.579 2.438
-0.209 0.118 2.526
-0.209 -0.351 2.496
-0.209 -0.798 2.351
-0.209 -1.194 2.099
-0.209 -1.516 1.757
-0.209 -1.742 1.345
-0.209 -1.859 0.89
-0.209 -1.859 0.421
-0.209 1.815 0.19
-0.209 1.874 0.656
-0.65 1.765 0.656
-0.65 1.705 1.112
-0.65 1.528 1.538
-0.65 1.248 1.904
-0.65 0.882 2.184
-0.65 0.457 2.36
-0.65 0.0 2.42
-0.65 -0.457 2.36
-0.65 -0.882 2.184
-0.65 -1.248 1.904
-0.65 -1.528 1.538
-0.65 -1.705 1.112
-0.65 -1.765 0.656
-0.65 -1.705 0.199
-0.65 1.705 0.199
-1.053 1.553 0.656
-1.053 1.484 1.113
-1.053 1.283 1.531
-1.053 0.969 1.87
-1.053 0.568 2.102
-1.053 0.116 2.205
-1.053 -0.346 2.17
-1.053 -0.777 2.001
-1.053 -1.139 1.712
-1.053 -1.4 1.33
-1.053 -1.536 0.887
-1.053 -1.536 0.424
-1.053 1.484 0.198
-1.394 1.252 0.656
-1.394 1.167 1.108
-1.394 0.925 1.499
-1.394 0.558 1.776
-1.394 0.115 1.902
-1.394 -0.343 1.859
-1.394 -0.754 1.654
-1.394 -1.064 1.315
-1.394 -1.23 0.886
-1.394 -1.23 0.426
-1.394 1.167 0.203
-1.652 0.877 0.656
-1.652 0.76 1.094
-1.652 0.439 1.415
-1.652 -0.0 1.533
-1.652 -0.439 1.415
-1.652 -0.76 1.094
-1.652 -0.877 0.656
-1.652 -0.76 0.217
-1.652 0.76 0.217
-1.814 0.452 0.656
-1.814 0.226 1.047
-1.814 -0.226 1.047
-1.814 -0.452 0.656
-1.814 -0.226 0.264
-1.814 0.226 0.264
-1.868 -0.0 0.656
1.122 -0.781 -1.188
0.783 -1.147 -1.212
0.783 -0.878 -1.615
1.122 -0.451 -1.519
0.783 -0.475 -1.885
1.122 -0.0 -1.639
0.783 0.0 -1.979
0.783 0.475 -1.885
1.122 0.451 -1.519
0.783 0.878 -1.615
1.122 0.781 -1.188
0.783 1.147 -1.212
0.355 -1.284 -1.432
0.355 -0.989 -1.811
0.355 -0.586 -2.074
0.355 -0.121 -2.192
0.355 0.358 -2.152
0.355 0.798 -1.959
0.355 1.152 -1.634
0.355 1.381 -1.211
-0.12 -1.383 -1.403
-0.12 -1.125 -1.781
-0.12 -0.767 -2.067
-0.12 -0.342 -2.234
-0.12 0.115 -2.268
-0.12 0.561 -2.166
-0.12 0.957 -1.937
-0.12 1.268 -1.602
-0.12 1.467 -1.19
-0.594 -1.44 -0.977
-0.594 -1.284 -1.432
-0.594 -0.989 -1.811
-0.594 -0.586 -2.074
-0.594 -0.121 -2.192
-0.594 0.358 -2.152
-0.594 0.798 -1.959
-0.594 1.152 -1.634
-0.594 1.381 -1.211
-1.022 -1.147 -1.212
-1.022 -0.878 -1.615
-1.022 -0.475 -1.885
-1.022 0.0 -1.979
-1.022 0.475 -1.885
-1.022 0.878 -1.615
-1.022 1.147 -1.212
-1.362 -0.781 -1.188
-1.362 -0.451 -1.519
-1.362 -0.0 -1.639
-1.362 0.451 -1.519
-1.362 0.781 -1.188
-1.58 -0.237 -1.148
-1.58 0.237 -1.148

CELLS 476 1904
3 0 1 2
3 2 1 3
3 1 4 3
3 3 4 5
3 4 6 5
3 5 6 7
3 6 8 7
3 7 8 9
3 8 10 9
3 9 10 11
3 10 12 11
3 11 12 13
3 12 14 13
3 13 14 15
3 14 16 15
3 15 16 17
3 16 18 17
3 17 18 19
3 18 20 19
3 19 20 21
3 20 22 21
3 21 22 23
3 22 24 23
3 23 24 25
3 24 26 25
3 25 26 27
3 26 28 27
3 27 28 29
3 28 30 29
3 29 30 31
3 30 32 31
3 31 32 33
3 32 34 33
3 33 34 35
3 34 36 35
3 35 36 37
3 36 38 37
3 37 38 39
3 38 40 39
3 39 40 41
3 40 42 41
3 41 42 43
3 42 0 43
3 43 0 2
3 44 45 46
3 44 46 47
3 44 47 48
3 44 48 49
3 44 49 50
3 44 50 45
3 46 45 51
3 46 51 52
3 46 52 53
3 47 46 53
3 47 53 54
3 47 54 55
3 48 47 55
3 48 55 56
3 48 56 57
3 49 48 57
3 49 57 58
3 50 59 60
3 45 50 60
3 45 60 61
3 45 61 51
3 51 61 62
3 51 62 63
3 52 51 63
3 52 63 64
3 52 64 65
3 53 52 65
3 53 65 66
3 54 53 66
3 54 66 67
3 55 54 67
3 55 67 68
3 55 68 69
3 56 55 69
3 56 69 70
3 57 56 70
3 57 70 71
3 61 60 72
3 61 72 73
3 61 73 62
3 62 73 74
3 62 74 75
3 63 62 75
3 63 75 76
3 64 63 76
3 64 76 77
3 65 64 77
3 65 77 78
3 65 78 79
3 66 65 79
3 66 79 80
3 67 66 80
3 67 80 81
3 68 67 81
3 68 81 82
3 69 68 82
3 69 82 83
3 69 83 84
3 70 69 84
3 70 84 85
3 71 70 85
3 73 72 86
3 73 86 87
3 73 87 74
3 74 87 88
3 74 88 89
3 75 74 89
3 75 89 90
3 76 75 90
3 76 90 91
3 77 76 91
3 77 91 92
3 78 77 92
3 78 92 93
3 79 78 93
3 79 93 94
3 80 79 94
3 80 94 95
3 80 95 96
3 81 80 96
3 81 96 97
3 82 81 97
3 82 97 98
3 83 82 98
3 83 98 99
3 84 83 99
3 84 99 100
3 85 84 100
3 87 86 101
3 87 101 102
3 87 102 88
3 88 102 103
3 88 103 104
3 89 88 104
3 89 104 105
3 90 89 105
3 90 105 106
3 91 90 106
3 91 106 107
3 92 91 107
3 92 107 108
3 93 92 108
3 93 108 109
3 94 93 109
3 94 109 110
3 95 94 110
3 95 110 111
3 96 95 111
3 96 111 112
3 97 96 112
3 97 112 113
3 98 97 113
3 98 113 114
3 99 98 114
3 99 114 115
3 100 99 115
3 102 101 116
3 102 116 117
3 102 117 103
3 103 117 118
3 103 118 119
3 104 103 119
3 104 119 120
3 105 104 120
3 105 120 121
3 106 105 121
3 106 121 122
3 107 106 122
3 107 122 123
3 108 107 123
3 108 123 124
3 109 108 124
3 109 124 125
3 110 109 125
3 110 125 126
3 111 110 126
3 111 126 127
3 112 111 127
3 112 127 128
3 113 112 128
3 113 128 129
3 114 113 129
3 114 129 130
3 115 114 130
3 117 116 131
3 117 131 132
3 117 132 118
3 118 132 133
3 118 133 134
3 119 118 134
3 119 134 135
3 120 119 135
3 120 135 136
3 121 120 136
3 121 136 137
3 122 121 137
3 122 137 138
3 123 122 138
3 123 138 139
3 124 123 139
3 124 139 140
3 125 124 140
3 125 140 141
3 126 125 141
3 126 141 142
3 127 126 142
3 127 142 143
3 128 127 143
3 128 143 144
3 129 128 144
3 129 144 145
3 130 129 145
3 130 145 146
3 133 131 147
3 132 131 133
3 134 133 148
3 134 148 149
3 135 134 149
3 135 149 150
3 136 135 150
3 136 150 151
3 137 136 151
3 137 151 152
3 138 137 152
3 138 152 153
3 139 138 153
3 139 153 154
3 140 139 154
3 140 154 155
3 141 140 155
3 142 141 155
3 142 155 156
3 143 142 156
3 143 156 157
3 144 143 157
3 144 157 158
3 145 144 158
3 145 158 159
3 146 145 159
3 148 147 160
3 133 147 148
3 149 148 161
3 149 161 162
3 150 149 162
3 150 162 163
3 151 150 163
3 151 163 164
3 152 151 164
3 152 164 165
3 153 152 165
3 154 153 165
3 154 165 166
3 155 154 166
3 155 166 167
3 156 155 167
3 156 167 168
3 157 156 168
3 157 168 169
3 158 157 169
3 158 169 170
3 159 158 170
3 161 160 171
3 148 160 161
3 162 161 172
3 162 172 173
3 163 162 173
3 163 173 174
3 164 163 174
3 165 164 174
3 165 174 175
3 166 165 175
3 166 175 176
3 167 166 176
3 167 176 177
3 168 167 177
3 169 168 177
3 169 177 178
3 170 169 178
3 170 178 179
3 172 171 180
3 161 171 172
3 173 172 181
3 173 181 182
3 174 173 182
3 175 174 182
3 175 182 183
3 176 175 183
3 177 176 183
3 177 183 184
3 178 177 184
3 179 178 184
3 179 184 185
3 181 180 186
3 172 180 181
3 182 181 187
3 183 182 187
3 184 183 187
3 185 184 187
3 186 185 187
3 181 186 187
3 186 180 24
3 186 24 22
3 186 22 185
3 185 22 20
3 185 20 179
3 179 20 18
3 179 18 170
3 170 18 16
3 170 16 159
3 159 16 14
3 159 14 146
3 146 14 12
3 146 12 130
3 130 12 10
3 130 10 115
3 115 10 100
3 100 10 8
3 100 8 85
3 85 8 6
3 85 6 71
3 71 6 4
3 71 4 58
3 71 58 57
3 58 4 1
3 58 1 0
3 58 0 49
3 49 0 50
3 50 0 59
3 59 0 42
3 59 42 40
3 59 40 60
3 60 40 72
3 72 40 38
3 72 38 86
3 86 38 36
3 86 36 101
3 101 36 116
3 116 36 34
3 116 34 131
3 131 34 32
3 131 32 147
3 147 32 30
3 147 30 160
3 160 30 28
3 160 28 171
3 171 28 26
3 171 26 180
3 180 26 24
3 188 189 190
3 191 188 190
3 191 190 192
3 193 191 192
3 193 192 194
3 193 194 195
3 196 193 195
3 196 195 197
3 198 196 197
3 198 197 199
3 190 189 200
3 190 200 201
3 192 190 201
3 192 201 202
3 192 202 203
3 194 192 203
3 194 203 204
3 195 194 204
3 195 204 205
3 197 195 205
3 197 205 206
3 199 197 206
3 199 206 207
3 200 208 209
3 201 200 209
3 201 209 210
3 202 201 210
3 202 210 211
3 203 202 211
3 203 211 212
3 204 203 212
3 204 212 213
3 205 204 213
3 205 213 214
3 206 205 214
3 206 214 215
3 207 206 215
3 207 215 216
3 208 217 218
3 209 208 218
3 209 218 219
3 210 209 219
3 210 219 220
3 211 210 220
3 211 220 221
3 212 211 221
3 212 221 222
3 213 212 222
3 213 222 223
3 214 213 223
3 214 223 224
3 215 214 224
3 215 224 225
3 216 215 225
3 218 217 226
3 218 226 227
3 219 218 227
3 219 227 228
3 220 219 228
3 221 220 228
3 221 228 229
3 222 221 229
3 222 229 230
3 223 222 230
3 223 230 231
3 224 223 231
3 224 231 232
3 225 224 232
3 227 226 233
3 227 233 234
3 228 227 234
3 228 234 235
3 229 228 235
3 230 229 235
3 230 235 236
3 231 230 236
3 231 236 237
3 232 231 237
3 234 233 238
3 235 234 238
3 235 238 239
3 236 235 239
3 237 236 239
3 237 239 25
3 237 25 27
3 237 27 29
3 237 29 232
3 232 29 31
3 232 31 225
3 225 31 33
3 225 33 216
3 216 33 35
3 216 35 207
3 207 35 37
3 207 37 199
3 199 37 39
3 199 39 198
3 198 39 41
3 198 41 43
3 198 43 196
3 196 43 2
3 196 2 193
3 193 2 191
3 191 2 3
3 191 3 188
3 188 3 5
3 188 5 7
3 188 7 189
3 189 7 9
3 189 9 200
3 200 9 11
3 200 11 208
3 208 11 13
3 208 13 217
3 217 13 15
3 217 15 226
3 226 15 17
3 226 17 233
3 233 17 19
3 233 19 21
3 233 21 238
3 238 21 23
3 238 23 239
3 239 23 25

CELL_TYPES 476
5
5
5
5
5
5
5
5
5
5
5
5
5
5
5
5
5
5
5
5
5
5
5
5
5
5
5
5
5
5
5
5
5
5
5
5
5
5
5
5
5
5
5
5
5
5
5
5
5
5
5
5
5
5
5
5
5
5
5
5
5
5
5
5
5
5
5
5
5
5
5
5
5
5
5
5
5
5
5
5
5
5
5
5
5
5
5
5
5
5
5
5
5
5
5
5
5
5
5
5
5
5
5
5
5
5
5
5
5
5
5
5
5
5
5
5
5
5
5
5
5
5
5
5
5
5
5
5
5
5
5
5
5
5
5
5
5
5
5
5
5
5
5
5
5
5
5
5
5
5
5
5
5
5
5
5
5
5
5
5
5
5
5
5
5
5
5
5
5
5
5
5
5
5
5
5
5
5
5
5
5
5
5
5
5
5
5
5
5
5
5
5
5
5
5
5
5
5
5
5
5
5
5
5
5
5
5
5
5
5
5
5
5
5
5
5
5
5
5
5
5
5
5
5
5
5
5
5
5
5
5
5
5
5
5
5
5
5
5
5
5
5
5
5
5
5
5
5
5
5
5
5
5
5
5
5
5
5
5
5
5
5
5
5
5
5
5
5
5
5
5
5
5
5
5
5
5
5
5
5
5
5
5
5
5
5
5
5
5
5
5
5
5
5
5
5
5
5
5
5
5
5
5
5
5
5
5
5
5
5
5
5
5
5
5
5
5
5
5
5
5
5
5
5
5
5
5
5
5
5
5
5
5
5
5
5
5
5
5
5
5
5
5
5
5
5
5
5
5
5
5
5
5
5
5
5
5
5
5
5
5
5
5
5
5
5
5
5
5
5
5
5
5
5
5
5
5
5
5
5
5
5
5
5
5
5
5
5
5
5
5
5
5
5
5
5
5
5
5
5
5
5
5
5
5
5
5
5
5
5
5
5
5
5
5
5
5
5
5
5
5
5
5
5
5
5
5
5
5
5
5
5
5
5
5
5
5
5
5
5
5
5
5
5
5
5
5
5
5
5
5
5
5
5
5
5
5
5
5
5
5
5
5
5
5
5
5
5
5
5
5
5
5
5
5
5

CELL_DATA 476
SCALARS cell_data_0 double
LOOKUP_TABLE default
6.52018325531e-06
5.9208068453e-06
1.68022459924e-05
9.9195964391e-07
1.36098707278e-07
1.52596231698e-07
1.47938071797e-08
2.46243670999e-08
1.20670847406e-08
3.17934870524e-08
4.11689616098e-08
7.05798158086e-08
6.88551245087e-08
7.91654225229e-08
8.0536847812e-08
1.00594330103e-07
1.13273451262e-07
1.19328646144e-07
1.15655197624e-07
1.37350434336e-07
1.48636185172e-07
1.41553077444e-07
1.3130852333e-07
1.46468783031e-07
1.58780317004e-07
1.47570518073e-07
1.38098380818e-07
1.38322051909e-07
1.50956739408e-07
1.39721602443e-07
1.40337897117e-07
1.19422493162e-07
1.30489912119e-07
1.02960919627e-07
1.14906859727e-07
8.94346373699e-08
8.34447752114e-08
8.72477919657e-08
2.79354166543e-08
2.04532647969e-07
6.46284273633e-08
8.0836544417e-07
1.02000828655e-06
1.02750222847e-06
1.96447227832e-10
3.46730653509e-11
1.42622103541e-10
1.02967454549e-09
1.31301614502e-09
2.87031907519e-09
3.7883376853e-09
4.70927445201e-09
2.97703264327e-10
2.62346270027e-09
4.66927969282e-09
3.55429413527e-09
1.14194723138e-09
1.14160297638e-08
1.44937000786e-07
1.54143971269e-07
1.62994048791e-07
5.89310357306e-08
2.27987796298e-08
1.69603159299e-08
2.95522725081e-09
1.36513646549e-08
1.91069161605e-08
1.24961424855e-08
1.14588650875e-08
3.62076807628e-09
1.88343159203e-09
7.5585490249e-09
1.09032752581e-08
1.52698516869e-08
1.05109210462e-08
1.33892678368e-08
8.91511933207e-09
6.80027622279e-09
1.13747641751e-08
1.69468828839e-07
1.45803211786e-07
2.17823675953e-08
6.77676395811e-11
1.47263722936e-08
3.09658247652e-08
3.38822733205e-08
2.78241217916e-08
2.49166256738e-08
1.8259313044e-08
1.39903271384e-08
5.03248762574e-09
6.14194287601e-10
7.59017300677e-09
1.19829410798e-08
1.83951741295e-08
2.2503936867e-08
2.77280712502e-08
2.64363925827e-08
2.93057237583e-08
2.01662097171e-08
2.03252824087e-08
8.81152675407e-09
8.32597542155e-09
4.57806771495e-09
2.65574601924e-09
1.07067044573e-08
2.72965220973e-08
3.47593442903e-08
4.92296871869e-08
4.7607941236e-08
4.1224058257e-08
3.62193496959e-08
2.99308645907e-08
2.41615252036e-08
1.70177997755e-08
1.1437265576e-08
4.29630280384e-09
7.04816691713e-10
8.13830208698e-09
1.32254232516e-08
2.03126941521e-08
2.546314671e-08
3.29015863215e-08
3.52616678527e-08
4.16067472201e-08
4.12983895609e-08
4.23065254089e-08
3.30583960568e-08
2.72099601437e-08
1.30833452671e-08
6.90698920917e-09
1.82251070174e-09
4.3097125687e-08
5.36167453977e-08
5.449175775e-08
6.47698897074e-08
6.19789773186e-08
5.29362620293e-08
4.68837476907e-08
3.9009309899e-08
3.23438441027e-08
2.51997959467e-08
1.80626026562e-08
1.19421890237e-08
4.79400192995e-09
8.98939756846e-10
8.49774484332e-09
1.38978791282e-08
2.17583279017e-08
2.62892823503e-08
3.45588676515e-08
3.80122730583e-08
4.646992292e-08
4.80405890662e-08
5.31746969891e-08
4.85911961013e-08
4.85119706838e-08
3.66438266328e-08
2.03286629019e-08
6.91190661514e-09
6.6670473248e-08
7.6033829156e-08
7.31469635001e-08
8.08281212637e-08
7.37442240975e-08
6.56684146507e-08
5.53543670001e-08
4.78842071309e-08
3.75085800136e-08
3.12861341919e-08
2.10475071005e-08
1.5719234062e-08
5.6415067505e-09
1.05147798484e-09
9.29071047956e-09
1.35153933515e-08
2.42237236541e-08
2.79201106696e-08
3.90183546539e-08
4.22974023923e-08
5.32295415676e-08
5.54126137039e-08
6.24388113236e-08
5.9964371856e-08
5.76204490187e-08
5.17812214623e-08
2.00404170266e-08
5.25073627041e-09
8.50721884192e-08
9.24790619559e-08
8.90586106486e-08
5.49055728386e-08
2.506494545e-08
4.73157019464e-08
2.05651585382e-08
3.5468437671e-08
1.41370830494e-08
2.38315932886e-08
8.84016292654e-09
1.31177078592e-08
3.71606564798e-09
2.99452468844e-09
1.14540295631e-09
7.08867685644e-09
6.01941138691e-09
1.70022030634e-08
1.11818270359e-08
2.76453368051e-08
1.68661587927e-08
3.76853257427e-08
2.17262123533e-08
4.44057737708e-08
2.46398583319e-08
4.30947686813e-08
1.85553582462e-08
1.03611407896e-08
5.42976634725e-09
2.11588368813e-08
5.85834629952e-08
3.89165946726e-09
3.75436322022e-09
2.21731027851e-09
1.47249157585e-09
8.63424643312e-10
4.02279133562e-10
6.72029953419e-10
1.23178848399e-10
5.34056660499e-10
1.77392878621e-10
2.00686221409e-10
2.45311131581e-10
3.04304855371e-10
2.00603635472e-10
5.23681613765e-10
1.98459795139e-10
7.81672466631e-13
3.95584356711e-10
4.72116842575e-10
1.08431067877e-09
2.24433669526e-09
2.15203822142e-09
3.47810953735e-09
5.14125827143e-09
1.00118864296e-08
5.81947309695e-09
4.31751225985e-09
4.01868923773e-09
2.01116102663e-09
1.37680876289e-09
9.19954511409e-10
3.39303773243e-10
5.82361311275e-10
3.01319883557e-10
4.70952234296e-10
3.27729927086e-10
1.35101470712e-10
9.51373882368e-10
8.67153090176e-10
1.42379168654e-09
9.24433638905e-10
1.01313681778e-09
2.15163659345e-09
2.36523403624e-09
5.35938453591e-09
7.82711221025e-09
1.18062225154e-08
8.19494951091e-09
4.65942226233e-09
4.04053735937e-09
1.84925105935e-09
1.42411392864e-09
1.11193161193e-09
4.09485038336e-10
1.04507624802e-09
1.63308468338e-09
7.1846350046e-10
9.28866618625e-10
1.06397767012e-09
1.17930692136e-09
2.35290216972e-09
3.87031653555e-09
4.48849748214e-09
1.01472351544e-08
1.32705316231e-08
1.00177957645e-08
4.51629306027e-09
4.58033079057e-09
2.01139238708e-09
1.98916249171e-09
2.09050036178e-09
1.78229246992e-09
2.07776443377e-09
4.83604339568e-09
4.49813655845e-09
1.06323387592e-08
1.11654433407e-08
1.11034107744e-08
1.12001322729e-08
3.28053039199e-09
3.22389364237e-09
3.31558426887e-09
8.39931301077e-09
8.56728970394e-09
8.26623648748e-09
1.5535334497e-08
1.10233145062e-08
1.47297327406e-08
1.15548694606e-08
1.60100646653e-08
6.30718890531e-09
3.51026433354e-08
5.34818894656e-08
4.83332456333e-08
6.02630576769e-08
2.90401933404e-08
1.63895346514e-08
5.6422614052e-08
8.64936481826e-08
6.59343261943e-08
6.28460464587e-08
3.9835023389e-08
2.59739312957e-08
2.0715289719e-08
7.60010071408e-09
2.22861136505e-08
1.07866784056e-08
1.41084406313e-07
6.0398395448e-06
5.64149611488e-06
2.48749126509e-08
5.11277242045e-08
9.51646048916e-09
5.1846877229e-08
7.90222297786e-11
4.54346078852e-08
2.05508323336e-08
6.13977120479e-09
8.27403813944e-09
2.2182901144e-08
3.10458797767e-08
1.74903574764e-08
9.51609018753e-09
1.22662932114e-08
1.60205048095e-08
4.16300481909e-09
1.34897231761e-08
1.45770765371e-08
1.00349763676e-08
1.29635572175e-08
7.27604422338e-09
1.17017449085e-08
6.13541790125e-09
2.23676050452e-05
1.49698466433e-06
1.02626549993e-06
1.17987091436e-06
1.36727887114e-06
1.98667642646e-06
4.97036354795e-06
3.6267348814e-06
4.09816297412e-06
5.47659088448e-07
2.30023858303e-05
8.25033359671e-07
9.56013905883e-07
2.20911603127e-07
1.27476454475e-07
6.39676300632e-06
6.96577593923e-06
5.4327887778e-06
4.44555084256e-08
5.05004916698e-07
7.73212959781e-07
7.91265583382e-07
9.25050379759e-08
6.21584212302e-08
6.4551226181e-08
7.18397505555e-08
9.74568967716e-08
1.0084427112e-07
1.24781739134e-07
1.25552841896e-07
1.36922452665e-07
1.23457289111e-07
1.1894896037e-07
9.27123425814e-08
7.435531598e-08
5.05117027335e-08
3.55501469183e-08
2.79532084087e-08
1.54728204522e-09
1.69601187842e-08
3.66912240364e-10
1.40209159794e-08
6.21445536259e-09
2.32359359182e-08
1.42861651164e-08
3.78696079416e-08
1.76845343699e-08
3.05751608821e-08
8.97095511696e-09
2.20850332568e-08
7.69968666199e-09
1.66661535292e-08
2.14465042892e-09
6.59670676657e-09
4.74556297453e-09
1.27816685679e-09
1.1728947897e-08
8.04420468848e-09
7.38394877483e-09
6.68740525654e-09
1.73325862757e-10
6.12031912072e-09
6.13677396952e-10
2.02646032274e-08
1.63352629776e-09
1.20243315416e-08
4.14518032886e-09
1.03771627224e-08
2.81263666248e-08
1.86956432044e-11
7.75296387054e-10
4.55618067854e-09
1.05863716688e-08
2.57229652247e-09
1.10014626856e-08
4.52115385894e-09
3.62673376835e-09
3.63611125004e-08
2.93253455386e-08
7.81114193918e-09
1.33269288148e-09
8.7789147808e-09
3.14178401377e-08
6.86443733394e-08
2.16710153398e-08
1.32749960257e-08
2.30583811636e-08
7.45203176016e-09
1.36606160909e-08
9.41210608891e-09
2.44458146351e-09
7.94285842017e-09
5.48972364017e-09
1.48855500844e-08
6.46049345675e-08
4.61060028286e-08
1.11135372755e-07
7.71572611251e-08
8.81460342004e-08
1.18082255822e-08
6.99252824758e-06
1.22343511283e-05
8.58180544531e-06
1.1119188989e-06
3.58844981179e-06
2.34258021135e-09
2.02108680619e-07
1.40087083055e-05
1.14218456216e-05
1.96996632443e-05
5.59021909947e-08
2.24494464763e-08
1.18982392242e-08
3.05586399067e-08
5.70410178785e-08
8.79187780862e-10
1.98265661446e-09
1.94596486595e-08
1.69097300308e-09
1.64552241122e-08
6.79113659867e-08
1.33591277586e-08
1.26556281129e-08
1.16128514925e-08

