# vtk DataFile Version 3.0
File Name: Molecule/methanol/methanol_2.0-test-2.vtk
ASCII
DATASET UNSTRUCTURED_GRID
FIELD FieldData 1
TIME 1 1 double
0.0
POINTS 1506 double
1.611 0.0 -0.359
1.5695 -0.18275 -0.35475
1.559 0.0 -0.5025
1.5175 -0.18275 -0.49825
1.528 -0.3655 -0.3505
1.507 0.0 -0.646
1.476 -0.3655 -0.494
1.4655 -0.18275 -0.64175
1.424 -0.3655 -0.6375
1.4865 -0.54825 -0.34625
1.4345 -0.54825 -0.48975
1.445 -0.731 -0.342
1.455 0.0 -0.7895
1.4135 -0.18275 -0.78525
1.403 0.0 -0.933
1.36525 -0.1665 -0.92925
1.37575 -0.34925 -0.7815
1.3275 -0.333 -0.9255
1.38625 -0.532 -0.63375
1.338 -0.51575 -0.77775
1.3485 -0.6985 -0.63
1.39675 -0.71475 -0.486
1.28975 -0.4995 -0.92175
1.30025 -0.68225 -0.774
1.252 -0.666 -0.918
1.32875 -0.8775 -0.3305
1.2805 -0.86125 -0.4745
1.2125 -1.024 -0.319
1.16425 -1.00775 -0.463
1.23225 -0.845 -0.6185
1.116 -0.9915 -0.607
1.09625 -1.1705 -0.3075
1.048 -1.15425 -0.4515
0.98 -1.317 -0.296
1.184 -0.82875 -0.7625
1.146 -0.7995 -0.9075
1.078 -0.96225 -0.752
1.04 -0.933 -0.897
1.01 -1.125 -0.5965
0.972 -1.09575 -0.7415
0.904 -1.2585 -0.586
0.942 -1.28775 -0.441
0.934 -1.0665 -0.8865
0.866 -1.22925 -0.731
0.828 -1.2 -0.876
0.812 -1.39825 -0.27925
0.774 -1.369 -0.42425
0.644 -1.4795 -0.2625
0.606 -1.45025 -0.4075
0.736 -1.33975 -0.56925
0.568 -1.421 -0.5525
0.476 -1.56075 -0.24575
0.438 -1.5315 -0.39075
0.308 -1.642 -0.229
0.698 -1.3105 -0.71425
0.675 -1.274 -0.86075
0.545 -1.3845 -0.699
0.522 -1.348 -0.8455
0.415 -1.495 -0.53725
0.392 -1.4585 -0.68375
0.262 -1.569 -0.522
0.285 -1.6055 -0.3755
0.369 -1.422 -0.83025
0.239 -1.5325 -0.6685
0.216 -1.496 -0.815
0.1215 -1.642 -0.2105
0.0985 -1.6055 -0.357
-0.065 -1.642 -0.192
-0.088 -1.6055 -0.3385
0.0755 -1.569 -0.5035
-0.111 -1.569 -0.485
-0.2515 -1.642 -0.1735
-0.2745 -1.6055 -0.32
-0.438 -1.642 -0.155
0.0525 -1.5325 -0.65
0.046 -1.496 -0.798
-0.1175 -1.5325 -0.633
-0.124 -1.496 -0.781
-0.281 -1.569 -0.468
-0.2875 -1.5325 -0.616
-0.451 -1.569 -0.451
-0.4445 -1.6055 -0.303
-0.294 -1.496 -0.764
-0.4575 -1.5325 -0.599
-0.464 -1.496 -0.747
-0.606 -1.56075 -0.13825
-0.6125 -1.52425 -0.28625
-0.774 -1.4795 -0.1215
-0.7805 -1.443 -0.2695
-0.619 -1.48775 -0.43425
-0.787 -1.4065 -0.4175
-0.942 -1.39825 -0.10475
-0.9485 -1.36175 -0.25275
-1.11 -1.317 -0.088
-0.6255 -1.45125 -0.58225
-0.617 -1.422 -0.73175
-0.7785 -1.37725 -0.567
-0.77 -1.348 -0.7165
-0.94 -1.3325 -0.40225
-0.9315 -1.30325 -0.55175
-1.093 -1.2585 -0.387
-1.1015 -1.28775 -0.2375
-0.923 -1.274 -0.70125
-1.0845 -1.22925 -0.5365
-1.076 -1.2 -0.686
-1.2265 -1.1705 -0.0765
-1.218 -1.14125 -0.226
-1.343 -1.024 -0.065
-1.3345 -0.99475 -0.2145
-1.2095 -1.112 -0.3755
-1.326 -0.9655 -0.364
-1.4595 -0.8775 -0.0535
-1.451 -0.84825 -0.203
-1.576 -0.731 -0.042
-1.201 -1.08275 -0.525
-1.182 -1.0665 -0.6755
-1.307 -0.94925 -0.5145
-1.288 -0.933 -0.665
-1.432 -0.832 -0.3535
-1.413 -0.81575 -0.504
-1.538 -0.6985 -0.343
-1.557 -0.71475 -0.1925
-1.394 -0.7995 -0.6545
-1.519 -0.68225 -0.4935
-1.5 -0.666 -0.644
-1.6175 -0.54825 -0.03775
-1.5985 -0.532 -0.18825
-1.659 -0.3655 -0.0335
-1.64 -0.34925 -0.184
-1.5795 -0.51575 -0.33875
-1.621 -0.333 -0.3345
-1.7005 -0.18275 -0.02925
-1.6815 -0.1665 -0.17975
-1.742 0.0 -0.025
-1.5605 -0.4995 -0.48925
-1.53775 -0.4995 -0.64025
-1.59825 -0.333 -0.4855
-1.5755 -0.333 -0.6365
-1.65875 -0.1665 -0.33075
-1.636 -0.1665 -0.48175
-1.6965 0.0 -0.327
-1.71925 0.0 -0.176
-1.61325 -0.1665 -0.63275
-1.67375 0.0 -0.478
-1.651 0.0 -0.629
-1.7005 0.18275 -0.02925
-1.67775 0.18275 -0.18025
-1.659 0.3655 -0.0335
-1.63625 0.3655 -0.1845
-1.655 0.18275 -0.33125
-1.6135 0.3655 -0.3355
-1.6175 0.54825 -0.03775
-1.59475 0.54825 -0.18875
-1.576 0.731 -0.042
-1.63225 0.18275 -0.48225
-1.61325 0.1665 -0.63275
-1.5945 0.34925 -0.486
-1.5755 0.333 -0.6365
-1.57575 0.532 -0.33925
-1.55675 0.51575 -0.48975
-1.538 0.6985 -0.343
-1.557 0.71475 -0.1925
-1.53775 0.4995 -0.64025
-1.519 0.68225 -0.4935
-1.5 0.666 -0.644
-1.4595 0.8775 -0.0535
-1.4405 0.86125 -0.204
-1.343 1.024 -0.065
-1.324 1.00775 -0.2155
-1.4215 0.845 -0.3545
-1.305 0.9915 -0.366
-1.2265 1.1705 -0.0765
-1.2075 1.15425 -0.227
-1.11 1.317 -0.088
-1.4025 0.82875 -0.505
-1.394 0.7995 -0.6545
-1.2965 0.96225 -0.5155
-1.288 0.933 -0.665
-1.199 1.125 -0.3765
-1.1905 1.09575 -0.526
-1.093 1.2585 -0.387
-1.1015 1.28775 -0.2375
-1.182 1.0665 -0.6755
-1.0845 1.22925 -0.5365
-1.076 1.2 -0.686
-0.942 1.39825 -0.10475
-0.9335 1.369 -0.25425
-0.774 1.4795 -0.1215
-0.7655 1.45025 -0.271
-0.925 1.33975 -0.40375
-0.757 1.421 -0.4205
-0.606 1.56075 -0.13825
-0.5975 1.5315 -0.28775
-0.438 1.642 -0.155
-0.9165 1.3105 -0.55325
-0.923 1.274 -0.70125
-0.7635 1.3845 -0.5685
-0.77 1.348 -0.7165
-0.604 1.495 -0.43575
-0.6105 1.4585 -0.58375
-0.451 1.569 -0.451
-0.4445 1.6055 -0.303
-0.617 1.422 -0.73175
-0.4575 1.5325 -0.599
-0.464 1.496 -0.747
-0.2515 1.642 -0.1735
-0.258 1.6055 -0.3215
-0.065 1.642 -0.192
-0.0715 1.6055 -0.34
-0.2645 1.569 -0.4695
-0.078 1.569 -0.488
0.1215 1.642 -0.2105
0.115 1.6055 -0.3585
0.308 1.642 -0.229
-0.271 1.5325 -0.6175
-0.294 1.496 -0.764
-0.101 1.5325 -0.6345
-0.124 1.496 -0.781
0.092 1.569 -0.505
0.069 1.5325 -0.6515
0.262 1.569 -0.522
0.285 1.6055 -0.3755
0.046 1.496 -0.798
0.239 1.5325 -0.6685
0.216 1.496 -0.815
0.476 1.56075 -0.24575
0.453 1.52425 -0.39225
0.644 1.4795 -0.2625
0.621 1.443 -0.409
0.43 1.48775 -0.53875
0.598 1.4065 -0.5555
0.812 1.39825 -0.27925
0.789 1.36175 -0.42575
0.98 1.317 -0.296
0.407 1.45125 -0.68525
0.369 1.422 -0.83025
0.56 1.37725 -0.7005
0.522 1.348 -0.8455
0.751 1.3325 -0.57075
0.713 1.30325 -0.71575
0.904 1.2585 -0.586
0.942 1.28775 -0.441
0.675 1.274 -0.86075
0.866 1.22925 -0.731
0.828 1.2 -0.876
1.09625 1.1705 -0.3075
1.05825 1.14125 -0.4525
1.2125 1.024 -0.319
1.1745 0.99475 -0.464
1.02025 1.112 -0.5975
1.1365 0.9655 -0.609
1.32875 0.8775 -0.3305
1.29075 0.84825 -0.4755
1.445 0.731 -0.342
0.98225 1.08275 -0.7425
0.934 1.0665 -0.8865
1.08825 0.94925 -0.753
1.04 0.933 -0.897
1.2425 0.832 -0.6195
1.19425 0.81575 -0.7635
1.3485 0.6985 -0.63
1.39675 0.71475 -0.486
1.146 0.7995 -0.9075
1.30025 0.68225 -0.774
1.252 0.666 -0.918
1.4865 0.54825 -0.34625
1.43825 0.532 -0.49025
1.528 0.3655 -0.3505
1.47975 0.34925 -0.4945
1.39 0.51575 -0.63425
1.4315 0.333 -0.6385
1.5695 0.18275 -0.35475
1.52125 0.1665 -0.49875
1.34175 0.4995 -0.77825
1.28975 0.4995 -0.92175
1.3795 0.333 -0.782
1.3275 0.333 -0.9255
1.46925 0.1665 -0.64225
1.41725 0.1665 -0.78575
1.36525 0.1665 -0.92925
1.907 0.0 0.656
1.871 0.1805 0.656
1.871 0.09025 0.81225
1.835 0.27075 0.81225
1.835 0.361 0.656
1.835 0.1805 0.9685
1.799 0.45125 0.81225
1.799 0.361 0.9685
1.763 0.5415 0.9685
1.799 0.5415 0.656
1.763 0.63175 0.81225
1.763 0.722 0.656
1.799 0.27075 1.12475
1.763 0.45125 1.12475
1.763 0.361 1.281
1.871 -0.09025 0.81225
1.835 0.0 0.9685
1.835 -0.1805 0.9685
1.799 0.09025 1.12475
1.799 -0.09025 1.12475
1.763 0.0 1.281
1.763 0.1805 1.281
1.799 -0.27075 1.12475
1.763 -0.1805 1.281
1.763 -0.361 1.281
1.871 -0.1805 0.656
1.835 -0.27075 0.81225
1.835 -0.361 0.656
1.799 -0.361 0.9685
1.799 -0.45125 0.81225
1.763 -0.5415 0.9685
1.763 -0.45125 1.12475
1.799 -0.5415 0.656
1.763 -0.63175 0.81225
1.763 -0.722 0.656
1.871 -0.09025 0.4995
1.835 -0.27075 0.4995
1.835 -0.1805 0.343
1.799 -0.45125 0.4995
1.799 -0.361 0.343
1.763 -0.5415 0.343
1.763 -0.63175 0.4995
1.799 -0.27075 0.1865
1.763 -0.45125 0.1865
1.763 -0.361 0.03
1.871 0.09025 0.4995
1.835 0.0 0.343
1.835 0.1805 0.343
1.799 -0.09025 0.1865
1.799 0.09025 0.1865
1.763 0.0 0.03
1.763 -0.1805 0.03
1.799 0.27075 0.1865
1.763 0.1805 0.03
1.763 0.361 0.03
1.835 0.27075 0.4995
1.799 0.361 0.343
1.799 0.45125 0.4995
1.763 0.5415 0.343
1.763 0.45125 0.1865
1.763 0.63175 0.4995
1.66075 0.5515 1.305
1.66075 0.64175 1.14875
1.5585 0.742 1.329
1.66075 0.732 0.9925
1.5585 0.83225 1.17275
1.5585 0.9225 1.0165
1.66075 0.82225 0.83625
1.45625 0.9325 1.353
1.45625 1.02275 1.19675
1.354 1.123 1.377
1.66075 0.40925 1.42825
1.5585 0.59975 1.45225
1.5585 0.4575 1.5755
1.45625 0.79025 1.47625
1.45625 0.648 1.5995
1.354 0.8385 1.6235
1.354 0.98075 1.50025
1.45625 0.50575 1.72275
1.354 0.69625 1.74675
1.354 0.554 1.87
1.66075 0.22325 1.455
1.5585 0.2715 1.60225
1.5585 0.0855 1.629
1.45625 0.31975 1.7495
1.45625 0.13375 1.77625
1.354 0.182 1.9235
1.354 0.368 1.89675
1.45625 -0.05225 1.803
1.354 -0.004 1.95025
1.354 -0.19 1.977
1.66075 -0.31825 1.455
1.66075 -0.13775 1.455
1.5585 -0.2755 1.629
1.66075 0.04275 1.455
1.5585 -0.095 1.629
1.45625 -0.23275 1.803
1.66075 -0.48925 1.37675
1.5585 -0.4465 1.55075
1.5585 -0.6175 1.4725
1.45625 -0.40375 1.72475
1.45625 -0.57475 1.6465
1.354 -0.532 1.8205
1.354 -0.361 1.89875
1.45625 -0.74575 1.56825
1.354 -0.703 1.74225
1.354 -0.874 1.664
1.66075 -0.591 1.21875
1.5585 -0.71925 1.3145
1.5585 -0.821 1.1565
1.45625 -0.8475 1.41025
1.45625 -0.94925 1.25225
1.354 -1.0775 1.348
1.354 -0.97575 1.506
1.45625 -1.051 1.09425
1.354 -1.17925 1.19
1.354 -1.281 1.032
1.66075 -0.86175 0.75
1.66075 -0.7715 0.90625
1.5585 -1.0015 0.844
1.66075 -0.68125 1.0625
1.5585 -0.91125 1.00025
1.45625 -1.14125 0.938
1.66075 -0.86175 0.562
1.5585 -1.0015 0.656
1.5585 -1.0015 0.468
1.45625 -1.14125 0.75
1.45625 -1.14125 0.562
1.354 -1.281 0.656
1.354 -1.281 0.844
1.45625 -1.14125 0.374
1.354 -1.281 0.468
1.354 -1.281 0.28
1.66075 -0.591 0.0925
1.66075 -0.68125 0.249
1.5585 -0.821 0.155
1.66075 -0.7715 0.4055
1.5585 -0.91125 0.3115
1.45625 -1.051 0.2175
1.66075 0.87525 0.656
1.5585 0.9755 0.83625
1.5585 1.0285 0.656
1.45625 1.12875 0.83625
1.45625 1.07575 1.0165
1.354 1.229 1.0165
1.45625 1.18175 0.656
1.354 1.282 0.83625
1.354 1.335 0.656
1.354 1.176 1.19675
1.20075 1.235 1.38575
1.20075 1.288 1.2055
1.0475 1.347 1.3945
1.20075 1.341 1.02525
1.0475 1.4 1.21425
1.0475 1.453 1.034
1.20075 1.394 0.845
0.89425 1.459 1.40325
0.89425 1.512 1.223
0.741 1.571 1.412
1.20075 1.114 1.5375
1.0475 1.226 1.54625
1.0475 1.105 1.698
0.89425 1.338 1.555
0.89425 1.217 1.70675
0.741 1.329 1.7155
0.741 1.45 1.56375
0.89425 1.096 1.8585
0.741 1.208 1.86725
0.741 1.087 2.019
1.20075 0.68725 1.90725
1.20075 0.8295 1.784
[...]
CELL_DATA 3008
SCALARS cell_data_0 double
LOOKUP_TABLE default
1.85457884083e-10
2.98637149798e-12
1.7503429223e-11
4.77712824422e-12
1.7234792149e-11
6.81412241177e-13
7.8247716002e-12
4.51622174355e-12
1.79276674062e-11
6.8691711231e-12
8.57336243454e-11
6.37970579054e-12
4.09907055175e-12
4.15989439884e-12
7.95490660076e-12
5.28844631461e-11
3.89158364028e-11
1.13063449055e-11
7.51136030587e-12
8.68295160243e-12
5.75935938624e-12
1.94813309467e-12
3.47608742228e-12
9.15139666303e-12
4.27591087789e-12
1.60796736892e-11
7.8798965894e-11
4.18147643488e-12
1.01644965768e-11
3.60325606989e-12
1.92179534271e-12
2.41732483327e-11
5.83896641813e-11
3.04911525679e-12
3.63482550459e-12
3.99028047309e-12
6.31755810745e-12
7.08658107467e-12
4.14773109821e-12
2.75100406289e-12
4.01450132129e-12
1.22116619021e-11
9.53508356768e-11
3.90135549284e-12
1.22700504947e-12
2.19381186861e-12
3.54917129862e-12
8.32930799196e-12
1.70476179753e-11
1.86723737496e-11
2.84730413111e-12
8.94859909127e-12
2.86836328555e-12
2.39304020895e-11
1.5823234716e-11
8.86574194697e-12
3.668683219e-12
5.16125141011e-12
9.0266912737e-11
1.57090922225e-11
1.00742172574e-11
7.94338755723e-12
1.62081060431e-11
2.0248859956e-10
7.53557605442e-11
4.9267765914e-12
1.86428764255e-11
1.85103303855e-11
1.75041128214e-11
4.33593592187e-12
6.96529012578e-12
2.04467128777e-11
1.94895775867e-11
1.8326821897e-11
1.83554991381e-11
4.70369592336e-13
1.90128453572e-11
8.87014099335e-13
6.58389207e-12
2.19027193602e-10
1.83656613384e-10
1.26436330715e-11
5.63369398185e-12
2.38488610246e-12
8.24386830932e-12
1.38747478482e-11
8.24171191809e-13
9.71165147723e-12
3.58361941233e-12
7.24077165336e-12
1.31502857358e-11
8.67506095206e-13
1.11096421042e-11
9.3116698291e-12
1.10198065264e-12
1.71195640876e-10
1.79603186424e-11
1.90318556737e-11
4.21626677794e-12
3.77067916755e-12
3.618351887e-12
7.93567526816e-13
1.07682106393e-11
2.57068288704e-12
3.62174988778e-12
1.09214061726e-11
2.01678151223e-10
1.06236376469e-11
1.73960467808e-12
2.50791215769e-12
1.09762209673e-11
2.04894575853e-10
1.70235763912e-10
7.15149335746e-13
1.04298766483e-11
3.55955165362e-12
1.03782755858e-11
2.06332798694e-12
1.96744557521e-13
2.92949036199e-12
9.91874883699e-12
4.32967799926e-12
1.78805523741e-10
2.93602232528e-13
3.53548964808e-12
1.01481563589e-12
3.25835578674e-13
4.4539017069e-11
1.8383076722e-10
5.59446362248e-12
2.8837211361e-12
2.71600157152e-13
3.43972368399e-12
3.1320290413e-12
1.91591275055e-11
5.9970711384e-13
3.60730457031e-12
1.41681019041e-11
5.39644290379e-11
2.04531982031e-11
8.10636539556e-13
1.01074433641e-11
1.67579671642e-11
5.04370036046e-11
4.60927149911e-11
2.67311336935e-13
1.64875925191e-11
3.96627410621e-11
1.61281707801e-11
4.31845555148e-13
2.54527546244e-12
3.88046024737e-11
1.5794614751e-11
2.33612851252e-12
4.46755338298e-11
2.51356859463e-12
3.86111798743e-11
1.97157028769e-12
2.13260934221e-12
5.09670846793e-11
5.20886807663e-11
1.18457290013e-11
1.13858036347e-11
1.4063084603e-12
1.15142346089e-11
4.51949418297e-12
1.15028814265e-11
1.92779294692e-12
1.23090934716e-11
5.56015100451e-12
1.45751524929e-10
1.1699465637e-11
2.46556888614e-12
1.58968278264e-11
1.10660537338e-11
4.70790625015e-11
5.12516758582e-11
8.71880844911e-12
9.9678350474e-12
1.07293355086e-11
1.01562156288e-11
8.03531451101e-12
6.54649917684e-12
1.07297146765e-11
1.04193230416e-11
7.57983657267e-12
1.44489207898e-10
6.89161820456e-12
1.10021839158e-11
1.74225600862e-13
6.73700011886e-12
9.79202258772e-11
1.5293868593e-10
8.1056272121e-12
1.88477150922e-11
7.65304282266e-12
1.86366357046e-11
1.21844208809e-12
4.14361415043e-12
7.23311933798e-12
1.88825962421e-11
5.93133326192e-12
1.61335411973e-10
3.98633101773e-12
7.40015695906e-12
1.48519398067e-12
4.25448949143e-12
1.11496218554e-10
1.11518416264e-10
8.20630634362e-12
3.56562385914e-12
1.23962494157e-11
3.97710365153e-12
2.47543199815e-12
1.45033311278e-11
1.24709375994e-11
4.11029927809e-12
5.63502547341e-12
1.25900066942e-10
1.49828311285e-11
1.27020133632e-11
2.51938736104e-12
1.49121077092e-11
1.10762339286e-10
1.47666313664e-10
6.00330245028e-12
5.80557567985e-12
1.68454711014e-11
5.47710043e-12
1.01933581779e-11
1.57297756777e-11
1.61160406449e-11
4.96635185331e-12
9.54134572402e-12
9.00489551893e-11
1.54488438343e-11
1.62979822407e-11
6.26880466881e-13
1.44868304953e-11
1.32629585066e-10
1.20178010529e-10
3.78470569661e-12
1.25674524051e-11
2.47871977724e-12
1.29039570142e-11
5.58426089775e-12
5.63987460364e-12
2.55158340234e-12
1.30856293127e-11
4.88846089858e-12
7.12374520756e-11
6.3104954452e-12
2.57646118502e-12
3.57378939445e-12
5.67529193397e-12
2.05563343418e-10
7.25726261506e-11
1.47631512596e-11
2.84114698201e-11
7.40473775912e-12
2.87475138522e-11
4.14779769557e-12
1.53412618074e-12
6.93175811502e-12
2.97344642491e-11
7.42439618099e-12
9.7463612418e-11
1.43138697941e-12
6.51214344159e-12
9.28380710906e-12
1.75108342169e-12
2.11025502822e-10
2.12647137643e-10
1.54244450675e-12
1.46135733101e-12
3.12797467921e-12
1.28275635593e-12
8.23996080571e-13
8.72135195564e-13
4.22297503217e-12
1.34988793227e-12
3.72831878125e-12
1.01776969052e-10
8.27791389813e-13
5.25624460892e-12
8.22141640495e-12
8.62405987779e-13
6.14636937037e-11
1.03502976143e-10
6.79958373014e-12
9.08618739712e-12
9.64319820076e-13
7.85278185012e-12
2.75085417368e-12
9.4801312911e-12
7.46964440945e-13
6.28043430505e-12
1.5265816182e-11
3.73579565222e-11
1.06583044571e-11
7.58649632902e-13
1.14268474098e-11
6.81408281639e-12
3.21628097998e-11
3.41124702429e-11
5.2417329144e-12
6.97455694313e-12
1.12880705587e-11
7.56692057323e-12
5.90518260516e-12
1.45419569389e-11
1.27847979965e-11
8.4725894839e-12
1.74816547173e-12
3.46863456152e-11
1.56773212269e-11
1.32505486257e-11
7.48073448758e-13
1.7325672768e-11
1.70866769218e-11
3.37213074957e-11
8.26901777726e-12
6.73985582342e-12
2.07904923516e-11
1.26731018172e-11
5.36553056454e-12
3.18485152899e-11
1.69717801006e-11
1.26623614729e-11
3.31250878664e-12
4.78982203298e-10
2.79488538143e-11
1.70839288199e-11
7.18863240485e-12
2.84608700794e-11
2.42151089351e-11
2.59847650068e-11
3.84171888744e-12
2.63745726857e-11
8.79507196446e-12
2.65916406336e-11
3.18962791499e-12
7.21216591684e-12
5.80550351275e-12
2.39327681033e-11
3.61538290854e-12
4.14962139621e-10
4.20337575046e-12
2.40104882201e-12
1.21670350687e-11
7.66157043623e-12
2.54985613395e-11
4.3859713813e-10
7.81430565001e-12
6.70409624963e-12
4.97346046772e-12
7.31257438564e-12
1.18181825793e-12
1.72493907418e-11
9.1495561028e-12
6.0679929265e-12
4.4121266464e-12
4.56079523808e-11
1.47441828181e-11
8.6190320288e-12
5.1546533519e-12
2.02506408713e-11
2.24372314421e-11
1.54212598555e-11
2.29465806198e-12
1.38604546708e-11
2.51956546808e-12
1.33268134731e-11
5.89603119928e-12
6.54303786951e-12
1.14498079682e-13
1.53909859903e-11
4.40367826838e-12
5.4524291438e-11
1.31051346086e-11
1.61551586972e-12
2.42008706275e-12
7.82569754211e-12
8.27178925271e-12
6.23850241234e-11
6.10530994508e-12
5.76474564011e-13
1.33244536363e-11
1.4946411255e-13
2.24430430359e-12
8.51363749528e-13
1.01910520699e-11
4.97347604183e-13
6.53637310727e-12
8.78590339566e-12
9.75456931754e-13
1.23291730657e-11
2.3026819795e-12
4.40201121582e-13
1.55154987097e-11
1.64543901056e-11
2.5998081523e-13
1.57037347324e-13
6.37927798273e-12
1.63105845836e-12
3.99359524953e-12
1.97864599975e-12
5.59734834636e-12
1.2172179814e-12
3.63073963746e-12
1.72699389128e-12
2.17632525976e-12
5.24651417452e-12
3.52129310045e-12
1.02300281358e-12
8.36005728737e-13
4.49042314975e-12
4.7219674314e-14
3.22872734362e-12
1.94692577705e-12
3.86468303387e-12
9.61679288265e-12
2.60944477321e-11
1.8469813868e-12
2.77407277561e-12
1.02514675239e-11
1.81048908998e-10
2.72704339586e-11
1.60475499025e-12
5.97204895142e-12
2.50794153401e-11
1.7101578366e-12
3.58123044265e-12
1.06961264537e-11
2.56019227926e-11
7.07060645637e-12
2.64904936366e-11
1.70231879036e-11
4.67620718566e-12
6.50942741016e-12
2.44016459126e-11
5.36260763556e-12
1.66604171629e-10
3.7757713467e-12
8.7091789361e-12
1.4105273655e-11
4.06461104994e-12
7.4302570609e-11
9.12194140837e-12
4.44755135652e-12
8.54646004944e-12
5.81649706509e-12
6.91834162709e-12
3.07849661745e-11
8.83033118819e-12
8.16021258596e-12
9.06885444786e-12
3.31873830986e-12
3.0821739324e-11
9.3947709321e-12
6.22840549497e-12
1.29745439565e-11
7.86264083308e-12
4.3907082344e-11
4.84848477166e-12
1.06280699794e-11
2.23880587582e-12
1.86452187952e-11
2.05374006281e-12
1.72045795174e-11
6.53635779865e-12
1.98212249503e-11
3.59340640917e-12
4.67520946298e-12
3.89966367164e-11
6.98753625428e-12
1.89323863202e-11
3.77945249084e-12
8.13523254643e-12
7.91828541513e-12
1.25277554772e-11
5.47321310231e-12
1.65752555454e-11
6.15506918813e-13
1.66818343576e-11
8.98360087809e-12
1.79327534494e-11
3.25156533977e-12
1.79073742141e-11
5.50031146657e-12
3.07588412232e-12
1.77102411285e-11
3.15169388412e-12
3.97499352723e-12
1.81643847347e-11
1.30840567792e-11
1.44562367141e-11
1.40722614135e-11
8.22325318558e-13
1.65236592129e-12
6.29324314124e-13
4.2215987135e-12
6.22246918779e-12
2.70112184524e-12
1.81912071568e-12
3.43442172601e-12
2.13061902032e-11
6.39521612554e-12
1.91535480241e-12
1.19142374125e-12
6.42699317947e-12
1.53500412631e-11
9.14662057327e-13
1.48074806827e-12
1.81389233472e-12
1.20017486277e-11
1.7344383974e-12
7.48394253921e-13
6.65631310441e-13
1.20557959897e-11
2.95832737359e-13
1.06571925622e-11
1.51420134334e-11
9.71658893908e-13
1.16678273138e-11
5.05618841876e-12
3.39355982033e-13
1.43294977316e-10
1.61400282194e-12
9.71211408123e-13
1.15679186758e-11
9.17583281431e-12
1.2060996645e-11
5.51736382886e-12
5.06048008409e-12
9.11819461888e-12
1.20581512346e-11
1.76129830795e-12
1.45386191571e-10
5.35382906141e-12
9.90646564209e-12
1.78043992002e-11
5.4600160742e-12
3.93604399716e-11
5.58198156572e-11
7.46102026113e-12
9.57747655652e-12
4.83562554372e-12
7.32301089225e-12
7.6387034837e-12
3.23850620997e-12
4.7062252668e-12
8.91688709077e-12
1.20040597089e-12
1.38386872172e-11
3.26924352855e-12
4.48368873082e-12
3.34556401268e-12
2.69027372787e-12
4.553926693e-11
4.41994665088e-11
2.1010524842e-12
4.11307888058e-12
4.75083160815e-12
4.12215153967e-12
1.11958470321e-12
9.15893599507e-13
4.52063761398e-12
4.17147602949e-12
2.5121395865e-12
4.2131912891e-11
1.03777046003e-12
5.01883111911e-12
1.16029663599e-12
1.01435217273e-12
9.81706134239e-11
4.85973497342e-11
4.85408849121e-12
5.29467532384e-12
8.84390565948e-12
4.733465281e-12
1.56094811296e-12
7.83793282521e-14
9.37037836382e-12
5.59969353731e-12
2.60986955401e-12
9.74608681496e-11
1.6048045232e-12
9.7084413807e-12
1.14445866635e-12
1.89938630328e-12
4.70840162106e-12
1.30397470102e-11
6.05263254217e-12
1.44740064067e-11
1.51154904073e-11
1.85482753298e-11
3.87732906462e-12
1.01477738999e-11
1.64917780392e-11
1.40474183064e-11
1.00601019827e-11
5.18324164412e-11
7.52910028871e-12
2.11052413219e-11
1.03575110547e-11
1.2106738868e-11
3.00575210857e-12
8.28201510889e-12
1.62561132197e-12
1.58285284689e-11
2.12596257229e-12
1.55259677037e-11
4.01585771273e-12
5.741789222e-12
4.14599501097e-12
1.73952196213e-11
1.25852633702e-12
6.20347109633e-12
1.11171535844e-11
7.43662434584e-12
3.97662250072e-12
6.51449134243e-12
4.60977599341e-12
1.61988282854e-11
5.74400447512e-13
5.41149942875e-12
4.02870954196e-12
4.8673690838e-12
1.63474550345e-12
5.67133989798e-11
1.00435221859e-12
3.53410638938e-12
3.59029387918e-12
1.0740949617e-11
6.44845533179e-11
1.10475189171e-12
3.63531447859e-12
4.50562561495e-11
1.02070877105e-11
2.50017045704e-11
2.46583862148e-12
3.20772159107e-11
4.27020085971e-11
3.21953840815e-11
1.16602326704e-13
7.28371544727e-12
5.35373238458e-11
2.30582098164e-11
8.38920254946e-12
1.63605581121e-11
1.06079979209e-11
5.78981272854e-11
6.47769539682e-12
1.32422813093e-12
1.16706648604e-11
1.67373183277e-11
7.70734151499e-12
2.0763575369e-11
3.10023776834e-11
4.22358595863e-11
1.17489247543e-12
7.72575110817e-11
2.85995159149e-11
6.74570882633e-11
9.44014919338e-12
1.64601115434e-11
6.97555693386e-11
3.86754001032e-11
2.03919813455e-12
7.87112733122e-11
4.36335388061e-12
4.19582048814e-12
3.10325437803e-12
1.49901689075e-11
2.34315077434e-12
1.7587251644e-11
3.56220586974e-13
5.16261019901e-11
4.00566239477e-12
1.0375848676e-11
1.37303399451e-12
1.59243915693e-11
5.16920270093e-11
4.71503801315e-13
4.777188947e-14
4.6159885129e-11
2.67904718364e-13
2.21746670309e-11
7.40842141437e-13
9.10765806191e-12
3.15644196528e-12
2.03797283323e-11
3.25501158507e-12
5.9317416305e-13
5.55635734196e-12
5.76064571464e-12
4.48517756886e-12
4.77998276513e-11
1.9476983716e-12
2.95035273462e-12
3.73289464849e-12
1.30800716969e-13
4.50773291115e-11
3.80461666648e-11
5.95239391237e-13
6.94795124606e-12
9.76793501106e-12
1.02787861678e-11
3.6147641201e-12
8.85788072697e-11
1.39895349446e-11
1.77514773063e-11
7.51504843703e-12
7.21881938966e-11
8.72907259604e-11
6.03021918621e-12
1.01466371559e-14
7.1504300519e-11
6.52639573485e-13
2.86591101291e-11
2.79242709616e-12
5.41513369855e-12
2.12459107997e-11
1.00631567831e-11
3.20906990019e-11
5.15241796054e-11
3.72909714529e-11
7.9182837732e-12
7.62481403617e-12
1.50979011988e-12
3.18851226725e-11
3.37612306748e-11
2.345341076e-11
4.17383303314e-11
6.12742160337e-12
1.15682948568e-10
6.62930012871e-12
4.53875863866e-13
1.06266769891e-11
2.83862013775e-12
1.03153893966e-11
1.40740151983e-11
1.57342585066e-11
2.13470103873e-12
4.70418395303e-13
3.80349831063e-11
2.35090272659e-11
1.55521005343e-11
1.95460225931e-11
1.09913133678e-11
3.38220664992e-12
1.06160439489e-10
7.96209783448e-14
9.96279352169e-12
1.2787477881e-11
9.08737394908e-12
7.68959383629e-13
1.28210695648e-11
1.23479925078e-11
8.2947715217e-12
7.48985914408e-13
9.07636426288e-12
1.12552988267e-11
1.10217067643e-11
6.67152608788e-12
1.35424607431e-11
5.67183522944e-12
1.74508705838e-11
1.24172622587e-11
1.44253223821e-12
2.04328447871e-11
2.13373078658e-13
7.96455856776e-12
1.19658917354e-11
1.85930457055e-11
9.66506555504e-13
9.54238942428e-12
1.18553877898e-10
1.17868104831e-11
1.91915107569e-11
6.44698744595e-12
1.18023093061e-11
6.64992872105e-13
2.30075756765e-11
1.31479311181e-11
2.04982563584e-11
3.88935981925e-12
2.11391450277e-11
3.35240672099e-12
5.98608519241e-13
3.70432708883e-12
2.05325924347e-11
2.72404060104e-12
3.78645652449e-12
1.1028185449e-13
2.98547826334e-12
1.44938498255e-11
3.92801139795e-13
1.97650520166e-11
1.08415302599e-11
1.03875502556e-11
7.08641879826e-12
5.09779772988e-12
7.3564184819e-12
5.8207455538e-12
3.25651703458e-12
7.14152190408e-12
1.00415518432e-11
1.43606288708e-11
1.93272973803e-11
3.6740548716e-12
8.50934165834e-12
1.12307947179e-11
2.89280521051e-12
1.6130629878e-11
2.30641095924e-11
2.15738443087e-11
1.12768008153e-11
2.63262409532e-12
1.02461025566e-11
1.53379406677e-11
3.61017719746e-12
3.50303772141e-12
6.05399487077e-12
1.49058898197e-11
1.20081794934e-11
3.30521636323e-13
6.4831398559e-12
3.03473879476e-11
1.22374341145e-11
1.80586246472e-11
2.54082768942e-11
1.5703388872e-11
4.79550983373e-12
2.04758468071e-11
7.12845927957e-12
6.5206395047e-12
2.13988929823e-11
2.13088725197e-11
7.66061906138e-12
7.26192321509e-12
1.79987716406e-12
1.93777397095e-11
2.0970629169e-11
8.3680696781e-12
1.95556904771e-11
3.46667622638e-13
1.28953170463e-11
2.75486212532e-12
4.16415896423e-11
4.1405609374e-11
4.47839793991e-11
3.53010108004e-12
2.08378909259e-11
4.06146716051e-11
5.89622867501e-11
1.71787407634e-11
2.07661602562e-11
1.96266086443e-11
3.96061478332e-11
1.29908313658e-11
2.18620077604e-11
1.48912288886e-12
1.38526696057e-11
3.32633105947e-12
4.09503778e-11
2.18565698678e-11
4.42584557197e-11
3.50524243558e-12
2.37861443002e-11
2.37610735854e-11
4.19058289022e-11
5.55241531329e-12
2.0514786302e-13
2.2955182081e-11
2.6803657353e-11
5.98091360892e-12
2.49470804413e-11
3.5260330064e-12
1.40235355318e-11
2.0511551088e-12
9.02301315418e-11
2.11007276674e-11
8.54401684906e-11
1.00415848746e-11
2.37106257781e-11
2.11944983147e-11
7.98544554515e-11
1.19650178425e-11
2.02244008194e-11
2.45392009015e-11
2.05140496859e-11
2.57530949271e-12
2.46634569715e-11
1.95974782479e-12
7.7945232295e-11
5.77321725661e-12
1.99598893577e-11
7.24124667972e-11
2.00156098459e-11
1.66903283454e-12
6.53435536073e-12
6.81412121733e-11
2.14199858974e-11
5.61996884556e-12
2.64142991365e-11
6.78631480904e-12
6.6907993239e-11
3.21944675904e-12
6.99107229655e-12
1.37224215712e-12
1.2526458914e-12
4.64307794814e-12
8.34660446164e-12
3.00313939804e-11
1.01090335769e-11
6.7419605872e-12
3.35578930343e-11
3.23678810403e-11
8.10998709248e-12
4.81917728177e-12
9.20095196637e-12
3.507071143e-11
3.34069693935e-11
2.43264751314e-12
3.97700376454e-11
1.32720979153e-12
5.0527106091e-13
4.95264304299e-13
3.0407808897e-11
1.7401609816e-11
3.34684978636e-11
3.91937094421e-12
2.20752106721e-12
1.67894686181e-11
3.18802097697e-11
1.05107379019e-11
4.46558537761e-12
5.80621458375e-12
2.20015837714e-11
1.66022467402e-12
1.51964637169e-12
1.43209875164e-12
7.03742104209e-12
7.92874272018e-12
2.97327926213e-11
9.14510571843e-12
3.39058159257e-11
4.32340868949e-13
1.96320657041e-11
2.81422127624e-12
2.95393199898e-11
4.90678384361e-12
5.74410051796e-12
2.00236974015e-11
1.28150882842e-11
7.78984161935e-13
2.51319756377e-11
9.3591841278e-12
1.08600388957e-12
6.95494252618e-13
8.69996231024e-12
3.56872410604e-12
2.40854607004e-12
8.03636819408e-13
2.36582520412e-12
1.82835846213e-12
1.55959468043e-11
8.99560297105e-13
6.00693487547e-12
4.68314450843e-12
1.18153533429e-11
2.14241827054e-12
7.50854830541e-12
4.60970625827e-12
8.47136901903e-12
6.68751969284e-12
1.62627225926e-11
1.07693123138e-11
3.41079213642e-12
1.41975265763e-12
9.16260591626e-12
2.16490185815e-11
7.24141721003e-12
2.06430666143e-14
8.90513390919e-12
1.25980559737e-11
2.60989484846e-11
5.76656740745e-12
1.61836993075e-11
8.94839887253e-12
4.68005077307e-13
4.10565843287e-13
1.14604631021e-11
2.64165243271e-11
3.42858973992e-11
1.14630698293e-11
7.14122716465e-12
2.82946360216e-11
3.45319935336e-11
1.17452404462e-11
4.23450184103e-12
7.69008734268e-12
7.72437896517e-12
1.85040554609e-12
7.16089024549e-12
4.48658561888e-13
8.92610753565e-12
4.77255516733e-12
6.80530791653e-13
1.04885929736e-12
5.62646114549e-13
1.87749159927e-12
2.08372784443e-11
1.98218905174e-12
3.34900818402e-12
1.78344435848e-12
8.34820624053e-13
2.04673459018e-11
1.2942463529e-12
1.10471553894e-12
9.53161065142e-12
3.85905921886e-12
1.26345082379e-13
7.10781391457e-13
3.42106382391e-13
4.30700372683e-13
1.98686771975e-12
1.18758697226e-12
1.6949814118e-11
1.07200119347e-12
2.51003482667e-12
3.96750880346e-12
4.31421450187e-13
2.41723059393e-11
1.65700279682e-12
1.25716731695e-11
9.05729096068e-12
7.47123394162e-12
1.6149692966e-11
2.31604299593e-11
5.06750431428e-12
1.21059859885e-12
2.28537553696e-12
4.23566877867e-12
3.00975767309e-13
9.32068640935e-13
2.28563287873e-12
1.92262345825e-13
2.86053725873e-12
8.87760387798e-13
5.56489082664e-12
3.50773413572e-12
3.69523998282e-13
1.6839346941e-12
1.57210124976e-12
1.2081193694e-12
2.37585184895e-12
4.26367910389e-12
4.78505719452e-12
1.52088200077e-12
3.56207015123e-11
5.05264922457e-13
8.33604485594e-12
6.32355975384e-12
2.00334538626e-12
3.13459168393e-11
1.36508005355e-12
1.64546673429e-12
3.36928497772e-11
3.59327582877e-12
1.79535635671e-12
2.86942550625e-12
1.97428632568e-11
1.58580613912e-11
2.66633694016e-11
1.08539764592e-11
4.80814049308e-12
1.68572295749e-11
2.43484187553e-11
1.56097637256e-11
1.49010867601e-12
8.01905504559e-12
1.82591630948e-11
1.50269695417e-11
1.42157623782e-12
7.82160267146e-12
2.96807404862e-12
2.18011205181e-11
1.14488340148e-11
5.21945074846e-12
1.54574213367e-11
1.35314949013e-12
2.65414815889e-12
3.95535614523e-12
1.93303609307e-11
2.86665877429e-11
7.23234826586e-12
3.26267981773e-12
5.92890794202e-12
4.59887389145e-12
1.03963311103e-12
4.01516057732e-13
1.22207842642e-11
2.51245617112e-11
2.35212896747e-11
1.5891992521e-12
2.36936338952e-11
5.56920656926e-12
7.51479007825e-12
5.88429171946e-12
2.49368752995e-11
4.06653553288e-13