# vtk DataFile Version 3.0
File Name: Molecule/methanol/methanol_0.5-4.vtk
ASCII
DATASET UNSTRUCTURED_GRID
FIELD FieldData 1
TIME 1 1 double
0.0
POINTS 38 double
1.611 0.0 -0.359
0.773 -1.459 -0.275
1.403 0.0 -0.933
-0.903 -1.459 -0.108
0.639 -1.329 -0.857
-0.887 -1.329 -0.705
-1.742 0.0 -0.025
-1.651 0.0 -0.629
-0.903 1.459 -0.108
-0.887 1.329 -0.705
0.773 1.459 -0.275
0.639 1.329 -0.857
1.907 0.0 0.656
1.354 1.335 0.656
1.354 0.412 1.925
1.354 -1.08 1.44
0.019 1.335 1.99
0.019 -0.0 2.543
0.019 -1.335 1.99
0.019 -1.888 0.656
0.019 1.888 0.656
-1.316 0.412 1.925
-1.316 -1.08 1.44
0.648 0.411 -2.001
-0.887 -1.075 -1.519
-0.887 0.411 -2.001
1.021 0.6645 -0.895
0.6435 0.87 -1.429
1.0255 0.2055 -1.467
0.6435 -0.459 -1.429
0.83675 0.30825 -1.734
1.021 -0.6645 -0.895
0.83225 -0.56175 -1.162
0.735625 -0.945375 -1.0095
1.117625 -0.280875 -1.0475
0.931125 0.256875 -1.6005
0.8345 -0.12675 -1.448
0.928875 -0.178125 -1.3145

CELLS 72 288
3 0 1 2
3 1 3 4
3 4 3 5
3 3 6 5
3 5 6 7
3 6 8 7
3 7 8 9
3 8 10 9
3 9 10 11
3 10 0 11
3 12 13 14
3 12 14 15
3 14 13 16
3 14 16 17
3 15 14 17
3 15 17 18
3 15 18 19
3 13 20 16
3 17 16 21
3 17 21 22
3 18 17 22
3 19 18 22
3 19 22 3
3 19 3 1
3 19 1 15
3 15 1 12
3 12 1 0
3 12 0 13
3 13 0 10
3 13 10 20
3 20 10 8
3 20 8 21
3 20 21 16
3 21 8 6
3 21 6 22
3 22 6 3
3 23 24 25
3 24 4 5
3 24 5 7
3 24 7 25
3 25 7 9
3 25 9 11
3 2 26 0
3 0 26 11
3 11 27 25
3 25 27 23
3 27 26 28
3 27 11 26
3 28 26 2
3 23 29 24
3 29 4 24
3 27 30 23
3 23 30 29
3 4 31 1
3 1 31 2
3 32 33 29
3 29 33 4
3 4 33 31
3 33 34 31
3 33 32 34
3 31 34 2
3 2 34 28
3 28 35 27
3 35 30 27
3 30 36 29
3 36 32 29
3 30 35 36
3 35 37 36
3 35 28 37
3 36 37 32
3 32 37 34
3 34 37 28

CELL_TYPES 72
5
5
5
5
5
5
5
5
5
5
5
5
5
5
5
5
5
5
5
5
5
5
5
5
5
5
5
5
5
5
5
5
5
5
5
5
5
5
5
5
5
5
5
5
5
5
5
5
5
5
5
5
5
5
5
5
5
5
5
5
5
5
5
5
5
5
5
5
5
5
5
5

CELL_DATA 72
SCALARS cell_data_0 double
LOOKUP_TABLE default
5.86851227374e-06
1.11104921963e-06
4.11704910136e-07
1.65268678295e-07
5.34330661057e-07
6.66667059457e-07
4.52722081542e-08
1.40046303135e-06
1.71517317963e-06
2.73905393306e-06
1.86082881928e-08
4.33517127302e-08
3.38806433198e-09
3.28438839247e-08
1.00546551767e-08
2.78301394881e-08
1.4105963375e-07
1.34762026877e-08
7.18032962111e-08
5.55082042265e-08
8.44457533907e-08
9.74321009412e-08
7.43213830244e-07
5.28876303478e-07
7.54873047417e-07
4.99729012309e-07
2.89330851795e-07
2.50562631784e-08
4.06702785781e-07
1.00400397766e-07
3.22809380378e-07
1.67600141752e-06
1.32326261686e-07
4.16861193453e-06
3.29934179365e-07
2.57144574671e-06
1.36451615402e-05
1.5782380714e-06
3.14781239224e-07
1.840755771e-06
1.3231267586e-06
1.69120896918e-06
5.58216998671e-07
1.9412558355e-06
1.1317025959e-06
5.35688471688e-06
2.81752677802e-07
2.02571324944e-06
1.37421044451e-05
4.33887819079e-07
2.87334467585e-06
9.8633735114e-08
1.68125711793e-06
4.10920553762e-07
8.52890876357e-07
7.02327702046e-08
2.36726822878e-07
1.27159921889e-07
7.83584368402e-07
1.60341014025e-06
7.71442740696e-07
1.28845904326e-05
5.11777109377e-06
2.62934238254e-06
7.76653473087e-06
2.31083900208e-05
1.77152799494e-07
5.56817023896e-06
5.51800839265e-06
1.39958215766e-05
5.09174060817e-06
1.13880018453e-05

