# vtk DataFile Version 3.0
File Name: Molecule/sphere_cent/sphere_cent_0-s5.vtk
ASCII
DATASET UNSTRUCTURED_GRID
FIELD FieldData 1
TIME 1 1 double
0.0
POINTS 460 double
-0.15519523621 0.69277769327 0.70348280668
-0.41676816344 0.67871409655 0.60306614637
-0.29790353775 0.51676332951 0.80186671019
-0.71809279919 0.67819744349 0.14938049018
-0.85061764717 0.52578645945 7.1119677159e-05
-0.86321043968 0.43754288554 0.2516296804
-0.695274055 0.56513518095 0.44049447775
-0.81553518772 0.31860971451 0.48233509064
0.00021865952294 0.52561187744 0.85021197796
0.15500965714 0.70816171169 0.68856990337
0.29932650924 0.51448231936 0.80255460739
0.00057662057225 -0.51815289259 -0.85525822639
-0.15477384627 -0.26681476831 -0.95124071836
0.13670992851 -0.27859866619 -0.94984984398
-0.30897462368 -0.49997836351 -0.80903428793
0.29415303469 -0.52309334278 -0.79868125916
0.15481217206 -0.70838707685 -0.68859869242
-0.15570275486 -0.70726406574 -0.68955034018
0.0002006177383 -0.85075616837 -0.52554881573
-0.029527228326 0.00013872355339 -0.99855917692
-0.28124898672 -0.00032284943154 -0.95951658487
-0.43689620495 -0.25217995048 -0.86340796947
-0.50787806511 -2.0022042008e-05 -0.86037349701
0.4916511476 0.80839443207 0.32220041752
0.27254414558 0.85561609268 0.43903908134
0.42509502172 0.68830758333 0.58692955971
-0.69245427847 -0.1713848263 -0.70008057356
-0.80901968479 -0.30898749828 -0.49999579787
-0.85499590635 6.6855965997e-05 -0.51860827208
-0.9509037137 -0.15547963977 -0.26753118634
-0.95105725527 0.15528601408 -0.26703074574
-0.99886989594 0.00043340722914 -0.01817874983
-0.81920158863 0.30799645185 -0.48229169846
-0.85608756542 -0.43885448575 -0.27072757483
-0.96337562799 -0.26463571191 0.010654838756
-0.86379814148 0.43661090732 -0.25128391385
-0.95971858501 0.28085559607 -0.0002604193287
-0.17618437111 0.68398237228 -0.70718836784
-0.32423070073 0.50358271599 -0.79925334454
-0.4331304431 0.6830996871 -0.58802646399
-0.28548717499 0.8600037694 -0.42182284594
-0.49552857876 0.80225795507 -0.32763883471
-0.57370239496 0.44437587261 -0.68650072813
-0.68428057432 0.5872604847 -0.43225497007
-0.43665394187 0.25276491046 -0.86336523294
-0.71918028593 0.67301887274 -0.1626213491
-0.84151625633 -0.53689479828 0.010392807424
-0.70727783442 -0.68953180313 -0.15573093295
-0.70529764891 -0.69098931551 0.15831248462
-0.52954906225 -0.84690439701 0.0019229989266
-0.25245630741 -0.86338549852 -0.43687307835
0.00063582259463 -0.960275352 -0.27901917696
-0.25830194354 -0.95059782267 -0.16631868482
-0.86291599274 -0.43685665727 0.25391584635
-0.68926745653 -0.58766174316 0.42101663351
-0.94449776411 0.17430055141 0.27329561114
-0.95019340515 -0.16735510528 0.25921946764
-0.58739572763 -0.43312829733 -0.68360161781
-0.41867610812 -0.68022459745 -0.60060596466
-0.69643551111 -0.57391148806 -0.42923423648
0.25404804945 -0.86329138279 -0.43611881137
0.25983458757 -0.95019251108 -0.16618792713
0.41561192274 -0.68253660202 -0.60033607483
-0.1594556272 0.24455712736 -0.95518290997
0.16710592806 -0.26473969221 0.94854283333
0.43711039424 -0.25350600481 0.86287492514
0.26734766364 -0.02582809329 0.96307504177
0.50744110346 0.018204208463 0.86039549112
0.012304293923 0.0077826166525 0.99863630533
0.15256209671 0.23852862418 0.95781350136
0.80904054642 -0.30933120847 -0.49970123172
0.8913705945 -0.25093069673 -0.37733015418
0.86101871729 -0.42540261149 -0.2780482471
0.930811584 -0.33425116539 -0.14554744959
0.95151227713 -0.16545279324 -0.25907436013
0.85406684875 -0.51625114679 -0.027434561402
0.82184654474 -0.17195944488 -0.5426838398
0.91854315996 -0.091643467546 -0.38251462579
0.96444875002 -0.0008068496827 -0.26429653168
0.98597949743 -0.09138700366 -0.13610608876
0.95712506771 0.15321935713 -0.24386934936
0.9853399992 0.11146631092 -0.12326454371
0.8192229867 0.15372596681 -0.54934036732
0.7191452384 0.0045821894892 -0.69467794895
0.69706714153 0.16925901175 -0.69570505619
0.52223658562 -0.01152205281 -0.85190868378
0.69864904881 -0.16687940061 -0.69562488794
0.83137387037 -0.079213611782 -0.54720407724
0.71635335684 -0.33354341984 -0.61114400625
0.92967075109 0.33844941854 -0.14464767277
0.96451675892 0.2638887465 0.0027721223887
0.85083091259 0.52544289827 0.00029588508187
0.88573271036 0.27743908763 -0.3673555851
0.86231058836 0.43105444312 -0.26570174098
0.77000254393 0.45021826029 -0.45127165318
0.79314947128 0.56349813938 -0.23059429228
0.74294430017 0.57189977169 -0.34597554803
0.7825601697 0.31689172983 -0.53067845106
0.64581280947 0.51385372877 -0.56439679861
0.22246408463 0.7900236249 -0.57044756413
0.40166160464 0.7714484334 -0.4922748208
0.30086705089 0.69738525152 -0.65048462152
0.25709357858 0.86164551973 -0.43755048513
0.12495347857 0.8637881875 -0.48808699846
0.078934125602 0.78684204817 -0.61208456755
0.16478964686 0.69771194458 -0.69694250822
2.8179689252e-05 0.8505076766 -0.52595955133
0.50915920734 0.80736583471 -0.29698514938
0.53665751219 0.82918578386 -0.15526267886
0.64303952456 0.71799248457 -0.26366388798
0.69750875235 0.71646869183 -0.0042918333784
0.68750786781 0.70683842897 -0.15844903886
0.5229973197 0.8523363471 -2.8213804399e-05
0.74513787031 0.63971161842 -0.18119637668
0.69795835018 0.69726979733 0.16389393806
0.53752738237 0.82766020298 0.15837623179
0.61559146643 0.70357173681 0.35330533981
0.39433118701 0.88899052143 -0.23250645399
0.40159988403 0.91239005327 -0.07898452878
0.26797708869 0.95086294413 -0.15499146283
0.26956635714 0.96294778585 0.0023091544863
0.4003290832 0.9127393961 0.081218108535
0.25317561626 0.94997596741 0.17891868949
0.1346155107 0.98806250095 -0.074719890952
0.13145925105 0.98808723688 0.080005042255
-0.013402586803 0.99964684248 0.013528633863
0.39169248939 0.88913947344 0.23649066687
0.38994190097 0.84063071012 -0.37532243133
0.26458209753 0.91636770964 -0.30042630434
0.13106872141 0.92365407944 -0.36011743546
0.13414469361 0.96605634689 -0.22075518966
-0.0048676943406 0.95941543579 -0.28168898821
-0.0004310067161 0.91161322594 -0.4110673964
0.0064085461199 0.99056690931 -0.13559529185
0.00063229526859 0.96466273069 0.2591213882
-0.13944923878 0.98752999306 -0.072021096945
-0.13567714393 0.92330956459 -0.3590477705
-0.25017496943 0.95197534561 -0.1684859097
-0.12704014778 0.86466658115 -0.48602005839
-0.70766109228 0.35877165198 0.60812479258
-0.58816802502 0.45117747784 0.67060440779
-0.45255053043 0.45668765903 0.7657045722
-0.2539729178 0.36957296729 0.89336794615
-0.57453024387 0.24260857701 0.78158295155
-0.42891234159 0.27579629421 0.86025887728
-0.43878561258 0.099919915199 0.89215135574
-0.70033323765 0.17231963575 0.69255137444
-0.8327563405 0.15462961793 0.53166425228
-0.5333315134 0.032909825444 0.84329652786
-0.63325989246 0.02620562166 0.77232325077
-0.078760191798 0.38966286182 0.91737896204
0.25349625945 0.36931279302 0.89352053404
0.078102298081 0.38939538598 0.91751950979
-0.33983665705 0.16956371069 0.92365956306
-0.15301437676 0.23533932865 0.95814234018
0.4590331614 0.4494587481 0.76536214352
0.33910614252 0.14990453422 0.92864018679
0.42809432745 0.27270272374 0.86164259911
0.25648447871 -0.38041383028 -0.88843607903
0.44843390584 -0.44635921717 -0.77361816168
0.33569163084 -0.15053509176 -0.92971086502
0.43226236105 -0.26443514228 -0.862172544
0.26902583241 -0.001433279831 -0.9632371664
0.094814166427 -0.12021410465 -0.98813211918
0.10089398175 0.11695705354 -0.98735880852
0.78376567364 0.57418119907 0.2372982502
0.68251508474 0.58474457264 0.4382507205
0.86405932903 0.42876490951 0.26402005553
0.7744165659 0.44489100575 0.44929176569
0.89053416252 0.25107628107 0.37851944566
0.5665115118 0.64283531904 0.51546937227
0.52375477552 0.56013673544 0.64153158665
0.60402196646 0.42667388916 0.67313885689
0.57009387016 0.23873980343 0.78611499071
-0.078340299428 0.78630155325 -0.61286145449
-0.21737192571 0.79097723961 -0.57170373201
-0.71283656359 0.01495824568 0.70093429089
-0.7896464467 0.0098102148622 0.6128911376
-0.91336447001 0.072455249727 0.40039762855
0.57490170002 -0.23790048063 -0.78252458572
0.57265174389 -0.43072590232 -0.69641822577
0.50831395388 -0.55631524324 -0.6561846137
0.78581571579 -0.5698903203 -0.23929515481
0.77697515488 -0.44624298811 -0.4414896369
0.3382191062 0.14699548483 -0.92969220877
0.14915205538 0.2698687315 -0.95118463039
0.25049561262 0.37418618798 -0.89243233204
0.44127327204 0.26087784767 -0.85853481293
0.00032886909321 0.26770576835 -0.96336328983
-0.00013717332331 0.70857399702 -0.70547914505
0.0012795522343 0.52823382616 -0.84889292717
0.80971628428 0.29225108027 0.50897943974
0.93071722984 0.33365008235 0.14918960631
0.9504340291 0.14305187762 0.27591091394
0.98664569855 0.094735868275 0.13114196062
0.99692606926 0.053051762283 -0.036894913763
0.97964930534 -0.18798856437 -0.063137002289
0.5994836688 0.42485940456 -0.67650866508
0.51621884108 0.56399148703 -0.64454859495
0.56661093235 0.63189309835 -0.52800607681
0.41634991765 0.68959802389 -0.59174072742
0.67899703979 0.57800430059 -0.45156273246
0.45750147104 0.47457358241 -0.75192481279
0.37940195203 0.59859663248 -0.70543736219
0.31494447589 0.50277578831 -0.80497097969
0.24231423438 0.60573542118 -0.75786578655
0.13100594282 0.92359679937 0.35986542702
0.12719984353 0.86456722021 0.48610952497
0.00034830570803 0.91300809383 0.40806147456
0.0019032213604 0.84921455383 0.52779906988
-0.12625694275 0.86463737488 0.48639917374
-0.13600002229 0.92539232969 0.35216397047
-0.27203226089 0.8604285121 0.42827048898
-0.26192641258 0.94944238663 0.16889087856
-0.13756741583 0.98551392555 0.09388358891
-0.38984245062 0.89018034935 0.23576056957
-0.49751234055 0.80979394913 0.31070920825
-0.26994454861 0.96287643909 0.0011177681154
-0.39711475372 0.91426753998 -0.079808816314
-0.39789271355 0.91393727064 0.08002653718
-0.51877814531 0.85490614176 5.3653915529e-05
-0.38949120045 0.89007461071 -0.2367259562
-0.51438635588 0.8428928256 -0.15787902474
-0.51452809572 0.84298324585 0.1570931226
-0.61112850904 0.75615274906 0.23391342163
-0.62088108063 0.77988785505 0.079101681709
[...]
CELL_DATA 916
SCALARS cell_data_0 double
LOOKUP_TABLE default
5.18730508363e-08
4.40393209074e-08
9.34834409553e-08
1.16814942529e-07
5.26757623724e-09
1.09651054812e-07
3.90502187862e-07
3.89353504768e-07
7.47421429262e-08
3.48498592966e-07
1.413001346e-07
2.5409474359e-07
2.4232778611e-07
5.28762343935e-07
3.00884011917e-07
2.19639664524e-07
1.8100918208e-07
2.5963724355e-07
2.18586231288e-07
2.39249653248e-07
2.83977102021e-07
3.30480130221e-07
1.88568227626e-07
3.62277939682e-07
1.75224551355e-07
1.97909080184e-07
1.27291562708e-07
3.53386287924e-07
2.35366579849e-07
9.37750270136e-08
9.1156345015e-08
4.36066257305e-08
2.02235912746e-07
4.36756102175e-07
3.47499918584e-07
3.23889303487e-07
3.11169385582e-07
2.45749366069e-07
5.22144851955e-08
9.59498949809e-08
4.11878330059e-07
5.73207984456e-07
2.8136820971e-07
1.08594713095e-07
4.53979416925e-07
2.22219505234e-07
4.16507511941e-07
4.18752030119e-08
5.59730589181e-07
4.17185132154e-07
2.63872097789e-07
1.47525386347e-07
4.3389412302e-07
3.91423478317e-07
2.41635189989e-07
5.58002130783e-07
2.6679714827e-07
9.41553267474e-08
4.46593220763e-07
2.79970104846e-07
5.83175724582e-07
4.09214941095e-08
3.80172127013e-07
1.54113676609e-07
2.1298240934e-07
5.73362554607e-07
2.34745638543e-07
5.36522607103e-07
4.30733789459e-07
3.64972573161e-07
3.19168049217e-08
3.75644043652e-08
1.12348002229e-08
7.64047762279e-08
8.67154673067e-08
6.67883021835e-08
6.86874898964e-08
9.92793604446e-08
8.11560353208e-08
3.03030075429e-08
8.27945053648e-08
9.97940974544e-09
6.86793989477e-08
5.14453309042e-09
1.65893319546e-08
1.91151263362e-08
1.43860259991e-08
6.21117976464e-08
1.26455878191e-08
4.17251501121e-09
2.55011428549e-08
1.35278757016e-09
8.07551805882e-08
5.85292920765e-08
1.75334071491e-08
4.31969596235e-08
5.84503795607e-08
2.94287339448e-08
9.17695978738e-08
3.6735283511e-08
1.13305417923e-08
9.64987520538e-08
9.82266025869e-08
2.19058637459e-08
1.8371658839e-07
2.90069093439e-08
5.76184690184e-09
8.1851090099e-08
6.90600774099e-08
7.70567439469e-08
3.09367754756e-08
2.89150809018e-08
8.67403981923e-08
7.41243946194e-08
4.58145202453e-08
7.35240762309e-08
6.92756559363e-08
7.65604337517e-08
2.4567022409e-08
8.22818227325e-08
9.29293326329e-08
3.10302810644e-08
2.88132916733e-10
4.76091952992e-08
6.29346992322e-08
7.36752926865e-08
2.96719361938e-08
8.10813454536e-08
5.95192813472e-08
7.38591060408e-08
2.73093000836e-08
4.47730325105e-08
7.8370287537e-08
7.82212985286e-08
3.62112773986e-08
7.91823331667e-08
4.9956038399e-08
9.30445145234e-08
3.53476627838e-09
2.83668688389e-08
3.69244061372e-08
1.42860376059e-08
7.53404197465e-08
6.27755272996e-08
1.00641264727e-07
2.66529308042e-08
3.60783325046e-08
8.81067324597e-08
1.42690711099e-08
4.94106625955e-08
5.48975379123e-08
2.59467052535e-08
8.59400223331e-08
2.0144367749e-08
8.92209552963e-09
4.25916251054e-08
3.38298126947e-08
1.46823109153e-08
8.67454193478e-08
2.59743930371e-08
1.20550297799e-07
3.97949301707e-08
8.45144620761e-09
5.74002943903e-08
4.32435384296e-08
2.0333133407e-08
4.35092201418e-08
8.9069459206e-08
6.56563331793e-08
6.10947455682e-08
5.72502510844e-08
6.12970341338e-08
8.17531689423e-08
9.55209777714e-08
6.7066814777e-08
7.19017894145e-08
1.43328968307e-07
9.3224203059e-08
7.40054606451e-08
1.21201015126e-07
1.3255434891e-07
7.18466709679e-09
1.17481057411e-07
1.42490053799e-07
1.29017939285e-07
7.25962972208e-08
9.70979424829e-08
1.79931388473e-07
1.78403167477e-07
2.80172561636e-08
2.12675485503e-07
4.42542864428e-09
5.31972617368e-08
1.09181644142e-07
1.56767327248e-08
5.27656306306e-08
3.76128935785e-08
9.83856182121e-08
7.35690202329e-08
5.16555630219e-08
3.56026284954e-08
5.07084408524e-08
8.74714866172e-09
3.02420853412e-08
2.82560724526e-08
5.97428240571e-08
7.49092746612e-08
7.72074189809e-08
5.99982721881e-08
8.49653330369e-08
1.19501198721e-07
8.88495648981e-08
7.84307903436e-08
5.40687959012e-08
6.73128483658e-09
4.39505118925e-08
7.73864007201e-08
1.06141799067e-07
1.40448642867e-07
1.1923692925e-07
9.1634476194e-08
2.39434999706e-08
1.24827049035e-07
4.51225497945e-08
3.91414133083e-08
7.82722104746e-08
7.4380743423e-08
3.01601882109e-08
7.45899716335e-08
7.60151262486e-08
5.89717195029e-08
6.01431874582e-08
8.24799385057e-08
7.85038365597e-08
1.13858440448e-07
2.62918856112e-08
8.34536855194e-08
1.32556612719e-07
2.23987003983e-08
1.69802276605e-08
1.14457574952e-08
2.43779425949e-08
4.88470938437e-09
9.70535024011e-09
3.34155618076e-08
3.12267524573e-08
4.81238630469e-08
1.09987681688e-08
3.8140288716e-08
2.52413998345e-08
3.08371780428e-08
5.22251932441e-08
7.58521423106e-08
2.72493951074e-10
3.1977966157e-08
6.24655820497e-08
5.09865242294e-08
4.31535302756e-09
3.06225184263e-08
4.65451847002e-08
2.78288183091e-08
6.80486414733e-08
1.17234925564e-08
1.13421962781e-07
1.71052750342e-08
2.30632502075e-08
6.59741138746e-09
4.95588998368e-08
3.09196945858e-08
3.29945248454e-08
1.19701726127e-08
1.29421436094e-08
6.88525805889e-08
5.30405041417e-08
4.21821642901e-08
1.34611104547e-09
2.92724192515e-08
4.52481659578e-08
7.72809188927e-08
2.48244630764e-08
8.0848817066e-08
5.7181261063e-08
7.97396086895e-08
1.16993937256e-08
4.90859494534e-08
3.66791659022e-09
5.33771055343e-08
6.3616617919e-09
3.23334830971e-08
6.27478808847e-09
3.33684375004e-08
3.01152503172e-08
4.11222177439e-08
8.6329789342e-09
5.79029145138e-08
4.53210256786e-08
7.18678868099e-08
6.16921941249e-08
7.2172769359e-08
1.96096207826e-08
6.01305470211e-08
8.72425397205e-08
1.13087157175e-08
8.38153389721e-08
3.12532024844e-08
3.8479477114e-08
6.66470844724e-08
2.12913232559e-08
5.20131081558e-08
8.56564780936e-08
4.89141781801e-08
1.25414217999e-08
2.83197956404e-08
3.52886761626e-09
3.87954240498e-08
5.54833006855e-08
2.63290033114e-09
6.13081313417e-08
5.22595329782e-08
8.72331460086e-09
2.10079583191e-08
3.87772292895e-09
4.33383696016e-08
7.08228569433e-08
7.89812386071e-09
7.26567086325e-08
3.97229286414e-08
3.53886218771e-08
1.13244004333e-09
1.74907718237e-08
1.08218062147e-08
6.9330218883e-08
6.26474177548e-08
8.90329428753e-09
6.92666234014e-08
4.01946721026e-08
1.03333203827e-07
8.87825253351e-08
7.80435622461e-08
1.15624411917e-07
5.84879529073e-08
5.72623002076e-08
7.22573575613e-08
2.57324812453e-08
9.1888994487e-08
5.27701771462e-08
1.47549878411e-07
9.64077217331e-08
1.86176157333e-08
1.33309887873e-07
3.68789366494e-08
2.3401260024e-07
6.02048493194e-08
2.93253141168e-10
4.95512465286e-08
8.91403096766e-08
5.58137265655e-08
6.7559572237e-08
8.82000088416e-08
1.24392465418e-07
2.98662003397e-08
1.36089057539e-08
6.49484669957e-08
1.25353794281e-08
8.41450861634e-09
3.25903141162e-09
2.29747656541e-08
2.90682231781e-08
7.80768892409e-09
3.70067178462e-08
6.39848852639e-09
1.46806679286e-08
5.98548874917e-08
1.9194929032e-09
7.78126029204e-09
3.11024475392e-08
1.78591093944e-08
4.09125488608e-08
1.0345486097e-07
8.0468116348e-08
7.13121253242e-08
1.1658961731e-07
2.66296890326e-08
3.54039574349e-08
1.58535203129e-07
1.24529069187e-07
8.10905309525e-09
7.13399625227e-09
2.07378248071e-08
3.18244008221e-09
3.01761306254e-09
7.59569722317e-09
7.79797424271e-08
8.34082325173e-09
6.46423683132e-09
2.17208015308e-09
3.47273860457e-09
4.89523910797e-08
1.11860125924e-08
1.29638566374e-07
1.05156131147e-07
1.23801696592e-07
5.71456655189e-08
5.56867450662e-09
1.44230418509e-07
2.48748652525e-08
1.12084519935e-07
8.58835783179e-09
1.53683344122e-07
1.1133632137e-07
4.91883412664e-08
2.42386871225e-08
8.81345218415e-08
8.16235336259e-08
7.18002450238e-08
1.34886382948e-07
7.59776651268e-08
5.68392488621e-08
1.19176460044e-08
1.0319204422e-07
8.19211433941e-08
1.30740364515e-07
1.15103379516e-07
5.79300088679e-08
1.3883816478e-08
9.27167321918e-09
6.1764920709e-08
2.23561467815e-08
1.24787369177e-07
7.12183271896e-08
9.39601274764e-09
3.31380182909e-09
6.80574136073e-09
2.3105593259e-08
1.42006260923e-08
9.80530341767e-09
7.89240194524e-08
3.14909028168e-09
1.20356805931e-08
1.30843907156e-07
4.05458294875e-08
2.74096245524e-09
1.34447109243e-08
3.08094279847e-08
7.15393777014e-08
5.2729989505e-08
3.02461757273e-08
1.10117304765e-08
4.02158985589e-09
1.5094142899e-09
6.60077452855e-09
2.40778277229e-09
7.75679083952e-11
4.86846505571e-09
2.6236579959e-09
4.6464063952e-09
4.07205413042e-08
5.50265165188e-09
5.01665066811e-09
8.58896391397e-09
5.77252139555e-09
4.15468650084e-08
4.97870399352e-08
2.37800900156e-08
5.76435820791e-08
6.67788822142e-09
6.20444590241e-08
3.49696754053e-08
7.82826226958e-10
1.94273235681e-08
3.71197713196e-08
6.58019315442e-09
4.45510132149e-08
1.44753727662e-08
1.42883802414e-08
1.0644397865e-09
7.0194776242e-09
3.09183378714e-08
5.28790040009e-08
1.60074586267e-09
3.79214299154e-09
3.93161747524e-08
1.74688530707e-09
3.94323285214e-09
1.14111396422e-08
2.95433181124e-08
6.48854134324e-09
5.74995383955e-09
3.55476278907e-08
1.33840776851e-08
3.29514018543e-08
1.52187034398e-09
1.19328424326e-08
3.56266125894e-08
2.73687835577e-08
9.1669095175e-08
1.45807258723e-07
8.72901874523e-08
1.14396916533e-08
9.42560532499e-08
2.02559870261e-07
2.54622541931e-07
6.7526592915e-08
1.52637308878e-07
1.40829858715e-08
5.45390952792e-09
9.22837458978e-09
4.97355143588e-08
5.82693411775e-08
3.74073680583e-09
1.20387965658e-08
1.79621123499e-08
1.21242883502e-08
1.10825376639e-08
1.51655417733e-08
1.12882590346e-08
1.42155677049e-08
7.38851140272e-09
4.99270331138e-08
1.31424464587e-08
1.09933851199e-08
5.86249682308e-09
1.59630316667e-08
4.15539612497e-08
3.84430686653e-08
1.93957606472e-09
8.32678287448e-09
3.90667709928e-09
5.354005472e-09
3.01062592452e-10
9.49217159067e-09
8.42083539969e-09
1.10569806472e-08
4.03338148074e-09
3.7484167197e-08
4.56579393953e-09
3.23100682794e-09
7.00970335514e-09
1.39723804852e-08
4.9034697406e-08
4.28588701891e-08
1.51768107424e-08
1.32154394621e-08
1.94173569617e-08
9.45737269634e-09
1.60040571814e-08
2.88553936361e-08
2.30392317156e-08
2.32371406412e-08
3.93897352668e-09
5.1685693265e-08
3.21661289415e-08
1.3264063162e-08
4.11386737833e-09
2.84902265703e-08
3.22474693601e-08
4.27616392328e-08
2.91788562394e-09
1.36581553848e-08
4.2117979674e-09
6.85254178703e-10
5.3169321535e-09
4.49846858719e-09
1.6719483214e-09
4.81309892173e-09
5.56709644603e-09
2.63077555281e-08
4.39587028663e-09
7.63379586693e-09
1.26591398682e-09
5.18143788898e-09
4.27919371306e-08
4.66879935353e-08
1.7574140909e-09
7.70513231966e-09
1.31461001949e-09
1.90689164614e-09
2.99581163955e-09
1.57538869058e-08
4.06942075752e-08
4.21952762238e-08
3.92531326851e-09
1.00720806452e-08
8.12322959105e-09
5.40510014978e-09
2.7052614111e-09
1.53087754699e-08
8.46143637063e-09
3.66643655745e-09
1.44493648406e-08
3.21370360141e-08
5.89558977767e-09
1.52098085217e-08
9.91057076715e-10
2.27347258898e-08
4.69225525372e-08
4.38128181936e-08
3.31557634437e-09
2.55231900559e-08
2.09464788533e-08
2.81868201229e-08
4.5499640768e-10
2.01974870751e-10
9.61110559032e-09
2.98173741628e-08
1.09731210658e-09
3.49486779465e-08
6.10876521358e-09
1.28996729292e-08
8.555005908e-09
1.44991592137e-09
4.04789288624e-08
2.82307621145e-08
6.43866833969e-09
1.14569943341e-08
1.60073672706e-08
6.39158546419e-09
2.57748954378e-09
4.41378010504e-09
2.05999244454e-08
1.03433360966e-08
4.69106220194e-09
4.43011971625e-08
6.4355073322e-10
2.03703175313e-08
1.25383130421e-08
6.65074811779e-09
3.08009356431e-08
4.67598466314e-08
7.30866250126e-09
4.24785457226e-09
3.07740037593e-09
1.97017639458e-09
1.3491149254e-08
2.5938129782e-08
8.5693283309e-09
1.26174405007e-08
1.54789814992e-09
4.97979463888e-08
2.84599214738e-08
7.36987085124e-10
4.86511993775e-09
2.90263937367e-08
5.41908927994e-08
5.72168005358e-08
1.98263600785e-09
1.75783460466e-08
1.12466984775e-08
1.99379373388e-09
1.57738766659e-08
2.68319182209e-08
4.3484006891e-09
2.49008614062e-10
2.31150803185e-08
4.82870683646e-08
2.70968690215e-08
3.55949038725e-09
5.70075808651e-09
7.29586401486e-09
3.11142126708e-08
4.63008755615e-09
1.2385825936e-07
2.82074784975e-08
6.87806339726e-09
1.16469206782e-08
3.33236949642e-08
3.02339806714e-08
4.56869139149e-09
2.99050167268e-08
6.63100621763e-09
3.35010753856e-09
1.79961881258e-08
2.24764097381e-08
2.90224941123e-08
5.28329643022e-08
2.31269898141e-09
9.88642702514e-09
1.32059567442e-08
8.67302758322e-09
3.02545534977e-09
6.73284374532e-09
2.66258443487e-08
3.86853513126e-08
6.38814576786e-09
7.71665307537e-09
9.61602223265e-09
9.60918099128e-09
9.74842397028e-09
3.41051188025e-09
3.20622212762e-08
6.28294243461e-08
9.49657372044e-09
1.71186765977e-08
8.20777201204e-09
2.15061729885e-08
3.34421637762e-09
1.75968455343e-08
5.6811164934e-09
2.96698673574e-08
1.13029933252e-09
9.49225494167e-09
3.34710979476e-09
4.80666685449e-08
7.43575730139e-09
6.29386263215e-09
4.96412631449e-09
1.28431658957e-08
4.00391336073e-09
9.49399612444e-09
7.26760711239e-08
5.18475056957e-08
8.1396958042e-09
7.23573317973e-09
3.68023616287e-09
1.63543922685e-08
5.80818867581e-09
5.70855218525e-09
7.4701920506e-09
2.79454279311e-08
9.44250591808e-09
2.20298962988e-08
5.13785761862e-08
2.05722082377e-08
1.7588564389e-08
2.57183109725e-08
7.38160478003e-09
3.1096390059e-08
1.43859349544e-08
2.86934294103e-08
9.78501875875e-09
1.56612131636e-08
1.15588518375e-08
2.69990531319e-08
3.22694308346e-08
1.1012071955e-08
6.02843304413e-08
3.291095781e-08
9.43095972862e-09
1.80155332223e-08
9.6859128285e-09
1.34175190865e-09
6.27946961209e-10
1.35329471555e-08
4.15724505294e-09
1.27901140843e-08
4.43599446284e-09
2.73598180276e-08
1.34931693194e-09
6.76584642103e-09
4.52280298967e-09
9.21056564482e-09
3.89426135791e-08
2.50958590273e-08
3.67820335595e-08
1.63421445074e-08
1.58731395025e-10
1.98560724603e-08
2.03275968787e-08
2.45741161242e-08
3.92297411708e-10
2.8463782183e-08
3.22172400674e-08
9.59016619762e-09
3.07141760581e-08
2.41679596303e-08
3.11316625748e-08
1.82341353452e-08
1.20376872084e-08
3.18304893269e-08
5.7109922281e-08
3.93189379425e-08
2.87543965795e-08
2.84728601374e-08
5.48576101389e-08
1.5902720438e-08
1.37152545246e-07
6.24803072236e-11
3.77576089075e-08
3.47145012091e-09
1.0188051129e-08
3.08051597653e-09
1.65891270938e-08
1.47591829836e-08
1.26476230153e-08
5.47847429209e-08
1.94935982391e-08
8.19928066617e-08
6.17282024286e-08
3.34429410801e-08
1.89345972295e-08
1.85832022946e-08
1.37448069238e-08
8.54094065699e-09
2.17812928844e-08
2.47219790934e-08
3.07812403971e-08
3.50197092585e-09
2.33395109088e-08
1.07347303672e-08
2.87784515727e-11
2.21626420441e-08
4.19076390146e-08
4.34826922267e-08
3.74220666848e-08
2.88398526042e-08
1.8209426835e-08
3.40453553936e-11
1.30524626995e-09
3.0255075147e-08
5.80234670863e-09
2.81415763389e-08
2.18256415889e-08
2.06954066617e-08
3.56070808042e-09
2.0885188826e-08
2.85957528443e-08
3.71843463722e-08
3.31396067307e-08
3.48877760829e-09
3.34530032321e-09
1.3466758263e-07
1.39916891499e-09
4.09682511948e-08
2.02122551453e-09
1.48651663597e-07
7.55717991755e-09
3.62547544513e-08
2.40949272021e-08
5.91751406361e-09
2.80375426759e-08
3.58741997753e-08
6.52787172851e-08
3.19581277149e-09
5.38549643893e-08
1.25945623788e-08
4.83373274637e-08
2.03176178653e-07
6.48783031495e-09
8.53815684932e-08
1.79378997371e-08
5.23521552491e-08
3.86958996958e-08
1.1737540799e-08
4.63921237717e-09
1.99527403769e-10
6.30365674699e-09
1.21390210063e-08
3.07500335401e-09
1.02076654183e-08
2.80851004576e-09
2.68780964552e-09
3.53563182039e-09
2.18630892605e-09
2.35582392869e-08
9.97967466218e-09
2.66939464977e-09
3.5054246695e-09
3.34917619617e-08
1.28334338407e-08
5.46891089695e-09
1.35893640254e-08
2.58833862607e-09
1.24812081677e-08
4.72559580908e-09
5.62737760055e-08
9.38992377015e-08
2.19877472772e-08
4.32176085279e-08
4.18170216471e-08
1.11862418603e-08
1.24820429015e-07
2.93990362416e-08
8.92955453868e-09
2.34584938616e-08
1.50171373248e-08
3.43078083348e-08
3.11332482115e-08
2.65447780061e-08
1.04452362316e-09
1.05715861499e-08
3.1754899973e-08
4.83834414353e-08
9.69676895743e-09
3.46203250539e-08
2.92862712943e-08
4.68711937062e-08
8.05054971474e-09
7.44007954914e-09
4.20652036783e-09
1.99420694883e-08
2.0620750271e-09
1.12340529242e-08
3.15021256657e-08
2.61178072783e-08
5.40944613357e-08
1.91577064737e-07
3.84604770426e-09
2.1335811116e-08
1.19944482734e-08
2.97026584737e-08
5.87632648312e-08
4.90181263845e-08
4.39648056068e-08
5.47993656662e-08
3.63405464666e-08
6.06701784108e-09
1.12912036291e-08
2.24522524675e-08
1.52387001514e-08
6.10062141977e-09
1.38429413466e-08
7.01395230015e-09
3.88200474615e-09
8.24816187708e-09
9.43937052147e-09
2.66893940783e-09

