# vtk DataFile Version 3.0
File Name: Molecule/sphere_dip_12/sphere_dip_12_0-s4.vtk
ASCII
DATASET UNSTRUCTURED_GRID
FIELD FieldData 1
TIME 1 1 double
0.0
POINTS 53 double
0.850650808352 -0.525731112119 0.0
0.809016994375 -0.309016994375 -0.5
1.0 0.0 0.0
0.809016994375 0.309016994375 -0.5
0.525731112119 0.0 -0.850650808352
0.850650808352 0.525731112119 0.0
0.5 0.809016994375 -0.309016994375
0.309016994375 0.5 -0.809016994375
0.0 0.850650808352 -0.525731112119
0.5 0.809016994375 0.309016994375
0.0 1.0 0.0
0.0 0.850650808352 0.525731112119
-0.5 0.809016994375 0.309016994375
-0.5 0.809016994375 -0.309016994375
-0.850650808352 0.525731112119 0.0
-0.309016994375 0.5 0.809016994375
0.309016994375 0.5 0.809016994375
0.0 0.0 1.0
-0.525731112119 0.0 0.850650808352
0.525731112119 0.0 0.850650808352
0.309016994375 -0.5 -0.809016994375
0.0 0.0 -1.0
-0.309016994375 -0.5 -0.809016994375
0.0 -0.850650808352 -0.525731112119
-0.525731112119 0.0 -0.850650808352
0.809016994375 -0.309016994375 0.5
0.809016994375 0.309016994375 0.5
-0.809016994375 -0.309016994375 -0.5
-0.809016994375 0.309016994375 -0.5
-1.0 0.0 0.0
-0.850650808352 -0.525731112119 0.0
-0.309016994375 0.5 -0.809016994375
-0.5 -0.809016994375 -0.309016994375
-0.5 -0.809016994375 0.309016994375
0.0 -1.0 0.0
0.0 -0.850650808352 0.525731112119
-0.809016994375 -0.309016994375 0.5
-0.309016994375 -0.5 0.809016994375
-0.809016994375 0.309016994375 0.5
0.5 -0.809016994375 -0.309016994375
0.5 -0.809016994375 0.309016994375
0.309016994375 -0.5 0.809016994375
0.587785252292 -0.425325404176 0.688190960236
0.425325404176 -0.688190960236 0.587785252292
0.688190960236 -0.587785252292 0.425325404176
-0.162459848116 -0.26286555606 0.951056516295
0.0 -0.525731112119 0.850650808352
0.162459848116 -0.26286555606 0.951056516295
-0.16062203564 -0.702046444776 0.69378047756
0.16062203564 -0.702046444776 0.69378047756
-0.425325404176 0.688190960236 0.587785252292
-0.688190960236 0.587785252292 0.425325404176
-0.587785252292 0.425325404176 0.688190960236

CELLS 102 408
3 0 1 2
3 1 3 2
3 1 4 3
3 2 3 5
3 5 3 6
3 3 7 6
3 3 4 7
3 6 7 8
3 5 6 9
3 6 10 9
3 6 8 10
3 9 10 11
3 11 10 12
3 10 13 12
3 10 8 13
3 12 13 14
3 11 15 16
3 15 17 16
3 15 18 17
3 16 17 19
3 4 20 21
3 20 22 21
3 20 23 22
3 21 22 24
3 0 2 25
3 2 26 25
3 2 5 26
3 25 26 19
3 5 9 26
3 9 16 26
3 9 11 16
3 26 16 19
3 24 27 28
3 27 29 28
3 27 30 29
3 28 29 14
3 8 31 13
3 31 28 13
3 31 24 28
3 13 28 14
3 30 32 33
3 32 34 33
3 32 23 34
3 33 34 35
3 30 33 36
3 33 37 36
3 36 37 18
3 18 38 36
3 38 29 36
3 38 14 29
3 36 29 30
3 24 22 27
3 22 32 27
3 22 23 32
3 27 32 30
3 23 39 34
3 39 40 34
3 39 0 40
3 34 40 35
3 4 1 20
3 1 39 20
3 1 0 39
3 20 39 23
3 4 21 7
3 21 31 7
3 21 24 31
3 7 31 8
3 41 42 19
3 19 42 25
3 41 43 42
3 43 44 42
3 43 40 44
3 42 44 25
3 40 43 35
3 25 44 0
3 44 40 0
3 37 45 18
3 18 45 17
3 37 46 45
3 46 47 45
3 46 41 47
3 45 47 17
3 37 48 46
3 48 49 46
3 48 35 49
3 46 49 41
3 17 47 19
3 47 41 19
3 35 48 33
3 33 48 37
3 41 49 43
3 43 49 35
3 12 50 11
3 11 50 15
3 12 51 50
3 51 52 50
3 51 38 52
3 50 52 15
3 38 51 14
3 14 51 12
3 15 52 18
3 52 38 18

CELL_TYPES 102
5
5
5
5
5
5
5
5
5
5
5
5
5
5
5
5
5
5
5
5
5
5
5
5
5
5
5
5
5
5
5
5
5
5
5
5
5
5
5
5
5
5
5
5
5
5
5
5
5
5
5
5
5
5
5
5
5
5
5
5
5
5
5
5
5
5
5
5
5
5
5
5
5
5
5
5
5
5
5
5
5
5
5
5
5
5
5
5
5
5
5
5
5
5
5
5
5
5
5
5
5
5

CELL_DATA 102
SCALARS cell_data_0 double
LOOKUP_TABLE default
3.1850775231e-05
0.000112594928781
0.000143541199404
3.16231087291e-05
3.16214571981e-05
0.000265072342255
0.000314087393103
0.000206460254929
0.000594528567839
0.000710977522249
2.97589739763e-05
0.000676405980856
0.000288442370881
0.000704493302724
0.000312289236508
0.000432628130698
0.00189663435491
0.00229950353862
0.00172155862792
0.000519886360272
0.000854071372776
0.00103485874881
0.000248185042558
0.000849298152748
9.22892231462e-05
0.000136677198981
0.000121484429322
0.000461111419146
0.000550767694121
0.000540406175441
0.000560939838492
0.000375770503318
0.000250108079491
0.000136882638939
4.9660101565e-05
5.02684154467e-05
4.40871989619e-05
7.15013427574e-05
0.000363861993992
0.000196364623562
3.85257502853e-05
6.29397288456e-05
5.17233309736e-05
2.53868595782e-05
4.37391192267e-06
5.46765330332e-05
9.81804484703e-05
0.000245409271694
0.00038169134483
0.000330031122373
1.40026057107e-06
0.000299827887332
4.13337716098e-05
8.91406661549e-05
4.73744339625e-05
4.44753977702e-05
0.00015208547754
0.000102396891867
9.33564357914e-05
0.000326758191073
0.000297889798503
6.03673853509e-05
0.000186902100982
0.000950511743971
0.00100473947327
0.000689251895653
0.000411937524715
0.000116416734129
0.000225267241678
8.17523426755e-06
1.7345392577e-06
2.45812590624e-05
2.40770127897e-05
3.38631598202e-05
3.49097632902e-05
3.59797334599e-05
6.5713915291e-05
3.03655651425e-05
1.35263622281e-05
7.92533003685e-06
1.17285198495e-05
6.99365569645e-05
8.85991764357e-06
1.67045783446e-06
4.84198246509e-07
8.98456248916e-06
0.000302283593511
0.000125230017786
1.10897929644e-06
1.55389027981e-05
7.07104460599e-06
9.95475107066e-07
8.50407913955e-05
0.000966149389531
2.738941206e-05
3.55188656301e-06
0.000107787593203
0.000524003033626
0.0001717505605
3.94799373927e-05
0.000754542111672
0.00013374272575

