# vtk DataFile Version 3.0
File Name: Molecule/sphere_dip_12/sphere_dip_12_0-s5.vtk
ASCII
DATASET UNSTRUCTURED_GRID
FIELD FieldData 1
TIME 1 1 double
0.0
POINTS 58 double
0.850650808352 -0.525731112119 0.0
0.809016994375 -0.309016994375 -0.5
1.0 0.0 0.0
0.809016994375 0.309016994375 -0.5
0.525731112119 0.0 -0.850650808352
0.850650808352 0.525731112119 0.0
0.5 0.809016994375 -0.309016994375
0.309016994375 0.5 -0.809016994375
0.0 0.850650808352 -0.525731112119
0.5 0.809016994375 0.309016994375
0.0 1.0 0.0
0.0 0.850650808352 0.525731112119
-0.5 0.809016994375 0.309016994375
-0.5 0.809016994375 -0.309016994375
-0.850650808352 0.525731112119 0.0
0.309016994375 -0.5 -0.809016994375
0.0 0.0 -1.0
-0.309016994375 -0.5 -0.809016994375
0.0 -0.850650808352 -0.525731112119
-0.525731112119 0.0 -0.850650808352
0.809016994375 -0.309016994375 0.5
0.809016994375 0.309016994375 0.5
0.525731112119 0.0 0.850650808352
0.309016994375 0.5 0.809016994375
-0.809016994375 -0.309016994375 -0.5
-0.809016994375 0.309016994375 -0.5
-1.0 0.0 0.0
-0.850650808352 -0.525731112119 0.0
-0.309016994375 0.5 -0.809016994375
-0.5 -0.809016994375 -0.309016994375
-0.5 -0.809016994375 0.309016994375
0.0 -1.0 0.0
0.0 -0.850650808352 0.525731112119
-0.809016994375 -0.309016994375 0.5
-0.309016994375 -0.5 0.809016994375
-0.525731112119 0.0 0.850650808352
-0.809016994375 0.309016994375 0.5
0.5 -0.809016994375 -0.309016994375
0.5 -0.809016994375 0.309016994375
0.309016994375 -0.5 0.809016994375
0.587785252292 -0.425325404176 0.688190960236
0.425325404176 -0.688190960236 0.587785252292
0.688190960236 -0.587785252292 0.425325404176
-0.162459848116 -0.26286555606 0.951056516295
0.0 0.0 1.0
0.0 -0.525731112119 0.850650808352
0.162459848116 -0.26286555606 0.951056516295
-0.16062203564 -0.702046444776 0.69378047756
0.16062203564 -0.702046444776 0.69378047756
-0.425325404176 0.688190960236 0.587785252292
-0.688190960236 0.587785252292 0.425325404176
-0.587785252292 0.425325404176 0.688190960236
-0.309016994375 0.5 0.809016994375
-0.16062203564 0.702046444776 0.69378047756
0.16062203564 0.702046444776 0.69378047756
0.0 0.525731112119 0.850650808352
-0.162459848116 0.26286555606 0.951056516295
0.162459848116 0.26286555606 0.951056516295

CELLS 112 448
3 0 1 2
3 1 3 2
3 1 4 3
3 2 3 5
3 5 3 6
3 3 7 6
3 3 4 7
3 6 7 8
3 5 6 9
3 6 10 9
3 6 8 10
3 9 10 11
3 11 10 12
3 10 13 12
3 10 8 13
3 12 13 14
3 4 15 16
3 15 17 16
3 15 18 17
3 16 17 19
3 0 2 20
3 2 21 20
3 2 5 21
3 20 21 22
3 5 9 21
3 9 23 21
3 21 23 22
3 19 24 25
3 24 26 25
3 24 27 26
3 25 26 14
3 8 28 13
3 28 25 13
3 28 19 25
3 13 25 14
3 27 29 30
3 29 31 30
3 29 18 31
3 30 31 32
3 27 30 33
3 30 34 33
3 33 34 35
3 35 36 33
3 36 26 33
3 36 14 26
3 33 26 27
3 19 17 24
3 17 29 24
3 17 18 29
3 24 29 27
3 18 37 31
3 37 38 31
3 37 0 38
3 31 38 32
3 4 1 15
3 1 37 15
3 1 0 37
3 15 37 18
3 4 16 7
3 16 28 7
3 16 19 28
3 7 28 8
3 39 40 22
3 22 40 20
3 39 41 40
3 41 42 40
3 41 38 42
3 40 42 20
3 38 41 32
3 20 42 0
3 42 38 0
3 34 43 35
3 35 43 44
3 34 45 43
3 45 46 43
3 45 39 46
3 43 46 44
3 34 47 45
3 47 48 45
3 47 32 48
3 45 48 39
3 44 46 22
3 46 39 22
3 32 47 30
3 30 47 34
3 39 48 41
3 41 48 32
3 12 49 11
3 12 50 49
3 50 51 49
3 50 36 51
3 49 51 52
3 36 50 14
3 14 50 12
3 52 51 35
3 51 36 35
3 11 53 54
3 53 55 54
3 53 52 55
3 54 55 23
3 52 56 55
3 56 57 55
3 56 44 57
3 55 57 23
3 44 56 35
3 35 56 52
3 23 57 22
3 57 44 22
3 11 54 9
3 9 54 23
3 52 53 49
3 49 53 11

CELL_TYPES 112
5
5
5
5
5
5
5
5
5
5
5
5
5
5
5
5
5
5
5
5
5
5
5
5
5
5
5
5
5
5
5
5
5
5
5
5
5
5
5
5
5
5
5
5
5
5
5
5
5
5
5
5
5
5
5
5
5
5
5
5
5
5
5
5
5
5
5
5
5
5
5
5
5
5
5
5
5
5
5
5
5
5
5
5
5
5
5
5
5
5
5
5
5
5
5
5
5
5
5
5
5
5
5
5
5
5
5
5
5
5
5
5

CELL_DATA 112
SCALARS cell_data_0 double
LOOKUP_TABLE default
3.16537329483e-05
0.00011294134233
0.00014393629668
3.2237875468e-05
0.000295367938529
0.00189920436713
0.000934477230162
0.00164826985936
0.000969985933
0.00112622374765
0.000295601084461
0.000581473055813
0.000638041449553
0.000537326522426
2.73021511677e-05
0.000346278738983
0.000862593901579
0.00083580627019
0.000340672089807
0.00069112063311
2.30496608348e-05
1.78953955828e-05
9.4495258615e-05
0.000298888444675
0.000461755239291
0.000445460655417
0.000309540956327
0.000281570144844
4.54977513898e-05
1.84774091736e-05
6.32289636459e-05
0.00022412325773
0.000307256481744
0.000430886512698
5.52585752435e-05
7.55830460627e-06
4.43495806887e-05
4.21353901971e-05
4.08551013719e-05
1.20253414073e-05
2.86789699388e-05
3.7322978596e-05
2.1982374128e-05
0.000230029983543
0.000182416034153
9.937763168e-05
0.000364119033159
0.000250352893088
0.000163499335336
4.98999736222e-05
7.71916388941e-06
0.00045423485517
0.000310157318765
0.00043221126431
0.00030502529694
0.000265515208472
8.70939666856e-05
0.000172966252883
0.000438865507429
0.000968221719371
0.00070739165121
0.000398991412064
9.87618925857e-05
0.000142068862748
2.14205855648e-05
0.000158252273021
0.000382713601671
8.48347543133e-05
0.000301439446093
0.000158589460349
0.000442819636975
5.20691593865e-05
0.000111029107921
2.00933923592e-05
3.83940392282e-05
1.93873748333e-05
6.50520603656e-05
3.5063781319e-05
1.72153988018e-05
1.10338447989e-06
6.89426818582e-06
1.96704671376e-05
5.37565980441e-05
1.73445790537e-07
1.69028682287e-05
2.20333757823e-05
3.11295580156e-05
0.000251727324457
0.000133184621022
1.36500450007e-05
5.64258347101e-05
1.29999347075e-06
5.65571821255e-05
0.000222172730346
4.04923141986e-05
3.34000762154e-05
1.96747403924e-05
2.14735877693e-06
9.17571054937e-06
3.9500924613e-06
8.68848502286e-06
8.15720651258e-07
2.67964081228e-05
8.18038299324e-06
9.61796592098e-05
6.16836511956e-05
0.000183232691222
9.31317742336e-05
0.000239933553301
0.000206951414141
8.69351081119e-06
1.44603580596e-05

