# vtk DataFile Version 3.0
File Name: Molecule/methanol/methanol_13.5-2.vtk
ASCII
DATASET UNSTRUCTURED_GRID
FIELD FieldData 1
TIME 1 1 double
0.0
POINTS 703 double
1.611 0.0 -0.359
1.585 -0.292 -0.356
1.475 0.0 -0.634
1.451 -0.274 -0.632
1.403 0.0 -0.933
1.38 -0.266 -0.93
1.51 -0.576 -0.349
1.38 -0.539 -0.625
1.311 -0.525 -0.924
1.386 -0.842 -0.336
1.265 -0.788 -0.613
1.219 -1.083 -0.32
1.108 -1.014 -0.598
1.198 -0.767 -0.912
1.046 -0.986 -0.897
1.012 -1.29 -0.299
0.915 -1.208 -0.579
0.857 -1.175 -0.878
0.773 -1.459 -0.275
0.691 -1.366 -0.556
0.639 -1.329 -0.857
0.508 -1.583 -0.249
0.443 -1.482 -0.532
0.398 -1.442 -0.833
0.226 -1.659 -0.221
0.179 -1.553 -0.505
0.141 -1.511 -0.807
-0.065 -1.684 -0.192
-0.094 -1.577 -0.478
-0.124 -1.534 -0.781
-0.356 -1.659 -0.163
-0.366 -1.553 -0.451
-0.389 -1.511 -0.754
-0.639 -1.583 -0.135
-0.631 -1.482 -0.425
-0.646 -1.442 -0.729
-0.903 -1.459 -0.108
-0.878 -1.366 -0.4
-0.887 -1.329 -0.705
-1.143 -1.29 -0.085
-1.102 -1.208 -0.378
-1.105 -1.175 -0.683
-1.349 -1.083 -0.064
-1.296 -1.014 -0.358
-1.294 -0.986 -0.664
-1.517 -0.842 -0.047
-1.453 -0.788 -0.343
-1.446 -0.767 -0.649
-1.64 -0.576 -0.035
-1.568 -0.539 -0.331
-1.559 -0.525 -0.638
-1.716 -0.292 -0.028
-1.639 -0.274 -0.324
-1.628 -0.266 -0.631
-1.742 -0.0 -0.025
-1.663 -0.0 -0.322
-1.716 0.292 -0.028
-1.639 0.274 -0.324
-1.651 -0.0 -0.629
-1.64 0.576 -0.035
-1.568 0.539 -0.331
-1.628 0.266 -0.631
-1.517 0.842 -0.047
-1.453 0.788 -0.343
-1.559 0.525 -0.638
-1.446 0.767 -0.649
-1.349 1.083 -0.064
-1.296 1.014 -0.358
-1.294 0.986 -0.664
-1.143 1.29 -0.085
-1.102 1.208 -0.378
-1.105 1.175 -0.683
-0.903 1.459 -0.108
-0.878 1.366 -0.4
-0.887 1.329 -0.705
-0.639 1.583 -0.135
-0.631 1.482 -0.425
-0.646 1.442 -0.729
-0.356 1.659 -0.163
-0.366 1.553 -0.451
-0.389 1.511 -0.754
-0.065 1.684 -0.192
-0.094 1.577 -0.478
-0.124 1.534 -0.781
0.226 1.659 -0.221
0.179 1.553 -0.505
0.141 1.511 -0.807
0.508 1.583 -0.249
0.443 1.482 -0.532
0.398 1.442 -0.833
0.773 1.459 -0.275
0.691 1.366 -0.556
0.639 1.329 -0.857
1.012 1.29 -0.299
0.915 1.208 -0.579
0.857 1.175 -0.878
1.219 1.083 -0.32
1.108 1.014 -0.598
1.046 0.986 -0.897
1.386 0.842 -0.336
1.265 0.788 -0.613
1.198 0.767 -0.912
1.51 0.576 -0.349
1.38 0.539 -0.625
1.311 0.525 -0.924
1.585 0.292 -0.356
1.451 0.274 -0.632
1.38 0.266 -0.93
1.907 0.0 0.656
1.885 0.281 0.656
1.885 0.141 0.899
1.885 -0.141 0.899
1.885 -0.281 0.656
1.885 -0.141 0.412
1.885 0.141 0.412
1.823 0.482 0.934
1.823 0.278 1.137
1.823 -0.0 1.212
1.823 -0.278 1.137
1.823 -0.482 0.934
1.823 -0.556 0.656
1.823 -0.482 0.377
1.823 -0.278 0.174
1.823 -0.0 0.099
1.823 0.278 0.174
1.823 0.482 0.377
1.823 0.556 0.656
1.72 0.77 0.936
1.72 0.627 1.182
1.72 0.409 1.365
1.72 0.142 1.462
1.72 -0.142 1.462
1.72 -0.409 1.365
1.72 -0.627 1.182
1.72 -0.77 0.936
1.72 -0.819 0.656
1.72 -0.77 0.376
1.72 -0.627 0.129
1.72 -0.409 -0.054
1.72 -0.142 -0.151
1.72 0.142 -0.151
1.72 0.409 -0.054
1.72 0.627 0.129
1.72 0.77 0.376
1.72 0.819 0.656
1.579 1.027 0.931
1.579 0.921 1.187
1.579 0.752 1.407
1.579 0.532 1.576
1.579 0.275 1.683
1.579 0.0 1.719
1.579 -0.275 1.683
1.579 -0.532 1.576
1.579 -0.752 1.407
1.579 -0.921 1.187
1.579 -1.027 0.931
1.579 -1.063 0.656
1.579 -1.027 0.38
1.579 -0.921 0.124
1.579 -0.752 -0.096
1.579 0.752 -0.096
1.579 0.921 0.124
1.579 1.027 0.38
1.579 1.063 0.656
1.403 1.254 0.932
1.403 1.165 1.195
1.403 1.022 1.433
1.403 0.831 1.634
1.403 0.601 1.79
1.403 0.343 1.893
1.403 0.07 1.938
1.403 -0.208 1.923
1.403 -0.475 1.848
1.403 -0.72 1.718
1.403 -0.932 1.538
1.403 -1.1 1.317
1.403 -1.217 1.066
1.403 -1.276 0.794
1.403 -1.276 0.517
1.403 -1.217 0.246
1.403 -1.1 -0.006
1.403 1.022 -0.121
1.403 1.165 0.117
1.403 1.254 0.38
1.403 1.284 0.656
1.196 1.449 0.935
1.196 1.37 1.204
1.196 1.241 1.453
1.196 1.068 1.674
1.196 0.856 1.858
1.196 0.613 1.998
1.196 0.348 2.09
1.196 0.07 2.13
1.196 -0.21 2.116
1.196 -0.483 2.05
1.196 -0.738 1.934
1.196 -0.966 1.771
1.196 -1.16 1.568
1.196 -1.312 1.332
1.196 -1.416 1.071
1.196 -1.469 0.796
1.196 -1.469 0.515
1.196 -1.416 0.24
1.196 -1.312 -0.021
1.196 1.241 -0.142
1.196 1.37 0.107
1.196 1.449 0.376
1.196 1.476 0.656
0.963 1.611 0.932
0.963 1.541 1.2
0.963 1.427 1.453
0.963 1.272 1.683
0.963 1.08 1.883
0.963 0.857 2.048
0.963 0.609 2.172
0.963 0.344 2.254
0.963 0.069 2.289
0.963 -0.208 2.277
0.963 -0.479 2.219
0.963 -0.736 2.115
0.963 -0.972 1.97
0.963 -1.18 1.787
0.963 -1.354 1.571
0.963 -1.49 1.329
0.963 -1.582 1.067
0.963 -1.629 0.794
0.963 -1.629 0.517
0.963 -1.582 0.244
0.963 -1.49 -0.018
0.963 1.427 -0.142
0.963 1.541 0.111
0.963 1.611 0.379
0.963 1.635 0.656
0.709 1.735 0.93
0.709 1.671 1.199
0.709 1.566 1.453
0.709 1.421 1.688
0.709 1.242 1.898
0.709 1.033 2.077
0.709 0.798 2.221
0.709 0.543 2.327
0.709 0.275 2.391
0.709 -0.0 2.413
0.709 -0.275 2.391
0.709 -0.543 2.327
0.709 -0.798 2.221
0.709 -1.033 2.077
0.709 -1.242 1.898
0.709 -1.421 1.688
0.709 -1.566 1.453
0.709 -1.671 1.199
0.709 -1.735 0.93
0.709 -1.757 0.656
0.709 -1.735 0.381
0.709 -1.671 0.113
0.709 1.671 0.113
0.709 1.735 0.381
0.709 1.757 0.656
0.439 1.819 0.937
0.439 1.754 1.211
0.439 1.649 1.472
0.439 1.505 1.714
0.439 1.326 1.932
0.439 1.116 2.119
0.439 0.879 2.272
0.439 0.622 2.387
0.439 0.35 2.462
0.439 0.07 2.494
0.439 -0.211 2.484
0.439 -0.488 2.43
0.439 -0.753 2.335
0.439 -1.0 2.2
0.439 -1.224 2.029
0.439 -1.42 1.826
0.439 -1.582 1.596
0.439 -1.707 1.343
0.439 -1.792 1.075
0.439 -1.835 0.796
0.439 -1.835 0.515
0.439 -1.792 0.236
0.439 -1.707 -0.032
0.439 1.754 0.1
0.439 1.819 0.375
0.439 1.84 0.656
0.16 1.861 0.936
0.16 1.799 1.21
0.16 1.696 1.472
0.16 1.555 1.716
0.16 1.38 1.936
0.16 1.174 2.127
0.16 0.941 2.286
0.16 0.688 2.408
0.16 0.419 2.491
0.16 0.141 2.533
0.16 -0.141 2.533
0.16 -0.419 2.491
0.16 -0.688 2.408
0.16 -0.941 2.286
0.16 -1.174 2.127
0.16 -1.38 1.936
0.16 -1.555 1.716
0.16 -1.696 1.472
0.16 -1.799 1.21
0.16 -1.861 0.936
0.16 -1.882 0.656
0.16 -1.861 0.375
0.16 -1.799 0.101
0.16 1.799 0.101
0.16 1.861 0.375
0.16 1.882 0.656
-0.122 1.861 0.936
-0.122 1.799 1.21
-0.122 1.696 1.472
-0.122 1.555 1.716
-0.122 1.38 1.936
-0.122 1.174 2.127
-0.122 0.941 2.286
-0.122 0.688 2.408
-0.122 0.419 2.491
-0.122 0.141 2.533
-0.122 -0.141 2.533
-0.122 -0.419 2.491
-0.122 -0.688 2.408
-0.122 -0.941 2.286
-0.122 -1.174 2.127
-0.122 -1.38 1.936
-0.122 -1.555 1.716
-0.122 -1.696 1.472
-0.122 -1.799 1.21
-0.122 -1.861 0.936
-0.122 -1.882 0.656
-0.122 -1.861 0.375
-0.122 -1.799 0.101
-0.122 1.799 0.101
-0.122 1.861 0.375
-0.122 1.882 0.656
-0.401 1.84 0.656
-0.401 1.819 0.937
-0.401 1.754 1.211
-0.401 1.649 1.472
-0.401 1.505 1.714
-0.401 1.326 1.932
-0.401 1.116 2.119
-0.401 0.879 2.272
-0.401 0.622 2.387
-0.401 0.35 2.462
-0.401 0.07 2.494
-0.401 -0.211 2.484
-0.401 -0.488 2.43
-0.401 -0.753 2.335
-0.401 -1.0 2.2
-0.401 -1.224 2.029
-0.401 -1.42 1.826
-0.401 -1.582 1.596
-0.401 -1.707 1.343
-0.401 -1.792 1.075
-0.401 -1.835 0.796
-0.401 -1.835 0.515
-0.401 -1.792 0.236
-0.401 1.754 0.1
-0.401 1.819 0.375
-0.671 1.757 0.656
-0.671 1.735 0.93
-0.671 1.671 1.199
-0.671 1.566 1.453
-0.671 1.421 1.688
-0.671 1.242 1.898
-0.671 1.033 2.077
-0.671 0.798 2.221
-0.671 0.543 2.327
-0.671 0.275 2.391
-0.671 -0.0 2.413
-0.671 -0.275 2.391
-0.671 -0.543 2.327
-0.671 -0.798 2.221
-0.671 -1.033 2.077
-0.671 -1.242 1.898
-0.671 -1.421 1.688
-0.671 -1.566 1.453
-0.671 -1.671 1.199
-0.671 -1.735 0.93
-0.671 -1.757 0.656
-0.671 -1.735 0.381
-0.671 -1.671 0.113
-0.671 1.671 0.113
-0.671 1.735 0.381
-0.925 1.635 0.656
-0.925 1.611 0.932
-0.925 1.541 1.2
-0.925 1.427 1.453
-0.925 1.272 1.683
-0.925 1.08 1.883
-0.925 0.857 2.048
-0.925 0.609 2.172
-0.925 0.344 2.254
-0.925 0.069 2.289
-0.925 -0.208 2.277
-0.925 -0.479 2.219
-0.925 -0.736 2.115
-0.925 -0.972 1.97
-0.925 -1.18 1.787
-0.925 -1.354 1.571
-0.925 -1.49 1.329
-0.925 -1.582 1.067
-0.925 -1.629 0.794
-0.925 -1.629 0.517
-0.925 -1.582 0.244
-0.925 1.541 0.111
-0.925 1.611 0.379
-1.158 1.476 0.656
-1.158 1.449 0.935
-1.158 1.37 1.204
-1.158 1.241 1.453
-1.158 1.068 1.674
-1.158 0.856 1.858
-1.158 0.613 1.998
-1.158 0.348 2.09
-1.158 0.07 2.13
-1.158 -0.21 2.116
-1.158 -0.483 2.05
-1.158 -0.738 1.934
-1.158 -0.966 1.771
-1.158 -1.16 1.568
-1.158 -1.312 1.332
-1.158 -1.416 1.071
-1.158 -1.469 0.796
-1.158 -1.469 0.515
-1.158 -1.416 0.24
-1.158 1.37 0.107
-1.158 1.449 0.376
-1.365 1.284 0.656
-1.365 1.254 0.932
-1.365 1.165 1.195
-1.365 1.022 1.433
-1.365 0.831 1.634
-1.365 0.601 1.79
-1.365 0.343 1.893
-1.365 0.07 1.938
-1.365 -0.208 1.923
-1.365 -0.475 1.848
-1.365 -0.72 1.718
-1.365 -0.932 1.538
-1.365 -1.1 1.317
-1.365 -1.217 1.066
-1.365 -1.276 0.794
-1.365 -1.276 0.517
-1.365 -1.217 0.246
-1.365 1.165 0.117
-1.365 1.254 0.38
-1.541 1.063 0.656
-1.541 1.027 0.931
-1.541 0.921 1.187
-1.541 0.752 1.407
-1.541 0.532 1.576
-1.541 0.275 1.683
-1.541 0.0 1.719
-1.541 -0.275 1.683
-1.541 -0.532 1.576
-1.541 -0.752 1.407
-1.541 -0.921 1.187
-1.541 -1.027 0.931
-1.541 -1.063 0.656
-1.541 -1.027 0.38
-1.541 -0.921 0.124
-1.541 0.921 0.124
-1.541 1.027 0.38
-1.682 0.819 0.656
-1.682 0.77 0.936
-1.682 0.627 1.182
-1.682 0.409 1.365
-1.682 0.142 1.462
-1.682 -0.142 1.462
-1.682 -0.409 1.365
-1.682 -0.627 1.182
-1.682 -0.77 0.936
-1.682 -0.819 0.656
-1.682 -0.77 0.376
-1.682 -0.627 0.129
-1.682 0.627 0.129
-1.682 0.77 0.375
-1.785 0.556 0.656
-1.785 0.482 0.934
-1.785 0.278 1.137
-1.785 -0.0 1.212
-1.785 -0.278 1.137
-1.785 -0.482 0.934
-1.785 -0.556 0.656
-1.785 -0.482 0.377
-1.785 -0.278 0.174
-1.785 0.278 0.174
-1.785 0.482 0.377
-1.847 0.281 0.656
-1.847 0.141 0.899
-1.847 -0.141 0.899
-1.847 -0.281 0.656
-1.847 -0.141 0.412
-1.847 0.141 0.412
-1.868 0.0 0.656
1.312 0.277 -1.217
1.185 0.404 -1.437
1.185 0.619 -1.257
1.185 -0.14 -1.533
1.015 -0.346 -1.712
1.015 -0.071 -1.769
1.185 0.14 -1.533
1.015 0.21 -1.75
1.015 0.476 -1.655
1.015 0.706 -1.493
1.015 0.884 -1.275
1.015 -0.949 -1.149
0.805 -1.151 -1.156
0.805 -1.023 -1.41
1.015 -0.802 -1.39
0.805 -0.841 -1.628
1.015 -0.596 -1.582
0.805 -0.612 -1.798
0.805 -0.351 -1.911
0.805 -0.071 -1.96
0.805 0.213 -1.944
0.805 0.485 -1.862
0.805 0.731 -1.72
[...]
CELL_DATA 1402
SCALARS cell_data_0 double
LOOKUP_TABLE default
3.26409326936e-07
2.10411969897e-06
9.25521636821e-08
2.61421022908e-07
2.22129045125e-06
1.47635832133e-06
2.11839343986e-06
2.232626596e-07
3.64014563318e-08
1.41288435011e-08
1.43938498512e-07
2.16028338546e-08
2.09228466773e-07
4.19160496546e-08
2.91703730886e-08
2.0941408814e-07
1.75082547558e-07
2.13903714457e-07
2.08142548592e-08
4.33482430356e-10
3.47208855237e-09
8.78645799326e-09
8.44776795974e-09
9.0251385169e-10
4.42376350611e-09
1.9526403411e-09
4.08818430754e-09
4.29427983458e-09
6.59951572494e-09
5.66105617215e-10
2.30621717871e-09
7.93016715321e-09
7.68029524777e-09
1.16940433906e-09
5.40552158388e-10
1.12960048276e-08
8.64590226355e-09
3.36550099281e-09
7.68201368868e-10
1.42977642272e-08
9.1900522423e-09
7.11287592389e-10
5.35673790988e-09
1.61544140193e-08
8.60196530221e-09
2.55748601902e-10
1.12244441329e-09
1.80019887032e-08
1.06227945256e-08
3.06356586053e-09
5.91679137389e-09
2.05622672894e-08
1.0976511817e-08
2.60797707341e-09
5.27040134311e-09
2.27658490627e-08
1.04808657032e-08
3.83330319097e-09
1.03749314558e-09
2.39586994272e-08
7.18545497126e-09
4.28669348416e-09
7.66899818117e-09
2.44083711334e-08
4.96018824943e-09
9.06888835976e-11
3.92140928327e-09
2.16798332152e-08
1.32954290131e-08
1.9258607539e-09
1.98334460582e-07
3.37146391936e-07
1.37029119821e-07
5.88044856912e-07
4.88893129086e-07
3.02068965723e-08
5.81803486601e-07
4.6661954576e-07
3.88446780856e-08
1.4370031847e-07
3.16165311643e-07
1.19111053047e-07
1.26425423088e-07
2.347771156e-09
2.62424292124e-08
9.986765762e-09
2.11769528399e-09
4.00122588001e-09
2.60208153588e-08
1.11555105003e-08
1.64877029518e-09
2.02154325004e-09
2.5305147186e-08
1.18210418301e-08
2.58668258778e-09
9.04093744281e-10
2.39777094955e-08
1.21548014533e-08
2.9456518309e-09
2.43758215967e-10
2.2129174651e-08
1.24600566447e-08
3.48934793893e-09
1.47432817521e-10
2.01466261759e-08
1.25214231489e-08
3.82809890763e-09
9.10009155343e-10
1.73157628064e-08
1.15063180584e-08
4.2106388691e-09
2.48469977465e-09
1.42406146665e-08
1.12326324953e-08
4.70298714843e-09
4.91666508066e-09
9.50356364615e-09
9.45614426576e-09
5.43739907689e-09
8.68796223641e-09
3.77830121063e-09
8.53032820916e-09
5.832065931e-09
1.75659580613e-08
1.60501438649e-10
8.92760023905e-09
5.3243031896e-09
4.3203368353e-08
3.32141135737e-09
1.40522299057e-08
1.83056176473e-08
8.31613404707e-08
2.53395276548e-08
1.80651633563e-08
3.8148302298e-08
1.80617531938e-07
5.89716449641e-08
2.11603979252e-08
2.27837079263e-07
1.14605381356e-06
2.13734220662e-10
9.48396300288e-11
1.37316579374e-10
6.42748232511e-11
1.15621751693e-10
1.19205006004e-10
3.64702603073e-10
7.46459539155e-11
1.53367356678e-11
5.53715784387e-10
3.08110405709e-10
5.13084482544e-10
6.99232131643e-10
4.25540810037e-09
7.93273816688e-09
5.10980322211e-09
7.15858485896e-09
1.32661714488e-10
3.53905551175e-09
7.88646076577e-09
8.75085092236e-09
4.57121971564e-09
4.71804562709e-09
9.34523297832e-10
2.03411305623e-10
1.76593006944e-09
1.00397986303e-09
1.10298180074e-09
4.67453669639e-10
3.4832008991e-10
5.78050226567e-10
1.11559427765e-09
1.40975126877e-09
1.93470093305e-09
4.42585506304e-10
3.76858369953e-10
4.6627688864e-09
5.44697703964e-09
9.41832803089e-09
1.28700101241e-08
1.68557057259e-08
1.55132246408e-08
2.05665140345e-08
1.37325320807e-08
1.44875947361e-09
9.24659471975e-09
1.60648390064e-08
1.80682244356e-08
1.78869067385e-08
1.58842791908e-08
1.06466107412e-08
7.68668010069e-09
4.0637819454e-09
6.60535920055e-10
1.80009587177e-09
3.44851507714e-09
3.1407931921e-09
3.3984351952e-09
2.30815684719e-09
2.2946687481e-09
1.49859770115e-09
5.37030745682e-10
3.14022614691e-11
1.14978887588e-09
1.46730262434e-09
2.3253984589e-09
2.89746253974e-09
3.51092256495e-09
3.34550527054e-09
3.31794646098e-09
2.0648086707e-09
1.48916301441e-09
1.82896422542e-09
2.02380016502e-09
4.64928195204e-09
8.7811153204e-09
1.17071355383e-08
1.95613772246e-08
1.37994681481e-08
1.69962755862e-08
1.95005132199e-08
1.34984933822e-08
1.13209887791e-08
6.15037066305e-09
3.84009832512e-09
1.04911646609e-09
1.42729892084e-09
4.06878276155e-09
5.24760778116e-09
4.85078537175e-09
5.31396415042e-09
4.73367594574e-09
4.48456321405e-09
3.42488789805e-09
3.10174570078e-09
1.79181313141e-09
1.4296990099e-09
4.64975035722e-10
4.05801453566e-10
1.16570669736e-09
1.93162672529e-09
2.58453444946e-09
3.43923352693e-09
3.98328227667e-09
4.36124912376e-09
5.02444969442e-09
4.67845115886e-09
5.42192853738e-09
5.06295723829e-09
3.81198181728e-09
3.3208292837e-09
1.00247563479e-09
2.22546522395e-10
3.03845860478e-09
3.54526610985e-09
9.25292674769e-09
7.71494168377e-09
1.19708439748e-08
7.18182109075e-09
4.94578213861e-09
1.47625792416e-09
1.67751671055e-10
2.18727000702e-09
4.0530401607e-09
6.64931431112e-09
7.64880095617e-09
7.01118334203e-09
7.13812736257e-09
6.41691391767e-09
6.33326966395e-09
5.50795542388e-09
4.94998272242e-09
3.86804687182e-09
3.33840622436e-09
2.2732854314e-09
1.87353268708e-09
6.02524098666e-10
9.69070071526e-11
1.23861311114e-09
1.72375266038e-09
2.71471620323e-09
3.32911605772e-09
4.23152134186e-09
4.78137626086e-09
5.55672014101e-09
6.01677979169e-09
6.68550752214e-09
6.58159191788e-09
7.11563469894e-09
6.34213556633e-09
6.78856412951e-09
5.03202355894e-09
5.24402539215e-09
2.32282278602e-09
2.53965708699e-09
6.79091803239e-10
1.63056854424e-09
1.00306212648e-09
2.4995147751e-09
4.34073265387e-09
1.06015344052e-09
3.45371709995e-10
2.99955159909e-09
3.89944275936e-09
5.66414814801e-09
6.84284575176e-09
9.28986078845e-09
9.55923172565e-09
9.15087420633e-09
8.90363255783e-09
8.28470285922e-09
7.72304708064e-09
7.08254261694e-09
6.46108179617e-09
5.59688208458e-09
4.98165876066e-09
3.94280066132e-09
3.28932562855e-09
2.26564204291e-09
1.66916474099e-09
6.40038653426e-10
5.16260796426e-12
1.14195312027e-09
1.66478479717e-09
2.5699129241e-09
3.28328340247e-09
4.06400251648e-09
4.92639074086e-09
5.46304322436e-09
6.28844335054e-09
6.79153517052e-09
7.50191088003e-09
8.04772590825e-09
8.29489104039e-09
8.73224958605e-09
8.32316644646e-09
8.54070011993e-09
7.09732686971e-09
7.16859803004e-09
5.60915781448e-09
3.92290543404e-09
1.93445019055e-09
6.33945276413e-10
6.0880204131e-10
4.06414844357e-10
1.40342653092e-09
3.48496052979e-09
4.90708584352e-09
6.83036872221e-09
7.46284993567e-09
8.57417619115e-09
9.40985937005e-09
1.13902448908e-08
1.14721317513e-08
1.08868081043e-08
1.05192686152e-08
9.8016066403e-09
9.23072283359e-09
8.39299074316e-09
7.69429512553e-09
6.91551483188e-09
6.19424340531e-09
5.4300944284e-09
4.6337865413e-09
3.69636448118e-09
2.96505872923e-09
2.13136446414e-09
1.47819333558e-09
4.94926692983e-10
1.20348412034e-10
1.14834666172e-09
1.79868328238e-09
2.67356645013e-09
3.27435473561e-09
4.24095115524e-09
5.05477786366e-09
6.03439304903e-09
6.45441443195e-09
7.30047511469e-09
7.7859050136e-09
8.706966692e-09
9.0841968501e-09
9.71824286254e-09
9.79084618979e-09
1.00850242412e-08
9.86232474989e-09
9.76882942219e-09
8.70462452688e-09
7.7292010621e-09
5.81176491069e-09
3.58355795673e-09
1.34097558987e-09
4.04023881687e-10
3.27266196419e-11
7.90451467624e-09
9.46778045941e-09
1.00601515364e-08
1.11882946531e-08
1.1551788777e-08
1.32515796077e-08
1.33307168112e-08
1.25570158911e-08
1.20820296454e-08
1.12808375367e-08
1.07082896079e-08
9.76782691911e-09
8.90816884754e-09
8.02904545633e-09
7.23590729404e-09
6.42111882555e-09
5.58333755595e-09
4.67430821765e-09
3.72532275916e-09
3.03545516239e-09
2.11882724601e-09
1.5021544179e-09
3.82314325437e-10
2.40302257298e-10
1.25761050187e-09
1.75796814372e-09
2.87071822199e-09
3.4332268372e-09
4.49454408934e-09
4.92131432442e-09
6.11493416631e-09
6.48382143062e-09
7.81740300627e-09
8.05128020646e-09
9.38111688323e-09
9.54224934135e-09
1.07582657365e-08
1.06750526076e-08
1.16709701867e-08
1.11708256236e-08
1.18050920061e-08
1.08356424714e-08
1.04210855079e-08
8.44955709996e-09
5.83876906273e-09
2.89590440858e-09
4.1832356475e-09
3.48885683148e-09
1.84497745002e-09
9.58595657338e-09
1.17983325023e-08
1.26538188353e-08
1.40004798037e-08
1.39912784053e-08
1.54519176813e-08
1.53073565257e-08
1.45005781833e-08
1.40079337047e-08
1.29819477588e-08
1.21537769633e-08
1.11162997553e-08
1.01366371177e-08
9.26816590197e-09
8.2947269518e-09
7.43915098802e-09
6.47263717612e-09
5.61678482277e-09
4.50812606515e-09
3.71671246356e-09
2.75906709431e-09
2.00710938673e-09
1.12111684654e-09
2.0057400133e-10
7.51801421777e-10
1.56227981294e-09
2.4120075066e-09
3.1866645232e-09
4.24049612771e-09
4.9663428017e-09
5.90378680117e-09
6.64092426566e-09
7.68707812842e-09
8.47853313378e-09
9.40518781459e-09
1.01055755765e-08
1.0986288052e-08
1.15210766119e-08
1.2363086242e-08
1.2595766295e-08
1.30055951167e-08
1.26413776793e-08
1.22633762548e-08
1.10207649284e-08
8.62989165163e-09
5.34734775464e-09
1.22121052401e-09
7.84511807702e-09
7.6469468162e-09
1.51975897648e-09
1.0575297208e-08
1.28996566462e-08
1.47856883407e-08
1.5911801558e-08
1.61472182311e-08
1.7348061085e-08
1.68314053838e-08
1.62967627345e-08
1.52840307255e-08
1.46515522222e-08
1.31521846247e-08
1.24293340224e-08
1.0947026448e-08
1.03563719958e-08
8.91605600619e-09
8.2907389826e-09
6.81260126715e-09
6.23175505583e-09
4.85722916531e-09
4.27604023408e-09
2.92409515372e-09
2.40010595886e-09
1.09314876614e-09
6.48905632966e-10
6.19042891292e-10
1.21877214524e-09
2.61119149342e-09
3.07899581635e-09
4.41591323549e-09
4.93577796072e-09
6.39143419026e-09
6.84302712637e-09
7.86753914812e-09
8.88174206142e-09
1.0008347856e-08
1.03695139345e-08
1.17816964206e-08
1.20703383085e-08
1.32555287332e-08
1.33579600979e-08
1.39359175007e-08
1.37359831286e-08
1.30928598241e-08
1.22613654194e-08
8.6251381591e-09
6.40976708637e-09
3.13400810135e-09
7.57208023565e-09
9.80159901343e-09
4.67724945098e-09
9.6782007944e-09
1.30146172347e-08
1.60923677176e-08
1.71014547195e-08
1.76206044359e-08
1.10750597218e-08
5.49215084048e-09
1.0843092943e-08
5.21456084308e-09
9.87867384951e-09
4.64103995099e-09
8.57112675312e-09
3.91453209277e-09
7.19471979554e-09
3.30183250928e-09
5.89802908055e-09
2.58238748845e-09
4.47956485702e-09
1.82805156666e-09
3.22281088937e-09
1.28276594278e-09
2.03156155589e-09
6.43336196006e-10
7.53198752799e-10
3.80315277526e-11
4.58644281696e-10
6.67979732353e-10
1.70672334149e-09
1.28150397485e-09
2.98230667302e-09
1.90864005265e-09
4.30181144103e-09
2.67856945419e-09
5.67019836571e-09
3.26184090307e-09
6.85843896053e-09
3.91876087882e-09
8.12703328602e-09
4.54410268752e-09
9.21554778996e-09
5.03559899661e-09
9.78044819899e-09
5.12776594313e-09
9.19087488308e-09
4.61120807401e-09
6.14203467692e-09
2.31158997645e-09
2.10976085693e-09
3.13174425599e-09
4.998635144e-09
1.42506993209e-10
5.30885267998e-09
4.35128671189e-09
1.05986958342e-08
6.00443089141e-10
5.8600796173e-10
4.07991335648e-10
3.5064370885e-10
2.14444987255e-10
2.14909476594e-10
1.40667270625e-10
1.20488459701e-10
9.60351846972e-11
5.27483224075e-11
4.1931316639e-11
3.22583800919e-13
9.53177426604e-13
6.80113481005e-12
4.37302509817e-11
1.1307118405e-12
3.02988370092e-11
1.93114106179e-11
2.06374608213e-11
3.58724737493e-12
3.01217684089e-12
7.4917616941e-12
2.04912980211e-11
2.84003461758e-11
1.58966379002e-11
3.35969882631e-11
1.09324292125e-11
5.45345727137e-12
4.99099826275e-11
1.94414905936e-11
3.10853363921e-11
5.79106573046e-12
4.0085544017e-11
3.69489825553e-11
8.07404066157e-11
9.54737659534e-11
1.3093716729e-10
1.59866794502e-10
1.94603685557e-10
3.71641216739e-10
4.33941874593e-10
7.64626037038e-10
8.70118321296e-10
2.07741184675e-09
1.9772968794e-09
1.03870631898e-09
9.08710873562e-10
5.20789188313e-10
6.83355347888e-10
6.48372402772e-10
4.23914038754e-10
3.82105368455e-10
2.52691540273e-10
2.11184623109e-10
2.27520315858e-10
9.95580397987e-11
1.48296282886e-10
6.49690323811e-11
1.44046252987e-10
4.42590139976e-11
1.64262482381e-10
1.03874783811e-11
1.25572251382e-10
8.34570470554e-12
1.56834803349e-10
3.2284857105e-12
1.17046430505e-10
4.35322861478e-11
1.00338323262e-10
1.69847220065e-11
6.5983925297e-11
3.71409762191e-11
2.50861319545e-11
9.80467069488e-11
8.1818951646e-11
1.1326399975e-10
7.03594625055e-11
1.31741353631e-10
1.82646325474e-11
1.57149559405e-10
1.15506062033e-10
1.83788540472e-10
1.91897984151e-10
2.14045844793e-10
3.87152707821e-10
3.93621157322e-10
6.86015276358e-10
6.85670130767e-10
1.09611001454e-09
1.85903888583e-09
2.49126512762e-09
1.15166990443e-09
1.14724530971e-09
5.2416083907e-10
7.24168576736e-10
6.48889934503e-10
4.33676104159e-10
3.80605902377e-10
2.47720300996e-10
2.10486761422e-10
1.961982774e-10
7.68258562402e-11
1.57049992124e-10
6.27844387983e-11
1.25028457327e-10
7.18514498221e-12
1.10254524987e-10
4.85927596794e-12
1.41202307351e-10
4.80517891391e-12
9.13618797088e-11
3.16383092215e-11
4.01539890655e-11
1.49535059268e-10
4.67044512993e-11
2.08402358617e-10
7.20807370516e-11
2.50045131761e-10
1.53634560336e-11
1.42797619306e-10
5.57388041214e-11
1.5981799688e-10
1.72282750254e-10
1.93447736432e-10
2.97248654459e-10
2.65749341248e-10
5.12015044002e-10
5.56065179953e-10
9.45503440135e-10
1.09137831865e-09
7.53267337961e-10
2.2249295669e-09
2.94475382536e-09
1.70762040239e-09
1.24140892204e-09
6.77214096226e-10
9.3129992435e-10
8.11681865445e-10
5.10697820444e-10
4.57191662263e-10
3.16001773801e-10
2.82196637573e-10
2.20720707729e-10
1.60196615015e-10
1.64469654779e-10
7.78625902114e-11
1.63936685113e-10
2.66555591324e-11
1.68736061307e-10
2.81450363161e-11
2.22937979279e-10
1.67183228632e-10
8.7468796079e-12
1.66321563578e-10
6.45994633843e-12
1.49825269263e-10
7.47319479456e-11
1.5659586436e-10
1.58950817009e-10
2.20842244211e-10
2.56054085185e-10
2.43116160381e-10
2.8912662386e-10
3.52008037238e-10
4.87962435204e-10
6.63029555091e-10
9.2497908652e-10
1.25402315059e-09
1.01167722498e-09
2.70919198407e-09
3.10186126142e-09
2.22269785925e-09
1.42042070873e-09
7.05548210964e-10
9.77151659129e-10
8.05042236002e-10
5.17461545033e-10
4.54547252244e-10
3.15665166308e-10
2.77887272833e-10
2.38936520476e-10
1.33067654863e-10
1.93740792225e-10
1.11862186543e-10
2.10198061398e-10
1.98209234013e-10
1.21954899146e-10
2.21547638833e-10
1.18035260256e-10
2.36680107355e-10
1.47151680169e-10
1.67074322531e-10
1.52383885965e-10
2.43905825769e-10
3.42973758897e-10
3.25879714337e-10
3.02725591682e-10
4.62404177524e-10
3.73119026013e-10
7.63150460066e-10
6.81147733422e-10
8.33146173751e-10
1.76124966097e-09
2.35841957536e-09
3.03996419425e-09
2.46452362824e-09
1.62849775779e-09
8.89321554628e-10
1.03448280356e-09
9.1238057888e-10
5.09232221184e-10
5.10520426902e-10
2.89507426331e-10
3.17954261192e-10
2.40725458768e-10
2.01734680695e-10
2.69122375201e-10
3.4758747262e-10
2.62251958849e-10
3.00205673053e-10
2.10257847663e-10
2.43169584699e-10
3.38091292158e-10
3.27004818793e-10
3.29868109051e-10
5.06911761498e-10
4.86265758833e-10
9.27439292785e-10
1.06544995502e-09
8.4461806055e-10
1.61451740498e-09
2.7527426478e-09
3.58359902525e-09
3.75268964007e-09
2.70692169971e-09
1.70971842598e-09
1.07875325138e-09
1.15478003468e-09
1.03408192463e-09
4.53110979146e-10
5.20049436733e-10
3.99790953746e-10
3.93599393243e-10
4.74911342451e-10
4.42863292674e-10
4.9075212616e-10
3.73943256725e-10
3.28243768966e-10
5.47268492348e-10
4.60444415111e-10
9.96158049835e-10
1.14877708251e-09
1.32718868148e-09
1.86952981345e-09
3.48938883568e-09
2.15329962286e-09
2.91770594363e-09
3.83431507359e-09
1.73921116774e-09
1.31526228776e-09
1.09275833352e-09
1.05913564963e-09
3.93967537203e-10
5.98884124014e-10
9.0584236869e-10
5.78427190752e-10
4.37303849514e-10
1.14973176283e-09
1.09621314562e-09
1.50890502674e-09
1.46738184604e-09
3.62252862418e-09
3.86221775474e-09
1.35234322219e-09
1.46538624649e-09
6.92949092738e-10
7.25740486494e-10
7.34049543157e-10
1.15087935521e-09
1.82344771581e-09
1.13201596668e-09
1.2225282441e-08
1.93390504247e-08
1.18954476435e-08
6.64335141816e-11
3.47322850067e-09
1.36445651329e-09
4.10581261191e-10
1.51412002255e-09
9.56385741915e-10
7.75089609983e-09
6.71148633382e-09
9.61478343984e-09
6.69306663049e-09
9.15790364105e-09
9.26458268637e-09
4.58710902072e-09
2.62679087752e-09
8.44806393343e-09
1.09968578499e-08
5.26114321708e-09
7.13016472125e-09
6.9032273734e-09
1.66500449106e-09
1.00974911239e-09
2.13555406531e-09
6.25707997776e-09
2.29132119635e-09
2.85733744827e-09
5.46484657074e-10
5.491159921e-09
4.02801658361e-09
1.70903173919e-09
4.31187898886e-09
7.35839902913e-09
7.66191072047e-10
1.30874736253e-08
2.33768554677e-07
1.94696212155e-07
1.37559200646e-07
4.65793033926e-09
1.00429919728e-08
1.24591344035e-08
8.91484535643e-09
1.78563174501e-08
4.68978659525e-09
7.4830325267e-09
5.35135166272e-10
1.40768047402e-09
1.21621221771e-09
6.85014598227e-10
7.01833990097e-10
1.9648193509e-09
5.26471184216e-09
2.27547617347e-09
4.71868797207e-09
2.20938264467e-10
2.86963051799e-09
2.4474691513e-09
8.69718821162e-11
5.76695529282e-09
6.44782525354e-11
3.58549069379e-09
5.05318462697e-09
1.65119950402e-09
1.10678522641e-09
2.22708489345e-09
1.88693217392e-10
1.65169980025e-09
8.43575365238e-12
1.63872402778e-09
8.08386435058e-08
8.67555719756e-08
1.9310250016e-07
1.97655254079e-07
1.19454308615e-07
9.67291034429e-08
2.25041076094e-06
2.73534928015e-06
3.0759711807e-06
2.33291221416e-06
2.05292831617e-06
1.13227525919e-06
2.22743178304e-08
4.23983532256e-07
2.23001093093e-06
1.08739710775e-06
1.04806918778e-06
2.39615596674e-07
4.53613483067e-08
8.06044960584e-07
7.12521986149e-07
7.58476459047e-07
8.56221089223e-07
5.07116067977e-07
1.04918258567e-06
3.53556128978e-07
7.73729623178e-07
1.47697371852e-07
5.65747315577e-07
2.32444798945e-08
1.10272934196e-07
1.58885719149e-08
1.07901051208e-06
1.87588024722e-06
1.1032603869e-06
1.56638126071e-06
6.81753006154e-07
6.78493944274e-07
1.59705928576e-07
8.01757932017e-08
9.90491554543e-08
3.09391105358e-07
3.10591489667e-08
9.82240068348e-08
1.16803990167e-08
2.04413108207e-07
3.18957796103e-07
4.67830341432e-07
6.57168223044e-07
5.72452850848e-07
4.54061701746e-07
4.19345753812e-07
1.60445762215e-07
1.69686228747e-07
4.81233468206e-08
4.45679792991e-08
2.89912143273e-08
2.79426155438e-07
7.88897320494e-08
2.69295978123e-07
7.8067551396e-08
1.57827824749e-07
2.99596413418e-08
3.78291884468e-08
1.37932679858e-08
2.1317190378e-08
7.11380183209e-08
1.27836330443e-07
1.91316750709e-07
2.97030278083e-07
3.29993892239e-07
2.99425519888e-07
2.8790556483e-07
3.32636207631e-07
4.21664768739e-07
5.33996704622e-07
5.8236327086e-07
5.96263002972e-07
5.00976064742e-07
3.43862626911e-07
2.9064922356e-07
1.40190207812e-07
1.22406480157e-07
1.92110239125e-07
1.71605177974e-07
1.78630536421e-07
1.33256468379e-07
1.43582357077e-07
9.37761501879e-08
1.01794965119e-07
5.74776868531e-08
5.04184312906e-08
9.56469211734e-09
1.86985741384e-08
6.50156824235e-08
1.06735701661e-07
1.60126930639e-07
2.00099944796e-07
2.60774215307e-07
2.78292390268e-07
3.31582200307e-07
3.24118948212e-07
3.59079497038e-07
3.14179882718e-07
4.15509570044e-07
4.38913397607e-07
4.99213803684e-07
4.17431187382e-07
3.49328215367e-07
2.90135526659e-07
2.04416340174e-07
1.75388948413e-07
1.57675910276e-07
1.86139969034e-07
1.75656355958e-07
1.87660778794e-07
1.63258747198e-07
1.6294903674e-07
1.28450962524e-07
1.18971318918e-07
7.45289605797e-08
5.83686744322e-08
8.55825388294e-09
1.48178056343e-08
6.73697633583e-08
9.84473614271e-08
1.40329473583e-07
1.73731291412e-07
1.94989035666e-07
2.26982262996e-07
2.53151111459e-07
2.32892510079e-07
2.14308712394e-07
2.28886320944e-07
2.42858995773e-07
3.38562532247e-07
3.4638902149e-07
3.48124291928e-07
2.72784161559e-07
2.63655327767e-07
2.04590629064e-07
1.85259334689e-07
1.17607693442e-07
1.1257589719e-07
1.40398008691e-07
1.20668322845e-07
1.31902047101e-07
1.04077327906e-07
1.01099851169e-07
6.69930475568e-08
5.18228388482e-08
1.60269552758e-08
7.5863987514e-09
3.98796099279e-08
7.05035553032e-08
9.21810750275e-08
1.24405383315e-07
1.28207576762e-07
1.5836663644e-07
1.39865018594e-07
1.64720463535e-07
1.18971532007e-07
1.31527870762e-07
1.26401317894e-07
2.21119536753e-07
2.40615021518e-07