# vtk DataFile Version 3.0
File Name: Molecule/methanol/methanol_6.25-4.vtk
ASCII
DATASET UNSTRUCTURED_GRID
FIELD FieldData 1
TIME 1 1 double
0.0
POINTS 308 double
1.351 -0.397 -0.928
1.386 -0.842 -0.336
1.198 -0.767 -0.912
1.12 -1.191 -0.31
0.956 -1.085 -0.888
0.773 -1.459 -0.275
0.639 -1.329 -0.857
0.368 -1.627 -0.235
0.271 -1.482 -0.82
-0.065 -1.684 -0.192
-0.124 -1.534 -0.781
-0.499 -1.627 -0.149
-0.519 -1.482 -0.741
-0.903 -1.459 -0.108
-0.887 -1.329 -0.705
-1.251 -1.191 -0.074
-1.204 -1.085 -0.673
-1.517 -0.842 -0.047
-1.446 -0.767 -0.649
-1.684 -0.436 -0.031
-1.599 -0.397 -0.634
-1.742 0.0 -0.025
-1.651 0.0 -0.629
-1.684 0.436 -0.031
-1.599 0.397 -0.634
-1.517 0.842 -0.047
-1.446 0.767 -0.649
-1.251 1.191 -0.074
-1.204 1.085 -0.673
-0.903 1.459 -0.108
-0.887 1.329 -0.705
-0.499 1.627 -0.149
-0.519 1.482 -0.741
-0.065 1.684 -0.192
-0.124 1.534 -0.781
0.368 1.627 -0.235
0.271 1.482 -0.82
0.773 1.459 -0.275
0.639 1.329 -0.857
1.12 1.191 -0.31
0.956 1.085 -0.888
1.386 0.842 -0.336
1.198 0.767 -0.912
1.554 0.436 -0.353
1.351 0.397 -0.928
1.907 0.0 0.656
1.859 0.42 0.656
1.859 0.21 1.019
1.859 -0.21 1.019
1.859 -0.42 0.656
1.859 -0.21 0.292
1.859 0.21 0.292
1.72 0.709 1.065
1.72 0.409 1.365
1.72 -0.0 1.475
1.72 -0.409 1.365
1.72 -0.709 1.065
1.72 -0.819 0.656
1.72 -0.709 0.246
1.72 -0.409 -0.054
1.72 -0.0 -0.163
1.72 0.409 -0.054
1.72 0.709 0.246
1.72 0.819 0.656
1.495 1.106 1.058
1.495 0.902 1.412
1.495 0.588 1.675
1.495 0.204 1.815
1.495 -0.204 1.815
1.495 -0.588 1.675
1.495 -0.902 1.412
1.495 -1.106 1.058
1.495 -1.177 0.656
1.495 -1.106 0.253
1.495 -0.902 -0.101
1.495 0.902 -0.101
1.495 1.106 0.253
1.495 1.177 0.656
1.196 1.416 1.071
1.196 1.241 1.453
1.196 0.966 1.771
1.196 0.613 1.998
1.196 0.21 2.116
1.196 -0.21 2.116
1.196 -0.613 1.998
1.196 -0.966 1.771
1.196 -1.241 1.453
1.196 -1.416 1.071
1.196 -1.476 0.656
1.196 -1.416 0.24
1.196 1.416 0.24
1.196 1.476 0.656
0.838 1.651 1.063
0.838 1.506 1.446
0.838 1.273 1.783
0.838 0.966 2.055
0.838 0.603 2.246
0.838 0.205 2.344
0.838 -0.205 2.344
0.838 -0.603 2.246
0.838 -0.966 2.055
0.838 -1.273 1.783
0.838 -1.506 1.446
0.838 -1.651 1.063
0.838 -1.701 0.656
0.838 -1.651 0.249
0.838 1.651 0.249
0.838 1.701 0.656
0.439 1.794 1.065
0.439 1.658 1.454
0.439 1.439 1.803
0.439 1.147 2.094
0.439 0.798 2.314
0.439 0.409 2.45
0.439 0.0 2.496
0.439 -0.409 2.45
0.439 -0.798 2.314
0.439 -1.147 2.094
0.439 -1.439 1.803
0.439 -1.658 1.454
0.439 -1.794 1.065
0.439 -1.84 0.656
0.439 -1.794 0.246
0.439 1.794 0.246
0.439 1.84 0.656
0.019 1.843 1.061
0.019 1.713 1.448
0.019 1.503 1.798
0.019 1.222 2.094
0.019 0.884 2.323
0.019 0.505 2.474
0.019 0.102 2.54
0.019 -0.305 2.518
0.019 -0.699 2.409
0.019 -1.059 2.218
0.019 -1.37 1.954
0.019 -1.617 1.629
0.019 -1.789 1.258
0.019 -1.876 0.86
0.019 -1.876 0.452
0.019 -1.789 0.053
0.019 1.843 0.25
0.019 1.888 0.656
-0.401 1.84 0.656
-0.401 1.794 1.065
-0.401 1.658 1.454
-0.401 1.439 1.803
-0.401 1.147 2.094
-0.401 0.798 2.314
-0.401 0.409 2.45
-0.401 0.0 2.496
-0.401 -0.409 2.45
-0.401 -0.798 2.314
-0.401 -1.147 2.094
-0.401 -1.439 1.803
-0.401 -1.658 1.454
-0.401 -1.794 1.065
-0.401 -1.84 0.656
-0.401 -1.794 0.246
-0.401 1.794 0.246
-0.8 1.701 0.656
-0.8 1.651 1.063
-0.8 1.506 1.446
-0.8 1.273 1.783
-0.8 0.966 2.055
-0.8 0.603 2.246
-0.8 0.205 2.344
-0.8 -0.205 2.344
-0.8 -0.603 2.246
-0.8 -0.966 2.055
-0.8 -1.273 1.783
-0.8 -1.506 1.446
-0.8 -1.651 1.063
-0.8 -1.701 0.656
-0.8 -1.651 0.249
-0.8 1.651 0.249
-1.158 1.476 0.656
-1.158 1.416 1.071
-1.158 1.241 1.453
-1.158 0.966 1.771
-1.158 0.613 1.998
-1.158 0.21 2.116
-1.158 -0.21 2.116
-1.158 -0.613 1.998
-1.158 -0.966 1.771
-1.158 -1.241 1.453
-1.158 -1.416 1.071
-1.158 -1.476 0.656
-1.158 -1.416 0.24
-1.158 1.416 0.24
-1.457 1.177 0.656
-1.457 1.106 1.058
-1.457 0.902 1.412
-1.457 0.588 1.675
-1.457 0.204 1.815
-1.457 -0.204 1.815
-1.457 -0.588 1.675
-1.457 -0.902 1.412
-1.457 -1.106 1.058
-1.457 -1.177 0.656
-1.457 -1.106 0.253
-1.457 1.106 0.253
-1.682 0.819 0.656
-1.682 0.709 1.065
-1.682 0.409 1.365
-1.682 -0.0 1.475
-1.682 -0.409 1.365
-1.682 -0.709 1.065
-1.682 -0.819 0.656
-1.682 -0.709 0.246
-1.682 0.709 0.246
-1.821 0.42 0.656
-1.821 0.21 1.019
-1.821 -0.21 1.019
-1.821 -0.42 0.656
-1.821 -0.21 0.292
-1.821 0.21 0.292
-1.868 -0.0 0.656
1.554 -0.436 -0.353
1.611 0.0 -0.359
1.21 -0.665 -1.121
0.966 -1.003 -1.153
0.966 -0.768 -1.505
1.21 -0.384 -1.402
0.966 -0.415 -1.74
1.21 -0.0 -1.505
0.966 0.0 -1.823
0.966 0.415 -1.74
1.21 0.384 -1.402
0.966 0.768 -1.505
1.21 0.665 -1.121
0.966 1.003 -1.153
0.648 -1.264 -1.148
0.648 -1.075 -1.519
0.648 -0.781 -1.813
0.648 -0.411 -2.001
0.648 0.0 -2.067
0.648 0.411 -2.001
0.648 0.781 -1.813
0.648 1.075 -1.519
0.648 1.264 -1.148
0.278 -1.36 -1.328
0.278 -1.15 -1.673
0.278 -0.855 -1.949
0.278 -0.497 -2.134
0.278 -0.101 -2.216
0.278 0.302 -2.189
0.278 0.682 -2.054
0.278 1.012 -1.821
0.278 1.267 -1.508
0.278 1.428 -1.137
-0.12 -1.483 -1.134
-0.12 -1.329 -1.505
-0.12 -1.085 -1.823
-0.12 -0.768 -2.067
-0.12 -0.397 -2.22
-0.12 -0.0 -2.272
-0.12 0.397 -2.22
-0.12 0.767 -2.067
-0.12 1.085 -1.823
-0.12 1.329 -1.505
-0.12 1.483 -1.134
-0.517 -1.36 -1.328
-0.517 -1.15 -1.673
-0.517 -0.855 -1.949
-0.517 -0.497 -2.134
-0.517 -0.101 -2.216
-0.517 0.302 -2.189
-0.517 0.682 -2.054
-0.517 1.012 -1.821
-0.517 1.267 -1.508
-0.517 1.428 -1.137
-0.887 -1.264 -1.148
-0.887 -1.075 -1.519
-0.887 -0.781 -1.813
-0.887 -0.411 -2.001
-0.887 0.0 -2.067
-0.887 0.411 -2.001
-0.887 0.781 -1.813
-0.887 1.075 -1.519
-0.887 1.264 -1.148
-1.205 -1.003 -1.153
-1.205 -0.768 -1.505
-1.205 -0.415 -1.74
-1.205 0.0 -1.823
-1.205 0.415 -1.74
-1.205 0.768 -1.505
-1.205 1.003 -1.153
-1.449 -0.665 -1.121
-1.449 -0.384 -1.402
-1.449 -0.0 -1.505
-1.449 0.384 -1.402
-1.449 0.665 -1.121
-1.602 -0.199 -1.081
-1.602 0.199 -1.081
1.403 0.0 -0.933
1.5825 -0.218 -0.356
1.4785 -0.218 -0.643
1.507 0.0 -0.646
1.481 0.1985 -0.6435
1.559 0.0 -0.5025
1.429 0.1985 -0.787
1.455 0.0 -0.7895
1.468 0.09925 -0.7165
1.416 0.09925 -0.86
1.4525 -0.4165 -0.6405
1.51625 -0.327 -0.498
1.41475 -0.3075 -0.7855

CELLS 612 2448
3 0 1 2
3 1 3 2
3 2 3 4
3 3 5 4
3 4 5 6
3 5 7 6
3 6 7 8
3 7 9 8
3 8 9 10
3 9 11 10
3 10 11 12
3 11 13 12
3 12 13 14
3 13 15 14
3 14 15 16
3 15 17 16
3 16 17 18
3 17 19 18
3 18 19 20
3 19 21 20
3 20 21 22
3 21 23 22
3 22 23 24
3 23 25 24
3 24 25 26
3 25 27 26
3 26 27 28
3 27 29 28
3 28 29 30
3 29 31 30
3 30 31 32
3 31 33 32
3 32 33 34
3 33 35 34
3 34 35 36
3 35 37 36
3 36 37 38
3 37 39 38
3 38 39 40
3 39 41 40
3 40 41 42
3 41 43 42
3 42 43 44
3 45 46 47
3 45 47 48
3 45 48 49
3 45 49 50
3 45 50 51
3 45 51 46
3 47 46 52
3 47 52 53
3 47 53 54
3 48 47 54
3 48 54 55
3 48 55 56
3 49 48 56
3 49 56 57
3 49 57 58
3 50 49 58
3 50 58 59
3 50 59 60
3 51 50 60
3 51 60 61
3 51 61 62
3 46 51 62
3 46 62 63
3 46 63 52
3 52 63 64
3 52 64 65
3 53 52 65
3 53 65 66
3 53 66 67
3 54 53 67
3 54 67 68
3 55 54 68
3 55 68 69
3 55 69 70
3 56 55 70
3 56 70 71
3 57 56 71
3 57 71 72
3 57 72 73
3 58 57 73
3 58 73 74
3 59 58 74
3 62 61 75
3 62 75 76
3 63 62 76
3 63 76 77
3 63 77 64
3 64 77 78
3 64 78 79
3 65 64 79
3 65 79 80
3 66 65 80
3 66 80 81
3 67 66 81
3 67 81 82
3 67 82 83
3 68 67 83
3 68 83 84
3 69 68 84
3 69 84 85
3 70 69 85
3 70 85 86
3 71 70 86
3 71 86 87
3 72 71 87
3 72 87 88
3 72 88 89
3 73 72 89
3 77 76 90
3 77 90 91
3 77 91 78
3 78 91 92
3 78 92 93
3 79 78 93
3 79 93 94
3 80 79 94
3 80 94 95
3 81 80 95
3 81 95 96
3 82 81 96
3 82 96 97
3 82 97 98
3 83 82 98
3 83 98 99
3 84 83 99
3 84 99 100
3 85 84 100
3 85 100 101
3 86 85 101
3 86 101 102
3 87 86 102
3 87 102 103
3 88 87 103
3 88 103 104
3 88 104 105
3 89 88 105
3 91 90 106
3 91 106 107
3 91 107 92
3 92 107 108
3 92 108 109
3 93 92 109
3 93 109 110
3 94 93 110
3 94 110 111
3 95 94 111
3 95 111 112
3 96 95 112
3 96 112 113
3 97 96 113
3 97 113 114
3 98 97 114
3 98 114 115
3 99 98 115
3 99 115 116
3 100 99 116
3 100 116 117
3 101 100 117
3 101 117 118
3 102 101 118
3 102 118 119
3 103 102 119
3 103 119 120
3 104 103 120
3 104 120 121
3 104 121 122
3 105 104 122
3 107 106 123
3 107 123 124
3 107 124 108
3 108 124 125
3 108 125 126
3 109 108 126
3 109 126 127
3 110 109 127
3 110 127 128
3 111 110 128
3 111 128 129
3 112 111 129
3 112 129 130
3 113 112 130
3 113 130 131
3 114 113 131
3 114 131 132
3 115 114 132
3 115 132 133
3 116 115 133
3 116 133 134
3 117 116 134
3 117 134 135
3 118 117 135
3 118 135 136
3 119 118 136
3 119 136 137
3 120 119 137
3 120 137 138
3 121 120 138
3 121 138 139
3 122 121 139
3 122 139 140
3 124 123 141
3 124 141 142
3 124 142 125
3 125 142 143
3 125 143 144
3 126 125 144
3 126 144 145
3 127 126 145
3 127 145 146
3 128 127 146
3 128 146 147
3 129 128 147
3 129 147 148
3 130 129 148
3 130 148 149
3 131 130 149
3 131 149 150
3 132 131 150
3 132 150 151
3 133 132 151
3 133 151 152
3 134 133 152
3 134 152 153
3 135 134 153
3 135 153 154
3 136 135 154
3 136 154 155
3 137 136 155
3 137 155 156
3 138 137 156
3 138 156 157
3 139 138 157
3 139 157 158
3 140 139 158
3 143 141 159
3 142 141 143
3 144 143 160
3 144 160 161
3 145 144 161
3 145 161 162
3 146 145 162
3 146 162 163
3 147 146 163
3 147 163 164
3 148 147 164
3 148 164 165
3 149 148 165
3 149 165 166
3 150 149 166
3 150 166 167
3 151 150 167
3 151 167 168
3 152 151 168
3 152 168 169
3 153 152 169
3 153 169 170
3 154 153 170
3 154 170 171
3 155 154 171
3 155 171 172
3 156 155 172
3 156 172 173
3 157 156 173
3 158 157 173
3 158 173 174
3 160 159 175
3 143 159 160
3 161 160 176
3 161 176 177
3 162 161 177
3 162 177 178
3 163 162 178
3 163 178 179
3 164 163 179
3 164 179 180
3 165 164 180
3 165 180 181
3 166 165 181
3 166 181 182
3 167 166 182
3 168 167 182
3 168 182 183
3 169 168 183
3 169 183 184
3 170 169 184
3 170 184 185
3 171 170 185
3 171 185 186
3 172 171 186
3 172 186 187
3 173 172 187
3 174 173 187
3 174 187 188
3 176 175 189
3 160 175 176
3 177 176 190
3 177 190 191
3 178 177 191
3 178 191 192
3 179 178 192
3 179 192 193
3 180 179 193
3 180 193 194
3 181 180 194
3 181 194 195
3 182 181 195
3 183 182 195
3 183 195 196
3 184 183 196
3 184 196 197
3 185 184 197
3 185 197 198
3 186 185 198
3 186 198 199
3 187 186 199
3 188 187 199
3 188 199 200
3 190 189 201
3 176 189 190
3 191 190 202
3 191 202 203
3 192 191 203
3 192 203 204
3 193 192 204
3 194 193 204
3 194 204 205
3 195 194 205
3 195 205 206
3 196 195 206
3 197 196 206
3 197 206 207
3 198 197 207
3 198 207 208
3 199 198 208
3 200 199 208
3 200 208 209
3 202 201 210
3 190 201 202
3 203 202 211
3 203 211 212
3 204 203 212
3 205 204 212
3 205 212 213
3 206 205 213
3 207 206 213
3 207 213 214
3 208 207 214
3 209 208 214
3 209 214 215
3 211 210 216
3 202 210 211
3 212 211 217
3 213 212 217
3 214 213 217
3 215 214 217
3 216 215 217
3 211 216 217
3 216 210 23
3 216 23 21
3 216 21 215
3 215 21 19
3 215 19 209
3 209 19 17
3 209 17 200
3 200 17 15
3 200 15 188
3 188 15 13
3 188 13 174
3 174 13 11
3 174 11 158
3 158 11 9
3 158 9 140
3 140 9 7
3 140 7 122
3 122 7 105
3 105 7 5
3 105 5 89
3 89 5 3
3 89 3 73
3 73 3 74
3 74 3 1
3 74 1 218
3 74 218 59
3 59 218 60
3 60 219 43
3 60 43 61
3 61 43 75
3 75 43 41
3 75 41 39
3 75 39 76
3 76 39 90
3 90 39 37
3 90 37 106
3 106 37 35
3 106 35 123
3 123 35 141
3 141 35 33
3 141 33 159
3 159 33 31
3 159 31 175
3 175 31 29
3 175 29 189
3 189 29 27
3 189 27 201
3 201 27 25
3 201 25 210
3 210 25 23
3 220 221 222
3 223 220 222
3 223 222 224
3 225 223 224
3 225 224 226
3 225 226 227
3 228 225 227
3 228 227 229
3 230 228 229
3 230 229 231
3 221 232 233
3 222 221 233
3 222 233 234
3 224 222 234
3 224 234 235
3 226 224 235
3 226 235 236
3 226 236 237
3 227 226 237
3 227 237 238
3 229 227 238
3 229 238 239
3 231 229 239
3 231 239 240
3 233 232 241
3 233 241 242
3 234 233 242
3 234 242 243
3 234 243 244
3 235 234 244
3 235 244 245
3 236 235 245
3 236 245 246
3 237 236 246
3 237 246 247
3 238 237 247
3 238 247 248
3 239 238 248
3 239 248 249
3 240 239 249
3 240 249 250
3 241 251 252
3 242 241 252
3 242 252 253
3 243 242 253
3 243 253 254
3 244 243 254
3 244 254 255
3 245 244 255
3 245 255 256
3 246 245 256
3 246 256 257
3 247 246 257
3 247 257 258
3 248 247 258
3 248 258 259
3 249 248 259
3 249 259 260
3 250 249 260
3 250 260 261
3 252 251 262
3 252 262 263
3 253 252 263
3 253 263 264
3 254 253 264
3 254 264 265
3 255 254 265
3 255 265 266
3 256 255 266
3 256 266 267
3 257 256 267
3 257 267 268
3 258 257 268
3 258 268 269
3 259 258 269
3 259 269 270
3 260 259 270
3 260 270 271
3 261 260 271
3 262 272 273
3 263 262 273
3 263 273 274
3 264 263 274
3 265 264 274
3 265 274 275
3 266 265 275
3 266 275 276
3 267 266 276
3 267 276 277
3 268 267 277
3 268 277 278
3 269 268 278
3 269 278 279
3 270 269 279
3 270 279 280
3 271 270 280
3 273 272 281
3 273 281 282
3 274 273 282
3 274 282 283
3 275 274 283
3 275 283 284
3 276 275 284
3 277 276 284
3 277 284 285
3 278 277 285
3 278 285 286
3 279 278 286
3 279 286 287
3 280 279 287
3 282 281 288
3 282 288 289
3 283 282 289
3 283 289 290
3 284 283 290
3 285 284 290
3 285 290 291
3 286 285 291
3 286 291 292
3 287 286 292
3 289 288 293
3 290 289 293
3 290 293 294
3 291 290 294
3 292 291 294
3 292 294 24
3 292 24 26
3 292 26 287
3 287 26 28
3 287 28 280
3 280 28 30
3 280 30 271
3 271 30 32
3 271 32 34
3 271 34 261
3 261 34 36
3 261 36 250
3 250 36 38
3 250 38 240
3 240 38 40
3 240 40 231
3 231 40 42
3 231 42 230
3 230 42 44
3 230 44 228
3 228 44 295
3 228 295 225
3 225 295 223
3 223 295 0
3 223 0 220
3 220 0 2
3 220 2 221
3 221 2 4
3 221 4 232
3 232 4 6
3 232 6 8
3 232 8 241
3 241 8 251
3 251 8 10
3 251 10 12
3 251 12 262
3 262 12 272
3 272 12 14
3 272 14 16
3 272 16 281
3 281 16 18
3 281 18 288
3 288 18 20
3 288 20 293
3 293 20 22
3 293 22 294
3 294 22 24
3 296 297 298
3 218 296 60
3 60 296 219
3 219 299 43
3 43 299 44
3 298 300 296
3 219 300 296
3 219 300 299
3 300 301 299
3 299 301 44
3 295 302 297
3 298 302 297
3 298 303 300
3 300 303 301
3 301 304 44
3 44 304 295
3 301 303 304
3 303 302 304
3 303 298 302
3 304 302 295
3 0 305 1
3 218 305 1
3 218 306 296
3 296 306 297
3 297 307 295
3 295 307 0
3 297 306 307
3 306 305 307
3 306 218 305
3 307 305 0

CELL_TYPES 612
5
5
5
5
5
5
5
5
5
5
5
5
5
5
5
5
5
5
5
5
5
5
5
5
5
5
5
5
5
5
5
5
5
5
5
5
5
5
5
5
5
5
5
5
5
5
5
5
5
5
5
5
5
5
5
5
5
5
5
5
5
5
5
5
5
5
5
5
5
5
5
5
5
5
5
5
5
5
5
5
5
5
5
5
5
5
5
5
5
5
5
5
5
5
5
5
5
5
5
5
5
5
5
5
5
5
5
5
5
5
5
5
5
5
5
5
5
5
5
5
5
5
5
5
5
5
5
5
5
5
5
5
5
5
5
5
5
5
5
5
5
5
5
5
5
5
5
5
5
5
5
5
5
5
5
5
5
5
5
5
5
5
5
5
5
5
5
5
5
5
5
5
5
5
5
5
5
5
5
5
5
5
5
5
5
5
5
5
5
5
5
5
5
5
5
5
5
5
5
5
5
5
5
5
5
5
5
5
5
5
5
5
5
5
5
5
5
5
5
5
5
5
5
5
5
5
5
5
5
5
5
5
5
5
5
5
5
5
5
5
5
5
5
5
5
5
5
5
5
5
5
5
5
5
5
5
5
5
5
5
5
5
5
5
5
5
5
5
5
5
5
5
5
5
5
5
5
5
5
5
5
5
5
5
5
5
5
5
5
5
5
5
5
5
5
5
5
5
5
5
5
5
5
5
5
5
5
5
5
5
5
5
5
5
5
5
5
5
5
5
5
5
5
5
5
5
5
5
5
5
5
5
5
5
5
5
5
5
5
5
5
5
5
5
5
5
5
5
5
5
5
5
5
5
5
5
5
5
5
5
5
5
5
5
5
5
5
5
5
5
5
5
5
5
5
5
5
5
5
5
5
5
5
5
5
5
5
5
5
5
5
5
5
5
5
5
5
5
5
5
5
5
5
5
5
5
5
5
5
5
5
5
5
5
5
5
5
5
5
5
5
5
5
5
5
5
5
5
5
5
5
5
5
5
5
5
5
5
5
5
5
5
5
5
5
5
5
5
5
5
5
5
5
5
5
5
5
5
5
5
5
5
5
5
5
5
5
5
5
5
5
5
5
5
5
5
5
5
5
5
5
5
5
5
5
5
5
5
5
5
5
5
5
5
5
5
5
5
5
5
5
5
5
5
5
5
5
5
5
5
5
5
5
5
5
5
5
5
5
5
5
5
5
5
5
5
5
5
5
5
5
5
5
5
5
5
5
5
5
5
5
5
5
5
5
5
5
5
5
5
5
5
5
5
5
5
5
5
5
5
5
5
5
5
5
5
5
5
5
5
5
5
5
5
5
5
5
5
5
5
5
5
5
5
5
5
5
5
5
5
5
5
5
5
5
5
5
5
5
5
5
5
5
5
5
5
5
5
5
5
5
5

CELL_DATA 612
SCALARS cell_data_0 double
LOOKUP_TABLE default
6.08319208486e-10
1.13209874256e-11
4.37919620848e-10
7.65127062954e-10
4.19462308057e-10
8.34707150996e-10
6.31897067395e-10
5.26797943882e-10
1.84458004439e-10
6.77912678225e-10
5.56273643756e-10
9.78802760539e-10
8.135059283e-11
3.7462202184e-10
1.9350635914e-10
4.09140189142e-10
1.08119787039e-10
2.87345572092e-10
2.16951503905e-10
4.22128072537e-10
1.904043764e-10
6.87425685553e-11
1.0253596691e-10
3.05009123244e-10
1.00777922316e-10
4.3390062504e-10
8.63135490341e-11
9.41357554468e-10
3.79178865553e-10
6.67166043557e-10
1.6008790367e-10
5.03900004399e-10
2.71006995024e-10
3.13386744214e-10
3.52539612308e-11
2.10145938239e-10
9.08426132952e-10
3.15742070988e-09
4.05311879342e-09
2.65888345152e-09
4.31314046868e-09
5.37796977602e-09
2.3090424817e-11
8.67336433477e-11
3.64960048713e-10
4.27426156119e-10
2.04954385172e-10
1.98992561765e-10
1.56129182673e-10
8.51666287727e-12
1.40415874341e-11
9.44717224966e-11
4.86577051543e-10
1.44755413886e-09
3.76479791901e-12
9.96695879287e-10
1.63372860386e-09
6.89338531131e-11
2.96638288185e-10
2.56307192355e-10
9.15131522107e-11
9.81231918183e-11
7.71150349903e-11
6.97718864289e-11
3.63190775325e-11
1.96659167177e-11
6.48749827997e-11
1.20034510309e-10
9.84228897963e-11
5.39734381523e-11
8.93491108508e-11
1.2799269236e-10
2.28501868997e-10
2.81446351224e-10
1.22113366828e-09
1.17023704449e-09
5.5524591624e-10
2.73752253665e-09
3.53060845204e-09
2.33462505189e-09
5.06596584191e-10
1.26377371206e-10
3.71125939328e-11
1.73696399637e-10
1.68931440358e-10
1.05486100879e-10
4.97907531904e-11
1.40150681287e-11
5.29123256429e-11
1.01806101565e-10
1.22257469306e-10
8.03645794349e-11
5.4238573333e-11
1.72937520155e-11
1.04097719855e-10
1.27876196755e-10
1.43392822749e-10
9.83413290176e-11
7.12957185814e-11
1.20294026639e-10
2.70011382406e-10
5.12157724796e-10
2.15662457564e-10
1.35978566544e-09
1.44991817192e-09
1.80068760376e-09
1.60205593973e-10
7.89087230464e-11
1.30897775155e-10
7.12155138342e-11
1.2341189576e-10
4.76934029312e-11
6.26383026033e-11
8.75420725044e-11
6.2786697615e-11
3.79688452856e-12
2.08012654068e-11
6.0504068254e-13
6.54844045627e-11
8.8439964349e-11
7.55852013258e-11
4.51540886104e-11
5.94627931511e-11
5.1134634119e-11
9.93376531256e-11
8.18608273871e-11
1.64075864008e-11
1.49298742729e-10
2.2760336071e-10
1.26822031183e-10
6.85952792176e-11
2.09860710769e-10
7.63399816965e-11
1.34944493912e-11
8.96589194378e-11
1.34796161021e-10
5.8655815568e-11
1.56827274232e-11
3.41813923731e-11
3.63389901211e-11
4.69390742742e-11
4.98783386346e-11
4.97757756833e-11
7.44548508358e-11
1.20091977339e-11
2.84914547639e-11
3.19795434739e-11
6.93378959933e-11
6.57214708774e-11
5.12959976824e-11
4.90312339845e-11
5.2559115929e-11
4.47257886118e-11
4.83746025661e-11
7.06531803466e-11
8.60796499129e-11
5.21740380802e-11
1.74206683055e-11
7.89876671546e-11
9.42220198657e-11
5.44738338346e-11
4.62113194872e-12
3.20106959929e-11
9.87846298294e-13
9.14816009089e-12
3.9079088811e-11
7.41548596749e-11
1.13692353487e-11
9.462806712e-12
4.33053198531e-11
2.15418145673e-11
3.75657461068e-11
6.41424391469e-11
3.34928440086e-11
1.66214898933e-11
7.13488727749e-11
4.42928509711e-11
6.33436098599e-11
3.37107856442e-11
3.63200585015e-11
8.23500250977e-12
1.0431428804e-11
2.34028134047e-11
6.72425192105e-11
5.52600313548e-11
4.64004907899e-11
3.80258649159e-11
5.79544651172e-11
5.79327307163e-11
4.92251074193e-11
2.11049408939e-11
2.26040801321e-11
1.89915297285e-11
1.28639580605e-11
3.20059458887e-11
9.8533800831e-11
1.11208113419e-10
2.66178556356e-11
1.16075119564e-11
2.40038075476e-11
9.4570771269e-13
1.83921242033e-11
1.45594109012e-11
3.96337080017e-11
4.74302380981e-11
1.71086900703e-11
8.74563729834e-12
1.14438921763e-11
2.02375644328e-12
3.6965900994e-11
3.28200242606e-11
3.24361900721e-11
1.59617115465e-11
2.89058010039e-11
3.72390267524e-12
3.31632845152e-11
3.4344338238e-11
5.70882218129e-11
3.674261429e-11
2.81528313034e-11
3.75550407464e-11
2.6287352365e-11
3.0425266106e-11
2.9596506968e-11
2.54248454881e-11
1.7606016284e-11
1.15077108308e-11
8.81523596574e-12
3.89424256237e-12
1.01791023842e-10
1.44572181562e-10
1.13437311353e-10
2.21022353338e-11
2.45914419369e-11
4.89792569724e-11
3.68746046998e-11
4.15084809248e-12
2.22393031903e-11
2.14070942221e-11
8.88374602957e-12
6.65548196836e-12
2.12792545535e-11
2.86526538869e-11
4.37212056226e-11
3.52134460557e-11
3.47950567074e-11
2.05270416965e-12
2.19841168241e-11
5.88829949325e-12
3.68803444926e-11
1.99152519615e-11
2.86156772503e-11
2.47398875557e-11
1.34064715296e-11
2.52853767848e-11
3.42180893069e-11
1.57109121657e-11
8.12647660396e-12
4.69064042103e-12
2.09808601158e-11
4.97478073845e-11
5.99739081115e-11
1.13344899883e-10
1.24604861976e-10
2.44711122867e-11
3.38816724791e-11
4.48959192025e-11
1.29842775238e-11
2.11365127013e-11
1.50480752795e-11
6.03392497323e-13
4.11591467334e-12
7.71674726338e-12
1.18539864107e-11
2.40389138292e-11
3.88245005461e-11
1.79838525316e-11
3.78071935983e-11
8.6947563328e-12
9.79957810316e-12
5.7496946276e-12
8.79449008975e-12
2.64082326838e-11
2.57027359218e-11
1.79095508605e-11
1.09427526066e-11
1.25926627416e-12
3.84607112492e-11
1.05229554769e-10
4.8708482616e-11
8.04276802866e-11
8.11232338185e-11
1.59597123968e-12
5.56564897651e-11
4.70804256975e-11
1.17678589189e-11
1.30846436938e-11
1.27414449579e-11
7.56743169606e-12
1.02642551019e-11
2.02659977143e-11
1.00911881014e-11
1.04580599295e-11
7.43459846728e-12
6.13034734323e-11
4.50623346528e-11
2.49850012106e-11
3.28795992597e-12
6.57492905235e-13
9.98435618895e-12
2.40848368729e-12
4.17375614596e-11
1.99060823304e-11
2.54179133082e-11
1.52610554708e-10
1.08819865537e-10
8.22268047236e-12
8.33799074603e-11
6.56060180792e-11
2.63088317864e-11
3.63833629012e-12
1.85733863817e-12
1.91611813708e-11
1.77977608959e-11
9.6071890378e-12
1.30115349882e-12
5.70132457308e-13
1.02164804102e-11
4.09462951414e-11
2.16806641325e-11
1.69364193823e-11
3.28930616352e-11
7.22746992088e-11
3.42738728898e-10
3.07821157981e-10
1.65400451914e-10
7.5343214794e-11
8.53912432882e-11
1.49076449883e-11
1.74995237788e-12
6.96664481178e-12
4.61826925805e-12
9.30398329241e-11
7.44699734302e-11
3.15714252766e-12
5.94213450615e-11
3.36488336656e-11
3.03774415021e-10
1.19241790272e-10
1.4544325624e-11
9.19467395121e-11
7.11365808387e-09
1.31225910506e-09
1.78318227873e-11
2.33927991044e-10
2.86785998387e-10
2.54591753868e-10
1.12351320133e-08
1.43138392583e-08
2.06944047163e-09
2.79009197517e-10
5.42292020067e-10
5.94592866494e-09
7.33897639687e-10
2.74867312758e-09
1.29989091115e-10
1.32128345122e-11
1.22106302899e-10
1.1822075344e-11
1.38526242733e-10
5.39098457766e-11
5.81495950291e-10
2.98522574433e-10
4.07301513457e-10
4.53521966854e-11
1.79098968339e-10
2.13007069667e-10
2.13450824756e-10
4.66172423461e-10
3.32045319138e-11
3.20302577568e-10
1.36445207937e-10
8.90560054246e-11
1.40305861661e-10
1.94636425821e-09
2.53519338445e-09
2.13803269524e-09
8.06986749355e-10
3.81766274348e-11
9.32054942221e-11
2.26537313324e-09
1.55146481435e-09
1.38196349636e-09
1.56166237984e-09
1.93485384364e-09
2.12301505608e-10
1.73203804873e-10
1.99497558001e-11
1.57932772774e-11
1.72803059256e-10
7.69763722166e-11
2.46085507095e-10
6.65740318264e-11
4.25735704033e-10
2.26189882647e-10
5.19322331411e-10
1.29173204307e-10
2.89290269947e-10
8.30150605163e-11
1.03972186766e-10
7.5123989256e-09
8.28058700032e-09
1.21345011445e-08
1.54256586535e-09
6.5362133271e-10
4.81323689731e-09
1.2612412013e-08
9.27621934635e-09
3.86093312116e-09
4.05525656779e-09
5.48356508714e-10
8.36099472052e-09
3.83441452272e-09
6.09748788654e-09
2.23349829814e-09
1.38463499536e-09
1.33774976362e-09
4.45154897731e-10
3.11281088368e-09
9.27586473707e-10
1.20745588366e-09
4.94016866452e-10
5.7466298778e-10
2.50200603399e-10
4.97982407565e-10
4.60999214634e-10
1.19462761148e-09
2.50134053282e-10
3.04681235585e-10
2.06386400134e-10
3.03904568917e-10
2.24899716784e-10
2.67819405018e-10
1.09238532812e-09
3.62329491836e-10
5.01623777898e-10
1.44994859532e-10
1.19972309637e-10
8.68163617132e-11
1.64128642503e-10
5.02241613446e-11
1.88899754678e-10
4.53147736021e-10
2.35800101604e-10
3.1448682942e-10
2.144018413e-10
1.85466434463e-10
1.80336918867e-10
1.42798789632e-10
1.34155636184e-10
1.89281704996e-10
1.86235170107e-10
2.7211475324e-10
1.15502635285e-10
1.70266235636e-10
2.37228687728e-10
1.13922485589e-10
1.60236295262e-10
1.42232971229e-10
2.83783377787e-10
1.15041279179e-10
1.93712541084e-10
7.96603872699e-11
2.38669484499e-10
1.01740184294e-10
1.3583250866e-10
1.40812074545e-10
1.53935652062e-10
1.10060643786e-10
1.45243776769e-10
1.61339406754e-11
1.68122536232e-10
3.98359019107e-11
1.53167954947e-10
2.94335635469e-10
4.64537031325e-11
8.40705291358e-11
2.84003222391e-10
3.41368098486e-10
5.51496980077e-11
3.98403882373e-10
3.03174917336e-10
2.75513290289e-10
4.24642587413e-11
2.26862790985e-10
3.14771178866e-10
2.68375630328e-10
1.31354209968e-10
1.2707993505e-10
3.31367183075e-10
2.48666906035e-10
2.08976918919e-10
1.08675710974e-10
2.52884790565e-10
3.19856250213e-10
4.00873880076e-10
1.00176905632e-10
8.16184583679e-11
9.34603943732e-11
1.29185940102e-10
3.89605083562e-10
6.5512319294e-10
3.75015737805e-10
1.24781009814e-10
1.75305234645e-11
1.01869044533e-10
1.86481164829e-10
6.59570008736e-11
1.24874559313e-10
1.29493588241e-10
2.70647714902e-11
5.71788241034e-11
2.31634609886e-11
1.07500729986e-10
4.47369127568e-10
7.18025257654e-11
9.82709753102e-11
2.7658177634e-11
1.60380590388e-10
4.87368677562e-11
1.39690359798e-10
8.96347043923e-11
6.45152667564e-10
6.61979257394e-10
5.77122521785e-10
1.50299453013e-09
1.31113087942e-10
8.92925393405e-11
8.92847984538e-11
4.26188988614e-11
1.05729624622e-10
1.35443516117e-10
1.73186393472e-11
6.95813592628e-11
2.51859180612e-10
1.96388339635e-10
1.99938992219e-10
8.48410156204e-11
6.52929511399e-11
5.19519264009e-10
7.81120525519e-11
2.1202107227e-10
1.14796438268e-09
1.11037678537e-09
5.14056800648e-09
8.49443091731e-09
1.42611752467e-08
6.30769926817e-09
3.74000107459e-09
1.20830668592e-09
3.463532032e-10
1.45338340489e-10
9.19814445702e-10
1.26455579026e-09
1.48427573842e-10
1.23207865107e-10
3.39934023856e-10
2.42421419516e-10
1.6666910134e-10
2.02939556104e-10
2.09951820308e-10
1.97216744857e-10
2.32447221584e-10
9.12986536161e-11
1.83965082261e-10
1.14904487279e-10
1.251821075e-10
5.87230372306e-11
1.41027200358e-10
8.08205242902e-11
1.09367809304e-09
1.70545596123e-09
4.05774892207e-08
3.74020308207e-10
1.91387336415e-09
1.39616849328e-08
1.13005095051e-08
9.97612738143e-09
1.78300200772e-09
3.56319067044e-09
1.74654853002e-10
1.47287665107e-10
1.8612800213e-08
3.21719487811e-08
1.01896234341e-08
1.37361693297e-08
5.15549063323e-09
7.42081341344e-09
2.12806720621e-08
1.87753307793e-08
6.76023222977e-09
5.68018241106e-10
1.25065913951e-08
1.35253133247e-08
1.76800430767e-08
9.11773496228e-09
1.01538157867e-08
5.87578635994e-09
1.50924183297e-08
1.85528136248e-08
1.35910653736e-08
7.68572386862e-10

