# vtk DataFile Version 3.0
File Name: Molecule/methanol/methanol_4.0-4.vtk
ASCII
DATASET UNSTRUCTURED_GRID
FIELD FieldData 1
TIME 1 1 double
0.0
POINTS 193 double
1.611 0.0 -0.359
1.51 -0.576 -0.349
1.403 0.0 -0.933
1.311 -0.525 -0.924
1.219 -1.083 -0.32
1.046 -0.986 -0.897
0.773 -1.459 -0.275
0.639 -1.329 -0.857
0.226 -1.659 -0.221
0.141 -1.511 -0.807
-0.356 -1.659 -0.163
-0.389 -1.511 -0.754
-0.903 -1.459 -0.108
-0.887 -1.329 -0.705
-1.349 -1.083 -0.064
-1.294 -0.986 -0.664
-1.64 -0.576 -0.035
-1.559 -0.525 -0.638
-1.742 -0.0 -0.025
-1.651 -0.0 -0.629
-1.64 0.576 -0.035
-1.559 0.525 -0.638
-1.349 1.083 -0.064
-1.294 0.986 -0.664
-0.903 1.459 -0.108
-0.887 1.329 -0.705
-0.356 1.659 -0.163
-0.389 1.511 -0.754
0.226 1.659 -0.221
0.141 1.511 -0.807
0.773 1.459 -0.275
0.639 1.329 -0.857
1.219 1.083 -0.32
1.046 0.986 -0.897
1.51 0.576 -0.349
1.311 0.525 -0.924
1.907 0.0 0.656
1.83 0.532 0.656
1.83 0.266 1.116
1.83 -0.266 1.116
1.83 -0.532 0.656
1.83 -0.266 0.195
1.83 0.266 0.195
1.607 0.884 1.166
1.607 0.51 1.539
1.607 -0.0 1.676
1.607 -0.51 1.539
1.607 -0.884 1.166
1.607 -1.02 0.656
1.607 -0.884 0.145
1.607 0.884 0.145
1.607 1.02 0.656
1.255 1.33 1.171
1.255 1.054 1.617
1.255 0.636 1.933
1.255 0.132 2.076
1.255 -0.39 2.028
1.255 -0.86 1.794
1.255 -1.213 1.407
1.255 -1.402 0.918
1.255 -1.402 0.393
1.255 1.33 0.14
1.255 1.426 0.656
0.803 1.633 1.186
0.803 1.389 1.665
0.803 1.009 2.045
0.803 0.531 2.288
0.803 -0.0 2.373
0.803 -0.531 2.288
0.803 -1.009 2.045
0.803 -1.389 1.665
0.803 -1.633 1.186
0.803 -1.717 0.656
0.803 -1.633 0.125
0.803 1.633 0.125
0.803 1.717 0.656
0.288 1.793 1.182
0.288 1.572 1.666
0.288 1.223 2.068
0.288 0.776 2.355
0.288 0.266 2.505
0.288 -0.266 2.505
0.288 -0.776 2.355
0.288 -1.223 2.068
0.288 -1.572 1.666
0.288 -1.793 1.182
0.288 -1.868 0.656
0.288 -1.793 0.129
0.288 1.793 0.129
0.288 1.868 0.656
-0.25 1.793 1.182
-0.25 1.572 1.666
-0.25 1.223 2.068
-0.25 0.776 2.355
-0.25 0.266 2.505
-0.25 -0.266 2.505
-0.25 -0.776 2.355
-0.25 -1.223 2.068
-0.25 -1.572 1.666
-0.25 -1.793 1.182
-0.25 -1.868 0.656
-0.25 -1.793 0.129
-0.25 1.793 0.129
-0.25 1.868 0.656
-0.765 1.717 0.656
-0.765 1.633 1.186
-0.765 1.389 1.665
-0.765 1.009 2.045
-0.765 0.531 2.288
-0.765 -0.0 2.373
-0.765 -0.531 2.288
-0.765 -1.009 2.045
-0.765 -1.389 1.665
-0.765 -1.633 1.186
-0.765 -1.717 0.656
-1.217 1.426 0.656
-1.217 1.33 1.171
-1.217 1.054 1.617
-1.217 0.636 1.933
-1.217 0.132 2.076
-1.217 -0.39 2.028
-1.217 -0.86 1.794
-1.217 -1.213 1.407
-1.217 -1.402 0.918
-1.217 -1.402 0.393
-1.569 1.02 0.656
-1.569 0.884 1.166
-1.569 0.51 1.539
-1.569 -0.0 1.676
-1.569 -0.51 1.539
-1.569 -0.884 1.166
-1.569 -1.02 0.656
-1.792 0.532 0.656
-1.792 0.266 1.116
-1.792 -0.266 1.116
-1.792 -0.532 0.656
-1.868 0.0 0.656
1.323 0.263 -1.192
1.056 -0.0 -1.724
1.056 0.493 -1.592
1.056 0.854 -1.231
1.056 -0.854 -1.231
0.648 -1.228 -1.246
0.648 -0.94 -1.677
1.056 -0.493 -1.592
0.648 -0.509 -1.965
0.648 0.0 -2.067
0.648 0.509 -1.965
0.648 0.94 -1.677
0.648 1.228 -1.246
0.147 -1.421 -1.254
0.147 -1.158 -1.709
0.147 -0.756 -2.046
0.147 -0.263 -2.226
0.147 0.262 -2.226
0.147 0.756 -2.046
0.147 1.158 -1.709
0.147 1.421 -1.254
-0.386 -1.421 -1.254
-0.386 -1.158 -1.709
-0.386 -0.756 -2.046
-0.386 -0.263 -2.226
-0.386 0.262 -2.226
-0.386 0.756 -2.046
-0.386 1.158 -1.709
-0.386 1.421 -1.254
-0.887 -1.228 -1.246
-0.887 -0.94 -1.677
-0.887 -0.509 -1.965
-0.887 0.0 -2.067
-0.887 0.509 -1.965
-0.887 0.94 -1.677
-0.887 1.228 -1.246
-1.296 -0.854 -1.231
-1.296 -0.493 -1.592
-1.296 -0.0 -1.724
-1.296 0.493 -1.592
-1.296 0.854 -1.231
-1.562 -0.263 -1.192
-1.562 0.263 -1.192
1.323 -0.263 -1.192
1.1895 -0.378 -1.392
1.056 -0.2465 -1.658
1.1895 -0.1315 -1.458
1.323 0.0 -1.192
1.25625 -0.19725 -1.325
1.25625 0.06575 -1.325
1.12275 -0.06575 -1.591
1.222875 -0.032875 -1.3915
1.156125 0.032875 -1.5245
1.289625 0.164375 -1.2585
1.2061875 0.0493125 -1.42475
1.2395625 0.1479375 -1.35825

CELLS 382 1528
3 0 1 2
3 2 1 3
3 1 4 3
3 3 4 5
3 4 6 5
3 5 6 7
3 6 8 7
3 7 8 9
3 8 10 9
3 9 10 11
3 10 12 11
3 11 12 13
3 12 14 13
3 13 14 15
3 14 16 15
3 15 16 17
3 16 18 17
3 17 18 19
3 18 20 19
3 19 20 21
3 20 22 21
3 21 22 23
3 22 24 23
3 23 24 25
3 24 26 25
3 25 26 27
3 26 28 27
3 27 28 29
3 28 30 29
3 29 30 31
3 30 32 31
3 31 32 33
3 32 34 33
3 33 34 35
3 34 0 35
3 35 0 2
3 36 37 38
3 36 38 39
3 36 39 40
3 36 40 41
3 36 41 42
3 36 42 37
3 38 37 43
3 38 43 44
3 38 44 45
3 39 38 45
3 39 45 46
3 39 46 47
3 40 39 47
3 40 47 48
3 40 48 49
3 41 40 49
3 37 42 50
3 37 50 51
3 37 51 43
3 43 51 52
3 43 52 53
3 44 43 53
3 44 53 54
3 44 54 55
3 45 44 55
3 45 55 56
3 46 45 56
3 46 56 57
3 47 46 57
3 47 57 58
3 47 58 59
3 48 47 59
3 48 59 60
3 49 48 60
3 51 50 61
3 51 61 62
3 51 62 52
3 52 62 63
3 52 63 64
3 53 52 64
3 53 64 65
3 54 53 65
3 54 65 66
3 55 54 66
3 55 66 67
3 56 55 67
3 56 67 68
3 57 56 68
3 57 68 69
3 57 69 70
3 58 57 70
3 58 70 71
3 59 58 71
3 59 71 72
3 60 59 72
3 60 72 73
3 62 61 74
3 62 74 75
3 62 75 63
3 63 75 76
3 63 76 77
3 64 63 77
3 64 77 78
3 65 64 78
3 65 78 79
3 66 65 79
3 66 79 80
3 67 66 80
3 67 80 81
3 68 67 81
3 68 81 82
3 69 68 82
3 69 82 83
3 70 69 83
3 70 83 84
3 71 70 84
3 71 84 85
3 72 71 85
3 72 85 86
3 72 86 87
3 73 72 87
3 75 74 88
3 75 88 89
3 75 89 76
3 76 89 90
3 76 90 91
3 77 76 91
3 77 91 92
3 78 77 92
3 78 92 93
3 79 78 93
3 79 93 94
3 80 79 94
3 80 94 95
3 81 80 95
3 81 95 96
3 82 81 96
3 82 96 97
3 83 82 97
3 83 97 98
3 84 83 98
3 84 98 99
3 85 84 99
3 85 99 100
3 86 85 100
3 86 100 101
3 87 86 101
3 89 88 102
3 89 102 103
3 89 103 90
3 90 103 104
3 90 104 105
3 91 90 105
3 91 105 106
3 92 91 106
3 92 106 107
3 93 92 107
3 93 107 108
3 94 93 108
3 94 108 109
3 95 94 109
3 95 109 110
3 96 95 110
3 96 110 111
3 97 96 111
3 97 111 112
3 98 97 112
3 98 112 113
3 99 98 113
3 99 113 114
3 100 99 114
3 101 100 114
3 103 102 104
3 105 104 115
3 105 115 116
3 106 105 116
3 106 116 117
3 107 106 117
3 107 117 118
3 108 107 118
3 108 118 119
3 109 108 119
3 109 119 120
3 110 109 120
3 110 120 121
3 111 110 121
3 112 111 121
3 112 121 122
3 113 112 122
3 113 122 123
3 114 113 123
3 114 123 124
3 116 115 125
3 116 125 126
3 117 116 126
3 117 126 127
3 118 117 127
3 119 118 127
3 119 127 128
3 120 119 128
3 120 128 129
3 121 120 129
3 121 129 130
3 122 121 130
3 123 122 130
3 123 130 131
3 124 123 131
3 126 125 132
3 126 132 133
3 127 126 133
3 128 127 133
3 128 133 134
3 129 128 134
3 130 129 134
3 130 134 135
3 131 130 135
3 133 132 136
3 134 133 136
3 135 134 136
3 135 136 18
3 135 18 16
3 135 16 131
3 131 16 14
3 131 14 124
3 124 14 12
3 124 12 114
3 114 12 101
3 101 12 10
3 101 10 8
3 101 8 87
3 87 8 73
3 73 8 6
3 73 6 4
3 73 4 60
3 60 4 49
3 49 4 1
3 49 1 41
3 41 1 0
3 41 0 42
3 42 0 34
3 42 34 50
3 50 34 32
3 50 32 61
3 61 32 30
3 61 30 74
3 74 30 28
3 74 28 88
3 88 28 102
3 102 28 26
3 102 26 24
3 102 24 104
3 104 24 115
3 115 24 22
3 115 22 125
3 125 22 20
3 125 20 132
3 132 20 18
3 132 18 136
3 137 138 139
3 137 139 140
3 141 142 143
3 144 141 143
3 144 143 145
3 138 145 146
3 138 146 147
3 139 138 147
3 139 147 148
3 140 139 148
3 140 148 149
3 142 150 151
3 143 142 151
3 143 151 152
3 145 143 152
3 145 152 153
3 146 145 153
3 146 153 154
3 147 146 154
3 147 154 155
3 148 147 155
3 148 155 156
3 149 148 156
3 149 156 157
3 150 158 159
3 151 150 159
3 152 151 159
3 152 159 160
3 152 160 161
3 153 152 161
3 153 161 162
3 154 153 162
3 154 162 163
3 155 154 163
3 155 163 164
3 156 155 164
3 156 164 165
3 157 156 165
3 159 158 166
3 159 166 167
3 160 159 167
3 160 167 168
3 161 160 168
3 161 168 169
3 162 161 169
3 162 169 170
3 163 162 170
3 163 170 171
3 164 163 171
3 164 171 172
3 165 164 172
3 167 166 173
3 167 173 174
3 168 167 174
3 168 174 175
3 169 168 175
3 170 169 175
3 170 175 176
3 171 170 176
3 171 176 177
3 172 171 177
3 174 173 178
3 175 174 178
3 175 178 179
3 176 175 179
3 177 176 179
3 177 179 21
3 177 21 23
3 177 23 172
3 172 23 25
3 172 25 165
3 165 25 27
3 165 27 29
3 165 29 157
3 157 29 31
3 157 31 149
3 149 31 33
3 149 33 140
3 140 33 35
3 140 35 137
3 137 35 2
3 180 2 3
3 180 3 141
3 141 3 5
3 141 5 142
3 142 5 7
3 142 7 150
3 150 7 9
3 150 9 158
3 158 9 11
3 158 11 13
3 158 13 166
3 166 13 15
3 166 15 173
3 173 15 17
3 173 17 178
3 178 17 19
3 178 19 179
3 179 19 21
3 144 181 141
3 180 181 141
3 181 182 183
3 181 144 182
3 138 182 145
3 182 144 145
3 180 184 2
3 137 184 2
3 183 185 181
3 180 185 181
3 180 185 184
3 185 186 184
3 138 187 182
3 183 187 182
3 183 188 185
3 185 188 186
3 188 187 189
3 188 183 187
3 189 187 138
3 186 190 184
3 184 190 137
3 186 191 190
3 191 192 190
3 191 189 192
3 190 192 137
3 137 192 138
3 192 189 138
3 189 191 188
3 186 191 188

CELL_TYPES 382
5
5
5
5
5
5
5
5
5
5
5
5
5
5
5
5
5
5
5
5
5
5
5
5
5
5
5
5
5
5
5
5
5
5
5
5
5
5
5
5
5
5
5
5
5
5
5
5
5
5
5
5
5
5
5
5
5
5
5
5
5
5
5
5
5
5
5
5
5
5
5
5
5
5
5
5
5
5
5
5
5
5
5
5
5
5
5
5
5
5
5
5
5
5
5
5
5
5
5
5
5
5
5
5
5
5
5
5
5
5
5
5
5
5
5
5
5
5
5
5
5
5
5
5
5
5
5
5
5
5
5
5
5
5
5
5
5
5
5
5
5
5
5
5
5
5
5
5
5
5
5
5
5
5
5
5
5
5
5
5
5
5
5
5
5
5
5
5
5
5
5
5
5
5
5
5
5
5
5
5
5
5
5
5
5
5
5
5
5
5
5
5
5
5
5
5
5
5
5
5
5
5
5
5
5
5
5
5
5
5
5
5
5
5
5
5
5
5
5
5
5
5
5
5
5
5
5
5
5
5
5
5
5
5
5
5
5
5
5
5
5
5
5
5
5
5
5
5
5
5
5
5
5
5
5
5
5
5
5
5
5
5
5
5
5
5
5
5
5
5
5
5
5
5
5
5
5
5
5
5
5
5
5
5
5
5
5
5
5
5
5
5
5
5
5
5
5
5
5
5
5
5
5
5
5
5
5
5
5
5
5
5
5
5
5
5
5
5
5
5
5
5
5
5
5
5
5
5
5
5
5
5
5
5
5
5
5
5
5
5
5
5
5
5
5
5
5
5
5
5
5
5
5
5
5
5
5
5
5
5
5
5
5
5
5
5
5
5
5
5
5
5
5
5
5
5
5
5
5
5
5
5

CELL_DATA 382
SCALARS cell_data_0 double
LOOKUP_TABLE default
5.32420576335e-08
2.10034002508e-07
2.18335003592e-07
9.36275545288e-08
6.49865523367e-09
8.2275302562e-09
1.01450968374e-08
1.28748351398e-08
8.63710059297e-09
1.11644696346e-08
6.99727895121e-09
9.08237709957e-09
5.64590162915e-09
7.28682908413e-09
4.21868594595e-09
5.85256145775e-09
4.11088053331e-09
6.05098154832e-09
4.03628709658e-09
5.37112954961e-09
3.51487907214e-09
5.55838503897e-09
4.02157804052e-09
6.42117507197e-09
4.74997721385e-09
7.35585662562e-09
6.17440910407e-09
8.28985604576e-09
6.18518628906e-09
8.78427469355e-09
5.52403004708e-09
4.51655672282e-09
4.99645840427e-09
6.25552530135e-08
7.40171696829e-08
6.4464085153e-08
1.702801107e-09
1.6591916438e-09
1.96157901801e-09
2.03352204439e-09
1.89593641959e-09
1.86680060082e-09
2.00493463708e-09
1.67402100769e-09
1.78100051646e-09
2.0149780027e-09
1.65294695026e-09
1.74198808381e-09
2.48120574975e-09
2.20729542081e-09
1.99290973762e-09
2.35336428854e-09
2.26674457655e-09
1.71316556222e-09
1.69794764715e-09
1.57038814121e-09
1.2872347462e-09
1.58166497628e-09
1.41338681977e-09
1.38321349989e-09
1.57932444771e-09
1.4389190098e-09
1.77818806668e-09
1.58069154407e-09
1.8798650223e-09
1.67267893693e-09
1.98859277811e-09
2.43419196743e-09
1.70945906531e-09
1.2209219634e-09
1.68017312135e-09
1.50872114139e-09
1.449452621e-09
1.28242578267e-09
1.17354741873e-09
1.2121823986e-09
1.11020207793e-09
1.22312466492e-09
1.14090438592e-09
1.2074255316e-09
1.14698649916e-09
1.29127452835e-09
1.25818259887e-09
1.4071196478e-09
1.34963471438e-09
1.44666591846e-09
1.47072031493e-09
1.37668630605e-09
1.81385561448e-09
1.55019237289e-09
1.34836811849e-09
5.96166467964e-10
1.26739855928e-09
1.16766779855e-09
1.22610638897e-09
1.05838825617e-09
9.78199469925e-10
1.06566329352e-09
9.068731378e-10
9.71500594793e-10
8.92166058851e-10
1.03108038666e-09
9.47043008425e-10
1.07878168064e-09
9.60350095893e-10
1.06621021113e-09
9.85684101186e-10
1.15167639686e-09
1.14126581548e-09
1.28587426051e-09
1.15140712692e-09
1.27033993913e-09
1.06517525784e-09
1.08204205414e-09
6.13705171017e-10
1.95541478151e-10
3.37940328107e-10
9.23950887456e-10
8.95464965484e-10
9.73860167845e-10
8.58382980803e-10
8.05245961081e-10
8.62281064833e-10
8.14106119967e-10
8.03754933911e-10
7.77119258004e-10
8.36214436499e-10
7.98048717008e-10
8.08532520969e-10
8.08017416133e-10
8.72411966472e-10
8.85280226392e-10
9.37041384664e-10
9.03229960837e-10
9.8514186045e-10
9.34791043264e-10
9.96269234898e-10
8.67077811785e-10
8.75582208557e-10
4.31011149766e-10
2.69024967532e-10
1.17819661707e-10
1.05778173616e-10
7.04966267284e-10
7.04073185634e-10
7.66470146244e-10
6.38129790463e-10
6.29723531452e-10
7.78517248242e-10
6.97154755664e-10
6.38734460956e-10
6.49749114757e-10
7.7328114604e-10
7.45710995732e-10
6.84157305629e-10
6.5657592698e-10
7.35046593177e-10
7.52038733454e-10
8.05011974113e-10
7.03643886882e-10
7.28703587975e-10
7.66373754932e-10
8.52226741776e-10
8.20986662531e-10
7.28011178443e-10
6.16724968615e-10
3.62177954574e-10
2.2622486533e-10
5.51351718058e-10
5.86901414671e-10
4.54380017991e-10
5.55711653364e-10
5.03942179083e-10
5.22197953491e-10
5.9693806988e-10
6.75775223023e-10
6.32554154714e-10
6.16390234464e-10
6.63008547005e-10
6.82234274217e-10
7.05888314028e-10
6.64788494854e-10
7.19561936959e-10
6.18424486676e-10
6.40911771192e-10
5.09931302607e-10
4.5321363159e-10
4.35823253206e-10
4.8634990659e-10
2.60894788196e-10
3.93842994709e-10
4.60878404085e-10
4.64803925617e-10
5.41709739553e-10
4.99459772429e-10
5.59069022917e-10
5.20544308964e-10
5.51334583718e-10
5.3441014784e-10
5.24497703942e-10
3.76518765786e-10
2.41787820774e-10
4.05785474419e-10
4.38315366146e-10
3.06761761901e-10
3.12587867185e-10
4.19668272503e-10
3.7170872173e-10
4.20612000547e-10
3.51846172193e-10
3.27834875727e-10
5.11475551419e-10
5.66410982765e-10
2.57229510706e-10
4.97549715208e-10
2.99637459899e-10
7.23807173889e-10
5.54631027699e-10
7.19410400648e-10
2.01239424448e-10
9.39427910201e-10
8.1620533649e-11
9.72250789272e-10
1.15116521879e-09
1.45658912685e-09
7.81416167608e-10
7.62795992322e-10
2.55473238689e-09
3.7273805025e-09
4.40183301097e-09
4.96652127885e-09
4.82964187536e-08
6.87818076145e-08
6.56102855953e-08
1.02211427161e-09
6.32902326265e-09
1.19911148197e-09
1.38475473083e-09
1.49481066879e-09
3.69107309136e-10
3.86824785299e-11
1.20266908687e-09
1.86015416013e-10
3.05678182836e-10
1.0785362095e-09
8.64746087304e-10
5.72652196375e-10
1.75656799369e-10
6.19221850162e-10
4.92318261964e-10
4.86049869364e-10
4.53645426599e-10
7.84749821305e-10
4.10043778956e-10
1.36155498088e-07
1.23709712765e-07
2.28517445986e-07
9.74419650132e-08
3.54999837426e-08
2.09113938977e-09
6.6542105051e-09
7.09030490342e-09
4.65897017325e-09
4.35818976718e-09
6.33907939723e-09
8.03061653989e-08
1.11670007565e-07
3.57356565916e-09
6.42788163493e-09
5.2394235501e-10
5.40503344329e-09
2.98622576424e-09
1.70400773433e-09
6.47662325554e-09
5.93374458308e-09
7.64267407162e-09
7.81791556487e-09
9.62109943816e-09
1.25073152028e-08
1.13986244612e-08
9.92191301615e-09
1.05238062491e-08
9.94739698429e-09
8.63026637027e-09
9.50799079134e-09
8.43667480167e-09
9.00530244029e-09
9.05187783221e-09
8.90774536752e-09
9.17939561478e-09
8.08230471747e-09
8.95220095761e-09
1.05266223657e-08
9.01963962498e-09
1.03691889317e-08
8.86706650936e-09
9.61621331759e-09
8.31839262552e-09
9.14398770826e-09
7.41394407351e-09
8.08261474755e-09
6.67619451088e-09
7.07445041003e-09
6.36047281378e-09
6.64456828702e-09
6.79599665753e-09
7.15247644619e-09
6.82710943916e-09
7.14999105618e-09
7.04644819443e-09
5.92630700282e-09
5.89269978321e-09
5.32784426102e-09
5.71130748493e-09
5.66939818636e-09
5.69071447039e-09
5.66306322569e-09
7.24939193404e-08
6.50547544123e-08
6.0327718627e-08
8.58309284636e-08
6.89031269393e-09
7.02579520953e-09
7.52271644647e-09
7.6722036223e-09
8.15612086699e-09
8.35477301042e-09
7.32694348474e-09
8.86827604168e-09
8.27683690148e-09
5.7288205057e-09
3.6578151057e-09
3.48951711003e-08
1.597741045e-07
1.1610380792e-07
4.80109817304e-08
1.43459790499e-07
1.2169039582e-07
1.64835965888e-07
8.13980251943e-08
6.22295484046e-08
1.24137928513e-08
1.16063712209e-08
1.27207182851e-08
1.11076008505e-08
1.0009979229e-08
8.25646123815e-09
8.34785677647e-09
8.48297621886e-09
8.71802659153e-09
6.33402524279e-09
6.75989488739e-08
7.18045790281e-08
2.73720872251e-07
3.69356411778e-07
2.10597366293e-07
2.1612304722e-07
7.19327698746e-08
6.23157465703e-08
2.74449382687e-07
2.06140440108e-07
1.37129768017e-08
1.09400761576e-08
5.75290270665e-08
2.03752977131e-08
1.53336994117e-07
1.53233855197e-07
1.09656158249e-07
1.21483972478e-07
3.74637029704e-08
4.45358955141e-08
2.50064124535e-09
1.0282614877e-07
9.77922117378e-08
3.07839547107e-08
1.66329984156e-08
2.43170248848e-08
8.67708510134e-08
3.39568968015e-09
7.17751585775e-08
6.08454663854e-10
4.393064432e-08

