# vtk DataFile Version 3.0
File Name: Molecule/methanol/methanol_8.0-1.vtk
ASCII
DATASET UNSTRUCTURED_GRID
FIELD FieldData 1
TIME 1 1 double
0.0
POINTS 395 double
1.611 0.0 -0.359
1.569 -0.375 -0.355
1.403 0.0 -0.933
1.445 -0.731 -0.342
1.245 -1.05 -0.322
1.252 -0.666 -0.918
0.98 -1.317 -0.296
1.07 -0.957 -0.9
0.828 -1.2 -0.876
0.662 -1.518 -0.264
0.538 -1.382 -0.847
0.308 -1.642 -0.229
0.216 -1.496 -0.815
-0.065 -1.684 -0.192
-0.124 -1.534 -0.781
-0.438 -1.642 -0.155
-0.464 -1.496 -0.747
-0.793 -1.518 -0.119
-0.787 -1.382 -0.715
-1.11 -1.317 -0.088
-1.076 -1.2 -0.686
-1.376 -1.05 -0.061
-1.318 -0.957 -0.662
-1.576 -0.731 -0.042
-1.5 -0.666 -0.644
-1.7 -0.375 -0.029
-1.613 -0.341 -0.633
-1.742 0.0 -0.025
-1.651 0.0 -0.629
-1.7 0.375 -0.029
-1.613 0.341 -0.633
-1.576 0.731 -0.042
-1.5 0.666 -0.644
-1.376 1.05 -0.061
-1.318 0.957 -0.662
-1.11 1.317 -0.088
-1.076 1.2 -0.686
-0.793 1.518 -0.119
-0.787 1.382 -0.715
-0.438 1.642 -0.155
-0.464 1.496 -0.747
-0.065 1.684 -0.192
-0.124 1.534 -0.781
0.308 1.642 -0.229
0.216 1.496 -0.815
0.662 1.518 -0.264
0.538 1.382 -0.847
0.98 1.317 -0.296
0.828 1.2 -0.876
1.245 1.05 -0.322
1.07 0.957 -0.9
1.445 0.731 -0.342
1.252 0.666 -0.918
1.569 0.375 -0.355
1.365 0.341 -0.929
1.907 0.0 0.656
1.87 0.368 0.656
1.87 0.184 0.974
1.87 -0.184 0.974
1.87 -0.368 0.656
1.87 -0.184 0.337
1.87 0.184 0.337
1.763 0.626 1.017
1.763 0.361 1.281
1.763 -0.0 1.378
1.763 -0.361 1.281
1.763 -0.626 1.017
1.763 -0.722 0.656
1.763 -0.626 0.294
1.763 -0.361 0.03
1.763 -0.0 -0.067
1.763 0.361 0.03
1.763 0.626 0.294
1.763 0.722 0.656
1.588 0.985 1.014
1.588 0.803 1.33
1.588 0.524 1.564
1.588 0.182 1.688
1.588 -0.182 1.688
1.588 -0.524 1.564
1.588 -0.803 1.33
1.588 -0.985 1.014
1.588 -1.049 0.656
1.588 -0.985 0.297
1.588 -0.803 -0.018
1.588 0.803 -0.018
1.588 0.985 0.297
1.588 1.049 0.656
1.354 1.285 1.016
1.354 1.14 1.349
1.354 0.911 1.631
1.354 0.614 1.841
1.354 0.272 1.962
1.354 -0.091 1.987
1.354 -0.447 1.913
1.354 -0.77 1.746
1.354 -1.035 1.498
1.354 -1.224 1.187
1.354 -1.322 0.837
1.354 -1.322 0.474
1.354 -1.224 0.124
1.354 1.14 -0.038
1.354 1.285 0.296
1.354 1.335 0.656
1.068 1.527 1.018
1.068 1.402 1.36
1.068 1.202 1.664
1.068 0.937 1.914
1.068 0.622 2.097
1.068 0.273 2.201
1.068 -0.091 2.222
1.068 -0.45 2.159
1.068 -0.785 2.015
1.068 -1.077 1.797
1.068 -1.311 1.518
1.068 -1.475 1.192
1.068 -1.559 0.838
1.068 -1.559 0.473
1.068 -1.475 0.119
1.068 1.402 -0.049
1.068 1.527 0.294
1.068 1.569 0.656
0.741 1.706 1.018
0.741 1.593 1.365
0.741 1.411 1.681
0.741 1.167 1.952
0.741 0.872 2.166
0.741 0.539 2.314
0.741 0.182 2.39
0.741 -0.182 2.39
0.741 -0.539 2.314
0.741 -0.872 2.166
0.741 -1.167 1.952
0.741 -1.411 1.681
0.741 -1.593 1.365
0.741 -1.706 1.018
0.741 -1.744 0.656
0.741 -1.706 0.293
0.741 -1.593 -0.054
0.741 1.593 -0.054
0.741 1.706 0.293
0.741 1.744 0.656
0.387 1.816 1.017
0.387 1.71 1.364
0.387 1.539 1.684
0.387 1.309 1.965
0.387 1.028 2.195
0.387 0.708 2.366
0.387 0.361 2.471
0.387 0.0 2.507
0.387 -0.361 2.471
0.387 -0.708 2.366
0.387 -1.028 2.195
0.387 -1.309 1.965
0.387 -1.539 1.684
0.387 -1.71 1.364
0.387 -1.816 1.017
0.387 -1.851 0.656
0.387 -1.816 0.294
0.387 -1.71 -0.053
0.387 1.71 -0.053
0.387 1.816 0.294
0.387 1.851 0.656
0.019 1.853 1.013
0.019 1.752 1.357
0.019 1.588 1.676
0.019 1.366 1.958
0.019 1.095 2.193
0.019 0.784 2.373
0.019 0.445 2.49
0.019 0.09 2.541
0.019 -0.269 2.524
0.019 -0.617 2.439
0.019 -0.944 2.29
0.019 -1.236 2.082
0.019 -1.484 1.822
0.019 -1.678 1.521
0.019 -1.811 1.187
0.019 -1.879 0.835
0.019 -1.879 0.476
0.019 -1.811 0.124
0.019 1.853 0.298
0.019 1.888 0.656
-0.349 1.851 0.656
-0.349 1.816 1.017
-0.349 1.71 1.364
-0.349 1.539 1.684
-0.349 1.309 1.965
-0.349 1.028 2.195
-0.349 0.708 2.366
-0.349 0.361 2.471
-0.349 0.0 2.507
-0.349 -0.361 2.471
-0.349 -0.708 2.366
-0.349 -1.028 2.195
-0.349 -1.309 1.965
-0.349 -1.539 1.684
-0.349 -1.71 1.364
-0.349 -1.816 1.017
-0.349 -1.851 0.656
-0.349 -1.816 0.294
-0.349 1.816 0.294
-0.703 1.744 0.656
-0.703 1.706 1.018
-0.703 1.593 1.365
-0.703 1.411 1.681
-0.703 1.167 1.952
-0.703 0.872 2.166
-0.703 0.539 2.314
-0.703 0.182 2.39
-0.703 -0.182 2.39
-0.703 -0.539 2.314
-0.703 -0.872 2.166
-0.703 -1.167 1.952
-0.703 -1.411 1.681
-0.703 -1.593 1.365
-0.703 -1.706 1.018
-0.703 -1.744 0.656
-0.703 -1.706 0.293
-0.703 1.706 0.293
-1.03 1.569 0.656
-1.03 1.527 1.018
-1.03 1.402 1.36
-1.03 1.202 1.664
-1.03 0.937 1.914
-1.03 0.622 2.097
-1.03 0.273 2.201
-1.03 -0.091 2.222
-1.03 -0.45 2.159
-1.03 -0.785 2.015
-1.03 -1.077 1.797
-1.03 -1.311 1.518
-1.03 -1.475 1.192
-1.03 -1.559 0.838
-1.03 -1.559 0.473
-1.03 -1.475 0.119
-1.03 1.527 0.294
-1.316 1.335 0.656
-1.316 1.285 1.016
-1.316 1.14 1.349
-1.316 0.911 1.631
-1.316 0.614 1.841
-1.316 0.272 1.962
-1.316 -0.091 1.987
-1.316 -0.447 1.913
-1.316 -0.77 1.746
-1.316 -1.035 1.498
-1.316 -1.224 1.187
-1.316 -1.322 0.837
-1.316 -1.322 0.474
-1.316 -1.224 0.124
-1.316 1.285 0.296
-1.55 1.049 0.656
-1.55 0.985 1.014
-1.55 0.803 1.33
-1.55 0.524 1.564
-1.55 0.182 1.688
-1.55 -0.182 1.688
-1.55 -0.524 1.564
-1.55 -0.803 1.33
-1.55 -0.985 1.014
-1.55 -1.049 0.656
-1.55 -0.985 0.297
-1.55 0.985 0.297
-1.725 0.722 0.656
-1.725 0.626 1.017
-1.725 0.361 1.281
-1.725 -0.0 1.378
-1.725 -0.361 1.281
-1.725 -0.626 1.017
-1.725 -0.722 0.656
-1.725 -0.626 0.294
-1.725 0.626 0.294
-1.832 0.368 0.656
-1.832 0.184 0.974
-1.832 -0.184 0.974
-1.832 -0.368 0.656
-1.832 -0.184 0.337
-1.832 0.184 0.337
-1.868 -0.0 0.656
1.239 -0.0 -1.451
1.029 -0.279 -1.716
1.029 0.094 -1.751
1.239 0.357 -1.355
1.029 0.454 -1.648
1.029 0.752 -1.423
1.029 -0.613 -1.549
0.752 -0.525 -1.886
0.752 -0.18 -1.988
0.752 0.18 -1.988
0.752 0.525 -1.886
0.752 0.827 -1.692
0.752 1.063 -1.42
1.029 0.949 -1.105
0.752 1.212 -1.093
0.752 -1.063 -1.42
0.425 -1.334 -1.266
0.425 -1.161 -1.581
0.752 -0.827 -1.692
0.425 -0.915 -1.843
0.425 -0.611 -2.036
0.425 -0.269 -2.147
0.425 0.09 -2.17
0.425 0.444 -2.102
0.425 0.769 -1.949
0.425 1.046 -1.72
0.425 1.258 -1.429
0.425 1.39 -1.094
0.065 -1.48 -1.102
0.065 -1.349 -1.445
0.065 -1.141 -1.748
0.065 -0.866 -1.991
0.065 -0.54 -2.162
0.065 -0.184 -2.25
0.065 0.184 -2.25
0.065 0.54 -2.162
0.065 0.866 -1.991
0.065 1.141 -1.748
0.065 1.349 -1.445
0.065 1.48 -1.102
-0.305 -1.48 -1.102
-0.305 -1.349 -1.445
-0.305 -1.141 -1.748
-0.305 -0.866 -1.991
-0.305 -0.54 -2.162
-0.305 -0.184 -2.25
-0.305 0.184 -2.25
-0.305 0.54 -2.162
-0.305 0.866 -1.991
-0.305 1.141 -1.748
-0.305 1.349 -1.445
-0.305 1.48 -1.102
-0.664 -1.424 -0.917
-0.664 -1.334 -1.266
-0.664 -1.161 -1.581
-0.664 -0.915 -1.843
-0.664 -0.611 -2.036
-0.664 -0.269 -2.147
-0.664 0.09 -2.17
-0.664 0.444 -2.102
-0.664 0.769 -1.949
-0.664 1.046 -1.72
-0.664 1.258 -1.429
-0.664 1.39 -1.094
-0.992 -1.212 -1.093
-0.992 -1.063 -1.42
-0.992 -0.827 -1.692
-0.992 -0.525 -1.886
-0.992 -0.18 -1.988
-0.992 0.18 -1.988
-0.992 0.525 -1.886
-0.992 0.827 -1.692
-0.992 1.063 -1.42
-0.992 1.212 -1.093
-1.269 -1.001 -0.924
-1.269 -0.865 -1.273
-1.269 -0.613 -1.549
-1.269 -0.279 -1.716
-1.269 0.094 -1.751
-1.269 0.454 -1.648
-1.269 0.752 -1.423
-1.269 0.949 -1.105
-1.479 -0.618 -1.094
-1.479 -0.357 -1.355
-1.479 -0.0 -1.451
-1.479 0.357 -1.355
-1.479 0.618 -1.094
-1.61 -0.184 -1.055
-1.61 0.184 -1.055
0.752 -1.212 -1.093
1.467 -0.358 -0.642
1.365 -0.341 -0.929
1.507 -0.553 -0.3485
1.405 -0.536 -0.6355
1.161 -0.8115 -0.909
1.239 -0.357 -1.355
1.134 -0.485 -1.452
1.239 -0.1785 -1.403
1.239 0.1785 -1.403
1.029 -0.865 -1.273
0.8905 -1.0385 -1.183
0.8905 -0.964 -1.3465
0.752 -1.1375 -1.2565
0.8905 -0.846 -1.4825
0.752 -0.945 -1.556
1.029 -0.739 -1.411
0.8905 -0.72 -1.6205
1.321 0.1785 -1.144
1.321 0.0 -1.192
1.321 -0.1785 -1.144
1.2455 -0.5115 -1.1365
1.134 -0.611 -1.314
1.1405 -0.7655 -1.0955
1.0495 -0.911 -1.0865
0.911 -1.0845 -0.9965

CELLS 786 3144
3 0 1 2
3 3 4 5
3 4 6 7
3 7 6 8
3 6 9 8
3 8 9 10
3 9 11 10
3 10 11 12
3 11 13 12
3 12 13 14
3 13 15 14
3 14 15 16
3 15 17 16
3 16 17 18
3 17 19 18
3 18 19 20
3 19 21 20
3 20 21 22
3 21 23 22
3 22 23 24
3 23 25 24
3 24 25 26
3 25 27 26
3 26 27 28
3 27 29 28
3 28 29 30
3 29 31 30
3 30 31 32
3 31 33 32
3 32 33 34
3 33 35 34
3 34 35 36
3 35 37 36
3 36 37 38
3 37 39 38
3 38 39 40
3 39 41 40
3 40 41 42
3 41 43 42
3 42 43 44
3 43 45 44
3 44 45 46
3 45 47 46
3 46 47 48
3 47 49 48
3 48 49 50
3 49 51 50
3 50 51 52
3 51 53 52
3 52 53 54
3 53 0 54
3 54 0 2
3 55 56 57
3 55 57 58
3 55 58 59
3 55 59 60
3 55 60 61
3 55 61 56
3 57 56 62
3 57 62 63
3 57 63 64
3 58 57 64
3 58 64 65
3 58 65 66
3 59 58 66
3 59 66 67
3 59 67 68
3 60 59 68
3 60 68 69
3 60 69 70
3 61 60 70
3 61 70 71
3 61 71 72
3 56 61 72
3 56 72 73
3 56 73 62
3 62 73 74
3 62 74 75
3 63 62 75
3 63 75 76
3 63 76 77
3 64 63 77
3 64 77 78
3 65 64 78
3 65 78 79
3 65 79 80
3 66 65 80
3 66 80 81
3 67 66 81
3 67 81 82
3 67 82 83
3 68 67 83
3 68 83 84
3 69 68 84
3 72 71 85
3 72 85 86
3 73 72 86
3 73 86 87
3 73 87 74
3 74 87 88
3 74 88 89
3 75 74 89
3 75 89 90
3 76 75 90
3 76 90 91
3 77 76 91
3 77 91 92
3 77 92 93
3 78 77 93
3 78 93 94
3 79 78 94
3 79 94 95
3 80 79 95
3 80 95 96
3 80 96 97
3 81 80 97
3 81 97 98
3 82 81 98
3 82 98 99
3 83 82 99
3 83 99 100
3 84 83 100
3 86 85 101
3 86 101 102
3 87 86 102
3 87 102 103
3 87 103 88
3 88 103 104
3 88 104 105
3 89 88 105
3 89 105 106
3 90 89 106
3 90 106 107
3 91 90 107
3 91 107 108
3 92 91 108
3 92 108 109
3 93 92 109
3 93 109 110
3 93 110 111
3 94 93 111
3 94 111 112
3 95 94 112
3 95 112 113
3 96 95 113
3 96 113 114
3 97 96 114
3 97 114 115
3 98 97 115
3 98 115 116
3 98 116 117
3 99 98 117
3 99 117 118
3 100 99 118
3 102 101 119
3 102 119 120
3 103 102 120
3 103 120 121
3 103 121 104
3 104 121 122
3 104 122 123
3 105 104 123
3 105 123 124
3 106 105 124
3 106 124 125
3 107 106 125
3 107 125 126
3 108 107 126
3 108 126 127
3 109 108 127
3 109 127 128
3 110 109 128
3 110 128 129
3 111 110 129
3 111 129 130
3 112 111 130
3 112 130 131
3 112 131 132
3 113 112 132
3 113 132 133
3 114 113 133
3 114 133 134
3 115 114 134
3 115 134 135
3 116 115 135
3 116 135 136
3 117 116 136
3 117 136 137
3 118 117 137
3 118 137 138
3 120 119 139
3 120 139 140
3 121 120 140
3 121 140 141
3 121 141 122
3 122 141 142
3 122 142 143
3 123 122 143
3 123 143 144
3 124 123 144
3 124 144 145
3 125 124 145
3 125 145 146
3 126 125 146
3 126 146 147
3 127 126 147
3 127 147 148
3 128 127 148
3 128 148 149
3 129 128 149
3 129 149 150
3 130 129 150
3 130 150 151
3 131 130 151
3 131 151 152
3 132 131 152
3 132 152 153
3 133 132 153
3 133 153 154
3 134 133 154
3 134 154 155
3 135 134 155
3 135 155 156
3 136 135 156
3 136 156 157
3 136 157 158
3 137 136 158
3 137 158 159
3 138 137 159
3 140 139 160
3 140 160 161
3 141 140 161
3 141 161 162
3 141 162 142
3 142 162 163
3 142 163 164
3 143 142 164
3 143 164 165
3 144 143 165
3 144 165 166
3 145 144 166
3 145 166 167
3 146 145 167
3 146 167 168
3 147 146 168
3 147 168 169
3 148 147 169
3 148 169 170
3 149 148 170
3 149 170 171
3 150 149 171
3 150 171 172
3 151 150 172
3 151 172 173
3 152 151 173
3 152 173 174
3 153 152 174
3 153 174 175
3 154 153 175
3 154 175 176
3 155 154 176
3 155 176 177
3 156 155 177
3 156 177 178
3 157 156 178
3 157 178 179
3 158 157 179
3 158 179 180
3 159 158 180
3 162 161 181
3 162 181 182
3 162 182 163
3 163 182 183
3 163 183 184
3 164 163 184
3 164 184 185
3 165 164 185
3 165 185 186
3 166 165 186
3 166 186 187
3 167 166 187
3 167 187 188
3 168 167 188
3 168 188 189
3 169 168 189
3 169 189 190
3 170 169 190
3 170 190 191
3 171 170 191
3 171 191 192
3 172 171 192
3 172 192 193
3 173 172 193
3 173 193 194
3 174 173 194
3 174 194 195
3 175 174 195
3 175 195 196
3 176 175 196
3 176 196 197
3 177 176 197
3 177 197 198
3 178 177 198
3 178 198 199
3 179 178 199
3 179 199 200
3 180 179 200
3 183 181 201
3 182 181 183
3 184 183 202
3 184 202 203
3 185 184 203
3 185 203 204
3 186 185 204
3 186 204 205
3 187 186 205
3 187 205 206
3 188 187 206
3 188 206 207
3 189 188 207
3 189 207 208
3 190 189 208
3 190 208 209
3 191 190 209
3 191 209 210
3 192 191 210
3 192 210 211
3 193 192 211
3 193 211 212
3 194 193 212
3 194 212 213
3 195 194 213
3 195 213 214
3 196 195 214
3 196 214 215
3 197 196 215
3 197 215 216
3 198 197 216
3 198 216 217
3 199 198 217
3 200 199 217
3 200 217 218
3 202 201 219
3 183 201 202
3 203 202 220
3 203 220 221
3 204 203 221
3 204 221 222
3 205 204 222
3 205 222 223
3 206 205 223
3 206 223 224
3 207 206 224
3 207 224 225
3 208 207 225
3 208 225 226
3 209 208 226
3 209 226 227
3 210 209 227
3 210 227 228
3 211 210 228
3 211 228 229
3 212 211 229
3 213 212 229
3 213 229 230
3 214 213 230
3 214 230 231
3 215 214 231
3 215 231 232
3 216 215 232
3 216 232 233
3 217 216 233
3 217 233 234
3 218 217 234
3 218 234 235
3 220 219 236
3 202 219 220
3 221 220 237
3 221 237 238
3 222 221 238
3 222 238 239
3 223 222 239
3 223 239 240
3 224 223 240
3 224 240 241
3 225 224 241
3 225 241 242
3 226 225 242
3 226 242 243
3 227 226 243
3 228 227 243
3 228 243 244
3 229 228 244
3 229 244 245
3 230 229 245
3 230 245 246
3 231 230 246
3 231 246 247
3 232 231 247
3 232 247 248
3 233 232 248
3 233 248 249
3 234 233 249
3 235 234 249
3 235 249 250
3 237 236 251
3 220 236 237
3 238 237 252
3 238 252 253
3 239 238 253
3 239 253 254
3 240 239 254
3 240 254 255
3 241 240 255
3 241 255 256
3 242 241 256
3 243 242 256
3 243 256 257
3 244 243 257
3 244 257 258
3 245 244 258
3 245 258 259
3 246 245 259
3 247 246 259
3 247 259 260
3 248 247 260
3 248 260 261
3 249 248 261
3 249 261 262
3 250 249 262
3 252 251 263
3 237 251 252
3 253 252 264
3 253 264 265
3 254 253 265
3 254 265 266
3 255 254 266
3 256 255 266
3 256 266 267
3 257 256 267
3 257 267 268
3 258 257 268
3 259 258 268
3 259 268 269
3 260 259 269
3 260 269 270
3 261 260 270
3 262 261 270
3 262 270 271
3 264 263 272
3 252 263 264
3 265 264 273
3 265 273 274
3 266 265 274
3 267 266 274
3 267 274 275
3 268 267 275
3 269 268 275
3 269 275 276
3 270 269 276
3 271 270 276
3 271 276 277
3 273 272 278
3 264 272 273
3 274 273 279
3 275 274 279
3 276 275 279
3 277 276 279
3 278 277 279
3 273 278 279
3 278 272 29
3 278 29 27
3 278 27 277
3 277 27 25
3 277 25 271
3 271 25 23
3 271 23 262
3 262 23 21
3 262 21 250
3 250 21 19
3 250 19 235
3 235 19 17
3 235 17 218
3 218 17 15
3 218 15 200
3 200 15 180
3 180 15 13
3 180 13 11
3 180 11 159
3 159 11 9
3 159 9 138
3 138 9 6
3 138 6 118
3 118 6 100
3 100 6 4
3 100 4 84
3 84 4 3
3 84 1 69
3 69 1 70
3 70 1 0
3 70 0 53
3 70 53 71
3 71 53 85
3 85 53 51
3 85 51 49
3 85 49 101
3 101 49 119
3 119 49 47
3 119 47 139
3 139 47 45
3 139 45 160
3 160 45 43
3 160 43 41
3 160 41 181
3 160 181 161
3 181 41 201
3 201 41 39
3 201 39 219
3 219 39 37
3 219 37 236
3 236 37 35
3 236 35 251
3 251 35 33
3 251 33 263
3 263 33 31
3 263 31 272
3 272 31 29
3 280 281 282
3 283 282 284
3 283 284 285
3 281 286 287
3 281 287 288
3 282 281 288
3 282 288 289
3 284 282 289
3 284 289 290
3 284 290 291
3 285 284 291
3 285 291 292
3 293 285 292
3 293 292 294
3 295 296 297
3 298 297 299
3 287 298 299
3 287 299 300
3 287 300 301
3 288 287 301
3 288 301 302
3 289 288 302
3 289 302 303
3 290 289 303
3 290 303 304
3 291 290 304
3 291 304 305
3 292 291 305
3 292 305 306
3 294 292 306
3 294 306 307
3 296 308 309
3 297 296 309
3 297 309 310
3 299 297 310
3 299 310 311
3 300 299 311
3 300 311 312
3 301 300 312
3 301 312 313
3 302 301 313
3 302 313 314
3 303 302 314
3 303 314 315
3 304 303 315
3 304 315 316
3 305 304 316
3 305 316 317
3 306 305 317
3 306 317 318
3 307 306 318
3 307 318 319
3 308 320 321
3 309 308 321
3 309 321 322
3 310 309 322
3 310 322 323
3 311 310 323
3 311 323 324
3 312 311 324
3 312 324 325
3 313 312 325
3 313 325 326
3 314 313 326
3 314 326 327
3 315 314 327
3 315 327 328
3 316 315 328
3 316 328 329
3 317 316 329
3 317 329 330
3 318 317 330
3 318 330 331
3 319 318 331
3 320 332 333
3 321 320 333
3 321 333 334
3 322 321 334
3 322 334 335
3 323 322 335
3 323 335 336
3 324 323 336
3 324 336 337
3 325 324 337
3 325 337 338
3 326 325 338
3 326 338 339
3 327 326 339
3 327 339 340
3 328 327 340
3 328 340 341
3 329 328 341
3 329 341 342
3 330 329 342
3 330 342 343
3 331 330 343
3 333 332 344
3 333 344 345
3 334 333 345
3 334 345 346
3 335 334 346
3 335 346 347
3 336 335 347
3 337 336 347
3 337 347 348
3 338 337 348
3 338 348 349
3 339 338 349
3 339 349 350
3 340 339 350
3 340 350 351
3 341 340 351
3 341 351 352
3 342 341 352
3 342 352 353
3 343 342 353
3 344 354 355
3 345 344 355
3 346 345 355
3 346 355 356
3 347 346 356
3 347 356 357
3 348 347 357
3 348 357 358
3 349 348 358
3 349 358 359
3 350 349 359
3 351 350 359
3 351 359 360
3 352 351 360
3 352 360 361
3 353 352 361
3 355 354 362
3 356 355 362
3 356 362 363
3 357 356 363
3 357 363 364
3 358 357 364
3 358 364 365
3 359 358 365
3 360 359 365
3 360 365 366
3 361 360 366
3 363 362 367
3 364 363 367
3 364 367 368
3 365 364 368
3 366 365 368
3 366 368 30
3 366 30 32
3 366 32 34
3 366 34 361
3 361 34 36
3 361 36 353
3 353 36 38
3 353 38 343
3 343 38 40
3 343 40 331
3 331 40 42
3 331 42 319
3 319 42 44
3 319 44 307
3 307 44 46
3 307 46 294
3 294 46 48
3 294 48 293
3 293 48 50
3 293 50 52
3 293 52 285
3 285 52 283
3 283 52 54
3 369 8 10
3 369 10 296
3 296 10 12
3 296 12 308
3 308 12 14
3 308 14 320
3 320 14 16
3 320 16 332
3 332 16 18
3 332 18 344
3 344 18 20
3 344 20 354
3 354 20 22
3 354 22 24
3 354 24 362
3 362 24 26
3 362 26 367
3 367 26 28
3 367 28 368
3 368 28 30
3 1 370 2
3 2 370 371
3 1 372 370
3 372 373 370
3 372 3 373
3 370 373 371
3 371 373 5
3 373 3 5
3 7 374 4
3 5 374 4
3 3 372 84
3 84 372 1
3 375 376 281
3 376 286 281
3 280 377 281
3 377 375 281
3 283 378 282
3 378 280 282
3 379 380 381
3 380 382 381
3 380 369 382
3 381 382 295
3 379 381 383
3 381 384 383
3 381 295 384
3 383 384 298
3 286 385 386
3 385 383 386
3 385 379 383
3 386 383 298
3 286 386 287
3 386 298 287
3 295 382 296
3 382 369 296
3 298 384 297
3 384 295 297
3 2 387 54
3 283 387 54
3 283 387 378
3 387 388 378
3 387 2 388
3 378 388 280
3 280 388 377
3 388 389 377
3 388 2 389
3 377 389 375
3 375 389 371
3 389 2 371
3 5 390 371
3 375 390 371
3 375 390 391
3 390 392 391
3 390 5 392
3 391 392 379
3 375 391 376
3 391 385 376
3 391 379 385
3 376 385 286
3 379 392 393
3 392 374 393
3 392 5 374
3 393 374 7
3 379 393 380
3 393 394 380
3 393 7 394
3 380 394 369
3 369 394 8
3 394 7 8

CELL_TYPES 786
5
5
5
5
5
5
5
5
5
5
5
5
5
5
5
5
5
5
5
5
5
5
5
5
5
5
5
5
5
5
5
5
5
5
5
5
5
5
5
5
5
5
5
5
5
5
5
5
5
5
5
5
5
5
5
5
5
5
5
5
5
5
5
5
5
5
5
5
5
5
5
5
5
5
5
5
5
5
5
5
5
5
5
5
5
5
5
5
5
5
5
5
5
5
5
5
5
5
5
5
5
5
5
5
5
5
5
5
5
5
5
5
5
5
5
5
5
5
5
5
5
5
5
5
5
5
5
5
5
5
5
5
5
5
5
5
5
5
5
5
5
5
5
5
5
5
5
5
5
5
5
5
5
5
5
5
5
5
5
5
5
5
5
5
5
5
5
5
5
5
5
5
5
5
5
5
5
5
5
5
5
5
5
5
5
5
5
5
5
5
5
5
5
5
5
5
5
5
5
5
5
5
5
5
5
5
5
5
5
5
5
5
5
5
5
5
5
5
5
5
5
5
5
5
5
5
5
5
5
5
5
5
5
5
5
5
5
5
5
5
5
5
5
5
5
5
5
5
5
5
5
5
5
5
5
5
5
5
5
5
5
5
5
5
5
5
5
5
5
5
5
5
5
5
5
5
5
5
5
5
5
5
5
5
5
5
5
5
5
5
5
5
5
5
5
5
5
5
5
5
5
5
5
5
5
5
5
5
5
5
5
5
5
5
5
5
5
5
5
5
5
5
5
5
5
5
5
5
5
5
5
5
5
5
5
5
5
5
5
5
5
5
5
5
5
5
5
5
5
5
5
5
5
5
5
5
5
5
5
5
5
5
5
5
5
5
5
5
5
5
5
5
5
5
5
5
5
5
5
5
5
5
5
5
5
5
5
5
5
5
5
5
5
5
5
5
5
5
5
5
5
5
5
5
5
5
5
5
5
5
5
5
5
5
5
5
5
5
5
5
5
5
5
5
5
5
5
5
5
5
5
5
5
5
5
5
5
5
5
5
5
5
5
5
5
5
5
5
5
5
5
5
5
5
5
5
5
5
5
5
5
5
5
5
5
5
5
5
5
5
5
5
5
5
5
5
5
5
5
5
5
5
5
5
5
5
5
5
5
5
5
5
5
5
5
5
5
5
5
5
5
5
5
5
5
5
5
5
5
5
5
5
5
5
5
5
5
5
5
5
5
5
5
5
5
5
5
5
5
5
5
5
5
5
5
5
5
5
5
5
5
5
5
5
5
5
5
5
5
5
5
5
5
5
5
5
5
5
5
5
5
5
5
5
5
5
5
5
5
5
5
5
5
5
5
5
5
5
5
5
5
5
5
5
5
5
5
5
5
5
5
5
5
5
5
5
5
5
5
5
5
5
5
5
5
5
5
5
5
5
5
5
5
5
5
5
5
5
5
5
5
5
5
5
5
5
5
5
5
5
5
5
5
5
5
5
5
5
5
5
5
5
5
5
5
5
5
5
5
5
5
5
5
5
5
5
5
5
5
5
5
5
5
5
5
5
5
5
5
5
5
5
5
5
5
5
5
5
5
5
5
5
5
5
5
5
5
5
5
5
5
5
5
5
5
5
5
5
5
5
5
5
5
5
5
5
5
5
5
5
5
5
5
5
5
5
5
5
5
5
5
5
5
5
5
5
5
5
5
5
5
5
5
5
5
5
5
5
5
5
5
5
5
5
5
5
5
5
5
5
5
5
5
5
5
5
5
5
5
5
5
5
5
5
5
5
5
5
5
5
5
5
5
5
5
5
5
5
5
5
5
5
5
5
5
5

CELL_DATA 786
SCALARS cell_data_0 double
LOOKUP_TABLE default
1.62432095066e-06
2.02526539931e-07
1.0793526395e-07
1.14558479981e-07
3.1398958327e-07
2.51028340868e-07
5.26603720011e-07
1.2549610246e-07
6.99816307999e-07
1.4666681631e-08
8.07293711295e-07
1.30083512037e-07
8.95662343462e-07
2.20475900359e-07
9.44812649493e-07
2.98544549258e-07
9.62518782887e-07
3.63568198305e-07
9.81023252346e-07
4.05618148152e-07
9.94575328811e-07
4.47810077068e-07
9.75421593827e-07
4.86073157838e-07
9.55012278362e-07
5.07131983342e-07
9.2057834183e-07
5.30953128178e-07
8.68894831345e-07
5.41785946028e-07
8.13019267492e-07
5.53049580613e-07
7.1660770338e-07
5.54835303479e-07
6.02402970174e-07
5.46076185167e-07
4.5111995354e-07
5.16578069197e-07
2.75187351584e-07
4.52471049126e-07
6.92004247723e-08
3.36612645866e-07
9.22688543103e-08
1.46448026133e-07
2.60678791627e-08
6.57057379113e-08
1.15930018658e-06
3.1670439709e-07
4.08315165342e-06
3.09103574117e-07
7.66807955444e-07
3.86923755699e-07
3.48714867567e-09
1.15383294412e-09
6.00300719045e-09
1.89373044398e-09
1.56792995019e-08
1.72497010415e-08
1.76927252462e-09
1.51800898379e-09
2.07452251838e-09
5.96727714311e-10
6.6434725778e-12
9.42161034244e-09
1.57574061746e-08
2.89585757236e-08
7.48036237734e-08
5.33175567414e-08
4.35613783405e-08
2.07827045214e-08
4.40223838605e-08
6.36712739892e-08
5.71928291929e-08
4.11339695705e-08
1.83296572974e-08
5.1146554673e-11
9.57263789399e-09
1.27806187807e-08
6.6237266272e-09
5.70082878795e-09
4.22985711202e-10
4.98243350842e-09
7.56492885444e-09
7.75718192982e-09
1.02550323838e-08
1.03452334663e-08
2.95083127026e-09
3.37598760807e-09
2.48229888763e-08
3.0386667356e-08
4.94360293453e-08
9.85121117148e-08
4.85391399297e-08
3.22431364282e-08
6.35830096938e-08
4.03582907767e-08
2.84699194198e-08
6.01909246134e-09
1.18270125986e-08
2.24458334545e-08
2.45572119319e-08
2.01614160485e-08
1.84460015534e-08
1.17390637538e-08
9.31599692414e-09
1.36160131597e-09
1.05446758512e-09
6.93720511449e-09
1.08658213723e-08
1.45688185988e-08
1.74570029353e-08
2.01350836278e-08
1.8477396587e-08
2.0517116216e-08
1.87938469315e-08
1.02850409866e-08
5.96807036431e-09
1.43139072308e-08
1.48103275738e-08
3.14002269594e-08
1.50281210139e-08
3.47543532858e-09
3.08210751699e-08
1.60921456244e-08
9.23413279365e-09
1.04120767825e-08
2.55100364333e-08
3.5809358647e-08
3.62249928006e-08
3.14488157659e-08
2.89421820247e-08
2.31898675111e-08
1.97327505076e-08
1.39012838217e-08
1.061105838e-08
3.7589032933e-09
4.09316656307e-10
6.61960780122e-09
9.41304009545e-09
1.52355829212e-08
1.85556497855e-08
2.29693513107e-08
2.53825602052e-08
2.88192767484e-08
2.87845316944e-08
3.07709603154e-08
2.58027642936e-08
2.60737721499e-08
1.52040210056e-08
1.39716898862e-08
5.68454574422e-09
1.51302989337e-10
9.71574434383e-10
2.32696928255e-09
3.06126591446e-09
1.03634170971e-08
1.06940355123e-08
2.852402288e-08
4.02097543913e-08
4.9217956432e-08
4.70750968725e-08
4.18492438546e-08
3.78867641241e-08
3.26100841551e-08
2.81131051115e-08
2.2933024538e-08
1.8525961246e-08
1.30624621902e-08
8.69358478373e-09
3.05801907826e-09
8.73035764813e-10
6.63817280451e-09
1.04193756432e-08
1.61739998458e-08
1.98582261782e-08
2.48095978691e-08
2.85343194748e-08
3.37227893157e-08
3.48148557559e-08
3.90373833387e-08
3.81466103922e-08
3.94029177463e-08
3.50174090821e-08
2.94380100576e-08
1.98194454572e-08
5.60678925722e-09
1.87056065252e-10
9.22617451018e-09
2.0453536e-09
3.45226704729e-09
3.35629500763e-08
3.48827677298e-08
3.06678883754e-08
4.63894979299e-08
5.45405021043e-08
6.13446650283e-08
5.71465989911e-08
5.11962813442e-08
4.62979369294e-08
4.06675702079e-08
3.56131514087e-08
3.01447247139e-08
2.49252746149e-08
1.96785790895e-08
1.44821340792e-08
9.53684178287e-09
4.59696776445e-09
2.39907988637e-10
4.87281584578e-09
9.81772919275e-09
1.44092005794e-08
1.93453388978e-08
2.35579116099e-08
2.81942825901e-08
3.25389979508e-08
3.65006191722e-08
4.04723600033e-08
4.26826224417e-08
4.55653754162e-08
4.42407362056e-08
4.43684216463e-08
3.46248231622e-08
2.57828738793e-08
5.02604663937e-09
2.32513500392e-08
4.31574209955e-08
2.5150387938e-08
6.02040488659e-09
1.88106816747e-09
5.61253792909e-08
5.4673761017e-08
4.89688656142e-08
6.24013197886e-08
6.72537819663e-08
7.17739733355e-08
6.48967270006e-08
5.97792050144e-08
5.23192520172e-08
4.77016132923e-08
4.02445130528e-08
3.60626740418e-08
2.90593438731e-08
2.49422730522e-08
1.82389512737e-08
1.39188530757e-08
7.9073836907e-09
3.75629882658e-09
1.90019096849e-09
6.00512800008e-09
1.16215514133e-08
1.57419251169e-08
2.13364951862e-08
2.53864606403e-08
3.09165004016e-08
3.47305504158e-08
3.98175305608e-08
4.31183791512e-08
4.71112336535e-08
4.88350960156e-08
4.98586713889e-08
4.81187728848e-08
4.0558980405e-08
2.84273208376e-08
4.07650991541e-09
2.81093967442e-08
2.33177620949e-08
2.7292619548e-08
3.75356104738e-09
4.47553853755e-09
4.38095641619e-08
5.24679126563e-08
7.64772302467e-08
6.64163672241e-08
5.28482931555e-08
5.63573811417e-08
4.47506100642e-08
4.60129411085e-08
3.60835641751e-08
3.53112017478e-08
2.75902060524e-08
2.58554475234e-08
1.96421246271e-08
1.65036448352e-08
1.16680194754e-08
7.71583991485e-09
4.419164189e-09
7.4749717676e-10
2.78294890269e-09
9.27020300751e-09
1.0034478046e-08
1.77881322211e-08
1.72290203282e-08
2.63232973664e-08
2.43524111555e-08
3.42411491218e-08
3.1134762005e-08
4.1210773881e-08
3.68491909841e-08
4.48862353639e-08
3.91152091226e-08
3.88477418232e-08
3.05588266094e-08
1.17663659884e-08
2.03743608282e-09
5.04936999895e-09
1.1321504424e-09
7.38241755276e-09
2.36869742195e-08
4.42150848484e-08
4.4878434032e-08
4.42860034184e-08
3.96958043642e-08
3.87708190131e-08
3.29569043457e-08
3.11803453923e-08
2.59915295242e-08
2.38207766977e-08
1.89669555923e-08
1.63617809774e-08
1.23160512409e-08
9.64754323757e-09
6.17136415658e-09
3.03662911485e-09
3.07442954405e-11
3.25535375381e-09
5.90924018924e-09
9.85011814283e-09
1.21004162407e-08
1.63396430734e-08
1.81506237957e-08
2.27235583798e-08
2.41600346963e-08
2.84545510043e-08
2.92498712519e-08
3.21774038056e-08
3.18230731878e-08
2.88813839659e-08
2.54715108292e-08
1.17709658711e-08
3.6819353948e-09
1.26131844639e-09
3.74256824978e-09
2.61246953568e-08
3.55076060741e-08
4.68497523573e-08
4.63519558124e-08
4.17443288127e-08
4.0106820444e-08
3.41507530358e-08
3.19866202177e-08
2.58979247764e-08
2.29060327731e-08
1.7749744407e-08
1.46002424802e-08
1.0490021381e-08
6.43798060953e-09
2.85874758745e-09
1.76550456547e-09
4.13956059968e-09
9.31948887513e-09
1.15852820709e-08
1.7445621001e-08
1.91766601915e-08
2.30588841068e-08
2.66900027151e-08
2.90653980342e-08
3.22149840465e-08
3.27023181484e-08
3.2894552215e-08
2.75446265198e-08
1.72442714343e-08
3.76482825922e-09
3.90082403829e-08
3.08903495681e-08
1.14015553057e-08
2.76396398139e-08
3.73005065386e-08
4.75776286679e-08
4.68159386095e-08
4.18839006851e-08
3.99791059925e-08
3.35990951865e-08
3.03337382848e-08
2.38199474612e-08
1.91933057106e-08
1.43427773473e-08
9.07256692297e-09
5.33682383104e-09
1.60012762661e-09
4.26192867204e-09
9.35178043422e-09
1.37983885705e-08
1.77435753785e-08
2.30600187274e-08
2.57795001155e-08
3.04617204769e-08
3.15411738437e-08
3.24971787991e-08
3.0510884077e-08
1.73727621748e-08
7.49931898633e-09
4.5176772753e-08
8.07677741461e-08
4.6174381493e-08
2.20107348083e-09
2.77000974448e-08
3.77390488046e-08
4.72425673442e-08
4.67088665618e-08
4.04482025374e-08
3.79782198175e-08
2.97164717332e-08
2.44005287462e-08
1.79043701081e-08
9.51734017527e-09
5.60067307506e-09
1.48940286161e-09
7.83030539594e-09
1.28662564068e-08
2.03881023609e-08
2.32548480799e-08
2.93849509747e-08
3.02151560818e-08
3.04989545957e-08
2.38874457831e-08
1.09032754755e-08
1.79084129632e-08
6.20342871503e-08
5.60857473361e-08
1.49171081451e-08
2.74348544974e-08
3.77020439344e-08
4.67243015763e-08
4.62148096641e-08
3.54569949978e-08
2.86228837543e-08
1.98910170971e-08
9.8013454747e-09
4.27289946099e-10
8.04913491933e-09
1.94791800129e-08
2.27191413981e-08
2.75015640451e-08
2.48018785375e-08
1.76264132943e-08
1.57981852145e-08
3.71592660905e-08
3.89917469016e-08
2.47004857247e-08
2.83087187658e-08
3.76288788796e-08
4.16350363044e-08
2.83616035092e-08
1.55592877135e-08
7.69373831413e-10
1.13728921479e-08
1.74621674005e-08
1.52915655707e-08
1.23053066193e-08
3.49770638885e-08
3.93881897202e-08
1.98669568679e-08
2.50726543328e-08
3.54720039153e-08
1.14482393458e-05
1.08657705169e-05
1.05154926043e-05
1.08560314921e-05
1.1589801214e-05
1.18605602008e-05
3.21322427224e-07
9.5572907669e-07
3.39172874923e-07
1.09092463844e-06
4.83242081788e-07
9.91370657208e-07
4.09680866224e-07
1.01597661293e-06
2.23823173683e-07
4.85441448667e-07
1.50968146982e-07
5.14263384296e-07
2.98057046866e-07
1.02523592371e-06
3.80047555094e-07
3.56819511736e-07
5.67541114789e-07
4.10928772797e-07
5.26903022522e-08
1.43643156206e-07
2.26374733651e-08
5.08230561785e-08
3.97981803677e-09
1.71158514874e-08
8.0675093953e-08
8.59113588994e-09
5.08919798414e-08
3.65158750296e-06
2.75074764149e-06
1.89805602385e-06
1.30255125871e-06
1.79581004477e-06
2.41404351748e-06
3.13462086648e-06
7.2815212761e-07
2.64548539293e-08
6.32920150399e-08
2.73198197004e-08
4.35501133584e-10
2.63555024448e-08
1.2474414394e-08
1.06315368818e-07
2.15043096378e-07
2.85534667519e-07
4.44522491446e-08
2.79511261634e-07
8.49163913125e-07
3.02391614643e-07
9.14836122359e-07
3.04564993625e-07
9.30302115474e-07
2.93617334172e-07
9.24246041397e-07
2.8145621992e-07
8.83435218626e-07
2.64296620444e-07
8.422260904e-07
7.15759680431e-06
5.13441176563e-06
1.15990974554e-06
1.53329743374e-06
8.1081976096e-07
2.81584249444e-06
3.59099811066e-07
1.77426772968e-06
7.40592297893e-08
5.10258708151e-07
9.26137852018e-07
2.62871046528e-08
2.31238090423e-08
1.24880413304e-07
8.8163558127e-08
2.44936679379e-07
2.5780565359e-08
7.67661242377e-08
2.64563735462e-07
3.29110091786e-07
3.9492853386e-07
9.10826609461e-07
1.2550320407e-06
1.56241406269e-06
1.36240016639e-06
6.56244796283e-07
6.81710114478e-07
3.47063444025e-07
6.73779249067e-07
2.59929790896e-07
2.27966416989e-07
2.5507294903e-07
4.35508958434e-08
1.8735833249e-07
4.09104535206e-08
1.0780968043e-07
2.8979350772e-09
5.9297521431e-08
1.82604738516e-07
3.20913133759e-07
4.88893135769e-07
6.1380988975e-07
7.92719140068e-07
7.74108893692e-07
1.09406678885e-06
1.17508011033e-06
1.33410658333e-06
1.09841023648e-06