# vtk DataFile Version 3.0
File Name: Molecule/methanol/methanol_5.0-3.vtk
ASCII
DATASET UNSTRUCTURED_GRID
FIELD FieldData 1
TIME 1 1 double
0.0
POINTS 319 double
1.345 -0.911 -0.332
1.032 -1.273 -0.301
1.16 -0.83 -0.909
0.876 -1.16 -0.88
0.631 -1.532 -0.261
0.173 -1.667 -0.216
0.51 -1.396 -0.844
0.093 -1.519 -0.802
-0.304 -1.667 -0.168
-0.341 -1.519 -0.759
-0.762 -1.532 -0.123
-0.758 -1.396 -0.718
-1.163 -1.273 -0.083
-1.124 -1.16 -0.681
-1.475 -0.911 -0.051
-1.408 -0.83 -0.653
-1.674 -0.475 -0.032
-1.589 -0.432 -0.635
-1.742 -0.0 -0.025
-1.651 -0.0 -0.629
-1.674 0.475 -0.032
-1.589 0.432 -0.635
-1.475 0.911 -0.051
-1.408 0.83 -0.653
-1.163 1.273 -0.083
-1.124 1.16 -0.681
-0.762 1.532 -0.123
-0.304 1.667 -0.168
-0.758 1.396 -0.718
-0.341 1.519 -0.759
0.173 1.667 -0.216
0.093 1.519 -0.802
0.631 1.532 -0.261
0.51 1.396 -0.844
0.876 1.16 -0.88
1.345 0.911 -0.332
1.16 0.83 -0.909
1.543 0.475 -0.352
1.341 0.432 -0.927
1.907 0.0 0.656
1.852 0.452 0.656
1.852 0.226 1.047
1.852 -0.226 1.047
1.852 -0.452 0.656
1.852 -0.226 0.264
1.852 0.226 0.264
1.69 0.76 1.094
1.69 0.439 1.415
1.69 -0.0 1.533
1.69 -0.439 1.415
1.69 -0.76 1.094
1.69 -0.877 0.656
1.69 -0.76 0.217
1.69 -0.439 -0.104
1.69 0.439 -0.104
1.69 0.76 0.217
1.69 0.877 0.656
1.432 1.167 1.108
1.432 0.925 1.499
1.432 0.558 1.776
1.432 0.115 1.902
1.432 -0.343 1.859
1.432 -0.754 1.654
1.432 -1.064 1.315
1.432 -1.23 0.886
1.432 -1.23 0.426
1.432 -1.064 -0.003
1.432 1.167 0.203
1.432 1.252 0.656
1.091 1.484 1.113
1.091 1.283 1.531
1.091 0.969 1.87
1.091 0.568 2.102
1.091 0.116 2.205
1.091 -0.346 2.17
1.091 -0.777 2.001
1.091 -1.139 1.712
1.091 -1.4 1.33
1.091 -1.536 0.887
1.091 -1.536 0.424
1.091 -1.4 -0.018
1.091 1.484 0.198
1.091 1.553 0.656
0.688 1.705 1.112
0.688 1.528 1.538
0.688 1.248 1.904
0.688 0.882 2.184
0.688 0.457 2.36
0.688 0.0 2.42
0.688 -0.457 2.36
0.688 -0.882 2.184
0.688 -1.248 1.904
0.688 -1.528 1.538
0.688 -1.705 1.112
0.688 -1.765 0.656
0.688 -1.705 0.199
0.688 1.705 0.199
0.688 1.765 0.656
0.247 1.815 1.122
0.247 1.642 1.558
0.247 1.366 1.938
0.247 1.004 2.238
0.247 0.579 2.438
0.247 0.118 2.526
0.247 -0.351 2.496
0.247 -0.798 2.351
0.247 -1.194 2.099
0.247 -1.516 1.757
0.247 -1.742 1.345
0.247 -1.859 0.89
0.247 -1.859 0.421
0.247 1.815 0.19
0.247 1.874 0.656
-0.209 1.815 1.122
-0.209 1.642 1.558
-0.209 1.366 1.938
-0.209 1.004 2.238
-0.209 0.579 2.438
-0.209 0.118 2.526
-0.209 -0.351 2.496
-0.209 -0.798 2.351
-0.209 -1.194 2.099
-0.209 -1.516 1.757
-0.209 -1.742 1.345
-0.209 -1.859 0.89
-0.209 -1.859 0.421
-0.209 1.815 0.19
-0.209 1.874 0.656
-0.65 1.765 0.656
-0.65 1.705 1.112
-0.65 1.528 1.538
-0.65 1.248 1.904
-0.65 0.882 2.184
-0.65 0.457 2.36
-0.65 0.0 2.42
-0.65 -0.457 2.36
-0.65 -0.882 2.184
-0.65 -1.248 1.904
-0.65 -1.528 1.538
-0.65 -1.705 1.112
-0.65 -1.765 0.656
-0.65 -1.705 0.199
-0.65 1.705 0.199
-1.053 1.553 0.656
-1.053 1.484 1.113
-1.053 1.283 1.531
-1.053 0.969 1.87
-1.053 0.568 2.102
-1.053 0.116 2.205
-1.053 -0.346 2.17
-1.053 -0.777 2.001
-1.053 -1.139 1.712
-1.053 -1.4 1.33
-1.053 -1.536 0.887
-1.053 -1.536 0.424
-1.053 1.484 0.198
-1.394 1.252 0.656
-1.394 1.167 1.108
-1.394 0.925 1.499
-1.394 0.558 1.776
-1.394 0.115 1.902
-1.394 -0.343 1.859
-1.394 -0.754 1.654
-1.394 -1.064 1.315
-1.394 -1.23 0.886
-1.394 -1.23 0.426
-1.394 1.167 0.203
-1.652 0.877 0.656
-1.652 0.76 1.094
-1.652 0.439 1.415
-1.652 -0.0 1.533
-1.652 -0.439 1.415
-1.652 -0.76 1.094
-1.652 -0.877 0.656
-1.652 -0.76 0.217
-1.652 0.76 0.217
-1.814 0.452 0.656
-1.814 0.226 1.047
-1.814 -0.226 1.047
-1.814 -0.452 0.656
-1.868 -0.0 0.656
-1.814 0.226 0.264
1.611 0.0 -0.359
1.032 1.273 -0.301
1.122 -0.451 -1.519
0.783 -0.878 -1.615
0.783 -0.475 -1.885
1.122 -0.0 -1.639
0.783 0.0 -1.979
0.783 0.475 -1.885
1.122 0.451 -1.519
0.783 0.878 -1.615
1.122 0.781 -1.188
0.783 1.147 -1.212
0.355 -0.989 -1.811
0.355 -0.586 -2.074
0.355 -0.121 -2.192
0.355 0.358 -2.152
0.355 0.798 -1.959
0.355 1.152 -1.634
0.355 1.381 -1.211
0.355 -1.284 -1.432
-0.12 -1.383 -1.403
-0.12 -1.125 -1.781
-0.12 -0.767 -2.067
-0.12 -0.342 -2.234
-0.12 0.115 -2.268
-0.12 0.561 -2.166
-0.12 0.957 -1.937
-0.12 1.268 -1.602
-0.12 1.467 -1.19
-0.594 -1.44 -0.977
-0.594 -1.284 -1.432
-0.594 -0.989 -1.811
-0.594 -0.586 -2.074
-0.594 -0.121 -2.192
-0.594 0.358 -2.152
-0.594 0.798 -1.959
-0.594 1.152 -1.634
-0.594 1.381 -1.211
-1.022 -1.147 -1.212
-1.022 -0.878 -1.615
-1.022 -0.475 -1.885
-1.022 0.0 -1.979
-1.022 0.475 -1.885
-1.022 0.878 -1.615
-1.362 -0.781 -1.188
-1.362 -0.451 -1.519
-1.362 -0.0 -1.639
-1.362 0.781 -1.188
1.341 -0.432 -0.927
1.122 -0.781 -1.188
-1.58 0.237 -1.148
1.577 -0.2375 -0.3555
1.507 0.0 -0.646
1.473 -0.2375 -0.6425
1.543 -0.475 -0.352
1.403 0.0 -0.933
1.372 -0.216 -0.93
1.442 -0.4535 -0.6395
1.444 -0.693 -0.342
1.343 -0.6715 -0.6295
0.693 -1.278 -0.862
1.476 0.216 -0.643
1.372 0.216 -0.93
0.9525 -0.964 -1.2
0.9525 -0.8295 -1.4015
0.783 -1.0125 -1.4135
0.783 -1.147 -1.212
1.122 0.2255 -1.579
0.569 -1.081 -1.5235
0.569 -1.2155 -1.322
0.569 -0.0605 -2.0855
0.569 0.179 -2.0655
0.355 0.1185 -2.172
1.2315 0.4415 -1.223
1.2625 0.2255 -1.226
0.999 -0.9705 -1.034
0.8295 -1.1535 -1.046
0.6465 -1.2715 -1.028
0.4325 -1.34 -1.138
-1.733 -0.606 0.4365
-1.733 -0.493 0.2405
-1.814 -0.339 0.46
-1.814 -0.226 0.264
-1.841 -0.226 0.656
-1.841 -0.113 0.46
-1.814 0.0 0.264
-1.841 0.113 0.46
1.122 -0.2255 -1.579
-1.362 -0.2255 -1.579
-1.192 0.2375 -1.762
-1.192 0.463 -1.702
-1.362 0.2255 -1.579
-1.362 0.451 -1.519
-1.362 0.616 -1.3535
-1.471 -0.344 -1.3335
-1.471 -0.1185 -1.3935
-1.58 -0.237 -1.148
-1.471 0.1185 -1.3935
-1.58 0.0 -1.148
-1.471 0.344 -1.3335
-1.471 0.509 -1.168
1.33275 0.0 -1.1095
1.19225 0.0 -1.4625
1.19225 -0.2255 -1.4025
1.2625 0.0 -1.286
1.2625 -0.2255 -1.226
-1.708 -0.2375 -0.0285
-0.941 1.278 -0.6995
0.771 1.3345 -0.5725
0.693 1.278 -0.862
0.954 1.2165 -0.5905
-1.814 0.339 0.46
-1.841 0.226 0.656
-1.778 -0.113 0.1195
-1.744 -0.3505 0.116
-1.022 1.0125 -1.4135
-1.022 1.147 -1.212
-0.808 1.264 -1.2115
-1.192 0.964 -1.2
-1.192 0.8295 -1.4015
-1.243 0.9705 -0.9345
-1.073 1.1535 -0.9465
-0.89 1.2715 -0.965
-0.676 1.3885 -0.9645
-1.4755 -0.6065 -0.9115
-1.471 -0.509 -1.168
-1.5845 -0.3345 -0.8915
1.122 0.33825 -1.549
1.17675 0.44625 -1.371
1.19225 0.33825 -1.3725
1.247 0.3335 -1.2245
1.19225 0.2255 -1.4025
1.2625 0.11275 -1.256
1.19225 0.11275 -1.4325
-1.8275 0.1695 0.362
-1.8545 0.0565 0.558
-1.8275 0.2825 0.558

CELLS 634 2536
3 0 1 2
3 2 1 3
3 1 4 3
3 4 5 6
3 6 5 7
3 5 8 7
3 7 8 9
3 8 10 9
3 9 10 11
3 10 12 11
3 11 12 13
3 12 14 13
3 13 14 15
3 14 16 15
3 15 16 17
3 17 18 19
3 18 20 19
3 19 20 21
3 20 22 21
3 21 22 23
3 22 24 23
3 23 24 25
3 24 26 25
3 26 27 28
3 28 27 29
3 27 30 29
3 29 30 31
3 30 32 31
3 31 32 33
3 34 35 36
3 35 37 36
3 36 37 38
3 39 40 41
3 39 41 42
3 39 42 43
3 39 43 44
3 39 44 45
3 39 45 40
3 41 40 46
3 41 46 47
3 41 47 48
3 42 41 48
3 42 48 49
3 42 49 50
3 43 42 50
3 43 50 51
3 43 51 52
3 44 43 52
3 44 52 53
3 45 54 55
3 40 45 55
3 40 55 56
3 40 56 46
3 46 56 57
3 46 57 58
3 47 46 58
3 47 58 59
3 47 59 60
3 48 47 60
3 48 60 61
3 49 48 61
3 49 61 62
3 50 49 62
3 50 62 63
3 50 63 64
3 51 50 64
3 51 64 65
3 52 51 65
3 52 65 66
3 56 55 67
3 56 67 68
3 56 68 57
3 57 68 69
3 57 69 70
3 58 57 70
3 58 70 71
3 59 58 71
3 59 71 72
3 60 59 72
3 60 72 73
3 60 73 74
3 61 60 74
3 61 74 75
3 62 61 75
3 62 75 76
3 63 62 76
3 63 76 77
3 64 63 77
3 64 77 78
3 64 78 79
3 65 64 79
3 65 79 80
3 66 65 80
3 68 67 81
3 68 81 82
3 68 82 69
3 69 82 83
3 69 83 84
3 70 69 84
3 70 84 85
3 71 70 85
3 71 85 86
3 72 71 86
3 72 86 87
3 73 72 87
3 73 87 88
3 74 73 88
3 74 88 89
3 75 74 89
3 75 89 90
3 75 90 91
3 76 75 91
3 76 91 92
3 77 76 92
3 77 92 93
3 78 77 93
3 78 93 94
3 79 78 94
3 79 94 95
3 80 79 95
3 82 81 96
3 82 96 97
3 82 97 83
3 83 97 98
3 83 98 99
3 84 83 99
3 84 99 100
3 85 84 100
3 85 100 101
3 86 85 101
3 86 101 102
3 87 86 102
3 87 102 103
3 88 87 103
3 88 103 104
3 89 88 104
3 89 104 105
3 90 89 105
3 90 105 106
3 91 90 106
3 91 106 107
3 92 91 107
3 92 107 108
3 93 92 108
3 93 108 109
3 94 93 109
3 94 109 110
3 95 94 110
3 97 96 111
3 97 111 112
3 97 112 98
3 98 112 113
3 98 113 114
3 99 98 114
3 99 114 115
3 100 99 115
3 100 115 116
3 101 100 116
3 101 116 117
3 102 101 117
3 102 117 118
3 103 102 118
3 103 118 119
3 104 103 119
3 104 119 120
3 105 104 120
3 105 120 121
3 106 105 121
3 106 121 122
3 107 106 122
3 107 122 123
3 108 107 123
3 108 123 124
3 109 108 124
3 109 124 125
3 110 109 125
3 112 111 126
3 112 126 127
3 112 127 113
3 113 127 128
3 113 128 129
3 114 113 129
3 114 129 130
3 115 114 130
3 115 130 131
3 116 115 131
3 116 131 132
3 117 116 132
3 117 132 133
3 118 117 133
3 118 133 134
3 119 118 134
3 119 134 135
3 120 119 135
3 120 135 136
3 121 120 136
3 121 136 137
3 122 121 137
3 122 137 138
3 123 122 138
3 123 138 139
3 124 123 139
3 124 139 140
3 125 124 140
3 125 140 141
3 128 126 142
3 127 126 128
3 129 128 143
3 129 143 144
3 130 129 144
3 130 144 145
3 131 130 145
3 131 145 146
3 132 131 146
3 132 146 147
3 133 132 147
3 133 147 148
3 134 133 148
3 134 148 149
3 135 134 149
3 135 149 150
3 136 135 150
3 137 136 150
3 137 150 151
3 138 137 151
3 138 151 152
3 139 138 152
3 139 152 153
3 140 139 153
3 140 153 154
3 141 140 154
3 143 142 155
3 128 142 143
3 144 143 156
3 144 156 157
3 145 144 157
3 145 157 158
3 146 145 158
3 146 158 159
3 147 146 159
3 147 159 160
3 148 147 160
3 149 148 160
3 149 160 161
3 150 149 161
3 150 161 162
3 151 150 162
3 151 162 163
3 152 151 163
3 152 163 164
3 153 152 164
3 153 164 165
3 154 153 165
3 156 155 166
3 143 155 156
3 157 156 167
3 157 167 168
3 158 157 168
3 158 168 169
3 159 158 169
3 160 159 169
3 160 169 170
3 161 160 170
3 161 170 171
3 162 161 171
3 162 171 172
3 163 162 172
3 164 163 172
3 164 172 173
3 165 164 173
3 165 173 174
3 167 166 175
3 156 166 167
3 168 167 176
3 168 176 177
3 169 168 177
3 170 169 177
3 170 177 178
3 171 170 178
3 172 171 178
3 172 178 179
3 173 172 179
3 167 175 176
3 178 177 180
3 181 175 20
3 181 20 18
3 174 16 14
3 174 14 165
3 165 14 12
3 165 12 154
3 154 12 10
3 154 10 141
3 141 10 8
3 141 8 125
3 125 8 5
3 125 5 110
3 110 5 95
3 95 5 4
3 95 4 80
3 80 4 1
3 80 1 66
3 66 1 0
3 66 0 53
3 66 53 52
3 53 182 44
3 44 182 45
3 45 182 54
3 54 182 37
3 54 37 35
3 54 35 55
3 55 35 67
3 67 35 183
3 67 183 81
3 81 183 32
3 81 32 96
3 96 32 111
3 111 32 30
3 111 30 126
3 126 30 27
3 126 27 142
3 142 27 26
3 142 26 155
3 155 26 24
3 155 24 166
3 166 24 22
3 166 22 175
3 175 22 20
3 184 185 186
3 187 186 188
3 187 188 189
3 190 189 191
3 192 190 191
3 192 191 193
3 186 185 194
3 186 194 195
3 186 195 196
3 189 197 198
3 191 189 198
3 191 198 199
3 193 191 199
3 193 199 200
3 201 202 203
3 194 201 203
3 194 203 204
3 195 194 204
3 195 204 205
3 196 195 205
3 196 205 206
3 197 206 207
3 198 197 207
3 198 207 208
3 199 198 208
3 199 208 209
3 200 199 209
3 200 209 210
3 202 211 212
3 203 202 212
3 203 212 213
3 204 203 213
3 204 213 214
3 205 204 214
3 205 214 215
3 206 205 215
3 206 215 216
3 207 206 216
3 207 216 217
3 208 207 217
3 208 217 218
3 209 208 218
3 209 218 219
3 210 209 219
3 212 211 220
3 212 220 221
3 213 212 221
3 213 221 222
3 214 213 222
3 215 214 222
3 215 222 223
3 216 215 223
3 216 223 224
3 217 216 224
3 217 224 225
3 218 217 225
3 221 220 226
3 221 226 227
3 222 221 227
3 223 222 228
3 229 21 23
3 219 29 210
3 210 29 31
3 210 31 200
3 200 31 33
3 200 33 193
3 193 34 192
3 192 34 36
3 192 36 38
3 184 230 231
3 231 230 2
3 201 7 202
3 202 7 9
3 202 9 211
3 211 9 11
3 211 11 220
3 220 11 13
3 220 13 226
3 226 13 15
3 232 19 21
3 182 233 234
3 233 235 234
3 233 236 235
3 234 235 237
3 237 235 238
3 235 239 238
3 235 236 239
3 238 239 230
3 236 240 239
3 240 241 239
3 240 0 241
3 239 241 230
3 230 241 2
3 241 0 2
3 6 242 4
3 3 242 4
3 182 243 37
3 37 243 38
3 38 243 244
3 243 234 244
3 243 182 234
3 244 234 237
3 0 240 53
3 53 240 236
3 236 233 53
3 53 233 182
3 231 245 246
3 245 247 246
3 245 248 247
3 246 247 185
3 231 246 184
3 184 246 185
3 249 187 189
3 185 247 250
3 247 251 250
3 247 248 251
3 250 251 201
3 185 250 194
3 250 201 194
3 196 252 186
3 188 252 186
3 188 252 253
3 252 254 253
3 252 196 254
3 253 254 197
3 188 253 189
3 189 253 197
3 197 254 206
3 254 196 206
3 38 255 192
3 255 38 244
3 256 244 237
3 184 238 230
3 3 257 2
3 231 257 2
3 231 257 245
3 257 258 245
3 257 3 258
3 245 258 248
3 248 258 259
3 258 242 259
3 258 3 242
3 259 242 6
3 248 259 251
3 259 260 251
3 259 6 260
3 251 260 201
3 201 260 7
3 260 6 7
3 179 261 173
3 174 261 173
3 174 261 262
3 261 263 262
3 261 179 263
3 262 263 264
3 180 265 178
3 179 265 178
3 264 263 266
3 263 265 266
3 263 179 265
3 266 265 180
3 267 266 268
3 267 264 266
3 181 267 18
3 174 262 16
3 187 269 186
3 269 184 186
3 227 270 222
3 222 270 228
3 228 271 223
3 224 271 223
3 224 271 272
3 271 273 272
3 271 228 273
3 272 273 274
3 224 272 225
3 225 272 274
3 274 275 225
3 227 276 226
3 228 270 277
3 270 276 277
3 270 227 276
3 277 276 278
3 228 277 279
3 277 280 279
3 277 278 280
3 279 280 232
3 274 273 281
3 273 279 281
3 273 228 279
3 281 279 232
3 229 275 282
3 275 281 282
3 275 274 281
3 282 281 232
3 229 282 21
3 282 232 21
3 232 280 19
3 278 280 19
3 237 283 256
3 249 284 187
3 187 284 269
3 284 285 269
3 284 286 285
3 269 285 184
3 286 283 285
3 283 287 285
3 283 237 287
3 285 287 184
3 184 287 238
3 237 287 238
3 16 288 17
3 288 18 17
3 28 289 26
3 25 289 26
3 183 290 32
3 32 290 33
3 33 290 291
3 290 292 291
3 290 183 292
3 291 292 34
3 34 292 35
3 183 292 35
3 181 293 175
3 176 293 175
3 176 294 177
3 177 294 180
3 264 295 296
3 295 288 296
3 295 18 288
3 296 288 16
3 225 297 218
3 218 297 298
3 298 299 218
3 219 299 218
3 298 297 300
3 297 301 300
3 297 225 301
3 300 301 229
3 25 302 23
3 229 302 23
3 229 302 300
3 302 303 300
3 302 25 303
3 300 303 298
3 298 303 304
3 303 289 304
3 303 25 289
3 304 289 28
3 298 304 299
3 304 305 299
3 304 28 305
3 299 305 219
3 219 305 29
3 305 28 29
3 33 291 193
3 193 291 34
3 17 306 15
3 226 306 15
3 226 306 307
3 306 308 307
3 306 17 308
3 307 308 278
3 278 308 19
3 308 17 19
3 190 309 189
3 309 249 189
3 255 310 192
3 192 310 190
3 190 310 311
3 310 312 311
3 310 255 312
3 311 312 256
3 256 312 244
3 255 312 244
3 190 311 309
3 311 313 309
3 311 256 313
3 309 313 249
3 256 314 313
3 314 315 313
3 314 286 315
3 313 315 249
3 268 316 267
3 181 316 267
3 180 317 266
3 268 317 266
3 181 316 293
3 316 318 293
3 316 268 318
3 293 318 176
3 176 318 294
3 318 317 294
3 318 268 317
3 294 317 180
3 18 295 267
3 264 295 267
3 16 296 262
3 264 296 262
3 229 301 275
3 225 301 275
3 226 307 276
3 278 307 276
3 286 314 283
3 256 314 283
3 249 315 284
3 286 315 284

CELL_TYPES 634
5
5
5
5
5
5
5
5
5
5
5
5
5
5
5
5
5
5
5
5
5
5
5
5
5
5
5
5
5
5
5
5
5
5
5
5
5
5
5
5
5
5
5
5
5
5
5
5
5
5
5
5
5
5
5
5
5
5
5
5
5
5
5
5
5
5
5
5
5
5
5
5
5
5
5
5
5
5
5
5
5
5
5
5
5
5
5
5
5
5
5
5
5
5
5
5
5
5
5
5
5
5
5
5
5
5
5
5
5
5
5
5
5
5
5
5
5
5
5
5
5
5
5
5
5
5
5
5
5
5
5
5
5
5
5
5
5
5
5
5
5
5
5
5
5
5
5
5
5
5
5
5
5
5
5
5
5
5
5
5
5
5
5
5
5
5
5
5
5
5
5
5
5
5
5
5
5
5
5
5
5
5
5
5
5
5
5
5
5
5
5
5
5
5
5
5
5
5
5
5
5
5
5
5
5
5
5
5
5
5
5
5
5
5
5
5
5
5
5
5
5
5
5
5
5
5
5
5
5
5
5
5
5
5
5
5
5
5
5
5
5
5
5
5
5
5
5
5
5
5
5
5
5
5
5
5
5
5
5
5
5
5
5
5
5
5
5
5
5
5
5
5
5
5
5
5
5
5
5
5
5
5
5
5
5
5
5
5
5
5
5
5
5
5
5
5
5
5
5
5
5
5
5
5
5
5
5
5
5
5
5
5
5
5
5
5
5
5
5
5
5
5
5
5
5
5
5
5
5
5
5
5
5
5
5
5
5
5
5
5
5
5
5
5
5
5
5
5
5
5
5
5
5
5
5
5
5
5
5
5
5
5
5
5
5
5
5
5
5
5
5
5
5
5
5
5
5
5
5
5
5
5
5
5
5
5
5
5
5
5
5
5
5
5
5
5
5
5
5
5
5
5
5
5
5
5
5
5
5
5
5
5
5
5
5
5
5
5
5
5
5
5
5
5
5
5
5
5
5
5
5
5
5
5
5
5
5
5
5
5
5
5
5
5
5
5
5
5
5
5
5
5
5
5
5
5
5
5
5
5
5
5
5
5
5
5
5
5
5
5
5
5
5
5
5
5
5
5
5
5
5
5
5
5
5
5
5
5
5
5
5
5
5
5
5
5
5
5
5
5
5
5
5
5
5
5
5
5
5
5
5
5
5
5
5
5
5
5
5
5
5
5
5
5
5
5
5
5
5
5
5
5
5
5
5
5
5
5
5
5
5
5
5
5
5
5
5
5
5
5
5
5
5
5
5
5
5
5
5
5
5
5
5
5
5
5
5
5
5
5
5
5
5
5
5
5
5
5
5
5
5
5
5
5
5
5
5
5
5
5
5
5
5
5
5
5
5
5
5
5
5
5
5
5
5
5
5
5
5
5
5
5
5
5
5
5
5
5
5
5
5
5
5
5
5
5
5
5
5
5
5
5
5
5

CELL_DATA 634
SCALARS cell_data_0 double
LOOKUP_TABLE default
2.0225656397e-06
3.28553629764e-06
2.45304674272e-06
1.67514953097e-06
2.19146865349e-06
1.30405647681e-06
1.63232819476e-06
1.01438584541e-06
1.20171057197e-06
7.62779059425e-07
7.8970520394e-07
4.60929283276e-07
5.11138759901e-07
3.24191624364e-07
2.33702600618e-07
7.54752319033e-08
1.18261667678e-07
3.8126515986e-07
3.46406588606e-07
1.13029538926e-06
6.08822631704e-07
1.09270425906e-06
2.21354366513e-07
1.05735427568e-06
1.61421489721e-06
1.28444880945e-06
1.28618633127e-06
9.8594592799e-07
1.73686425157e-06
1.12318123163e-07
3.87380653276e-07
8.88880901721e-07
9.25693482205e-09
2.89475249269e-09
1.4331078421e-09
2.02410185553e-08
3.90953459749e-08
4.77461165312e-09
1.26482269539e-08
3.73564260876e-08
7.58038891625e-08
4.53783906933e-08
5.32230151026e-08
1.82374433956e-09
1.54090919701e-08
1.91344398746e-08
3.95518110094e-08
7.07865193845e-08
1.1396087227e-07
1.07485003927e-07
3.56512160905e-08
3.95002152245e-10
1.7438919868e-08
1.40677786893e-08
4.06301475276e-09
3.58703401323e-08
8.63505624573e-09
8.82564701976e-09
6.59049600773e-08
2.17774104829e-08
3.46623409724e-08
2.14849343487e-08
1.04171504434e-08
3.73546885018e-08
2.28789405675e-08
1.57277832544e-08
1.88468672879e-09
1.84917809872e-08
4.3877698797e-09
7.78385268058e-09
3.84056357394e-08
2.28190504246e-08
5.87775799562e-08
4.00146602168e-08
2.40815127591e-09
2.19102930948e-08
4.63711217253e-08
6.22312718641e-08
4.85682459493e-08
6.25824982864e-08
4.89012031886e-08
3.68725252476e-08
5.05079145864e-08
5.65747794028e-08
6.43972339444e-08
6.22886304365e-08
6.75018832194e-08
4.61452194621e-08
1.87881321985e-08
4.09758477627e-08
5.28617412718e-08
1.15573874321e-07
8.95102624267e-08
1.11373905901e-07
1.39474368282e-07
1.09408124971e-07
1.4560349513e-07
1.10050376281e-07
6.36068350665e-08
3.05539941181e-08
1.16284242881e-08
3.85180146045e-08
7.21277607044e-08
9.18241435786e-08
1.03418492748e-07
1.08814956843e-07
7.87658472372e-08
7.55215297986e-08
6.17141440591e-08
7.11899469755e-08
8.01327745382e-08
8.21607091013e-08
8.84500225707e-08
8.09239084734e-08
5.41515272258e-08
1.65673253447e-08
5.47278804954e-08
9.5377376334e-08
1.81480407091e-07
2.0863996567e-07
2.32204376174e-07
2.46796165527e-07
1.96109610782e-07
2.12146135389e-07
1.63290010642e-07
1.16680576506e-07
6.92652715625e-08
3.23266926162e-08
1.27753276942e-08
4.19715752588e-08
8.39426427037e-08
1.03935978055e-07
1.33224924692e-07
1.31028656056e-07
1.35485381403e-07
1.12620510804e-07
7.51991568676e-08
4.93115696035e-08
6.89455372506e-08
9.62839593537e-08
1.14085464242e-07
1.05087495596e-07
7.90233558623e-08
3.51520250159e-08
4.1485235429e-08
9.47422179203e-08
1.96295495287e-07
2.51599655812e-07
3.37359110647e-07
3.43011169719e-07
2.71373864926e-07
2.68861777331e-07
1.94810528273e-07
1.52129435867e-07
8.63152982088e-08
5.26694170856e-08
8.11229940529e-09
3.47809020082e-08
8.88887790236e-08
1.08240958694e-07
1.45984387027e-07
1.49146291184e-07
1.51683668366e-07
1.42508503574e-07
6.72338086741e-08
2.46763503318e-08
2.67684741393e-08
9.23631058005e-08
1.14280742727e-07
1.21610983042e-07
1.10708030927e-07
7.25119617488e-08
6.28859827846e-09
6.5332394692e-08
1.70660280438e-07
2.49347293703e-07
4.20366993375e-07
4.02899191911e-07
3.2492545693e-07
3.44460214299e-07
2.94957614005e-07
2.07429157386e-07
1.718552647e-07
9.593448597e-08
6.77293346398e-08
6.42647164378e-10
2.23819160538e-08
8.28409663067e-08
9.83675617488e-08
1.41076284649e-07
1.49979594579e-07
1.59421680827e-07
1.36499741588e-07
4.95582309193e-08
3.56859131925e-08
1.3010614366e-08
4.01651932302e-08
3.77603825319e-08
2.19735666532e-08
9.63190350305e-08
7.4574990594e-08
1.11790400446e-08
6.55776765352e-08
1.81385646563e-07
3.01350089783e-07
4.6435934342e-07
4.30101546251e-07
3.44990796556e-07
2.92203575972e-07
2.05738861512e-07
1.54039794946e-07
8.96652230716e-08
3.40714845202e-08
8.42595284803e-09
6.48602985614e-08
8.96275761198e-08
1.30389797406e-07
1.40214265621e-07
1.32151995685e-07
1.15117534813e-07
3.50197064786e-08
9.51758332599e-08
1.99048337667e-07
1.12098151713e-07
8.45617920691e-09
8.2437588572e-08
6.9273864972e-08
8.07589770556e-10
7.16812793308e-08
2.05451349881e-07
3.08987321143e-07
4.83721957314e-07
4.36978930662e-07
3.12050911688e-07
2.24858366937e-07
1.43354168107e-07
5.60912907206e-08
6.90468219325e-09
6.6804095309e-08
8.90167674365e-08
9.78723214982e-08
1.05842171753e-07
6.52012700757e-08
1.05165827453e-07
1.93062518069e-07
1.77185228977e-07
2.74421266772e-08
7.5838872819e-08
7.42389107418e-08
1.15429335056e-08
4.08204354717e-08
1.64445632592e-07
2.47320563486e-07
4.08264752857e-07
4.11609843782e-07
1.75195964099e-07
3.60174637582e-08
1.49191999526e-09
1.50569109513e-08
1.3621684177e-08
4.84597787456e-08
2.50172547731e-07
2.50343102111e-07
2.16783006595e-07
5.02526636056e-08
5.87130023001e-08
6.03610876718e-08
3.60546169768e-09
5.0193673011e-08
1.41803518843e-07
1.2703533057e-07
1.48487742791e-07
2.49597707509e-07
2.10317863109e-08
1.62160299838e-07
1.1823343904e-07
1.35930430898e-07
1.00417811114e-07
7.28548907783e-08
1.57651448273e-08
8.49798772574e-06
7.46390703541e-06
2.03809794092e-08
1.42881804632e-05
9.27070140353e-07
6.46100957152e-07
3.41180791959e-08
2.80452570229e-08
5.54234095084e-08
1.25811395147e-07
1.19588976579e-07
1.12751744664e-07
7.40953590631e-08
1.67980758077e-07
2.80903144106e-07
2.07786808225e-07
2.39495727844e-07
2.89135767141e-07
1.49461484995e-07
3.25150910357e-07
1.53049655055e-07
4.64177687435e-07
1.94053871615e-08
8.674933962e-08
1.55749663664e-07
1.56055181406e-07
1.55928796911e-07
1.41560589785e-07
1.23599899798e-07
1.30967686866e-07
2.2329250964e-09
3.99526161152e-06
3.99592223976e-06
6.42623210679e-06
1.06029343579e-06
1.22601599156e-06
7.79852525811e-07
1.07100883541e-07
1.87835995989e-07
1.44180242864e-07
1.28086534734e-07
9.78832271615e-08
6.65107921846e-09
6.52515513606e-08
3.62269742683e-08
2.1774939246e-08
1.07128226724e-07
4.44296449815e-07
3.3329019562e-06
3.30907601095e-06
1.03961686759e-07
1.51721823083e-06
3.15999559913e-07
1.31685132922e-06
1.89100822723e-06
2.91709609772e-06
1.92006651303e-06
1.4912228078e-06
1.42080443299e-06
1.27944974278e-06
1.04485714374e-06
2.79067241583e-08
3.36484336914e-07
4.60884550935e-07
1.47371885041e-06
2.0145906102e-06
3.08798683708e-06
2.54034913354e-06
2.25754506599e-06
2.18661586239e-06
1.69332101686e-06
1.46333740902e-06
1.16198528024e-06
9.66773474535e-07
8.55591471904e-07
1.89486553175e-07
8.14573721311e-08
9.96952404632e-08
3.01593940975e-07
6.43180351903e-07
1.26457245165e-06
1.56420704118e-06
1.87586852475e-06
1.66026739463e-06
1.8089405979e-06
1.46139782569e-06
1.42247270673e-06
1.12370712399e-06
1.06882874417e-06
8.50299506923e-07
8.79442600287e-07
1.89435294707e-07
4.33513510193e-07
2.58154215386e-07
4.07329582143e-07
5.69632315742e-07
9.3811668546e-07
7.40701479041e-07
1.01701122677e-06
5.05282842847e-06
4.68496670517e-06
1.33749771344e-05
1.01510053895e-06
1.08089176763e-06
1.69133819445e-06
9.55083630711e-08
1.89279239169e-07
7.05254459348e-06
2.54041600578e-07
8.36584995139e-07
2.97524505481e-07
3.04421533242e-07
2.2356875163e-08
3.57111053666e-07
5.20319058472e-08
9.39747819698e-07
3.69635445369e-06
3.96759819852e-07
7.00851200304e-07
1.18548870805e-06
2.10776675758e-07
4.54512891841e-07
4.17443906319e-07
7.86351764549e-07
1.55688158879e-06
1.68353572148e-06
2.32151705814e-06
9.15717604303e-08
4.77155161207e-08
2.36906318093e-08
4.00125860669e-07
7.50362146408e-08
7.985484903e-08
6.01557971248e-07
3.94821621689e-07
1.61180857312e-06
1.60871247087e-06
2.07973898611e-09
3.70069052805e-07
2.67576430252e-08
4.99922248088e-08
3.81294971585e-07
3.79443300172e-07
3.88032748259e-08
2.59490198711e-07
8.0544949634e-07
7.4138725569e-08
4.34206883572e-08
9.71413383694e-07
2.12311086095e-08
4.32671419842e-09
3.81393000844e-08
6.91464685013e-08
4.10243124045e-08
1.03589020038e-08
1.34339621777e-08
7.56136302984e-08
1.10322949638e-06
7.01485201455e-08
3.58846631593e-06
5.06269775556e-08
2.81046443245e-06
2.75401071895e-06
2.31183705541e-06
2.91844418961e-07
1.16682581559e-07
6.09190314129e-06
4.76932770114e-06
3.51035986687e-06
4.97087569059e-06
4.10722844291e-06
1.10600928124e-07
1.27301147375e-07
3.34748467106e-07
6.56312027432e-07
7.32845902299e-07
1.06162962354e-06
1.9312725634e-06
2.69127814425e-06
2.48824112914e-06
7.65419293556e-07
1.31006408626e-07
6.70715402616e-08
9.66669997085e-08
3.49821016061e-07
3.96065535863e-08
2.67352461662e-08
7.73324287248e-09
1.12469972134e-07
1.04964906329e-07
2.30639997262e-06
2.43511635072e-06
2.30518260904e-07
2.52717595765e-06
3.24417459967e-07
8.05626439244e-07
3.76788470735e-06
1.36700528716e-08
5.6284746164e-09
1.60199279924e-09
2.08554553014e-06
4.20837653355e-08
1.64225518994e-05
1.22064540261e-05
9.10660405285e-08
1.96900728707e-06
6.02758837028e-06
6.94611854761e-06
9.79117973974e-07
2.90123320839e-07
3.05954146197e-07
4.69950996151e-09
1.90115275528e-06
7.49980974914e-07
8.55576297205e-08
1.55623738377e-07
1.58338960341e-07
2.51268838925e-06
1.22214389672e-06
6.89136315685e-08
1.44115457127e-07
3.19324193489e-07
6.31837844895e-06
1.40478386042e-06
1.71292351039e-06
5.58823877116e-07
1.10065576865e-07
1.24602760814e-08
1.06829636817e-07
2.08010601601e-06
1.58026683832e-07
3.7898800703e-09
2.38572327638e-06
5.68852952429e-07
6.6576985144e-06
4.86607078579e-06
1.28926500205e-07
6.83841628133e-06
1.26542581893e-05
1.87886442028e-05
6.82149186455e-06
2.32093386648e-05
3.6093757741e-05
2.40665744291e-05
1.26328200339e-06
4.65632885289e-06
2.86408921689e-06
2.36345882578e-06
3.34683521244e-06
4.04484175785e-06
5.42205936375e-06
2.72035754045e-06
5.4727427777e-06
5.12656887156e-06
3.23532293797e-06
3.39445859483e-06
1.51920457775e-06
5.92030704828e-08
5.03270033183e-07
4.16433031752e-07
9.54730141025e-07
9.52571285958e-07
3.04275503574e-06
3.36165209695e-07
1.03208599116e-07
3.65838323503e-08
6.92623855194e-07
1.23255253268e-08
8.30135110672e-09
1.59734154119e-06
8.51915691886e-07
7.10681493927e-09
6.19670157145e-08
6.5313818943e-06
2.70156583702e-08
2.43380619045e-07
7.9693625467e-08
2.32695163238e-07
4.98921953923e-07
1.93847546523e-07
2.93473458117e-07
3.83290887817e-07
4.77030976986e-08
3.75549798921e-08
1.9372519656e-07
1.33827084969e-06
7.1711607304e-07
3.28602005474e-06
1.48431225071e-06
2.33559302363e-08
1.30514534726e-07
5.63742787547e-08
5.08959544478e-08
3.83802361939e-07
4.51087402679e-07
4.98500370012e-07
9.77823412086e-08
5.70834317334e-09
1.92142111285e-07
7.21152882277e-08
2.57612820056e-07
6.76868000766e-07
6.05424208944e-08
3.58811048712e-08
1.37854162708e-07
8.73912212574e-07
5.97693002449e-07
3.22288359412e-08
3.94011433959e-08
2.94223695577e-06
4.2572994603e-06
8.05501069483e-08
1.00544092465e-06
1.46036272847e-06
1.12738471385e-06
9.66436438111e-07
4.76662627347e-07
1.05508812029e-08
6.33793926995e-07
1.16482719762e-06
1.9855259466e-06
1.32235449802e-06
5.61823210058e-07
9.0037357699e-08
1.78426707251e-06
1.0370101138e-06
2.15565245298e-06
1.83069011144e-08
2.75272450325e-06
1.31352983627e-06
2.49624141457e-07
1.09682918546e-07
1.22534112973e-06
2.45241216019e-07
1.43460524477e-07
5.51062073916e-11
8.18245187818e-08
2.53670940581e-09
1.3192975885e-08
7.26617444259e-09
7.69467448714e-08
1.38566488682e-06
1.56360506913e-07
6.58184914133e-08
1.22340028575e-07
3.78820003245e-08
1.4926943446e-06
2.60744089132e-07
3.98435573359e-07
2.08329317519e-06
2.46642424896e-06
2.19051536326e-06
1.13474986181e-06
2.57625996047e-06

