# vtk DataFile Version 3.0
File Name: Molecule/sphere_cent/sphere_cent_0-s2.vtk
ASCII
DATASET UNSTRUCTURED_GRID
FIELD FieldData 1
TIME 1 1 double
0.0
POINTS 60 double
2.22044612e-16 0.850650814 0.525731103
-8.39090779e-07 1.0 3.8031436e-09
-0.50000012 0.80901678 0.30901735
-0.50000026 0.80901657 -0.30901768
0.0 0.85065079 -0.52573115
-0.85065079 0.52573115 0.0
-0.30901666 0.49999988 0.8090172
-0.80901742 0.30901632 0.49999973
-0.525731103 5.5511153e-17 0.850650814
-0.30901735 -0.50000012 0.80901678
-1.69001048e-09 -8.44684267e-07 1.0
0.30901768 -0.50000026 0.80901657
0.0 -0.85065081 0.5257311
0.525731103 2.77555765e-17 0.850650814
0.809017 -0.309017 0.49999999
0.49999975 -0.80901741 0.30901631
0.85065081 -0.5257311 0.0
1.0 -9.97250699e-09 4.16746858e-07
0.80901701 0.309017 0.49999998
0.85065079 0.52573115 0.0
-0.52573115 0.0 -0.85065079
-0.80901722 -0.30901664 -0.49999986
-0.809017 0.309017 -0.49999999
-1.0 8.57193577e-09 4.13202904e-07
-0.850650814 -0.525731103 4.44089224e-16
-0.30901702 0.49999997 -0.809017
-0.49999975 -0.80901741 -0.30901631
-0.49999999 -0.809017 0.309017
4.25202603e-07 -1.0 4.2039277e-09
2.22044612e-16 -0.850650814 -0.525731103
-0.80901699 -0.30901702 0.5
-0.30901769 -0.50000024 -0.80901658
0.49999997 -0.809017 -0.30901702
0.5257311 0.0 -0.85065081
0.809017 -0.30901701 -0.49999999
0.30901666 -0.49999986 -0.80901721
1.08990813e-08 -8.69585849e-09 -1.0
0.30901632 0.49999973 -0.80901742
0.95105657 -0.16245987 -0.26286535
0.850650696 3.44733068e-07 -0.525731294
0.95105647 0.16246023 -0.2628655
0.80901658 0.30901769 -0.50000024
0.68819063 0.5877857 -0.42532533
0.49999986 0.80901721 -0.30901666
0.58778468 0.42532563 -0.68819131
0.42532505 0.68819105 -0.5877854
0.525731116 0.850650806 3.60406769e-07
0.50000015 0.80901677 0.30901734
0.26286506 0.95105668 -0.16245968
0.26286525 0.95105656 0.16246007
1.72369134e-07 0.525731017 0.850650867
0.309017 0.49999999 0.809017
-0.16245969 0.26286507 0.95105668
0.16245987 0.26286514 0.95105663
0.16245967 -0.26286548 -0.95105657
-5.327707e-07 -0.525731195 -0.850650757
-0.16246023 -0.26286572 -0.95105641
0.68819099 0.58778512 0.42532554
0.42532546 0.6881908 0.58778539
0.58778525 0.42532541 0.68819096

CELLS 116 464
3 0 1 2
3 1 3 2
3 1 4 3
3 2 3 5
3 0 2 6
3 2 7 6
3 2 5 7
3 6 7 8
3 8 9 10
3 9 11 10
3 9 12 11
3 10 11 13
3 13 11 14
3 11 15 14
3 11 12 15
3 14 15 16
3 16 17 14
3 17 18 14
3 17 19 18
3 14 18 13
3 20 21 22
3 21 23 22
3 21 24 23
3 22 23 5
3 4 25 3
3 25 22 3
3 25 20 22
3 3 22 5
3 24 26 27
3 26 28 27
3 26 29 28
3 27 28 12
3 24 27 30
3 27 9 30
3 27 12 9
3 30 9 8
3 8 7 30
3 7 23 30
3 7 5 23
3 30 23 24
3 20 31 21
3 31 26 21
3 31 29 26
3 21 26 24
3 29 32 28
3 32 15 28
3 32 16 15
3 28 15 12
3 33 34 35
3 34 32 35
3 34 16 32
3 35 32 29
3 33 36 37
3 36 25 37
3 36 20 25
3 37 25 4
3 34 38 16
3 16 38 17
3 34 39 38
3 39 40 38
3 39 41 40
3 38 40 17
3 41 39 33
3 34 39 33
3 17 40 19
3 40 41 19
3 41 42 19
3 19 42 43
3 41 44 42
3 44 45 42
3 44 37 45
3 42 45 43
3 37 44 33
3 41 44 33
3 43 45 4
3 45 37 4
3 43 46 19
3 19 46 47
3 43 48 46
3 48 49 46
3 48 1 49
3 46 49 47
3 1 48 4
3 43 48 4
3 47 49 0
3 49 1 0
3 6 50 0
3 0 50 51
3 6 52 50
3 52 53 50
3 52 10 53
3 50 53 51
3 10 52 8
3 6 52 8
3 51 53 13
3 53 10 13
3 35 54 33
3 33 54 36
3 35 55 54
3 55 56 54
3 55 31 56
3 54 56 36
3 31 55 29
3 35 55 29
3 36 56 20
3 56 31 20
3 47 57 19
3 19 57 18
3 47 58 57
3 58 59 57
3 58 51 59
3 57 59 18
3 51 58 0
3 47 58 0
3 18 59 13
3 59 51 13

CELL_TYPES 116
5
5
5
5
5
5
5
5
5
5
5
5
5
5
5
5
5
5
5
5
5
5
5
5
5
5
5
5
5
5
5
5
5
5
5
5
5
5
5
5
5
5
5
5
5
5
5
5
5
5
5
5
5
5
5
5
5
5
5
5
5
5
5
5
5
5
5
5
5
5
5
5
5
5
5
5
5
5
5
5
5
5
5
5
5
5
5
5
5
5
5
5
5
5
5
5
5
5
5
5
5
5
5
5
5
5
5
5
5
5
5
5
5
5
5
5

CELL_DATA 116
SCALARS cell_data_0 double
LOOKUP_TABLE default
2.15446250281e-06
4.37320106897e-06
6.98793186324e-07
8.71507394109e-07
1.97563208547e-06
2.67052666452e-06
2.6638469983e-07
3.10487998463e-06
1.35753684687e-06
2.70546188702e-06
1.57178623201e-06
2.48444116248e-07
1.58718241991e-06
1.52128643862e-06
1.30944585325e-06
1.50755010724e-06
2.56137513026e-07
2.99289364229e-06
1.01858273173e-06
7.57873114858e-07
3.55990714437e-06
7.49795510381e-07
1.66112919689e-06
2.24851834619e-06
3.37823542942e-07
2.46227710944e-06
2.16017542642e-06
8.71221885307e-07
5.03674828796e-06
7.69594165851e-06
5.97330836404e-07
2.75879903681e-06
7.33484196806e-06
1.01883071055e-05
2.58349638784e-06
3.7306987808e-06
3.24816708878e-06
5.64476022296e-06
1.69995495005e-06
3.24353529205e-06
1.51576917215e-06
2.93801814839e-06
1.36732323242e-06
1.11747232933e-07
1.26147741708e-06
2.00339486927e-06
1.46157752533e-06
8.87446821744e-07
5.30800336292e-06
2.83495367192e-06
4.94289644507e-07
2.1857170282e-06
1.74301232741e-06
3.44313917803e-06
9.76351168534e-07
1.20069283311e-06
4.94701102345e-08
2.98293061342e-07
1.71246886461e-06
1.33142122559e-06
3.34112693264e-06
1.35788325434e-06
2.00827151327e-06
5.04539656034e-06
2.22656190355e-06
1.83819817172e-06
3.11296382207e-07
7.9871330508e-08
2.88441711045e-06
1.89831849521e-08
1.88130998877e-06
1.89206501276e-06
4.67696565584e-06
2.23766636708e-06
2.57403484279e-06
2.44992046093e-06
2.31520398107e-06
1.93234882283e-06
1.76109443247e-06
2.41054891386e-07
6.05516815326e-07
1.48934110969e-06
3.78137973349e-06
1.96470209702e-06
7.41667707846e-07
2.69134930715e-07
1.0139685402e-06
1.25777391802e-06
1.00996107495e-06
5.81669838119e-07
1.68932404805e-06
1.42815842248e-06
2.84535428766e-06
4.83085622889e-06
7.6403523967e-07
5.08435742982e-07
6.99254350202e-07
5.2981924846e-08
1.79998687961e-06
2.75016162712e-07
1.7323774328e-06
3.86353233345e-07
2.11634214122e-06
5.52469488683e-06
1.02616074591e-06
6.91694179341e-07
3.50042025079e-08
4.69557511606e-07
1.81275007853e-06
2.15328435505e-08
2.12103112064e-06
4.71451552859e-07
2.63929651935e-06
3.66290745106e-06
7.96394527815e-07
6.84255897852e-07

