# vtk DataFile Version 3.0
File Name: Molecule/sphere_cent/sphere_cent_0-s15.vtk
ASCII
DATASET UNSTRUCTURED_GRID
FIELD FieldData 1
TIME 1 1 double
0.0
POINTS 198 double
0.86893582344 -0.49236094952 -0.040555968881
0.94464242458 -0.23848193884 -0.22112306952
0.95580297709 -0.23351638019 0.16797958314
0.34015896916 -0.50696647167 -0.7919178009
0.05527535826 -0.51003968716 -0.85806900263
0.16856776178 -0.26098483801 -0.95048844814
-0.13187511265 -0.24906119704 -0.95899564028
0.0081900870427 0.029198681936 -0.99940955639
0.49112340808 0.82499676943 0.27910658717
0.42614668608 0.68951135874 0.58562362194
0.6876385808 0.58996516466 0.42315295339
0.58948528767 0.4278703928 0.68513393402
0.28423395753 0.49387565255 0.82164806128
0.82736909389 0.28558662534 0.48348391056
0.77299332619 0.36276182532 -0.51961165667
0.56070101261 0.44986701012 -0.69503998756
0.66151970625 0.61520594358 -0.4286698401
0.41632038355 0.6951109767 -0.58607029915
0.2777890563 0.49297663569 -0.82434296608
0.48216035962 0.83084994555 -0.27713879943
-0.54389762878 -0.25686559081 0.79868090153
-0.32783097029 -0.48947927356 0.80794084072
-0.35047733784 -0.15310627222 0.92344355583
-0.0041307448409 -0.5362059474 0.84400629997
-0.16026926041 -0.30196407437 0.93892669678
0.15218313038 -0.26782986522 0.95134299994
0.31218504906 -0.52233707905 0.79339444637
0.11227671802 -0.82569277287 0.55226236582
-0.94392693043 0.15790213645 0.28314083815
-0.95370995998 -0.15194283426 0.25891450047
-0.86502110958 -0.04118097946 0.49983978271
-0.83166974783 -0.28295966983 0.47680085897
-0.075973004103 0.86263102293 0.49830791354
-0.24366146326 0.95741653442 0.15503753722
-0.46563482285 0.8202278018 0.32478803396
0.029611799866 0.99936962128 -0.0050934455357
-0.24687948823 0.95562154055 -0.16095112264
-0.49388942122 0.86836516857 -0.0043532205746
-0.47814130783 0.81270539761 -0.32916858792
-0.071902364492 0.86365914345 -0.49643853307
-0.41062435508 0.68695008755 0.59948527813
-0.66684687138 0.57997900248 0.46596068144
-0.54784858227 0.47227022052 0.69024842978
-0.30466485023 0.48886829615 0.81739026308
-0.039982188493 -0.87635678053 -0.47834840417
0.27631044388 -0.9449262619 -0.17525050044
-0.0055650696158 -0.99939852953 -0.027076922357
0.50893586874 -0.85938853025 0.045371394604
0.25287047029 -0.95295554399 0.16702887416
0.48820233345 -0.80713993311 0.33159705997
-0.50755602121 -0.80545562506 -0.30356305838
-0.54799163342 -0.83556526899 -0.0034774811938
-0.759085536 -0.60806328058 -0.22836883366
-0.84540814161 -0.53408557177 -0.00096913537709
-0.76002436876 -0.60716718435 0.22987301648
-0.27793541551 -0.94745093584 -0.15815506876
-0.28302264214 -0.94815212488 0.14406462014
-0.51126563549 -0.80424851179 0.30298987031
-0.2447284013 -0.86499273777 0.43795612454
-0.030042368919 -0.96203815937 0.27125608921
-0.43918156624 -0.68875437975 0.57677668333
-0.65117967129 -0.61283510923 0.44650280476
-0.56439179182 -0.48561215401 0.66729384661
-0.18593402207 -0.7125607729 0.67649078369
-0.79421937466 -0.28719437122 -0.5318261981
-0.85372918844 -0.0035604950972 -0.52075135708
-0.57293784618 -0.053359188139 -0.81682419777
-0.94547086954 -0.12491828948 -0.29859474301
-0.94311755896 0.15739428997 -0.28944149613
-0.82148396969 0.30781152844 -0.47969666123
-0.79710310698 0.55078393221 -0.2457742691
-0.92448508739 0.34771513939 -0.15379370749
-0.41923213005 0.68057763577 -0.60089832544
-0.29876956344 0.50069189072 -0.81243139505
-0.54229640961 0.45587030053 -0.7053026557
-0.68258529902 0.55850607157 -0.4690849483
-0.60157901049 -0.43634161353 -0.66913962364
-0.35845890641 -0.51470530033 -0.77825790644
-0.4454767704 -0.67279207706 -0.58875656128
-0.65869885683 -0.60565066338 -0.44478788972
0.52228069305 0.0014303892385 0.85276609659
0.44643822312 -0.25647446513 0.8571754694
0.68800640106 -0.15818877518 0.70825511217
0.58955550194 -0.43753653765 0.67895579338
0.78297579288 -0.32953464985 0.52758312225
0.45283040404 -0.67223870754 0.5856719017
0.68468135595 -0.57608050108 0.44648125768
0.87348252535 -0.40231770277 0.26992312074
0.71961963177 -0.66631019115 0.19497478008
0.87229913473 -0.045522280037 0.4852848649
0.70205676556 0.13620725274 0.69893068075
-0.26615840197 0.047094065696 -0.96277177334
-0.14515173435 0.28753966093 -0.94668835402
-0.39796125889 0.25743210316 -0.88056707382
0.42100444436 0.25056529045 0.87168461084
0.27528980374 0.013891326264 0.96122062206
-0.13598786294 0.68009632826 0.7203643918
0.13712792099 0.70825904608 0.69230854511
-0.0060128076002 0.50164097548 0.8650380373
-0.15875217319 0.27843078971 0.94717234373
0.13473962247 0.27550655603 0.95177966356
0.003413888393 0.043280091137 0.99898099899
-0.51291024685 0.25530865788 0.81897962093
-0.27156844735 0.035017970949 0.96145737171
-0.010404538363 0.51136445999 -0.85926318169
0.13388331234 0.70882678032 -0.69231659174
-0.13904938102 0.68607187271 -0.71414256096
0.24044072628 0.87364423275 0.42270645499
0.23874525726 0.87623041868 -0.41815054417
0.13573096693 0.27752819657 -0.95107471943
0.27560597658 0.95175212622 0.13487678766
0.043233625591 0.96565812826 0.25615218282
0.45201948285 -0.67037945986 -0.58837938309
0.20702524483 -0.71173298359 -0.67129719257
0.28103390336 -0.83892512321 -0.46609264612
0.51304912567 -0.77468067408 -0.36968523264
0.53953909874 -0.001596179558 -0.8419213891
0.28821650147 0.01429280825 -0.95741164684
0.39104303718 0.25248199701 -0.88502627611
0.4534702301 -0.25797393918 -0.85303759575
0.8538890481 0.52031368017 -0.010251149535
0.67749601603 0.72454959154 -0.12639519572
0.70364314318 0.69675475359 0.13901509345
0.49783879519 0.86725229025 0.0015485519543
0.27380397916 0.95183587074 -0.13798047602
0.040950257331 0.96474790573 -0.25998955965
0.99499827623 -0.039127465338 0.070874765515
0.96183663607 0.26967847347 0.04572513327
0.94684427977 0.15940281749 0.27942183614
0.86904627085 0.43179696798 0.24127104878
0.67334312201 -0.19942378998 -0.71188259125
0.58305007219 -0.45136076212 -0.67548388243
0.7830324769 -0.34839972854 -0.51465147734
0.82190769911 -0.054581511766 -0.56689924002
0.70815402269 0.069894395769 -0.70247739553
0.90112471581 0.3877157867 -0.1935390383
0.96494853497 0.17762050033 -0.1925996989
0.66763287783 -0.5892482996 -0.45486971736
0.82955104113 -0.47286453843 -0.29706549644
0.71540760994 -0.65964972973 -0.23018987477
0.90941566229 -0.11296650022 -0.39982253313
0.91487300396 0.074722602963 -0.39672547579
0.96963799 -0.021314240992 -0.24265493453
0.82335364819 0.16101318598 -0.54421561956
0.88799834251 0.2667863071 -0.37455812097
-0.70770365 -0.17608256638 0.68401795626
0.55279552937 -0.81733620167 -0.16249032319
0.70153403282 -0.71190953255 -0.032542679459
-0.76404744387 -0.45956122875 0.45267224312
-0.70322138071 -0.35458493233 0.61613947153
-0.72394585609 0.011043183506 0.68961179256
-0.51540362835 0.0016823927872 0.85659623146
-0.72178655863 0.15387351811 -0.67461150885
-0.69646656513 0.35623365641 -0.62299305201
-0.58885556459 0.2270373553 -0.77586239576
-0.15597259998 -0.53552317619 -0.83000600338
-0.20203255117 -0.69591802359 -0.68907386065
-0.016437973827 -0.70594674349 -0.7073776722
-0.25084269047 -0.79683595896 -0.54918897152
0.81382215023 0.44885095954 -0.36907529831
0.58623278141 0.21868731081 -0.78007227182
0.70593607426 0.27014747262 -0.6547268033
-0.82495117188 0.32096201181 0.4645537436
-0.82766544819 0.1545189321 0.53949904442
-0.70141196251 0.36185374856 0.61404520273
-0.68558526039 0.1765665561 0.70599859953
0.79381895065 0.56370347738 -0.22823435068
-0.28049218655 -0.37035194039 -0.88563519716
-0.35937094688 -0.16179178655 -0.91909968853
-0.45525377989 -0.29779231548 -0.83902305365
-0.11020204425 -0.12163905799 0.98636692762
-0.87619227171 -0.41324219108 0.24708069861
-0.96206283569 -0.27058440447 0.02348292619
-0.99950057268 0.0010004304349 0.00023187533952
-0.88581317663 -0.25798037648 -0.38603898883
-0.98632049561 0.090873971581 -0.13725477457
-0.98521661758 -0.10175138712 -0.13557319343
-0.93320387602 -0.32362705469 -0.15468941629
-0.8603746295 -0.43406823277 -0.26692035794
-0.77006667852 -0.44938895106 -0.45298278332
-0.86341321468 0.42917534709 0.26529219747
-0.52870869637 0.83257037401 -0.1652380079
-0.52741926908 0.83427679539 0.16081777215
-0.60120111704 0.71256250143 0.36206784844
-0.69120776653 0.72257453203 -0.0028647342697
-0.69711858034 0.69807994366 0.16372050345
-0.85760897398 0.51406604052 -0.0022530294955
-0.69975095987 0.69367867708 -0.17112831771
-0.60798346996 0.70089417696 -0.37316781282
-0.76969724894 0.45701786876 0.44571956992
-0.78204745054 0.57356125116 0.24300605059
-0.98675000668 0.093703299761 0.13187301159
-0.96432667971 0.2646368444 -0.0041605704464
-0.93171101809 0.33684617281 0.13551944494
-0.28917196393 -0.86629611254 -0.40738001466
-0.47165888548 -0.75626003742 -0.45265674591
0.89896774292 -0.2238215059 0.37643271685
0.95636075735 -0.057791739702 0.28635469079

CELLS 392 1568
3 0 1 2
3 3 4 5
3 4 6 5
3 5 6 7
3 8 9 10
3 9 11 10
3 9 12 11
3 10 11 13
3 14 15 16
3 15 17 16
3 15 18 17
3 16 17 19
3 20 21 22
3 21 23 24
3 23 25 24
3 23 26 25
3 26 23 27
3 28 29 30
3 30 29 31
3 32 33 34
3 35 36 33
3 36 37 33
3 38 36 39
3 34 40 32
3 41 42 40
3 40 42 43
3 44 45 46
3 47 48 45
3 47 49 48
3 45 48 46
3 48 49 27
3 50 51 52
3 53 51 54
3 50 55 51
3 55 56 51
3 55 46 56
3 51 56 57
3 46 55 44
3 57 56 58
3 56 59 58
3 56 46 59
3 58 59 27
3 57 60 61
3 60 62 61
3 60 21 62
3 57 58 60
3 58 63 60
3 58 27 63
3 60 63 21
3 21 63 23
3 23 63 27
3 27 59 48
3 48 59 46
3 64 65 66
3 67 68 65
3 65 68 69
3 70 69 71
3 39 72 38
3 73 74 72
3 74 75 72
3 66 76 64
3 77 78 76
3 78 79 76
3 80 81 82
3 81 83 82
3 81 26 83
3 82 83 84
3 26 85 83
3 85 86 83
3 85 49 86
3 83 86 84
3 49 85 27
3 27 85 26
3 84 86 87
3 86 88 87
3 86 49 88
3 87 88 0
3 84 89 82
3 89 90 82
3 89 13 90
3 82 90 80
3 7 91 92
3 91 93 92
3 91 66 93
3 92 93 73
3 6 91 7
3 80 90 94
3 11 90 13
3 26 81 25
3 25 81 95
3 47 88 49
3 73 93 74
3 32 96 97
3 96 98 97
3 96 43 98
3 97 98 12
3 43 99 98
3 99 100 98
3 99 101 100
3 98 100 12
3 99 102 103
3 12 100 94
3 100 95 94
3 100 101 95
3 94 95 80
3 18 104 105
3 104 106 105
3 104 73 106
3 105 106 39
3 32 97 107
3 9 97 12
3 12 94 11
3 11 94 90
3 18 105 17
3 17 105 108
3 80 95 81
3 25 95 101
3 43 96 40
3 40 96 32
3 39 106 72
3 72 106 73
3 73 104 92
3 92 104 109
3 8 110 107
3 110 111 107
3 110 35 111
3 107 111 32
3 3 112 113
3 112 114 113
3 112 115 114
3 113 114 44
3 116 117 118
3 117 109 118
3 117 7 109
3 118 109 18
3 7 117 5
3 5 117 119
3 3 113 4
3 8 107 9
3 9 107 97
3 15 118 18
3 32 111 33
3 33 111 35
3 44 114 45
3 45 114 115
3 18 109 104
3 92 109 7
3 120 121 122
3 121 123 122
3 121 19 123
3 122 123 8
3 19 108 124
3 108 125 124
3 108 39 125
3 124 125 35
3 126 127 128
3 127 129 128
3 127 120 129
3 128 129 13
3 116 130 119
3 130 131 119
3 130 132 131
3 119 131 3
3 132 130 133
3 133 130 134
3 120 127 135
3 136 127 126
3 116 119 117
3 5 119 3
3 120 122 129
3 10 122 8
3 13 129 10
3 10 129 122
3 19 121 16
3 39 108 105
3 17 108 19
3 35 125 36
3 36 125 39
3 89 128 13
3 19 124 123
3 110 124 35
3 8 123 110
3 110 123 124
3 3 131 112
3 112 131 137
3 132 138 137
3 138 139 137
3 138 0 139
3 137 139 115
3 0 138 1
3 1 138 132
3 133 140 132
3 132 140 1
3 133 141 140
3 141 142 140
3 141 136 142
3 140 142 1
3 133 143 141
3 143 144 141
3 143 14 144
3 141 144 136
3 1 142 126
3 142 136 126
3 31 145 30
3 115 146 45
3 146 47 45
3 0 147 139
3 147 146 139
3 147 47 146
3 139 146 115
3 61 62 148
3 31 149 145
3 149 20 145
3 149 62 20
3 150 145 151
3 21 20 62
3 69 152 65
3 65 152 66
3 74 153 75
3 153 69 75
3 69 153 152
3 153 154 152
3 153 74 154
3 152 154 66
3 47 147 88
3 88 147 0
3 66 154 93
3 93 154 74
3 132 137 131
3 112 137 115
3 4 155 6
3 77 155 156
3 155 157 156
3 155 4 157
3 156 157 158
3 16 159 14
3 14 159 144
3 116 160 134
3 160 161 134
3 160 15 161
3 134 161 143
3 162 163 164
3 163 150 165
3 163 30 150
3 165 150 151
3 30 163 28
3 28 163 162
3 41 164 42
3 42 102 43
3 43 102 99
3 42 164 102
3 164 165 102
3 165 164 163
3 102 165 151
3 77 156 78
3 44 157 113
3 113 157 4
3 15 160 118
3 118 160 116
3 120 166 121
3 121 166 16
3 143 161 14
3 14 161 15
3 116 134 130
3 133 134 143
3 144 135 136
3 136 135 127
3 120 135 166
3 135 159 166
3 135 144 159
3 166 159 16
3 20 151 145
3 145 150 30
3 6 167 168
3 167 169 168
3 167 77 169
3 168 169 66
3 151 22 103
3 22 170 103
3 22 24 170
3 103 170 101
3 101 170 25
3 25 170 24
3 53 171 172
3 29 171 31
3 173 172 29
3 29 172 171
3 61 54 57
3 57 54 51
3 53 54 171
3 54 148 171
3 54 61 148
3 171 148 31
3 64 174 65
3 174 67 65
3 68 67 175
3 173 176 172
3 176 177 172
3 176 67 177
3 172 177 53
3 53 177 178
3 177 174 178
3 177 67 174
3 178 174 179
3 66 169 76
3 76 169 77
3 79 179 76
3 76 179 64
3 64 179 174
3 179 52 178
3 179 79 52
3 178 52 53
3 53 52 51
3 50 52 79
3 6 168 91
3 91 168 66
3 151 103 102
3 99 103 101
3 31 148 149
3 149 148 62
3 24 22 21
3 20 22 151
3 77 167 155
3 155 167 6
3 162 180 28
3 38 181 36
3 36 181 37
3 37 182 33
3 33 182 34
3 34 182 183
3 182 184 185
3 182 37 184
3 185 184 186
3 37 181 184
3 181 187 184
3 187 181 188
3 184 187 186
3 34 183 40
3 183 41 40
3 162 189 180
3 189 190 180
3 189 41 190
3 180 190 186
3 186 190 185
3 190 183 185
3 190 41 183
3 185 183 182
3 75 188 72
3 72 188 38
3 38 188 181
3 188 70 187
3 188 75 70
3 187 70 186
3 69 70 75
3 41 189 164
3 164 189 162
3 28 191 29
3 191 173 29
3 173 191 192
3 191 193 192
3 191 28 193
3 192 193 186
3 50 194 55
3 55 194 44
3 68 175 71
3 175 192 71
3 175 173 192
3 71 192 186
3 78 195 79
3 195 50 79
3 50 195 194
3 195 158 194
3 195 78 158
3 194 158 44
3 87 196 84
3 84 196 89
3 126 2 1
3 2 87 0
3 126 197 2
3 197 196 2
3 197 89 196
3 2 196 87
3 89 197 128
3 128 197 126
3 44 158 157
3 156 158 78
3 173 175 176
3 176 175 67
3 186 193 180
3 180 193 28
3 68 71 69
3 70 71 186

CELL_TYPES 392
5
5
5
5
5
5
5
5
5
5
5
5
5
5
5
5
5
5
5
5
5
5
5
5
5
5
5
5
5
5
5
5
5
5
5
5
5
5
5
5
5
5
5
5
5
5
5
5
5
5
5
5
5
5
5
5
5
5
5
5
5
5
5
5
5
5
5
5
5
5
5
5
5
5
5
5
5
5
5
5
5
5
5
5
5
5
5
5
5
5
5
5
5
5
5
5
5
5
5
5
5
5
5
5
5
5
5
5
5
5
5
5
5
5
5
5
5
5
5
5
5
5
5
5
5
5
5
5
5
5
5
5
5
5
5
5
5
5
5
5
5
5
5
5
5
5
5
5
5
5
5
5
5
5
5
5
5
5
5
5
5
5
5
5
5
5
5
5
5
5
5
5
5
5
5
5
5
5
5
5
5
5
5
5
5
5
5
5
5
5
5
5
5
5
5
5
5
5
5
5
5
5
5
5
5
5
5
5
5
5
5
5
5
5
5
5
5
5
5
5
5
5
5
5
5
5
5
5
5
5
5
5
5
5
5
5
5
5
5
5
5
5
5
5
5
5
5
5
5
5
5
5
5
5
5
5
5
5
5
5
5
5
5
5
5
5
5
5
5
5
5
5
5
5
5
5
5
5
5
5
5
5
5
5
5
5
5
5
5
5
5
5
5
5
5
5
5
5
5
5
5
5
5
5
5
5
5
5
5
5
5
5
5
5
5
5
5
5
5
5
5
5
5
5
5
5
5
5
5
5
5
5
5
5
5
5
5
5
5
5
5
5
5
5
5
5
5
5
5
5
5
5
5
5
5
5
5
5
5
5
5
5
5
5
5
5
5
5
5
5
5
5
5
5
5
5
5
5
5
5
5
5
5
5
5
5
5
5
5
5
5
5

CELL_DATA 392
SCALARS cell_data_0 double
LOOKUP_TABLE default
1.02139057829e-06
2.49651207899e-07
1.58944376882e-07
1.03571147816e-07
4.62506797132e-08
6.7821888174e-08
8.22789155944e-08
1.23267509498e-08
3.95942174773e-08
2.59195192474e-07
8.72713600053e-09
1.18132326265e-07
3.60027716605e-07
1.0245030744e-07
8.63542437573e-08
2.23179522915e-08
8.51055264337e-07
1.91038005262e-07
1.4252529502e-07
8.90817026846e-07
2.4958983687e-07
2.86184656e-07
1.21087570962e-06
9.17407042205e-07
1.53759511519e-07
1.18103481199e-07
7.71230960448e-07
1.7513365646e-08
7.30739515262e-08
4.40639717968e-07
1.08642864154e-06
5.931871762e-07
7.54287312621e-07
1.18773367032e-07
1.42437210236e-07
2.39855213543e-07
1.4587628897e-07
8.57086293586e-07
1.96734145567e-07
1.12498070395e-07
1.55103972025e-07
1.2147078155e-07
2.02999100333e-07
1.52119745681e-07
1.28511284899e-07
2.28765079798e-07
1.16179427264e-07
1.77346913905e-07
3.21234240426e-08
1.27933728477e-08
4.25253620186e-07
4.70368438795e-07
2.01693403547e-07
9.00016057012e-07
1.47007497363e-07
6.81649399969e-08
2.1608386976e-07
1.12127004597e-06
1.39888346369e-07
1.29252734686e-07
8.88841453176e-07
7.47972545264e-08
1.06756783378e-07
1.45879139833e-07
8.16412504316e-08
1.70304705339e-07
4.57270829825e-07
2.6610905768e-07
1.38130184331e-07
1.21591676486e-07
4.27796899583e-07
3.79738909552e-07
3.48828498162e-07
2.09236779089e-07
1.06470824016e-07
2.03760867831e-08
2.79537520605e-07
2.93579540058e-07
1.02294910076e-07
7.53248884532e-08
1.68625096114e-07
3.74647937606e-08
1.1584310877e-07
3.21322164048e-07
6.26510294049e-08
1.90691487283e-07
4.32382276675e-09
1.67227698626e-07
2.553204979e-08
1.63903990957e-07
9.28868389192e-08
6.43701016039e-08
1.56224407895e-07
7.050751175e-08
1.57338645497e-07
1.25787405448e-08
1.69495836377e-07
9.7201033378e-08
7.47471014376e-08
6.10642824417e-08
5.59303844929e-07
8.61818263508e-08
6.73714001973e-08
4.25014105611e-08
1.34333413789e-07
2.88354108686e-08
2.69572482348e-08
1.06281082946e-07
9.59729176369e-08
2.41351387162e-07
9.16986910602e-08
2.03615250249e-08
2.07788226779e-07
4.88650126818e-10
7.41029789197e-08
5.20704625469e-08
1.98380030642e-07
8.34850663998e-08
6.83131066234e-08
1.8515885861e-07
1.3955521246e-07
7.47410141852e-08
6.15590647474e-08
3.15946642457e-09
3.31696965776e-08
4.68740398727e-08
4.92043739048e-08
2.92325517938e-08
3.81917748155e-08
6.33528980716e-08
2.09953150632e-07
1.50179305275e-09
1.40616066428e-08
3.35109566085e-08
1.34374880508e-07
1.27306119783e-08
7.06823337696e-08
9.5839556239e-08
3.5963613278e-08
7.4632728066e-08
2.13216585461e-08
1.86122886086e-07
3.46617251419e-08
2.94978498564e-07
1.38448052545e-07
2.35838206613e-08
8.26018972707e-08
6.02238551748e-08
2.62291530073e-08
1.0157443373e-07
5.8850204409e-08
6.50371722698e-08
3.5665710449e-08
4.65487094242e-08
1.19109360696e-07
1.20340806676e-07
8.83203018028e-08
1.82859773485e-07
2.9109127184e-07
5.98193584265e-08
1.72143262861e-08
8.3936298803e-08
2.36790586827e-08
3.47948022561e-08
8.78010854266e-08
5.40434770598e-08
1.31916345963e-07
1.0121239436e-07
2.97047616933e-08
1.30992265018e-07
7.41396747298e-08
3.23648473686e-07
7.71430482116e-08
1.02916821556e-07
2.74230682222e-07
4.10705218501e-08
6.75290007381e-08
2.56742841419e-07
2.03201857352e-08
6.78000323223e-08
3.51168022623e-08
6.73199363915e-08
4.29825492462e-08
3.51368709605e-08
2.58536817904e-10
8.70198325353e-08
1.48586390559e-07
1.47648231162e-07
1.019948672e-07
1.60055821864e-08
1.78899835093e-07
4.95368942109e-08
1.936946686e-07
1.17417529521e-07
8.43771247956e-08
2.56826581743e-07
1.26063815066e-07
9.54124247631e-08
1.09275491582e-07
9.10834762293e-08
2.42498415854e-07
2.60159875653e-07
1.23313405713e-07
3.61593175721e-08
1.12345322751e-07
1.53569960813e-07
6.97233423695e-08
9.91109469339e-08
5.31611328966e-08
1.38524825181e-07
9.67853133663e-09
6.09347528833e-08
1.66499946612e-08
1.73209847184e-08
4.44439921552e-08
2.23524883474e-08
1.29234984605e-07
2.64237373536e-07
1.81765409627e-09
1.68737126614e-07
1.5506614284e-07
6.52364225329e-08
8.29897047327e-08
9.31160200561e-08
6.96190256135e-08
8.19106696588e-09
3.31779298043e-08
8.11723705394e-08
3.58777177318e-08
5.69665059763e-08
8.51254156658e-08
1.77616900054e-09
2.7812153938e-09
1.20319975929e-07
3.15315649112e-08
1.31123964329e-07
7.08596439993e-08
1.20157907755e-07
6.47209814969e-08
1.05269395387e-07
7.07325427261e-08
2.92010340826e-08
2.9268398348e-09
5.03402497172e-08
9.52518747625e-09
4.97467405712e-08
2.82127159935e-08
2.0279211374e-07
6.78894003664e-08
2.33393287939e-07
2.11914639546e-08
9.27199864266e-08
7.90857767556e-08
2.2157255536e-08
8.80012400396e-08
1.60737553486e-07
8.06456149952e-08
3.29181106057e-08
5.35402506531e-08
2.78322443075e-08
7.89804065195e-08
9.51782969251e-08
8.1330454142e-08
5.947296112e-08
1.42579444793e-07
2.15528742408e-07
2.19402567444e-07
1.49436714743e-08
3.7064257885e-08
2.01566326421e-08
1.19990190981e-07
1.00057960408e-07
4.26909462061e-08
5.9212981166e-09
2.15030762271e-08
3.48687997369e-08
8.14194725421e-08
8.78832941827e-08
1.80562505425e-08
8.89258136641e-08
3.55737324417e-08
1.57152363782e-07
1.02877522104e-08
2.26126788064e-07
7.7622486212e-08
2.36611727232e-07
2.05885677102e-07
3.29510432546e-08
3.57303961696e-07
3.20865431755e-08
1.70276094854e-07
2.20910922098e-08
3.85541054947e-08
1.23661760327e-07
2.72319293253e-08
7.76719736252e-08
1.02102270289e-11
3.48796575486e-08
5.93528435146e-08
3.02556567415e-08
1.00715981905e-07
7.49886143351e-08
1.95941362921e-08
2.05376894307e-08
2.48050602203e-07
6.08766326383e-09
2.88390035553e-08
1.07807904449e-07
9.34212953886e-08
5.61361542873e-08
4.70688247284e-08
1.14368108804e-07
6.72344276401e-07
2.08040111972e-07
7.30055871846e-08
6.64573335233e-08
2.19229886446e-07
4.79503929188e-08
1.12585909085e-07
9.16267037377e-09
7.80444280479e-08
3.45815354904e-08
6.50534418648e-08
5.67047087362e-08
1.54607590502e-07
1.22373327705e-08
4.97934215614e-08
4.57538994859e-08
1.8083339246e-08
7.55094978108e-08
1.59845090256e-08
5.90893950362e-09
2.56382244025e-08
3.46698643373e-08
7.67397570335e-09
6.1969549959e-08
6.32672414661e-09
1.94950595076e-08
2.98104101083e-08
3.4850475037e-08
3.35141318057e-09
8.94282592742e-08
4.86161299313e-09
2.96309191473e-08
3.87167591456e-08
8.3286865982e-08
1.34142897799e-07
2.44053041668e-09
1.13214262464e-07
1.1886693688e-07
3.65454168926e-09
8.35659517405e-08
2.25462670177e-08
1.43522268494e-08
9.90541497159e-08
7.09142510792e-08
8.58727463348e-09
1.30510241044e-08
1.16479605619e-08
4.61150294181e-08
1.35814455234e-08
1.56930220794e-08
2.72718514751e-08
1.6572995273e-07
6.13690569106e-10
6.90886100946e-08
2.71297273207e-08
2.36371027925e-08
6.52215898549e-08
4.09820201045e-08
8.48457549037e-08
1.12081807898e-08
1.04245183065e-08
1.16105243509e-07
2.47397833477e-07
2.44769701154e-07
6.54323470082e-07
2.2053838973e-07
6.12486789066e-09
1.20195527646e-07
3.61778634984e-08
1.16917438371e-08
4.40647625404e-08
3.76686731592e-08
2.10649226819e-07
1.18411034129e-08
1.20843635243e-07
1.18787525016e-08
2.0921015674e-08
6.39932103178e-08
8.37587918644e-09
9.51422922813e-08

