# vtk DataFile Version 3.0
File Name: Molecule/sphere_cent/sphere_cent_0-s7.vtk
ASCII
DATASET UNSTRUCTURED_GRID
FIELD FieldData 1
TIME 1 1 double
0.0
POINTS 269 double
1.70130162 -1.05146222 0.0
1.72533696 -0.86777713 -0.51978383
1.92387672 -0.54653306 0.0
1.90211303 -0.3249197 -0.52573111
1.38756095 -0.32124407 -1.40409289
1.38756095 0.32124407 -1.40409289
1.70130162 0.0 -1.05146222
1.05146222 0.0 -1.70130162
1.90211303 0.3249197 -0.52573111
1.72533696 0.86777713 -0.51978383
1.92387672 0.54653306 0.0
1.70130162 1.05146222 0.0
1.40409289 1.38756095 -0.32124407
1.37638192 1.17557051 -0.85065081
0.86777713 0.51978383 -1.72533696
1.17557051 0.85065081 -1.37638192
0.85065081 1.37638192 -1.17557051
0.32124407 1.40409289 -1.38756095
0.51978383 1.72533696 -0.86777713
0.61803399 1.0 -1.61803399
0.0 1.70130162 -1.05146222
1.40409289 1.38756095 0.32124407
1.05146222 1.70130162 0.0
0.0 1.92387672 -0.54653306
0.52573111 1.90211303 -0.3249197
0.0 2.0 0.0
0.52573111 1.90211303 0.3249197
0.0 1.92387672 0.54653306
0.51978383 1.72533696 0.86777713
0.0 1.70130162 1.05146222
-0.51978383 1.72533696 0.86777713
-0.52573111 1.90211303 0.3249197
-1.0 1.61803399 0.61803399
-0.52573111 1.90211303 -0.3249197
-1.05146222 1.70130162 0.0
-1.0 1.61803399 -0.61803399
-0.51978383 1.72533696 -0.86777713
-1.40409289 1.38756095 0.32124407
-1.40409289 1.38756095 -0.32124407
-1.70130162 1.05146222 0.0
-0.32124407 1.40409289 1.38756095
-0.85065081 1.37638192 1.17557051
-1.37638192 1.17557051 0.85065081
-1.72533696 0.86777713 0.51978383
-1.61803399 0.61803399 1.0
-1.17557051 0.85065081 1.37638192
-1.38756095 0.32124407 1.40409289
-0.86777713 0.51978383 1.72533696
-1.05146222 0.0 1.70130162
0.32124407 1.40409289 1.38756095
0.0 1.05146222 1.70130162
-0.61803399 1.0 1.61803399
0.61803399 1.0 1.61803399
-0.3249197 0.52573111 1.90211303
-0.54653306 0.0 1.92387672
0.3249197 0.52573111 1.90211303
0.86777713 0.51978383 1.72533696
0.54653306 0.0 1.92387672
1.05146222 0.0 1.70130162
-0.86777713 -0.51978383 1.72533696
-0.3249197 -0.52573111 1.90211303
-0.61803399 -1.0 1.61803399
0.0 0.0 2.0
0.0 -1.05146222 1.70130162
0.3249197 -0.52573111 1.90211303
0.61803399 -1.0 1.61803399
-0.32124407 -1.40409289 1.38756095
0.32124407 -1.40409289 1.38756095
0.0 -1.70130162 1.05146222
0.86777713 -0.51978383 1.72533696
1.38756095 -0.32124407 1.40409289
1.17557051 -0.85065081 1.37638192
1.61803399 -0.61803399 1.0
0.85065081 -1.37638192 1.17557051
0.51978383 -1.72533696 0.86777713
1.0 -1.61803399 0.61803399
1.37638192 -1.17557051 0.85065081
1.72533696 -0.86777713 0.51978383
1.40409289 -1.38756095 0.32124407
0.86777713 -0.51978383 -1.72533696
0.54653306 0.0 -1.92387672
0.3249197 -0.52573111 -1.90211303
0.61803399 -1.0 -1.61803399
0.32124407 -1.40409289 -1.38756095
0.0 -1.05146222 -1.70130162
-0.32124407 -1.40409289 -1.38756095
0.0 -1.70130162 -1.05146222
-0.3249197 -0.52573111 -1.90211303
-0.86777713 -0.51978383 -1.72533696
-0.54653306 0.0 -1.92387672
-1.05146222 0.0 -1.70130162
1.90211303 -0.3249197 0.52573111
1.90211303 0.3249197 0.52573111
1.61803399 0.61803399 1.0
1.70130162 0.0 1.05146222
1.72533696 0.86777713 0.51978383
1.38756095 0.32124407 1.40409289
1.37638192 1.17557051 0.85065081
1.0 1.61803399 0.61803399
0.85065081 1.37638192 1.17557051
1.17557051 0.85065081 1.37638192
-1.38756095 -0.32124407 -1.40409289
-1.38756095 0.32124407 -1.40409289
-1.70130162 0.0 -1.05146222
-1.61803399 -0.61803399 -1.0
-1.61803399 0.61803399 -1.0
-1.90211303 -0.3249197 -0.52573111
-1.90211303 0.3249197 -0.52573111
-2.0 0.0 0.0
-1.72533696 -0.86777713 -0.51978383
-1.92387672 -0.54653306 0.0
-1.70130162 -1.05146222 0.0
-1.72533696 0.86777713 -0.51978383
-1.92387672 0.54653306 0.0
-0.32124407 1.40409289 -1.38756095
-0.85065081 1.37638192 -1.17557051
-0.61803399 1.0 -1.61803399
-0.86777713 0.51978383 -1.72533696
-1.17557051 0.85065081 -1.37638192
-1.37638192 1.17557051 -0.85065081
-1.40409289 -1.38756095 -0.32124407
-1.40409289 -1.38756095 0.32124407
-1.05146222 -1.70130162 0.0
-1.0 -1.61803399 -0.61803399
-1.0 -1.61803399 0.61803399
-0.51978383 -1.72533696 -0.86777713
-0.52573111 -1.90211303 -0.3249197
0.0 -1.92387672 -0.54653306
0.0 -2.0 0.0
-0.52573111 -1.90211303 0.3249197
-0.51978383 -1.72533696 0.86777713
0.0 -1.92387672 0.54653306
-1.72533696 -0.86777713 0.51978383
-1.37638192 -1.17557051 0.85065081
-1.61803399 -0.61803399 1.0
-0.85065081 -1.37638192 1.17557051
-1.17557051 -0.85065081 1.37638192
-1.38756095 -0.32124407 1.40409289
-1.70130162 0.0 1.05146222
-1.90211303 0.3249197 0.52573111
-1.90211303 -0.3249197 0.52573111
-1.17557051 -0.85065081 -1.37638192
-0.61803399 -1.0 -1.61803399
-0.85065081 -1.37638192 -1.17557051
-1.37638192 -1.17557051 -0.85065081
0.51978383 -1.72533696 -0.86777713
0.52573111 -1.90211303 -0.3249197
1.40409289 -1.38756095 -0.32124407
1.05146222 -1.70130162 0.0
0.52573111 -1.90211303 0.3249197
1.78201305 -0.47735386 -0.77237477
1.61803399 -0.61803399 -1.0
1.68035577 -0.31286893 -1.03851698
1.82596499 -0.16464716 -0.7992141
1.61803399 0.61803399 -1.0
1.51587084 0.907981 -0.9368597
1.20300191 1.41421356 -0.74349607
1.0 1.61803399 -0.61803399
1.41421356 0.74349607 -1.20300191
1.29315558 1.02675088 -1.12850842
1.02675088 1.12850842 -1.29315558
1.12850842 1.29315558 -1.02675088
0.9368597 1.51587084 -0.907981
-0.74349607 1.20300191 1.41421356
-1.12850842 1.29315558 1.02675088
-1.29315558 1.02675088 1.12850842
-1.02675088 1.12850842 1.29315558
-0.907981 0.9368597 1.51587084
-0.16464716 0.7992141 1.82596499
0.0 0.5328094 1.92772253
0.16464716 0.7992141 1.82596499
-0.16448493 0.26614221 1.97537668
0.16448493 0.26614221 1.97537668
1.02675088 -1.12850842 1.29315558
1.12850842 -1.29315558 1.02675088
1.29315558 -1.02675088 1.12850842
1.12850842 1.29315558 1.02675088
1.02675088 1.12850842 1.29315558
1.29315558 1.02675088 1.12850842
-0.7992141 -1.82596499 -0.16464716
-0.5328094 -1.92772253 0.0
-0.7992141 -1.82596499 0.16464716
1.97537668 -0.16448493 -0.26614221
2.0 0.0 0.0
1.68035577 0.31286893 -1.03851698
1.82596499 0.16464716 -0.7992141
1.78201305 0.47735386 -0.77237477
1.92772253 0.0 -0.5328094
1.97537668 0.16448493 -0.26614221
1.03851698 1.68035577 -0.31286893
1.03851698 1.68035577 0.31286893
0.77237477 1.78201305 -0.47735386
0.7992141 1.82596499 -0.16464716
0.5328094 1.92772253 0.0
0.7992141 1.82596499 0.16464716
0.77237477 1.78201305 0.47735386
0.16448493 -0.26614221 -1.97537668
0.16464716 -0.7992141 -1.82596499
-0.16464716 -0.7992141 -1.82596499
0.0 -0.5328094 -1.92772253
-0.31286893 -1.03851698 -1.68035577
-0.47735386 -0.77237477 -1.78201305
-0.16448493 -0.26614221 -1.97537668
0.0 0.0 -2.0
1.97537668 -0.16448493 0.26614221
1.97537668 0.16448493 0.26614221
1.92772253 0.0 0.5328094
-1.02675088 1.12850842 -1.29315558
-1.29315558 1.02675088 -1.12850842
-1.12850842 1.29315558 -1.02675088
0.75007714 0.76722747 -1.68782295
0.71645759 0.26331074 -1.8486092
0.44023406 0.26558495 -1.93278519
0.60251776 0.5281655 -1.83248835
0.3249197 0.52573111 -1.90211303
0.27590449 0.0 -1.98087776
0.16448493 0.26614221 -1.97537668
0.47735386 0.77237477 -1.78201305
-0.16448493 0.26614221 -1.97537668
0.0 0.5328094 -1.92772253
-0.3249197 0.52573111 -1.90211303
-0.16464716 0.7992141 -1.82596499
0.16464716 0.7992141 -1.82596499
0.0 1.05146222 -1.70130162
-0.47735386 0.77237477 -1.78201305
-0.31286893 1.03851698 -1.68035577
0.31286893 1.03851698 -1.68035577
1.2136503 -1.5173046 -0.47417265
1.41421356 -0.74349607 -1.20300191
0.907981 -0.9368597 -1.51587084
1.51587084 -0.907981 -0.9368597
1.29315558 -1.02675088 -1.12850842
1.37638192 -1.17557051 -0.85065081
1.17557051 -0.85065081 -1.37638192
1.12850842 -1.29315558 -1.02675088
1.02675088 -1.12850842 -1.29315558
0.85065081 -1.37638192 -1.17557051
1.20300191 -1.41421356 -0.74349607
0.9368597 -1.51587084 -0.907981
1.0 -1.61803399 -0.61803399
0.74349607 -1.20300191 -1.41421356
1.68782295 -0.75007714 -0.76722747
1.56690339 -1.03224324 -0.69230603
1.58529846 -1.14250332 -0.42604573
1.40461969 -1.29482379 -0.59200919
-0.1622837 1.24047916 -1.56040874
0.1622837 1.24047916 -1.56040874
0.0 1.42256347 -1.40581406
1.78201305 -0.47735386 0.77237477
1.82596499 -0.16464716 0.7992141
1.68035577 -0.31286893 1.03851698
0.77237477 -1.78201305 -0.47735386
0.26614221 -1.97537668 -0.16448493
1.03851698 -1.68035577 -0.31286893
0.7992141 -1.82596499 -0.16464716
0.7992141 -1.82596499 0.16464716
0.5328094 -1.92772253 0.0
1.03851698 -1.68035577 0.31286893
0.77237477 -1.78201305 0.47735386
0.26614221 -1.97537668 0.16448493
1.14250332 -0.42604573 -1.58529846
1.29482379 -0.59200919 -1.40461969
1.03224324 -0.69230603 -1.56690339
0.69230603 -1.56690339 -1.03224324
0.59200919 -1.40461969 -1.29482379
0.42604573 -1.58529846 -1.14250332
-0.71645759 0.26331074 -1.8486092
-0.44023406 0.26558495 -1.93278519
-0.60251776 0.5281655 -1.83248835

CELLS 534 2136
3 0 1 2
3 1 3 2
3 4 5 6
3 4 7 5
3 8 9 10
3 10 9 11
3 11 9 12
3 9 13 12
3 5 14 15
3 5 7 14
3 16 17 18
3 16 19 17
3 18 17 20
3 11 12 21
3 12 22 21
3 18 23 24
3 18 20 23
3 24 23 25
3 26 27 28
3 26 25 27
3 28 27 29
3 29 27 30
3 27 31 30
3 27 25 31
3 30 31 32
3 25 33 31
3 33 34 31
3 33 35 34
3 31 34 32
3 25 23 33
3 23 36 33
3 23 20 36
3 33 36 35
3 32 34 37
3 34 38 37
3 34 35 38
3 37 38 39
3 29 30 40
3 30 41 40
3 30 32 41
3 32 37 42
3 37 43 42
3 37 39 43
3 42 43 44
3 45 46 47
3 45 44 46
3 47 46 48
3 29 40 49
3 40 50 49
3 40 51 50
3 49 50 52
3 51 47 53
3 47 54 53
3 47 48 54
3 52 55 56
3 55 57 56
3 56 57 58
3 48 59 54
3 59 60 54
3 59 61 60
3 54 60 62
3 61 63 60
3 63 64 60
3 63 65 64
3 60 64 62
3 61 66 63
3 66 67 63
3 66 68 67
3 63 67 65
3 62 64 57
3 64 69 57
3 64 65 69
3 57 69 58
3 58 69 70
3 69 71 70
3 69 65 71
3 70 71 72
3 65 67 73
3 67 74 73
3 67 68 74
3 73 74 75
3 72 76 77
3 76 78 77
3 76 75 78
3 77 78 0
3 7 79 80
3 79 81 80
3 79 82 81
3 82 83 84
3 83 85 84
3 83 86 85
3 87 88 89
3 89 88 90
3 0 2 77
3 2 91 77
3 92 93 94
3 10 95 92
3 10 11 95
3 92 95 93
3 94 96 70
3 94 93 96
3 70 96 58
3 11 21 95
3 21 97 95
3 21 98 97
3 95 97 93
3 98 28 99
3 28 49 99
3 28 29 49
3 99 49 52
3 93 100 96
3 100 56 96
3 100 52 56
3 96 56 58
3 90 101 102
3 101 103 102
3 101 104 103
3 102 103 105
3 104 106 103
3 106 107 103
3 106 108 107
3 103 107 105
3 104 109 106
3 109 110 106
3 109 111 110
3 106 110 108
3 105 107 112
3 107 113 112
3 107 108 113
3 112 113 39
3 20 114 36
3 114 115 36
3 114 116 115
3 36 115 35
3 116 117 118
3 117 102 118
3 117 90 102
3 118 102 105
3 35 119 38
3 119 112 38
3 119 105 112
3 38 112 39
3 111 120 121
3 120 122 121
3 120 123 122
3 121 122 124
3 123 125 126
3 125 127 126
3 125 86 127
3 126 127 128
3 124 129 130
3 129 131 130
3 129 128 131
3 130 131 68
3 111 121 132
3 121 133 132
3 121 124 133
3 132 133 134
3 124 135 133
3 135 136 133
3 135 61 136
3 133 136 134
3 124 130 135
3 130 66 135
3 130 68 66
3 135 66 61
3 134 136 137
3 136 59 137
3 136 61 59
3 137 59 48
3 48 46 137
3 46 138 137
3 46 44 138
3 137 138 134
3 44 139 138
3 139 140 138
3 139 108 140
3 138 140 134
3 44 43 139
3 43 113 139
3 43 39 113
3 139 113 108
3 134 140 132
3 140 110 132
3 140 108 110
3 132 110 111
3 90 88 101
3 88 141 101
3 88 142 141
3 101 141 104
3 142 143 141
3 143 144 141
3 143 123 144
3 141 144 104
3 142 85 143
3 85 125 143
3 85 86 125
3 143 125 123
3 104 144 109
3 144 120 109
3 144 123 120
3 109 120 111
3 86 145 127
3 145 146 127
3 147 78 148
3 147 0 78
3 149 74 131
3 131 74 68
3 1 150 3
3 151 152 150
3 152 153 150
3 152 6 153
3 150 153 3
3 6 152 4
3 4 152 151
3 154 155 9
3 9 155 13
3 13 156 12
3 12 156 157
3 154 158 155
3 158 159 155
3 158 15 159
3 155 159 13
3 15 160 159
3 160 161 159
3 160 16 161
3 159 161 13
3 16 160 19
3 19 160 15
3 13 161 156
3 161 162 156
3 161 16 162
3 156 162 157
3 15 158 5
3 5 158 154
3 157 162 18
3 162 16 18
3 41 163 40
3 40 163 51
3 42 164 32
3 32 164 41
3 42 165 164
3 165 166 164
3 165 45 166
3 164 166 41
3 45 165 44
3 44 165 42
3 41 166 163
3 166 167 163
3 166 45 167
3 163 167 51
3 51 167 47
3 167 45 47
3 53 168 51
3 51 168 50
3 53 169 168
3 169 170 168
3 169 55 170
3 168 170 50
3 53 171 169
3 171 172 169
3 171 62 172
3 169 172 55
3 50 170 52
3 170 55 52
3 62 171 54
3 54 171 53
3 55 172 57
3 172 62 57
3 73 173 65
3 65 173 71
3 73 174 173
3 174 175 173
3 174 76 175
3 173 175 71
3 76 174 75
3 75 174 73
3 71 175 72
3 175 76 72
3 99 176 98
3 98 176 97
3 99 177 176
3 177 178 176
3 177 100 178
3 176 178 97
3 100 177 52
3 52 177 99
3 97 178 93
3 178 100 93
3 126 179 123
3 123 179 122
3 126 180 179
3 180 181 179
3 180 129 181
3 179 181 122
3 129 180 128
3 128 180 126
3 122 181 124
3 181 129 124
3 3 182 2
3 2 182 183
3 6 184 185
3 184 186 185
3 184 154 186
3 185 186 8
3 3 187 182
3 187 188 182
3 187 8 188
3 182 188 183
3 154 184 5
3 5 184 6
3 183 188 10
3 188 8 10
3 8 186 9
3 186 154 9
3 157 189 12
3 12 189 22
3 22 190 21
3 21 190 98
3 157 191 189
3 191 192 189
3 191 24 192
3 189 192 22
3 24 193 192
3 193 194 192
3 193 26 194
3 192 194 22
3 26 193 25
3 25 193 24
3 22 194 190
3 194 195 190
3 194 26 195
3 190 195 98
3 24 191 18
3 18 191 157
3 98 195 28
3 195 26 28
3 81 196 80
3 84 197 82
3 82 197 81
3 84 198 197
3 198 199 197
3 198 87 199
3 197 199 81
3 84 200 198
3 200 201 198
3 200 142 201
3 198 201 87
3 81 199 196
3 199 202 196
3 199 87 202
3 196 202 203
3 142 200 85
3 85 200 84
3 203 202 89
3 202 87 89
3 87 201 88
3 201 142 88
3 183 204 2
3 2 204 91
3 183 205 204
3 205 206 204
3 205 92 206
3 204 206 91
3 94 206 92
3 92 205 10
3 10 205 183
3 118 207 116
3 116 207 115
3 118 208 207
3 208 209 207
3 208 119 209
3 207 209 115
3 119 208 105
3 105 208 118
3 115 209 35
3 209 119 35
3 8 187 153
3 153 187 3
3 6 185 153
3 153 185 8
3 14 210 15
3 15 210 19
3 80 211 7
3 7 211 14
3 80 212 211
3 212 213 211
3 212 214 213
3 211 213 14
3 80 215 212
3 215 216 212
3 215 203 216
3 212 216 214
3 14 213 210
3 213 217 210
3 213 214 217
3 210 217 19
3 203 218 216
3 218 219 216
3 218 220 219
3 216 219 214
3 220 221 219
3 221 222 219
3 221 223 222
3 219 222 214
3 220 224 221
3 224 225 221
3 224 116 225
3 221 225 223
3 214 222 217
3 222 226 217
3 222 223 226
3 217 226 19
3 89 218 203
3 116 224 117
3 19 226 17
3 225 116 114
3 203 215 196
3 196 215 80
3 227 147 148
3 151 228 4
3 79 229 82
3 151 230 228
3 230 231 228
3 230 232 231
3 228 231 233
3 232 234 231
3 234 235 231
3 234 236 235
3 231 235 233
3 232 237 234
3 237 238 234
3 237 239 238
3 234 238 236
3 233 235 229
3 235 240 229
3 235 236 240
3 229 240 82
3 151 241 230
3 241 242 230
3 241 1 242
3 230 242 232
3 1 243 242
3 243 244 242
3 243 147 244
3 242 244 232
3 147 243 0
3 0 243 1
3 232 244 237
3 244 227 237
3 244 147 227
3 237 227 239
3 82 240 83
3 238 239 145
3 223 245 246
3 245 247 246
3 245 114 247
3 246 247 17
3 17 247 20
3 247 114 20
3 1 241 150
3 150 241 151
3 223 246 226
3 226 246 17
3 114 245 225
3 225 245 223
3 91 248 77
3 77 248 72
3 91 249 248
3 249 250 248
3 249 94 250
3 248 250 72
3 72 250 70
3 250 94 70
3 239 251 145
3 145 251 146
3 146 252 127
3 127 252 128
3 239 253 251
3 253 254 251
3 253 148 254
3 251 254 146
3 148 255 254
3 255 256 254
3 255 149 256
3 254 256 146
3 148 257 255
3 257 258 255
3 257 75 258
3 255 258 149
3 146 256 252
3 256 259 252
3 256 149 259
3 252 259 128
3 75 257 78
3 78 257 148
3 128 259 131
3 259 149 131
3 149 258 74
3 258 75 74
3 4 260 7
3 7 260 79
3 4 261 260
3 261 262 260
3 261 233 262
3 260 262 79
3 236 263 264
3 263 265 264
3 263 145 265
3 264 265 83
3 83 265 86
3 265 145 86
3 89 266 267
3 266 268 267
3 266 117 268
3 267 268 220
3 117 266 90
3 90 266 89
3 94 249 206
3 206 249 91
3 89 267 218
3 218 267 220
3 220 268 224
3 224 268 117
3 148 253 227
3 227 253 239
3 233 261 228
3 228 261 4
3 79 262 229
3 229 262 233
3 236 264 240
3 240 264 83
3 145 263 238
3 238 263 236

CELL_TYPES 534
5
5
5
5
5
5
5
5
5
5
5
5
5
5
5
5
5
5
5
5
5
5
5
5
5
5
5
5
5
5
5
5
5
5
5
5
5
5
5
5
5
5
5
5
5
5
5
5
5
5
5
5
5
5
5
5
5
5
5
5
5
5
5
5
5
5
5
5
5
5
5
5
5
5
5
5
5
5
5
5
5
5
5
5
5
5
5
5
5
5
5
5
5
5
5
5
5
5
5
5
5
5
5
5
5
5
5
5
5
5
5
5
5
5
5
5
5
5
5
5
5
5
5
5
5
5
5
5
5
5
5
5
5
5
5
5
5
5
5
5
5
5
5
5
5
5
5
5
5
5
5
5
5
5
5
5
5
5
5
5
5
5
5
5
5
5
5
5
5
5
5
5
5
5
5
5
5
5
5
5
5
5
5
5
5
5
5
5
5
5
5
5
5
5
5
5
5
5
5
5
5
5
5
5
5
5
5
5
5
5
5
5
5
5
5
5
5
5
5
5
5
5
5
5
5
5
5
5
5
5
5
5
5
5
5
5
5
5
5
5
5
5
5
5
5
5
5
5
5
5
5
5
5
5
5
5
5
5
5
5
5
5
5
5
5
5
5
5
5
5
5
5
5
5
5
5
5
5
5
5
5
5
5
5
5
5
5
5
5
5
5
5
5
5
5
5
5
5
5
5
5
5
5
5
5
5
5
5
5
5
5
5
5
5
5
5
5
5
5
5
5
5
5
5
5
5
5
5
5
5
5
5
5
5
5
5
5
5
5
5
5
5
5
5
5
5
5
5
5
5
5
5
5
5
5
5
5
5
5
5
5
5
5
5
5
5
5
5
5
5
5
5
5
5
5
5
5
5
5
5
5
5
5
5
5
5
5
5
5
5
5
5
5
5
5
5
5
5
5
5
5
5
5
5
5
5
5
5
5
5
5
5
5
5
5
5
5
5
5
5
5
5
5
5
5
5
5
5
5
5
5
5
5
5
5
5
5
5
5
5
5
5
5
5
5
5
5
5
5
5
5
5
5
5
5
5
5
5
5
5
5
5
5
5
5
5
5
5
5
5
5
5
5
5
5
5
5
5
5
5
5
5
5
5
5
5
5
5
5
5
5
5
5
5
5
5
5
5
5
5
5
5
5
5
5
5
5
5
5
5
5
5
5
5
5
5
5
5
5
5
5
5
5
5
5
5
5
5
5
5
5
5
5
5

CELL_DATA 534
SCALARS cell_data_0 double
LOOKUP_TABLE default
4.7152974657e-08
8.06410237533e-08
9.25749072563e-08
3.58309033857e-08
6.9113258955e-08
1.76189008058e-08
2.53554675554e-08
7.22650201621e-08
1.09891637981e-07
6.12732813065e-08
4.02058190822e-08
5.35624244114e-08
1.12882436176e-08
3.3609933727e-08
9.34190929928e-08
2.52871534421e-08
2.45545015794e-08
1.46118253971e-08
6.44013773153e-09
2.33551627138e-08
5.12531096994e-08
3.43422335839e-08
2.92326992997e-09
4.85991837469e-08
1.75086159894e-08
7.76032462119e-08
1.2871120633e-07
1.2006452674e-07
1.09354669814e-07
2.38741005594e-08
2.61395307649e-08
1.54211877802e-08
6.3381675439e-09
1.32597697688e-08
2.47634069829e-08
9.08214062059e-09
2.65888403199e-08
1.04113536285e-08
4.78230442579e-08
7.18796214451e-09
1.08366039157e-08
5.63618450554e-09
2.78905240649e-08
2.58613989901e-08
2.61247320261e-08
2.90131078976e-08
5.16050546163e-08
1.31965738129e-08
1.5425281906e-08
2.01850944816e-08
5.02923954491e-09
1.73330351599e-08
3.62893561123e-08
3.93683920528e-08
8.69959082414e-09
4.35702782278e-08
1.13847644231e-08
1.6281372298e-08
4.98686462535e-08
1.3090632337e-08
4.06390337449e-08
9.65709765673e-08
1.18105868456e-07
8.53814496821e-08
1.30191030799e-07
2.02825763283e-08
4.98863396876e-08
5.29892546436e-08
1.58696423553e-08
8.20564825353e-09
3.45706553867e-09
1.97735864447e-08
2.1088344138e-08
2.85188196024e-08
7.18160766231e-09
4.04516836546e-09
7.81187388842e-09
5.10479200366e-08
5.68534071983e-08
4.72274616651e-08
2.58083788183e-08
3.20788463694e-08
2.85468713154e-08
2.66900514838e-08
2.56617883723e-08
7.75649887148e-08
7.18821824961e-08
6.62869213766e-08
3.90081302959e-08
7.70375495607e-09
2.57230369128e-08
5.80512227442e-08
3.07687054778e-08
1.78176837415e-08
7.73913902295e-08
1.38374459409e-07
4.51523810224e-08
1.03313352284e-08
1.5317539863e-08
4.80417849131e-08
5.14687053214e-09
1.84088303449e-08
3.02486322017e-08
3.7986294778e-08
4.51297620917e-08
2.56706213062e-09
1.15191135674e-08
5.06528523534e-09
3.54901975134e-08
2.40586771637e-09
7.91021634043e-09
3.4216729641e-08
8.4282949773e-09
1.86635960032e-09
2.29510889601e-08
1.8288210583e-08
3.24947887414e-08
3.70546090968e-08
6.57749136956e-08
1.05571389926e-07
7.84341686376e-08
6.65674074162e-08
3.29475542885e-08
1.42888998013e-08
1.67921560998e-08
2.63401721373e-08
4.26339755077e-08
1.28756542021e-08
2.15397922524e-08
2.56015045722e-08
1.17844429202e-09
1.40420681561e-08
2.67435991676e-08
7.26810968693e-09
4.3557203401e-08
3.25703762012e-08
4.87785367125e-08
5.233152169e-09
2.48072018829e-08
2.151271115e-08
1.14267658182e-08
2.62234735008e-08
2.37356055847e-08
1.98205487356e-09
2.15983533217e-08
3.78493109041e-09
8.66992925188e-09
9.40242735576e-09
9.19454473478e-09
5.09636538009e-08
2.82225845097e-08
3.56524533037e-08
7.38050956516e-09
2.41640498986e-08
3.19240977258e-08
2.40378924199e-08
3.5963747611e-08
7.30021633865e-08
7.37449683788e-08
6.26397505627e-08
6.64471080796e-08
2.11690838541e-08
2.63873560274e-08
2.00618359547e-08
3.91310700263e-09
4.01458090092e-09
6.78387734966e-08
1.16864286915e-08
3.30053565596e-08
3.23533272355e-08
5.96853559401e-08
2.54773107569e-08
1.26717201987e-08
5.33715871068e-08
1.43663277043e-07
1.25907724835e-07
1.06012794119e-07
5.99633274623e-08
3.59390864592e-08
4.4923506203e-08
1.94772661859e-08
4.62812687915e-09
5.35674116526e-08
1.56411627179e-08
3.05734755801e-08
4.09880592543e-08
2.8582298046e-08
3.4389378691e-08
6.41311349653e-09
1.74105088631e-08
1.22423291159e-07
2.68016778262e-07
2.21371344531e-07
1.85587403529e-07
3.79334359561e-09
2.62881932409e-09
1.46231739001e-08
1.14908205444e-08
5.58463383423e-08
9.88141800593e-08
5.54193602564e-08
2.4358157885e-08
1.0204750524e-07
2.19594318379e-07
2.41601846802e-07
1.28539762981e-07
1.03416387065e-07
3.2825126812e-09
2.45865882983e-09
2.05929191363e-08
1.9250247531e-08
1.76673198776e-08
2.4435257772e-08
1.02237331062e-08
1.01702198978e-08
1.04939888566e-08
2.77728968223e-08
2.20867610139e-08
2.92221877747e-10
2.42884291609e-08
1.60438049048e-08
1.74509119634e-08
2.93954443089e-08
2.38267149084e-08
1.83497334831e-08
2.51858760842e-08
1.99961933303e-08
2.6243864259e-08
4.30131278625e-08
2.56283342225e-08
2.12238031414e-08
2.02416924485e-08
1.87186559038e-08
6.86322676185e-09
5.84161155934e-09
5.39014701944e-09
2.55484815968e-08
1.7946420286e-08
2.91928647866e-08
1.47414188889e-09
1.28065119895e-08
4.63686721298e-08
1.4537619941e-08
2.72815978302e-08
2.66060766742e-08
2.83064697151e-08
1.56759377779e-08
2.02466544071e-08
1.70481688356e-08
2.48220203759e-08
3.27681833671e-08
4.48717052706e-08
3.02628402341e-08
1.10638592143e-08
2.08116134829e-09
2.71602533703e-08
1.70505203216e-08
2.79388240596e-08
4.25960709951e-08
2.44506554378e-08
1.38232566656e-08
2.9965447701e-08
2.62096896735e-08
7.54135524638e-09
9.66739216532e-09
2.73086439909e-08
2.74585839716e-08
2.94866524414e-08
2.58820858115e-08
1.54938102243e-08
1.06600933282e-08
5.80733589179e-08
2.19997053078e-09
6.05749401174e-08
4.7708886163e-08
2.18464828071e-08
2.29071520451e-08
1.73923044123e-09
7.52943906188e-09
1.04361306092e-08
1.07882333495e-08
4.22878758202e-08
1.48730788543e-08
4.21592565732e-08
4.22910215574e-08
8.01355808363e-09
8.81044098948e-09
7.12694141572e-09
5.93892068113e-09
8.69151476235e-09
3.210511699e-09
4.40019506754e-08
1.58257099846e-08
4.5215259235e-08
4.40545654472e-08
3.24379570469e-09
1.76476396254e-08
5.76919297548e-09
5.14342380953e-09
2.58962763335e-08
4.23789481554e-09
2.16570398788e-08
1.18384163663e-08
2.57373967612e-08
3.57712082146e-08
1.77851846096e-08
1.95895440028e-08
2.50936565268e-08
1.90376641012e-08
2.24821181066e-09
8.10110166578e-09
9.5602064663e-10
2.88248410985e-08
2.24272836273e-08
8.05407420192e-09
1.24923071823e-08
2.69932527831e-08
1.35716821725e-08
2.48319539509e-08
2.82008773374e-08
1.70047645626e-08
2.4091712884e-08
2.08799167731e-08
2.5977666971e-08
2.08606842877e-08
2.71933786789e-08
1.02549724796e-08
9.65013504036e-09
3.45479693839e-09
2.47409767842e-08
1.42730143869e-10
3.93864569305e-08
4.3699834092e-08
3.77214245279e-08
7.5154742981e-09
6.21140710684e-08
5.28185917064e-08
5.30484890456e-09
2.21067171872e-08
3.16830342219e-08
3.15157009979e-08
1.96170442768e-08
1.4087439124e-08
2.33996605678e-08
3.11488848346e-08
1.21058161868e-08
3.66575251314e-08
2.5368499314e-08
2.56499409534e-08
1.57929293013e-08
2.20037914809e-08
2.11020476644e-08
4.90742641458e-08
4.67982347265e-08
1.73386374322e-08
2.81077135016e-08
2.29511012252e-08
3.75735211793e-08
9.49595756786e-09
1.42696148612e-08
1.54955566165e-08
1.69432530928e-08
3.96494501169e-08
1.93788000988e-08
5.08638199657e-08
2.63596848029e-08
2.53934142196e-09
4.2988940367e-10
1.2967636248e-08
4.27117426371e-08
7.72213863315e-09
4.06294745429e-08
5.99014170733e-08
9.88197118381e-09
1.2299218099e-08
7.76108432458e-10
9.92389488097e-09
3.05811697576e-08
1.58861428499e-08
2.07314388822e-08
2.11567054546e-08
1.03191623082e-09
2.95141576744e-08
2.79509805799e-08
2.1290906635e-08
3.20637890744e-08
4.25152901547e-09
2.38747755914e-09
3.08800169501e-08
3.12869437822e-08
6.3842031054e-09
2.9082660138e-08
2.92009498843e-09
2.83203599192e-08
5.0016163949e-10
1.52479015489e-09
3.28928443233e-08
2.55677955807e-08
1.11963281433e-08
1.22320408561e-08
1.23365862075e-08
1.40054585246e-08
1.91371337347e-08
2.02434921289e-08
2.00045424349e-08
6.42941552327e-09
1.30963952177e-08
3.71844324906e-08
1.74110581383e-08
1.09527366463e-08
5.23636144853e-09
1.21311687923e-08
2.93901097893e-08
2.55787351681e-11
2.3590718219e-08
1.78961727386e-08
1.44186931062e-08
2.84247504034e-08
1.39205468346e-08
7.5664798518e-08
1.80457609111e-08
1.25231924278e-08
3.68171234553e-08
3.65560886633e-09
8.81115462048e-09
4.55687116814e-10
8.67762672314e-09
1.91633589035e-09
1.11458575658e-08
8.14380466962e-09
7.49647006376e-09
5.23242774076e-09
3.09300985598e-08
8.15276732279e-10
5.16935954691e-09
7.04713076403e-09
1.63681543246e-08
3.30681540948e-08
1.96280548e-08
9.77674071048e-09
1.70273739704e-08
8.36495321018e-09
1.94894472717e-08
1.57587966799e-08
4.67340897141e-09
9.1669219069e-10
3.24127744748e-08
6.11973055251e-09
6.03337698897e-09
2.50194899747e-09
7.56506693696e-09
2.29962905367e-08
4.2062519976e-09
2.21580909726e-08
1.44432714647e-08
1.80789806683e-08
2.30139261328e-08
2.53156497292e-08
3.32946303027e-08
3.068939993e-08
2.22926199338e-09
1.91589319601e-08
1.94701733323e-09
1.27254668228e-08
8.94145116628e-09
8.92247115211e-09
1.73082504806e-08
2.80036239816e-08
1.77212896366e-08
2.55175812019e-08
2.36177658193e-08
2.2651498499e-08
2.63154004725e-08
1.62503960181e-08
2.01905817241e-08
4.3238645675e-08
2.5569844461e-08
1.66077865186e-08
1.97112860135e-08
1.25053052648e-08
6.97805932452e-11
1.08947643444e-09
7.32086345742e-09
1.61730589693e-08
1.07123014429e-09
1.10451280903e-08
1.17903811169e-09
2.12515145692e-08
2.61085913906e-08
5.8127406535e-09
5.13845494363e-09
2.06826838962e-08
6.14450742374e-09
1.92250816092e-08
2.62955076428e-08
2.07595028014e-08
2.81306180374e-08
1.27614085638e-09
1.0083082863e-08
2.81989164421e-08
1.53753716629e-08
1.09746999761e-08
2.53920620097e-08
1.84972316655e-08
1.28931735647e-08
2.30792022372e-08
1.65753627447e-08
1.92985907603e-08
7.01158683361e-09
2.59253288839e-08
7.25944101061e-09
2.17707160365e-08
2.78014669882e-08
1.98239921369e-08
2.40896323888e-08
9.91768402772e-09
3.39532216446e-09
1.24074146084e-08
1.25681504287e-08
1.78676809467e-08
1.13039222606e-08
1.20974217582e-09
4.4547186203e-09
1.35496970038e-08
1.94872704245e-08
2.34820195774e-08
5.38567301872e-10
1.63171940173e-08
1.30852714332e-08
1.67404450875e-09
6.59680494581e-09
8.94379114304e-09
3.762119178e-09
2.87432088666e-09

