# vtk DataFile Version 3.0
File Name: Molecule/sphere_cent/sphere_cent_0-s23.vtk
ASCII
DATASET UNSTRUCTURED_GRID
FIELD FieldData 1
TIME 1 1 double
0.0
POINTS 457 double
-0.29874333739 -0.52097457647 0.79883265495
-0.058633435518 -0.53807097673 0.84068316221
-0.13717591763 -0.33799043298 0.93105995655
0.066701412201 -0.25473558903 0.96429681778
0.089848734438 -0.41883969307 0.90313345194
-0.014048021287 0.99950444698 0.0012658531778
-0.21561986208 0.9698600173 -0.1129559949
-0.2919973433 0.95058691502 0.10392373055
-0.45297026634 0.89083975554 -0.032752458006
-0.62738215923 0.59062588215 0.50729840994
-0.51590025425 0.49473255873 0.69807887077
-0.42733183503 0.64159399271 0.63561892509
-0.32168462873 0.5300308466 0.78431981802
-0.22437402606 -0.9665338397 0.12233065814
-0.0074123726226 -0.99964183569 0.025696886703
-0.0049713877961 -0.97204953432 0.23436510563
-0.49771291018 -0.794275105 0.347954005
-0.42272466421 -0.70483708382 0.56821715832
-0.62395608425 -0.63295847178 0.4582284987
-0.29225683212 -0.83962053061 0.45750784874
-0.19426123798 -0.70812940598 0.6786737442
0.18803620338 -0.97180998325 0.14180709422
-0.94375693798 -0.083375670016 -0.31990092993
-0.93416279554 0.14882466197 -0.32433047891
-0.864182055 0.047088868916 -0.50085073709
-0.82467788458 0.28789997101 -0.48675650358
0.54214698076 -0.8349019289 0.093359686434
0.68905311823 -0.69387841225 0.20747004449
0.52652525902 -0.78102523088 0.33385285735
-0.30841201544 0.49055317044 -0.81434804201
-0.40316927433 0.30567485094 -0.86228179932
-0.5235093236 0.45301285386 -0.72159290314
0.35303732753 -0.52992767096 -0.7709184885
0.4488427937 -0.67069935799 -0.59052407742
0.23698870838 -0.67836558819 -0.69517415762
0.51383382082 -0.77235281467 -0.37332421541
0.31753158569 -0.84261733294 -0.43415376544
0.11702475697 -0.54166340828 -0.83213543892
0.33279171586 -0.91562777758 -0.22472785413
0.21599461138 0.89511674643 -0.38954788446
0.036560446024 0.96596616507 -0.25587031245
0.26230600476 0.94708943367 -0.18244552612
0.78275799751 -0.31287679076 -0.53609377146
0.69661492109 -0.15308173001 -0.70079082251
0.81884151697 -0.062496311963 -0.57059907913
0.70717078447 0.0606822595 -0.704462111
0.85636270046 0.51273447275 -0.056712698191
0.94758224487 0.31825125217 0.01133350376
0.90573048592 0.37966483831 -0.18826498091
0.56817471981 -0.48194083571 -0.66558718681
0.8202906251 -0.49971270561 -0.27633857727
0.70480686426 -0.66873961687 -0.23662239313
0.66602009535 -0.59480684996 -0.44848412275
0.83538979292 -0.54646939039 -0.055669333786
0.90673005581 -0.12877395749 -0.40140381455
0.91915601492 0.067764870822 -0.38791465759
0.97632086277 -0.054471354932 -0.20924808085
0.96972161531 0.16914340854 -0.17600549757
0.93685781956 -0.24637208879 -0.24764488637
0.82165759802 0.15766702592 -0.54774218798
0.88996261358 0.26812189817 -0.36881551147
0.78245168924 0.34800344706 -0.51599466801
0.97516214848 -0.21594908834 -0.049377411604
0.9988720417 -0.037173081189 0.028381707147
-0.84496563673 -0.26850071549 0.46234053373
-0.7256385684 -0.16753187776 0.66732364893
-0.85774564743 -0.049371488392 0.50988852978
0.5547530055 -0.81732904911 -0.15559320152
0.69342893362 -0.72001796961 -0.024825859815
-0.5717421174 -0.4953096509 0.65272313356
-0.76126366854 -0.46517726779 0.4516261816
-0.70704901218 -0.3478820622 0.61557018757
-0.58731222153 -0.26752716303 0.76385951042
-0.73816978931 0.01804564707 0.67440623045
-0.53765797615 -0.014087321237 0.8429698348
-0.75674074888 0.1561563164 -0.63442206383
-0.68904316425 0.35035222769 -0.63443255424
-0.67912238836 0.53677493334 -0.50027054548
-0.56885915995 0.26387318969 -0.77849340439
-0.38659083843 -0.50849688053 -0.76919257641
-0.19835469127 -0.54100340605 -0.81709992886
-0.2547737956 -0.66235685349 -0.70442020893
-0.065373450518 -0.66858428717 -0.74046254158
0.81938606501 0.44247555733 -0.36443793774
0.54901027679 -0.019760780036 -0.83546000719
0.58152288198 0.21165604889 -0.78547281027
0.70401906967 0.26340425014 -0.65954482555
0.56383872032 0.42981085181 -0.70478475094
-0.83813631535 0.30843192339 0.44985762239
-0.81668061018 0.15482196212 0.55596417189
-0.71385872364 0.36035609245 0.59977120161
-0.6739461422 0.17568852007 0.71754038334
-0.92517310381 0.17063096166 0.33601492643
-0.51688790321 0.25808060169 0.8154027462
-0.43120780587 -0.65254372358 -0.62213236094
0.80713737011 0.54217505455 -0.23335550725
0.68907719851 0.59290313721 -0.41641950607
-0.1615305841 -0.23861989379 -0.95754295588
-0.30095082521 -0.36371478438 -0.88150852919
-0.35771551728 -0.17251737416 -0.91773408651
-0.49369224906 -0.30069208145 -0.81591135263
-0.56520050764 -0.071504898369 -0.82186067104
-0.31696781516 -0.15672421455 0.93542295694
-0.26738449931 0.010253313929 0.96351146698
-0.11456421018 -0.12934443355 0.98495727777
-0.035470806062 0.082093589008 0.99583947659
-0.86972564459 -0.49305555224 0.019831074402
-0.88779377937 -0.38712581992 0.2486564815
-0.96118438244 -0.27070978284 0.052769713104
-0.95527273417 -0.15077345073 0.25296407938
-0.9976952076 -0.056190151721 0.034842200577
-0.78089588881 -0.5627155304 0.27083954215
-0.87812715769 -0.28853976727 -0.38144594431
-0.83655369282 -0.1448802352 -0.5282959938
-0.98817783594 0.088928289711 -0.12484143674
-0.98475176096 -0.12572529912 -0.12018509209
-0.93781530857 -0.30682462454 -0.16217152774
-0.85063427687 -0.45955330133 -0.25503519177
-0.76317596436 -0.46817219257 -0.44515872002
-0.67576998472 -0.21721087396 -0.70440590382
-0.61154609919 -0.43148547411 -0.6631976366
-0.77035534382 -0.31045597792 -0.55660951138
-0.73847723007 -0.61314320564 -0.2805082798
-0.23847514391 0.00096282921731 -0.97066068649
-0.86651068926 0.41375049949 0.27936267853
-0.55959326029 0.80899012089 -0.17998738587
-0.36610370874 0.90142756701 -0.23097658157
-0.53808254004 0.82952231169 0.14928336442
-0.42982923985 0.84675782919 0.31307682395
-0.60297262669 0.72585886717 0.33102142811
-0.66148668528 0.7500244379 -0.0074246157892
-0.69626891613 0.69921004772 0.16196247935
-0.84996414185 0.52674287558 0.0088341850787
-0.70759010315 0.68624520302 -0.16834264994
-0.6262486577 0.70170909166 -0.33982658386
-0.44909089804 0.7579048872 0.473046422
-0.77315878868 0.46345859766 0.43293792009
-0.76691359282 0.57984089851 0.2749799192
-0.47209206223 0.8175458312 -0.32977366447
-0.77763402462 0.5689342618 -0.26738271117
-0.98621946573 0.11616609991 0.1085896194
-0.93988907337 0.30803027749 0.14780165255
-0.9642637372 0.26461172104 -0.012390810996
-0.93340748549 0.31685715914 -0.16850961745
-0.44732305408 -0.76110094786 -0.46947753429
-0.28990417719 -0.7766290307 -0.55906790495
-0.30891487002 -0.86355233192 -0.39747965336
0.95991438627 -0.049551874399 0.27312636375
0.95961618423 -0.22272107005 0.17185550928
0.89585721493 -0.24156318605 0.37098115683
0.87191641331 -0.40789878368 0.26899856329
0.91617566347 -0.38154301047 -0.12229934335
0.92781174183 -0.36832481623 0.058925863355
-0.3048325479 0.85859763622 -0.41216242313
-0.17660742998 0.93312519789 -0.31321245432
-0.10013082623 0.86485499144 -0.49160820246
-0.27042320371 0.86735808849 0.41763690114
-0.25080764294 0.78725260496 0.56266742945
-0.063032507896 0.86161118746 0.50278264284
0.36831727624 -0.89025634527 0.26789772511
0.18693500757 -0.91744947433 0.35117989779
0.32724246383 -0.81655442715 0.47540387511
0.12345214188 -0.82313936949 0.55412572622
-0.27600026131 0.77528518438 -0.56796199083
-0.45260849595 0.76218825579 -0.46264141798
0.23069617152 -0.70001906157 0.67503148317
-0.13867220283 0.69186240435 -0.70783287287
0.15395312011 -0.55798840523 0.81540715694
0.033344272524 -0.70168930292 0.71158951521
-0.010524431244 -0.89469951391 -0.44623476267
0.14993777871 -0.93506866693 -0.32089728117
-0.0086422171444 -0.97251969576 -0.2326195538
0.13913652301 -0.98343610764 -0.11559401453
-0.32926857471 -0.93329876661 -0.13811212778
-0.15140405297 -0.98305475712 -0.10341542214
-0.16487959027 -0.93711942434 -0.30743187666
-0.085236519575 -0.83792424202 0.53891247511
-0.74746733904 -0.042335763574 -0.66299289465
-0.78724884987 -0.60297304392 -0.12923513353
-0.71345710754 -0.7006521225 -0.0043644635007
-0.66370028257 -0.73406732082 -0.1436303407
-0.54675650597 -0.83629268408 -0.016466444358
-0.15725114942 -0.84973359108 -0.50298941135
0.48648667336 0.82812619209 0.27791792154
0.45759475231 0.76992851496 0.44468891621
0.59591293335 0.71781736612 0.35997539759
0.55669152737 0.65237599611 0.51428699493
0.3956861496 0.68436783552 0.61211144924
0.68480861187 0.59315341711 0.42330390215
0.51737958193 0.56427896023 0.64334964752
0.64849793911 0.51413285732 0.56134963036
0.60334259272 0.42091628909 0.67736816406
0.76469552517 0.43932697177 0.47130423784
0.716373384 0.35482740402 0.60068124533
0.81861692667 0.26887118816 0.50732177496
-0.45587003231 -0.38445463777 0.80260890722
-0.45385822654 -0.22455871105 0.86229282618
-0.33317741752 -0.33031594753 0.883020401
0.36842384934 -0.92490971088 0.093780383468
0.42373079062 -0.90410035849 -0.053927250206
0.28491175175 -0.95808964968 -0.028651878238
-0.15724366903 -0.92537862062 0.34452083707
-0.36388584971 -0.89606302977 0.25373807549
0.018237683922 -0.90980052948 0.41458812356
0.72239094973 0.14337442815 0.67571926117
-0.11771342903 0.2812230885 0.95148062706
-0.3238081634 0.27798476815 0.9043545723
-0.22263944149 0.1638918519 0.96104121208
-0.39266887307 0.14140015841 0.90868866444
0.89824783802 0.39580622315 0.18986058235
0.86863583326 0.35014855862 0.35017704964
0.95397931337 0.24733360112 0.16935020685
0.73120296001 0.62627696991 0.26970759034
0.60261756182 0.7692039609 0.21199789643
0.78303873539 0.51189231873 0.35332620144
-0.39911520481 0.39507260919 0.82741373777
-0.23178787529 0.40114924312 0.88613057137
-0.6563244462 -0.69904255867 0.28374388814
-0.62920981646 -0.76385211945 0.14352166653
-0.74177771807 -0.65578585863 0.14017032087
0.15241588652 -0.26695048809 -0.95157134533
0.23870585859 -0.40251192451 -0.88350903988
0.010263808072 -0.38308465481 -0.92345279455
0.55016899109 0.6628280282 -0.50785386562
0.5858322978 0.72318667173 -0.36566135287
[...]
CELL_DATA 910
SCALARS cell_data_0 double
LOOKUP_TABLE default
1.12142119604e-07
5.71926213509e-08
1.50375152981e-07
9.09294382085e-08
1.10590430621e-08
2.09433924983e-08
1.10151398374e-07
2.71474952801e-08
4.69321543397e-08
1.1191837277e-07
7.34375502304e-08
1.07531033107e-08
3.29603130389e-08
1.10062471381e-07
4.58365723388e-08
1.04467764905e-07
4.36854463531e-08
6.51416254903e-08
5.96027182436e-08
3.4918099949e-08
1.07707668643e-07
8.64077316655e-08
2.80993622198e-08
2.5396226859e-09
1.91534970747e-07
1.46171327333e-07
2.45419874201e-08
5.44704569916e-08
7.88250985822e-09
1.41325885663e-07
1.03279111514e-10
1.38358953595e-08
2.41735214203e-08
3.30820604953e-08
7.32865687168e-08
7.37455047827e-09
1.073065971e-08
1.26388519727e-08
4.56070362012e-09
9.90831530901e-08
6.65461313934e-08
1.12275503279e-07
3.09152442921e-08
9.93608601151e-08
2.94268338996e-08
6.3432673463e-08
6.77503606405e-08
4.14704906046e-09
4.29515446237e-08
5.81234879377e-08
7.37526650356e-08
3.73572632518e-08
1.44163135005e-07
1.47634886957e-07
1.62463473658e-09
1.38380452697e-08
2.86215626252e-08
2.79149097453e-08
1.84422913874e-07
5.33901257733e-08
2.45931821924e-08
5.58003441897e-08
1.74277583443e-08
1.8946109935e-08
1.12172197473e-08
3.75080600718e-08
5.41128771801e-09
5.60628117678e-08
2.37827948436e-08
1.15521811512e-08
2.76443430071e-08
1.20560979384e-07
1.33634855146e-07
3.10248334418e-08
7.95657764988e-09
1.17136842607e-08
5.04522362784e-08
1.04825318254e-08
2.25658108694e-08
3.80313906693e-08
4.95828582204e-08
3.2762029742e-08
8.74360912643e-09
1.68680611905e-07
4.95228867296e-08
4.28316064688e-08
4.11732683447e-08
1.80071302088e-08
2.74267359019e-08
1.30502842348e-07
5.9810168958e-08
4.79965389073e-08
6.84856486564e-08
1.07383638978e-08
4.67741788855e-08
5.74540069737e-08
5.16333935169e-08
4.23153188002e-08
5.22622876528e-08
4.01257530425e-08
6.04732152763e-08
2.6414378247e-08
1.94639401067e-08
1.02970422589e-07
3.72957584714e-08
1.36265894416e-08
1.22001948369e-09
8.16670436198e-08
7.81965045489e-08
5.53350180457e-08
9.13581096955e-08
3.47285261005e-09
3.88203343734e-08
6.75124551222e-08
2.4468547262e-08
2.82413895798e-08
9.90780926387e-09
3.48911178081e-08
7.09684693925e-08
6.7503573374e-08
1.36701889083e-08
2.61244011714e-08
2.29310412766e-08
9.72011299519e-08
1.72411235073e-07
3.62108760783e-09
1.0995315267e-08
9.19271162247e-08
1.12971761634e-07
6.2635475246e-08
4.53623043675e-08
3.68362556398e-09
1.00134525698e-07
2.09794097835e-08
6.47140701515e-08
4.62193470236e-08
4.73336131633e-08
1.33293990581e-07
8.3713582313e-08
2.37544040325e-08
1.15386692299e-07
3.88204940458e-08
4.22952641365e-08
4.11891450784e-08
1.72860467516e-07
9.38341524575e-08
6.51650072306e-08
4.17699581919e-08
3.75260443614e-08
1.28184661695e-08
1.07785133284e-07
1.29890344566e-07
2.76607505966e-08
7.89293619771e-08
1.43026625783e-07
1.40981342521e-08
4.69845621289e-10
1.32644292516e-07
8.88162426908e-08
2.20389874272e-08
3.97608052357e-08
6.41927970388e-08
9.52226217342e-08
9.63850882e-08
4.29759604973e-08
3.60163371159e-08
1.39778279258e-09
6.71379284465e-08
3.54399615344e-08
1.41266001209e-08
2.70779517103e-08
5.1625069651e-08
3.46453702615e-08
2.40183366272e-08
1.67013926021e-08
9.5546717231e-08
7.34587903321e-08
7.12807472776e-08
1.02780102889e-07
4.47773876096e-08
6.63785225946e-08
2.75089983221e-08
1.21354851453e-08
4.18824786444e-08
8.05185584023e-08
7.43238730136e-08
1.83333516166e-08
5.28864392396e-08
3.65268312186e-08
8.36019451241e-08
5.13960637471e-08
2.51670445941e-08
2.69771956305e-08
1.87329044859e-08
5.51238060896e-08
8.31889259191e-09
6.61805776384e-08
8.90083051322e-08
6.32765447466e-08
1.24640823113e-08
5.62559175116e-08
2.07312289505e-08
7.31798357327e-08
7.55927331638e-08
1.08637150739e-07
1.37008186912e-07
6.18528811334e-08
5.71617865222e-08
6.56538857106e-09
3.79541548092e-08
3.2091026244e-08
8.23750704908e-08
8.56660403688e-08
1.40483652959e-08
5.49616111309e-08
6.56981604488e-09
5.48311430372e-08
3.00942720812e-08
3.98882641142e-08
1.76131789329e-08
4.47541169437e-08
3.15731976322e-08
6.17313403035e-08
6.23385504509e-08
2.80302829542e-08
4.84733106367e-08
2.59489504521e-08
4.20928639523e-09
5.82896238058e-09
1.30595495716e-08
9.94739336825e-09
2.35664547825e-08
1.91487987052e-08
3.43074705354e-08
5.80314715257e-08
4.64690884785e-08
3.47601600885e-08
3.9450756067e-08
4.7595975851e-10
1.15785197583e-08
2.16819891047e-08
3.26745270103e-08
7.10177852446e-08
6.0362494857e-08
5.49991109944e-08
5.92104433485e-08
4.11158097968e-08
8.18904406694e-08
7.26636009994e-08
6.96895369685e-08
1.12560543845e-07
1.43046743402e-07
4.29106523268e-08
2.58808287104e-08
1.08560036806e-08
4.57512190737e-08
4.83467588669e-08
6.57862549896e-08
5.56122618099e-08
2.78763024151e-08
4.69174404368e-08
2.04021718372e-08
3.20690381219e-08
4.97366426347e-08
5.40561551043e-08
2.54725009436e-08
1.6453070853e-08
2.36414648522e-08
2.06075525418e-09
1.35858213389e-08
5.01992452118e-08
4.63443388435e-08
5.18790072804e-08
7.88938196649e-08
4.31783465217e-08
9.96580443232e-09
4.21483707408e-08
9.97283977769e-08
2.89128025472e-08
7.74472235635e-08
4.65760752942e-08
4.80046284581e-09
1.05043944407e-08
5.86447038663e-09
4.37203775945e-08
7.5865153198e-09
1.40669377434e-08
1.62308010302e-08
2.24491218699e-08
1.14971330474e-08
2.23384270151e-08
2.63955562409e-08
6.52637296856e-09
7.67427190959e-08
5.71560074793e-08
4.71524661688e-08
1.94391983973e-08
2.23786121187e-08
2.06477279077e-08
5.74992188036e-08
4.80717460682e-08
9.06099150347e-08
1.96351652423e-09
9.95213637354e-09
2.53264737513e-08
5.1884266054e-09
1.18110415186e-07
7.65008944949e-09
1.35626654838e-08
2.16071539566e-09
6.09378726323e-10
7.12252030516e-08
2.13079135475e-08
1.40685535624e-08
5.070247305e-08
3.03632367151e-08
9.38701469148e-08
1.15451190426e-07
7.78204344603e-09
6.77162663424e-09
1.49251663519e-08
1.8493661156e-08
3.48630089233e-08
6.06035175419e-10
2.84974400348e-09
1.40631778813e-08
4.15654963048e-08
3.06679401967e-08
1.36602179994e-08
9.50187841994e-09
1.18775837709e-08
2.6498031194e-08
2.68226962259e-09
1.7357689308e-08
1.34806998367e-08
1.28445104155e-08
2.05268136552e-08
1.165684367e-07
4.2087026445e-08
5.47365516015e-08
1.86888436377e-08
8.94721998996e-08
8.33087351913e-08
2.52519915929e-08
6.94237360442e-09
7.65980348689e-10
1.27097937584e-08
6.56830107429e-09
3.71744000153e-08
7.55799326356e-11
3.91282228894e-09
3.41046514737e-08
8.81699473006e-09
1.01858364575e-08
1.77006287571e-08
8.47316056004e-09
2.06139670012e-08
2.46777274106e-08
1.04214015906e-09
9.42268919566e-09
2.02816214334e-08
5.43004917514e-09
4.57793979519e-08
2.74754507797e-08
2.6958129674e-09
2.52163432434e-08
4.87532988627e-08
3.43961056046e-08
2.33674385708e-09
4.2433043304e-08
3.73068084801e-08
3.39704379418e-08
2.48333822457e-08
2.67485506537e-08
2.62778660137e-09
3.61520491467e-08
3.8026311649e-08
3.13487275827e-08
2.15635464776e-08
4.24595935031e-08
1.51824960327e-08
3.63733213033e-08
2.19522352683e-08
3.84391070608e-08
2.49275754358e-08
1.76303026562e-07
2.34796665185e-08
1.58258810249e-08
5.57734641698e-08
4.27160414472e-09
3.79466067391e-08
7.33132291174e-08
4.69818172941e-08
2.03106596561e-08
3.98979586098e-08
2.95851276894e-08
6.16037908192e-08
1.25277810404e-08
2.76789085002e-08
9.85217547332e-09
3.93577007811e-08
5.26684259115e-08
2.06514267045e-08
1.32714480226e-08
4.32086604727e-08
6.0946370346e-08
2.96590566395e-08
5.41321072345e-08
1.08107136966e-08
6.71962301444e-09
9.90836328457e-09
8.917936058e-08
4.39574522744e-10
7.6610342305e-09
5.67170927683e-09
3.10298908305e-08
3.44970546619e-09
8.12442108081e-09
2.1165625498e-08
8.69925927291e-08
7.86460903309e-09
5.64221797329e-08
3.89425569887e-08
3.74229139888e-08
4.21870821389e-08
3.58422272802e-08
2.04910671766e-08
1.5850179873e-08
4.38351934239e-10
1.44894442474e-08
1.48077782451e-08
3.70358987452e-08
2.43589639514e-08
9.20203301538e-09
1.09972328411e-08
2.20152276488e-09
3.46061866494e-08
6.94206600141e-09
3.23337824232e-08
3.57364053932e-08
1.07408677523e-07
4.30245366986e-08
2.27815382624e-08
1.44218085147e-08
3.24504118852e-08
2.82848101251e-08
1.56032533785e-08
1.93129379459e-08
3.83602404405e-08
3.26244450779e-09
1.67726845044e-08
2.60612161413e-08
7.53509549899e-08
7.47439770303e-08
1.24335861615e-08
7.3992835471e-08
9.47417115175e-09
2.36708184443e-09
1.69472371289e-08
3.99325298345e-08
2.94664384468e-08
2.52097490049e-08
3.70512487588e-08
1.29227621844e-08
2.05938634689e-08
4.02854030739e-08
2.93390808886e-08
2.83289229181e-08
9.84371624765e-09
3.20576805604e-08
6.16852411621e-09
2.21184095219e-08
1.76245873434e-08
3.61013879595e-09
2.8369369107e-10
1.63715980665e-08
1.8025997059e-08
4.254838983e-08
3.27857490013e-08
2.31066570868e-08
2.85221277534e-08
8.53147982441e-09
2.15384349181e-09
2.1852055169e-08
2.35143367313e-08
2.5260947012e-08
1.15876212793e-08
1.4738484087e-08
2.15932708962e-09
2.34155675445e-08
1.39619166934e-09
3.83674280189e-08
3.26140931396e-08
6.21535088193e-08
3.16416238111e-08
1.77069942328e-08
3.99088749019e-08
2.22681447624e-08
5.91807701485e-08
1.79751906783e-08
7.41989538205e-08
2.68962427014e-08
2.90514481604e-09
4.25483576434e-08
6.48593152425e-09
1.35115486329e-08
1.17793369582e-10
5.99345360492e-08
3.81217377534e-08
6.03567831373e-09
8.03572299395e-09
2.38229458981e-08
4.28752689671e-09
7.56640437179e-09
1.71829736002e-08
2.69713116962e-08
8.78726496759e-09
1.39097403587e-08
3.05339379061e-08
2.84726404235e-08
2.13473322293e-08
2.22396634077e-09
7.09245025162e-09
1.44988415375e-08
2.78125672291e-08
1.08997851991e-08
2.16774175609e-08
8.13159471298e-09
2.51008510943e-08
4.16208717645e-09
1.99552237817e-08
2.66845999068e-08
5.55419224505e-08
1.35752846131e-08
4.23290342533e-09
2.5488926291e-08
9.21723162069e-09
3.4624482122e-09
9.90720659252e-09
2.83223475656e-08
3.69986331687e-10
3.21771528819e-08
2.97258220423e-08
4.69838629359e-08
4.7628557938e-08
1.37580673734e-08
9.54921859263e-09
1.40416921743e-08
9.78520408056e-09
2.10102719594e-08
1.79705827146e-08
6.36923539496e-09
5.80229492564e-10
2.69376336505e-08
3.00032413258e-08
8.51128870831e-09
1.73930605616e-08
8.72553003816e-09
1.70195947917e-08
2.32814214671e-08
1.94759299357e-08
2.61062761871e-08
1.7588297133e-08
3.16144773999e-08
5.17592688324e-09
2.86667157552e-08
3.32849314963e-08
1.95783231615e-08
6.20877117562e-09
2.06036670594e-08
4.03042537469e-08
3.46433102791e-09
1.10014083627e-08
2.98560980689e-08
1.73899008597e-08
8.81661148913e-09
3.12584922579e-08
1.86622181697e-08
4.10404084141e-09
9.19376294085e-09
4.92466628359e-09
1.53897408798e-08
2.35606006558e-08
5.16336989257e-08
5.20377724769e-09
2.94035203395e-08
2.26599700246e-08
6.80870661214e-09
2.06205859492e-08
4.51026065589e-08
1.79831608184e-08
1.51400106291e-08
8.6963828102e-09
3.41932492759e-08
3.33480197349e-09
4.21599695432e-09
2.08468512224e-08
1.20070150692e-08
1.09314612128e-09
1.66803041604e-08
5.03919798601e-09
1.32085563878e-08
2.80312349092e-08
5.73710254752e-10
2.87060424539e-08
2.63144552677e-08
1.66632463093e-08
3.49929377209e-10
3.97196026982e-08
6.07522130828e-09
4.5907504584e-09
1.24074618765e-08
8.74152725446e-09
3.00044181996e-09
8.70595559792e-08
1.21738243432e-08
7.71453632306e-09
9.38350349058e-09
2.83411258181e-08
6.37443447596e-09
2.85855581345e-08
2.98354976878e-09
1.73520976753e-08
9.60237285651e-09
4.59215915369e-08
9.29634360793e-09
4.46575146783e-09
7.91163861691e-09
2.59938533127e-08
8.50392937389e-09
6.04068282062e-09
7.69430874511e-09
1.60129838123e-08
1.81479945026e-08
2.53637045271e-09
1.27912252453e-08
2.95921410964e-08
3.66010347064e-08
4.04032085878e-09
1.11713192405e-09
6.46744574265e-09
8.86908274042e-09
4.24820911492e-09
4.16946585494e-09
7.90688741285e-09
3.67101787488e-09
6.65146260792e-09
1.95090366189e-08
1.06185418582e-08
1.07857431861e-08
4.92529489293e-10
1.56058987891e-08
3.31815648759e-08
5.8499490731e-09
7.61452944592e-08
1.8943998674e-08
1.7793882075e-09
2.82356091515e-08
2.24872122047e-08
1.40099344669e-08
1.57221082573e-09
1.95602134164e-08
2.93623343961e-08
4.93627354888e-09
1.84406893451e-09
7.0952954611e-09
7.49236784127e-09
3.0972667693e-08
1.3847407599e-08
3.9207897224e-08
2.09336161163e-08
4.60345982293e-08
7.35594719555e-09
5.86507261162e-10
1.35668531035e-08
7.55157718737e-09
6.21499688711e-09
1.30674105654e-08
7.85585851598e-09
3.00232586545e-08
2.54753222605e-08
4.58236465277e-09
1.60659497036e-09
2.15032528591e-08
1.40513870479e-08
9.70242295118e-09
2.10851093998e-08
5.06743494933e-09
1.34503349076e-08
1.05504165469e-07
3.19339532939e-08
4.17731041589e-10
2.53364442013e-08
5.1838459615e-10
4.36658463846e-08
6.08925734011e-08
3.15405065991e-08
1.57328333218e-08
3.2964258265e-08
2.43970177885e-08
1.09686832099e-08
9.00699825447e-09
3.03945456694e-08
2.16425241095e-10
3.15443568766e-09
4.96346582304e-09
5.94298509536e-09
1.89668779529e-08
1.78776182246e-08
2.43705021496e-08
1.50844612921e-08
5.9934613302e-09
1.92921438476e-08
2.19914631938e-08
1.50692092839e-08
1.81318052333e-08
6.4417457976e-09
7.49883044092e-09
2.99327987256e-08
3.87098070766e-08
9.53051913438e-09
1.69763105551e-08
2.02841300728e-09
3.0149678941e-08
8.26333110903e-09
9.90421033083e-09
8.02179997828e-09
1.60719275438e-08
2.89052672951e-08
2.02055561476e-08
1.07250672276e-08
2.57270826494e-09
2.76001997725e-08
1.38210426916e-08
3.11828283281e-08
2.59588909505e-09
3.37645131583e-08
7.17562874507e-09
2.04176253523e-08
7.47902014744e-09
2.15528101902e-08
3.20238072113e-08
1.28005198309e-09
1.41264387587e-08
2.42740750965e-08
7.2924416435e-09
8.30543368528e-09
5.38699754662e-09
8.80397275232e-09
2.84614338255e-08
4.76337391711e-08
6.54832312156e-09
2.42685055771e-08
1.48851720477e-09
2.71213344189e-08
3.49120392616e-08
1.73218073542e-08
1.76395223487e-08
6.55064723554e-09
1.88046845935e-08
2.03533612061e-08
8.76536292221e-09
2.11311218394e-08
2.09708166932e-08
2.56259778813e-08
1.88165104883e-08
3.11753396147e-08
1.72872036965e-09
1.56319041511e-08
5.58401282635e-09
1.97591773801e-08
5.46462863894e-08
2.79287869323e-08
2.83419124444e-10
1.15799261916e-08
1.4925079933e-08
2.90055718857e-08
9.03850523232e-09
4.44333310447e-08
3.45679995606e-08
1.06551579751e-08
3.76784541905e-08
1.85109755077e-08
4.01514759954e-09
1.84346579708e-08
1.32783739148e-08
2.79278543201e-08
1.42612448665e-08
2.77740519006e-08
1.82781223464e-09
1.80851150095e-08
2.37083615799e-08
1.36222593688e-08
1.73566046239e-08
6.38407332517e-09
7.64914921708e-09
3.23080933833e-08
7.43283794294e-08
1.57513034265e-09
6.15083293398e-09
1.31654289424e-08
1.04985743474e-08
6.94410823147e-08
2.79947442816e-09
5.57279485502e-08
1.06735677284e-08
2.1134821652e-08
7.75299935275e-09
1.89995557416e-08
1.32943328877e-08
2.40271828897e-08
4.68108421532e-09
4.09733244689e-08
1.27351494094e-08
1.93238289282e-08
1.58382567386e-08
1.27626214922e-08
3.12069049696e-08
5.75847185245e-09
7.08902042685e-09
2.62220773834e-09
1.50010552518e-08
3.19725201991e-08
2.16993914977e-08
2.84704795311e-08
5.75317098665e-08
3.52666826918e-09
3.06109204225e-08
1.95997413526e-08
6.96447343245e-09
6.37374437046e-10
2.24310134645e-08
1.45620001317e-08
5.11831649512e-09
1.30072891131e-08
4.573951943e-08
6.37567836864e-09
4.40885140118e-08
6.4486670577e-10
1.28981560927e-08
1.56701024118e-08
1.75642194569e-09
3.42097241177e-09
9.65727633666e-09
3.08253734371e-08
1.61578427335e-08
5.39096039137e-08
3.82214761237e-08
2.39306635e-08
1.47317167692e-08
1.6410914045e-08
1.36768939629e-08
3.00721297318e-08
2.01184845202e-08
1.78371831782e-08
1.74008465617e-08
9.16740936941e-09
3.6658217874e-08
1.09753725743e-08
1.15621993274e-08
4.96822144699e-09
2.35213407537e-08
4.07253234594e-08
8.54889207382e-08
2.26241378827e-08
5.13816562587e-09
1.00663291591e-08
1.84417695039e-08
1.05216557991e-08
3.34944557598e-08
3.09737168919e-08
3.55594379795e-08
4.98897781361e-09
1.38503880574e-08
2.39315259008e-08
3.11096692362e-10
1.20168723809e-08
4.65345791795e-09
1.10658141208e-10
3.70742616755e-09
1.66143383318e-09
1.60095897516e-08
2.47511759192e-08
9.62926424269e-09
3.25774453153e-08
2.51524282032e-09
5.42183315467e-09
1.14075264334e-08
6.5091344809e-09
3.03512902469e-08
1.58078131981e-08
9.12434717649e-10
5.85664649689e-09
1.04934002181e-08
7.27557656366e-10
2.76538267117e-08
1.67284616345e-10
1.35489471521e-08
2.13809478934e-08
1.43674824771e-08
2.42996739603e-08
6.9138925024e-09
1.70089560267e-09
1.17578423511e-08
4.06471830886e-08
9.78301586514e-09
1.2996960042e-08
5.3373635569e-09
7.54911070653e-09
7.31599742527e-10

