# vtk DataFile Version 3.0
File Name: Molecule/sphere_cent/sphere_cent_0-s26.vtk
ASCII
DATASET UNSTRUCTURED_GRID
FIELD FieldData 1
TIME 1 1 double
0.0
POINTS 615 double
0.049645859748 -0.24814370275 0.96724367142
-0.13060222566 -0.31645229459 0.9393684268
0.072644241154 -0.41798466444 0.90535974503
-0.60249507427 0.58720463514 0.5392164588
-0.49849587679 0.50743687153 0.70269596577
-0.44683513045 0.63498222828 0.63018196821
-0.3345169723 0.52814024687 0.78046089411
-0.49896511436 -0.78912442923 0.35806936026
-0.4455575645 -0.7048535943 0.55131310225
-0.61461085081 -0.6431440115 0.45568609238
-0.85807347298 0.065579548478 -0.50683885813
-0.92130810022 0.1447468996 -0.36051648855
-0.84046757221 0.26255747676 -0.4738432169
0.54416686296 -0.83318597078 0.098007924855
0.67791163921 -0.70440608263 0.21021816134
0.53485894203 -0.78376424313 0.31349477172
-0.32014116645 0.47274711728 -0.82089883089
-0.40752568841 0.31278216839 -0.85789626837
-0.4929214716 0.45822957158 -0.73932033777
0.32343280315 -0.52311587334 -0.78807240725
0.24441598356 -0.67131710052 -0.69970870018
0.12191411108 -0.55291503668 -0.82422679663
0.81119954586 -0.022940400988 -0.58410507441
0.70197635889 -0.14216345549 -0.69783473015
0.70660167933 0.065367132425 -0.7045788765
0.85950243473 0.50600594282 -0.07157112658
0.94412624836 0.3292273581 0.0011311341077
0.90598833561 0.37542015314 -0.19547589123
0.81565612555 -0.51483517885 -0.26345917583
0.70031297207 -0.6744800806 -0.23362721503
0.69469207525 -0.58067631721 -0.42405566573
0.83172696829 -0.55115443468 -0.064712613821
0.92048233747 0.063646025956 -0.38548028469
0.9768294096 -0.053907811642 -0.20705592632
0.92045652866 -0.12969447672 -0.36835566163
0.97028940916 0.16642178595 -0.17557428777
0.94089156389 -0.2390177995 -0.23983576894
0.82294487953 0.15917938948 -0.54532915354
0.89216607809 0.263712883 -0.36664068699
0.78950047493 0.3372387886 -0.51266503334
0.97486186028 -0.21677418053 -0.051527194679
0.99946844578 -0.023517435417 -0.0040717599913
-0.84047949314 -0.24035829306 0.4845610261
-0.74982625246 -0.15874299407 0.64199107885
-0.84379386902 -0.052837528288 0.5339627862
0.69221526384 -0.72129291296 -0.02123006992
0.56486093998 -0.81260329485 -0.13639014959
-0.71356278658 -0.33989500999 0.61256748438
-0.58384680748 -0.47455391288 0.65784293413
-0.57953381538 -0.30038687587 0.75714677572
-0.76452279091 0.15755450726 -0.62497001886
-0.56222474575 0.27443414927 -0.77994138002
-0.38438308239 -0.51420050859 -0.76645964384
-0.20697906613 -0.53762662411 -0.81727439165
-0.25962862372 -0.65863204002 -0.70622509718
-0.073952846229 -0.66007453203 -0.7475104332
0.82146900892 0.43612164259 -0.36743736267
0.55640286207 -0.027191760018 -0.8303964138
0.58358699083 0.20901355147 -0.78466558456
0.70575529337 0.26164677739 -0.65839546919
0.5735887289 0.41719669104 -0.70479112864
-0.83772492409 0.30899238586 0.45020309091
-0.81731301546 0.15497250855 0.55493056774
-0.73179030418 0.34916308522 0.58502137661
-0.74223464727 0.018293891102 0.6698268652
-0.6949762702 0.17981247604 0.69565719366
-0.91742306948 0.20023047924 0.34378415346
-0.41220116615 -0.66050606966 -0.62750840187
0.808360219 0.538672328 -0.23726476729
0.69521200657 0.58795136213 -0.41334357858
-0.17134016752 -0.23750759661 -0.95611208677
-0.30712583661 -0.36364674568 -0.87937617302
-0.34874486923 -0.1725089103 -0.92058813572
-0.29948717356 -0.19289432466 0.93396741152
-0.12038974464 -0.14242094755 0.98193651438
-0.99707388878 -0.064497888088 0.041436139494
-0.96286159754 -0.26474860311 0.051547970623
-0.96129357815 -0.14752946794 0.23085577786
-0.98304921389 -0.14109374583 -0.11053278297
-0.94450908899 -0.29160639644 -0.14972382784
-0.76846212149 -0.48289865255 -0.41546201706
-0.74648457766 -0.60733914375 -0.27159637213
-0.83662205935 -0.48392817378 -0.25535300374
-0.24134162068 -0.019133854657 -0.97015190125
-0.87485933304 0.38302612305 0.29554116726
-0.55945402384 0.8093701601 -0.1784375459
-0.43793585896 0.89741122723 -0.044007603079
-0.36913862824 0.90008991957 -0.23133641481
-0.69308173656 0.69450116158 -0.18977339566
-0.60341709852 0.72429889441 -0.33319288492
-0.7903932333 0.43998381495 0.42566055059
-0.47090175748 0.8204138875 -0.32423824072
-0.98921215534 0.12050697953 0.080793835223
-0.99273431301 0.060030691326 -0.0994861871
-0.94136065245 0.29640242457 0.16003911197
-0.96382385492 0.26509523392 0.017644103616
-0.43673962355 -0.7611271739 -0.47946807742
-0.29504260421 -0.77238416672 -0.5624370575
-0.30146104097 -0.85961872339 -0.41246962547
0.9511410594 -0.25000187755 0.1801879853
0.89002668858 -0.2638900578 0.37152826786
0.87968719006 -0.40025281906 0.25663727522
0.91460257769 -0.38418400288 -0.12600152194
0.92673015594 -0.37182164192 0.053802520037
-0.30762729049 0.8590670228 -0.40911886096
-0.19128067791 0.93342632055 -0.3009518683
-0.23755194247 0.96038067341 -0.14477048814
-0.41794091463 0.84286719561 0.33865255117
-0.44938966632 0.75423020124 0.47861778736
-0.26940223575 0.86786800623 0.41739016771
-0.24338485301 0.79683107138 0.55300366879
-0.080989859998 0.86354029179 0.49761223793
-0.30040252209 0.76868242025 -0.56298130751
-0.44738200307 0.76946419477 -0.45575803518
-0.57584667206 0.74816733599 0.32613900304
0.15091226995 -0.56417500973 0.81176149845
0.055467285216 -0.70673644543 0.70494711399
0.20816135406 -0.711779356 0.67052322626
0.10848212242 -0.82119601965 0.5592854619
-0.0052691968158 -0.89923387766 -0.43724510074
0.15630599856 -0.93544405699 -0.31689879298
-0.0015555038117 -0.97227525711 -0.23326697946
0.14977106452 -0.97921210527 -0.13023987412
0.32629716396 -0.91854208708 -0.22169755399
-0.02786032483 -0.99839949608 0.016008179635
-0.1155911088 -0.98542505503 -0.12145228684
0.058189429343 -0.9962772727 -0.054482586682
-0.16348403692 -0.93611204624 -0.31128209829
-0.76832526922 -0.30456092954 -0.56268906593
-0.83233785629 -0.15721905231 -0.53033494949
-0.67511230707 -0.22013342381 -0.70410019159
-0.75114142895 -0.045680172741 -0.65857851505
-0.5701828599 -0.067199595273 -0.817938447
-0.62452465296 -0.40972688794 -0.66451686621
0.32390707731 -0.84884250164 -0.41720736027
-0.86177247763 -0.29442027211 -0.41181263328
-0.78707492352 -0.60347175598 -0.12771776319
-0.85634040833 -0.51474136114 0.016154889017
-0.71499949694 -0.69905167818 -0.0016760276631
-0.67016261816 -0.72857803106 -0.14134834707
-0.56399095058 -0.8256291151 -0.0029022078961
-0.1599226743 -0.851775527 -0.49886217713
0.48916494846 0.82302331924 0.28851848841
0.46058705449 0.76659184694 0.44736427069
0.59612166882 0.71555888653 0.36413770914
0.55745315552 0.65106654167 0.51511722803
0.4047781229 0.6782682538 0.61323350668
0.68343126774 0.59180390835 0.42741003633
0.52052909136 0.56340104342 0.64158111811
0.64939528704 0.51302486658 0.56131321192
0.60357862711 0.42269012332 0.67602545023
0.76477968693 0.43376284838 0.47636651993
0.71393960714 0.35401502252 0.6040918231
0.81417095661 0.27469569445 0.51148289442
-0.45624831319 -0.3896625936 0.79993951321
-0.45093014836 -0.23915052414 0.85979622602
-0.32775470614 -0.33777710795 0.88223874569
-0.31157773733 -0.5057772994 0.80420768261
0.37113106251 -0.92322063446 0.098513461649
0.42947509885 -0.90154576302 -0.052103728056
0.28763672709 -0.95718365908 -0.032509487122
0.19526697695 -0.97156411409 0.13068848848
-0.1392352283 -0.91786164045 0.37120327353
0.020199773833 -0.91048204899 0.41306269169
-0.067092806101 -0.84732580185 0.52610725164
-0.020402595401 -0.9682072401 0.24506947398
0.72726380825 0.15876612067 0.6676030755
-0.14148244262 0.27425837517 0.95104491711
-0.3230215013 0.27770364285 0.9047203064
-0.22806377709 0.16352812946 0.95984601974
-0.38507035375 0.14573280513 0.91127508879
-0.49129420519 0.26519984007 0.82945585251
-0.26106923819 0.029808266088 0.96426993608
0.90410196781 0.38647753 0.18214087188
0.87235999107 0.34644016623 0.34477874637
0.9546661377 0.24662676454 0.16683989763
0.72327536345 0.63296914101 0.27597415447
0.60729515553 0.76414448023 0.21709263325
0.78203511238 0.50956088305 0.35883328319
-0.39994663 0.39592367411 0.8266055584
-0.24064183235 0.40054315329 0.88404023647
-0.77777636051 -0.57517331839 0.25317469239
-0.66395813227 -0.68710160255 0.29406410456
-0.76560038328 -0.53068172932 0.36357623339
-0.63007938862 -0.76249867678 0.14631986618
-0.035147774965 0.099171884358 0.99360442162
0.35642057657 -0.89514797926 0.26725724339
0.44677549601 -0.84879553318 0.27894240618
-0.74430412054 -0.65202140808 0.14428584278
0.15307402611 -0.26453903317 -0.9521459341
0.2269693017 -0.40524044633 -0.88547158241
0.023369718343 -0.38647836447 -0.9219622612
0.55243802071 0.66016697884 -0.50886267424
0.59021759033 0.71943169832 -0.36606556177
0.46286046505 0.76962643862 -0.43979978561
0.41955387592 0.69262808561 -0.5866549015
0.49883320928 0.81779152155 -0.28684735298
-0.40162554383 -0.00019977684133 -0.91581511497
-0.32590475678 0.16570368409 -0.93054652214
-0.47125467658 0.13645355403 -0.8713516593
0.4891782701 0.029514439404 0.87158179283
0.56941151619 0.18808817863 0.80023920536
0.43520510197 0.23311170936 0.8695050478
0.4554669857 -0.26591947675 0.84955412149
0.31752109528 -0.28055870533 0.90576773882
0.36613801122 -0.45962792635 0.80906552076
0.37835896015 -0.12724117935 0.9168804884
0.21612469852 -0.13530236483 0.96693331003
0.30668869615 0.010285391472 0.95170009136
0.14423941076 0.040580291301 0.98866540194
0.13153402507 0.24197252095 0.96125638485
0.51261937618 0.33569821715 0.79026311636
0.63508284092 0.28974080086 0.71605074406
0.27345961332 0.51893508434 -0.80986118317
0.15580402315 0.67252022028 -0.72335243225
0.35007539392 0.61174291372 -0.70933485031
0.28412562609 0.72083204985 -0.63222008944
0.32594889402 0.80163967609 -0.50102555752
0.18017345667 0.80635017157 -0.56332474947
0.21326620877 0.89774054289 -0.38536959887
0.055164758116 -0.087655261159 0.99450683594
0.23225431144 -0.12484972924 -0.96460473537
0.30885651708 -0.25806489587 -0.91542869806
0.37760850787 -0.11288429052 -0.91903746128
0.28549036384 0.016926573589 -0.95822650194
0.45497560501 -0.23381067812 -0.85923022032
[...]
CELL_DATA 1226
SCALARS cell_data_0 double
LOOKUP_TABLE default
8.80899748246e-08
2.52628997323e-09
1.55293456042e-08
5.64487501147e-08
1.58135132278e-08
5.90625979709e-08
5.36067482321e-08
1.34791816178e-08
9.72168861406e-09
2.53582122298e-08
1.85093856845e-08
4.52287300212e-09
3.74442618272e-10
6.53806823765e-08
3.57352083099e-08
5.79520824529e-08
1.88569674851e-09
1.16417887325e-08
2.95495860106e-08
2.28251200658e-09
6.79086129533e-08
2.20453749145e-08
7.84394862443e-08
2.03217869877e-08
9.03224562119e-08
3.78970847455e-08
5.69413172963e-08
4.46869178955e-08
8.88877674412e-08
5.50810929051e-08
1.87794646314e-08
2.21452067728e-08
3.60552157871e-08
8.52255070303e-08
2.48865895979e-08
6.30137465537e-08
6.2837960519e-08
1.13572642181e-08
1.35549093482e-08
1.67269687014e-08
1.36715305094e-08
6.02897755983e-08
5.63041044378e-09
9.38951634138e-09
3.81000048195e-08
1.83018779812e-08
3.60782368032e-08
9.51679625178e-08
2.44866507846e-09
9.10377685957e-09
5.67128039933e-09
3.88279839867e-08
2.61556303549e-08
3.11489847099e-08
2.68320734139e-08
4.58839576271e-09
4.26104394211e-08
4.69539251718e-10
5.00882977003e-08
3.03458396614e-08
5.13312201781e-08
1.91610278337e-08
2.20787764861e-08
6.59561428805e-08
2.2983026925e-08
1.58028215378e-08
3.70049839017e-08
1.1112638055e-08
3.25061491536e-09
5.49638134141e-09
7.76820613126e-09
4.56366570392e-09
3.77263818945e-08
6.60633676341e-09
2.8485647187e-08
3.8283706151e-08
2.04254999553e-08
1.3663606872e-08
4.21163456063e-08
8.36174340188e-09
3.85039235411e-08
9.55277269924e-09
9.4884958608e-09
4.29368930871e-08
2.19836795334e-09
2.45577591284e-08
2.24364929181e-08
2.14368456205e-08
3.8400861914e-08
1.58398132083e-09
4.52137229241e-08
6.13047195832e-10
2.81417837247e-08
8.09324472617e-09
1.5991483746e-08
3.24987648176e-08
1.02492491622e-08
5.01935624145e-08
3.92225738561e-08
4.24471640472e-08
1.30878204701e-08
3.06464686446e-08
5.40279984048e-08
4.45978053396e-08
1.02788277771e-07
1.19836004734e-07
3.53785730228e-08
4.94813154569e-08
7.68301211602e-08
1.47987277233e-08
6.19418685547e-09
2.71157475121e-08
3.71479439828e-08
4.38980023763e-09
6.99945688676e-10
2.49571548034e-08
4.51191622546e-09
3.29664178879e-08
8.60440575391e-09
4.07716744095e-08
4.1982040331e-08
3.50426813249e-08
1.84748709426e-08
3.77382943879e-08
2.02568168821e-08
1.08130130778e-08
9.53680915345e-09
5.17615441864e-08
1.1013749907e-09
3.6162133134e-09
4.03701027115e-08
8.75585378759e-09
1.05462880853e-09
3.04163106647e-08
3.12692381321e-08
1.28732329581e-08
6.19227214451e-09
1.88401528632e-08
3.42888552641e-08
4.2159788553e-08
8.64665734605e-09
8.80965898694e-09
2.42951745581e-08
2.23461204612e-08
2.70527844707e-08
3.0518676744e-08
1.59692694092e-09
9.05304621145e-11
3.78545377774e-08
8.52664857896e-08
4.29044500057e-08
5.40750543014e-09
3.63741752673e-09
3.8955746552e-09
2.02896190548e-08
2.86147220132e-08
5.23076114329e-09
7.16855038989e-10
3.75272810556e-09
5.16188581786e-08
5.10143418477e-08
2.35618512605e-08
4.35714297507e-08
5.72379046967e-08
1.01709140649e-08
1.72719789613e-08
2.99705173163e-08
5.55221595587e-08
3.08296903054e-08
6.41120558362e-09
7.45082075381e-08
1.8182064588e-08
1.28344619844e-08
1.27235489768e-08
1.56114869855e-08
5.25171871315e-08
2.14309411874e-09
8.26922471286e-08
3.14885951169e-08
2.74647427278e-08
1.73926351604e-08
9.14498048021e-09
2.63794723286e-08
1.9656710478e-08
8.73381135371e-08
1.02792779295e-08
2.03415203625e-08
1.91210317929e-08
1.40116662265e-08
5.88258819349e-08
4.16450474231e-09
1.07374494277e-08
2.09829120697e-08
3.19071338706e-08
2.72226213732e-08
1.17751452312e-08
1.0425095542e-08
2.5096906476e-08
3.60201133517e-08
2.79944591134e-08
1.30145113918e-08
3.66010860557e-08
1.38641058496e-08
2.57069407993e-08
4.67611758384e-08
2.41743328267e-08
3.90757790104e-08
2.09328677521e-09
1.35274885339e-08
3.91858238664e-10
1.11694384989e-08
1.40277479232e-08
1.20259479838e-10
6.03769185794e-08
1.23274768873e-08
1.74541606337e-08
6.05563897876e-09
1.51959067991e-08
2.94872467583e-08
2.44596438284e-08
4.51195255372e-11
2.01156833611e-08
6.72835031411e-08
8.93580090803e-09
4.54467939849e-08
1.02551856543e-08
1.77837613299e-08
1.18923988888e-08
6.58006475158e-09
1.52710509318e-09
1.4203553506e-08
1.72412044156e-08
1.56393779461e-08
3.06766257282e-08
3.16820148221e-08
1.94561859583e-08
1.88942718142e-09
1.48578470504e-08
1.22445261811e-09
3.43925782747e-09
3.15969728798e-08
1.16999213898e-08
9.32547747493e-09
1.20888536566e-09
7.86974947873e-09
3.89300347912e-09
2.97882158057e-08
1.56318802238e-08
8.71519149509e-09
2.18504360503e-08
6.53527929045e-08
1.21627763638e-08
2.0777257016e-08
1.51622471514e-08
6.14565905219e-08
4.40224722291e-08
1.67234014202e-08
1.11837759109e-08
2.80515503955e-08
1.00762385412e-08
2.2395613297e-08
1.24671636564e-08
1.46074444456e-08
7.85776122378e-09
1.75261074904e-08
6.72335302142e-08
5.8236742235e-09
7.8861813021e-09
4.26944953169e-09
3.38520506778e-08
1.10528129941e-08
1.0308382533e-08
1.57593601836e-08
6.78117900048e-08
3.69368661975e-08
3.77740265286e-08
1.90332006281e-08
7.36793904419e-09
2.2133054326e-08
1.40720426805e-09
1.62427609436e-08
1.75679906292e-08
4.95088167648e-08
4.4317839e-09
1.14707530548e-08
5.32516919562e-08
4.11209217485e-10
1.08318161879e-08
6.6608338171e-09
9.40065888777e-09
1.17796277519e-08
7.33045506594e-09
1.09805374615e-08
2.33225703744e-08
5.58505717933e-09
3.00517283144e-08
9.51557011711e-09
1.61178029253e-08
1.16067210439e-08
1.01421521686e-08
3.30132666683e-08
2.42397392457e-08
6.33445640968e-08
7.43682484331e-09
7.81486266294e-09
3.30494911626e-08
1.7357534148e-08
1.37022926315e-08
2.686466645e-09
2.48815342387e-08
4.87242337619e-09
9.29221998778e-10
1.59693861654e-08
1.29641182358e-08
6.51289448419e-08
5.43494691727e-08
3.92030192354e-09
2.75915318349e-08
4.89351639925e-09
2.86353268879e-09
4.61140460445e-08
1.02245665857e-08
2.22769094824e-09
7.45001987536e-09
1.89028159127e-08
1.21887094252e-08
8.74708509007e-09
1.19781415841e-08
2.70697804225e-08
2.75104205492e-08
3.34463820327e-09
6.5769889806e-09
9.69351849419e-09
1.08290842981e-08
2.49755032194e-10
2.98170522858e-09
1.22873585096e-09
1.07985222353e-09
9.21178565054e-09
3.56894903246e-09
9.2399783091e-08
3.9222285722e-10
1.15242048627e-08
1.56998425406e-10
1.05951318693e-09
4.26241360022e-08
3.99434398134e-08
4.8566405683e-08
1.09433617367e-08
1.92933487779e-08
7.89137986575e-09
5.46395537268e-10
3.87986812996e-08
6.17524415858e-09
6.76258966138e-09
3.2393111629e-08
1.00830946301e-08
2.01058544692e-08
9.5346369676e-09
1.5985210016e-08
1.18815427173e-09
6.59139481464e-10
2.22492337803e-09
1.90460121664e-08
1.06370459317e-08
1.79024163417e-08
2.33408510675e-08
2.76434799326e-09
1.19675888181e-08
6.76051502114e-09
9.91299893409e-09
1.63297963846e-08
3.77265627147e-09
1.3488706277e-08
6.42531722033e-09
2.33730737895e-08
1.2482736279e-08
1.5602670256e-08
9.30971153626e-09
4.94712746107e-08
1.19981205618e-08
1.04205542017e-08
8.00268523083e-09
1.39007782171e-08
1.02990461424e-08
8.60864655361e-09
2.72739702487e-08
2.87738243424e-10
1.75444375594e-08
9.45550911571e-09
2.22396039762e-08
2.20731295982e-08
3.0856295278e-09
8.59471518807e-09
2.55372663385e-08
1.10476382605e-08
5.13831117732e-09
1.12537754109e-08
2.62845259883e-08
3.60155282087e-08
9.96072482434e-09
9.41797374534e-09
4.26530793054e-10
5.42136167049e-09
1.48875868437e-08
3.2260709344e-09
1.32317269249e-08
1.53869476266e-10
5.91156100013e-09
1.30094443063e-08
3.24879904645e-09
3.38022463933e-10
4.67428458475e-09
7.73498892175e-09
4.54799622055e-08
2.03232888862e-09
2.56152485874e-09
4.47612726106e-09
1.84149640027e-08
6.7777759036e-09
3.09634140748e-09
1.76659047284e-08
3.0481541679e-08
2.96625987734e-08
3.0440457822e-08
3.09271618039e-08
8.53595395989e-09
3.96977599048e-09
6.51139417156e-09
3.7449090706e-08
1.40153157629e-08
5.68949031849e-08
1.59961095157e-09
1.28180636973e-08
1.50730868262e-08
9.98867566479e-09
1.09673439686e-08
1.95703128227e-08
3.58127181741e-09
1.27770949251e-08
1.02907348347e-08
2.58284765397e-09
1.84169202263e-08
2.53839604469e-08
2.11889639799e-09
7.79678036321e-09
1.25669623877e-08
7.46964749938e-09
5.20103655072e-09
2.2839486148e-08
4.17723127375e-09
4.216011723e-09
9.18495954417e-10
1.51315659121e-08
3.41571374538e-08
1.04084037118e-08
3.76993039306e-08
3.82411313207e-10
6.18351178115e-08
7.71253807133e-10
1.26105459618e-08
2.09361150652e-08
8.03166154758e-09
1.89382648874e-08
7.13653412597e-10
2.93444561163e-09
3.08303287784e-09
2.35554973416e-08
8.92332764232e-10
1.43153345735e-09
8.62607738447e-09
1.43776293728e-08
1.52405251284e-08
3.2543838308e-09
2.37647454389e-08
1.11856477142e-08
1.32210990484e-08
5.1720073537e-09
5.0022993963e-09
9.71086847708e-09
1.04187310031e-08
1.09828717532e-08
8.01446865216e-09
1.74485411595e-09
1.34791648616e-08
9.12822937715e-09
1.37016672744e-08
4.25363606047e-09
5.59453035179e-09
1.13940824671e-08
2.64817270802e-08
5.68497884419e-09
5.54435542842e-09
3.11193829423e-09
9.22668566435e-09
1.85170393473e-08
1.05500542361e-08
8.64100492008e-09
3.85249933456e-09
2.69109597517e-08
8.44922722273e-09
8.65978192645e-09
4.13621201499e-09
8.85405541682e-09
2.15727993818e-08
9.88414060263e-09
6.45301071196e-09
1.78594088802e-08
1.11604443335e-09
1.59013306175e-08
9.95623808943e-09
2.04873106828e-08
6.4357663499e-09
1.57479919618e-08
8.31885334653e-09
1.75578263689e-08
6.91783615572e-09
8.63475291325e-09
9.74979698423e-10
8.14217250607e-10
5.10933173934e-09
1.66484209807e-08
4.13215181858e-09
6.08440812481e-09
3.68148523733e-09
5.26612916683e-10
1.41150899124e-08
1.75663898479e-09
6.43358742067e-09
1.24332958384e-08
1.79968650397e-08
2.06185925524e-08
1.09146176819e-08
1.654263048e-08
3.1181771217e-08
1.57825232088e-08
2.70541012094e-08
6.46757657542e-09
3.3900913298e-09
1.51585322674e-08
9.96962459132e-09
1.32779887013e-08
3.4993578089e-08
9.62904562428e-09
1.3536043209e-09
2.13113103315e-08
8.44408363331e-09
3.42430152887e-09
1.51402864551e-08
1.95594883302e-08
1.60721869971e-08
4.44693972467e-09
4.91739648016e-09
8.26664415877e-09
5.25788939e-08
1.13431403012e-08
3.0879948744e-08
1.10990932788e-08
2.0496275528e-09
2.12883428696e-08
7.58732455051e-10
2.40723977961e-08
3.38928911327e-08
1.12860251483e-08
1.30033856575e-08
1.95158865943e-08
2.06794830093e-08
1.73421623722e-08
2.30099365022e-09
1.22653845454e-08
4.18338604587e-08
2.50238509097e-09
1.98622898808e-08
8.51819278229e-09
1.16857241626e-08
1.59555936637e-09
1.5219442087e-08
1.84335396758e-08
2.15865794442e-08
1.90806450837e-08
9.60440427578e-09
1.30632874773e-08
1.19006251245e-08
3.74652957238e-10
8.02144857101e-09
4.6536836183e-09
4.01272971696e-08
1.60639766865e-08
1.19984378823e-08
2.28964570984e-08
6.82092521411e-09
1.70593041796e-08
2.11302825162e-08
2.62513609914e-08
1.11055417354e-09
4.60238074487e-09
5.807813809e-09
2.50568063244e-09
2.1816814041e-08
5.85032649978e-09
4.68286219604e-09
1.31687688936e-08
1.49332841398e-08
1.22293594425e-08
1.52809235432e-08
1.82095519765e-08
1.38988019888e-08
1.08315215879e-08
1.30622011245e-08
1.22654073848e-09
8.01646235054e-09
5.03342517051e-09
7.28358759066e-09
5.16636572884e-08
7.33369502333e-09
2.69121516983e-08
1.15000653196e-08
1.1203058286e-08
1.79717818607e-08
1.22291279578e-08
1.00131183772e-08
1.77025380863e-08
1.09802497172e-08
2.44953772818e-08
1.25630482348e-08
2.50636125151e-08
1.33095504585e-08
1.94295339546e-08
1.45587321773e-08
1.99238160666e-08
1.01432466929e-08
9.76491317802e-09
2.11776674716e-08
4.57819733716e-08
3.0197440636e-09
5.37680318286e-08
3.65785967504e-08
1.20339284774e-08
6.10444901087e-09
5.48407735012e-09
1.20201360124e-08
3.75420862554e-08
2.802500215e-09
2.32632297229e-08
3.2886474739e-08
2.00826735703e-09
1.28323110663e-09
3.49865681646e-08
7.18926762103e-10
1.4764381132e-08
2.52189172326e-08
5.13487220103e-09
2.8540607546e-08
4.55561704606e-08
1.72009361187e-08
4.98137265272e-09
2.3436329964e-08
8.38075983971e-09
2.26207739493e-08
2.03220634744e-08
3.10695988571e-08
5.51237412642e-09
2.83227505466e-08
4.509394909e-09
1.1386042479e-08
1.43543309627e-08
3.98906334053e-08
2.55236098244e-09
6.507312322e-09
1.26709435816e-08
1.07482511097e-08
3.01947428187e-08
1.1319191354e-08
5.13497245692e-08
3.95068101302e-09
1.43564281664e-08
2.36382105049e-08
3.85272901753e-08
6.05997622827e-08
3.53262145782e-09
3.14329630258e-09
1.95611212867e-08
6.11954232213e-09
1.01227658465e-08
5.15520376845e-09
9.29597745704e-09
1.33665988455e-08
3.50768976917e-08
5.16506997253e-08
1.17584293892e-08
6.19458103706e-09
9.55074040892e-09
1.81662185027e-09
2.04544883578e-08
1.31114755285e-08
8.27567345848e-10
1.46277318087e-08
2.17677740614e-08
6.85497209974e-11
1.89290957329e-09
3.06488352539e-09
9.27140904788e-09
1.4173893091e-08
1.02193450023e-09
4.79535937729e-09
3.76792585114e-09
1.82924013281e-08
2.56594937223e-08
2.25007490412e-08
8.28622617683e-09
1.34683727968e-08
8.86950246807e-09
7.02145501609e-10
1.9001479455e-08
4.49166548923e-09
3.17086486164e-08
1.07833510196e-08
3.04560258849e-09
1.72629051699e-08
4.97575441899e-09
2.0966706873e-09
1.41578030833e-08
1.81165434151e-08
2.11206409512e-10
2.19773857794e-08
8.05181454639e-09
2.72235297987e-09
1.27761716051e-08
1.75189432144e-09
2.05147208273e-09
1.66187642154e-08
6.61388893209e-10
4.51046534004e-09
9.89203049946e-09
2.27603225313e-08
1.66471054971e-08
2.03677906189e-08
3.40255543167e-08
9.03033211805e-09
2.65272296996e-08
2.63069616349e-08
8.98428571678e-09
1.6042210045e-08
3.03800446535e-09
9.2495124742e-10
3.55401895916e-08
1.31415180228e-08
1.28094364291e-08
2.7271248741e-09
1.27755671558e-08
2.97403039784e-08
3.23300954148e-09
1.2763226626e-08
2.34065874262e-08
1.17016264547e-08
1.1947112517e-08
8.08918263331e-09
2.4835416617e-10
1.19431699109e-08
1.04054856222e-08
7.42214991693e-09
4.38312616619e-08
3.93023641951e-09
1.86668289622e-08
1.52918457992e-08
1.94781949319e-08
6.7194194474e-09
8.58899180392e-09
1.0715018494e-08
1.43113100472e-08
1.19666306047e-08
1.03815444213e-08
7.65830708401e-09
1.63634663046e-08
4.80601965975e-09
1.58297302606e-09
1.86425798556e-09
1.22833707973e-08
1.63386196896e-08
1.25321430333e-08
1.12611164277e-08
2.04668497151e-08
8.13751980127e-09
1.89996160376e-08
2.22983793944e-08
8.24392621797e-09
2.66148395357e-09
1.88363595561e-08
1.13461285196e-08
7.0969243365e-09
1.12141434931e-08
1.63388978823e-08
4.00835592119e-09
1.2962234313e-09
4.36133756568e-09
5.71699317586e-09
6.22618123188e-09
3.50238635369e-08
2.92126604154e-08
2.61612501538e-08
1.12057985337e-08
3.74277323488e-09
2.6678964417e-08
4.72298924993e-09
4.68043310781e-09
1.21966125419e-08
1.7897312013e-08
2.1479268091e-08
1.81089809435e-08
1.03288326125e-09
2.18406105572e-09
2.01687697487e-08
1.09630835988e-09
1.65144776675e-08
7.46691117906e-10
1.29759084532e-08
1.60701527563e-09
3.45040689172e-08
8.72490787724e-09
1.21111765546e-08
8.67668350119e-09
3.58333991834e-09
3.71870661059e-09
8.82295344787e-09
3.12979917661e-09
1.56066561884e-08
6.17372411014e-09
5.02171601971e-09
9.99856673474e-10
1.24019179861e-09
8.78049853158e-10
2.25552940324e-08
7.63968486635e-09
7.69776644087e-09
6.45103498224e-09
9.40509304376e-09
8.56431901226e-09
5.44294151026e-09
2.64069516123e-08
3.84005217186e-08
5.35751393952e-09
1.36298089732e-08
2.05253155883e-09
1.24763640255e-08
9.97416062059e-09
4.02769876415e-09
4.58307194997e-08
4.13299693037e-08
1.91464782344e-08
4.19326530954e-09
2.87345833576e-08
1.55049499533e-08
2.87680672897e-08
2.52467783603e-09
6.39862116666e-10
2.26055660856e-08
8.03153277288e-09
5.49299217883e-09
2.44507207643e-09
3.07883727293e-09
2.83619427564e-09
1.27529198694e-08
1.16322976574e-08
4.57904288745e-09
1.6121804099e-08
9.56602466285e-09
2.7751330841e-08
1.8759846012e-09
6.10774514774e-09
6.2856260901e-09
7.21250495104e-10
9.61285383545e-09
1.23333649496e-08
4.84680174184e-09
2.91280210189e-09
3.64781202021e-09
1.89879010192e-09
3.93580830597e-09
5.58005373598e-09
1.44565061362e-10
2.96200610194e-09
4.74484589977e-08
1.27281727778e-08
3.87034665927e-09
8.61912129153e-09
4.33993622794e-09
3.20882853722e-08
2.62531125317e-08
6.2788483253e-09
1.41550414175e-08
3.55532630124e-08
7.68128372732e-09
5.71761867327e-09
9.57506572571e-09
8.42886651158e-09
1.6973662389e-08
4.3296970654e-09
8.84929792572e-09
1.79666945632e-09
2.4664468989e-09
5.11009093879e-09
1.32917116037e-08
6.21651874613e-09
2.53523141259e-09
1.8625383442e-08
6.8446441183e-09
3.77084113141e-11
4.70790204217e-09
6.48379185412e-09
1.44532968275e-08
2.89807017861e-08
1.02032519029e-08
9.41813551584e-09
2.07810919193e-09
1.28603658753e-08
1.64384929763e-08
2.8217522774e-09
2.00045269078e-09
1.20232384876e-08
2.33334457458e-09
4.6312939282e-09
5.08006999593e-08
1.85601428327e-08
8.9317296593e-09
1.88711745966e-08
1.86189342667e-08
1.5122082697e-08
2.26399062066e-08
3.21209959928e-08
1.92510169914e-09
1.69777996934e-08
1.45796498118e-08
8.13233265284e-09
3.96476349425e-09
8.56090037622e-10
1.52369690081e-08
7.85556789031e-08
1.68041124332e-08
1.99304231698e-09
3.51816663331e-09
1.06418095434e-08
5.57561788648e-08
1.28106946748e-09
1.88570285793e-08
3.75583054994e-08
2.55792985097e-08
4.4954422679e-09
3.92934682373e-09
8.50911230987e-09
6.79696349529e-09
1.22864379261e-09
2.35969950465e-09
6.31520080862e-09
4.77741007372e-09
5.44409052255e-09
1.27264897261e-08
4.13618337877e-09
1.08788916215e-08
2.49190532219e-08
1.51201933771e-08
2.39876565951e-08
2.43547131476e-09
3.37117362199e-10
7.86363149921e-09
5.07548666319e-10
1.84278259729e-08
1.19170451047e-08
4.14290837386e-09
6.05218608695e-09
3.63547430024e-09
2.74188814435e-09
1.13815662437e-09
3.83092018896e-08
5.26326148165e-10
5.92884432205e-09
7.01576699563e-09
9.76292300615e-09
9.50221616566e-09
1.26153717462e-08
1.28174218231e-08
5.87564874442e-09
9.53441742337e-09
5.74735294484e-09
1.04383152863e-08
1.71488762945e-09
1.19410541932e-10
3.63083434383e-08
3.7369813762e-08
7.73495914314e-09
5.38780139061e-09
9.86110758229e-10
1.29514083119e-08
7.29549655892e-09
4.82174885573e-09
2.08931684855e-08
1.8372717011e-08
2.5079126281e-08
2.84609333946e-09
1.06898618788e-08
1.47698003744e-09
7.8782978999e-10
2.59333650479e-09
6.59563391861e-09
4.27023741983e-09
3.78638936755e-09
8.39504180443e-09
5.45995428678e-09
9.85602500377e-09
7.41401272466e-09
2.42343564692e-08
2.40002472442e-08
3.69930981451e-09
4.4238982146e-09
8.3242232064e-09
1.47504192607e-09
8.04129456161e-09
9.35667447947e-09
7.80665495924e-09
5.57884322955e-08
8.53501953849e-11
7.77860772629e-10
1.05055626315e-09
1.2738005767e-09
1.02004362396e-08
8.54006402397e-09
8.94279492438e-09
9.42156255995e-10
1.67862911169e-08
6.95896719279e-10
1.2371129642e-08
6.78417615844e-09
1.13769491285e-09
5.96789446908e-09
3.02073637594e-09
1.58748345329e-08
1.57304798195e-08
6.2745019818e-09
4.79486050251e-09
1.12975177119e-08
6.93932191349e-09
1.93542144176e-08
3.32946759582e-10
8.38340784708e-09
6.89628811607e-09
1.82138412842e-09
1.79214821421e-08
2.31273206585e-08
8.70421253021e-09
4.04623214607e-09
2.00427441629e-08
1.33885339141e-08
6.69449245033e-08
1.60890779097e-08
6.23379762968e-09
1.41670236291e-08
3.13931591e-09
5.73987543504e-09
3.94370093819e-09
1.17705304346e-08
2.36660060923e-08
1.31261806533e-08
1.33810973779e-08
9.5226166207e-09
6.36468747108e-09
2.28304779606e-09
4.51980823427e-09
2.55403072811e-08
2.444144334e-08
2.81338095111e-08
5.20750830424e-08
5.56836439559e-09
9.95385806486e-09
1.35889114121e-08
1.8417158864e-08
2.95816791746e-09
8.26685007665e-09
2.28238745278e-08
2.48240608963e-09
1.3562483635e-08
2.39602971975e-08
1.15017001316e-08
5.49696931319e-09
5.94426260058e-09
8.00449500561e-10
2.4852186732e-08
6.14532227619e-09
1.62211010542e-08
1.94870584748e-09
3.22638028546e-10
9.46657498241e-10
6.51540579857e-09
5.38693740575e-09
1.74823866408e-08
2.23623069372e-08
5.96397627059e-09
1.3918160447e-09
5.20438623084e-09
7.13819891885e-09
9.55655511617e-09
5.27441672288e-08
3.97731941745e-08
1.18192715179e-07
1.2384582633e-08
2.97912118989e-09
1.25493270456e-08
1.15073891673e-08
1.05626439889e-08
9.05569478069e-10
5.24649254375e-09
7.40651430243e-09
1.75582431322e-09
1.57521469024e-08
7.69222994453e-09
5.03295014281e-09
1.35285262743e-08