# vtk DataFile Version 3.0
File Name: Molecule/sphere_cent/sphere_cent_0-s40.vtk
ASCII
DATASET UNSTRUCTURED_GRID
FIELD FieldData 1
TIME 1 1 double
0.0
POINTS 3083 double
-0.32365605235 0.91477400064 -0.24135386944
-0.25238752365 0.94991791248 -0.18376459181
-0.24664619565 0.92951911688 -0.27415877581
0.6434930563 0.48906722665 0.58852607012
0.59699225426 0.45764279366 0.65890693665
0.67158299685 0.4102537632 0.61690634489
-0.25902619958 0.36593991518 0.8938639164
-0.27765715122 0.29303520918 0.9147875309
-0.19615632296 0.29352220893 0.93547189236
0.51872712374 0.54209798574 0.66109132767
0.52365857363 0.46589937806 0.7132397294
0.62801915407 0.69584834576 -0.3483800292
0.6986978054 0.64565324783 -0.30812206864
0.66882270575 0.62920963764 -0.39528787136
0.4518173039 0.15687766671 -0.87818366289
0.36288577318 0.17663471401 -0.91492855549
0.40115207434 0.23661524057 -0.88493531942
0.31689715385 0.23782785237 -0.91795569658
0.13147072494 0.013471717015 -0.99123084545
0.049527339637 0.025048226118 -0.99842196703
0.089726172388 0.10099326074 -0.99082404375
0.58260345459 0.80820351839 0.085950441658
0.5189730525 0.85341072083 0.04729373008
0.51151257753 0.84900569916 0.13242609799
0.42557477951 0.77637761831 0.46463161707
0.38924318552 0.82414454222 0.41140806675
0.34079870582 0.80360144377 0.48793262243
0.085260428488 -0.070555187762 -0.99385654926
0.40882992744 0.85608530045 -0.31595265865
0.42312309146 0.87440651655 -0.2374368757
0.48936840892 0.82822078466 -0.27305367589
0.30465906858 0.0040832869709 -0.95244908333
0.38639384508 0.0038630892523 -0.92231547832
0.35541462898 -0.078591816127 -0.93139374256
-0.13651280105 0.49794474244 -0.85639077425
-0.097594887018 0.42865487933 -0.89804279804
-0.19143167138 0.42150485516 -0.88636511564
-0.048244222999 0.50140851736 -0.8638240695
0.19238820672 0.87505793571 0.44406977296
0.13849885762 0.91669476032 0.37427359819
0.096279986203 0.88355875015 0.45831385255
0.051452342421 0.91799128056 0.39324319363
0.93058615923 -0.22232165933 -0.29076489806
0.90068733692 -0.25322026014 -0.35304015875
0.9201939106 -0.1598983258 -0.35732236505
0.10571634024 0.71438902617 0.6917129159
0.021405704319 0.68956166506 0.72390776873
0.095053687692 0.64335381985 0.75963145494
0.3467887044 0.37223520875 0.86090499163
0.38326123357 0.42671915889 0.81914436817
0.30066055059 0.44239574671 0.84490519762
-0.0035482381936 0.1043234095 -0.99453628063
-0.43916079402 -0.87731844187 -0.19351768494
-0.45607724786 -0.88124781847 -0.1236403808
-0.51290112734 -0.84089791775 -0.17252007127
-0.37450143695 -0.91470336914 -0.1517624557
-0.52028512955 -0.58955651522 0.61781865358
-0.47868350148 -0.54279512167 0.69008618593
-0.56248044968 -0.51871550083 0.64381748438
-0.072705000639 0.40170451999 0.91262638569
0.015907125548 0.4193842113 0.9076628685
-0.052022375166 0.49200707674 0.8690225482
0.70750826597 -0.46462801099 -0.53248012066
0.64689517021 -0.51139342785 -0.56568384171
0.66982460022 -0.44318583608 -0.59564960003
-0.59271836281 0.53916043043 0.59827983379
-0.57219815254 0.47912690043 0.6655933857
-0.52543157339 0.53554034233 0.66094434261
-0.36064228415 -0.90087234974 -0.24108605087
0.91307294369 -0.048077404499 0.40489572287
0.8811519146 -0.036020480096 0.47145006061
0.88602674007 -0.11014181376 0.45034259558
0.43774139881 -0.61950325966 0.65160006285
0.36864197254 -0.69538617134 0.61687159538
0.44563162327 -0.66577506065 0.598338902
0.11404109746 0.42991921306 0.89563828707
0.051733069122 0.49291664362 0.86852282286
0.13721801341 0.50769102573 0.85041373968
0.90636688471 0.033215355128 0.42083537579
-0.21591414511 0.62495571375 0.75016826391
-0.29177439213 0.62900525331 0.72052299976
-0.2564432025 0.58550852537 0.76893776655
0.41197967529 -0.70828956366 -0.57304769754
0.40874296427 -0.76221883297 -0.50156134367
0.34492006898 -0.75644958019 -0.55569797754
0.85776507854 -0.087854832411 -0.50645744801
0.85476732254 -0.17639820278 -0.48812276125
0.81055855751 -0.16877779365 -0.56080120802
-0.49788525701 0.45935696363 -0.73558533192
-0.58528459072 0.4403423667 -0.68075072765
-0.52126246691 0.5177436471 -0.67817401886
-0.65666294098 0.4251537323 -0.62287479639
-0.61254155636 0.48917481303 -0.62035018206
-0.51434016228 -0.02526400052 0.8572140336
-0.45145833492 -0.085145927966 0.88814693689
-0.43197014928 -0.015842273831 0.90169215202
-0.45661631227 0.87680464983 0.15069445968
-0.47940856218 0.84601849318 0.23329506814
-0.39065894485 0.89281660318 0.22421514988
-0.54199004173 0.82658737898 0.15169647336
-0.41889742017 0.85399997234 0.30855414271
-0.96229892969 0.22934277356 -0.14593181014
-0.95256185532 0.28890115023 -0.0957814008
-0.93648660183 0.30786031485 -0.16784332693
-0.96989953518 0.23783677816 0.05216114223
-0.98224258423 0.18686369061 -0.013192442246
-0.98672527075 0.14863422513 0.065207444131
-0.92138659954 0.37385740876 -0.10600450635
-0.24421545863 -0.96289163828 -0.11487643421
-0.18686762452 -0.98074454069 -0.05659044534
-0.26466673613 -0.9634771347 -0.040528014302
-0.4376732409 -0.8953345418 0.082542128861
-0.38295593858 -0.9110596776 0.15269328654
-0.45348650217 -0.87731742859 0.15696206689
-0.63496446609 0.56460034847 -0.5272680521
-0.653401196 0.61796736717 -0.43719545007
-0.59092092514 0.64551490545 -0.4838553369
-0.91405314207 -0.30067610741 0.27146542072
-0.88986116648 -0.37522631884 0.25948131084
-0.8805231452 -0.33487024903 0.33546882868
-0.83005839586 -0.53112459183 0.16991718113
-0.83231949806 -0.49991610646 0.23920200765
-0.87640869617 -0.44699436426 0.17917636037
-0.7795279026 -0.51559990644 0.35552105308
-0.7617456913 -0.48623564839 0.42786744237
-0.81085759401 -0.44335493445 0.38198453188
-0.94733899832 -0.27603772283 -0.16230066121
-0.95698589087 -0.20549942553 -0.20476405323
-0.92445659637 -0.2894256413 -0.24820184708
-0.69412434101 0.71482473612 0.082020185888
-0.72434324026 0.68940782547 0.0064340261742
-0.75230675936 0.65316295624 0.086120635271
-0.66468137503 0.7466339469 -0.025786740705
-0.70041763783 0.71022337675 -0.070254489779
-0.72644144297 0.51928037405 0.45009359717
-0.7002402544 0.59743309021 0.39080679417
-0.76017099619 0.5212354064 0.38784950972
-0.73486179113 0.60600119829 0.30413541198
-0.6794077754 0.65476030111 0.33077833056
-0.62109977007 0.67358165979 0.40066286922
-0.77404665947 0.59551393986 -0.21485973895
-0.80973666906 0.56632214785 -0.15361858904
-0.76540541649 0.62616509199 -0.148620978
-0.82225245237 0.52403557301 -0.22195270658
0.023743791506 -0.72592300177 0.68736368418
-0.028879154474 -0.78681349754 0.61648875475
0.07563585788 -0.77893394232 0.62214052677
-0.16228069365 -0.84517663717 0.50924116373
-0.075575232506 -0.83680278063 0.54226499796
-0.13730730116 -0.78712850809 0.60128653049
-0.23462770879 -0.75926351547 0.6069842577
-0.17430472374 -0.72577565908 0.6654420495
-0.082099080086 -0.7391012311 0.66850364208
-0.77363616228 0.56664693356 -0.28350636363
-0.85071355104 0.50688374043 -0.13888424635
-0.61380875111 -0.62110340595 0.48715639114
-0.59334564209 -0.57711327076 0.56113290787
-0.66677320004 -0.5612899065 0.49002587795
-0.64643400908 -0.49860686064 0.57745009661
-0.68557465076 -0.52971512079 -0.49937134981
-0.69387280941 -0.45115917921 -0.56123942137
-0.63030344248 -0.51783281565 -0.57841974497
-0.50600242615 0.85842692852 0.082199148834
-0.5836122036 0.80916196108 0.067480713129
-0.61989527941 0.74522912502 0.24550832808
-0.55712521076 0.79456800222 0.24149478972
-0.61982560158 0.76806861162 0.1599971056
-0.5747474432 0.74649488926 0.33531090617
0.19800275564 -0.9115177989 0.36038392782
0.23307131231 -0.87290924788 0.42859125137
0.16848351061 -0.87705665827 0.44987261295
-0.10693027079 0.88140338659 -0.45999410748
-0.1457324475 0.89964896441 -0.41138237715
-0.072763763368 0.91396701336 -0.39919379354
-0.084105618298 0.94218802452 -0.32426533103
-0.00056089030113 0.93038582802 -0.36655214429
-0.16481433809 0.33952483535 -0.92603075504
-0.52606630325 -0.64621573687 0.55276125669
-0.63512742519 -0.44409140944 -0.63184952736
-0.27103215456 0.69554513693 -0.66524279118
-0.20636114478 0.73933792114 -0.64091563225
-0.17531299591 0.68687659502 -0.7052642107
-0.30123457313 -0.052690260112 0.95204949379
-0.22664012015 -0.032870609313 0.97326016426
-0.27511429787 0.033501751721 0.96063405275
-0.49786788225 0.80740493536 0.31659331918
-0.97666120529 -0.16478525102 -0.13719581068
-0.97495925426 -0.11807697266 -0.18851171434
0.046547107399 -0.24056449533 0.96951049566
-0.02168745175 -0.28927525878 0.9569465518
0.053527142853 -0.32301861048 0.94464868307
0.95297574997 0.11932272464 -0.27828302979
0.97150611877 0.13227295876 -0.19637696445
0.97395378351 0.052655402571 -0.22051496804
0.75486391783 -0.65381252766 -0.051800698042
0.69779980183 -0.71610754728 -0.015786912292
0.69825178385 -0.70794582367 -0.10397658497
0.63948702812 -0.76673090458 -0.055924456567
0.63432121277 -0.76036322117 -0.13914231956
0.58460921049 -0.80463385582 -0.10397878289
0.62642025948 -0.7781945467 0.044705394655
0.56512016058 -0.8248372674 -0.016570037231
0.53965449333 -0.83759582043 0.084831729531
0.59609407187 -0.79087096453 0.13840918243
0.45439654589 -0.88568878174 0.092780090868
0.48312819004 -0.87533527613 0.018919063732
0.40760710835 -0.91195106506 0.046941548586
0.52336037159 -0.84548854828 -0.10452218354
-0.72989463806 -0.63280904293 0.25843688846
-0.70996505022 -0.63535273075 0.30352964997
-0.76502615213 -0.58479040861 0.26939338446
0.11168701202 -0.5635368824 -0.81834077835
0.082628518343 -0.48670354486 -0.86964792013
0.16902735829 -0.50341629982 -0.84731465578
0.034735493362 -0.41850373149 -0.90754437447
0.11191603541 -0.40363806486 -0.90802788734
0.085314229131 0.051075138152 0.99494546652
0.16248379648 0.016970539466 0.98632025719
0.15886758268 0.10698202252 0.98149520159
0.091487593949 -0.036070629954 0.99507653713
-0.018928898498 -0.49054566026 -0.87120568752
-0.046433765441 -0.39534017444 -0.91736060381
0.016879247501 -0.33898597956 -0.94063180685
-0.046105973423 -0.2899145484 -0.9557068944
-0.19461245835 -0.15845198929 -0.96798980236
[...]
CELL_DATA 6162
SCALARS cell_data_0 double
LOOKUP_TABLE default
3.19943163699e-10
5.26570447606e-09
2.2521737513e-09
4.23752290092e-09
1.39545898885e-09
7.38224204349e-10
3.15856505722e-10
9.32925000109e-10
3.13404459219e-10
2.19362095707e-09
7.80090440415e-10
1.11676818639e-09
3.98132372594e-10
5.27994479675e-10
1.19104414602e-11
8.07006525947e-09
2.30950248207e-09
4.29617040879e-10
1.00272710333e-09
8.21122336845e-10
1.69260827443e-10
1.09651951291e-09
1.05849335417e-09
3.24097584255e-09
7.54894069697e-09
3.97503445544e-10
9.82572481319e-10
1.07149874822e-09
4.13285778339e-09
1.34458438838e-09
4.21140501751e-10
1.86323521743e-09
4.11700390555e-09
9.57104278713e-10
1.53063238137e-11
9.17128849816e-10
1.54212780938e-09
4.11543843497e-09
2.26007218387e-09
2.84723704087e-09
1.35087171671e-10
1.12860628417e-09
9.73066137223e-10
2.39474562945e-09
3.21611136805e-09
1.50335124424e-09
2.02596563834e-10
1.36650638806e-10
2.6425969287e-09
1.00719158547e-10
3.60824601629e-09
8.42371401992e-10
2.06248106518e-09
4.39615438153e-09
1.4994503147e-09
5.52567543648e-09
5.35640639657e-10
5.09116613552e-09
2.47219306313e-10
1.57637095517e-09
5.65993800617e-09
2.83395518354e-09
4.39859392928e-09
2.28773595291e-09
2.07511939576e-09
2.05086257689e-09
3.11034894085e-09
1.89114964662e-09
1.33428121203e-09
3.30389396475e-09
6.60979394364e-09
6.42025947041e-09
3.62095959675e-09
5.65953763753e-10
1.57593940251e-09
3.11960036744e-09
4.20943824652e-09
3.63683647324e-09
7.59199150113e-10
2.85896347188e-09
4.63670459651e-09
2.02512962772e-09
2.59901986338e-09
1.34895078936e-09
4.8756823518e-09
5.87452398628e-09
4.21809450829e-10
1.09592909552e-09
1.30521242323e-09
1.11271971733e-09
3.53533581107e-09
2.54282147301e-09
2.1996264138e-09
4.50566963542e-09
8.70186744702e-10
3.92113207496e-09
5.57866558011e-09
2.53066267142e-09
1.24695664608e-09
5.35339030894e-09
4.25928259609e-10
1.99734738178e-09
3.167528846e-09
1.05697942518e-10
5.98321075442e-09
1.38025875513e-09
7.75766161109e-10
1.44613411045e-09
1.7969364408e-10
2.83894797445e-09
3.75682333523e-09
2.7635042051e-09
4.80863941828e-09
1.7762949169e-09
4.43233782867e-09
8.92764891634e-10
2.86706399212e-09
1.85494707636e-09
8.00981559935e-10
2.43580080032e-09
1.01341940415e-09
1.67898628408e-09
1.67275635359e-09
6.21426967516e-09
4.35803666286e-09
7.41087420063e-10
3.20930436758e-11
1.27192853524e-09
6.71392861872e-10
2.48586012325e-09
4.65227256193e-10
6.09120493714e-09
1.2728287395e-09
6.33649967001e-09
4.4677470002e-10
7.37424362607e-10
1.14620520557e-09
9.8683725729e-10
5.64460799786e-09
1.54546866231e-09
3.08573449703e-09
3.35452500961e-09
3.00028001629e-09
2.03094247457e-09
1.23551339505e-09
4.20602213838e-09
7.26824205007e-10
1.8175357023e-09
2.14855012871e-09
3.53604152697e-09
7.0271506797e-09
5.8835005912e-09
3.876772681e-09
2.21614909448e-09
1.03722940858e-09
3.88138734886e-09
6.23486809749e-09
4.35417087691e-09
1.43557632182e-09
3.73317494744e-09
3.85516904524e-10
1.00938213564e-09
2.75556765007e-09
1.43422879514e-09
1.91751020319e-10
1.33637971523e-09
7.42856506419e-10
3.58869585535e-10
1.44641604781e-09
4.10393743981e-09
3.93183615418e-09
9.70236371883e-10
1.31191535874e-10
5.85458400299e-10
7.35678123923e-10
7.01003901263e-10
2.94686062943e-09
7.55435713857e-10
2.65734497148e-09
1.37813685499e-11
3.29115493754e-09
4.08310430321e-09
1.59496741796e-09
1.33766993903e-09
2.31663707518e-09
4.362906354e-10
1.33311407627e-09
4.18007003367e-10
3.20467216978e-09
6.78196400292e-10
7.30958206566e-10
4.4153643607e-10
1.61052438523e-09
3.73103119061e-09
4.1532167225e-09
8.12122239362e-10
3.4242373338e-09
1.89188585279e-09
2.3467677124e-09
5.67581031479e-10
1.14186071121e-09
4.12303511502e-09
3.73668647365e-09
4.21101703783e-09
1.43886047909e-12
2.71362108449e-09
3.00213958695e-09
1.46035767375e-09
1.97851191e-09
1.75664115373e-09
3.13026296645e-09
8.18692708751e-10
2.49038765337e-09
6.93173439693e-10
1.3342616378e-09
3.35351181193e-09
3.98706649458e-10
1.44548945901e-09
2.21461653577e-10
1.98597032244e-09
3.86536380772e-10
1.78815205111e-09
1.64849602944e-09
1.48825663124e-09
2.2895478708e-09
1.99751783152e-09
1.76611563464e-09
4.73338151827e-10
6.97370425348e-10
1.70554510473e-09
3.88422858177e-09
2.6233095195e-10
3.85139651568e-09
2.99034881116e-10
4.85883469448e-09
7.47642201502e-10
2.20236680487e-09
4.49053249651e-09
1.40583882152e-09
8.14241715006e-09
2.49932919161e-10
1.09345901335e-09
6.41910057589e-10
2.42384971974e-09
1.97194332368e-09
4.67505428308e-10
6.18670572585e-09
1.61656760941e-09
2.57801550197e-10
4.20209002329e-10
3.19045257098e-09
8.26000759229e-10
1.10096712288e-09
3.48561190363e-09
3.10918946302e-10
3.25874936731e-09
5.51045527327e-10
1.21668040266e-09
1.57489700393e-09
1.83723948034e-09
2.47623767023e-09
1.7811800916e-09
2.24233563961e-09
7.29430237139e-10
5.7244435615e-10
3.55231673822e-09
4.54088298858e-10
7.65772368442e-11
3.30796923429e-09
1.83600782592e-10
3.05583191958e-09
6.79144105731e-10
2.33623201051e-09
2.23359303306e-09
4.66393308124e-11
1.73574791514e-09
2.62742065418e-09
2.62709800022e-09
1.48320146223e-09
2.54761528695e-09
1.92795275388e-09
1.65107367696e-09
1.47208686969e-09
8.09649286622e-10
1.60276512018e-09
1.22011743436e-09
1.19894038836e-09
4.74935722965e-09
1.19722392866e-09
1.6628885553e-09
1.1958694083e-09
7.03850028902e-10
1.27604323536e-09
6.05488103419e-11
1.67631643118e-09
1.61302372385e-09
2.30852160948e-09
5.82716862087e-09
4.22523252323e-10
2.01183619758e-09
2.46516468626e-09
2.10401004882e-09
6.61182513555e-10
2.9706654878e-09
1.62550433145e-09
1.12636048875e-09
5.7565828417e-09
6.57829986455e-10
3.10258294203e-10
7.27677872288e-10
7.5269740063e-10
3.38564837723e-09
4.50911783532e-10
6.40407047999e-09
3.58255382479e-09
5.43938089048e-10
1.60925880189e-10
2.55887168769e-10
8.90397792471e-10
2.26006424375e-10
3.32187959337e-09
1.95620931425e-09
1.97363689086e-10
2.42800216662e-11
9.87682838191e-11
1.19784636494e-09
7.15802367635e-10
8.3418781321e-10
1.0507095444e-09
6.1698004901e-10
2.09222594164e-09
3.37481934684e-09
3.78058603126e-09
2.68295919381e-09
2.77503299791e-09
7.13871884375e-09
5.84657645231e-10
1.18356922698e-09
2.20098447136e-09
2.0269659488e-09
1.89739443509e-09
1.01364551086e-09
7.43360747664e-10
1.71246785705e-09
9.47340108824e-10
1.4747860075e-09
5.80412651678e-10
4.7636808249e-11
5.25924342032e-10
1.63356948104e-09
2.78046237996e-12
3.07872161645e-11
1.72643116607e-09
1.45030738126e-09
1.53347865129e-09
1.35344798028e-09
2.46423441736e-09
1.42921035153e-09
2.03570339357e-09
1.92961326658e-09
6.95628207518e-11
3.64974646403e-09
1.93420404456e-09
1.00069265252e-09
2.71213712905e-09
3.8980814486e-09
5.64336904372e-10
3.76436386598e-09
4.65841864332e-10
7.58653876903e-10
1.60276237976e-09
8.35714601001e-10
1.21602222868e-09
3.28328246518e-09
1.76075575015e-09
2.7306442002e-09
1.11986159485e-09
4.46831160543e-09
2.24103619358e-09
2.46863120176e-10
1.24193639914e-09
9.56034473906e-10
9.95962591463e-10
1.80439372366e-09
1.39664379766e-09
2.99108212754e-09
5.76220005853e-09
6.80292738022e-10
9.51727357809e-10
1.9520663819e-09
2.49049775618e-09
8.17348599916e-10
5.3697485275e-10
3.35435775903e-09
4.80015123858e-10
1.31569039645e-09
5.90142370149e-10
2.16838946788e-09
1.9852975004e-10
1.10570768923e-09
2.02614796516e-12
2.40870514167e-09
3.13039339201e-10
3.32398188825e-09
4.01016745581e-11
4.30066426434e-10
1.66292487985e-09
1.62499106963e-09
4.694869777e-10
1.51745032861e-09
1.24591931594e-09
2.49855557586e-10
2.22176731818e-09
7.9346078085e-09
1.31950801925e-11
1.9290744029e-10
2.7233369475e-10
1.33573714386e-09
3.00215266981e-09
2.27342998001e-10
2.99988183645e-09
6.60120201697e-11
1.28976443641e-09
3.40123257118e-09
1.27475391253e-09
2.22664270898e-09
6.16179387253e-10
9.24453961293e-10
7.89749567908e-10
9.02816611783e-10
3.57312961921e-10
2.38589383785e-09
1.18477104421e-09
6.47877745359e-10
8.03722122206e-10
1.52949799296e-09
1.94739546782e-09
1.8526546226e-10
1.22317263876e-09
1.27686322602e-09
9.68843231421e-11
1.58615890086e-09
4.53182268849e-10
2.09709079771e-10
9.79344664074e-12
4.04951019372e-10
1.67236073056e-09
6.69285895151e-11
1.15296822444e-09
7.89269671902e-10
3.79386021669e-11
2.73932956717e-09
4.51824166326e-09
4.21204116967e-10
2.83717177388e-09
7.51460098397e-10
2.04722207317e-09
2.320200515e-10
1.52071983797e-09
1.25335247701e-09
1.39742220342e-09
1.84326427786e-09
1.43037741631e-09
9.01928559697e-10
2.56303527185e-09
9.10335062636e-10
2.84858258261e-09
1.52834928643e-09
4.13551368544e-09
1.96230092251e-09
1.72198654109e-09
2.18489286603e-09
1.21934033061e-09
7.02574043693e-10
5.62724961603e-10
1.37775562174e-09
1.62144653199e-09
1.23995200589e-09
2.28022829519e-09
6.61371779311e-10
3.52419922836e-10
1.10062235831e-09
2.15645792244e-09
3.28530458154e-10
2.35422385408e-09
3.11939467838e-09
1.42455340691e-09
1.02965753887e-10
2.65199508653e-09
1.18593637543e-09
4.56149802788e-10
3.08313394579e-10
1.40477057001e-10
2.23817746001e-09
7.02081314079e-09
1.5131653484e-09
9.80517728336e-10
8.90387967727e-10
1.55460790907e-09
2.84312829351e-09
3.88840985305e-10
1.68991027085e-09
1.00534280434e-10
4.3896587628e-09
5.70787612897e-10
3.26147420169e-09
1.82616853442e-09
1.36071484889e-09
1.0217841856e-11
1.47782789339e-09
1.80449914431e-09
2.72412334345e-09
1.41817019944e-09
1.77376545098e-09
2.53888934429e-09
5.97791594072e-10
1.21276541315e-09
2.2762665849e-09
1.40929888477e-09
6.34251832084e-10
1.58128084295e-09
3.20998889409e-09
1.19641589687e-09
4.25126692218e-09
4.28540374514e-09
2.8632214997e-11
6.95239082183e-11
5.55696712227e-10
2.01329779545e-09
7.90315315125e-10
7.52693793456e-11
5.5664621463e-10
2.79913102601e-09
3.81089714684e-10
1.59924930984e-09
2.28156216865e-10
3.09493673639e-09
1.5031723262e-09
1.95847008654e-09
1.71919527073e-09
1.30337344003e-09
1.18081560109e-09
2.14292800056e-09
7.79232361033e-10
1.70930283762e-09
8.64160014808e-10
3.30511935308e-10
8.27418016475e-10
6.77552416203e-10
1.52605270514e-09
3.93142774469e-09
5.57632871544e-10
3.58492275674e-09
2.03162931434e-09
6.09404951072e-10
1.22792470512e-09
9.39736925273e-10
2.10446248348e-09
1.2488134328e-09
8.10513185537e-10
2.25322804321e-09
2.6144252165e-09
3.95165793795e-09
1.52427049137e-09
4.20194442389e-10
6.35839792765e-10
4.69590029145e-10
1.49534948788e-09
1.00480961616e-09
1.01419215385e-09
2.97281006484e-10
9.3182639982e-10
1.91467755557e-09
7.24743988566e-10
8.37886138045e-10
2.11597671261e-09
1.55584950744e-09
2.29430602068e-09
6.33014605946e-09
1.09217367832e-09
2.14700139404e-09
1.01428483303e-11
4.23663805602e-10
4.80335552749e-10
3.53658606409e-09
1.11596191639e-09
1.98647086629e-09
1.88976154053e-10
7.52278895152e-10
4.33325021201e-10
3.18381041757e-09
1.1305127767e-09
9.4057077988e-10
2.17454727394e-09
2.39694490493e-09
2.6101949301e-10
1.64159884702e-09
4.20788458731e-10
7.30383845959e-10
3.24381526416e-10
9.47375170174e-10
1.14287328557e-09
2.52384102857e-09
1.34900170134e-09
3.38041381648e-09
4.65406110605e-09
1.02930757178e-09
1.53798306534e-10
2.10665474345e-09
1.17612257072e-09
1.82327147266e-09
8.20762144504e-10
4.83939840393e-10
8.19284807407e-10
1.95240935286e-09
1.86827830669e-09
6.15300331571e-10
1.48669368045e-09
1.17350628532e-09
3.11787115594e-09
1.51988094522e-09
7.11306791879e-10
4.62915749296e-10
2.07516006856e-09
1.10134727289e-09
2.01592850459e-09
1.88324782148e-10
1.77079000257e-09
1.44975741375e-09
1.14887266062e-09
1.05507223224e-09
1.47875668757e-09
1.9493010097e-09
3.50539475675e-10
5.73411028328e-10
4.67181470603e-09
4.23627712252e-10
4.33793116776e-10
1.39231002709e-09
7.45341128277e-11
4.75160316589e-09
9.95139999847e-11
1.09482633107e-11
9.8963221383e-11
4.35820410047e-10
3.15674859448e-09
1.32708744689e-09
1.66529662009e-09
4.33747446605e-10
9.74763510271e-10
3.71316750723e-10
4.36911217127e-10
5.64689400852e-10
1.68933782466e-09
5.42360189933e-10
3.88647234817e-11
7.88773593924e-11
1.54244245282e-09
5.68518324298e-10
6.13679750807e-10
6.85682499507e-10
4.29397742163e-10
1.16716815089e-09
8.63606623445e-10
1.98745684479e-09
3.12299214978e-11
3.38500790262e-11
5.41603446447e-10
4.46932819733e-09
2.521795156e-09
5.45454438846e-09
2.59575410348e-10
2.18429537775e-09
7.93269250426e-10
1.75313394291e-11
3.87843149462e-09
1.17544834445e-09
6.3371348895e-10
5.55140670837e-11
4.09590765398e-09
2.43050598121e-09
2.12311991031e-09
1.70571984701e-09
2.01776017438e-09
4.48351381144e-09
3.04258362611e-09
1.61142719114e-09
1.13605685709e-09
4.64748324998e-11
4.99120567737e-09
2.38670904971e-09
1.94078750972e-09
4.30854424502e-09
3.96211512951e-10
1.20245467921e-09
5.3676322679e-10
9.54886050005e-10
4.95192719286e-10
4.50638180534e-09
3.6735952e-10
3.0003488983e-09
3.18993217892e-10
2.25651157752e-09
2.88221183257e-09
3.73835419166e-09
4.74949999763e-09
9.33961858169e-10
2.17355146439e-09
1.09100935884e-10
9.7763415854e-12
5.38516565659e-10
2.7979299537e-09
1.84922774547e-09
1.52148329838e-09
1.68424065842e-09
1.24703628611e-09
9.71250256965e-10
3.35469812683e-09
2.12789204206e-09
1.78155612818e-10
5.77793541853e-09
5.17127369224e-10
1.08881093037e-09
2.62182601112e-09
5.08142542306e-09
2.64567053637e-09
2.14372043606e-09
9.16383991103e-10
2.35445343848e-09
7.89416160162e-10
4.19672372144e-12
1.15029165484e-09
1.40817614871e-09
2.36050054443e-09
9.05418497504e-10
1.66212128574e-09
1.55841775723e-09
4.80704392119e-10
1.6203850847e-10
2.6250035248e-09
1.82634783441e-10
1.94079434729e-09
6.85918332444e-11
3.95016710563e-09
1.01217400029e-09
2.01638006225e-09
7.67363036919e-10
3.27424371576e-09
3.1222811377e-10
1.2114499097e-10
2.21608816816e-11
1.85732437547e-09
4.01314358953e-10
5.72523640029e-10
2.01233264275e-10
1.7975348554e-09
6.75343633394e-10
2.74386525154e-09
1.84033068294e-09
2.33670093135e-09
1.07208693403e-09
3.4512708329e-10
1.22429923193e-09
3.20808285142e-10
1.31799762189e-09
1.32262032063e-09
6.7616932801e-11
2.09656036729e-09
5.1578786429e-10
6.94303912924e-10
2.10316105405e-09
2.03321050186e-09
2.10396918778e-09
2.75391947246e-09
4.60967266298e-10
3.62130628736e-10
4.49018576239e-09
2.10190792172e-09
2.63339216903e-09
1.77339640733e-09
1.10255282611e-09
1.25197205276e-09
1.43115336868e-09
5.35154296534e-10
2.02659334057e-09
1.86927655497e-09
1.22605987318e-09
1.40777103728e-09
1.60084644623e-10
1.84499862687e-09
2.16556516741e-09
9.31186128891e-10
1.73501721754e-09
4.49422634417e-10
1.14956034664e-09
8.01681318058e-10
1.81399107444e-09
4.31762355971e-12
6.81330327934e-12
1.01533284666e-09
1.32245603068e-09
8.91747363257e-10
1.16385074025e-09
2.21491327787e-09
2.81731457488e-10
1.36327135114e-09
1.14201772157e-09
5.52672835461e-10
1.31509841919e-09
3.39847616745e-11
7.92472528758e-12
3.99808344571e-09
6.07174921811e-13
1.65950413396e-09
6.38839234471e-10
2.46030840464e-09
3.12801786255e-09
3.29672033744e-09
1.92452887684e-09
9.92781692572e-10
1.30714507075e-09
5.38235031393e-10
1.59248204669e-10
5.75439784945e-10
2.91232410568e-09
9.04799359145e-10
1.10037093671e-09
9.68164879328e-10
3.24739803098e-10
8.83149018998e-10
2.13871849151e-10
9.77605218094e-10
1.45672059485e-09
3.84215332312e-10
9.89490751556e-10
5.40175025548e-10
2.70492634993e-10
1.29159444862e-11
2.39794219622e-09
9.18488918658e-11
1.27024365761e-09
2.13935784286e-09
2.79753504037e-09
8.82984652751e-11
1.96628854992e-09
9.36682992298e-11
9.83580331032e-10
1.56664843422e-09
1.14571056467e-09
7.85298067417e-10
1.20654838391e-10
6.09486348208e-10
1.44367121686e-10
2.36381111115e-10
2.02399798112e-10
3.46738482761e-09
2.70227821694e-09
9.09748129919e-10
1.83480217293e-09
1.90398394183e-09
3.50999787249e-10
7.06664650037e-10
1.37740111586e-10
1.27890928038e-09
2.04971518824e-09
1.84757638812e-09
2.39522045723e-09
4.16845870359e-10
7.56670198343e-11
3.41056383133e-10
6.19554515332e-10
5.09118607791e-10
8.31200261932e-11
3.81596504217e-09
1.99222435215e-10
2.92790529525e-09
2.36084425097e-09
1.64804859775e-09
4.95716099806e-09
5.19313472391e-10
9.81465928523e-10
1.68480273929e-09
2.24566635864e-10
5.98565481216e-09
1.23152094014e-10
1.45072202343e-09
2.93510190434e-10
1.25367155501e-09
1.01274803032e-09
2.74489242086e-09
6.40311573541e-10
1.31725548414e-09
1.9460400999e-09
2.3213189873e-09
1.33357199887e-09
7.60540077828e-10
6.14996485036e-10
8.52839486005e-10
1.02232524613e-09
7.37213465612e-10
4.5049027198e-10
1.94526005413e-09
7.91827099226e-10
1.60354475414e-09
2.26032194629e-10
5.06392511935e-10
7.08083416383e-10
1.50345907573e-09
4.55099932843e-09
2.85404181285e-10
2.7169324882e-09
2.24693500655e-10
4.41813554411e-10
1.21520817937e-10
1.23977421098e-09
8.81405760408e-11
9.2788295788e-10
5.05318993152e-10
6.9939352351e-10
2.62625917881e-09
6.808789198e-10
8.08064654754e-11
2.37913604062e-09
1.33493034334e-10
1.56532090526e-09
1.79835525261e-09
1.33689535656e-09
9.17714907482e-10
1.37240336215e-09
1.09173238467e-09
2.35672050666e-10
3.85247317957e-09
1.58241363691e-09
1.09937827274e-09
1.15480634008e-09
1.00015679644e-09
1.19011808207e-09
1.91604832065e-09
1.02173835911e-09
2.13090896125e-09
2.91923105197e-09
7.36768236266e-10
2.38691589667e-09
2.03527462544e-11
1.51828360493e-09
3.08600906993e-10
4.1336028563e-10
1.13376868524e-10
3.66606577984e-10
1.05683918852e-09
1.70951546333e-09
3.51843959831e-10
2.03212925981e-10
1.17740400807e-09
9.66232757983e-10
2.06145722669e-09
1.57861729922e-09
2.21657512448e-09
2.52350069361e-09
2.49108677668e-09
1.67136884989e-09
2.46570209309e-09
1.94585952153e-09
2.07685111851e-09
5.01074943671e-10
2.02435904909e-09
1.67147192372e-09
9.34800116505e-10
1.75684602126e-09
2.92354817544e-09
4.11143260037e-10
2.42605935375e-09
6.07668805522e-10
3.65192389643e-10
6.77771991278e-11
6.79820206324e-11
2.35159052986e-09
1.46999987352e-09
3.28809760914e-09
4.87263695203e-10
1.09622898301e-09
2.80139329081e-09
3.68362804636e-09
3.60763381046e-10
4.50049205618e-10
1.10909855734e-10
1.29062297951e-09
6.57961097588e-10
1.17788050309e-09
9.05388043542e-10
4.04422324698e-10
1.50706120571e-09
5.43447607912e-12
9.03099571002e-10
1.5744816333e-09
8.673652641e-10
2.39603310557e-09
1.35091240265e-09
1.35213341835e-09
4.21086302316e-09
2.47333633964e-09
2.72030154456e-09
4.32427470562e-09
7.41042338466e-10
4.33775478756e-10
1.26604609002e-09
4.34494013593e-09
5.51790547451e-10
5.79073794237e-10
4.06972802994e-10
1.82035153265e-09
5.52746614427e-10
1.01232308695e-09
1.4236732008e-09
5.24785191896e-10
1.17990785043e-10
1.3705972401e-09
1.84236691938e-09
1.85460761871e-09
1.24891663632e-09
1.07508956427e-09
7.89906570097e-10
1.59280166435e-11
2.85189695201e-10
1.29152305187e-09
1.58781692627e-09
7.94309530827e-10
1.70882809679e-09
1.56717640286e-11
3.54924906225e-09
2.36446444344e-09
1.25466414086e-10
7.44945251623e-10
4.25787988809e-11
2.6009266608e-09
9.30742861093e-10
2.09950070018e-09
9.38999933046e-10
1.09041860708e-09
8.43085650215e-10
2.88254088204e-09
2.43785613739e-09
5.38478972553e-10
1.93549645112e-09
3.42567040016e-09
5.34361957369e-09
1.17008128725e-10
1.72221895978e-09
2.08409820243e-09
2.79197203195e-09
1.16485823834e-09
1.83025002049e-09
5.06235371176e-10
3.71075695063e-10
1.65763134521e-10
1.61045081917e-09
2.14795702941e-09
1.0479762243e-09
2.23236698095e-09
1.14355637053e-09
1.55271187908e-09
2.56860842506e-09
1.22510784779e-09
1.31125026027e-09
3.19035500082e-09
6.58987941459e-11
2.35147265707e-09
1.1010832446e-09
1.39551330143e-09
3.08673490897e-10
1.36698347567e-09
2.34210802053e-09
1.2698465725e-09
1.46007617588e-09
2.29469293938e-09
3.23285048041e-10
4.83602371628e-09
1.05928585655e-09
1.31368356677e-09
2.23215472704e-09
1.24003143311e-09
3.80396101949e-10
3.16869384504e-10
4.6029781624e-10
2.38416178311e-10
5.34992271029e-10
3.3830540168e-10
1.39376716833e-09
6.58637335993e-10
8.78749227363e-10
1.13272204149e-09
2.48267587521e-09
1.28171156054e-09
7.9877241296e-10
1.8602164125e-09
1.36120156633e-09
2.17894363568e-09
1.9512105238e-09
7.35917661213e-10
6.72697601693e-10
9.02347870388e-10
3.67939147166e-09
3.81334301841e-09
1.12239400668e-09
1.46584374924e-09
1.31434765302e-09
1.51139727882e-09
8.48451806091e-10
2.13362146783e-09
1.753556394e-09
1.38175366722e-09
2.11083880263e-09
2.94203822193e-09
2.78930032744e-09