# vtk DataFile Version 3.0
File Name: Molecule/sphere_excent/sphere_excent_0-s3.vtk
ASCII
DATASET UNSTRUCTURED_GRID
FIELD FieldData 1
TIME 1 1 double
0.0
POINTS 642 double
0.85064631701 -0.5257383585 9.8827749753e-06
0.86465489864 -0.48610129952 -0.12642037868
0.91291218996 -0.40803781152 0.00017612497322
0.92398387194 -0.35938534141 -0.13078197837
0.86300653219 -0.4358535111 -0.2552960515
0.96051609516 -0.27808913589 5.8356472437e-05
0.91674202681 -0.30071559548 -0.26294782758
0.9660680294 -0.22092290223 -0.13376533985
0.95102900267 -0.15783947706 -0.26570290327
0.84457337856 -0.37659034133 -0.38056987524
0.89065974951 -0.23547209799 -0.38891246915
0.80901765823 -0.30901694298 -0.49999389052
0.98993104696 -0.1414026618 1.2845001038e-05
0.98778146505 -0.078327231109 -0.13463699818
0.9999974966 -3.7430620523e-06 2.1690632366e-06
0.84226828814 -0.15701720119 -0.51565825939
0.91362655163 -0.080227404833 -0.39855462313
0.85350203514 6.6048851295e-05 -0.52105778456
0.91356605291 0.080550566316 -0.3986299336
0.96327155828 0.0001503090607 -0.26852291822
0.95102626085 0.15785939991 -0.26569959521
0.84234410524 0.1571816802 -0.51548248529
0.89071673155 0.23543164134 -0.38880574703
0.80901330709 0.30901998281 -0.49999904633
0.98775982857 0.078397013247 -0.13474979997
0.75734484196 -0.23511664569 -0.60918778181
0.78032410145 -0.079775348306 -0.62025785446
0.69123876095 -0.15771302581 -0.70515263081
0.7021137476 6.5745363827e-05 -0.71207147837
0.78038048744 0.080032221973 -0.62015491724
0.6911970377 0.15775881708 -0.70518350601
0.6126588583 -0.078019186854 -0.78642731905
0.61252599955 0.078135885298 -0.78651922941
0.52573919296 4.7147868827e-06 -0.85064578056
0.75732845068 0.23512640595 -0.60920387506
0.9899533987 0.1412550658 -0.00020127027528
0.96608066559 0.22078989446 -0.13390137255
0.96053630114 0.27801945806 -0.00011229408119
0.91671198606 0.30064445734 -0.2631393075
0.92404055595 0.3591568172 -0.13101281226
0.86303156614 0.43579521775 -0.25531134009
0.84463763237 0.37640035152 -0.38061869144
0.91297650337 0.40789702535 -0.00018017576076
0.86465883255 0.48609495163 -0.12641902268
0.85065633059 0.52572214603 -2.6140776299e-06
0.78651452065 0.61255437136 -0.077950775623
0.79317116737 0.57104492188 -0.21164835989
0.70522099733 0.69116574526 -0.15772800148
0.78293043375 0.51726943254 -0.34559988976
0.70310300589 0.64641195536 -0.2962859571
0.68531823158 0.58776909113 -0.42992311716
0.75602048635 0.45332872868 -0.47212353349
0.60935938358 0.75718098879 -0.23519393802
0.59886473417 0.70760852098 -0.37500104308
0.50000119209 0.80901485682 -0.30901265144
0.70754414797 0.37493982911 -0.59897971153
0.64489263296 0.51503759623 -0.56466406584
0.58773356676 0.42993065715 -0.68534374237
0.51481151581 0.56464082003 -0.6450945735
0.56449502707 0.64508378506 -0.51498442888
0.42991039157 0.6853248477 -0.5877700448
0.4533123374 0.47227445245 -0.75593429804
0.37504035234 0.59895128012 -0.70751416683
0.30901455879 0.50000059605 -0.80901443958
0.47209629416 0.75596475601 -0.4534484446
0.64643597603 0.29639241099 -0.70303732157
0.57112586498 0.21177689731 -0.79307872057
0.51710355282 0.34594151378 -0.78289157152
0.43588754535 0.25534078479 -0.86297619343
0.48610264063 0.12640698254 -0.86465668678
0.37670013309 0.38074433804 -0.84444707632
0.38076114655 0.84443861246 -0.3767029345
0.34579613805 0.78285211325 -0.51725924015
0.25537955761 0.86294722557 -0.43592205644
0.29644551873 0.70296943188 -0.64648610353
0.21194185317 0.79304367304 -0.57111406326
0.15785042942 0.7052231431 -0.6911354661
0.23542569578 0.60933679342 -0.75712859631
0.12654639781 0.86457145214 -0.48621827364
0.078138366342 0.78652638197 -0.61251574755
8.5128021965e-06 0.85065227747 -0.52572864294
0.7866217494 0.61238116026 0.078234218061
0.71231752634 0.70186299086 6.9122637797e-05
0.70525491238 0.69111013412 0.15782000124
0.62044233084 0.78018265963 -0.079707957804
0.62042784691 0.78017902374 0.079860590398
0.52109915018 0.8534771204 9.2739519459e-06
0.51565533876 0.84224790335 -0.15713874996
0.60936677456 0.7571683526 0.2352155
0.51565247774 0.84224647284 0.15715581179
0.50000160933 0.80901312828 0.30901646614
0.38879027963 0.89069646597 -0.23553596437
0.39855119586 0.91362506151 -0.080261960626
0.26567193866 0.95103853941 -0.15783286095
0.26842778921 0.96329832077 5.1892500778e-05
0.39853414893 0.9136121273 0.080499000847
0.26569664478 0.9510281086 0.15785335004
0.13471136987 0.9877820015 -0.078176043928
0.13474282622 0.98776054382 0.078407332301
-4.0539566726e-06 0.9999974966 -3.5625430428e-07
0.38881537318 0.89071571827 0.23541718721
0.26306831837 0.91671216488 -0.30070450902
0.13097673655 0.92397409678 -0.35933962464
0.13380432129 0.96613538265 -0.22061190009
5.6798271544e-05 0.96052932739 -0.27804350853
-6.7840664997e-07 0.91293895245 -0.40798041224
0.00018816828378 0.98995053768 -0.14127199352
0.38063383102 0.84464150667 0.37637653947
0.26303958893 0.91675466299 0.30060049891
0.25530737638 0.86306035519 0.43574032187
0.13381525874 0.96610975266 0.22071626782
0.1309709847 0.9240565896 0.35913071036
5.4629817896e-05 0.96053105593 0.27803766727
0.00018707818526 0.98994970322 0.14128014445
0.12643063068 0.86475247145 0.48592627048
4.5393389883e-06 0.91294485331 0.40796643496
4.8069841796e-06 0.850654006 0.52572590113
-0.12639823556 0.86456876993 0.48625987768
-0.13080245256 0.92397576571 0.35939863324
-0.25529494882 0.86298179626 0.43590345979
-0.13381080329 0.96604901552 0.22097724676
-0.26296412945 0.9167175293 0.30077636242
-0.2657096386 0.95102626085 0.15784445405
-0.13463462889 0.98778146505 0.078331559896
-0.38057151437 0.84456086159 0.37661704421
-0.38891661167 0.89065527916 0.23548145592
-0.49999636412 0.80901503563 0.30901989341
-0.1346553266 0.98776787519 -0.078472226858
-0.26871854067 0.96321648359 -2.1206184101e-05
-0.26573699713 0.95101428032 -0.15786968172
-0.39874336123 0.9135222435 -0.080486409366
-0.39877519011 0.91352015734 0.080349311233
-0.52111524343 0.85346692801 -3.8783555283e-06
-0.3890183568 0.89064538479 -0.23534524441
-0.51567548513 0.84225720167 -0.15702149272
-0.50000101328 0.80901390314 -0.30901539326
-0.5156635046 0.84226405621 0.15702068806
-0.13381834328 0.96608614922 -0.2208160013
-0.13084219396 0.92403143644 -0.35924133658
-0.26324740052 0.91669303179 -0.30060854554
-0.25530558825 0.86303281784 -0.43579608202
-0.12640576065 0.86465424299 -0.48610767722
-0.3806270659 0.8446366787 -0.37639340758
-0.60919219255 0.75733953714 0.23512196541
-0.62028455734 0.7802991271 0.07981146127
-0.70515650511 0.69123274088 0.15772198141
-0.62026685476 0.78030180931 -0.07992707938
-0.71209895611 0.70208543539 -2.5623183319e-05
-0.7051871419 0.6911945343 -0.15775218606
-0.60921686888 0.75732296705 -0.23511068523
-0.78643000126 0.61265397072 0.078031383455
-0.78652590513 0.61251729727 -0.078130573034
-0.85064965487 0.52573287487 -2.0480670173e-06
-0.077945783734 0.78650981188 0.61256176233
-0.21163965762 0.79313009977 0.57110530138
-0.15772603452 0.7052180171 0.69116926193
-0.34559103847 0.78289210796 0.51733338833
-0.29628616571 0.70309495926 0.64642071724
-0.42992511392 0.68531227112 0.58777457476
-0.4721237123 0.75601220131 0.45334234834
-0.23519317806 0.60935819149 0.75718224049
-0.37500166893 0.59886217117 0.70761030912
-0.30901271105 0.50000101328 0.80901497602
-0.59897810221 0.70754623413 0.37493848801
-0.5646649003 0.64489126205 0.51503831148
-0.68534344435 0.58773654699 0.42992696166
-0.64509481192 0.51481223106 0.56463986635
-0.51498508453 0.56449300051 0.64508497715
-0.58777016401 0.42991021276 0.6853248477
-0.75593447685 0.45331332088 0.47227329016
-0.70751446486 0.37504035234 0.59895092249
-0.80901736021 0.30901381373 0.49999645352
-0.45344856381 0.47209596634 0.75596493483
-0.70302438736 0.64645862579 0.29637369514
-0.79306447506 0.57115602493 0.21174904704
-0.78289061785 0.51710814238 0.3459366262
-0.86297619343 0.4358894825 0.2553370297
-0.86465537548 0.4861060977 0.12640051544
-0.84444761276 0.37670266628 0.38074022532
-0.3767029345 0.38076108694 0.84443867207
-0.51725924015 0.34579601884 0.78285217285
-0.43592196703 0.25537952781 0.86294728518
-0.64648658037 0.29644489288 0.70296931267
-0.57111430168 0.21194155514 0.79304355383
-0.6911405921 0.15784442425 0.70521944761
-0.75713461637 0.23542265594 0.60933065414
-0.48621833324 0.12654593587 0.86457151175
-0.6125177145 0.078132972121 0.78652536869
-0.52573251724 5.8166388044e-06 0.85064989328
0.078054137528 0.78661298752 0.61241436005
3.1825336919e-05 0.71230691671 0.7018737793
0.15776057541 0.70525121689 0.69112759829
-0.07971213758 0.62043869495 0.78018516302
0.079828999937 0.62042272091 0.78018629551
5.4077813729e-06 0.521096766 0.85347855091
-0.15714019537 0.51565414667 0.84224832058
0.2351808548 0.60936617851 0.75717961788
0.15715102851 0.51565146446 0.84224790335
0.30900973082 0.50000041723 0.80901646614
-0.23553611338 0.38879016042 0.89069652557
-0.08026316762 0.39855033159 0.91362529993
-0.15783289075 0.26567193866 0.95103853941
5.1689392421e-05 0.26842755079 0.96329843998
0.080497562885 0.39853325486 0.91361260414
0.15785306692 0.26569634676 0.9510281682
-0.078176051378 0.13471156359 0.9877820015
0.078407339752 0.13474290073 0.98776048422
1.3516444142e-06 -6.6865675308e-07 0.9999974966
0.23541638255 0.38881489635 0.8907161355
-0.30070444942 0.26306834817 0.91671216488
-0.35933968425 0.13097675145 0.92397409678
-0.22061190009 0.1338044107 0.96613538265
-0.27804487944 5.7897424995e-05 0.96052885056
-0.4079850018 3.4210679587e-06 0.91293674707
-0.14127078652 0.00019035846344 0.9899507165
0.37637063861 0.38062995672 0.84464585781
0.30059981346 0.2630391717 0.91675502062
0.43573862314 0.25530457497 0.86306190491
0.22071607411 0.13381548226 0.96610975266
0.35913056135 0.1309709847 0.92405664921
0.27803725004 5.8879355493e-05 0.96053111553
0.14128293097 0.00019276962848 0.98994922638
0.48593103886 0.12642981112 0.86474978924
0.40796259046 6.776463124e-07 0.91294670105
0.52572602034 2.0743734694e-06 0.8506539464
-0.48626226187 -0.1264026314 0.86456722021
[...]
CELL_DATA 1280
SCALARS cell_data_0 double
LOOKUP_TABLE default
2.07168651276e-09
2.73262507192e-09
1.12054946821e-09
1.26794741135e-09
2.93990331944e-09
1.43034822586e-09
1.57770606561e-09
1.97398610967e-09
3.24168349642e-10
1.1824225798e-09
7.91085947044e-10
1.04243080968e-09
1.31188358615e-09
4.03357419414e-10
2.72055248462e-10
2.70309718195e-12
2.01033614064e-09
3.51445252812e-10
1.05659019973e-10
8.8616425356e-10
1.67806799699e-09
6.48581790319e-13
2.48568961334e-09
3.56280184902e-09
9.25291804186e-11
1.66046877609e-09
5.58030056266e-10
8.11457824765e-10
2.15520162669e-09
1.69491775914e-10
4.96630073721e-10
4.44023736369e-09
7.5363768449e-10
6.97677746804e-10
1.34910971018e-09
7.46837595851e-10
2.55330590817e-09
3.89737743858e-10
1.47307552424e-10
2.41742426228e-10
1.23770478134e-09
6.11335651278e-10
7.05090135915e-10
3.89535854776e-10
1.26087871755e-09
3.33428934899e-10
7.22807162706e-10
4.13174733615e-10
3.63891222372e-09
2.67077916718e-09
9.3050187651e-10
2.42027319789e-10
5.07471308324e-10
3.16787616907e-09
3.8493260473e-10
1.98545580253e-09
4.74905621819e-10
1.04927841617e-09
5.43828950138e-10
1.29088130935e-10
6.69991593271e-10
1.87527548698e-09
6.40543619519e-10
1.23066706952e-09
1.73920252361e-09
8.12253217331e-10
5.27052940186e-10
2.04239029932e-09
4.5652637681e-10
4.58648035551e-10
1.0902866518e-09
1.91827121434e-09
1.32301296442e-09
1.87211964097e-09
6.27392551298e-10
2.11164612697e-10
1.43633132986e-09
2.29577764122e-10
1.96004301274e-09
2.07375898589e-09
4.28827061873e-10
2.86327732402e-10
3.57661587693e-10
8.05814942683e-11
9.99764140976e-10
5.60487416658e-10
5.04251156511e-10
6.54165015994e-10
1.99488826271e-09
8.13792012426e-10
1.97951258312e-09
8.90085580725e-11
6.04566773238e-10
8.97295178205e-10
6.16000305076e-10
2.32117196425e-09
1.1015421904e-09
4.77150781784e-10
6.29499513613e-10
7.8774743006e-10
1.99238216482e-11
6.79169708178e-10
1.62798936893e-10
4.81259591445e-10
4.75441797855e-10
8.58620216044e-11
2.74430074471e-10
5.21593109348e-11
4.30574688517e-10
7.98626967649e-10
7.77237299413e-10
6.23110150794e-10
2.5058591378e-10
7.91237104379e-11
6.99799594881e-10
8.34573183019e-10
6.48057114522e-10
5.2709000732e-10
1.03200026807e-10
5.87097492578e-10
1.37835313226e-09
5.78715061356e-11
7.41127241838e-10
9.35691924004e-10
5.33273150796e-10
2.44207707378e-09
2.23632784002e-09
1.14896378268e-09
1.64128487712e-09
1.65533327036e-09
1.30871209714e-10
3.8678250133e-09
5.59981420814e-11
1.42746456535e-09
8.47449912692e-10
2.54689611637e-09
4.27462396056e-09
3.3834534517e-09
9.57633532153e-10
2.80268977894e-09
4.32484377372e-09
3.37842528341e-09
6.90934802719e-10
4.59770297653e-09
6.49242770124e-10
1.93603629085e-09
1.25073151362e-09
8.68374912734e-10
7.54688755808e-10
2.12840003316e-09
2.19397269318e-09
2.06670671083e-09
2.97548700232e-09
5.89693109985e-09
1.05096238144e-09
1.60176124367e-09
1.45675833483e-09
4.26542990212e-09
2.24721639776e-10
3.31748430864e-09
1.12939397818e-09
2.09937666121e-10
8.91329200222e-10
3.52474572636e-10
1.28138753138e-09
1.06134003289e-09
7.69453956484e-10
2.92036009185e-10
1.56194783709e-09
8.40057348723e-10
4.54796835533e-10
1.03674298442e-09
6.68665499328e-11
1.38564506395e-09
1.40382471877e-09
1.84518581885e-09
5.66683615769e-09
4.96783146319e-09
6.41732558176e-09
8.49678573082e-09
1.62478664463e-09
5.85803965953e-09
4.86787955596e-09
4.28681441984e-09
4.01973568583e-09
1.21874648039e-09
2.41949977569e-09
4.48286001823e-09
9.7747779383e-09
4.06552678888e-09
4.22156445342e-09
7.82396034581e-09
5.54518835273e-09
7.52430300796e-09
5.03329926828e-09
5.88651195226e-09
5.59854954097e-09
3.73108697739e-09
4.76099927315e-09
8.7931920285e-09
3.31229914439e-09
5.78982008501e-09
1.28487165746e-09
3.72371605053e-09
6.4735759435e-09
8.24569885825e-09
4.29744294938e-09
6.55499302704e-09
5.52666594808e-09
1.29366891994e-09
1.29332527714e-09
4.46017630997e-09
1.5920849362e-09
3.22814279861e-09
1.63473912172e-09
4.51049182366e-09
5.83075603362e-10
1.49240092719e-09
3.41987598975e-09
3.84867145675e-09
4.75699998368e-09
6.04186473187e-09
4.88537368893e-09
6.9426184576e-09
3.45289830649e-09
1.37492627976e-09
9.05662483522e-10
2.76367715695e-09
1.01828752692e-09
5.1271348899e-11
1.52967723127e-09
1.54041404135e-09
1.27678896811e-09
1.31469198272e-09
1.12797293703e-09
2.11461571928e-10
1.41471008086e-09
1.35942199056e-09
1.4581108934e-09
8.8690848669e-10
1.01335339576e-08
4.79520022032e-09
3.7556936039e-09
3.52428913558e-09
3.17904261906e-09
8.63717400173e-10
5.15413171231e-09
8.57334231389e-09
3.32505571078e-09
5.36412316059e-10
2.13741632311e-09
2.8034664767e-09
1.31890793396e-09
3.06195640826e-09
7.35900073272e-11
5.14829718901e-09
1.31388210554e-08
2.14999808991e-08
9.00517503259e-09
2.33661006932e-08
1.70741085601e-08
1.28224117776e-08
1.313546576e-08
2.5324571317e-08
9.44172957233e-09
3.85926591094e-09
7.17024391634e-09
1.8608793387e-08
4.25226993546e-08
3.03751699968e-08
1.80966162584e-08
4.64437118345e-08
1.2043843907e-09
1.02566852434e-08
2.79468224536e-09
6.36952810297e-09
1.87130000122e-08
3.19019400127e-08
2.8246327922e-08
2.20371689978e-08
3.38253828905e-09
2.53900854576e-08
1.0889918243e-08
3.13402171436e-09
1.45654555541e-08
3.11231224296e-08
1.02616563287e-09
1.70789996646e-08
4.11592789938e-10
1.98760281607e-09
2.37973410565e-09
4.29864456007e-09
3.37917095078e-10
7.4356534031e-09
9.27769720478e-10
1.17351927814e-09
8.56330723221e-10
6.57345473503e-10
2.03005029031e-09
3.31238159779e-09
1.26929510263e-09
8.60042144771e-10
4.26423989322e-09
3.81833941562e-09
5.8711835688e-08
8.55696014376e-09
2.73447716969e-08
6.09587492995e-08
4.90967161094e-09
5.12626866825e-08
2.11734410846e-08
1.51759253464e-08
9.83435416585e-09
1.27133416752e-08
1.14711415104e-08
9.8075688444e-09
3.35998092091e-08
4.01487247278e-08
2.49467056421e-10
8.17002496296e-10
1.60580129721e-08
2.16911304662e-08
3.2352364739e-08
3.08809612716e-08
2.76529907477e-08
1.11591531305e-08
4.71402721709e-08
3.27188024637e-08
4.12261514815e-08
8.7807505094e-09
6.53771608524e-08
9.62685218889e-08
3.90225138189e-08
6.63830382976e-08
9.29738079147e-08
6.85438886088e-08
1.17448269896e-08
9.33708182643e-08
3.65102089589e-09
3.30328907766e-08
1.28876253015e-07
1.20642461356e-07
2.44766171034e-08
5.01074758813e-08
6.12904316596e-08
8.21549644124e-08
1.51830903721e-07
1.55931001465e-07
8.15043856181e-08
3.00163940496e-08
1.41142795857e-07
1.00637252354e-07
4.34322012335e-08
5.51015603111e-08
8.40384604249e-09
4.61492242446e-08
7.55606901844e-08
8.47109606846e-08
3.48149380087e-08
4.19537577695e-08
2.86823641186e-08
5.71329622202e-08
6.18676498589e-08
7.94186587797e-08
6.80327995274e-09
2.85897885807e-08
9.65072041785e-08
6.28150623994e-08
4.256664699e-08
1.08665697896e-07
4.33213146288e-08
8.85919875068e-09
1.35598766941e-07
9.63026986041e-08
6.37080429403e-08
8.38776622959e-08
1.21191894006e-08
9.98189957064e-08
5.94146855184e-08
9.74745962407e-08
3.05944955856e-08
3.15392952839e-08
8.35542204634e-08
6.35423059072e-08
1.3418731614e-08
5.8635223248e-08
3.02553799653e-08
1.92997120057e-08
7.48813854147e-08
3.86605479456e-08
4.15401770383e-08
3.57777042698e-08
6.59284032168e-08
5.55300250276e-08
6.33253443472e-08
8.89684809441e-08
6.19195867097e-08
3.13508989503e-08
8.734699527e-08
6.90945874329e-08
1.04148584896e-08
9.16617035444e-08
3.44726903721e-08
6.37325455797e-10
1.13388663248e-07
8.4813789802e-08
6.85009678935e-08
7.23308136499e-08
9.18190398136e-08
8.05914364547e-08
1.10582464491e-07
1.36651220851e-07
6.65411082299e-08
4.83901873384e-09
1.57105624113e-07
1.48763207917e-07
3.20178849323e-08
1.40644473906e-08
3.04764495965e-08
1.20922045537e-08
2.34069287781e-08
5.19318044543e-08
2.46427148098e-08
4.8209000884e-08
1.11043537843e-08
1.18387298812e-08
2.54766887253e-09
3.3056268504e-11
1.96439154791e-08
5.78337063902e-08
1.57334363766e-08
5.16506063852e-08
4.42748709078e-08
1.02334548999e-07
5.20386989234e-08
2.60393570375e-09
1.3628046667e-07
4.26302838681e-08
8.30992377214e-08
6.85198088246e-08
9.54243341856e-08
1.10735868478e-07
9.01798532005e-08
1.06356062039e-07
6.83189785459e-08
2.76556541124e-08
1.17069121621e-07
5.91523229919e-08
4.17984681577e-08
8.13527659465e-08
2.81913153414e-08
1.72736207908e-08
8.16271129385e-08
3.38052190648e-08
5.4784120216e-08
5.8831762108e-08
4.36368599754e-09
6.3621667486e-08
2.8618003848e-08
1.38684081865e-08
7.49008138552e-09
3.35860924677e-08
9.50474463126e-10
1.31057785207e-09
2.81830276913e-08
4.51048006838e-08
2.27136821647e-08
3.93057658475e-08
2.7761537947e-08
8.44232073988e-09
1.4581381329e-08
3.03595173309e-08
9.24605370053e-09
8.74311669444e-09
7.92689472958e-09
1.4740026963e-08
3.20632306721e-08
1.68518517786e-08
1.94660458931e-08
2.0011518326e-08
4.16499792482e-08
2.30999830668e-08
3.26453430212e-08
2.8045722173e-08
1.24981177403e-08
2.35108862051e-08
8.18633808113e-09
1.48494620511e-08
2.61228648827e-08
3.7879039622e-09
1.73843037445e-08
2.01100863988e-08
1.98285660345e-08
3.6992315193e-09
1.3437238471e-08
6.29185975532e-09
5.43164465319e-09
1.0705356389e-08
1.08467807651e-08
2.60972686919e-09
4.51528129087e-09
4.23239668404e-09
1.73076707846e-10
4.20880249599e-09
8.88803485932e-09
4.91112064699e-09
1.21858363981e-08
4.11554485545e-09
1.87134795187e-09
4.29304794313e-09
3.4945859927e-09
3.30419911998e-09
6.59513899444e-10
2.48293638622e-10
8.35620938395e-11
9.19234068861e-11
4.8652743332e-10
1.41765609832e-10
3.77136397286e-10
2.60537953923e-10
4.25169782249e-11
5.08110723153e-10
2.16389688653e-10
6.60252208562e-10
3.75398962908e-10
9.54210552101e-10
1.33567569625e-09
1.80957216722e-10
7.74785611358e-10
1.1130431766e-09
2.0826649489e-10
9.42785553545e-10
2.36765741664e-10
1.03169410038e-09
8.11924356821e-10
7.82361536933e-10
1.79137430279e-09
5.69022056635e-10
1.0827984971e-09
8.70388186331e-10
2.3239608299e-11
5.03084535554e-10
1.6429769655e-12
3.78399294646e-10
1.82813047435e-09
2.9693800812e-10
1.33456773474e-09
3.12109657115e-10
4.21338533579e-10
5.43824007837e-10
7.53258013605e-11
3.61019476876e-10
5.97431924679e-11
5.82665430705e-10
5.08837077934e-10
4.62064545865e-10
3.50088550586e-10
9.68951645995e-10
8.4999393812e-11
7.2648399901e-10
5.53465298764e-10
3.01827932733e-10
3.02988557903e-10
1.34428649055e-10
1.19400465357e-09
1.34731605956e-10
4.7769179668e-10
1.1582898507e-09
1.19845472347e-10
2.4435888502e-10
4.23284500348e-10
9.09793757093e-11
1.48053712668e-09
6.46378430352e-10
2.00283435914e-10
7.84463634663e-10
2.52593851951e-09
3.69491760353e-09
2.15431150125e-09
2.42744443625e-09
2.88885594101e-10
5.06194036857e-09
5.64765290006e-09
8.9427243139e-09
1.13540705139e-09
2.95433808889e-09
1.66773747759e-09
1.0335073746e-11
6.54879081687e-09
9.97561521275e-09
9.48833128242e-10
1.26702488931e-09
5.7640268149e-09
3.40158975088e-09
5.891959381e-09
4.2940145191e-09
4.24697775475e-09
3.80854160336e-09
8.76100106312e-09
1.0427838146e-08
1.36000776482e-08
4.23555973284e-10
1.30007574062e-08
2.08373796898e-08
9.44334450625e-09
7.44183440361e-09
1.82810128674e-08
1.52770845493e-08
1.26676067949e-09
8.93316209806e-10
2.20267493839e-09
4.71300935763e-10
2.95861214969e-09
1.57152606178e-09
3.27980009032e-09
8.74390757794e-09
4.23022176929e-09
6.43916326378e-09
6.20236575002e-11
1.85968283553e-09
4.64029083302e-10
1.12460658177e-08
5.76027766891e-09
1.7705699553e-09
1.66707575248e-09
2.30718772685e-08
4.11208948365e-09
2.3912063527e-10
2.42253037909e-08
1.78325437313e-08
3.72287999645e-08
3.43861525633e-08
8.4081127294e-09
2.28981437445e-08
1.0058697078e-08
1.88947326594e-08
1.02610954618e-08
4.65088801029e-08
2.11094016935e-08
7.32805786505e-09
3.26977601914e-09
1.96331002544e-09
5.39719370765e-09
5.09647740779e-09
5.66941180849e-09
3.47635621488e-10
3.4643064341e-09
5.34348638112e-09
7.18282477268e-09
5.66799986951e-09
1.06755777059e-08
1.37458824282e-08
3.03730322286e-09
2.02653024628e-09
1.0902246108e-08
1.88501931015e-08
3.21937552109e-09
1.26563912005e-08
4.18610535132e-09
1.14767912481e-09
2.96969032272e-08
3.41465811615e-08
3.1960897464e-08
2.09708819073e-08
1.70737910548e-08
4.33873238867e-08
1.50058402395e-08
6.3401207491e-10
1.35281266348e-09
1.48715482089e-08
9.63857702487e-10
6.69600316408e-09
8.68451726442e-09
7.79709901543e-09
8.41273617039e-09
1.63351458998e-08
1.50571493725e-08
2.17229951118e-08
2.75515895381e-08
1.99584907363e-08
7.32057462441e-09
1.3463862209e-08
1.31880557482e-09
4.01873167773e-09
2.33829000376e-08
2.47292385854e-08
9.4234854523e-09
2.5787089655e-08
2.79709704857e-08
9.33820896044e-09
3.37836335257e-08
4.58483897225e-08
9.19960678264e-09
3.2226500586e-08
1.82475501103e-08
2.45090217381e-08
4.55752441838e-08
6.6058949575e-09
4.41270192756e-08
6.17871597331e-08
6.16255042952e-08
3.83966019239e-08
6.76344274087e-08
6.23538216835e-08
4.02228827752e-10
4.31815328296e-10
3.2003614174e-11
2.61030274272e-10
9.9621376686e-10
6.63883938566e-14
1.59424114328e-09
3.96341238884e-10
1.73230151586e-09
7.27519326228e-10
1.8520717546e-09
2.04778390038e-09
3.40483755938e-10
1.17065953031e-11
3.94924986579e-09
2.86809215578e-09
1.03618976372e-09
5.17869554497e-10
1.95854933152e-09
9.0431980243e-10
1.27959020886e-09
3.36699025068e-09
9.09886702277e-10
2.96887722805e-09
7.71413926915e-11
1.01455736731e-09
1.94385312754e-09
4.66629054332e-10
1.37377425683e-09
4.28083306909e-10
1.70775535907e-09
1.41387472945e-09
1.78592330261e-09
3.18732384286e-10
1.38081630415e-10
2.56368069064e-09
2.46568233949e-09
1.78594190562e-10
3.07722365832e-09
1.10741232564e-10
5.00013924742e-10
1.13107095719e-09
2.68269189907e-09
4.28535923012e-09
1.3794788661e-09
3.19502783374e-09
4.46276374699e-10
2.0140568739e-09
9.36352550054e-10
8.80093530931e-10
1.42936860198e-09
1.70069154464e-09
1.23645445999e-09
9.82577785147e-10
3.161412771e-09
2.75197970237e-10
2.4345056601e-09
3.75491837271e-10
4.48181287734e-09
6.41765452689e-11
1.94937372086e-09
8.45579801065e-10
1.41562273892e-09
2.59996669607e-09
1.47548043755e-09
8.03207481524e-10
2.17856834907e-09
3.45727316993e-10
4.90988489302e-10
3.19067950107e-10
1.31203912575e-09
4.80231033693e-10
4.30125778884e-10
1.68272330323e-09
6.96786028165e-10
1.63131871807e-09
3.76666622458e-10
9.98543828057e-10
1.49345745044e-09
1.14698325035e-09
8.43549350789e-10
2.59486583269e-09
1.75098378691e-09
2.53201274383e-09
2.99531435927e-09
8.90146875397e-10
5.20138280208e-10
1.23335312018e-09
6.597529623e-10
1.25355095444e-09
1.46726230626e-10
2.05152418401e-09
1.2743839432e-09
3.01945236172e-10
5.83967331584e-10
1.63123166411e-09
3.54706930859e-10
2.92564191286e-10
5.950401513e-10
4.63146205669e-10
5.27429970424e-10
1.35429163363e-09
1.03734513211e-09
6.13211883269e-10
1.0320776625e-09
4.93587925924e-10
3.34022409376e-10
3.38209246765e-11
1.26322541217e-09
5.07677630075e-10
5.83629731993e-10
2.551207114e-11
1.65815638948e-09
1.51689362275e-10
1.61966044697e-09
1.70126072901e-09
1.19156417135e-09
1.176958249e-09
1.25545065222e-09
1.76666005813e-09
8.81755782417e-10
1.10142738572e-09
1.56810087058e-10
2.08332246674e-10
1.56550264111e-09
1.38587650109e-09
8.80985229916e-10
1.08174811095e-09
5.39592702403e-10
2.57799003238e-09
6.35169650201e-10
3.49820482051e-09
9.16806660667e-10
2.2546259355e-09
1.3443419518e-09
1.96618826676e-09
1.60439129652e-09
5.78474431105e-10
7.20953890061e-11
2.10127647311e-09
4.71286016539e-09
4.54118432873e-09
4.88999322856e-10
5.21298275983e-09
4.679496277e-10
2.48815693199e-09
1.2790304258e-09
8.19384557186e-10
2.10162272726e-09
2.17397029082e-09
4.20332857763e-09
1.1492645518e-09
4.53588550085e-10
3.2517477842e-09
2.37037956836e-09
3.19102993819e-09
1.14407605934e-09
3.4135260995e-09
1.49072277194e-09
2.06113019123e-09
2.39321769886e-10
1.6342314267e-09
1.16716649708e-09
6.80875935176e-10
1.86567213634e-10
1.41625864934e-10
9.28338152108e-10
2.46655819441e-10
2.9997787854e-10
5.73236973272e-11
1.22078767608e-09
4.18695918446e-10
2.5456756476e-10
1.60702194357e-09
5.79530869524e-10
4.5181576381e-10
7.21597642748e-09
5.38843110454e-09
4.8952347229e-09
5.18370205274e-09
3.72418024839e-09
4.02087474327e-09
2.83416036037e-09
3.83917108363e-09
4.28598607778e-10
2.71903120913e-09
1.34458843925e-09
3.35460680625e-09
6.53550608214e-09
6.14344194747e-09
5.80351700179e-09
5.97209600774e-09
4.90394236308e-09
6.85434360452e-10
6.94302230262e-09
3.81772938973e-09
1.94807811175e-10
7.08054589868e-09
1.98652717117e-09
3.66151530828e-10
4.69542580588e-09
1.55578080324e-09
1.00846260074e-08
9.89437320003e-09
9.39512132318e-09
2.53230560417e-09
1.69190151249e-08
1.8935583404e-08
6.39380955569e-09
1.11808263116e-08
7.0072952099e-09
7.53118303708e-09
3.04357830251e-08
3.04585077355e-08
2.96073739822e-08
1.91090123694e-08
1.61529809149e-08
4.11150145661e-08
1.42598012245e-08
5.76121051527e-10
5.74324623653e-10
1.79493034367e-08
4.3908127743e-09
6.07611402615e-09
1.04362313289e-08
9.96114997988e-09
7.69934770318e-09
1.46238936714e-08
8.19697612307e-09
2.54911141086e-08
2.51089102762e-08
1.82222086639e-08
8.53176116932e-09
1.47962861793e-08
4.07476203309e-09
3.12033922121e-09
2.79305095504e-08
3.17975117049e-08
1.09147199803e-08
2.95439958276e-08
2.935494302e-08
1.24311579097e-08
3.34494088512e-08
3.89110494485e-08
6.58574654804e-09
2.36766216826e-08
1.80952401338e-08
2.0194974793e-08
5.02061358975e-08
9.11895894826e-09
4.35417119592e-08
6.28617171453e-08
6.05338304344e-08
4.16472434985e-08
6.66997744131e-08
6.66597875531e-08
5.2188480425e-08
1.5281596447e-08
4.03236854932e-08
4.23784476385e-08
1.68124583002e-08
1.87106133331e-08
5.44690766278e-09
5.79104410768e-09
2.95936938132e-08
1.18139262627e-08
1.74074388352e-08
2.18428615769e-08
3.35502212844e-08
2.70481388174e-09
2.34679364313e-08
2.08859359567e-08
1.81904547722e-08
1.68652237813e-09
8.31435846853e-09
9.7580037022e-09
4.87532692177e-09
1.40772933182e-08
5.50592503782e-09
9.27025742075e-09
5.73623488075e-09
1.13245038621e-09
5.0664797876e-09
2.57854377807e-10
1.15096021206e-08
9.66967418195e-09
5.10128205793e-09
8.08023080008e-09
1.71376420706e-08
2.5702374377e-09
9.20225480902e-09
1.56362312817e-08
3.07468682744e-09
2.24302287957e-09
3.08565502796e-09
1.20376548445e-09
5.69274689167e-09
5.88140666448e-10
5.05047525397e-09
4.68975074717e-09
1.03141214754e-08
5.15909847749e-10
5.15953758635e-09
5.65184933024e-09
1.88920365398e-08
7.88832485062e-10
1.53538015523e-08
9.53913310698e-09
4.02130749388e-09
2.67111825808e-09
1.08507095029e-09
3.78968616424e-09
9.91559792317e-09
3.94040859039e-09
4.80428425193e-09
4.77030054593e-09
4.6916483107e-09
2.25736015725e-09
6.96101432119e-09
3.78998290976e-09
4.71196545243e-10
2.51106446452e-10
9.00538664559e-11
3.90453625034e-10
5.57763714236e-10
5.26344603189e-10
7.6051778098e-10
5.23861162516e-10
5.92961467133e-10
4.03782237994e-10
7.6312326557e-10
1.19590775712e-09
4.4682773197e-10
1.19088250084e-09
2.53645709303e-09
4.3374416084e-10
5.2399592883e-10
1.08954425488e-09
4.88560556331e-10
4.97550435107e-10
1.92960948802e-09
1.47433360532e-09
1.53066711879e-09
1.76840778743e-11
1.60044766885e-09
2.85268482219e-09
4.13290165422e-10
9.07445084069e-10
6.53476200854e-10
2.91607822472e-10
4.55996927209e-10
4.66718212836e-10
3.75626713839e-10
9.1911760059e-10
4.95638712553e-10
1.53104314167e-09
1.52888346773e-11
2.03650264007e-09
1.31326304576e-09
2.55453276715e-09
1.02205443241e-09
5.23044465174e-10
5.31181478822e-10
2.7823397995e-09
1.08319604369e-09
1.2603200113e-09
7.89698205004e-10
5.00665387482e-10
1.53744653781e-09
7.60818484461e-10
1.77356410751e-09
2.00366861093e-09
1.06956606729e-09
1.79065877906e-09
2.86280385224e-09
7.24545120362e-10
1.47178176094e-09
1.58230401957e-09
1.19000511063e-09
2.24967142832e-10
1.15078903387e-10
2.59680577746e-09
2.70216695237e-09
4.29017005481e-10
1.345941597e-10
9.27104699164e-10
1.0895057972e-09
1.20802978817e-09
5.41011401162e-10
1.7485068982e-10
4.70610218435e-10
2.60374456266e-10
7.64319092104e-10
9.52171575362e-10
2.23065996673e-09
1.74140440891e-09
1.06663760382e-09
1.27149842368e-09
1.10616584214e-09
9.14676754302e-10
1.40208482324e-09
4.66030471671e-10
2.70044762053e-09
1.12524929614e-09
1.51406074805e-09
4.51225232905e-09
2.39855417066e-09
1.98879326112e-09
2.61032536039e-09
3.15122583636e-09
4.969232813e-09