# vtk DataFile Version 3.0
File Name: Molecule/sphere_excent/sphere_excent_0-s1.vtk
ASCII
DATASET UNSTRUCTURED_GRID
FIELD FieldData 1
TIME 1 1 double
0.0
POINTS 42 double
0.85065078735 -0.52573114634 0.0
0.80892920494 -0.30898347497 -0.49994572997
0.99989145994 -9.7521670739e-09 4.178319557e-07
0.8089287281 0.30898413062 -0.49994596839
0.52573114634 0.0 -0.85065078735
0.85065078735 0.52573114634 0.0
0.49994561076 0.80892938375 -0.30898311734
0.30898275971 0.49994546175 -0.80892956257
4.4408920985e-16 0.85065078735 -0.52573108673
0.49994587898 0.80892896652 0.3089838028
-8.4288416247e-07 0.99989140034 5.4063709065e-09
-4.4408920985e-16 0.85065078735 0.52573108673
-0.49994584918 0.80892896652 0.3089838028
-0.49994596839 0.8089287281 -0.30898413062
-0.85065078735 0.52573108673 4.4408920985e-16
-0.30898311734 0.49994561076 0.80892938375
-0.80892956257 0.30898275971 0.49994546175
-0.52573108673 5.5511151231e-17 0.85065078735
0.30898344517 0.49994570017 0.80892914534
-4.8660275809e-10 -8.3941046114e-07 0.99989140034
0.52573114634 0.0 0.85065078735
-0.3089838028 -0.49994584918 0.80892896652
0.30898413062 -0.49994596839 0.8089287281
0.0 -0.85065078735 0.52573114634
0.80892914534 -0.30898344517 0.49994570017
0.49994543195 -0.80892956257 0.30898275971
0.30898311734 -0.49994558096 -0.80892938375
1.2810824401e-08 -4.7860773122e-09 -0.99989140034
-0.30898413062 -0.49994593859 -0.8089287281
4.4408920985e-16 -0.85065078735 -0.52573108673
-0.52573114634 0.0 -0.85065078735
0.80892908573 0.30898341537 0.49994567037
-0.80892938375 -0.30898311734 -0.49994558096
-0.80892914534 0.30898344517 -0.49994570017
-0.99989134073 3.287883743e-09 4.1392792127e-07
-0.85065072775 -0.52573108673 0.0
-0.30898341537 0.49994564056 -0.80892908573
-0.49994546175 -0.80892956257 -0.30898275971
-0.49994570017 -0.80892914534 0.30898344517
4.2680741785e-07 -0.99989134073 8.4696401004e-09
-0.80892908573 -0.30898341537 0.49994567037
0.49994564056 -0.80892908573 -0.30898344517

CELLS 80 320
3 0 1 2
3 1 3 2
3 1 4 3
3 2 3 5
3 5 3 6
3 3 7 6
3 3 4 7
3 6 7 8
3 5 6 9
3 6 10 9
3 6 8 10
3 9 10 11
3 11 10 12
3 10 13 12
3 10 8 13
3 12 13 14
3 11 12 15
3 12 16 15
3 12 14 16
3 15 16 17
3 11 15 18
3 15 19 18
3 15 17 19
3 18 19 20
3 17 21 19
3 21 22 19
3 21 23 22
3 19 22 20
3 20 22 24
3 22 25 24
3 22 23 25
3 24 25 0
3 4 26 27
3 26 28 27
3 26 29 28
3 27 28 30
3 0 2 24
3 2 31 24
3 2 5 31
3 24 31 20
3 5 9 31
3 9 18 31
3 9 11 18
3 31 18 20
3 30 32 33
3 32 34 33
3 32 35 34
3 33 34 14
3 8 36 13
3 36 33 13
3 36 30 33
3 13 33 14
3 35 37 38
3 37 39 38
3 37 29 39
3 38 39 23
3 35 38 40
3 38 21 40
3 38 23 21
3 40 21 17
3 17 16 40
3 16 34 40
3 16 14 34
3 40 34 35
3 30 28 32
3 28 37 32
3 28 29 37
3 32 37 35
3 29 41 39
3 41 25 39
3 41 0 25
3 39 25 23
3 4 1 26
3 1 41 26
3 1 0 41
3 26 41 29
3 4 27 7
3 27 36 7
3 27 30 36
3 7 36 8

CELL_TYPES 80
5
5
5
5
5
5
5
5
5
5
5
5
5
5
5
5
5
5
5
5
5
5
5
5
5
5
5
5
5
5
5
5
5
5
5
5
5
5
5
5
5
5
5
5
5
5
5
5
5
5
5
5
5
5
5
5
5
5
5
5
5
5
5
5
5
5
5
5
5
5
5
5
5
5
5
5
5
5
5
5

CELL_DATA 80
SCALARS cell_data_0 double
LOOKUP_TABLE default
8.56378457783e-08
2.8489321211e-07
1.46131587451e-08
8.37224997507e-09
2.18944682771e-07
1.97081749309e-07
9.53950980195e-08
1.34334253011e-07
6.25870684845e-07
3.12350082215e-07
1.9753693918e-07
1.08901647816e-06
8.29798832008e-07
9.82840471176e-07
4.78276479731e-07
6.09756057318e-07
7.36447423704e-06
3.93225651791e-08
9.82021685198e-07
4.17718250599e-06
1.36107880953e-05
3.04816737745e-05
1.70509564686e-05
1.70517422307e-05
2.52134428681e-05
3.04811563768e-05
9.40070006637e-09
3.45294743738e-05
7.74556269105e-07
1.07334920766e-05
9.8775126417e-06
1.41330954518e-06
1.09034544105e-08
4.93716011554e-08
3.95595964777e-09
2.59661327329e-08
4.6810730272e-07
2.32019343407e-06
6.87977170254e-07
4.03087923875e-06
1.35577062289e-06
4.14866176291e-08
6.99658885403e-07
1.23972930493e-05
1.38662294545e-07
2.86947070916e-07
4.41003997132e-07
4.41568129825e-07
9.07949846504e-08
2.51995782282e-08
1.23330159158e-08
1.31581250708e-07
6.26100116818e-07
3.12739242806e-07
1.99016791851e-07
1.08857913585e-06
1.35515497957e-06
3.99433805759e-08
6.99684015672e-07
1.23980232921e-05
9.87015002056e-06
1.39073387586e-06
2.11819966453e-06
2.11829666836e-06
4.21945086388e-08
2.46550495312e-08
3.47398122148e-08
1.14796200458e-07
3.1211899296e-07
3.12680084884e-07
2.46700807991e-07
6.01740290469e-07
4.02712825607e-08
1.9622638928e-07
1.15510818658e-07
3.45464073164e-08
1.03890952232e-08
2.92427657044e-08
2.5221686632e-08
5.06656698135e-09

