# vtk DataFile Version 3.0
File Name: Molecule/sphere_excent/sphere_excent_0-s3.vtk
ASCII
DATASET UNSTRUCTURED_GRID
FIELD FieldData 1
TIME 1 1 double
0.0
POINTS 60 double
0.850650808352 0.525731112119 0.0
0.5 0.809016994375 -0.309016994375
0.5 0.809016994375 0.309016994375
0.0 1.0 0.0
0.0 0.850650808352 -0.525731112119
0.0 0.850650808352 0.525731112119
-0.309016994375 0.5 0.809016994375
0.309016994375 0.5 0.809016994375
0.0 0.0 1.0
-0.525731112119 0.0 0.850650808352
0.525731112119 0.0 0.850650808352
-0.309016994375 -0.5 0.809016994375
0.309016994375 -0.5 0.809016994375
0.0 -0.850650808352 0.525731112119
0.809016994375 -0.309016994375 0.5
0.5 -0.809016994375 0.309016994375
0.850650808352 -0.525731112119 0.0
0.525731112119 0.0 -0.850650808352
0.309016994375 -0.5 -0.809016994375
0.0 0.0 -1.0
-0.309016994375 -0.5 -0.809016994375
0.0 -0.850650808352 -0.525731112119
-0.525731112119 0.0 -0.850650808352
1.0 0.0 0.0
0.809016994375 0.309016994375 0.5
-0.809016994375 -0.309016994375 -0.5
-0.809016994375 0.309016994375 -0.5
-1.0 0.0 0.0
-0.850650808352 -0.525731112119 0.0
-0.850650808352 0.525731112119 0.0
-0.309016994375 0.5 -0.809016994375
-0.5 0.809016994375 -0.309016994375
-0.5 -0.809016994375 -0.309016994375
-0.5 -0.809016994375 0.309016994375
0.0 -1.0 0.0
-0.809016994375 -0.309016994375 0.5
-0.809016994375 0.309016994375 0.5
0.5 -0.809016994375 -0.309016994375
0.809016994375 -0.309016994375 -0.5
0.309016994375 0.5 -0.809016994375
-0.25 0.904508497187 0.154508497188
-0.5 0.809016994375 0.309016994375
-0.25 0.904508497187 -0.154508497188
-0.5 0.809016994375 0.0
-0.675325404176 0.667374053247 0.154508497188
-0.675325404176 0.667374053247 -0.154508497188
-0.404508497188 0.654508497187 0.559016994375
-0.654508497187 0.559016994375 0.404508497188
-0.559016994375 0.404508497188 0.654508497187
-0.829833901363 0.417374053247 0.25
0.904508497187 -0.154508497188 -0.25
0.809016994375 0.0 -0.5
0.904508497187 0.154508497188 -0.25
0.809016994375 0.309016994375 -0.5
0.667374053247 -0.154508497188 -0.675325404176
0.667374053247 0.154508497188 -0.675325404176
0.654508497187 0.559016994375 -0.404508497188
0.559016994375 0.404508497188 -0.654508497187
0.404508497188 0.654508497187 -0.559016994375
0.417374053247 0.25 -0.829833901363

CELLS 116 464
3 0 1 2
3 1 3 2
3 1 4 3
3 2 3 5
3 5 6 7
3 6 8 7
3 6 9 8
3 7 8 10
3 9 11 8
3 11 12 8
3 11 13 12
3 8 12 10
3 10 12 14
3 12 15 14
3 12 13 15
3 14 15 16
3 17 18 19
3 18 20 19
3 18 21 20
3 19 20 22
3 16 23 14
3 23 24 14
3 23 0 24
3 14 24 10
3 0 2 24
3 2 7 24
3 2 5 7
3 24 7 10
3 22 25 26
3 25 27 26
3 25 28 27
3 26 27 29
3 4 30 31
3 30 26 31
3 30 22 26
3 28 32 33
3 32 34 33
3 32 21 34
3 33 34 13
3 28 33 35
3 33 11 35
3 33 13 11
3 35 11 9
3 9 36 35
3 36 27 35
3 35 27 28
3 22 20 25
3 20 32 25
3 20 21 32
3 25 32 28
3 21 37 34
3 37 15 34
3 37 16 15
3 34 15 13
3 38 37 18
3 38 16 37
3 18 37 21
3 19 30 39
3 19 22 30
3 39 30 4
3 3 40 5
3 5 40 41
3 3 42 40
3 42 43 40
3 42 31 43
3 40 43 41
3 31 42 4
3 4 42 3
3 41 43 44
3 43 45 44
3 43 31 45
3 44 45 29
3 41 46 5
3 5 46 6
3 41 47 46
3 47 48 46
3 47 36 48
3 46 48 6
3 41 44 47
3 44 49 47
3 44 29 49
3 47 49 36
3 6 48 9
3 48 36 9
3 29 45 26
3 26 45 31
3 36 49 27
3 49 29 27
3 38 50 16
3 16 50 23
3 38 51 50
3 51 52 50
3 51 53 52
3 50 52 23
3 38 54 51
3 54 55 51
3 54 17 55
3 51 55 53
3 23 52 0
3 52 53 0
3 53 56 0
3 0 56 1
3 53 57 56
3 57 58 56
3 57 39 58
3 56 58 1
3 53 55 57
3 55 59 57
3 55 17 59
3 57 59 39
3 1 58 4
3 58 39 4
3 17 54 18
3 54 38 18
3 39 59 19
3 19 59 17

CELL_TYPES 116
5
5
5
5
5
5
5
5
5
5
5
5
5
5
5
5
5
5
5
5
5
5
5
5
5
5
5
5
5
5
5
5
5
5
5
5
5
5
5
5
5
5
5
5
5
5
5
5
5
5
5
5
5
5
5
5
5
5
5
5
5
5
5
5
5
5
5
5
5
5
5
5
5
5
5
5
5
5
5
5
5
5
5
5
5
5
5
5
5
5
5
5
5
5
5
5
5
5
5
5
5
5
5
5
5
5
5
5
5
5
5
5
5
5
5
5

CELL_DATA 116
SCALARS cell_data_0 double
LOOKUP_TABLE default
0.000435032677205
9.25670530009e-06
1.5665584862e-05
1.93697265764e-05
5.61463339105e-05
0.000162127302514
0.000156926138782
0.000136123787378
0.000159573677269
0.000157259731117
5.71522002107e-05
0.00012911947555
5.91178826038e-05
5.03897354638e-05
4.01180660691e-05
4.65201807013e-05
0.000120197520078
9.92550233103e-06
1.42291706254e-05
0.000111560285093
9.30299904662e-05
1.97608806806e-05
0.000445852315033
4.70344580463e-05
0.000306959303425
4.55645013428e-05
3.69333269001e-05
5.89220817747e-05
0.000148546988116
5.08743195933e-05
0.000170976308482
0.000153704828629
3.57830721634e-05
3.107969344e-05
0.000176351223676
7.30436342076e-05
1.33080056729e-05
8.68181732547e-07
1.92505285123e-05
5.46743604076e-05
5.33597436522e-05
3.76571475258e-05
7.99440405804e-05
5.5743286308e-05
2.13344089816e-05
0.000120627640709
0.000140130690183
1.72311123515e-05
8.163921927e-06
0.000127760585472
6.70282305315e-06
4.29387472993e-06
9.2550696535e-05
1.87343031606e-05
0.00015882603606
0.000280604152047
2.15075748623e-05
3.97799709953e-05
0.000159440139395
5.40106569853e-05
9.26157870052e-06
1.1297155994e-05
2.1562045018e-06
5.23901246458e-07
5.43818451272e-07
3.67254158555e-06
5.55553233722e-06
3.98681537869e-06
2.96173801571e-06
7.11610240081e-06
8.04943565834e-06
3.84657265725e-05
1.70007196656e-05
2.62026705001e-05
1.75619834417e-06
7.66332264548e-06
8.88462176108e-06
1.9211862275e-05
2.95898131538e-07
1.48475386895e-06
1.75336581348e-05
2.66966161427e-06
4.39984083145e-05
3.31562832954e-05
9.33967593604e-05
1.78969951403e-05
6.13761776781e-06
5.68172060851e-05
0.000119388217893
5.65403673298e-05
2.93905007047e-05
8.05356458596e-07
6.60431468107e-06
2.99409976475e-06
2.62527206902e-05
4.37860594181e-07
2.55507995303e-05
6.81563069547e-06
0.000253132762154
0.000270766564922
0.000283249002653
0.000257069766832
6.98042429274e-06
1.2930158729e-07
1.81194057928e-06
3.09599011298e-06
5.74731330191e-06
6.99722259726e-08
2.55298011419e-05
1.53861599059e-06
1.24093953729e-05
9.8818414559e-06
5.89070897806e-05
5.61343178438e-05
3.25303496445e-06
5.20680923906e-05

