# vtk DataFile Version 3.0
File Name: Molecule/sphere_excent/sphere_excent_0-s4.vtk
ASCII
DATASET UNSTRUCTURED_GRID
FIELD FieldData 1
TIME 1 1 double
0.0
POINTS 77 double
0.5 0.809016994375 -0.309016994375
0.0 0.850650808352 -0.525731112119
0.0 1.0 0.0
0.5 0.809016994375 0.309016994375
0.0 0.850650808352 0.525731112119
-0.309016994375 0.5 0.809016994375
0.309016994375 0.5 0.809016994375
0.0 0.0 1.0
-0.525731112119 0.0 0.850650808352
0.525731112119 0.0 0.850650808352
-0.309016994375 -0.5 0.809016994375
0.309016994375 -0.5 0.809016994375
0.0 -0.850650808352 0.525731112119
0.809016994375 -0.309016994375 0.5
0.5 -0.809016994375 0.309016994375
0.850650808352 -0.525731112119 0.0
0.525731112119 0.0 -0.850650808352
0.309016994375 -0.5 -0.809016994375
0.0 0.0 -1.0
-0.309016994375 -0.5 -0.809016994375
0.0 -0.850650808352 -0.525731112119
-0.525731112119 0.0 -0.850650808352
1.0 0.0 0.0
0.809016994375 0.309016994375 0.5
-0.809016994375 -0.309016994375 -0.5
-0.809016994375 0.309016994375 -0.5
-1.0 0.0 0.0
-0.850650808352 -0.525731112119 0.0
-0.850650808352 0.525731112119 0.0
-0.309016994375 0.5 -0.809016994375
-0.5 0.809016994375 -0.309016994375
-0.5 -0.809016994375 -0.309016994375
-0.5 -0.809016994375 0.309016994375
0.0 -1.0 0.0
-0.809016994375 -0.309016994375 0.5
-0.809016994375 0.309016994375 0.5
0.5 -0.809016994375 -0.309016994375
0.309016994375 0.5 -0.809016994375
-0.25 0.904508497187 0.154508497188
-0.5 0.809016994375 0.309016994375
-0.25 0.904508497187 -0.154508497188
-0.5 0.809016994375 0.0
-0.675325404176 0.667374053247 0.154508497188
-0.675325404176 0.667374053247 -0.154508497188
-0.404508497188 0.654508497187 0.559016994375
-0.654508497187 0.559016994375 0.404508497188
-0.559016994375 0.404508497188 0.654508497187
-0.829833901363 0.417374053247 0.25
0.904508497187 -0.154508497188 -0.25
0.809016994375 -0.309016994375 -0.5
0.809016994375 0.0 -0.5
0.904508497187 0.154508497188 -0.25
0.667374053247 -0.154508497188 -0.675325404176
0.667374053247 0.154508497188 -0.675325404176
0.809016994375 0.309016994375 -0.5
0.559016994375 0.404508497188 -0.654508497187
0.404508497188 0.654508497187 -0.559016994375
0.654508497187 0.559016994375 -0.404508497188
0.417374053247 0.25 -0.829833901363
0.850650808352 0.525731112119 0.0
0.675325404176 0.667374053247 -0.154508497188
0.675325404176 0.667374053247 0.154508497188
0.5 0.809016994375 0.0
0.904508497187 0.154508497188 0.25
0.925325404176 0.26286555606 0.0
0.829833901363 0.417374053247 0.25
0.654508497187 0.559016994375 0.404508497188
0.675325404176 -0.667374053247 -0.154508497188
0.654508497187 -0.559016994375 -0.404508497188
0.829833901363 -0.417374053247 -0.25
0.856762745781 0.231762745782 -0.375
0.952254248593 0.077254248594 -0.125
0.87757965277 0.340119804654 -0.125
0.829833901363 0.417374053247 -0.25
0.731762745781 0.434016994375 -0.452254248594
0.75257965277 0.542374053247 -0.202254248594
0.577254248593 0.684016994375 -0.356762745782

CELLS 150 600
3 0 1 2
3 3 2 4
3 4 5 6
3 5 7 6
3 5 8 7
3 6 7 9
3 8 10 7
3 10 11 7
3 10 12 11
3 7 11 9
3 9 11 13
3 11 14 13
3 11 12 14
3 13 14 15
3 16 17 18
3 17 19 18
3 17 20 19
3 18 19 21
3 15 22 13
3 13 23 9
3 3 4 6
3 23 6 9
3 21 24 25
3 24 26 25
3 24 27 26
3 25 26 28
3 1 29 30
3 29 25 30
3 29 21 25
3 27 31 32
3 31 33 32
3 31 20 33
3 32 33 12
3 27 32 34
3 32 10 34
3 32 12 10
3 34 10 8
3 8 35 34
3 35 26 34
3 34 26 27
3 21 19 24
3 19 31 24
3 19 20 31
3 24 31 27
3 20 36 33
3 36 14 33
3 33 14 12
3 17 36 20
3 18 29 37
3 18 21 29
3 37 29 1
3 2 38 4
3 4 38 39
3 2 40 38
3 40 41 38
3 40 30 41
3 38 41 39
3 30 40 1
3 1 40 2
3 39 41 42
3 41 43 42
3 41 30 43
3 42 43 28
3 39 44 4
3 4 44 5
3 39 45 44
3 45 46 44
3 45 35 46
3 44 46 5
3 39 42 45
3 42 47 45
3 42 28 47
3 45 47 35
3 5 46 8
3 46 35 8
3 28 43 25
3 25 43 30
3 35 47 26
3 47 28 26
3 15 48 22
3 49 50 48
3 50 51 48
3 49 52 50
3 52 53 50
3 52 16 53
3 50 53 54
3 55 56 57
3 55 37 56
3 54 53 55
3 53 58 55
3 53 16 58
3 55 58 37
3 0 56 1
3 56 37 1
3 16 52 17
3 52 49 17
3 37 58 18
3 18 58 16
3 59 60 61
3 60 62 61
3 60 0 62
3 61 62 3
3 3 62 2
3 2 62 0
3 22 63 13
3 63 23 13
3 22 64 63
3 64 65 63
3 64 59 65
3 63 65 23
3 59 61 65
3 61 66 65
3 61 3 66
3 65 66 23
3 23 66 6
3 6 66 3
3 36 67 14
3 67 15 14
3 49 68 17
3 68 36 17
3 49 69 68
3 69 67 68
3 69 15 67
3 68 67 36
3 15 69 48
3 48 69 49
3 54 70 50
3 50 70 51
3 51 71 48
3 48 71 22
3 22 71 64
3 71 72 64
3 71 51 72
3 64 72 59
3 51 70 72
3 70 73 72
3 70 54 73
3 72 73 59
3 54 74 73
3 74 75 73
3 74 57 75
3 73 75 59
3 59 75 60
3 75 76 60
3 75 57 76
3 60 76 0
3 57 74 55
3 55 74 54
3 0 76 56
3 56 76 57

CELL_TYPES 150
5
5
5
5
5
5
5
5
5
5
5
5
5
5
5
5
5
5
5
5
5
5
5
5
5
5
5
5
5
5
5
5
5
5
5
5
5
5
5
5
5
5
5
5
5
5
5
5
5
5
5
5
5
5
5
5
5
5
5
5
5
5
5
5
5
5
5
5
5
5
5
5
5
5
5
5
5
5
5
5
5
5
5
5
5
5
5
5
5
5
5
5
5
5
5
5
5
5
5
5
5
5
5
5
5
5
5
5
5
5
5
5
5
5
5
5
5
5
5
5
5
5
5
5
5
5
5
5
5
5
5
5
5
5
5
5
5
5
5
5
5
5
5
5
5
5
5
5
5
5

CELL_DATA 150
SCALARS cell_data_0 double
LOOKUP_TABLE default
1.24058956833e-06
1.97253737664e-05
6.42986910434e-05
0.000141963641976
0.000184443343734
0.000155342576506
0.00018719227684
0.000121893950979
5.75538914412e-05
0.000140027839121
7.59492534427e-05
4.92160655411e-05
3.80227569056e-05
4.50448242011e-05
0.00053216568529
6.97177283308e-06
1.28682190468e-05
0.000122155253036
9.23054466152e-05
4.97055415974e-05
4.1222785509e-05
7.4183642856e-05
0.000175999003103
6.7466994087e-05
0.000134877784929
0.00019530842038
6.06972338782e-06
2.82129578645e-05
0.000166807777212
7.48123510076e-05
1.17963734567e-07
1.14898411782e-05
1.23643066873e-05
5.22331957642e-05
5.52255086322e-05
4.28511976951e-05
8.04291033702e-05
3.52605799955e-05
1.77101159132e-05
8.68354068841e-05
0.000127681054114
5.66392481172e-06
9.33798140498e-06
8.95511756988e-05
2.2626477852e-05
3.57207886516e-06
1.33517895988e-05
1.54124571745e-05
5.7887183145e-06
0.000121201954848
7.02467716614e-06
9.14626877369e-06
1.1338968831e-05
1.87773575547e-06
7.84870189095e-06
7.54758742066e-06
2.93098514853e-06
1.6301798456e-06
6.22828369683e-07
5.96466086521e-06
3.15060195666e-05
2.42602171008e-05
5.8979354082e-05
1.72259201024e-05
2.48445600924e-05
9.70505019746e-06
1.45490809117e-05
1.01230057149e-05
1.56169214928e-05
4.05583418177e-06
4.35752265654e-06
2.4399174693e-05
6.21964411969e-06
4.85990099987e-05
2.8304428293e-05
0.000137251272479
4.44858774905e-05
4.23540461083e-06
5.26115953191e-05
6.08226841647e-05
6.24008336746e-06
1.21578232334e-06
5.07965628086e-06
1.80060556152e-07
0.000127290005292
2.60782229745e-06
3.2343202292e-07
3.72258893688e-08
3.58414831315e-06
1.49704966332e-06
0.000135567788487
1.43880183721e-06
3.42382299301e-06
1.36343208078e-06
0.000253203238424
1.05182114991e-05
3.32876680906e-06
0.000282906300441
2.52322607997e-05
1.27717165293e-08
1.24097260167e-06
2.48559567727e-06
9.12808386129e-06
2.34898660543e-06
1.02927827568e-06
1.37997253159e-05
5.55072214463e-06
1.60043454248e-08
2.52469503118e-05
9.55354226292e-07
2.57345228056e-05
4.61453156171e-07
2.82352627437e-06
1.25560190364e-06
2.29838658811e-05
2.22869924877e-05
4.3273416865e-07
3.589669556e-05
1.30823389268e-05
2.82004725872e-06
5.72416316876e-06
1.68308803785e-07
2.16559614073e-05
1.41544235788e-06
2.11119816474e-05
5.66339355661e-06
1.49350298782e-06
5.03403106317e-07
4.81455746647e-07
2.72081516407e-06
2.31009666607e-06
8.97435535744e-08
4.23180242926e-07
1.2758406482e-05
3.47116358763e-07
1.27060953824e-08
1.44285380778e-06
1.26555844614e-05
1.455413373e-06
1.67041415547e-08
1.07298127293e-07
1.26419591853e-05
1.26533000192e-05
5.96653244351e-08
1.40806969379e-07
4.94035054734e-07
1.07617383108e-07
2.07976620167e-06
3.16578961311e-07
3.30982247251e-07

