# vtk DataFile Version 3.0
File Name: Molecule/methanol/Error_   2.00-0.vtk
ASCII
DATASET UNSTRUCTURED_GRID
FIELD FieldData 1
TIME 1 1 double
0.0
POINTS 96 double
1.611 0.0 -0.359
1.445 -0.731 -0.342
1.403 0.0 -0.933
1.252 -0.666 -0.918
0.98 -1.317 -0.296
0.828 -1.2 -0.876
0.308 -1.642 -0.229
0.216 -1.496 -0.815
-0.438 -1.642 -0.155
-0.464 -1.496 -0.747
-1.11 -1.317 -0.088
-1.076 -1.2 -0.686
-1.576 -0.731 -0.042
-1.5 -0.666 -0.644
-1.742 0.0 -0.025
-1.651 0.0 -0.629
-1.576 0.731 -0.042
-1.5 0.666 -0.644
-1.11 1.317 -0.088
-1.076 1.2 -0.686
-0.438 1.642 -0.155
-0.464 1.496 -0.747
0.308 1.642 -0.229
0.216 1.496 -0.815
0.98 1.317 -0.296
0.828 1.2 -0.876
1.445 0.731 -0.342
1.252 0.666 -0.918
1.907 0.0 0.656
1.763 0.722 0.656
1.763 0.361 1.281
1.763 -0.361 1.281
1.763 -0.722 0.656
1.763 -0.361 0.03
1.763 0.361 0.03
1.354 1.123 1.377
1.354 0.554 1.87
1.354 -0.19 1.977
1.354 -0.874 1.664
1.354 -1.281 1.032
1.354 -1.281 0.28
1.354 1.335 0.656
0.741 1.571 1.412
0.741 1.087 2.019
0.741 0.388 2.356
0.741 -0.388 2.356
0.741 -1.087 2.019
0.741 -1.571 1.412
0.741 -1.744 0.656
0.741 1.744 0.656
0.019 1.744 1.378
0.019 1.335 1.99
0.019 0.722 2.399
0.019 -0.0 2.543
0.019 -0.722 2.399
0.019 -1.335 1.99
0.019 -1.744 1.378
0.019 -1.888 0.656
0.019 1.888 0.656
-0.703 1.744 0.656
-0.703 1.571 1.412
-0.703 1.087 2.019
-0.703 0.388 2.356
-0.703 -0.388 2.356
-0.703 -1.087 2.019
-0.703 -1.571 1.412
-0.703 -1.744 0.656
-1.316 1.335 0.656
-1.316 1.123 1.377
-1.316 0.554 1.87
-1.316 -0.19 1.977
-1.316 -0.874 1.664
-1.316 -1.281 1.032
-1.725 0.722 0.656
-1.725 0.361 1.281
-1.725 -0.361 1.281
-1.725 -0.722 0.656
-1.868 0.0 0.656
1.21 -0.384 -1.402
0.648 -0.871 -1.742
0.648 -0.189 -2.053
1.21 0.384 -1.402
0.648 0.552 -1.946
0.648 1.118 -1.456
-0.12 -1.149 -1.755
-0.12 -0.544 -2.172
-0.12 0.185 -2.261
-0.12 0.872 -2.0
-0.12 1.359 -1.451
-0.887 -1.276 -1.112
-0.887 -0.871 -1.742
-0.887 -0.189 -2.053
-0.887 0.552 -1.946
-0.887 1.118 -1.456
-1.449 -0.384 -1.402
-1.449 0.384 -1.402

CELLS 188 752
3 0 1 2
3 2 1 3
3 1 4 3
3 3 4 5
3 4 6 5
3 5 6 7
3 6 8 7
3 7 8 9
3 8 10 9
3 9 10 11
3 10 12 11
3 11 12 13
3 12 14 13
3 13 14 15
3 14 16 15
3 15 16 17
3 16 18 17
3 17 18 19
3 18 20 19
3 19 20 21
3 20 22 21
3 21 22 23
3 22 24 23
3 23 24 25
3 24 26 25
3 25 26 27
3 26 0 27
3 27 0 2
3 28 29 30
3 28 30 31
3 28 31 32
3 28 32 33
3 28 33 34
3 28 34 29
3 30 29 35
3 30 35 36
3 30 36 37
3 31 30 37
3 31 37 38
3 31 38 39
3 32 31 39
3 32 39 40
3 33 32 40
3 29 41 35
3 35 41 42
3 35 42 43
3 36 35 43
3 36 43 44
3 37 36 44
3 37 44 45
3 38 37 45
3 38 45 46
3 38 46 47
3 39 38 47
3 39 47 48
3 40 39 48
3 41 49 42
3 42 49 50
3 42 50 51
3 43 42 51
3 43 51 52
3 44 43 52
3 44 52 53
3 45 44 53
3 45 53 54
3 46 45 54
3 46 54 55
3 47 46 55
3 47 55 56
3 48 47 56
3 48 56 57
3 49 58 50
3 50 58 59
3 50 59 60
3 51 50 60
3 51 60 61
3 52 51 61
3 52 61 62
3 53 52 62
3 53 62 63
3 54 53 63
3 54 63 64
3 55 54 64
3 55 64 65
3 56 55 65
3 56 65 66
3 57 56 66
3 60 59 67
3 60 67 68
3 61 60 68
3 61 68 69
3 62 61 69
3 62 69 70
3 63 62 70
3 63 70 71
3 64 63 71
3 65 64 71
3 65 71 72
3 66 65 72
3 68 67 73
3 68 73 74
3 69 68 74
3 70 69 74
3 70 74 75
3 71 70 75
3 72 71 75
3 72 75 76
3 74 73 77
3 75 74 77
3 76 75 77
3 76 77 14
3 76 14 12
3 76 12 10
3 76 10 72
3 72 10 66
3 66 10 8
3 66 8 57
3 57 8 6
3 57 6 48
3 48 6 4
3 48 4 40
3 40 4 1
3 40 1 33
3 33 1 0
3 33 0 34
3 34 0 26
3 34 26 29
3 29 26 41
3 41 26 24
3 41 24 49
3 49 24 22
3 49 22 58
3 58 22 20
3 58 20 59
3 59 20 18
3 59 18 67
3 67 18 16
3 67 16 73
3 73 16 14
3 73 14 77
3 78 79 80
3 81 78 80
3 81 80 82
3 81 82 83
3 79 84 85
3 80 79 85
3 80 85 86
3 82 80 86
3 82 86 87
3 83 82 87
3 83 87 88
3 84 89 90
3 85 84 90
3 85 90 91
3 86 85 91
3 86 91 92
3 87 86 92
3 87 92 93
3 88 87 93
3 90 89 94
3 91 90 94
3 91 94 95
3 92 91 95
3 93 92 95
3 93 95 17
3 93 17 19
3 93 19 21
3 93 21 88
3 88 21 23
3 88 23 83
3 83 23 25
3 83 25 27
3 83 27 81
3 81 27 2
3 81 2 78
3 78 2 3
3 78 3 79
3 79 3 5
3 79 5 7
3 79 7 84
3 84 7 9
3 84 9 89
3 89 9 11
3 89 11 13
3 89 13 94
3 94 13 15
3 94 15 95
3 95 15 17

CELL_TYPES 188
5
5
5
5
5
5
5
5
5
5
5
5
5
5
5
5
5
5
5
5
5
5
5
5
5
5
5
5
5
5
5
5
5
5
5
5
5
5
5
5
5
5
5
5
5
5
5
5
5
5
5
5
5
5
5
5
5
5
5
5
5
5
5
5
5
5
5
5
5
5
5
5
5
5
5
5
5
5
5
5
5
5
5
5
5
5
5
5
5
5
5
5
5
5
5
5
5
5
5
5
5
5
5
5
5
5
5
5
5
5
5
5
5
5
5
5
5
5
5
5
5
5
5
5
5
5
5
5
5
5
5
5
5
5
5
5
5
5
5
5
5
5
5
5
5
5
5
5
5
5
5
5
5
5
5
5
5
5
5
5
5
5
5
5
5
5
5
5
5
5
5
5
5
5
5
5
5
5
5
5
5
5
5
5
5
5
5
5

CELL_DATA 188
SCALARS cell_data_0 double
LOOKUP_TABLE default
0.000129188998525
0.000377366888899
4.54147116872e-05
4.21848910957e-05
8.68322551029e-06
1.66387412376e-05
9.97887321809e-06
5.39643740623e-06
2.99104650224e-06
7.24765236402e-06
1.23692968127e-05
1.18355180199e-05
1.59109103978e-05
1.00597581979e-05
4.22608084343e-05
2.52300268133e-05
4.47020783325e-05
1.99695029609e-05
4.45181593491e-05
3.74198565867e-05
3.42299410244e-05
2.89476545996e-05
1.229758082e-05
7.51105283247e-06
4.00080782377e-05
0.000111606916479
0.000133428433737
0.000129780623879
2.99130589291e-07
2.6393175292e-07
1.12119666567e-06
1.99179382754e-06
5.01815458758e-06
5.42776126202e-06
3.39759816643e-07
1.64726038944e-06
1.48462158818e-06
8.60339924736e-07
8.69079277769e-07
1.66951200792e-06
7.45483390538e-07
9.32612327026e-07
3.14758223351e-06
2.33113188261e-06
1.44321035484e-06
1.75602876457e-06
3.43462772179e-07
9.24725920944e-07
5.13431238176e-07
8.89089723568e-07
5.8801517989e-07
2.17415803005e-06
5.86604611384e-07
7.02863095754e-07
7.01985817761e-07
2.07352610091e-06
2.41308130327e-06
2.14296555486e-06
1.6249857354e-06
8.12751475796e-07
1.49240781611e-06
3.99774373993e-07
8.7201723001e-07
4.39741094641e-07
8.50206518917e-07
1.69660220184e-07
1.40369601158e-06
6.80931455543e-07
1.3689943564e-06
2.30715508641e-06
1.72559795263e-06
2.16009958671e-06
7.08495135335e-07
6.4476221969e-08
4.94108298888e-07
1.73138513665e-07
3.17602964175e-07
2.49293221619e-07
5.79694791584e-07
1.57029161306e-07
7.1527025379e-07
7.59682765856e-08
1.37243025768e-07
2.90742705279e-07
1.46066300394e-07
5.57356634747e-08
3.220546119e-07
1.00339755509e-07
5.28948355146e-07
5.97359127908e-07
5.29093328817e-07
4.51485824798e-07
7.86153091576e-07
1.0595844446e-06
5.28789518274e-07
2.6527291113e-07
9.78461194311e-07
1.18600037203e-06
6.1296992129e-07
4.91304385113e-07
1.21241968651e-07
9.81144295653e-09
4.5623458653e-07
5.95330818618e-07
1.38507441847e-07
4.05755650753e-07
1.77092559648e-06
3.97492118034e-07
2.5574150608e-07
8.35294283187e-07
1.00893841001e-05
2.91374509843e-05
2.06649045987e-07
1.60834385985e-05
2.56721842516e-06
1.45058125469e-05
4.17091516881e-06
3.87691518107e-06
9.77250146445e-07
9.88698581091e-07
8.30522298688e-06
4.12882312179e-05
3.45644752539e-06
0.0001651974547
5.36398057925e-06
5.87365170051e-05
8.13347421064e-06
8.93362277879e-06
7.07334442423e-07
7.9172228445e-06
2.72571489359e-07
1.32514989403e-06
1.22644557183e-05
3.99478700714e-06
2.5666159132e-05
3.77874292955e-06
3.48850036451e-05
3.15038877787e-06
3.44104677151e-05
7.9306762937e-06
0.0006619362033
0.000897536006722
0.0004689340346
4.47208047921e-05
2.17794628523e-06
1.96710893283e-05
4.76838272528e-06
3.97153933786e-05
2.60742419919e-06
1.54246721582e-05
1.27099087382e-05
8.2675978758e-06
3.60693281276e-05
1.00411569335e-05
3.40937302758e-05
1.31014559364e-05
3.40979663172e-05
1.00882585277e-05
4.53307829629e-05
3.87182816763e-05
2.03205690778e-05
2.38961774365e-06
3.0650183048e-05
2.4392487152e-05
6.24607869e-06
5.38257447472e-06
3.82612922349e-05
2.83127393717e-05
2.00670305739e-05
4.55963666198e-06
1.56136563888e-05
0.000248711907851
0.000298645821986
0.000112643731258
0.000596808293017
0.000185000004242
0.000399703607003
0.000144968197138
1.64692781114e-05
1.45733273943e-05
8.62890849156e-06
1.89264162238e-06
3.99245377918e-05
4.9134336315e-05
1.63189798561e-05
2.15818127917e-05
2.51232734945e-05
3.21546163785e-05

