# vtk DataFile Version 3.0
File Name: Molecule/methanol/Error_   2.00-1.vtk
ASCII
DATASET UNSTRUCTURED_GRID
FIELD FieldData 1
TIME 1 1 double
0.0
POINTS 114 double
1.445 -0.731 -0.342
0.98 -1.317 -0.296
1.252 -0.666 -0.918
0.828 -1.2 -0.876
0.308 -1.642 -0.229
0.216 -1.496 -0.815
-0.438 -1.642 -0.155
-0.464 -1.496 -0.747
-1.11 -1.317 -0.088
-1.076 -1.2 -0.686
-1.576 -0.731 -0.042
-1.5 -0.666 -0.644
-1.742 0.0 -0.025
-1.651 0.0 -0.629
-1.576 0.731 -0.042
-1.5 0.666 -0.644
-1.11 1.317 -0.088
-1.076 1.2 -0.686
-0.438 1.642 -0.155
-0.464 1.496 -0.747
0.308 1.642 -0.229
0.216 1.496 -0.815
0.98 1.317 -0.296
0.828 1.2 -0.876
1.445 0.731 -0.342
1.907 0.0 0.656
1.763 0.722 0.656
1.763 0.361 1.281
1.763 -0.361 1.281
1.763 -0.722 0.656
1.763 -0.361 0.03
1.763 0.361 0.03
1.354 1.123 1.377
1.354 0.554 1.87
1.354 -0.19 1.977
1.354 -0.874 1.664
1.354 -1.281 1.032
1.354 -1.281 0.28
1.354 1.335 0.656
0.741 1.571 1.412
0.741 1.087 2.019
0.741 0.388 2.356
0.741 -0.388 2.356
0.741 -1.087 2.019
0.741 -1.571 1.412
0.741 -1.744 0.656
0.741 1.744 0.656
0.019 1.744 1.378
0.019 1.335 1.99
0.019 0.722 2.399
0.019 -0.0 2.543
0.019 -0.722 2.399
0.019 -1.335 1.99
0.019 -1.744 1.378
0.019 -1.888 0.656
0.019 1.888 0.656
-0.703 1.744 0.656
-0.703 1.571 1.412
-0.703 1.087 2.019
-0.703 0.388 2.356
-0.703 -0.388 2.356
-0.703 -1.087 2.019
-0.703 -1.571 1.412
-0.703 -1.744 0.656
-1.316 1.335 0.656
-1.316 1.123 1.377
-1.316 0.554 1.87
-1.316 -0.19 1.977
-1.316 -0.874 1.664
-1.316 -1.281 1.032
-1.725 0.722 0.656
-1.725 0.361 1.281
-1.725 -0.361 1.281
-1.725 -0.722 0.656
-1.868 0.0 0.656
1.611 0.0 -0.359
1.21 0.384 -1.402
0.648 0.552 -1.946
0.648 1.118 -1.456
0.648 -0.871 -1.742
-0.12 -1.149 -1.755
-0.12 -0.544 -2.172
0.648 -0.189 -2.053
-0.12 0.185 -2.261
-0.12 0.872 -2.0
-0.12 1.359 -1.451
-0.887 -1.276 -1.112
-0.887 -0.871 -1.742
-0.887 -0.189 -2.053
-0.887 0.552 -1.946
-0.887 1.118 -1.456
-1.449 -0.384 -1.402
-1.449 0.384 -1.402
1.48633333333 -0.243666666667 -0.544666666667
1.403 0.0 -0.933
1.36666666667 -0.465666666667 -0.731
1.175 0.865666666667 -0.712
1.252 0.666 -0.918
1.436 0.465666666667 -0.539666666667
1.422 0.222 -0.736666666667
1.60633333333 -0.364 -0.223666666667
1.60633333333 0.364 -0.223666666667
1.21 -0.384 -1.402
0.835333333333 -0.481333333333 -1.73233333333
1.02266666667 -0.063 -1.619
0.835333333333 0.249 -1.80033333333
0.909333333333 0.994666666667 -1.08333333333
1.03666666667 0.722666666667 -1.25866666667
1.28833333333 0.35 -1.08433333333
1.27433333333 0.0 -1.24566666667
1.28833333333 -0.35 -1.08433333333
1.03666666667 -0.640333333333 -1.354
0.909333333333 -0.912333333333 -1.17866666667
-1.15433333333 -1.04733333333 -0.814

CELLS 224 896
3 0 1 2
3 2 1 3
3 1 4 3
3 3 4 5
3 4 6 5
3 5 6 7
3 6 8 7
3 7 8 9
3 8 10 9
3 9 10 11
3 10 12 11
3 11 12 13
3 12 14 13
3 13 14 15
3 14 16 15
3 15 16 17
3 16 18 17
3 17 18 19
3 18 20 19
3 19 20 21
3 20 22 21
3 21 22 23
3 22 24 23
3 25 26 27
3 25 27 28
3 25 28 29
3 25 29 30
3 25 30 31
3 25 31 26
3 27 26 32
3 27 32 33
3 27 33 34
3 28 27 34
3 28 34 35
3 28 35 36
3 29 28 36
3 29 36 37
3 30 29 37
3 26 38 32
3 32 38 39
3 32 39 40
3 33 32 40
3 33 40 41
3 34 33 41
3 34 41 42
3 35 34 42
3 35 42 43
3 35 43 44
3 36 35 44
3 36 44 45
3 37 36 45
3 38 46 39
3 39 46 47
3 39 47 48
3 40 39 48
3 40 48 49
3 41 40 49
3 41 49 50
3 42 41 50
3 42 50 51
3 43 42 51
3 43 51 52
3 44 43 52
3 44 52 53
3 45 44 53
3 45 53 54
3 46 55 47
3 47 55 56
3 47 56 57
3 48 47 57
3 48 57 58
3 49 48 58
3 49 58 59
3 50 49 59
3 50 59 60
3 51 50 60
3 51 60 61
3 52 51 61
3 52 61 62
3 53 52 62
3 53 62 63
3 54 53 63
3 57 56 64
3 57 64 65
3 58 57 65
3 58 65 66
3 59 58 66
3 59 66 67
3 60 59 67
3 60 67 68
3 61 60 68
3 62 61 68
3 62 68 69
3 63 62 69
3 65 64 70
3 65 70 71
3 66 65 71
3 67 66 71
3 67 71 72
3 68 67 72
3 69 68 72
3 69 72 73
3 71 70 74
3 72 71 74
3 73 72 74
3 73 74 12
3 73 12 10
3 73 10 8
3 73 8 69
3 69 8 63
3 63 8 6
3 63 6 54
3 54 6 4
3 54 4 45
3 45 4 1
3 45 1 37
3 37 1 0
3 37 0 30
3 30 75 31
3 31 24 26
3 26 24 38
3 38 24 22
3 38 22 46
3 46 22 20
3 46 20 55
3 55 20 18
3 55 18 56
3 56 18 16
3 56 16 64
3 64 16 14
3 64 14 70
3 70 14 12
3 70 12 74
3 76 77 78
3 79 80 81
3 82 79 81
3 82 81 83
3 77 82 83
3 77 83 84
3 78 77 84
3 78 84 85
3 80 86 87
3 81 80 87
3 81 87 88
3 83 81 88
3 83 88 89
3 84 83 89
3 84 89 90
3 85 84 90
3 87 86 91
3 88 87 91
3 88 91 92
3 89 88 92
3 90 89 92
3 90 92 15
3 90 15 17
3 90 17 19
3 90 19 85
3 85 19 21
3 85 21 78
3 78 21 23
3 79 3 5
3 79 5 80
3 80 5 7
3 80 7 86
3 86 7 9
3 86 11 91
3 91 11 13
3 91 13 92
3 92 13 15
3 75 0 93
3 0 94 93
3 75 94 93
3 94 0 95
3 0 2 95
3 94 2 95
3 23 24 96
3 24 97 96
3 23 97 96
3 24 75 98
3 75 97 98
3 24 97 98
3 97 75 99
3 75 94 99
3 97 94 99
3 30 0 100
3 0 75 100
3 30 75 100
3 31 75 101
3 75 24 101
3 31 24 101
3 102 79 103
3 79 82 103
3 102 82 103
3 76 102 104
3 102 82 104
3 76 82 104
3 76 82 105
3 82 77 105
3 76 77 105
3 78 23 106
3 23 97 106
3 78 97 106
3 78 97 107
3 97 76 107
3 78 76 107
3 76 97 108
3 97 94 108
3 76 94 108
3 76 94 109
3 94 102 109
3 76 102 109
3 102 94 110
3 94 2 110
3 102 2 110
3 102 2 111
3 2 79 111
3 102 79 111
3 79 2 112
3 2 3 112
3 79 3 112
3 86 9 113
3 9 11 113
3 86 11 113

CELL_TYPES 224
5
5
5
5
5
5
5
5
5
5
5
5
5
5
5
5
5
5
5
5
5
5
5
5
5
5
5
5
5
5
5
5
5
5
5
5
5
5
5
5
5
5
5
5
5
5
5
5
5
5
5
5
5
5
5
5
5
5
5
5
5
5
5
5
5
5
5
5
5
5
5
5
5
5
5
5
5
5
5
5
5
5
5
5
5
5
5
5
5
5
5
5
5
5
5
5
5
5
5
5
5
5
5
5
5
5
5
5
5
5
5
5
5
5
5
5
5
5
5
5
5
5
5
5
5
5
5
5
5
5
5
5
5
5
5
5
5
5
5
5
5
5
5
5
5
5
5
5
5
5
5
5
5
5
5
5
5
5
5
5
5
5
5
5
5
5
5
5
5
5
5
5
5
5
5
5
5
5
5
5
5
5
5
5
5
5
5
5
5
5
5
5
5
5
5
5
5
5
5
5
5
5
5
5
5
5
5
5
5
5
5
5
5
5
5
5
5
5
5
5
5
5
5
5

CELL_DATA 224
SCALARS cell_data_0 double
LOOKUP_TABLE default
1.07222707245e-05
4.87025342896e-05
9.84167394056e-05
0.000148618721378
8.26920299402e-05
0.000120257292587
7.17485173431e-05
7.4465975598e-05
6.30747846179e-05
1.91130017515e-05
6.15710146901e-05
4.46209802439e-05
8.81724254712e-05
4.94887206729e-05
9.81870003747e-05
6.48038018462e-05
0.000112152368937
7.45813586914e-05
0.00012655771548
0.000119087324686
0.000123550538727
0.000147264698057
3.00169689263e-05
2.4165073127e-05
2.52636373394e-05
2.27145240924e-05
2.45629179567e-05
1.6643330397e-05
8.185878035e-06
3.24009671863e-05
2.56828178607e-05
2.68071398369e-05
3.09447928761e-05
2.28293476482e-05
3.11366006438e-05
3.15931105879e-05
1.99839841212e-05
3.14099216948e-05
2.05519864451e-05
2.486423147e-05
2.34312548478e-05
2.45309249344e-05
2.04659709114e-05
2.24772386854e-05
1.99212408165e-05
2.16863489727e-05
2.3378768154e-05
2.21269206103e-05
2.50207580836e-05
2.2603660539e-05
2.36343286528e-05
2.58686078342e-05
1.90753643759e-05
1.90720775806e-05
1.93190858018e-05
1.70665638316e-05
1.83421184176e-05
1.55790841293e-05
1.75373945317e-05
1.53458968813e-05
1.72201130179e-05
1.6415056222e-05
1.84490078875e-05
1.81701982425e-05
1.81162377358e-05
1.85789456051e-05
1.99533638565e-05
1.5062684582e-05
1.47166483864e-05
1.54464475307e-05
1.53792530335e-05
1.41456201997e-05
1.49582304772e-05
1.30263918325e-05
1.45505924202e-05
1.28164519681e-05
1.44069941707e-05
1.36516010204e-05
1.48242445607e-05
1.44707992825e-05
1.35720026247e-05
1.38282255425e-05
1.0744067547e-05
1.15838819404e-05
1.29646632827e-05
1.31748456534e-05
1.18348894344e-05
1.32706492572e-05
1.10880368186e-05
1.27547743929e-05
1.27205046163e-05
1.11665027312e-05
1.2295271363e-05
1.14466038881e-05
6.99990001915e-06
9.22614574462e-06
9.5308051102e-06
9.99503333645e-06
1.10354733864e-05
9.10825496e-06
1.00446986866e-05
6.72115326757e-06
5.20339103516e-06
5.55694269916e-06
6.03321268885e-06
5.38593660186e-06
1.31890746853e-05
1.81670474271e-05
1.41256456527e-05
3.70550459234e-06
9.89927944455e-06
8.13649077735e-06
2.41313711832e-05
1.30026162048e-05
2.30828019377e-05
4.24471734917e-06
7.52562388122e-06
1.04131894607e-05
0.000114036946623
0.000129903774771
2.31731181313e-05
1.36690329342e-05
1.46877234107e-05
2.57867125631e-05
1.37457486755e-05
1.78951059873e-05
8.08933050287e-06
1.35226355353e-06
3.74377894903e-06
1.17843478721e-05
1.54491335968e-06
1.44524453082e-05
3.86979785441e-06
0.00430447305825
0.000232132403173
1.37238415742e-06
0.000233468765691
0.000103839818647
0.000234426339349
0.000208009854719
0.000289350981541
0.000177316797241
0.000198493629624
0.000251285847713
0.000208678447624
0.000257349746813
0.000210010454184
0.000249851907015
0.000188800340717
0.000119295511478
0.000130497832989
0.000187005841477
0.000149159348615
0.000130199051029
0.000210897537259
0.000155353542733
0.000209511038875
0.00019632818423
0.000220493901636
0.00025299104344
0.00018829002734
0.000255982748375
0.000396445773005
0.000325323706528
0.000214262930883
6.65831345644e-06
6.22184938966e-05
0.000115662426611
0.000107327407041
0.000146176343825
6.89134720671e-05
0.000365765905108
0.00127077351372
0.000359021398467
7.00715194155e-05
0.00111514085429
1.16330074786e-05
0.000611711445922
0.000135937656598
7.52458829279e-05
0.000290251224559
0.000425826617356
0.000362648353866
0.00164289547571
0.00150422940111
5.24178468806e-06
3.09250002901e-05
9.54357594091e-05
3.94508077486e-05
4.92776725484e-05
7.00647271192e-05
0.0026700137164
0.000357361690706
0.00434928826618
0.0138253019433
0.0066277303455
0.00920904878832
0.00472085753672
0.000554233001614
0.00339478140949
2.69847340176e-05
0.000103591541793
0.000268120466077
0.000561515491299
0.00130079590885
0.00160048535013
0.00119663337748
0.00107793131341
0.00595605538386
0.00730427143607
0.0030581711613
0.0117852872433
0.00187381358948
0.00100778575934
0.00350039525811
0.00378974415184
0.000664931375099
0.00279749864754
0.000452432232078
0.000184433789079
6.14231361508e-06
2.54006095495e-05
2.37812026335e-05
0.000624111031173

