# vtk DataFile Version 3.0
File Name: Molecule/methanol/Error_   2.00-3.vtk
ASCII
DATASET UNSTRUCTURED_GRID
FIELD FieldData 1
TIME 1 1 double
0.0
POINTS 162 double
1.445 -0.731 -0.342
0.98 -1.317 -0.296
1.252 -0.666 -0.918
0.828 -1.2 -0.876
0.308 -1.642 -0.229
0.216 -1.496 -0.815
-0.438 -1.642 -0.155
-0.464 -1.496 -0.747
-1.11 -1.317 -0.088
-1.076 -1.2 -0.686
-1.576 -0.731 -0.042
-1.5 -0.666 -0.644
-1.742 0.0 -0.025
-1.651 0.0 -0.629
-1.576 0.731 -0.042
-1.5 0.666 -0.644
-1.11 1.317 -0.088
-1.076 1.2 -0.686
-0.438 1.642 -0.155
-0.464 1.496 -0.747
0.308 1.642 -0.229
0.216 1.496 -0.815
0.98 1.317 -0.296
0.828 1.2 -0.876
1.445 0.731 -0.342
1.907 0.0 0.656
1.763 0.722 0.656
1.763 0.361 1.281
1.763 -0.361 1.281
1.763 -0.722 0.656
1.763 -0.361 0.03
1.763 0.361 0.03
1.354 1.123 1.377
1.354 0.554 1.87
1.354 -0.19 1.977
1.354 -0.874 1.664
1.354 -1.281 1.032
1.354 -1.281 0.28
1.354 1.335 0.656
0.741 1.571 1.412
0.741 1.087 2.019
0.741 0.388 2.356
0.741 -0.388 2.356
0.741 -1.087 2.019
0.741 -1.571 1.412
0.741 -1.744 0.656
0.741 1.744 0.656
0.019 1.744 1.378
0.019 1.335 1.99
0.019 0.722 2.399
0.019 -0.0 2.543
0.019 -0.722 2.399
0.019 -1.335 1.99
0.019 -1.744 1.378
0.019 -1.888 0.656
0.019 1.888 0.656
-0.703 1.744 0.656
-0.703 1.571 1.412
-0.703 1.087 2.019
-0.703 0.388 2.356
-0.703 -0.388 2.356
-0.703 -1.087 2.019
-0.703 -1.571 1.412
-0.703 -1.744 0.656
-1.316 1.335 0.656
-1.316 1.123 1.377
-1.316 0.554 1.87
-1.316 -0.19 1.977
-1.316 -0.874 1.664
-1.316 -1.281 1.032
-1.725 0.722 0.656
-1.725 0.361 1.281
-1.725 -0.361 1.281
-1.725 -0.722 0.656
-1.868 0.0 0.656
1.611 0.0 -0.359
0.648 -0.871 -1.742
-0.12 -1.149 -1.755
-0.12 -0.544 -2.172
0.648 -0.189 -2.053
-0.12 0.185 -2.261
0.648 0.552 -1.946
-0.12 0.872 -2.0
0.648 1.118 -1.456
-0.12 1.359 -1.451
-0.887 -1.276 -1.112
-0.887 -0.871 -1.742
-0.887 -0.189 -2.053
-0.887 0.552 -1.946
-0.887 1.118 -1.456
-1.449 -0.384 -1.402
-1.449 0.384 -1.402
1.48633333333 -0.243666666667 -0.544666666667
1.403 0.0 -0.933
1.36666666667 -0.465666666667 -0.731
1.175 0.865666666667 -0.712
1.252 0.666 -0.918
1.436 0.465666666667 -0.539666666667
1.422 0.222 -0.736666666667
1.60633333333 -0.364 -0.223666666667
1.60633333333 0.364 -0.223666666667
0.835333333333 -0.481333333333 -1.73233333333
0.835333333333 0.249 -1.80033333333
0.909333333333 0.994666666667 -1.08333333333
1.03666666667 0.722666666667 -1.25866666667
1.28833333333 0.35 -1.08433333333
1.28833333333 -0.35 -1.08433333333
1.03666666667 -0.640333333333 -1.354
0.909333333333 -0.912333333333 -1.17866666667
-1.15433333333 -1.04733333333 -0.814
0.835333333333 0.684666666667 -1.60133333333
1.21 0.384 -1.402
1.50011111111 -0.0812222222223 -0.612222222222
1.47866666667 0.074 -0.676222222222
1.359 0.296 -0.862555555556
0.897777777778 -0.578777777778 -1.62544444444
1.21 -0.384 -1.402
0.897777777778 -0.351444444444 -1.72911111111
1.02266666667 -0.063 -1.619
0.960222222223 -0.212 -1.69133333333
0.960222222223 0.044 -1.69133333333
0.897777777778 0.148 -1.75177777778
0.897777777778 0.395 -1.71611111111
1.16622222222 0.590888888889 -1.19288888889
0.96488888889 0.741555555556 -1.37222222222
1.25011111111 0.466666666667 -1.13477777778
1.30044444444 0.244666666667 -1.13977777778
1.29577777778 -0.128 -1.19355555556
1.30044444444 -0.244666666667 -1.13977777778
1.25011111111 -0.466666666667 -1.13477777778
1.16622222222 -0.563444444444 -1.22466666667
0.96488888889 -0.631777777778 -1.49933333333
0.897777777778 0.540222222222 -1.64977777778
0.918592592593 -0.611259259259 -1.58981481481
0.918592592593 -0.308148148148 -1.72803703704
1.18918518519 -0.007 -1.42611111111
1.14755555556 -0.021 -1.47433333333
1.12674074074 -0.156 -1.49844444444
1.12674074074 0.1 -1.49844444444
0.939407407408 -0.261666666667 -1.71544444444
1.0642962963 -0.219666666667 -1.57077777778
0.939407407408 0.0796666666667 -1.71544444444
1.0642962963 0.121666666667 -1.57077777778
0.918592592593 0.114333333333 -1.73559259259
0.981037037037 0.260333333333 -1.65137037037
0.918592592593 0.443666666667 -1.68803703704
1.30448148148 0.209555555556 -1.15825925926
1.30292592593 0.170666666667 -1.17618518519
1.29577777778 0.128 -1.19355555556
1.27433333333 0.0 -1.24566666667
1.32437037037 0.0426666666667 -1.12407407408
1.26003703704 0.170666666667 -1.28040740741
1.26003703704 -0.170666666667 -1.28040740741
1.32437037037 -0.0426666666667 -1.12407407408
1.21714814815 0.0 -1.38462962963
1.23144444444 0.0 -1.34988888889
1.23859259259 -0.128 -1.33251851852
1.23859259259 0.128 -1.33251851852
1.26625925926 -0.326222222222 -1.2087037037
1.23737037037 -0.505555555556 -1.15159259259
1.20940740741 -0.537814814815 -1.18155555556
0.940962962963 -0.628925925926 -1.54777777778

CELLS 320 1280
3 0 1 2
3 2 1 3
3 1 4 3
3 3 4 5
3 4 6 5
3 5 6 7
3 6 8 7
3 7 8 9
3 8 10 9
3 9 10 11
3 10 12 11
3 11 12 13
3 12 14 13
3 13 14 15
3 14 16 15
3 15 16 17
3 16 18 17
3 17 18 19
3 18 20 19
3 19 20 21
3 20 22 21
3 21 22 23
3 22 24 23
3 25 26 27
3 25 27 28
3 25 28 29
3 25 29 30
3 25 30 31
3 25 31 26
3 27 26 32
3 27 32 33
3 27 33 34
3 28 27 34
3 28 34 35
3 28 35 36
3 29 28 36
3 29 36 37
3 30 29 37
3 26 38 32
3 32 38 39
3 32 39 40
3 33 32 40
3 33 40 41
3 34 33 41
3 34 41 42
3 35 34 42
3 35 42 43
3 35 43 44
3 36 35 44
3 36 44 45
3 37 36 45
3 38 46 39
3 39 46 47
3 39 47 48
3 40 39 48
3 40 48 49
3 41 40 49
3 41 49 50
3 42 41 50
3 42 50 51
3 43 42 51
3 43 51 52
3 44 43 52
3 44 52 53
3 45 44 53
3 45 53 54
3 46 55 47
3 47 55 56
3 47 56 57
3 48 47 57
3 48 57 58
3 49 48 58
3 49 58 59
3 50 49 59
3 50 59 60
3 51 50 60
3 51 60 61
3 52 51 61
3 52 61 62
3 53 52 62
3 53 62 63
3 54 53 63
3 57 56 64
3 57 64 65
3 58 57 65
3 58 65 66
3 59 58 66
3 59 66 67
3 60 59 67
3 60 67 68
3 61 60 68
3 62 61 68
3 62 68 69
3 63 62 69
3 65 64 70
3 65 70 71
3 66 65 71
3 67 66 71
3 67 71 72
3 68 67 72
3 69 68 72
3 69 72 73
3 71 70 74
3 72 71 74
3 73 72 74
3 73 74 12
3 73 12 10
3 73 10 8
3 73 8 69
3 69 8 63
3 63 8 6
3 63 6 54
3 54 6 4
3 54 4 45
3 45 4 1
3 45 1 37
3 37 1 0
3 37 0 30
3 30 75 31
3 31 24 26
3 26 24 38
3 38 24 22
3 38 22 46
3 46 22 20
3 46 20 55
3 55 20 18
3 55 18 56
3 56 18 16
3 56 16 64
3 64 16 14
3 64 14 70
3 70 14 12
3 70 12 74
3 76 77 78
3 79 76 78
3 79 78 80
3 81 79 80
3 81 80 82
3 83 81 82
3 83 82 84
3 77 85 86
3 78 77 86
3 78 86 87
3 80 78 87
3 80 87 88
3 82 80 88
3 82 88 89
3 84 82 89
3 86 85 90
3 87 86 90
3 87 90 91
3 88 87 91
3 89 88 91
3 89 91 15
3 89 15 17
3 89 17 19
3 89 19 84
3 84 19 21
3 84 21 83
3 83 21 23
3 76 3 5
3 76 5 77
3 77 5 7
3 77 7 85
3 85 7 9
3 85 11 90
3 90 11 13
3 90 13 91
3 91 13 15
3 75 0 92
3 0 93 92
3 93 0 94
3 0 2 94
3 93 2 94
3 23 24 95
3 24 96 95
3 23 96 95
3 24 75 97
3 75 96 97
3 24 96 97
3 96 75 98
3 30 0 99
3 0 75 99
3 30 75 99
3 31 75 100
3 75 24 100
3 31 24 100
3 76 79 101
3 79 81 102
3 83 23 103
3 23 96 103
3 83 96 103
3 83 96 104
3 96 93 105
3 93 2 106
3 2 76 107
3 76 2 108
3 2 3 108
3 76 3 108
3 85 9 109
3 9 11 109
3 85 11 109
3 81 83 110
3 111 83 110
3 75 93 112
3 93 92 112
3 75 92 112
3 75 93 113
3 93 98 113
3 75 98 113
3 96 93 114
3 93 98 114
3 96 98 114
3 76 101 115
3 116 101 115
3 79 101 117
3 116 101 117
3 79 118 119
3 79 118 120
3 79 102 121
3 81 102 122
3 111 102 122
3 96 111 123
3 111 104 123
3 96 104 123
3 83 111 124
3 111 104 124
3 83 104 124
3 111 96 125
3 96 105 125
3 111 105 125
3 93 105 126
3 111 105 126
3 93 116 127
3 116 93 128
3 93 106 128
3 2 106 129
3 116 106 129
3 2 107 130
3 116 107 130
3 76 107 131
3 116 107 131
3 111 81 132
3 81 110 132
3 111 110 132
3 116 76 133
3 76 115 133
3 116 115 133
3 116 79 134
3 79 117 134
3 116 117 134
3 111 116 135
3 116 136 135
3 111 136 135
3 116 118 137
3 118 136 137
3 116 136 137
3 111 118 138
3 118 136 138
3 111 136 138
3 116 79 139
3 79 119 139
3 116 119 139
3 116 118 140
3 118 119 140
3 116 119 140
3 111 79 141
3 79 120 141
3 111 120 141
3 111 118 142
3 118 120 142
3 111 120 142
3 111 79 143
3 79 121 143
3 111 121 143
3 111 102 144
3 102 121 144
3 111 121 144
3 111 81 145
3 81 122 145
3 111 122 145
3 111 93 146
3 93 126 146
3 111 126 146
3 111 93 147
3 93 148 147
3 111 148 147
3 93 149 150
3 149 148 150
3 93 148 150
3 111 149 151
3 149 148 151
3 111 148 151
3 116 149 152
3 149 127 152
3 116 127 152
3 93 149 153
3 149 127 153
3 93 127 153
3 111 116 154
3 116 155 154
3 111 155 154
3 116 149 156
3 149 155 156
3 116 155 156
3 111 149 157
3 149 155 157
3 111 155 157
3 116 106 158
3 106 128 158
3 116 128 158
3 116 2 159
3 2 129 159
3 116 129 159
3 116 2 160
3 2 130 160
3 116 130 160
3 116 76 161
3 76 131 161
3 116 131 161

CELL_TYPES 320
5
5
5
5
5
5
5
5
5
5
5
5
5
5
5
5
5
5
5
5
5
5
5
5
5
5
5
5
5
5
5
5
5
5
5
5
5
5
5
5
5
5
5
5
5
5
5
5
5
5
5
5
5
5
5
5
5
5
5
5
5
5
5
5
5
5
5
5
5
5
5
5
5
5
5
5
5
5
5
5
5
5
5
5
5
5
5
5
5
5
5
5
5
5
5
5
5
5
5
5
5
5
5
5
5
5
5
5
5
5
5
5
5
5
5
5
5
5
5
5
5
5
5
5
5
5
5
5
5
5
5
5
5
5
5
5
5
5
5
5
5
5
5
5
5
5
5
5
5
5
5
5
5
5
5
5
5
5
5
5
5
5
5
5
5
5
5
5
5
5
5
5
5
5
5
5
5
5
5
5
5
5
5
5
5
5
5
5
5
5
5
5
5
5
5
5
5
5
5
5
5
5
5
5
5
5
5
5
5
5
5
5
5
5
5
5
5
5
5
5
5
5
5
5
5
5
5
5
5
5
5
5
5
5
5
5
5
5
5
5
5
5
5
5
5
5
5
5
5
5
5
5
5
5
5
5
5
5
5
5
5
5
5
5
5
5
5
5
5
5
5
5
5
5
5
5
5
5
5
5
5
5
5
5
5
5
5
5
5
5
5
5
5
5
5
5
5
5
5
5
5
5
5
5
5
5
5
5
5
5
5
5
5
5
5
5
5
5
5
5

CELL_DATA 320
SCALARS cell_data_0 double
LOOKUP_TABLE default
1.75906694899e-05
4.58748108678e-05
0.000122352170021
0.000180235134164
0.000103738169513
0.00014690954738
8.9187118465e-05
9.93924682421e-05
7.8630061915e-05
3.63779955571e-05
7.53379612622e-05
6.27607784841e-05
0.000103267182124
6.98408672508e-05
0.000114650148616
8.8284253168e-05
0.000132667896691
0.000105790514931
0.000153724930327
0.000162001170833
0.000156756229659
0.000195334973671
5.27726156013e-05
2.95222515345e-05
3.04590143327e-05
2.79450682461e-05
2.94011387383e-05
2.07699730355e-05
3.14612179611e-06
3.9666263969e-05
3.1059830909e-05
3.23629810491e-05
3.73194304162e-05
2.73314292422e-05
3.73075718965e-05
3.80467438281e-05
2.46224355241e-05
3.75685287891e-05
2.61953931921e-05
3.09904429606e-05
2.84927370393e-05
2.99549569468e-05
2.47853754439e-05
2.72795825593e-05
2.40290941175e-05
2.65609309977e-05
2.81249039489e-05
2.68065613753e-05
3.01071062094e-05
2.71647226721e-05
2.89197994501e-05
3.1569596493e-05
2.43259711954e-05
2.33220947356e-05
2.40752591817e-05
2.08006310363e-05
2.25183507012e-05
1.89674499355e-05
2.16097538154e-05
1.89357610182e-05
2.13968585415e-05
2.00598450262e-05
2.27714538614e-05
2.19305717643e-05
2.2502289793e-05
2.23835002176e-05
2.44594374122e-05
1.87555364938e-05
1.84686087367e-05
1.91772192098e-05
1.91346265769e-05
1.75180347778e-05
1.83939870135e-05
1.59832622351e-05
1.78743683967e-05
1.59850976357e-05
1.77996311526e-05
1.68533372407e-05
1.83333954426e-05
1.787212438e-05
1.66980730407e-05
1.69365674999e-05
1.35616939664e-05
1.44611437121e-05
1.60762604427e-05
1.63220085299e-05
1.46459966324e-05
1.61919994137e-05
1.43630951192e-05
1.56515071362e-05
1.56671587017e-05
1.39614712797e-05
1.51021232461e-05
1.4178497251e-05
9.011048606e-06
1.17308251247e-05
1.19963852816e-05
1.26304823337e-05
1.38122933629e-05
1.14261085624e-05
1.26441455803e-05
9.22632265986e-06
6.14246546903e-06
7.22908857388e-06
7.17592008194e-06
4.28325326668e-06
9.0303123317e-06
2.28272595638e-05
1.40468930908e-05
4.20844446769e-06
1.5955801735e-05
9.02737365038e-06
3.05920266375e-05
1.55380464709e-05
2.81398869698e-05
6.7920778533e-06
3.06503407178e-06
1.2881982951e-05
0.000110804962435
0.000132607616997
3.41792616768e-05
1.13285852771e-05
2.10904284667e-05
3.26395328612e-05
1.71704216667e-05
2.56750278497e-05
9.31882985359e-06
8.1998001415e-06
3.82539408777e-06
5.97718036342e-06
1.27306187487e-06
9.86157551521e-06
2.31111118113e-06
0.000278257167912
1.25491804636e-05
0.000271451459961
0.000136977308657
0.000298974141091
0.000165292110739
0.000391068928697
0.000225179970068
0.000251688600913
0.000307216667085
0.000271187836912
0.000318830320797
0.000276412552281
0.000316018105146
0.000254084952985
0.000162869941127
0.000169622332694
0.000237489463188
0.000197839167134
0.000173440382764
0.000272413504259
0.000202301474953
0.000260646133643
0.000264587824282
0.000281854742961
0.000345185976676
0.000250049280198
0.000307283995258
0.000478571592164
0.000405324273815
0.000270393855448
3.44629354973e-05
0.000109801050989
0.000148690031522
0.000145351296439
0.000180448082878
4.48841033336e-05
0.00037393416884
0.000441948732898
6.9724669801e-05
0.000968959129047
1.1875890862e-05
0.000604180672222
0.000132499865028
6.29007201279e-05
0.000285123740264
0.00041604775436
0.000437401666068
7.27949029133e-06
4.77786844037e-05
8.54609551412e-05
5.74631045198e-05
3.44473634138e-05
6.6418430497e-05
0.000384732583928
0.000630357562082
3.18808521729e-05
0.000120831310471
0.000232141690686
0.000678493556943
0.00130048454062
0.00111619641162
0.000828841563279
0.000554915085372
0.000221507531283
5.66801898643e-06
3.69295549991e-06
2.18547314764e-05
0.000646590760663
0.000183083506584
0.000948959702188
0.00106385160993
0.000314011710584
8.88049714113e-05
0.00143585936442
0.000414457846685
0.000147275196013
0.000262301050801
0.000662934749917
0.000414733140604
0.000180276811981
0.00137398829704
0.000378080422661
0.00154043537548
0.0011619229227
0.00108578471166
0.000465382153995
0.000433722247466
0.00156630865203
0.000461247894692
0.00120021959578
0.000636966582577
7.3592669542e-06
0.000789108763887
0.000161776388681
0.000124803978429
0.00063944548767
0.00110225706024
0.00122411431357
0.00147035967227
0.000766928243751
0.000764637791398
0.00105280924659
0.0006878379478
0.00118667732554
0.000676817482861
0.00133407157099
0.000145217693972
0.00119380675004
0.0027564100007
0.000400905918168
0.00122800457583
0.00613556458363
6.63371158095e-05
0.000684583914599
0.00768267382376
0.000309010951319
0.00077615489744
0.0135120142217
0.00153147309477
0.00224711802782
0.00124913254345
0.00158417417995
0.00157712371789
0.00152031107666
0.00183730277235
0.00139188998787
0.0081065673794
0.000423787115313
0.00130938955907
0.00122448433044
0.00107828820437
0.000648796764079
0.0109962048176
0.000500391682835
0.00118688789188
0.00140501833948
0.00133339190432
0.000883110124325
0.0103208398775
0.000449383210638
0.000826751349641
0.000617174004521
0.000578929400651
0.000471901286031
0.00178037148177
0.000193550871728
0.000378437270471
0.00757860542625
0.000674334309069
0.000809298188666
0.00775474320973
0.000720917095388
0.000993317318926
0.000637889788223
0.000758708124175
0.000603094130909
0.000844473239437
0.000920326074868
0.000438668863812
0.000701987637986
0.000827574972409
0.000721052844332
0.00072605289608
0.0008867988899
0.00049439807296
0.0126233146433
0.00127171716626
0.000989115063547
0.000935722745711
0.000974920138031
0.000894424416612
0.000795682880357
0.00106466005665
0.0005670776628
0.000417551231026
0.000504536138401
0.00057569876405
0.00388631246789
0.000275751313702
0.000536821237505
0.00436416822386
0.000359324962804
0.000987177826472
0.00628568541097
0.000133778473443
0.000818459148323

