# vtk DataFile Version 3.0
File Name: Molecule/methanol/Error_   5.00-0.vtk
ASCII
DATASET UNSTRUCTURED_GRID
FIELD FieldData 1
TIME 1 1 double
0.0
POINTS 240 double
1.611 0.0 -0.359
1.543 -0.475 -0.352
1.403 0.0 -0.933
1.341 -0.432 -0.927
1.345 -0.911 -0.332
1.16 -0.83 -0.909
1.032 -1.273 -0.301
0.876 -1.16 -0.88
0.631 -1.532 -0.261
0.51 -1.396 -0.844
0.173 -1.667 -0.216
0.093 -1.519 -0.802
-0.304 -1.667 -0.168
-0.341 -1.519 -0.759
-0.762 -1.532 -0.123
-0.758 -1.396 -0.718
-1.163 -1.273 -0.083
-1.124 -1.16 -0.681
-1.475 -0.911 -0.051
-1.408 -0.83 -0.653
-1.674 -0.475 -0.032
-1.589 -0.432 -0.635
-1.742 -0.0 -0.025
-1.651 -0.0 -0.629
-1.674 0.475 -0.032
-1.589 0.432 -0.635
-1.475 0.911 -0.051
-1.408 0.83 -0.653
-1.163 1.273 -0.083
-1.124 1.16 -0.681
-0.762 1.532 -0.123
-0.758 1.396 -0.718
-0.304 1.667 -0.168
-0.341 1.519 -0.759
0.173 1.667 -0.216
0.093 1.519 -0.802
0.631 1.532 -0.261
0.51 1.396 -0.844
1.032 1.273 -0.301
0.876 1.16 -0.88
1.345 0.911 -0.332
1.16 0.83 -0.909
1.543 0.475 -0.352
1.341 0.432 -0.927
1.907 0.0 0.656
1.852 0.452 0.656
1.852 0.226 1.047
1.852 -0.226 1.047
1.852 -0.452 0.656
1.852 -0.226 0.264
1.852 0.226 0.264
1.69 0.76 1.094
1.69 0.439 1.415
1.69 -0.0 1.533
1.69 -0.439 1.415
1.69 -0.76 1.094
1.69 -0.877 0.656
1.69 -0.76 0.217
1.69 -0.439 -0.104
1.69 0.439 -0.104
1.69 0.76 0.217
1.69 0.877 0.656
1.432 1.167 1.108
1.432 0.925 1.499
1.432 0.558 1.776
1.432 0.115 1.902
1.432 -0.343 1.859
1.432 -0.754 1.654
1.432 -1.064 1.315
1.432 -1.23 0.886
1.432 -1.23 0.426
1.432 -1.064 -0.003
1.432 1.167 0.203
1.432 1.252 0.656
1.091 1.484 1.113
1.091 1.283 1.531
1.091 0.969 1.87
1.091 0.568 2.102
1.091 0.116 2.205
1.091 -0.346 2.17
1.091 -0.777 2.001
1.091 -1.139 1.712
1.091 -1.4 1.33
1.091 -1.536 0.887
1.091 -1.536 0.424
1.091 -1.4 -0.018
1.091 1.484 0.198
1.091 1.553 0.656
0.688 1.705 1.112
0.688 1.528 1.538
0.688 1.248 1.904
0.688 0.882 2.184
0.688 0.457 2.36
0.688 0.0 2.42
0.688 -0.457 2.36
0.688 -0.882 2.184
0.688 -1.248 1.904
0.688 -1.528 1.538
0.688 -1.705 1.112
0.688 -1.765 0.656
0.688 -1.705 0.199
0.688 1.705 0.199
0.688 1.765 0.656
0.247 1.815 1.122
0.247 1.642 1.558
0.247 1.366 1.938
0.247 1.004 2.238
0.247 0.579 2.438
0.247 0.118 2.526
0.247 -0.351 2.496
0.247 -0.798 2.351
0.247 -1.194 2.099
0.247 -1.516 1.757
0.247 -1.742 1.345
0.247 -1.859 0.89
0.247 -1.859 0.421
0.247 1.815 0.19
0.247 1.874 0.656
-0.209 1.815 1.122
-0.209 1.642 1.558
-0.209 1.366 1.938
-0.209 1.004 2.238
-0.209 0.579 2.438
-0.209 0.118 2.526
-0.209 -0.351 2.496
-0.209 -0.798 2.351
-0.209 -1.194 2.099
-0.209 -1.516 1.757
-0.209 -1.742 1.345
-0.209 -1.859 0.89
-0.209 -1.859 0.421
-0.209 1.815 0.19
-0.209 1.874 0.656
-0.65 1.765 0.656
-0.65 1.705 1.112
-0.65 1.528 1.538
-0.65 1.248 1.904
-0.65 0.882 2.184
-0.65 0.457 2.36
-0.65 0.0 2.42
-0.65 -0.457 2.36
-0.65 -0.882 2.184
-0.65 -1.248 1.904
-0.65 -1.528 1.538
-0.65 -1.705 1.112
-0.65 -1.765 0.656
-0.65 -1.705 0.199
-0.65 1.705 0.199
-1.053 1.553 0.656
-1.053 1.484 1.113
-1.053 1.283 1.531
-1.053 0.969 1.87
-1.053 0.568 2.102
-1.053 0.116 2.205
-1.053 -0.346 2.17
-1.053 -0.777 2.001
-1.053 -1.139 1.712
-1.053 -1.4 1.33
-1.053 -1.536 0.887
-1.053 -1.536 0.424
-1.053 1.484 0.198
-1.394 1.252 0.656
-1.394 1.167 1.108
-1.394 0.925 1.499
-1.394 0.558 1.776
-1.394 0.115 1.902
-1.394 -0.343 1.859
-1.394 -0.754 1.654
-1.394 -1.064 1.315
-1.394 -1.23 0.886
-1.394 -1.23 0.426
-1.394 1.167 0.203
-1.652 0.877 0.656
-1.652 0.76 1.094
-1.652 0.439 1.415
-1.652 -0.0 1.533
-1.652 -0.439 1.415
-1.652 -0.76 1.094
-1.652 -0.877 0.656
-1.652 -0.76 0.217
-1.652 0.76 0.217
-1.814 0.452 0.656
-1.814 0.226 1.047
-1.814 -0.226 1.047
-1.814 -0.452 0.656
-1.814 -0.226 0.264
-1.814 0.226 0.264
-1.868 -0.0 0.656
1.122 -0.781 -1.188
0.783 -1.147 -1.212
0.783 -0.878 -1.615
1.122 -0.451 -1.519
0.783 -0.475 -1.885
1.122 -0.0 -1.639
0.783 0.0 -1.979
0.783 0.475 -1.885
1.122 0.451 -1.519
0.783 0.878 -1.615
1.122 0.781 -1.188
0.783 1.147 -1.212
0.355 -1.284 -1.432
0.355 -0.989 -1.811
0.355 -0.586 -2.074
0.355 -0.121 -2.192
0.355 0.358 -2.152
0.355 0.798 -1.959
0.355 1.152 -1.634
0.355 1.381 -1.211
-0.12 -1.383 -1.403
-0.12 -1.125 -1.781
-0.12 -0.767 -2.067
-0.12 -0.342 -2.234
-0.12 0.115 -2.268
-0.12 0.561 -2.166
-0.12 0.957 -1.937
-0.12 1.268 -1.602
-0.12 1.467 -1.19
-0.594 -1.44 -0.977
-0.594 -1.284 -1.432
-0.594 -0.989 -1.811
-0.594 -0.586 -2.074
-0.594 -0.121 -2.192
-0.594 0.358 -2.152
-0.594 0.798 -1.959
-0.594 1.152 -1.634
-0.594 1.381 -1.211
-1.022 -1.147 -1.212
-1.022 -0.878 -1.615
-1.022 -0.475 -1.885
-1.022 0.0 -1.979
-1.022 0.475 -1.885
-1.022 0.878 -1.615
-1.022 1.147 -1.212
-1.362 -0.781 -1.188
-1.362 -0.451 -1.519
-1.362 -0.0 -1.639
-1.362 0.451 -1.519
-1.362 0.781 -1.188
-1.58 -0.237 -1.148
-1.58 0.237 -1.148

CELLS 476 1904
3 0 1 2
3 2 1 3
3 1 4 3
3 3 4 5
3 4 6 5
3 5 6 7
3 6 8 7
3 7 8 9
3 8 10 9
3 9 10 11
3 10 12 11
3 11 12 13
3 12 14 13
3 13 14 15
3 14 16 15
3 15 16 17
3 16 18 17
3 17 18 19
3 18 20 19
3 19 20 21
3 20 22 21
3 21 22 23
3 22 24 23
3 23 24 25
3 24 26 25
3 25 26 27
3 26 28 27
3 27 28 29
3 28 30 29
3 29 30 31
3 30 32 31
3 31 32 33
3 32 34 33
3 33 34 35
3 34 36 35
3 35 36 37
3 36 38 37
3 37 38 39
3 38 40 39
3 39 40 41
3 40 42 41
3 41 42 43
3 42 0 43
3 43 0 2
3 44 45 46
3 44 46 47
3 44 47 48
3 44 48 49
3 44 49 50
3 44 50 45
3 46 45 51
3 46 51 52
3 46 52 53
3 47 46 53
3 47 53 54
3 47 54 55
3 48 47 55
3 48 55 56
3 48 56 57
3 49 48 57
3 49 57 58
3 50 59 60
3 45 50 60
3 45 60 61
3 45 61 51
3 51 61 62
3 51 62 63
3 52 51 63
3 52 63 64
3 52 64 65
3 53 52 65
3 53 65 66
3 54 53 66
3 54 66 67
3 55 54 67
3 55 67 68
3 55 68 69
3 56 55 69
3 56 69 70
3 57 56 70
3 57 70 71
3 61 60 72
3 61 72 73
3 61 73 62
3 62 73 74
3 62 74 75
3 63 62 75
3 63 75 76
3 64 63 76
3 64 76 77
3 65 64 77
3 65 77 78
3 65 78 79
3 66 65 79
3 66 79 80
3 67 66 80
3 67 80 81
3 68 67 81
3 68 81 82
3 69 68 82
3 69 82 83
3 69 83 84
3 70 69 84
3 70 84 85
3 71 70 85
3 73 72 86
3 73 86 87
3 73 87 74
3 74 87 88
3 74 88 89
3 75 74 89
3 75 89 90
3 76 75 90
3 76 90 91
3 77 76 91
3 77 91 92
3 78 77 92
3 78 92 93
3 79 78 93
3 79 93 94
3 80 79 94
3 80 94 95
3 80 95 96
3 81 80 96
3 81 96 97
3 82 81 97
3 82 97 98
3 83 82 98
3 83 98 99
3 84 83 99
3 84 99 100
3 85 84 100
3 87 86 101
3 87 101 102
3 87 102 88
3 88 102 103
3 88 103 104
3 89 88 104
3 89 104 105
3 90 89 105
3 90 105 106
3 91 90 106
3 91 106 107
3 92 91 107
3 92 107 108
3 93 92 108
3 93 108 109
3 94 93 109
3 94 109 110
3 95 94 110
3 95 110 111
3 96 95 111
3 96 111 112
3 97 96 112
3 97 112 113
3 98 97 113
3 98 113 114
3 99 98 114
3 99 114 115
3 100 99 115
3 102 101 116
3 102 116 117
3 102 117 103
3 103 117 118
3 103 118 119
3 104 103 119
3 104 119 120
3 105 104 120
3 105 120 121
3 106 105 121
3 106 121 122
3 107 106 122
3 107 122 123
3 108 107 123
3 108 123 124
3 109 108 124
3 109 124 125
3 110 109 125
3 110 125 126
3 111 110 126
3 111 126 127
3 112 111 127
3 112 127 128
3 113 112 128
3 113 128 129
3 114 113 129
3 114 129 130
3 115 114 130
3 117 116 131
3 117 131 132
3 117 132 118
3 118 132 133
3 118 133 134
3 119 118 134
3 119 134 135
3 120 119 135
3 120 135 136
3 121 120 136
3 121 136 137
3 122 121 137
3 122 137 138
3 123 122 138
3 123 138 139
3 124 123 139
3 124 139 140
3 125 124 140
3 125 140 141
3 126 125 141
3 126 141 142
3 127 126 142
3 127 142 143
3 128 127 143
3 128 143 144
3 129 128 144
3 129 144 145
3 130 129 145
3 130 145 146
3 133 131 147
3 132 131 133
3 134 133 148
3 134 148 149
3 135 134 149
3 135 149 150
3 136 135 150
3 136 150 151
3 137 136 151
3 137 151 152
3 138 137 152
3 138 152 153
3 139 138 153
3 139 153 154
3 140 139 154
3 140 154 155
3 141 140 155
3 142 141 155
3 142 155 156
3 143 142 156
3 143 156 157
3 144 143 157
3 144 157 158
3 145 144 158
3 145 158 159
3 146 145 159
3 148 147 160
3 133 147 148
3 149 148 161
3 149 161 162
3 150 149 162
3 150 162 163
3 151 150 163
3 151 163 164
3 152 151 164
3 152 164 165
3 153 152 165
3 154 153 165
3 154 165 166
3 155 154 166
3 155 166 167
3 156 155 167
3 156 167 168
3 157 156 168
3 157 168 169
3 158 157 169
3 158 169 170
3 159 158 170
3 161 160 171
3 148 160 161
3 162 161 172
3 162 172 173
3 163 162 173
3 163 173 174
3 164 163 174
3 165 164 174
3 165 174 175
3 166 165 175
3 166 175 176
3 167 166 176
3 167 176 177
3 168 167 177
3 169 168 177
3 169 177 178
3 170 169 178
3 170 178 179
3 172 171 180
3 161 171 172
3 173 172 181
3 173 181 182
3 174 173 182
3 175 174 182
3 175 182 183
3 176 175 183
3 177 176 183
3 177 183 184
3 178 177 184
3 179 178 184
3 179 184 185
3 181 180 186
3 172 180 181
3 182 181 187
3 183 182 187
3 184 183 187
3 185 184 187
3 186 185 187
3 181 186 187
3 186 180 24
3 186 24 22
3 186 22 185
3 185 22 20
3 185 20 179
3 179 20 18
3 179 18 170
3 170 18 16
3 170 16 159
3 159 16 14
3 159 14 146
3 146 14 12
3 146 12 130
3 130 12 10
3 130 10 115
3 115 10 100
3 100 10 8
3 100 8 85
3 85 8 6
3 85 6 71
3 71 6 4
3 71 4 58
3 71 58 57
3 58 4 1
3 58 1 0
3 58 0 49
3 49 0 50
3 50 0 59
3 59 0 42
3 59 42 40
3 59 40 60
3 60 40 72
3 72 40 38
3 72 38 86
3 86 38 36
3 86 36 101
3 101 36 116
3 116 36 34
3 116 34 131
3 131 34 32
3 131 32 147
3 147 32 30
3 147 30 160
3 160 30 28
3 160 28 171
3 171 28 26
3 171 26 180
3 180 26 24
3 188 189 190
3 191 188 190
3 191 190 192
3 193 191 192
3 193 192 194
3 193 194 195
3 196 193 195
3 196 195 197
3 198 196 197
3 198 197 199
3 190 189 200
3 190 200 201
3 192 190 201
3 192 201 202
3 192 202 203
3 194 192 203
3 194 203 204
3 195 194 204
3 195 204 205
3 197 195 205
3 197 205 206
3 199 197 206
3 199 206 207
3 200 208 209
3 201 200 209
3 201 209 210
3 202 201 210
3 202 210 211
3 203 202 211
3 203 211 212
3 204 203 212
3 204 212 213
3 205 204 213
3 205 213 214
3 206 205 214
3 206 214 215
3 207 206 215
3 207 215 216
3 208 217 218
3 209 208 218
3 209 218 219
3 210 209 219
3 210 219 220
3 211 210 220
3 211 220 221
3 212 211 221
3 212 221 222
3 213 212 222
3 213 222 223
3 214 213 223
3 214 223 224
3 215 214 224
3 215 224 225
3 216 215 225
3 218 217 226
3 218 226 227
3 219 218 227
3 219 227 228
3 220 219 228
3 221 220 228
3 221 228 229
3 222 221 229
3 222 229 230
3 223 222 230
3 223 230 231
3 224 223 231
3 224 231 232
3 225 224 232
3 227 226 233
3 227 233 234
3 228 227 234
3 228 234 235
3 229 228 235
3 230 229 235
3 230 235 236
3 231 230 236
3 231 236 237
3 232 231 237
3 234 233 238
3 235 234 238
3 235 238 239
3 236 235 239
3 237 236 239
3 237 239 25
3 237 25 27
3 237 27 29
3 237 29 232
3 232 29 31
3 232 31 225
3 225 31 33
3 225 33 216
3 216 33 35
3 216 35 207
3 207 35 37
3 207 37 199
3 199 37 39
3 199 39 198
3 198 39 41
3 198 41 43
3 198 43 196
3 196 43 2
3 196 2 193
3 193 2 191
3 191 2 3
3 191 3 188
3 188 3 5
3 188 5 7
3 188 7 189
3 189 7 9
3 189 9 200
3 200 9 11
3 200 11 208
3 208 11 13
3 208 13 217
3 217 13 15
3 217 15 226
3 226 15 17
3 226 17 233
3 233 17 19
3 233 19 21
3 233 21 238
3 238 21 23
3 238 23 239
3 239 23 25

CELL_TYPES 476
5
5
5
5
5
5
5
5
5
5
5
5
5
5
5
5
5
5
5
5
5
5
5
5
5
5
5
5
5
5
5
5
5
5
5
5
5
5
5
5
5
5
5
5
5
5
5
5
5
5
5
5
5
5
5
5
5
5
5
5
5
5
5
5
5
5
5
5
5
5
5
5
5
5
5
5
5
5
5
5
5
5
5
5
5
5
5
5
5
5
5
5
5
5
5
5
5
5
5
5
5
5
5
5
5
5
5
5
5
5
5
5
5
5
5
5
5
5
5
5
5
5
5
5
5
5
5
5
5
5
5
5
5
5
5
5
5
5
5
5
5
5
5
5
5
5
5
5
5
5
5
5
5
5
5
5
5
5
5
5
5
5
5
5
5
5
5
5
5
5
5
5
5
5
5
5
5
5
5
5
5
5
5
5
5
5
5
5
5
5
5
5
5
5
5
5
5
5
5
5
5
5
5
5
5
5
5
5
5
5
5
5
5
5
5
5
5
5
5
5
5
5
5
5
5
5
5
5
5
5
5
5
5
5
5
5
5
5
5
5
5
5
5
5
5
5
5
5
5
5
5
5
5
5
5
5
5
5
5
5
5
5
5
5
5
5
5
5
5
5
5
5
5
5
5
5
5
5
5
5
5
5
5
5
5
5
5
5
5
5
5
5
5
5
5
5
5
5
5
5
5
5
5
5
5
5
5
5
5
5
5
5
5
5
5
5
5
5
5
5
5
5
5
5
5
5
5
5
5
5
5
5
5
5
5
5
5
5
5
5
5
5
5
5
5
5
5
5
5
5
5
5
5
5
5
5
5
5
5
5
5
5
5
5
5
5
5
5
5
5
5
5
5
5
5
5
5
5
5
5
5
5
5
5
5
5
5
5
5
5
5
5
5
5
5
5
5
5
5
5
5
5
5
5
5
5
5
5
5
5
5
5
5
5
5
5
5
5
5
5
5
5
5
5
5
5
5
5
5
5
5
5
5
5
5
5
5
5
5
5
5
5
5
5
5
5
5
5
5
5
5
5
5
5
5
5
5
5
5
5
5
5
5
5
5
5
5
5
5
5
5
5
5
5
5
5

CELL_DATA 476
SCALARS cell_data_0 double
LOOKUP_TABLE default
6.2723385705e-05
3.90864090071e-05
3.16083321508e-05
1.32667078501e-05
2.11795286248e-06
2.94238326986e-05
1.22613139488e-06
8.42990536897e-07
4.24155081096e-06
8.59332247659e-06
4.42982752078e-06
1.0775559838e-05
5.10652510243e-06
8.94760897853e-06
5.19055960348e-07
9.01632950455e-06
1.2723480667e-06
9.08383295949e-06
8.46705019314e-07
1.13069617014e-05
1.7538613244e-06
8.04733864203e-06
3.75057455746e-06
7.40114385385e-06
3.59182797021e-06
8.92334905565e-06
4.14096747306e-06
4.3104434919e-06
5.13461515786e-06
1.97364914009e-06
5.26590938443e-06
1.91701596424e-06
3.6181892848e-06
1.18574857761e-06
1.7264780936e-06
9.91389588556e-08
3.53450920193e-07
2.89089180744e-06
8.14001622212e-06
1.0862115752e-05
4.25596316413e-05
6.01028205907e-05
8.24461635312e-05
6.45625039833e-07
4.07803158615e-08
3.37516254808e-07
3.65779480182e-07
7.81923465788e-07
4.15870082202e-06
8.1135330857e-07
1.33900287134e-07
4.50560349315e-07
1.72542408473e-07
2.31818091444e-07
9.87131150165e-08
3.14874462955e-07
2.29771256087e-07
2.4481670154e-07
4.14119922389e-07
1.21954287247e-06
4.70545051846e-06
7.77296694294e-06
1.0729318156e-06
8.88308723205e-09
7.17324064131e-08
6.34963899895e-08
1.29391852141e-07
3.2321255667e-07
3.03049955664e-07
4.52839783955e-07
2.3423083828e-07
1.1625335884e-07
2.3859277966e-07
8.42504122451e-08
1.63654693065e-07
2.70017572232e-07
1.81122579356e-07
3.2132224428e-07
2.72922369711e-07
4.90146376525e-07
9.45450191736e-07
2.82902876549e-06
3.12590707883e-07
8.97560938626e-07
7.10318168708e-07
5.7577452137e-07
2.79792772859e-08
2.68355210562e-07
1.71633663767e-07
9.1997815481e-08
5.41932393041e-08
5.81867802703e-09
1.40788589897e-07
1.8473615078e-08
3.0562424698e-08
1.26684868633e-08
2.31910965285e-08
5.74286578771e-08
8.59717031784e-08
3.92673231772e-07
1.79203122489e-07
2.03115221027e-07
7.15893519336e-07
3.85498938121e-07
1.93283428214e-06
1.02016692179e-06
1.8116727255e-07
7.60714956805e-07
5.51569403307e-07
6.89675492899e-07
1.03959035867e-07
4.17310299865e-07
1.16414239751e-08
2.76973691788e-07
3.99814556154e-08
3.07033397751e-09
3.35752566971e-09
4.26699443978e-08
1.38433347037e-07
1.4508219361e-07
2.53661992523e-07
1.2291252595e-07
1.02233534919e-07
1.56999914626e-08
1.05030511505e-07
3.03339616959e-08
1.37104135753e-07
9.65061298701e-08
1.8787892599e-08
2.74764198299e-07
2.3298444357e-09
4.57141444895e-07
5.09785823489e-08
1.9517044371e-07
7.30249188616e-07
4.83706963521e-07
7.26543787048e-07
3.54756181779e-07
6.20939484954e-07
3.9706229687e-07
5.44347267577e-07
1.89522652054e-07
3.86769012944e-07
9.77794118864e-08
2.09639961332e-07
1.6491320838e-08
4.0959231639e-07
2.39543448117e-07
9.53465145184e-08
2.26325566684e-08
5.66286320992e-08
2.65527680619e-08
2.48537199922e-08
1.29764628821e-08
6.52544503621e-08
6.2094648191e-08
5.39164580574e-08
9.5443932877e-08
6.58719469325e-08
1.07208569997e-07
1.67503559866e-07
1.48747289814e-07
5.41278050068e-07
3.89659977525e-07
6.05686285784e-07
3.89767272066e-07
5.9203666003e-07
4.82278461331e-07
5.81301568873e-07
3.39723619281e-07
5.60615257711e-07
2.30094483437e-07
5.06945212723e-07
1.26833719412e-07
2.79809778623e-07
2.88309730534e-08
1.56948919357e-07
1.26150897056e-07
2.37739173302e-07
2.01390607816e-07
1.04315371461e-07
2.7245154587e-07
2.79358324239e-08
2.2140276474e-07
4.54897817671e-08
2.37573973536e-07
7.86112407629e-08
1.18289145359e-07
1.87364656536e-07
1.62346100225e-07
2.90166161208e-07
9.86738000557e-08
7.64542338051e-08
2.76139866847e-07
8.48002250601e-08
2.54982261386e-07
2.04538579051e-07
1.58725565743e-07
1.83075122938e-07
6.9998123015e-08
3.32031881392e-07
1.95062486107e-07
1.67015770373e-07
7.89852640917e-08
2.78250278936e-07
7.28776407937e-08
4.98515301706e-07
3.60541418037e-08
4.77799022017e-07
1.16490169519e-07
4.59945138108e-07
7.54770336938e-08
2.86634672811e-07
6.64121612513e-08
6.89835214981e-08
1.53573219348e-07
2.91381824836e-07
1.86972870363e-06
8.66113140388e-07
9.92721605703e-08
1.50860196542e-07
2.36295876755e-07
2.30143509141e-07
3.23884161461e-07
3.34072166976e-07
1.85528459546e-07
3.27910926454e-07
1.11821332259e-07
2.41377015642e-07
2.2906913454e-07
1.778763477e-07
1.33998443869e-07
2.91779854852e-07
1.32640089155e-07
1.02929893075e-07
6.74229676427e-07
7.26575989809e-08
4.4217330222e-07
5.01227206744e-08
1.15140448176e-07
1.5395414577e-07
2.840014364e-07
6.57657410372e-08
2.21577959226e-06
1.55624415671e-06
2.26454003849e-07
2.63256859579e-07
1.82492510114e-07
2.54693677267e-07
1.95965801747e-07
3.70252000594e-07
3.22250484115e-08
4.04567428621e-07
2.2371640965e-07
3.06678639784e-07
3.20234557823e-07
2.20455133076e-07
2.74338319517e-07
1.30251012561e-08
2.74708109035e-07
1.80997639884e-07
1.50145910701e-07
4.8026985555e-08
7.11726256743e-07
8.42854433724e-07
2.30927341145e-06
1.83619947157e-06
2.85443907105e-07
2.75042947604e-07
1.34877980847e-07
1.80670912577e-07
5.27666887919e-08
3.00241040842e-08
2.46098920895e-07
1.2851204169e-07
1.74468756095e-07
3.21502186768e-09
1.50719977792e-07
1.54583617817e-07
2.64386108198e-07
3.18769625379e-07
1.50064927811e-07
1.44171721694e-06
1.8588695281e-06
1.73047569481e-06
2.0956792548e-07
1.55066287106e-07
2.39068430919e-07
1.04695404085e-07
3.74672073929e-08
8.27776981984e-08
2.09030810079e-07
1.51474885419e-07
2.05027359746e-08
5.49898542416e-07
1.81679239794e-07
5.64989934168e-07
8.74508402196e-07
2.42232282768e-07
1.33865213074e-07
3.1913356479e-07
2.03116006403e-07
5.51447206046e-07
1.90079070042e-07
2.6864111965e-06
2.66404189682e-05
1.00519610922e-06
2.62336212801e-05
2.78583023334e-06
2.68252314965e-05
2.21163725424e-06
1.74576609172e-05
2.61062758993e-06
1.22312227969e-05
1.83410016242e-06
1.17841410505e-05
1.35525788171e-06
1.17795340059e-06
2.60187062395e-06
1.0945388548e-07
1.51531828295e-06
3.06320591267e-07
2.11195468792e-07
3.18533121465e-06
8.75776896964e-06
1.50480609234e-05
2.10966734582e-06
2.6572255721e-05
8.62410969662e-05
3.25796450832e-06
5.05699694681e-06
6.27599754162e-06
5.82977415521e-05
1.38065214642e-06
2.15435136935e-06
3.02784592937e-07
3.09250649394e-06
5.17539246645e-07
2.40261383229e-06
4.5831101171e-08
6.49694125516e-07
3.32623312279e-06
1.40364580491e-06
9.6804311529e-06
7.90462957305e-07
1.63166553048e-05
3.80371870848e-08
2.15939111464e-05
5.13754512806e-07
2.5375337851e-05
9.03168382162e-07
2.72446124323e-05
3.11526687734e-05
3.7994363853e-05
9.89238883004e-05
9.83934349122e-06
2.99244723269e-05
2.49165378862e-05
1.14826742839e-05
0.000106626922135
4.32693556304e-05
3.04812872608e-05
7.75701592361e-07
2.98132455692e-06
4.77547433181e-06
6.0335352261e-06
1.34474714321e-05
1.2191568793e-05
1.30875412971e-05
2.82824219101e-05
1.31162425219e-05
6.97575097118e-06
5.65156048914e-06
1.69214175068e-06
3.00752002524e-07
1.80245945076e-06
4.94890289857e-06
4.30228963086e-06
1.92727193483e-06
2.34949388956e-06
1.24193383049e-06
3.32700513528e-06
5.4709277221e-07
3.08337280868e-06
1.78187179621e-06
3.58025075433e-06
4.85112116157e-06
3.42885963832e-06
6.71058871238e-06
4.52555791507e-06
7.93446325236e-07
7.63952765608e-06
2.85997864959e-06
6.87634267309e-06
4.47807893031e-06
5.96887749935e-06
3.086755319e-06
5.36331646319e-06
2.96255936289e-06
6.29281786826e-06
2.2749176651e-06
6.55964069963e-06
3.19448688991e-06
8.80904176292e-06
1.98935684236e-06
7.38180346111e-06
4.07022257294e-06
1.53146894613e-06
6.80898342846e-06
5.58413649539e-06
6.65157411891e-06
4.43869013399e-06
4.02920721764e-06
4.82903932719e-06
2.52327167816e-06
4.5051289465e-06
2.0424178497e-06
5.17841787486e-06
1.05798884564e-06
5.27909350738e-06
5.13242054439e-06
2.45565542724e-06
2.2841194352e-06
2.69238126247e-06
2.49790144939e-06
2.6020822356e-06
1.97791955768e-06
2.70021891058e-06
1.7989527395e-06
3.17979703492e-06
4.47917575762e-06
5.01959702561e-06
7.1326219965e-08
4.92211277586e-06
4.7160756786e-06
8.20699968606e-07
1.364012515e-05
2.02046221359e-05
3.66794316517e-06
2.52531956787e-05
6.75387193735e-06
2.12139328885e-05
4.67816597693e-06
1.44653009146e-05
2.49136675192e-06
3.88220527911e-06
8.63293193618e-07
1.75969993946e-06
2.14769888432e-05
3.26905367182e-05
3.31566529285e-05
3.23417025333e-05
1.31813509284e-05
0.000385872288244
0.000393974392632
2.9003500563e-05
4.30109248248e-05
1.9126530097e-05
5.43442320145e-05
2.17548885978e-05
4.6512244715e-08
1.55993681133e-06
1.4361052586e-06
3.3585030577e-06
2.18038900907e-06
6.92455365007e-06
3.13415921538e-06
7.12581554069e-07
1.56844329036e-05
1.78249444524e-07
1.65689837329e-05
1.17271031264e-05
7.56084870233e-07
2.28960135598e-05
7.69030073048e-06
2.31504284119e-05

