# vtk DataFile Version 3.0
File Name: Molecule/methanol/Error_  16.00.vtk
ASCII
DATASET UNSTRUCTURED_GRID
FIELD FieldData 1
TIME 1 1 double
0.0
POINTS 779 double
1.611 0.0 -0.359
1.588 -0.277 -0.357
1.475 0.0 -0.634
1.454 -0.26 -0.632
1.403 0.0 -0.933
1.382 -0.253 -0.931
1.52 -0.547 -0.35
1.39 -0.512 -0.626
1.32 -0.498 -0.925
1.409 -0.802 -0.339
1.286 -0.75 -0.615
1.219 -0.73 -0.914
1.257 -1.035 -0.324
1.144 -0.968 -0.601
1.081 -0.942 -0.901
1.07 -1.239 -0.305
0.969 -1.16 -0.584
0.91 -1.129 -0.884
0.851 -1.41 -0.283
0.764 -1.32 -0.564
0.711 -1.285 -0.864
0.608 -1.543 -0.259
0.536 -1.444 -0.541
0.489 -1.405 -0.842
0.346 -1.633 -0.233
0.291 -1.529 -0.516
0.251 -1.487 -0.818
0.073 -1.679 -0.206
0.036 -1.571 -0.491
0.002 -1.529 -0.793
-0.204 -1.679 -0.178
-0.223 -1.571 -0.465
-0.25 -1.529 -0.768
-0.477 -1.633 -0.151
-0.479 -1.529 -0.44
-0.499 -1.487 -0.743
-0.739 -1.543 -0.125
-0.724 -1.444 -0.415
-0.737 -1.405 -0.72
-0.982 -1.41 -0.101
-0.952 -1.32 -0.393
-0.959 -1.285 -0.698
-1.201 -1.239 -0.079
-1.157 -1.16 -0.372
-1.158 -1.129 -0.678
-1.388 -1.035 -0.06
-1.332 -0.968 -0.355
-1.329 -0.942 -0.661
-1.54 -0.802 -0.045
-1.474 -0.75 -0.341
-1.467 -0.73 -0.647
-1.651 -0.547 -0.034
-1.578 -0.512 -0.33
-1.568 -0.498 -0.637
-1.719 -0.277 -0.027
-1.641 -0.26 -0.324
-1.63 -0.253 -0.631
-1.742 -0.0 -0.025
-1.663 -0.0 -0.322
-1.651 -0.0 -0.629
-1.719 0.277 -0.027
-1.641 0.26 -0.324
-1.63 0.253 -0.631
-1.651 0.547 -0.034
-1.578 0.512 -0.33
-1.568 0.498 -0.637
-1.54 0.802 -0.045
-1.474 0.75 -0.341
-1.467 0.73 -0.647
-1.388 1.035 -0.06
-1.332 0.968 -0.355
-1.329 0.942 -0.661
-1.201 1.239 -0.079
-1.157 1.16 -0.372
-1.158 1.129 -0.678
-0.982 1.41 -0.101
-0.952 1.32 -0.393
-0.959 1.285 -0.698
-0.739 1.543 -0.125
-0.724 1.444 -0.415
-0.737 1.405 -0.72
-0.477 1.633 -0.151
-0.479 1.529 -0.44
-0.499 1.487 -0.743
-0.204 1.679 -0.178
-0.223 1.571 -0.465
-0.25 1.529 -0.768
0.073 1.679 -0.206
0.036 1.571 -0.491
0.002 1.529 -0.793
0.346 1.633 -0.233
0.291 1.529 -0.516
0.251 1.487 -0.818
0.608 1.543 -0.259
0.536 1.444 -0.541
0.489 1.405 -0.842
0.851 1.41 -0.283
0.764 1.32 -0.564
0.711 1.285 -0.864
1.07 1.239 -0.305
0.969 1.16 -0.584
0.91 1.129 -0.884
1.257 1.035 -0.324
1.144 0.968 -0.601
1.081 0.942 -0.901
1.409 0.802 -0.339
1.286 0.75 -0.615
1.219 0.73 -0.914
1.52 0.547 -0.35
1.39 0.512 -0.626
1.32 0.498 -0.925
1.588 0.277 -0.357
1.454 0.26 -0.632
1.382 0.253 -0.931
1.907 0.0 0.656
1.889 0.257 0.656
1.889 0.129 0.878
1.889 -0.129 0.878
1.889 -0.257 0.656
1.889 -0.129 0.433
1.889 0.129 0.433
1.837 0.441 0.91
1.837 0.255 1.097
1.837 -0.0 1.165
1.837 -0.255 1.097
1.837 -0.441 0.91
1.837 -0.509 0.656
1.837 -0.441 0.401
1.837 -0.255 0.215
1.837 -0.0 0.146
1.837 0.255 0.215
1.837 0.441 0.401
1.837 0.509 0.656
1.75 0.707 0.913
1.75 0.576 1.139
1.75 0.376 1.307
1.75 0.131 1.396
1.75 -0.131 1.396
1.75 -0.376 1.307
1.75 -0.576 1.139
1.75 -0.707 0.913
1.75 -0.752 0.656
1.75 -0.707 0.398
1.75 -0.576 0.172
1.75 -0.376 0.004
1.75 -0.131 -0.085
1.75 0.131 -0.085
1.75 0.376 0.004
1.75 0.576 0.172
1.75 0.707 0.398
1.75 0.752 0.656
1.632 0.947 0.909
1.632 0.849 1.146
1.632 0.693 1.349
1.632 0.49 1.505
1.632 0.254 1.603
1.632 0.0 1.636
1.632 -0.254 1.603
1.632 -0.49 1.505
1.632 -0.693 1.349
1.632 -0.849 1.146
1.632 -0.947 0.909
1.632 -0.981 0.656
1.632 -0.947 0.402
1.632 -0.849 0.165
1.632 -0.693 -0.038
1.632 -0.49 -0.194
1.632 0.49 -0.194
1.632 0.693 -0.038
1.632 0.849 0.165
1.632 0.947 0.402
1.632 0.981 0.656
1.483 1.163 0.912
1.483 1.081 1.156
1.483 0.948 1.376
1.483 0.771 1.563
1.483 0.558 1.708
1.483 0.319 1.803
1.483 0.064 1.845
1.483 -0.193 1.831
1.483 -0.441 1.762
1.483 -0.668 1.642
1.483 -0.865 1.475
1.483 -1.021 1.27
1.483 -1.129 1.036
1.483 -1.184 0.784
1.483 -1.184 0.527
1.483 -1.129 0.275
1.483 -1.021 0.041
1.483 -0.865 -0.164
1.483 0.948 -0.065
1.483 1.081 0.155
1.483 1.163 0.4
1.483 1.191 0.656
1.307 1.356 0.909
1.307 1.286 1.154
1.307 1.173 1.382
1.307 1.019 1.585
1.307 0.831 1.756
1.307 0.615 1.89
1.307 0.378 1.982
1.307 0.127 2.029
1.307 -0.127 2.029
1.307 -0.378 1.982
1.307 -0.615 1.89
1.307 -0.831 1.756
1.307 -1.019 1.585
1.307 -1.173 1.382
1.307 -1.286 1.154
1.307 -1.356 0.909
1.307 -1.379 0.656
1.307 -1.356 0.402
1.307 -1.286 0.157
1.307 -1.173 -0.071
1.307 1.173 -0.071
1.307 1.286 0.157
1.307 1.356 0.402
1.307 1.379 0.656
1.107 1.521 0.909
1.107 1.458 1.156
1.107 1.356 1.39
1.107 1.217 1.603
1.107 1.044 1.79
1.107 0.843 1.947
1.107 0.619 2.068
1.107 0.379 2.15
1.107 0.127 2.192
1.107 -0.127 2.192
1.107 -0.379 2.15
1.107 -0.619 2.068
1.107 -0.843 1.947
1.107 -1.044 1.79
1.107 -1.217 1.603
1.107 -1.356 1.39
1.107 -1.458 1.156
1.107 -1.521 0.909
1.107 -1.542 0.656
1.107 -1.521 0.402
1.107 -1.458 0.155
1.107 -1.356 -0.078
1.107 1.356 -0.078
1.107 1.458 0.155
1.107 1.521 0.402
1.107 1.542 0.656
0.887 1.656 0.911
0.887 1.598 1.161
0.887 1.502 1.399
0.887 1.371 1.62
0.887 1.208 1.818
0.887 1.016 1.988
0.887 0.801 2.128
0.887 0.566 2.233
0.887 0.319 2.301
0.887 0.064 2.33
0.887 -0.192 2.32
0.887 -0.444 2.272
0.887 -0.686 2.185
0.887 -0.911 2.062
0.887 -1.115 1.907
0.887 -1.293 1.722
0.887 -1.441 1.512
0.887 -1.554 1.282
0.887 -1.632 1.037
0.887 -1.671 0.784
0.887 -1.671 0.527
0.887 -1.632 0.274
0.887 -1.554 0.029
0.887 1.502 -0.088
0.887 1.598 0.15
0.887 1.656 0.4
0.887 1.676 0.656
0.651 1.76 0.909
0.651 1.706 1.157
0.651 1.618 1.394
0.651 1.496 1.617
0.651 1.344 1.82
0.651 1.165 2.0
0.651 0.962 2.152
0.651 0.739 2.273
0.651 0.501 2.362
0.651 0.253 2.416
0.651 0.0 2.434
0.651 -0.253 2.416
0.651 -0.501 2.362
0.651 -0.739 2.273
0.651 -0.962 2.152
0.651 -1.165 2.0
0.651 -1.344 1.82
0.651 -1.496 1.617
0.651 -1.618 1.394
0.651 -1.706 1.157
0.651 -1.76 0.909
0.651 -1.779 0.656
0.651 -1.76 0.402
0.651 -1.706 0.155
0.651 -1.618 -0.083
0.651 1.618 -0.083
0.651 1.706 0.155
0.651 1.76 0.402
0.651 1.779 0.656
0.403 1.831 0.907
0.403 1.779 1.154
0.403 1.695 1.392
0.403 1.579 1.616
0.403 1.434 1.822
0.403 1.261 2.006
0.403 1.066 2.165
0.403 0.85 2.296
0.403 0.619 2.397
0.403 0.376 2.465
0.403 0.126 2.499
0.403 -0.126 2.499
0.403 -0.376 2.465
0.403 -0.619 2.397
0.403 -0.85 2.296
0.403 -1.066 2.165
0.403 -1.261 2.006
0.403 -1.434 1.822
0.403 -1.579 1.616
0.403 -1.695 1.392
0.403 -1.779 1.154
0.403 -1.831 0.907
0.403 -1.848 0.656
0.403 -1.831 0.404
0.403 -1.779 0.157
0.403 -1.695 -0.081
0.403 1.695 -0.081
0.403 1.779 0.157
0.403 1.831 0.404
0.403 1.848 0.656
0.148 1.866 0.912
0.148 1.813 1.164
0.148 1.727 1.406
0.148 1.609 1.634
0.148 1.461 1.844
0.148 1.285 2.032
0.148 1.086 2.194
0.148 0.866 2.328
0.148 0.631 2.43
0.148 0.383 2.499
0.148 0.129 2.534
0.148 -0.129 2.534
0.148 -0.383 2.499
0.148 -0.631 2.43
0.148 -0.866 2.328
0.148 -1.086 2.194
0.148 -1.285 2.032
0.148 -1.461 1.844
0.148 -1.609 1.634
0.148 -1.727 1.406
0.148 -1.813 1.164
0.148 -1.866 0.912
0.148 -1.883 0.656
0.148 -1.866 0.399
0.148 -1.813 0.148
0.148 1.813 0.148
0.148 1.866 0.399
0.148 1.883 0.656
-0.11 1.866 0.912
-0.11 1.813 1.164
-0.11 1.727 1.406
-0.11 1.609 1.634
-0.11 1.461 1.844
-0.11 1.285 2.032
-0.11 1.086 2.194
-0.11 0.866 2.328
-0.11 0.631 2.43
-0.11 0.383 2.499
-0.11 0.129 2.534
-0.11 -0.129 2.534
-0.11 -0.383 2.499
-0.11 -0.631 2.43
-0.11 -0.866 2.328
-0.11 -1.086 2.194
-0.11 -1.285 2.032
-0.11 -1.461 1.844
-0.11 -1.609 1.634
-0.11 -1.727 1.406
-0.11 -1.813 1.164
-0.11 -1.866 0.912
-0.11 -1.883 0.656
-0.11 -1.866 0.399
-0.11 -1.813 0.148
-0.11 1.813 0.148
-0.11 1.866 0.399
-0.11 1.883 0.656
-0.365 1.831 0.907
-0.365 1.779 1.154
-0.365 1.695 1.392
-0.365 1.579 1.616
-0.365 1.434 1.822
-0.365 1.261 2.006
-0.365 1.066 2.165
-0.365 0.85 2.296
-0.365 0.619 2.397
-0.365 0.376 2.465
-0.365 0.126 2.499
-0.365 -0.126 2.499
-0.365 -0.376 2.465
-0.365 -0.619 2.397
-0.365 -0.85 2.296
-0.365 -1.066 2.165
-0.365 -1.261 2.006
-0.365 -1.434 1.822
-0.365 -1.579 1.616
-0.365 -1.695 1.392
-0.365 -1.779 1.154
-0.365 -1.831 0.907
-0.365 -1.848 0.656
-0.365 -1.831 0.404
-0.365 -1.779 0.157
-0.365 1.779 0.157
-0.365 1.831 0.404
-0.365 1.848 0.656
-0.613 1.779 0.656
-0.613 1.76 0.909
-0.613 1.706 1.157
-0.613 1.618 1.394
-0.613 1.496 1.617
-0.613 1.344 1.82
-0.613 1.165 2.0
-0.613 0.962 2.152
-0.613 0.739 2.273
-0.613 0.501 2.362
-0.613 0.253 2.416
-0.613 0.0 2.434
-0.613 -0.253 2.416
-0.613 -0.501 2.362
-0.613 -0.739 2.273
-0.613 -0.962 2.152
-0.613 -1.165 2.0
-0.613 -1.344 1.82
-0.613 -1.496 1.617
-0.613 -1.618 1.394
-0.613 -1.706 1.157
-0.613 -1.76 0.909
-0.613 -1.779 0.656
-0.613 -1.76 0.402
-0.613 -1.706 0.155
-0.613 1.706 0.155
-0.613 1.76 0.402
-0.849 1.676 0.656
-0.849 1.656 0.911
-0.849 1.598 1.161
-0.849 1.502 1.399
-0.849 1.371 1.62
-0.849 1.208 1.818
-0.849 1.016 1.988
-0.849 0.801 2.128
-0.849 0.566 2.233
-0.849 0.319 2.301
-0.849 0.064 2.33
-0.849 -0.192 2.32
-0.849 -0.444 2.272
-0.849 -0.686 2.185
-0.849 -0.911 2.062
-0.849 -1.115 1.907
-0.849 -1.293 1.722
-0.849 -1.441 1.512
-0.849 -1.554 1.282
-0.849 -1.632 1.037
-0.849 -1.671 0.784
-0.849 -1.671 0.527
-0.849 -1.632 0.274
-0.849 -1.554 0.029
-0.849 1.598 0.15
-0.849 1.656 0.4
-1.069 1.542 0.656
-1.069 1.521 0.909
-1.069 1.458 1.156
-1.069 1.356 1.39
-1.069 1.217 1.603
-1.069 1.044 1.79
-1.069 0.843 1.947
-1.069 0.619 2.068
-1.069 0.379 2.15
-1.069 0.127 2.192
-1.069 -0.127 2.192
-1.069 -0.379 2.15
-1.069 -0.619 2.068
-1.069 -0.843 1.947
-1.069 -1.044 1.79
-1.069 -1.217 1.603
-1.069 -1.356 1.39
-1.069 -1.458 1.156
-1.069 -1.521 0.909
-1.069 -1.542 0.656
-1.069 -1.521 0.402
-1.069 -1.458 0.155
-1.069 1.458 0.155
-1.069 1.521 0.402
-1.269 1.379 0.656
-1.269 1.356 0.909
-1.269 1.286 1.154
-1.269 1.173 1.382
-1.269 1.019 1.585
-1.269 0.831 1.756
-1.269 0.615 1.89
-1.269 0.378 1.982
-1.269 0.127 2.029
-1.269 -0.127 2.029
-1.269 -0.378 1.982
-1.269 -0.615 1.89
-1.269 -0.831 1.756
-1.269 -1.019 1.585
-1.269 -1.173 1.382
-1.269 -1.286 1.154
-1.269 -1.356 0.909
-1.269 -1.379 0.656
-1.269 -1.356 0.402
-1.269 -1.286 0.157
-1.269 1.286 0.157
-1.269 1.356 0.402
-1.445 1.191 0.656
-1.445 1.163 0.912
-1.445 1.081 1.156
-1.445 0.948 1.376
-1.445 0.771 1.563
-1.445 0.558 1.708
-1.445 0.319 1.803
-1.445 0.064 1.845
-1.445 -0.193 1.831
[...]
CELL_DATA 1554
SCALARS cell_data_0 double
LOOKUP_TABLE default
1.01625156065e-05
5.83815718764e-05
2.05673553949e-06
9.99628884061e-07
1.25408335138e-05
5.03028071977e-05
1.12408804117e-05
2.99446423569e-05
1.05664240412e-05
3.19405493481e-05
1.19432664707e-05
1.54206221818e-05
5.61596251021e-06
1.63372316579e-05
7.64607151697e-06
3.84247275373e-06
2.47207917847e-06
6.12309863312e-06
3.07011454916e-06
1.76580620196e-06
6.19932155121e-07
1.18428153775e-06
3.85147220085e-07
4.15911438796e-07
3.57073831991e-07
8.90422862791e-07
6.43696988924e-07
1.12133177951e-06
1.01081034183e-06
1.17560929495e-06
8.38565308801e-07
9.00622866706e-07
3.43681451306e-07
7.98972455974e-07
5.82262723083e-07
2.88176909224e-06
2.52503669225e-07
1.94791418685e-07
6.74481691404e-07
1.31228771807e-08
3.28913014529e-07
1.03494015823e-06
2.34132200599e-06
5.59041853465e-08
7.92003170261e-07
2.17960965824e-06
3.89759864109e-06
6.92280845664e-07
2.50039315392e-07
3.01981874689e-06
4.42970699631e-06
2.75428707605e-06
9.29646467981e-07
3.85640191489e-06
5.15572018956e-06
1.3607384886e-07
1.27161947551e-06
4.05953443066e-06
6.2293485026e-06
7.22143474436e-07
1.43513101809e-06
5.24257067114e-06
7.04617048447e-06
9.62924225877e-07
1.30013942015e-06
5.815176595e-06
7.28215805408e-06
7.62967785151e-07
1.61219143467e-06
6.16551543079e-06
8.22721496506e-06
1.08305089937e-06
2.30136812582e-06
6.36087910896e-06
9.37397312735e-06
1.09286405661e-06
2.01246444506e-06
6.41522270456e-06
9.66108942092e-06
1.30201659878e-06
2.30681213412e-06
7.19836178303e-06
9.71989562534e-06
1.89124496761e-06
1.73606381223e-06
7.24920713535e-06
9.23818242397e-06
1.97748834707e-06
2.81277051169e-06
7.22427010087e-06
8.81226388195e-06
2.54171036547e-06
2.59248863048e-06
7.56103435762e-06
8.83202713343e-06
2.30295352651e-06
2.68420835894e-06
7.20861449605e-06
8.49393897482e-06
2.13889317926e-06
2.68708362459e-06
6.96769597894e-06
8.84414159338e-06
3.0660152407e-06
2.51649430888e-06
6.34311592079e-06
8.55800350655e-06
2.98547746752e-06
2.36585218488e-06
5.57219562361e-06
7.87189587566e-06
3.14604086294e-06
1.80266418104e-06
4.89603508268e-06
6.91217290063e-06
3.19758154971e-06
1.61394970703e-06
3.83442512074e-06
5.1432347708e-06
2.89294728404e-06
4.98070721552e-07
2.40119209511e-06
3.42414063455e-06
1.85697573398e-06
3.65429274301e-07
7.42789158038e-07
1.19939407191e-06
5.10521311349e-07
3.99615916462e-07
8.3078337017e-07
1.25506376009e-06
5.20817543891e-07
1.32834010687e-06
1.54092392077e-06
3.93358884837e-06
9.74352220232e-07
1.89183498107e-06
1.8679607681e-07
6.20048640056e-06
1.30748270179e-06
1.65340001304e-06
7.76702280658e-06
7.63049554153e-06
9.5574983624e-07
1.85753945108e-06
2.40255634825e-05
8.57739357431e-06
7.46986660149e-06
6.01398818192e-06
4.75316508614e-05
6.55086045276e-07
7.44579852707e-06
2.29849819945e-08
4.11263782621e-09
4.54741829069e-08
1.34758725608e-07
2.02957243683e-07
1.3483593694e-07
1.5676475473e-07
3.9231085587e-08
4.0910048341e-08
6.83311408646e-08
6.14743437698e-08
2.04818269572e-08
3.29493899178e-08
7.97304328813e-08
1.04350689819e-07
1.355516935e-07
3.06611268505e-07
2.09368449388e-07
1.25602216791e-07
2.54298753581e-07
3.45631145386e-07
1.74260705184e-07
1.25776667443e-07
1.48441413818e-07
1.19920143397e-07
7.36570182987e-08
1.74764242371e-08
1.45386805442e-07
2.12076645794e-07
4.34725872889e-08
1.59447258156e-07
2.22441275693e-08
1.39825865976e-07
7.72776354649e-08
7.7342824944e-08
4.84430923153e-08
1.38347156099e-07
1.45775325459e-08
4.33051648556e-08
2.73715064922e-07
3.65941376026e-08
6.6300823255e-08
5.06225877002e-07
5.00063528144e-07
2.81193682242e-07
6.46811031687e-07
7.61309729349e-08
5.14231336713e-07
3.98053190581e-07
1.21254735346e-09
2.74641835272e-08
1.22687110726e-07
1.88687094272e-08
2.51281964625e-08
1.16781684736e-07
1.07197696741e-07
3.30126901232e-08
7.93825608339e-08
6.97199328099e-09
1.08903573401e-07
2.15692387095e-07
3.00742788667e-07
5.42722264346e-08
7.79170008143e-08
8.95397255368e-08
4.74421803912e-08
1.25073128072e-07
1.20488433903e-07
1.17553896376e-08
7.1808154711e-08
5.97456255786e-08
2.45492556705e-08
2.19955876871e-07
2.95745674104e-07
1.06297519643e-08
2.42669018638e-07
1.29310224274e-07
2.28470026872e-08
3.14631905048e-07
2.08834236507e-07
1.04763678574e-06
1.23323283329e-06
1.42217685736e-07
1.65992417792e-07
7.61378991923e-08
3.85789914515e-08
2.10013899698e-07
5.2959793972e-08
4.94687061197e-08
1.32646164193e-07
8.15912684944e-08
7.41872072064e-08
5.61896329072e-08
4.38353727981e-08
2.40244362739e-08
6.29986568235e-09
6.34058969196e-09
1.30219883972e-08
4.42719289639e-08
1.11566584684e-08
4.13216476112e-08
5.25776585967e-08
2.47873993954e-08
6.78673787858e-08
1.41287085774e-08
5.6629693893e-08
8.34039312339e-08
9.03441100878e-08
1.31275741373e-07
3.744435449e-07
1.13165753875e-07
8.9653717529e-08
4.68645006286e-08
9.49653623933e-08
9.89624216783e-09
6.35500383999e-08
5.13407720298e-09
2.77574680914e-08
2.39936692323e-07
4.32588176561e-07
1.15724720305e-06
6.75766204591e-07
3.98596837988e-08
1.18826574664e-07
3.18401624203e-08
1.8294025487e-07
2.49079932717e-08
7.93191054884e-08
1.58357862072e-07
6.72586264681e-08
8.51914077424e-08
5.06942500194e-08
6.35776700577e-08
1.80106448362e-08
1.46051466927e-08
1.22636434682e-09
2.9829671337e-08
2.20839226523e-09
3.47955276149e-08
6.76911451539e-09
1.65163394317e-08
2.6544268904e-08
4.52850749467e-08
1.42875158548e-08
4.59612956684e-08
2.24218242405e-08
3.90874907594e-08
5.69693422355e-08
9.91065888925e-08
1.58001013294e-08
8.05347625245e-08
2.18054220668e-07
7.14009118779e-08
1.26605339874e-07
6.33683368853e-10
6.65113176846e-08
2.86981173744e-08
7.7229423235e-08
9.00764227437e-08
7.56179912952e-09
1.56970112895e-07
3.89549529298e-08
2.27390398364e-08
1.58888112436e-07
5.04359230542e-07
1.15813225222e-07
2.10817697312e-07
2.34387310842e-09
1.28647706688e-07
2.64851400393e-08
4.56908439929e-08
2.2447714598e-07
1.94790117963e-07
1.42352601887e-07
1.27803774588e-08
9.23972192382e-08
5.59519527168e-08
2.19997172283e-09
4.89820828133e-08
7.09304801726e-08
6.22314486471e-09
4.58369852447e-08
3.01211216928e-09
2.98692398333e-08
1.84124041424e-08
3.933605489e-08
6.27824027437e-08
5.14530035423e-08
1.5411760786e-08
4.67435474598e-08
9.39231332016e-09
4.49239924929e-08
7.35587782746e-08
9.66531682146e-08
5.25272943365e-08
1.22977574142e-09
5.48510558105e-08
2.36750901022e-08
7.58423193021e-08
1.13991047858e-07
1.76429987866e-08
7.81607639791e-08
4.53851101081e-08
7.82010547868e-08
8.32578163725e-08
1.0098722331e-07
5.48375772671e-08
7.51815185724e-08
4.68131695612e-08
1.90166558476e-07
1.08710693849e-07
3.55636186201e-07
1.49623830026e-07
1.700031507e-09
8.0793088949e-08
2.88114625977e-08
1.29269900501e-07
7.75645749636e-08
1.84016014443e-07
1.47562037791e-07
5.14837161841e-08
9.90895979764e-08
3.46719147348e-08
6.56685571789e-08
3.50427680105e-08
8.04588246098e-08
2.35813103102e-08
1.36917804143e-07
1.16767651931e-07
5.49235526589e-08
2.76354939751e-08
3.10637893997e-08
2.12499230493e-08
5.25888355671e-09
2.07682871384e-08
4.14713352218e-08
8.86927114018e-08
3.78494734323e-09
4.8342022357e-08
5.75646957142e-09
6.27385832833e-08
1.29382762688e-08
1.42120573529e-08
9.45011589815e-10
6.27388591206e-08
3.84931133875e-09
2.04927772597e-08
3.76967853287e-08
1.45602248866e-08
3.57101683866e-08
6.57309899226e-08
1.46324900172e-07
7.10459599463e-10
1.7773976525e-08
2.97000472126e-08
5.09167751907e-08
5.42844429992e-08
4.59118731772e-08
3.17878792967e-08
2.37066762589e-08
1.14099195214e-08
3.67956307251e-08
1.52534284168e-07
6.94663481385e-08
6.07189716474e-09
9.91212991432e-08
3.18081578543e-08
6.71875817701e-08
4.60261351095e-09
9.22874960842e-08
1.3513969926e-07
4.98996802531e-08
1.22565413535e-07
2.14254567237e-08
1.33814163227e-07
3.31771657317e-08
1.32715509921e-07
8.30018680382e-09
1.23194821262e-07
1.88103242224e-08
1.25010263827e-07
4.92846079961e-08
2.35360637616e-08
3.16506628318e-08
3.94163574721e-08
2.371248638e-08
2.12420385074e-08
2.23561970063e-08
9.19211696454e-08
1.10643797978e-07
1.2393412215e-09
5.07841214257e-08
1.03508357473e-09
5.69638042767e-08
4.91040611603e-08
9.70511001332e-08
4.046057846e-08
7.79823191954e-08
1.56613800286e-08
2.33178225741e-09
2.30474317756e-09
1.05254537032e-08
1.92191322558e-08
3.05715664873e-08
1.11633388776e-08
6.46926342871e-08
1.00754137291e-07
1.05173749086e-08
4.4237220613e-08
3.4019922481e-09
7.09642370225e-08
3.07026248235e-09
2.91592437536e-08
5.52074995967e-08
7.56367596449e-09
5.1273815424e-08
3.70615856955e-09
1.67510051555e-08
5.19723894281e-09
8.04059819521e-08
4.52083185921e-08
1.98801050236e-08
1.4524538091e-08
8.39058212533e-08
9.74244464806e-08
4.97940739859e-08
9.87760975125e-08
2.44750915263e-08
1.47771519856e-07
1.64302899863e-08
1.26567324858e-07
5.68923491287e-09
1.04251444764e-07
1.72051142733e-08
9.39075611407e-08
7.84973879761e-10
7.96211793378e-08
4.75838518118e-08
4.73514179619e-08
8.4407842517e-08
3.48195696744e-08
6.33590823475e-09
3.57018812043e-08
1.26136357493e-08
1.00985986314e-07
5.77078893054e-08
1.60501146052e-08
2.55681655599e-08
1.08806942344e-08
6.24293021235e-08
7.5595137532e-09
3.36575804937e-08
2.27331179988e-08
4.42992629277e-08
3.06151438323e-08
4.07215961005e-08
4.19522078019e-08
2.09263874487e-08
7.9052537971e-08
1.96378684543e-08
8.82215173214e-08
5.68240957095e-08
9.92764715445e-08
3.99749199187e-08
1.05091710106e-07
4.09179274361e-08
6.20976581544e-08
8.1266120788e-08
7.95983861332e-09
8.40238294178e-09
1.23386211673e-08
5.38712494358e-09
6.74210805346e-08
3.01094832234e-08
2.8688493728e-08
4.36676324122e-08
7.03643484394e-10
5.21165387093e-09
1.92261593228e-08
6.65410823921e-10
5.26982405846e-08
8.92510006589e-08
3.89149760937e-08
1.10065237391e-07
5.20827955327e-09
1.93321239641e-07
5.90478523567e-08
1.13776120217e-07
2.2490062866e-08
1.26407836481e-07
3.55615131316e-08
1.00990260143e-07
2.53125092865e-08
8.66258987348e-08
1.38254995885e-08
9.11110472336e-08
1.55923506387e-08
1.34722182708e-07
8.19003547123e-08
6.7175878123e-08
1.74476367931e-08
8.17210840128e-08
9.94879352924e-08
1.08235178622e-07
1.31116365935e-07
9.62548065491e-08
4.88079194616e-08
3.3308590109e-08
3.28241490726e-08
4.88070972343e-08
1.51143953982e-08
1.15950885537e-08
2.25107984622e-08
3.3501095316e-08
3.81544142863e-08
2.36599015953e-08
5.3950152976e-08
4.91078090478e-08
6.05237077856e-08
4.18423306456e-08
5.39577930365e-08
2.29115568702e-08
3.98334137293e-08
1.30098818524e-09
1.76336134876e-08
1.56255188918e-09
1.36161085897e-08
2.13025020647e-08
2.56875349498e-08
1.06820508565e-09
2.28833877281e-07
7.8205074807e-08
5.35497546564e-08
8.78816131578e-09
4.29059151335e-10
3.14992731027e-08
5.91377897958e-08
3.51854575218e-08
1.21663099636e-07
5.98366995081e-08
9.51351711805e-08
5.33551411415e-08
1.14047660179e-07
5.15430491918e-08
1.12531212013e-07
4.11417992598e-08
1.04552511491e-07
3.67210978109e-08
1.07962083385e-07
9.167193897e-09
1.21537110869e-07
4.97845887289e-08
1.36158392399e-07
9.9222340383e-09
1.36220338643e-07
3.33036777662e-08
1.27686817672e-07
7.30945100588e-08
9.10701987377e-08
2.80292171529e-08
8.76886064555e-08
2.40271943064e-08
4.91629103073e-08
3.5911920844e-09
2.1272541397e-08
1.76882289569e-09
1.5693038422e-08
7.06494859441e-10
7.43882032191e-09
7.60746830998e-09
6.36142358511e-09
2.62000021419e-08
6.03729957384e-10
2.89143965525e-08
3.39443940322e-09
5.55941832669e-08
3.34928580052e-08
1.99511083019e-08
9.26711872833e-09
8.05631108566e-09
1.605679692e-08
2.34208575394e-08
8.34591977932e-09
7.50767079448e-08
4.20861669828e-08
2.05607562917e-07
1.17871865381e-07
6.12465085785e-09
2.6351104124e-09
1.30615935362e-08
2.85227731184e-08
6.70760620934e-09
1.09224636408e-07
4.61881453924e-08
1.08012076978e-07
1.12776835191e-07
1.50975142816e-07
4.54049147778e-08
1.420097444e-07
5.5908030375e-08
1.43526426219e-07
4.86016186893e-08
1.13264645229e-07
5.86939793561e-08
1.10139255661e-07
2.28247689867e-08
9.85824326736e-08
1.57447146737e-10
1.27744166388e-07
2.0072280986e-08
1.34281001525e-07
7.45291533002e-08
1.894331613e-07
1.19871658146e-08
9.83721660806e-08
3.30062088452e-09
6.66330066662e-08
2.65174502869e-09
5.05650282743e-08
1.71785444939e-08
6.93739823836e-09
1.48975316523e-08
1.18045737735e-08
8.8920958068e-09
8.44382561232e-09
3.05213457055e-09
7.51153558299e-10
7.32941497693e-09
2.04024484898e-08
7.74553413187e-09
1.71046470845e-08
1.24150458255e-08
9.64537991931e-09
4.34078495886e-09
6.83549247197e-09
2.06872455922e-08
3.8095246785e-08
9.57443093561e-08
1.02736697174e-07
2.93265738374e-07
2.28301928805e-07
2.60749364874e-08
9.59460198613e-09
1.14573509378e-08
2.03482222482e-08
1.88870767928e-10
1.5556945541e-09
1.51361843125e-08
5.52036569301e-09
1.44099761748e-08
6.95020638448e-09
4.14148438715e-11
2.56062838278e-10
5.71558239349e-09
1.48845467183e-08
3.82820571299e-09
2.28565009792e-08
3.21302862699e-09
2.5209950777e-08
1.14383972515e-08
5.58359471007e-08
1.92224824067e-08
5.18680593443e-08
2.28594830395e-08
1.16973370258e-07
8.28753934673e-10
5.34605855981e-08
4.97785038277e-08
3.75031118517e-08
1.7442346878e-08
5.26429469305e-08
3.85734171527e-09
3.35513299903e-08
2.66405821838e-08
2.21724492897e-08
6.54055583116e-08
9.45054313384e-09
2.19514921698e-08
1.39444923404e-08
3.02291834616e-08
1.94883208626e-08
1.36632874572e-08
1.86923282784e-08
2.5496276555e-08
2.8881138933e-08
3.6772513244e-09
8.13698030715e-09
9.54739589249e-09
7.15291021643e-09
9.13146618589e-08
1.48257836378e-07
2.89856097034e-07
2.55756050279e-07
3.42434011166e-07
2.78886930712e-07
9.90681241628e-08
8.95671896774e-08
3.71038694543e-08
6.84718315138e-09
6.50517960606e-09
4.57010281406e-09
1.66197818662e-08
4.88270022774e-09
2.66873597152e-08
6.01079790817e-09
4.10873925089e-08
3.82354268134e-08
1.79061425979e-08
2.58187449441e-08
5.33093689418e-10
1.88486342271e-08
4.22479646804e-09
3.3686848651e-08
2.80626447203e-08
3.66121000745e-09
5.93415329036e-08
1.65940314796e-08
4.61740776278e-08
4.66985139761e-09
7.07379418112e-08
4.22873621192e-08
1.07183275382e-08
2.37492975041e-08
7.65577104589e-09
3.57144050517e-08
7.03799771834e-09
7.24492448205e-08
7.17449288591e-08
1.43618939469e-08
1.0012107937e-07
1.51034284646e-08
5.47119503703e-08
1.73849997907e-08
5.39963441499e-08
6.80794872089e-09
2.93980121329e-08
1.00646056471e-08
9.65630886673e-10
1.07086794802e-08
1.71250222455e-08
7.394846647e-08
3.66068519869e-08
1.13577135034e-07
2.59647332964e-07
3.91636982669e-07
2.93300410111e-07
1.59066208265e-07
1.48462855102e-07
5.33001201823e-08
2.40969560573e-08
7.1092240778e-09
8.24454417919e-09
2.18104154706e-08
1.56297022448e-08
3.62095614834e-08
3.02803967085e-08
1.87374121551e-08
5.54638445468e-08
3.75490234963e-08
7.60914162457e-08
3.8652069142e-08
2.37846420241e-08
5.15519038013e-09
5.21812390907e-08
3.62809835099e-10
5.14579942471e-08
9.40353390939e-09
5.90471095355e-08
1.42482137096e-08
2.75305874167e-08
2.63218826669e-08
5.89569983818e-08
5.55056177637e-09
5.98487087002e-08
1.21655569257e-08
3.04821331966e-08
9.14559194934e-08
6.52863847814e-08
9.95260516049e-08
1.17843682284e-08
4.79502832243e-08
1.40128356265e-08
4.32697828259e-08
2.13583456281e-08
1.68887916077e-08
2.3116562823e-08
1.12151555481e-08
4.86551392071e-09
1.39638579536e-08
1.83377582796e-08
4.69242669852e-08
1.57076837499e-07
4.02268169373e-07
3.4554032195e-07
2.13046684533e-07
1.81720323557e-07
6.30268954367e-08
3.59685223449e-08
1.03886039268e-08
1.26264298948e-08
2.54792496466e-08
2.58069175065e-08
4.11425258468e-08
4.68144075759e-08
5.4045709996e-08
7.59510022336e-09
7.23205896941e-09
8.27193501964e-08
3.09779414365e-08
1.09000678901e-07
2.02214627619e-08
1.13601469481e-07
1.05780022751e-08
1.13774343154e-07
1.74739636744e-09
1.77066900468e-08
1.4850430525e-07
1.98306790644e-08
8.49125802907e-08
2.49458630511e-08
8.00373376115e-08
1.32130561098e-08
6.33152072137e-08
2.25504891722e-08
4.68022013121e-08
4.20424784277e-08
3.76842024705e-08
3.61168778068e-08
2.96413959251e-08
1.06635670196e-08
1.15921748115e-07
6.21032714818e-08
2.70231078413e-07
2.63758890202e-07
3.34891245154e-07
3.5655722761e-07
4.07104742829e-07
4.15977355459e-07
1.75066032731e-07
1.85358265051e-07
8.23348287889e-08
7.31581543643e-08
9.45959427378e-09
2.57150915361e-08
2.83953191368e-08
2.75879061894e-08
4.16799815591e-08
5.93811423413e-08
6.43675147415e-08
5.38352755033e-08
3.29887590621e-08
1.2926133346e-07
2.04753161572e-08
5.5786194481e-08
1.16693099392e-07
5.20139400438e-08
9.47961384652e-08
2.32819855597e-08
1.26620476447e-07
6.25510840929e-08
8.88708980086e-08
3.45958186872e-08
5.25239342778e-08
5.85725985689e-08
4.73548332512e-08
4.8993943734e-08
2.8769312471e-08
1.78394614086e-09
3.13358404324e-08
3.35136139335e-08
3.34864925135e-08
1.31548439704e-08
1.4413658829e-07
2.05477540291e-07
7.18394735305e-08
3.68688058448e-07
4.09610775117e-07
3.58254174388e-07
2.3150697099e-07
5.97547669913e-08
5.73958877852e-08
6.5255187661e-09
3.67747830477e-09
2.6865857898e-08
2.1375719303e-08
4.23670981384e-08
6.64630603774e-08
5.31497445918e-08
8.69944959565e-08
3.15086210894e-08
6.44646442335e-08
9.92540872029e-08
6.63021913621e-08
8.67104787241e-08
5.65837894477e-08
5.82210588677e-08
5.41842895567e-08
5.59962870011e-08
5.35876557396e-08
2.78308707063e-08
3.0714379688e-08
3.58984313355e-08
4.25348718386e-08
5.59764178083e-08
5.99288713821e-08
1.84453914289e-09
5.46207334543e-08
2.397555793e-07
6.29981794609e-07
3.02201255897e-07
3.80562463368e-07
3.84132908541e-07
4.00010947255e-07
1.1475841661e-07
6.19877367392e-08
1.15030746948e-08
2.35376312877e-08
2.95914725219e-08
5.22359261959e-09
3.434814905e-08
5.0188912908e-08
5.32598736279e-08
4.75382512568e-08
4.77079089768e-08
5.90364386789e-08
4.92473943035e-08
4.78595240431e-08
3.34305994326e-08
7.21320006263e-09
2.43357037012e-08
2.05211356809e-08
7.13155253647e-09
5.66876635937e-08
1.29412105276e-07
2.28111928793e-07
3.45245810442e-07
3.56805553917e-08
7.19666750151e-08
5.14663371917e-08
2.08873364117e-07
3.82937372335e-07
3.46842556199e-07
1.26237418371e-07
3.65320454723e-08
2.40855764138e-09
7.51709210913e-08
3.76937765766e-08
2.36607272582e-08
6.34761602393e-09
3.55971911548e-08
1.36485611402e-09
3.15917538133e-08
5.7895307503e-08
3.59081063768e-08
4.27133346728e-09
2.45077266665e-08
1.51746124752e-07
3.00625722242e-07
2.76142013728e-07
5.97429547435e-08
6.18813298289e-07
6.64734506766e-07
2.0704376434e-08
2.79846909378e-07
3.69599303734e-07
7.47097008143e-08
8.40953024649e-08
6.13065136297e-08
2.45165849019e-08
1.00593006926e-07
3.66374867627e-08
6.9363149454e-08
3.46994349757e-08
9.30911294618e-09
1.9957715028e-07
9.00477831192e-08
3.45276024659e-07
4.13351976925e-07
4.86626532237e-07
4.01541803306e-07
2.59852678999e-07
2.13095229985e-07
1.27628024046e-07
3.99371397613e-09
7.10922817094e-09
1.59866024828e-09
8.00213254172e-09
6.20643600091e-08
3.43447580537e-08
3.7506567843e-07
9.419472087e-07
3.10455556553e-06
3.14736034196e-06
7.12769841331e-07
2.16011857206e-07
2.99692287776e-06
2.90414234676e-06
1.98580752172e-07
2.95061743526e-06
1.09483150243e-07
8.21962265649e-07
2.87297713825e-06
1.81572746223e-07
3.20776800609e-06
4.69247804911e-07
3.70213080877e-06
5.4180531411e-07
1.57213851284e-06
6.96811347534e-07
4.77353628075e-07
8.85588410093e-07
2.58628322264e-07
8.02691603088e-07
3.9987851272e-07
2.3106873427e-07
1.02978103207e-06
9.66450811185e-08
1.21874595251e-07
3.23812897162e-08
1.69525445603e-08
3.11849531319e-08
1.16417185358e-07
9.59237935018e-08
4.51382733723e-07
5.16946408868e-07
1.25189041506e-07
8.72986339133e-07
4.04530333615e-06
6.60366092784e-07
5.50870874264e-07
9.08192761469e-06
1.79741307263e-06
9.45157841053e-07
7.12951112585e-06
2.07945683422e-06
6.05429376758e-06
1.84161369131e-06
1.12821335601e-06
5.41349497285e-06
1.15454526459e-06
3.88068285829e-07
3.28033615885e-07
1.20226864118e-07
1.35840700764e-07
8.21354387258e-07
1.57346299232e-07
6.83502997627e-07
1.18772359731e-07
5.78878406241e-08
6.72624614227e-09
1.47561891521e-07
4.62373242806e-07
1.60469897592e-06
4.19876683185e-07
7.70801028218e-07
5.83664403618e-07
8.23703274247e-07
1.27292057413e-06
6.92616482906e-07
2.02519558462e-06
3.06783124741e-07
2.98754827879e-06