# vtk DataFile Version 3.0
File Name: Molecule/methanol/methanol_4.5-0.vtk
ASCII
DATASET UNSTRUCTURED_GRID
FIELD FieldData 1
TIME 1 1 double
0.0
POINTS 216 double
1.611 0.0 -0.359
1.529 -0.521 -0.351
1.403 0.0 -0.933
1.328 -0.474 -0.925
1.291 -0.99 -0.327
1.111 -0.902 -0.904
0.92 -1.363 -0.29
0.773 -1.241 -0.87
0.453 -1.602 -0.243
0.348 -1.459 -0.828
-0.065 -1.684 -0.192
-0.124 -1.534 -0.781
-0.583 -1.602 -0.14
-0.596 -1.459 -0.734
-1.051 -1.363 -0.094
-1.021 -1.241 -0.691
-1.421 -0.99 -0.057
-1.359 -0.902 -0.658
-1.659 -0.521 -0.033
-1.576 -0.474 -0.636
-1.742 0.0 -0.025
-1.651 0.0 -0.629
-1.659 0.521 -0.033
-1.576 0.474 -0.636
-1.421 0.99 -0.057
-1.359 0.902 -0.658
-1.051 1.363 -0.094
-1.021 1.241 -0.691
-0.583 1.602 -0.14
-0.596 1.459 -0.734
-0.065 1.684 -0.192
-0.124 1.534 -0.781
0.453 1.602 -0.243
0.348 1.459 -0.828
0.92 1.363 -0.29
0.773 1.241 -0.87
1.291 0.99 -0.327
1.111 0.902 -0.904
1.529 0.521 -0.351
1.328 0.474 -0.925
1.907 0.0 0.656
1.842 0.489 0.656
1.842 0.244 1.079
1.842 -0.244 1.079
1.842 -0.489 0.656
1.842 -0.244 0.233
1.842 0.244 0.233
1.654 0.817 1.127
1.654 0.472 1.473
1.654 -0.0 1.599
1.654 -0.472 1.473
1.654 -0.817 1.127
1.654 -0.944 0.656
1.654 -0.817 0.184
1.654 0.817 0.184
1.654 0.944 0.656
1.354 1.245 1.138
1.354 0.986 1.555
1.354 0.595 1.85
1.354 0.123 1.985
1.354 -0.365 1.939
1.354 -0.804 1.721
1.354 -1.135 1.358
1.354 -1.312 0.901
1.354 -1.312 0.41
1.354 -1.135 -0.047
1.354 1.245 0.173
1.354 1.335 0.656
0.963 1.562 1.137
0.963 1.351 1.576
0.963 1.019 1.934
0.963 0.597 2.177
0.963 0.122 2.286
0.963 -0.364 2.249
0.963 -0.817 2.071
0.963 -1.198 1.767
0.963 -1.473 1.365
0.963 -1.616 0.899
0.963 -1.616 0.412
0.963 -1.473 -0.054
0.963 1.562 0.174
0.963 1.635 0.656
0.508 1.761 1.127
0.508 1.579 1.567
0.508 1.289 1.945
0.508 0.912 2.235
0.508 0.472 2.417
0.508 0.0 2.479
0.508 -0.472 2.417
0.508 -0.912 2.235
0.508 -1.289 1.945
0.508 -1.579 1.567
0.508 -1.761 1.127
0.508 -1.823 0.656
0.508 -1.761 0.184
0.508 1.761 0.184
0.508 1.823 0.656
0.019 1.828 1.125
0.019 1.654 1.565
0.019 1.376 1.948
0.019 1.011 2.249
0.019 0.583 2.451
0.019 0.119 2.539
0.019 -0.354 2.51
0.019 -0.804 2.363
0.019 -1.203 2.11
0.019 -1.527 1.765
0.019 -1.755 1.35
0.019 -1.873 0.892
0.019 -1.873 0.419
0.019 1.828 0.186
0.019 1.888 0.656
-0.47 1.823 0.656
-0.47 1.761 1.127
-0.47 1.579 1.567
-0.47 1.289 1.945
-0.47 0.912 2.235
-0.47 0.472 2.417
-0.47 0.0 2.479
-0.47 -0.472 2.417
-0.47 -0.912 2.235
-0.47 -1.289 1.945
-0.47 -1.579 1.567
-0.47 -1.761 1.127
-0.47 -1.823 0.656
-0.47 -1.761 0.184
-0.47 1.761 0.184
-0.925 1.635 0.656
-0.925 1.562 1.137
-0.925 1.351 1.576
-0.925 1.019 1.934
-0.925 0.597 2.177
-0.925 0.122 2.286
-0.925 -0.364 2.249
-0.925 -0.817 2.071
-0.925 -1.198 1.767
-0.925 -1.473 1.365
-0.925 -1.616 0.899
-0.925 -1.616 0.412
-0.925 1.562 0.174
-1.316 1.335 0.656
-1.316 1.245 1.138
-1.316 0.986 1.555
-1.316 0.595 1.85
-1.316 0.123 1.985
-1.316 -0.365 1.939
-1.316 -0.804 1.721
-1.316 -1.135 1.358
-1.316 -1.312 0.901
-1.316 -1.312 0.41
-1.316 1.245 0.173
-1.616 0.944 0.656
-1.616 0.817 1.127
-1.616 0.472 1.473
-1.616 -0.0 1.599
-1.616 -0.472 1.473
-1.616 -0.817 1.127
-1.616 -0.944 0.656
-1.804 0.489 0.656
-1.804 0.244 1.079
-1.804 -0.244 1.079
-1.804 -0.489 0.656
-1.868 0.0 0.656
-1.804 -0.244 0.233
-1.804 0.244 0.233
1.122 -0.591 -1.419
0.783 -1.147 -1.212
0.783 -0.878 -1.615
0.783 -0.475 -1.885
1.122 -0.128 -1.63
0.783 0.0 -1.979
1.122 0.375 -1.558
0.783 0.475 -1.885
0.783 0.878 -1.615
1.122 0.759 -1.225
0.783 1.147 -1.212
0.355 -1.284 -1.432
0.355 -0.989 -1.811
0.355 -0.586 -2.074
0.355 -0.121 -2.192
0.355 0.358 -2.152
0.355 0.798 -1.959
0.355 1.152 -1.634
0.355 1.381 -1.211
-0.12 -1.46 -1.212
-0.12 -1.242 -1.639
-0.12 -0.902 -1.979
-0.12 -0.474 -2.197
-0.12 0.0 -2.272
-0.12 0.474 -2.197
-0.12 0.902 -1.979
-0.12 1.242 -1.639
-0.12 1.46 -1.212
-0.594 -1.44 -0.977
-0.594 -1.284 -1.432
-0.594 -0.989 -1.811
-0.594 -0.586 -2.074
-0.594 -0.121 -2.192
-0.594 0.358 -2.152
-0.594 0.798 -1.959
-0.594 1.152 -1.634
-0.594 1.381 -1.211
-1.022 -1.147 -1.212
-1.022 -0.878 -1.615
-1.022 -0.475 -1.885
-1.022 0.0 -1.979
-1.022 0.475 -1.885
-1.022 0.878 -1.615
-1.022 1.147 -1.212
-1.362 -0.866 -0.991
-1.362 -0.591 -1.419
-1.362 -0.128 -1.63
-1.362 0.375 -1.558
-1.362 0.759 -1.225
-1.58 -0.237 -1.148
-1.58 0.237 -1.148

CELLS 428 1712
3 0 1 2
3 2 1 3
3 1 4 3
3 3 4 5
3 4 6 5
3 5 6 7
3 6 8 7
3 7 8 9
3 8 10 9
3 9 10 11
3 10 12 11
3 11 12 13
3 12 14 13
3 13 14 15
3 14 16 15
3 15 16 17
3 16 18 17
3 17 18 19
3 18 20 19
3 19 20 21
3 20 22 21
3 21 22 23
3 22 24 23
3 23 24 25
3 24 26 25
3 25 26 27
3 26 28 27
3 27 28 29
3 28 30 29
3 29 30 31
3 30 32 31
3 31 32 33
3 32 34 33
3 33 34 35
3 34 36 35
3 35 36 37
3 36 38 37
3 37 38 39
3 38 0 39
3 39 0 2
3 40 41 42
3 40 42 43
3 40 43 44
3 40 44 45
3 40 45 46
3 40 46 41
3 42 41 47
3 42 47 48
3 42 48 49
3 43 42 49
3 43 49 50
3 43 50 51
3 44 43 51
3 44 51 52
3 44 52 53
3 45 44 53
3 41 46 54
3 41 54 55
3 41 55 47
3 47 55 56
3 47 56 57
3 48 47 57
3 48 57 58
3 48 58 59
3 49 48 59
3 49 59 60
3 50 49 60
3 50 60 61
3 51 50 61
3 51 61 62
3 51 62 63
3 52 51 63
3 52 63 64
3 53 52 64
3 53 64 65
3 55 54 66
3 55 66 67
3 55 67 56
3 56 67 68
3 56 68 69
3 57 56 69
3 57 69 70
3 58 57 70
3 58 70 71
3 59 58 71
3 59 71 72
3 59 72 73
3 60 59 73
3 60 73 74
3 61 60 74
3 61 74 75
3 62 61 75
3 62 75 76
3 63 62 76
3 63 76 77
3 63 77 78
3 64 63 78
3 64 78 79
3 65 64 79
3 67 66 80
3 67 80 81
3 67 81 68
3 68 81 82
3 68 82 83
3 69 68 83
3 69 83 84
3 70 69 84
3 70 84 85
3 71 70 85
3 71 85 86
3 72 71 86
3 72 86 87
3 73 72 87
3 73 87 88
3 74 73 88
3 74 88 89
3 74 89 90
3 75 74 90
3 75 90 91
3 76 75 91
3 76 91 92
3 77 76 92
3 77 92 93
3 78 77 93
3 78 93 94
3 79 78 94
3 81 80 95
3 81 95 96
3 81 96 82
3 82 96 97
3 82 97 98
3 83 82 98
3 83 98 99
3 84 83 99
3 84 99 100
3 85 84 100
3 85 100 101
3 86 85 101
3 86 101 102
3 87 86 102
3 87 102 103
3 88 87 103
3 88 103 104
3 89 88 104
3 89 104 105
3 90 89 105
3 90 105 106
3 91 90 106
3 91 106 107
3 92 91 107
3 92 107 108
3 93 92 108
3 93 108 109
3 94 93 109
3 96 95 110
3 96 110 111
3 96 111 97
3 97 111 112
3 97 112 113
3 98 97 113
3 98 113 114
3 99 98 114
3 99 114 115
3 100 99 115
3 100 115 116
3 101 100 116
3 101 116 117
3 102 101 117
3 102 117 118
3 103 102 118
3 103 118 119
3 104 103 119
3 104 119 120
3 105 104 120
3 105 120 121
3 106 105 121
3 106 121 122
3 107 106 122
3 107 122 123
3 108 107 123
3 108 123 124
3 109 108 124
3 109 124 125
3 112 110 126
3 111 110 112
3 113 112 127
3 113 127 128
3 114 113 128
3 114 128 129
3 115 114 129
3 115 129 130
3 116 115 130
3 116 130 131
3 117 116 131
3 117 131 132
3 118 117 132
3 118 132 133
3 119 118 133
3 119 133 134
3 120 119 134
3 121 120 134
3 121 134 135
3 122 121 135
3 122 135 136
3 123 122 136
3 123 136 137
3 124 123 137
3 124 137 138
3 125 124 138
3 127 126 139
3 112 126 127
3 128 127 140
3 128 140 141
3 129 128 141
3 129 141 142
3 130 129 142
3 130 142 143
3 131 130 143
3 131 143 144
3 132 131 144
3 133 132 144
3 133 144 145
3 134 133 145
3 134 145 146
3 135 134 146
3 135 146 147
3 136 135 147
3 136 147 148
3 137 136 148
3 137 148 149
3 138 137 149
3 140 139 150
3 127 139 140
3 141 140 151
3 141 151 152
3 142 141 152
3 142 152 153
3 143 142 153
3 144 143 153
3 144 153 154
3 145 144 154
3 145 154 155
3 146 145 155
3 146 155 156
3 147 146 156
3 148 147 156
3 148 156 157
3 149 148 157
3 140 150 151
3 152 151 158
3 152 158 159
3 153 152 159
3 154 153 159
3 154 159 160
3 155 154 160
3 156 155 160
3 156 160 161
3 157 156 161
3 159 158 162
3 160 159 162
3 161 160 162
3 163 161 162
3 164 163 162
3 158 164 162
3 164 158 22
3 164 22 20
3 164 20 163
3 163 20 18
3 163 18 161
3 161 18 157
3 157 18 16
3 157 16 149
3 149 16 14
3 149 14 138
3 138 14 12
3 138 12 125
3 125 12 10
3 125 10 109
3 109 10 94
3 94 10 8
3 94 8 79
3 79 8 6
3 79 6 65
3 65 6 4
3 65 4 53
3 53 4 1
3 53 1 45
3 45 1 0
3 45 0 46
3 46 0 38
3 46 38 54
3 54 38 36
3 54 36 66
3 66 36 34
3 66 34 80
3 80 34 32
3 80 32 95
3 95 32 110
3 110 32 30
3 110 30 126
3 126 30 28
3 126 28 139
3 139 28 26
3 139 26 150
3 150 26 24
3 150 24 151
3 151 24 22
3 151 22 158
3 165 166 167
3 165 167 168
3 169 165 168
3 169 168 170
3 171 169 170
3 171 170 172
3 171 172 173
3 174 171 173
3 174 173 175
3 167 166 176
3 167 176 177
3 168 167 177
3 168 177 178
3 168 178 179
3 170 168 179
3 170 179 180
3 172 170 180
3 172 180 181
3 173 172 181
3 173 181 182
3 175 173 182
3 175 182 183
3 176 184 185
3 177 176 185
3 177 185 186
3 178 177 186
3 178 186 187
3 179 178 187
3 179 187 188
3 180 179 188
3 180 188 189
3 181 180 189
3 181 189 190
3 182 181 190
3 182 190 191
3 183 182 191
3 183 191 192
3 184 193 194
3 185 184 194
3 185 194 195
3 186 185 195
3 186 195 196
3 187 186 196
3 187 196 197
3 188 187 197
3 188 197 198
3 189 188 198
3 189 198 199
3 190 189 199
3 190 199 200
3 191 190 200
3 191 200 201
3 192 191 201
3 194 193 202
3 194 202 203
3 195 194 203
3 195 203 204
3 196 195 204
3 197 196 204
3 197 204 205
3 198 197 205
3 198 205 206
3 199 198 206
3 199 206 207
3 200 199 207
3 200 207 208
3 201 200 208
3 202 209 210
3 203 202 210
3 204 203 210
3 204 210 211
3 205 204 211
3 205 211 212
3 206 205 212
3 207 206 212
3 207 212 213
3 208 207 213
3 210 209 214
3 211 210 214
3 211 214 215
3 212 211 215
3 213 212 215
3 213 215 23
3 213 23 25
3 213 25 208
3 208 25 27
3 208 27 201
3 201 27 29
3 201 29 31
3 201 31 192
3 192 31 33
3 192 33 183
3 183 33 35
3 183 35 175
3 175 35 37
3 175 37 174
3 174 37 39
3 174 39 171
3 171 39 2
3 171 2 169
3 169 2 3
3 169 3 165
3 165 3 5
3 165 5 166
3 166 5 7
3 166 7 9
3 166 9 176
3 176 9 184
3 184 9 11
3 184 11 193
3 193 11 13
3 193 13 15
3 193 15 202
3 202 15 209
3 209 15 17
3 209 17 19
3 209 19 214
3 214 19 21
3 214 21 215
3 215 21 23

CELL_TYPES 428
5
5
5
5
5
5
5
5
5
5
5
5
5
5
5
5
5
5
5
5
5
5
5
5
5
5
5
5
5
5
5
5
5
5
5
5
5
5
5
5
5
5
5
5
5
5
5
5
5
5
5
5
5
5
5
5
5
5
5
5
5
5
5
5
5
5
5
5
5
5
5
5
5
5
5
5
5
5
5
5
5
5
5
5
5
5
5
5
5
5
5
5
5
5
5
5
5
5
5
5
5
5
5
5
5
5
5
5
5
5
5
5
5
5
5
5
5
5
5
5
5
5
5
5
5
5
5
5
5
5
5
5
5
5
5
5
5
5
5
5
5
5
5
5
5
5
5
5
5
5
5
5
5
5
5
5
5
5
5
5
5
5
5
5
5
5
5
5
5
5
5
5
5
5
5
5
5
5
5
5
5
5
5
5
5
5
5
5
5
5
5
5
5
5
5
5
5
5
5
5
5
5
5
5
5
5
5
5
5
5
5
5
5
5
5
5
5
5
5
5
5
5
5
5
5
5
5
5
5
5
5
5
5
5
5
5
5
5
5
5
5
5
5
5
5
5
5
5
5
5
5
5
5
5
5
5
5
5
5
5
5
5
5
5
5
5
5
5
5
5
5
5
5
5
5
5
5
5
5
5
5
5
5
5
5
5
5
5
5
5
5
5
5
5
5
5
5
5
5
5
5
5
5
5
5
5
5
5
5
5
5
5
5
5
5
5
5
5
5
5
5
5
5
5
5
5
5
5
5
5
5
5
5
5
5
5
5
5
5
5
5
5
5
5
5
5
5
5
5
5
5
5
5
5
5
5
5
5
5
5
5
5
5
5
5
5
5
5
5
5
5
5
5
5
5
5
5
5
5
5
5
5
5
5
5
5
5
5
5
5
5
5
5
5
5
5
5
5
5
5
5
5
5
5
5
5
5
5
5
5
5
5
5
5
5
5
5
5
5
5
5
5
5
5
5
5
5
5

CELL_DATA 428
SCALARS cell_data_0 double
LOOKUP_TABLE default
2.56099691927e-08
2.15076790564e-08
5.830383838e-09
1.22945530845e-08
1.22159579211e-09
2.11488587258e-09
2.40027544887e-11
2.00160990581e-10
1.58274400069e-10
9.40050018673e-11
4.44346200523e-10
8.38071830772e-10
4.61616367687e-10
1.80916910577e-10
2.79838060455e-10
6.50069072754e-10
7.51111280278e-10
6.36356601292e-10
9.73721508129e-10
4.78605317928e-10
4.95258598989e-10
2.42880198485e-10
3.90177446901e-10
2.99071312921e-10
3.32659303404e-10
2.63726336513e-11
2.29974000214e-10
1.29170962612e-12
8.26161089414e-11
1.92566454705e-10
2.11901482873e-10
1.48724312094e-11
7.54568588027e-11
4.74485093748e-11
3.09106463494e-10
1.09120807751e-09
5.28539998958e-10
2.89278277602e-09
1.46920186684e-08
2.32076157768e-08
1.60218316328e-09
5.78084771934e-10
2.56489238916e-09
2.67262943504e-10
3.9300620317e-09
3.83809288937e-10
9.58166636466e-12
4.49726341975e-11
2.11345824824e-10
8.86979364014e-10
8.04413363143e-10
7.11440814362e-10
1.62016206504e-09
6.6555847756e-10
6.95164456169e-10
2.09386313612e-09
1.89209901091e-09
1.61156914475e-10
3.4240217111e-10
5.79865281332e-11
4.63497746911e-12
2.43207026994e-10
1.48285535829e-10
4.95194470014e-11
3.93358379956e-10
1.81369326401e-10
3.82355652557e-11
1.20044968635e-10
2.38640227181e-10
3.44228322803e-10
7.09251981329e-10
5.19571251692e-10
1.51652505452e-09
2.10873367343e-09
3.84568846384e-10
3.14987209039e-12
1.48233182307e-10
4.16328798102e-11
1.13692328145e-11
3.4117232837e-12
2.29522696361e-11
7.28436504775e-12
4.18400987383e-11
3.15826958216e-11
1.61905151622e-10
7.96534474915e-11
5.3475274071e-11
6.93591141865e-11
3.11525781912e-11
1.25664779782e-10
1.54188678777e-10
4.46310864047e-11
1.4090514023e-10
2.987619554e-10
3.90933129018e-10
2.40912314906e-10
2.18593551594e-10
6.40890217718e-10
6.90031569634e-10
1.41361872024e-10
2.41764188597e-11
9.55027445712e-12
1.39473363416e-11
1.83542600419e-11
1.17480734254e-11
2.55181620263e-12
1.58690559282e-11
1.38934488455e-11
1.41922527272e-11
4.86831689353e-12
2.36731528801e-11
1.28501752443e-11
4.32926946949e-11
7.71335765381e-12
6.60608824235e-11
7.59608367072e-11
4.39994580671e-11
7.68347211755e-14
3.65066656083e-12
3.1056491499e-11
3.04462199931e-11
6.42193114078e-11
1.82624680773e-11
1.22867006923e-10
5.78694706809e-11
1.29187979239e-10
2.70684968542e-11
3.79399053178e-12
9.05499629992e-12
1.47625404246e-11
3.26971673456e-12
1.33720566223e-13
7.50155152263e-12
2.85611395143e-12
2.84652953826e-12
4.59367290069e-12
4.11204200525e-12
3.6229670787e-12
7.79726692508e-13
9.63834560545e-12
5.01149448605e-13
2.49015178159e-11
1.43440601335e-12
1.25295796016e-12
7.56835469497e-12
4.53628772596e-12
1.41443552368e-11
2.03990588977e-11
2.26207644923e-11
3.43507438382e-11
2.84191116479e-11
3.23378666844e-11
9.7990668316e-11
8.63168313727e-11
2.23723715884e-11
7.43003214313e-13
1.11952827924e-11
4.33276163461e-12
1.6486133491e-12
1.26652934924e-11
4.24903153317e-12
1.21261751764e-11
8.68155060587e-12
1.59567468801e-11
1.58509767226e-11
2.58716065839e-12
4.93844858819e-12
7.92518158984e-12
7.74089890151e-12
9.99180801028e-12
3.84815440636e-12
1.5729926013e-11
9.70191293093e-12
4.06051926181e-13
3.4320645978e-11
1.44273978763e-11
1.54269728032e-11
2.49159812122e-11
1.14699734943e-11
1.85911066927e-14
8.4279401856e-12
1.07029728393e-11
7.11933793143e-11
1.01412193303e-11
7.89781989984e-12
1.25163651121e-11
9.5278996635e-12
9.75319350784e-12
3.65977834996e-12
1.67784226764e-11
1.3229201834e-11
2.35018037704e-12
2.8692949585e-12
7.97339676767e-12
7.392465788e-12
5.3564779476e-12
8.76083698323e-12
1.25633197533e-11
2.01298922548e-11
9.84588185334e-12
3.09400954991e-11
2.12161797126e-11
4.50412825531e-11
2.25362326482e-11
3.12360014923e-11
2.28261162925e-11
4.33014190613e-11
3.99244360346e-11
1.48666149332e-10
1.43216586315e-10
2.1845409069e-12
6.76218503112e-11
7.80248753021e-11
6.84149924721e-12
1.64408811458e-11
1.83449329346e-11
6.64057504122e-12
3.01389312104e-11
1.33543909542e-11
1.58410405204e-11
1.50977155217e-11
1.08386288743e-11
1.12710364072e-11
7.57186881214e-12
2.50303088813e-11
2.80524994081e-11
3.59988200911e-11
4.64631305444e-11
7.16810488899e-11
1.23839286301e-10
1.41841698529e-10
2.00489979876e-10
8.08432156343e-11
1.52592654693e-11
1.65928226963e-11
4.36640462813e-11
3.35918894301e-11
2.91120394843e-11
1.06642265449e-11
1.56449515581e-11
2.82958505552e-11
4.35562085843e-12
2.37072704222e-11
2.26277011909e-11
2.8137498528e-11
1.03407943816e-10
7.62958413797e-11
1.15541921326e-10
2.9189482768e-10
1.09817875583e-10
2.66818491741e-11
5.00951476507e-11
2.33078083886e-12
9.35112073602e-12
4.24338939541e-12
4.28439691783e-11
4.10888295227e-11
1.58226549869e-10
3.7421335989e-10
1.94977722937e-10
3.27409080551e-10
1.05167614275e-10
3.87472215677e-10
9.03991957907e-10
7.05009215986e-10
3.27892080482e-11
2.58460759427e-10
6.82599448574e-10
1.56968109589e-10
7.44589437989e-10
7.70424991304e-10
6.58426737974e-10
3.2111543428e-10
4.04945596089e-10
1.9575972469e-10
2.57117411416e-10
1.32781545033e-10
2.99385633659e-10
1.54425245355e-10
4.79385956401e-11
3.77617976759e-11
2.84756995393e-11
4.67896432602e-11
6.92884515193e-10
6.39113764759e-10
6.69781328635e-09
1.53692453941e-08
1.08253685065e-09
1.82865506726e-09
1.14621981864e-08
3.98715020918e-09
3.72468658018e-10
3.32280871105e-11
1.06816425772e-10
6.32586381886e-11
1.02011552519e-11
9.01624603398e-12
2.45150598059e-11
5.39184200576e-11
3.32898467023e-11
7.2024504064e-11
1.2788744073e-10
5.17114948926e-11
1.87922928279e-10
7.42505002457e-11
5.84930390659e-10
5.48757217973e-10
7.8458287498e-10
7.81108769708e-09
1.68694360487e-08
1.45758801216e-08
3.90168134505e-09
5.70019378299e-09
1.27812279332e-08
1.11489960186e-08
1.68116578635e-08
9.84094611285e-09
5.87372559241e-09
1.0847790569e-08
1.1244015153e-08
1.11524900893e-08
1.69619826078e-08
1.27852745117e-08
1.49199059434e-09
8.327647158e-09
1.63047392032e-09
7.8019263663e-09
5.45758177482e-10
5.9010516412e-10
1.70408518637e-10
9.06571633313e-11
3.82178948343e-10
2.98991780403e-10
5.16827516979e-10
4.03466574366e-10
3.02031203573e-10
4.73129366727e-10
6.84499974689e-10
6.40659006705e-10
1.34856472355e-10
3.31529077072e-10
7.00584933923e-10
1.55598399111e-10
3.33586822735e-11
8.02701034661e-10
6.90368450169e-10
1.17343284057e-11
7.35992964893e-11
4.56459172321e-10
3.20277384042e-10
1.17280115742e-09
3.50104159454e-11
2.16744687217e-09
1.47298675518e-10
1.85602789767e-09
2.23867561394e-10
1.47495210384e-09
2.59787821837e-10
8.91180304782e-10
6.0172730406e-11
1.22535359267e-10
2.93551769904e-10
1.49174846444e-10
2.18273203856e-10
1.72063386555e-10
4.95658156696e-10
1.5123267749e-09
3.67235717374e-10
1.75600346142e-09
5.20555051421e-11
9.98667965474e-10
1.6801069242e-10
1.1185658934e-09
5.15013260875e-10
1.09849917608e-10
1.1398507545e-10
8.33081390602e-11
2.29866287441e-10
1.75080069523e-10
5.07542418139e-10
1.42105447459e-10
9.73404329839e-10
1.07021486707e-10
4.04771842997e-10
1.05806968398e-10
3.65695553571e-11
1.82074498899e-10
7.05792217341e-11
7.72576958023e-10
5.6276500358e-11
7.4364820225e-10
3.86413190138e-10
2.64142979126e-10
1.52086542354e-10
1.94228616135e-10
1.14420378925e-10
3.24348954048e-10
3.14920199083e-10
5.2046874512e-10
2.68056220292e-10
4.21707980728e-10
4.20125642688e-10
9.02117791051e-10
4.71807255192e-09
7.79530260418e-09
1.04930764876e-08
5.44879147171e-09
7.9688090416e-09
2.35909123048e-08
1.08704105523e-08
1.50270871402e-08
4.55946604992e-08
1.97301480754e-08
1.65861619231e-08
2.60121006671e-08
2.0085525797e-10
8.97585721891e-11
3.60494488242e-10
4.97789589607e-11
1.13023407808e-10
3.93378798086e-10
7.19817891401e-11
2.33333562681e-10
1.86000795239e-10
9.73158994218e-12
1.8999462522e-10
1.42436539824e-11
9.0827133927e-11

