# vtk DataFile Version 3.0
File Name: Molecule/methanol/methanol_2.0-2.vtk
ASCII
DATASET UNSTRUCTURED_GRID
FIELD FieldData 1
TIME 1 1 double
0.0
POINTS 102 double
1.611 0.0 -0.359
1.445 -0.731 -0.342
1.403 0.0 -0.933
1.252 -0.666 -0.918
0.98 -1.317 -0.296
0.828 -1.2 -0.876
0.308 -1.642 -0.229
0.216 -1.496 -0.815
-0.438 -1.642 -0.155
-0.464 -1.496 -0.747
-1.11 -1.317 -0.088
-1.076 -1.2 -0.686
-1.576 -0.731 -0.042
-1.5 -0.666 -0.644
-1.742 0.0 -0.025
-1.651 0.0 -0.629
-1.576 0.731 -0.042
-1.5 0.666 -0.644
-1.11 1.317 -0.088
-1.076 1.2 -0.686
-0.438 1.642 -0.155
-0.464 1.496 -0.747
0.308 1.642 -0.229
0.216 1.496 -0.815
0.98 1.317 -0.296
0.828 1.2 -0.876
1.445 0.731 -0.342
1.252 0.666 -0.918
1.907 0.0 0.656
1.763 0.722 0.656
1.763 0.361 1.281
1.763 -0.361 1.281
1.763 -0.722 0.656
1.763 -0.361 0.03
1.763 0.361 0.03
1.354 1.123 1.377
1.354 0.554 1.87
1.354 -0.19 1.977
1.354 -0.874 1.664
1.354 -1.281 1.032
1.354 -1.281 0.28
1.354 1.335 0.656
0.741 1.571 1.412
0.741 1.087 2.019
0.741 0.388 2.356
0.741 -0.388 2.356
0.741 -1.087 2.019
0.741 -1.571 1.412
0.741 -1.744 0.656
0.741 1.744 0.656
0.019 1.744 1.378
0.019 1.335 1.99
0.019 0.722 2.399
0.019 -0.0 2.543
0.019 -0.722 2.399
0.019 -1.335 1.99
0.019 -1.744 1.378
0.019 -1.888 0.656
0.019 1.888 0.656
-0.703 1.744 0.656
-0.703 1.571 1.412
-0.703 1.087 2.019
-0.703 0.388 2.356
-0.703 -0.388 2.356
-0.703 -1.087 2.019
-0.703 -1.571 1.412
-0.703 -1.744 0.656
-1.316 1.335 0.656
-1.316 1.123 1.377
-1.316 0.554 1.87
-1.316 -0.19 1.977
-1.316 -0.874 1.664
-1.316 -1.281 1.032
-1.725 0.722 0.656
-1.725 0.361 1.281
-1.725 -0.361 1.281
-1.725 -0.722 0.656
-1.868 0.0 0.656
0.648 -0.871 -1.742
-0.12 -1.149 -1.755
-0.12 -0.544 -2.172
0.648 -0.189 -2.053
-0.12 0.185 -2.261
0.648 0.552 -1.946
-0.12 0.872 -2.0
0.648 1.118 -1.456
-0.12 1.359 -1.451
-0.887 -1.276 -1.112
-0.887 -0.871 -1.742
-0.887 -0.189 -2.053
-0.887 0.552 -1.946
-0.887 1.118 -1.456
-1.449 -0.384 -1.402
-1.449 0.384 -1.402
1.21 0.384 -1.402
1.21 -0.384 -1.402
0.929 0.0975 -1.7275
0.929 0.468 -1.674
0.648 0.1815 -1.9995
0.929 -0.6275 -1.572
0.929 -0.2865 -1.7275
0.648 -0.53 -1.8975

CELLS 200 800
3 0 1 2
3 2 1 3
3 1 4 3
3 3 4 5
3 4 6 5
3 5 6 7
3 6 8 7
3 7 8 9
3 8 10 9
3 9 10 11
3 10 12 11
3 11 12 13
3 12 14 13
3 13 14 15
3 14 16 15
3 15 16 17
3 16 18 17
3 17 18 19
3 18 20 19
3 19 20 21
3 20 22 21
3 21 22 23
3 22 24 23
3 23 24 25
3 24 26 25
3 25 26 27
3 26 0 27
3 27 0 2
3 28 29 30
3 28 30 31
3 28 31 32
3 28 32 33
3 28 33 34
3 28 34 29
3 30 29 35
3 30 35 36
3 30 36 37
3 31 30 37
3 31 37 38
3 31 38 39
3 32 31 39
3 32 39 40
3 33 32 40
3 29 41 35
3 35 41 42
3 35 42 43
3 36 35 43
3 36 43 44
3 37 36 44
3 37 44 45
3 38 37 45
3 38 45 46
3 38 46 47
3 39 38 47
3 39 47 48
3 40 39 48
3 41 49 42
3 42 49 50
3 42 50 51
3 43 42 51
3 43 51 52
3 44 43 52
3 44 52 53
3 45 44 53
3 45 53 54
3 46 45 54
3 46 54 55
3 47 46 55
3 47 55 56
3 48 47 56
3 48 56 57
3 49 58 50
3 50 58 59
3 50 59 60
3 51 50 60
3 51 60 61
3 52 51 61
3 52 61 62
3 53 52 62
3 53 62 63
3 54 53 63
3 54 63 64
3 55 54 64
3 55 64 65
3 56 55 65
3 56 65 66
3 57 56 66
3 60 59 67
3 60 67 68
3 61 60 68
3 61 68 69
3 62 61 69
3 62 69 70
3 63 62 70
3 63 70 71
3 64 63 71
3 65 64 71
3 65 71 72
3 66 65 72
3 68 67 73
3 68 73 74
3 69 68 74
3 70 69 74
3 70 74 75
3 71 70 75
3 72 71 75
3 72 75 76
3 74 73 77
3 75 74 77
3 76 75 77
3 76 77 14
3 76 14 12
3 76 12 10
3 76 10 72
3 72 10 66
3 66 10 8
3 66 8 57
3 57 8 6
3 57 6 48
3 48 6 4
3 48 4 40
3 40 4 1
3 40 1 33
3 33 1 0
3 33 0 34
3 34 0 26
3 34 26 29
3 29 26 41
3 41 26 24
3 41 24 49
3 49 24 22
3 49 22 58
3 58 22 20
3 58 20 59
3 59 20 18
3 59 18 67
3 67 18 16
3 67 16 73
3 73 16 14
3 73 14 77
3 78 79 80
3 81 80 82
3 83 82 84
3 85 83 84
3 85 84 86
3 79 87 88
3 80 79 88
3 80 88 89
3 82 80 89
3 82 89 90
3 84 82 90
3 84 90 91
3 86 84 91
3 88 87 92
3 89 88 92
3 89 92 93
3 90 89 93
3 91 90 93
3 91 93 17
3 91 17 19
3 91 19 21
3 91 21 86
3 86 21 23
3 86 23 85
3 85 23 25
3 85 25 27
3 85 27 94
3 94 27 2
3 94 2 95
3 95 2 3
3 78 3 5
3 78 5 7
3 78 7 79
3 79 7 9
3 79 9 87
3 87 9 11
3 87 11 13
3 87 13 92
3 92 13 15
3 92 15 93
3 93 15 17
3 95 96 94
3 94 96 97
3 96 98 97
3 96 81 98
3 97 98 83
3 94 97 85
3 97 83 85
3 83 98 82
3 98 81 82
3 95 99 100
3 99 101 100
3 99 78 101
3 100 101 81
3 81 101 80
3 101 78 80
3 78 99 3
3 3 99 95
3 95 100 96
3 96 100 81

CELL_TYPES 200
5
5
5
5
5
5
5
5
5
5
5
5
5
5
5
5
5
5
5
5
5
5
5
5
5
5
5
5
5
5
5
5
5
5
5
5
5
5
5
5
5
5
5
5
5
5
5
5
5
5
5
5
5
5
5
5
5
5
5
5
5
5
5
5
5
5
5
5
5
5
5
5
5
5
5
5
5
5
5
5
5
5
5
5
5
5
5
5
5
5
5
5
5
5
5
5
5
5
5
5
5
5
5
5
5
5
5
5
5
5
5
5
5
5
5
5
5
5
5
5
5
5
5
5
5
5
5
5
5
5
5
5
5
5
5
5
5
5
5
5
5
5
5
5
5
5
5
5
5
5
5
5
5
5
5
5
5
5
5
5
5
5
5
5
5
5
5
5
5
5
5
5
5
5
5
5
5
5
5
5
5
5
5
5
5
5
5
5
5
5
5
5
5
5
5
5
5
5
5
5

CELL_DATA 200
SCALARS cell_data_0 double
LOOKUP_TABLE default
2.06126621034e-06
2.9275029093e-06
5.75393120263e-07
8.77365832803e-07
5.8057189249e-08
1.99797938866e-08
9.16335257356e-08
1.2992368062e-07
9.5312924758e-09
1.6611038138e-07
5.94277506663e-08
1.40263268141e-07
9.55885660703e-08
1.19291441323e-07
1.46120127339e-07
1.3024206601e-07
1.70566587558e-07
3.44925224336e-08
1.99689135e-07
4.6407606074e-08
2.4287694136e-07
7.44179205355e-08
2.38876755016e-07
2.32508008955e-07
8.05139688296e-08
1.01867915988e-07
1.75376439032e-08
2.72167501343e-06
2.71801752444e-09
1.2890738275e-09
5.9377387159e-09
1.80149860702e-09
3.41782501505e-08
1.18409136522e-09
1.7108063557e-09
2.34407711517e-09
5.37822955268e-10
1.4987108724e-10
5.99871263831e-09
7.86625102227e-10
1.44171839074e-08
6.30884055635e-10
4.60533395834e-08
4.42762933974e-10
2.86513032784e-10
1.42862541025e-09
1.09980798865e-09
1.34666708621e-09
1.22604750683e-09
8.32194337363e-10
1.32377760033e-09
6.73704130755e-10
1.37024673495e-09
2.95872403424e-09
2.61392827681e-09
5.18861308523e-09
1.75427383104e-09
5.17794242117e-10
3.97342672453e-09
3.55510937385e-11
1.85157007081e-09
5.15564181897e-10
1.09897780219e-09
7.21154069608e-11
1.45293914216e-09
6.62453325264e-10
9.92169793621e-10
6.15394257007e-10
3.0182519387e-09
2.28315895845e-09
1.35122190397e-09
8.35585604157e-10
4.42671476206e-09
2.42207645003e-09
5.54840212006e-09
2.96716901626e-10
1.92282111045e-09
3.49863886368e-12
6.43768624999e-10
1.99283564714e-10
4.4912715367e-10
2.83193245713e-10
8.74655592639e-10
2.4543187241e-10
6.17481694791e-09
3.94918456894e-10
3.38852213879e-09
1.23506580136e-08
1.57543994762e-10
5.56790219309e-09
1.83832654501e-09
1.42453823569e-09
2.1317429033e-09
1.26279841043e-09
2.79668659599e-09
3.40650739662e-09
1.18802778408e-09
1.73781540072e-09
2.46062763588e-09
1.31305365898e-08
1.31733292043e-09
3.814829824e-09
4.1597763755e-10
1.33893797853e-08
8.56475440824e-09
6.54355281167e-09
2.42815697944e-09
1.08419110866e-08
8.091889476e-09
8.8845826543e-09
5.01169890165e-08
2.160453855e-07
1.63619030747e-07
2.38756622829e-07
8.76614745268e-08
1.95633835222e-07
1.05670835912e-07
1.50001487169e-07
9.70181897361e-08
8.8328952854e-08
5.72864392847e-08
2.10600969256e-08
9.74354128368e-08
1.1927892579e-07
6.98930679644e-10
1.63406458361e-08
2.19668221053e-08
3.22920430333e-09
7.57071460335e-08
1.36533677943e-08
7.13043682336e-08
3.21934630426e-09
1.65012162659e-07
1.86508201506e-08
2.01074936837e-07
2.88838993378e-08
1.94414734507e-07
3.83139694552e-08
1.81631979517e-07
5.1474545803e-08
7.52290173239e-07
9.13688661953e-07
1.09082390142e-06
1.16092098372e-06
1.44731862921e-07
8.99924745454e-08
6.59033062169e-08
6.88744346077e-08
4.07339389333e-08
1.12618861947e-07
7.13764793691e-08
7.544186857e-08
3.55639559128e-08
5.69064836816e-08
4.63814927003e-08
4.58258560117e-09
1.45840355366e-08
7.39066457362e-08
2.20954543188e-08
3.93275433104e-08
3.34751128327e-09
6.64902281723e-09
8.24948100852e-08
7.40328037377e-08
1.39292813058e-07
4.47405288132e-07
2.86301395209e-06
7.22735535742e-07
9.37754066706e-07
5.33360297025e-08
1.42690215576e-06
1.78207076557e-07
1.38464516304e-06
3.02215019623e-08
1.78409709499e-08
4.75396689947e-08
6.11391702921e-09
8.26096787485e-08
1.54429231602e-08
5.38183298308e-08
1.4238563308e-08
7.8987008158e-08
4.29764248682e-07
8.53468313916e-07
2.21330933389e-06
1.77872891164e-07
2.37610849533e-06
5.68390752302e-07
3.22151925458e-07
2.84031774435e-07
8.12094544614e-07
5.71106135991e-07
3.45820356677e-07
6.02586575817e-07
4.33681349745e-07
7.56395183042e-08
2.90521503744e-07
1.69237542284e-07
3.45443555036e-07
8.54642971025e-07

