# vtk DataFile Version 3.0
File Name: Molecule/methanol/methanol_7.0-0.vtk
ASCII
DATASET UNSTRUCTURED_GRID
FIELD FieldData 1
TIME 1 1 double
0.0
POINTS 328 double
1.611 0.0 -0.359
1.562 -0.403 -0.354
1.403 0.0 -0.933
1.358 -0.367 -0.928
1.419 -0.783 -0.34
1.228 -0.713 -0.915
1.189 -1.117 -0.317
1.019 -1.017 -0.895
0.887 -1.386 -0.287
0.743 -1.263 -0.867
0.529 -1.575 -0.251
0.417 -1.435 -0.835
0.137 -1.672 -0.212
0.06 -1.523 -0.799
-0.267 -1.672 -0.172
-0.308 -1.523 -0.762
-0.66 -1.575 -0.133
-0.665 -1.435 -0.727
-1.018 -1.386 -0.097
-0.991 -1.263 -0.694
-1.32 -1.117 -0.067
-1.267 -1.017 -0.667
-1.55 -0.783 -0.044
-1.476 -0.713 -0.646
-1.693 -0.403 -0.03
-1.606 -0.367 -0.633
-1.742 -0.0 -0.025
-1.651 -0.0 -0.629
-1.693 0.403 -0.03
-1.606 0.367 -0.633
-1.55 0.783 -0.044
-1.476 0.713 -0.646
-1.32 1.117 -0.067
-1.267 1.017 -0.667
-1.018 1.386 -0.097
-0.991 1.263 -0.694
-0.66 1.575 -0.133
-0.665 1.435 -0.727
-0.267 1.672 -0.172
-0.308 1.523 -0.762
0.137 1.672 -0.212
0.06 1.523 -0.799
0.529 1.575 -0.251
0.417 1.435 -0.835
0.887 1.386 -0.287
0.743 1.263 -0.867
1.189 1.117 -0.317
1.019 1.017 -0.895
1.419 0.783 -0.34
1.228 0.713 -0.915
1.562 0.403 -0.354
1.358 0.367 -0.928
1.907 0.0 0.656
1.865 0.392 0.656
1.865 0.196 0.995
1.865 -0.196 0.995
1.865 -0.392 0.656
1.865 -0.196 0.316
1.865 0.196 0.316
1.743 0.665 1.039
1.743 0.384 1.32
1.743 -0.0 1.423
1.743 -0.384 1.32
1.743 -0.665 1.039
1.743 -0.768 0.656
1.743 -0.665 0.272
1.743 -0.384 -0.009
1.743 -0.0 -0.112
1.743 0.384 -0.009
1.743 0.665 0.272
1.743 0.768 0.656
1.546 1.043 1.035
1.546 0.85 1.369
1.546 0.555 1.616
1.546 0.193 1.748
1.546 -0.193 1.748
1.546 -0.555 1.616
1.546 -0.85 1.369
1.546 -1.043 1.035
1.546 -1.109 0.656
1.546 -1.043 0.276
1.546 -0.85 -0.058
1.546 0.85 -0.058
1.546 1.043 0.276
1.546 1.109 0.656
1.282 1.351 1.034
1.282 1.198 1.384
1.282 0.957 1.681
1.282 0.645 1.901
1.282 0.285 2.029
1.282 -0.096 2.055
1.282 -0.47 1.977
1.282 -0.809 1.802
1.282 -1.088 1.541
1.282 -1.287 1.214
1.282 -1.39 0.847
1.282 -1.39 0.465
1.282 -1.287 0.097
1.282 1.198 -0.073
1.282 1.351 0.277
1.282 1.403 0.656
0.963 1.587 1.047
0.963 1.447 1.415
0.963 1.224 1.74
0.963 0.929 2.001
0.963 0.58 2.184
0.963 0.197 2.278
0.963 -0.197 2.278
0.963 -0.58 2.184
0.963 -0.929 2.001
0.963 -1.224 1.74
0.963 -1.447 1.415
0.963 -1.587 1.047
0.963 -1.635 0.656
0.963 -1.587 0.264
0.963 -1.447 -0.104
0.963 1.447 -0.104
0.963 1.587 0.264
0.963 1.635 0.656
0.602 1.753 1.041
0.602 1.629 1.409
0.602 1.429 1.742
0.602 1.162 2.024
0.602 0.841 2.242
0.602 0.48 2.385
0.602 0.097 2.448
0.602 -0.29 2.427
0.602 -0.664 2.323
0.602 -1.007 2.141
0.602 -1.303 1.89
0.602 -1.538 1.581
0.602 -1.701 1.229
0.602 -1.785 0.85
0.602 -1.785 0.462
0.602 -1.701 0.082
0.602 1.753 0.27
0.602 1.795 0.656
0.216 1.836 1.046
0.216 1.715 1.419
0.216 1.519 1.759
0.216 1.256 2.051
0.216 0.939 2.281
0.216 0.58 2.441
0.216 0.196 2.522
0.216 -0.196 2.522
0.216 -0.58 2.441
0.216 -0.939 2.281
0.216 -1.256 2.051
0.216 -1.519 1.759
0.216 -1.715 1.419
0.216 -1.836 1.046
0.216 -1.877 0.656
0.216 -1.836 0.265
0.216 1.836 0.265
0.216 1.877 0.656
-0.178 1.836 1.046
-0.178 1.715 1.419
-0.178 1.519 1.759
-0.178 1.256 2.051
-0.178 0.939 2.281
-0.178 0.58 2.441
-0.178 0.196 2.522
-0.178 -0.196 2.522
-0.178 -0.58 2.441
-0.178 -0.939 2.281
-0.178 -1.256 2.051
-0.178 -1.519 1.759
-0.178 -1.715 1.419
-0.178 -1.836 1.046
-0.178 -1.877 0.656
-0.178 -1.836 0.265
-0.178 1.836 0.265
-0.178 1.877 0.656
-0.564 1.795 0.656
-0.564 1.753 1.041
-0.564 1.629 1.409
-0.564 1.429 1.742
-0.564 1.162 2.024
-0.564 0.841 2.242
-0.564 0.48 2.385
-0.564 0.097 2.448
-0.564 -0.29 2.427
-0.564 -0.664 2.323
-0.564 -1.007 2.141
-0.564 -1.303 1.89
-0.564 -1.538 1.581
-0.564 -1.701 1.229
-0.564 -1.785 0.85
-0.564 -1.785 0.462
-0.564 -1.701 0.082
-0.564 1.753 0.27
-0.925 1.635 0.656
-0.925 1.587 1.047
-0.925 1.447 1.415
-0.925 1.224 1.74
-0.925 0.929 2.001
-0.925 0.58 2.184
-0.925 0.197 2.278
-0.925 -0.197 2.278
-0.925 -0.58 2.184
-0.925 -0.929 2.001
-0.925 -1.224 1.74
-0.925 -1.447 1.415
-0.925 -1.587 1.047
-0.925 -1.635 0.656
-0.925 -1.587 0.264
-0.925 1.587 0.264
-1.244 1.403 0.656
-1.244 1.351 1.034
-1.244 1.198 1.384
-1.244 0.957 1.681
-1.244 0.645 1.901
-1.244 0.285 2.029
-1.244 -0.096 2.055
-1.244 -0.47 1.977
-1.244 -0.809 1.802
-1.244 -1.088 1.541
-1.244 -1.287 1.214
-1.244 -1.39 0.847
-1.244 -1.39 0.465
-1.244 1.351 0.277
-1.508 1.109 0.656
-1.508 1.043 1.035
-1.508 0.85 1.369
-1.508 0.555 1.616
-1.508 0.193 1.748
-1.508 -0.193 1.748
-1.508 -0.555 1.616
-1.508 -0.85 1.369
-1.508 -1.043 1.035
-1.508 -1.109 0.656
-1.508 -1.043 0.276
-1.508 1.043 0.276
-1.705 0.768 0.656
-1.705 0.665 1.039
-1.705 0.384 1.32
-1.705 -0.0 1.423
-1.705 -0.384 1.32
-1.705 -0.665 1.039
-1.705 -0.768 0.656
-1.705 -0.665 0.272
-1.705 0.665 0.272
-1.827 0.392 0.656
-1.827 0.196 0.995
-1.827 -0.196 0.995
-1.827 -0.392 0.656
-1.827 -0.196 0.316
-1.827 0.196 0.316
-1.868 -0.0 0.656
1.21 -0.665 -1.121
0.966 -0.923 -1.309
0.966 -0.654 -1.603
1.21 -0.384 -1.402
0.966 -0.297 -1.781
1.21 -0.0 -1.505
0.966 0.1 -1.818
1.21 0.384 -1.402
0.966 0.484 -1.709
0.966 0.802 -1.468
1.21 0.665 -1.121
0.966 1.012 -1.129
0.648 -1.198 -1.314
0.648 -0.974 -1.641
0.648 -0.665 -1.888
0.648 -0.296 -2.033
0.648 0.099 -2.063
0.648 0.486 -1.975
0.648 0.829 -1.777
0.648 1.098 -1.486
0.648 1.27 -1.129
0.278 -1.432 -1.121
0.278 -1.284 -1.479
0.278 -1.048 -1.786
0.278 -0.741 -2.021
0.278 -0.384 -2.169
0.278 -0.0 -2.22
0.278 0.384 -2.169
0.278 0.741 -2.021
0.278 1.048 -1.786
0.278 1.284 -1.479
0.278 1.432 -1.121
-0.12 -1.427 -1.302
-0.12 -1.242 -1.639
-0.12 -0.978 -1.92
-0.12 -0.654 -2.126
-0.12 -0.288 -2.245
-0.12 0.096 -2.269
-0.12 0.474 -2.197
-0.12 0.822 -2.033
-0.12 1.119 -1.788
-0.12 1.345 -1.477
-0.12 1.487 -1.119
-0.517 -1.432 -1.121
-0.517 -1.284 -1.479
-0.517 -1.048 -1.786
-0.517 -0.741 -2.021
-0.517 -0.384 -2.169
-0.517 -0.0 -2.22
-0.517 0.384 -2.169
-0.517 0.741 -2.021
-0.517 1.048 -1.786
-0.517 1.284 -1.479
-0.517 1.432 -1.121
-0.887 -1.315 -0.935
-0.887 -1.198 -1.314
-0.887 -0.974 -1.641
-0.887 -0.665 -1.888
-0.887 -0.296 -2.033
-0.887 0.099 -2.063
-0.887 0.486 -1.975
-0.887 0.829 -1.777
-0.887 1.098 -1.486
-0.887 1.27 -1.129
-1.205 -1.067 -0.937
-1.205 -0.923 -1.309
-1.205 -0.654 -1.603
-1.205 -0.297 -1.781
-1.205 0.1 -1.818
-1.205 0.484 -1.709
-1.205 0.802 -1.468
-1.205 1.012 -1.129
-1.449 -0.665 -1.121
-1.449 -0.384 -1.402
-1.449 -0.0 -1.505
-1.449 0.384 -1.402
-1.449 0.665 -1.121
-1.602 -0.199 -1.081
-1.602 0.199 -1.081

CELLS 652 2608
3 0 1 2
3 2 1 3
3 1 4 3
3 3 4 5
3 4 6 5
3 5 6 7
3 6 8 7
3 7 8 9
3 8 10 9
3 9 10 11
3 10 12 11
3 11 12 13
3 12 14 13
3 13 14 15
3 14 16 15
3 15 16 17
3 16 18 17
3 17 18 19
3 18 20 19
3 19 20 21
3 20 22 21
3 21 22 23
3 22 24 23
3 23 24 25
3 24 26 25
3 25 26 27
3 26 28 27
3 27 28 29
3 28 30 29
3 29 30 31
3 30 32 31
3 31 32 33
3 32 34 33
3 33 34 35
3 34 36 35
3 35 36 37
3 36 38 37
3 37 38 39
3 38 40 39
3 39 40 41
3 40 42 41
3 41 42 43
3 42 44 43
3 43 44 45
3 44 46 45
3 45 46 47
3 46 48 47
3 47 48 49
3 48 50 49
3 49 50 51
3 50 0 51
3 51 0 2
3 52 53 54
3 52 54 55
3 52 55 56
3 52 56 57
3 52 57 58
3 52 58 53
3 54 53 59
3 54 59 60
3 54 60 61
3 55 54 61
3 55 61 62
3 55 62 63
3 56 55 63
3 56 63 64
3 56 64 65
3 57 56 65
3 57 65 66
3 57 66 67
3 58 57 67
3 58 67 68
3 58 68 69
3 53 58 69
3 53 69 70
3 53 70 59
3 59 70 71
3 59 71 72
3 60 59 72
3 60 72 73
3 60 73 74
3 61 60 74
3 61 74 75
3 62 61 75
3 62 75 76
3 62 76 77
3 63 62 77
3 63 77 78
3 64 63 78
3 64 78 79
3 64 79 80
3 65 64 80
3 65 80 81
3 66 65 81
3 69 68 82
3 69 82 83
3 70 69 83
3 70 83 84
3 70 84 71
3 71 84 85
3 71 85 86
3 72 71 86
3 72 86 87
3 73 72 87
3 73 87 88
3 74 73 88
3 74 88 89
3 74 89 90
3 75 74 90
3 75 90 91
3 76 75 91
3 76 91 92
3 77 76 92
3 77 92 93
3 77 93 94
3 78 77 94
3 78 94 95
3 79 78 95
3 79 95 96
3 80 79 96
3 80 96 97
3 81 80 97
3 83 82 98
3 83 98 99
3 84 83 99
3 84 99 100
3 84 100 85
3 85 100 101
3 85 101 102
3 86 85 102
3 86 102 103
3 87 86 103
3 87 103 104
3 88 87 104
3 88 104 105
3 89 88 105
3 89 105 106
3 90 89 106
3 90 106 107
3 91 90 107
3 91 107 108
3 92 91 108
3 92 108 109
3 92 109 110
3 93 92 110
3 93 110 111
3 94 93 111
3 94 111 112
3 95 94 112
3 95 112 113
3 96 95 113
3 96 113 114
3 97 96 114
3 97 114 115
3 99 98 116
3 99 116 117
3 100 99 117
3 100 117 118
3 100 118 101
3 101 118 119
3 101 119 120
3 102 101 120
3 102 120 121
3 103 102 121
3 103 121 122
3 104 103 122
3 104 122 123
3 105 104 123
3 105 123 124
3 106 105 124
3 106 124 125
3 107 106 125
3 107 125 126
3 108 107 126
3 108 126 127
3 109 108 127
3 109 127 128
3 109 128 129
3 110 109 129
3 110 129 130
3 111 110 130
3 111 130 131
3 112 111 131
3 112 131 132
3 113 112 132
3 113 132 133
3 114 113 133
3 114 133 134
3 115 114 134
3 118 117 135
3 118 135 136
3 118 136 119
3 119 136 137
3 119 137 138
3 120 119 138
3 120 138 139
3 121 120 139
3 121 139 140
3 122 121 140
3 122 140 141
3 123 122 141
3 123 141 142
3 124 123 142
3 124 142 143
3 125 124 143
3 125 143 144
3 126 125 144
3 126 144 145
3 127 126 145
3 127 145 146
3 128 127 146
3 128 146 147
3 129 128 147
3 129 147 148
3 130 129 148
3 130 148 149
3 131 130 149
3 131 149 150
3 132 131 150
3 132 150 151
3 133 132 151
3 133 151 152
3 134 133 152
3 136 135 153
3 136 153 154
3 136 154 137
3 137 154 155
3 137 155 156
3 138 137 156
3 138 156 157
3 139 138 157
3 139 157 158
3 140 139 158
3 140 158 159
3 141 140 159
3 141 159 160
3 142 141 160
3 142 160 161
3 143 142 161
3 143 161 162
3 144 143 162
3 144 162 163
3 145 144 163
3 145 163 164
3 146 145 164
3 147 146 164
3 147 164 165
3 147 165 166
3 148 147 166
3 149 148 166
3 149 166 167
3 149 167 168
3 150 149 168
3 151 150 168
3 151 168 169
3 151 169 170
3 152 151 170
3 154 153 171
3 154 171 172
3 154 172 155
3 155 172 173
3 155 173 174
3 156 155 174
3 156 174 175
3 157 156 175
3 157 175 176
3 158 157 176
3 158 176 177
3 159 158 177
3 159 177 178
3 160 159 178
3 160 178 179
3 161 160 179
3 161 179 180
3 162 161 180
3 162 180 181
3 163 162 181
3 163 181 182
3 164 163 182
3 164 182 183
3 165 164 183
3 165 183 184
3 166 165 184
3 166 184 185
3 167 166 185
3 167 185 186
3 168 167 186
3 168 186 187
3 169 168 187
3 169 187 188
3 170 169 188
3 170 188 189
3 173 171 190
3 172 171 173
3 174 173 191
3 174 191 192
3 175 174 192
3 175 192 193
3 176 175 193
3 176 193 194
3 177 176 194
3 177 194 195
3 178 177 195
3 178 195 196
3 179 178 196
3 179 196 197
3 180 179 197
3 180 197 198
3 181 180 198
3 181 198 199
3 182 181 199
3 182 199 200
3 183 182 200
3 184 183 200
3 184 200 201
3 185 184 201
3 185 201 202
3 186 185 202
3 186 202 203
3 187 186 203
3 187 203 204
3 188 187 204
3 188 204 205
3 189 188 205
3 191 190 206
3 173 190 191
3 192 191 207
3 192 207 208
3 193 192 208
3 193 208 209
3 194 193 209
3 194 209 210
3 195 194 210
3 195 210 211
3 196 195 211
3 196 211 212
3 197 196 212
3 197 212 213
3 198 197 213
3 198 213 214
3 199 198 214
3 199 214 215
3 200 199 215
3 201 200 215
3 201 215 216
3 202 201 216
3 202 216 217
3 203 202 217
3 203 217 218
3 204 203 218
3 204 218 219
3 205 204 219
3 207 206 220
3 191 206 207
3 208 207 221
3 208 221 222
3 209 208 222
3 209 222 223
3 210 209 223
3 210 223 224
3 211 210 224
3 211 224 225
3 212 211 225
3 213 212 225
3 213 225 226
3 214 213 226
3 214 226 227
3 215 214 227
3 215 227 228
3 216 215 228
3 217 216 228
3 217 228 229
3 218 217 229
3 218 229 230
3 219 218 230
3 219 230 231
3 221 220 232
3 207 220 221
3 222 221 233
3 222 233 234
3 223 222 234
3 223 234 235
3 224 223 235
3 225 224 235
3 225 235 236
3 226 225 236
3 226 236 237
3 227 226 237
3 228 227 237
3 228 237 238
3 229 228 238
3 229 238 239
3 230 229 239
3 231 230 239
3 231 239 240
3 233 232 241
3 221 232 233
3 234 233 242
3 234 242 243
3 235 234 243
3 236 235 243
3 236 243 244
3 237 236 244
3 238 237 244
3 238 244 245
3 239 238 245
3 240 239 245
3 240 245 246
3 242 241 247
3 233 241 242
3 243 242 248
3 244 243 248
3 245 244 248
3 246 245 248
3 247 246 248
3 242 247 248
3 247 241 28
3 247 28 26
3 247 26 246
3 246 26 24
3 246 24 240
3 240 24 22
3 240 22 231
3 231 22 20
3 231 20 219
3 219 20 18
3 219 18 205
3 205 18 16
3 205 16 189
3 189 16 14
3 189 14 170
3 170 14 12
3 170 12 152
3 152 12 134
3 134 12 10
3 134 10 115
3 115 10 8
3 115 8 6
3 115 6 97
3 97 6 81
3 81 6 4
3 81 4 1
3 81 1 66
3 66 1 67
3 67 1 0
3 67 0 50
3 67 50 68
3 68 50 82
3 82 50 48
3 82 48 98
3 98 48 46
3 98 46 116
3 116 46 44
3 116 44 42
3 116 42 135
3 116 135 117
3 135 42 153
3 153 42 40
3 153 40 171
3 171 40 38
3 171 38 190
3 190 38 36
3 190 36 206
3 206 36 34
3 206 34 220
3 220 34 32
3 220 32 232
3 232 32 30
3 232 30 241
3 241 30 28
3 249 250 251
3 252 249 251
3 252 251 253
3 254 252 253
3 254 253 255
3 256 254 255
3 256 255 257
3 256 257 258
3 259 256 258
3 259 258 260
3 250 261 262
3 251 250 262
3 251 262 263
3 253 251 263
3 253 263 264
3 255 253 264
3 255 264 265
3 255 265 266
3 257 255 266
3 257 266 267
3 258 257 267
3 258 267 268
3 260 258 268
3 260 268 269
3 261 270 271
3 262 261 271
3 262 271 272
3 263 262 272
3 263 272 273
3 263 273 274
3 264 263 274
3 264 274 275
3 265 264 275
3 265 275 276
3 266 265 276
3 266 276 277
3 267 266 277
3 267 277 278
3 268 267 278
3 268 278 279
3 269 268 279
3 269 279 280
3 271 270 281
3 271 281 282
3 272 271 282
3 272 282 283
3 273 272 283
3 273 283 284
3 274 273 284
3 274 284 285
3 275 274 285
3 275 285 286
3 276 275 286
3 276 286 287
3 277 276 287
3 277 287 288
3 278 277 288
3 278 288 289
3 279 278 289
3 279 289 290
3 280 279 290
3 280 290 291
3 281 292 293
3 282 281 293
3 282 293 294
3 283 282 294
3 283 294 295
3 284 283 295
3 284 295 296
3 285 284 296
3 285 296 297
3 286 285 297
3 286 297 298
3 287 286 298
3 287 298 299
3 288 287 299
3 288 299 300
3 289 288 300
3 289 300 301
3 290 289 301
3 290 301 302
3 291 290 302
3 292 303 304
3 293 292 304
3 293 304 305
3 294 293 305
3 294 305 306
3 295 294 306
3 296 295 306
3 296 306 307
3 297 296 307
3 297 307 308
3 298 297 308
3 298 308 309
3 299 298 309
3 299 309 310
3 300 299 310
3 300 310 311
3 301 300 311
3 301 311 312
3 302 301 312
3 304 303 313
3 304 313 314
3 305 304 314
3 305 314 315
3 306 305 315
3 306 315 316
3 307 306 316
3 307 316 317
3 308 307 317
3 309 308 317
3 309 317 318
3 310 309 318
3 310 318 319
3 311 310 319
3 311 319 320
3 312 311 320
3 314 313 321
3 315 314 321
3 315 321 322
3 316 315 322
3 316 322 323
3 317 316 323
3 317 323 324
3 318 317 324
3 319 318 324
3 319 324 325
3 320 319 325
3 322 321 326
3 323 322 326
3 323 326 327
3 324 323 327
3 325 324 327
3 325 327 29
3 325 29 31
3 325 31 33
3 325 33 320
3 320 33 35
3 320 35 312
3 312 35 37
3 312 37 302
3 302 37 39
3 302 39 291
3 291 39 41
3 291 41 280
3 280 41 43
3 280 43 269
3 269 43 45
3 269 45 260
3 260 45 47
3 260 47 49
3 260 49 259
3 259 49 51
3 259 51 256
3 256 51 2
3 256 2 254
3 254 2 252
3 252 2 3
3 252 3 249
3 249 3 5
3 249 5 7
3 249 7 250
3 250 7 261
3 261 7 9
3 261 9 11
3 261 11 270
3 270 11 13
3 270 13 281
3 281 13 15
3 281 15 292
3 292 15 17
3 292 17 303
3 303 17 19
3 303 19 313
3 313 19 21
3 313 21 23
3 313 23 321
3 321 23 25
3 321 25 326
3 326 25 27
3 326 27 327
3 327 27 29

CELL_TYPES 652
5
5
5
5
5
5
5
5
5
5
5
5
5
5
5
5
5
5
5
5
5
5
5
5
5
5
5
5
5
5
5
5
5
5
5
5
5
5
5
5
5
5
5
5
5
5
5
5
5
5
5
5
5
5
5
5
5
5
5
5
5
5
5
5
5
5
5
5
5
5
5
5
5
5
5
5
5
5
5
5
5
5
5
5
5
5
5
5
5
5
5
5
5
5
5
5
5
5
5
5
5
5
5
5
5
5
5
5
5
5
5
5
5
5
5
5
5
5
5
5
5
5
5
5
5
5
5
5
5
5
5
5
5
5
5
5
5
5
5
5
5
5
5
5
5
5
5
5
5
5
5
5
5
5
5
5
5
5
5
5
5
5
5
5
5
5
5
5
5
5
5
5
5
5
5
5
5
5
5
5
5
5
5
5
5
5
5
5
5
5
5
5
5
5
5
5
5
5
5
5
5
5
5
5
5
5
5
5
5
5
5
5
5
5
5
5
5
5
5
5
5
5
5
5
5
5
5
5
5
5
5
5
5
5
5
5
5
5
5
5
5
5
5
5
5
5
5
5
5
5
5
5
5
5
5
5
5
5
5
5
5
5
5
5
5
5
5
5
5
5
5
5
5
5
5
5
5
5
5
5
5
5
5
5
5
5
5
5
5
5
5
5
5
5
5
5
5
5
5
5
5
5
5
5
5
5
5
5
5
5
5
5
5
5
5
5
5
5
5
5
5
5
5
5
5
5
5
5
5
5
5
5
5
5
5
5
5
5
5
5
5
5
5
5
5
5
5
5
5
5
5
5
5
5
5
5
5
5
5
5
5
5
5
5
5
5
5
5
5
5
5
5
5
5
5
5
5
5
5
5
5
5
5
5
5
5
5
5
5
5
5
5
5
5
5
5
5
5
5
5
5
5
5
5
5
5
5
5
5
5
5
5
5
5
5
5
5
5
5
5
5
5
5
5
5
5
5
5
5
5
5
5
5
5
5
5
5
5
5
5
5
5
5
5
5
5
5
5
5
5
5
5
5
5
5
5
5
5
5
5
5
5
5
5
5
5
5
5
5
5
5
5
5
5
5
5
5
5
5
5
5
5
5
5
5
5
5
5
5
5
5
5
5
5
5
5
5
5
5
5
5
5
5
5
5
5
5
5
5
5
5
5
5
5
5
5
5
5
5
5
5
5
5
5
5
5
5
5
5
5
5
5
5
5
5
5
5
5
5
5
5
5
5
5
5
5
5
5
5
5
5
5
5
5
5
5
5
5
5
5
5
5
5
5
5
5
5
5
5
5
5
5
5
5
5
5
5
5
5
5
5
5
5
5
5
5
5
5
5
5
5
5
5
5
5
5
5
5
5
5
5
5
5
5
5
5
5
5
5
5
5
5
5
5
5
5
5
5
5
5
5
5
5
5
5
5
5
5
5
5
5
5
5
5
5
5
5
5
5
5
5
5
5
5
5
5
5
5
5
5
5
5

CELL_DATA 652
SCALARS cell_data_0 double
LOOKUP_TABLE default
1.43843064595e-06
3.41279919068e-06
1.11781136445e-05
4.06944086624e-07
4.2243898633e-07
3.26530352701e-08
5.81691203008e-08
1.18395455761e-08
2.47881377309e-08
2.44456332206e-08
4.52249501956e-09
6.75788988426e-08
2.91796758115e-08
1.00288319747e-07
7.66036016665e-08
1.18346285487e-07
9.61995857966e-08
1.2102460068e-07
1.13193580734e-07
1.29685668946e-07
1.33381990699e-07
1.50601652875e-07
1.58843112816e-07
1.66055354666e-07
1.72930834821e-07
1.58599635202e-07
1.68601802363e-07
1.65262950815e-07
1.90517434056e-07
1.57166643044e-07
1.7924522142e-07
1.54664138575e-07
1.95027924725e-07
1.48286556294e-07
1.88946147156e-07
1.26778730514e-07
1.83525970916e-07
1.0488053058e-07
1.79123625025e-07
8.02182705556e-08
1.63877075431e-07
4.36668850393e-08
1.20979561401e-07
1.01521810165e-08
6.77795464663e-08
2.26102277057e-08
7.54478820801e-09
3.12062649835e-07
1.54379788583e-07
1.34381078601e-06
1.6831135001e-06
3.47234083956e-07
1.19399348511e-10
4.66075925075e-10
1.16779037267e-10
1.63755482735e-09
4.12502255932e-10
1.23479595872e-09
1.45480386694e-09
1.90719528627e-09
3.2499457811e-10
9.9132382526e-10
1.78685799983e-09
2.68175428638e-10
1.82662448835e-09
1.15054735417e-08
4.44024159499e-08
3.25716561388e-08
8.46658993048e-08
6.8686759289e-09
3.81883672726e-09
2.90644890641e-08
3.03103517484e-08
1.41191124464e-08
1.34965936511e-08
1.99041665741e-10
4.87492264095e-09
9.18527385254e-09
6.02591205285e-09
6.14172609428e-09
2.98903281513e-09
1.71591827534e-10
2.44741477402e-09
4.62163587365e-09
6.56033882944e-09
8.32508905273e-09
3.94952309186e-09
3.33161216511e-09
1.09935372995e-08
1.05731035121e-08
3.57822348891e-08
7.78209689758e-08
5.78755532843e-08
8.17392038765e-08
5.07502374454e-08
2.98216735933e-08
1.9279096278e-08
5.78097476329e-09
4.39138556621e-09
1.33194917586e-08
1.66019193322e-08
1.42539043486e-08
1.39365451911e-08
1.05712318988e-08
9.0260508182e-09
4.11193404824e-09
2.39430996738e-09
1.00359602844e-09
3.94124839771e-09
6.62746721067e-09
9.21580054721e-09
1.08016089365e-08
1.16187010655e-08
1.37797841626e-08
1.52693990953e-08
1.09318078597e-08
1.02080423088e-08
4.34891350013e-10
2.01689912824e-09
2.82984450289e-08
2.36646215989e-08
3.30842669717e-08
2.34621915948e-08
8.01673819211e-09
1.17147483067e-09
7.63473226855e-09
1.41311269688e-08
2.27402186664e-08
2.53290753517e-08
2.14379594531e-08
2.09849805244e-08
1.74202024495e-08
1.56466707411e-08
1.16482160101e-08
9.21282028713e-09
5.28046623178e-09
2.92189307265e-09
9.98545080342e-10
3.6145599591e-09
7.22195374481e-09
9.96907259344e-09
1.23085008129e-08
1.54270215251e-08
1.91507340931e-08
1.89297809136e-08
2.20829341854e-08
1.91367076148e-08
2.09583948367e-08
1.60315493718e-08
1.35382606427e-08
2.97711062276e-09
5.82746095773e-10
4.46513562634e-09
1.63495216327e-09
1.4699482252e-09
1.14476345126e-08
1.48247137763e-08
2.27640126508e-08
2.61695208983e-08
3.36299899485e-08
3.2980523421e-08
2.97118365903e-08
2.69645679489e-08
2.37986389401e-08
2.06378548987e-08
1.73406249736e-08
1.42124031574e-08
1.07950705398e-08
7.72832348226e-09
3.95488650281e-09
1.14730348122e-09
2.768744374e-09
5.26037307805e-09
9.26241409867e-09
1.17429188979e-08
1.5594367745e-08
1.81593777655e-08
2.18587209773e-08
2.34650217992e-08
2.65591815461e-08
2.64362763932e-08
2.82025893748e-08
2.68640586488e-08
2.48450338577e-08
1.69120421994e-08
8.10940500148e-09
7.04919566262e-11
1.43085548964e-09
2.14785686222e-09
3.00660239666e-08
3.47354037049e-08
3.60107861543e-08
4.11496673415e-08
4.04092437032e-08
3.58236950126e-08
3.30502232586e-08
2.88433723729e-08
2.55330389001e-08
2.1633699386e-08
1.79774182789e-08
1.46401600314e-08
1.1041490395e-08
7.8936083544e-09
4.07076953936e-09
1.10138622798e-09
2.70083961185e-09
5.33868427419e-09
9.51350156879e-09
1.20945765911e-08
1.62667709354e-08
1.84162544356e-08
2.27177055825e-08
2.46621579722e-08
2.90083615288e-08
2.97176609826e-08
3.32476612254e-08
3.27477701709e-08
3.26150120528e-08
2.71301953779e-08
2.1221519321e-08
1.02438089347e-08
5.11058659485e-09
1.89579870881e-09
3.84537641823e-08
4.52516253508e-08
4.55469378345e-08
4.8998424074e-08
4.65241199735e-08
4.23427975334e-08
3.78032886021e-08
3.38748712793e-08
2.89554378782e-08
2.55406253053e-08
2.03226988874e-08
1.73633589273e-08
1.23805855748e-08
9.81961971244e-09
4.7514763884e-09
2.39226907365e-09
2.89563166063e-09
4.96960531269e-09
1.02922066267e-08
1.23237386115e-08
1.78958524272e-08
1.94622998086e-08
2.3626671517e-08
2.73039774844e-08
3.25025758861e-08
3.31963419288e-08
3.59122028124e-08
3.86753552137e-08
3.77045892395e-08
3.24608238288e-08
2.58359906734e-08
1.59372264027e-08
5.42248412167e-09
1.82009455902e-09
4.57423776313e-08
5.36130257847e-08
5.33623995879e-08
3.14794946746e-08
1.5034389884e-08
2.9291972736e-08
1.31565035506e-08
2.41686918391e-08
1.02482326772e-08
1.85873559971e-08
7.60756482449e-09
1.30563674504e-08
4.9142147806e-09
7.87428412191e-09
2.44434217165e-09
2.79558380804e-09
8.41878899258e-11
2.31678356386e-09
2.58516626126e-09
7.32849357496e-09
4.86054646146e-09
1.23877149738e-08
7.68432450979e-09
1.78722071815e-08
1.03013319907e-08
2.29893062858e-08
1.27211679362e-08
2.74594145155e-08
1.42576704407e-08
2.75137899231e-08
1.26015493189e-08
1.92721372644e-08
2.87475127333e-09
2.23512129445e-09
8.62896901606e-09
1.32073514064e-08
3.13414025585e-08
1.27925401752e-10
2.68314020895e-09
5.48247692902e-10
1.08142040198e-09
2.22879284096e-10
3.72444021216e-10
2.97805071685e-10
1.61970683708e-10
2.67616478774e-10
2.36668339954e-11
2.4048570661e-10
5.80162496822e-11
1.88229261743e-10
1.27597262855e-10
1.16553434771e-10
8.57968012897e-11
2.65592879175e-10
2.13092633006e-10
2.04135772477e-10
2.683707154e-10
5.79256982181e-11
3.25904619126e-10
2.62253502561e-10
4.93064050707e-10
9.934055607e-10
8.15001486852e-10
2.92054560616e-09
1.69962710393e-09
5.18794201638e-09
3.32118264014e-09
2.27299807875e-09
1.97999069586e-09
9.03262613654e-11
2.71368654307e-09
3.38455545159e-10
9.66145536731e-10
9.84044558527e-11
3.64770594879e-10
6.1911852194e-11
2.23961892299e-11
2.10822509634e-10
1.17603294067e-10
9.98139664681e-11
2.27378562873e-10
3.72244300823e-10
1.68751697907e-10
5.25091507344e-10
1.06375194044e-10
4.51334805836e-10
7.77118410121e-10
3.80040254894e-10
4.31625147156e-10
5.57646188714e-10
7.3285877585e-10
1.83518367427e-09
1.08723436871e-09
3.62300660627e-09
2.69589180292e-09
1.82491527119e-09
3.36682804707e-09
3.65265713974e-11
3.28779055134e-09
4.23232468415e-10
9.77082797363e-10
2.48782909783e-10
2.32771530045e-10
3.1465726637e-10
3.92916681655e-11
2.97435954821e-10
4.12410335824e-10
2.65198658381e-11
6.99583626908e-10
1.29987360518e-12
9.4114959184e-10
8.84691851261e-13
1.04754480934e-09
5.17645382566e-10
1.37007291993e-09
6.34923269247e-10
3.51814997458e-09
2.46277349082e-09
7.891127546e-09
1.8419114725e-09
3.87340148485e-09
1.02680966093e-11
3.73790419151e-09
3.22642419869e-10
1.08575937589e-09
2.44198288988e-10
3.7612032297e-10
1.64528828997e-11
1.32687476639e-09
1.38030894079e-10
9.1442659934e-10
1.02128022818e-09
1.16069450093e-09
1.83864412273e-09
3.5125043067e-09
4.17100091747e-09
1.50838043189e-10
1.12255302534e-08
1.56562490809e-09
5.10555579201e-09
3.87376733653e-11
3.32726120057e-09
4.61875880774e-10
1.47589006922e-09
2.26163688296e-10
2.15800599473e-09
1.87610397735e-09
3.48999389119e-09
4.12714325209e-09
2.09537872579e-10
8.05505235094e-09
6.08316159509e-10
7.99778389082e-09
1.049242409e-10
3.13921871543e-09
3.19242111086e-09
5.47423366027e-10
5.9124671935e-09
5.27377599029e-09
2.73430023975e-08
6.67259330072e-10
2.69059988333e-08
6.45842124978e-10
2.71342855426e-08
8.76394309246e-10
2.82255706319e-08
6.03053675964e-10
6.84453686189e-08
9.11146482906e-09
3.89422023839e-08
3.17749470465e-09
1.20413184596e-08
6.10307026507e-10
3.75304818952e-08
6.75522029029e-09
3.57708455706e-08
4.7375774335e-08
1.50337267743e-09
1.98192254991e-08
9.75415793657e-09
1.19238766857e-08
1.78888186567e-09
2.3871474755e-08
1.73611349865e-08
3.9113633419e-06
6.4776329148e-06
4.90470443588e-06
2.75252509409e-06
7.13033262103e-08
3.75082474458e-08
3.93013997885e-08
6.48558252167e-10
1.86458310992e-08
9.49034502524e-10
7.01930965924e-09
1.60360967182e-09
1.58982215816e-10
3.19969851647e-08
2.44616885782e-08
1.41422121026e-08
1.66387913487e-08
1.67726719534e-08
2.47568940874e-08
1.31861369879e-08
1.49343514903e-09
2.40930816536e-08
4.01115152377e-10
2.38784648689e-08
6.0243717643e-10
2.36033407709e-08
1.29675546322e-09
2.13820054351e-08
1.86734225834e-09
1.87179231643e-05
1.89470640662e-06
1.27336794808e-06
7.89240137774e-06
3.63955348861e-06
7.84841059451e-06
3.0079259436e-06
6.01752881009e-07
5.58807182574e-06
1.59968339275e-06
1.24550389906e-05
2.0402110439e-05
1.41798120344e-06
7.4197488658e-06
3.48643952033e-06
4.11395675473e-06
6.64397690388e-07
5.62438137643e-07
7.38341605966e-07
3.44576615835e-07
2.64807790229e-07
5.64785489712e-07
1.10126344577e-06
2.12505927874e-08
6.34801861655e-09
4.6883896082e-08
7.95191520323e-09
8.95923831121e-08
9.86399616089e-09
6.84364589983e-09
1.33566426894e-07
1.1887761366e-08
2.35687757405e-07
1.18850605547e-08
2.49896613236e-07
1.1223864121e-08
2.20027431634e-07
8.27385121331e-09
1.54103332258e-07
4.36794533131e-09
8.15786303976e-08
8.451196954e-09
1.88923702995e-08
6.69699283763e-09
2.08707604665e-08
1.78263053363e-09
2.81126742836e-08
9.81188366593e-10
3.98005930163e-08
2.57108586728e-09
5.54813504374e-08
9.32548935265e-10
6.89234360548e-08
2.5449311599e-09
6.73689411225e-08
5.71801022105e-09
5.04675308867e-08
8.44671665205e-09
3.08259292613e-08
1.04410848703e-08
2.26300646401e-08
3.32936614545e-09
3.1773999177e-09
7.56408598214e-09
1.10061209708e-09
9.98174069155e-09
5.40317424197e-10
1.32044530369e-08
1.90927657485e-09
2.22462555034e-08
2.22477221286e-09
2.24609260595e-08
1.01606635552e-09
2.15793239015e-08
2.83448822503e-09
1.82667891826e-08
3.98719179877e-09
1.32432921409e-08
3.40301686112e-09
1.10823518027e-08
4.01932946058e-09
6.89846036891e-09
1.07814509605e-08
6.72271961795e-09
1.6877337033e-09
6.69378309885e-10
1.60502059502e-09
1.14453129222e-09
1.49095875545e-09
2.54116391731e-09
7.6982879348e-09
3.67289156536e-09
7.5856444941e-09
3.06775338345e-09
1.22543557622e-08
4.18463855761e-10
1.16661056085e-08
9.69830496956e-10
1.08877560622e-08
1.72943574693e-09
3.35320194553e-09
1.42896748976e-08
8.69630374817e-09
1.41450723599e-09
6.04501354439e-09
1.01862178425e-08
1.66277017066e-09
6.91900606716e-09
2.41705046514e-12
2.76882003383e-10
4.12117298904e-09
3.56159181538e-10
3.26071858595e-09
6.53389677848e-09
3.10024872858e-09
3.60881458342e-09
4.2685472095e-09
1.05753814607e-08
6.17189664596e-10
3.57293963161e-09
1.10006523811e-09
1.0076087737e-08
1.29180327469e-08
6.08980812131e-09
1.09263613303e-08
1.15008767644e-09
6.32916374615e-09
2.06278764876e-08
1.79093952952e-08
1.79304029187e-09
5.79030973491e-09
5.70265250414e-09
2.14517185759e-08
3.79801550166e-08
2.02536099069e-09
2.69858080131e-09
1.72955128514e-08
6.09090335067e-09
1.1074537195e-08
1.1048892907e-08
2.68148893771e-09
1.60807432928e-08
7.66735027581e-09
1.12979607526e-08
1.0321340632e-08
1.36108968e-08
2.18046848406e-08
1.86356235687e-08
1.01597251714e-07
5.41977019279e-08
1.12692518196e-07
4.01967356425e-07
4.62737608215e-07
1.62709060447e-06
6.24919357485e-06
1.27143596591e-05
5.76339242757e-06
4.14332470635e-06
3.04169717531e-06
2.02520992969e-08
1.03284224242e-07
1.52484537838e-05
1.43509863549e-05
1.13950220839e-07
5.15959980042e-08
1.40753517456e-08
4.09933109333e-08
3.30697178711e-09
1.03706610596e-08
1.71943020924e-08
3.03103828321e-08
6.87988681728e-10
2.8816737878e-08
1.59425368835e-08
3.67072833672e-08
1.88103083549e-08
2.46442192526e-08
4.94318646755e-09
3.52311613416e-08
1.6276895912e-08
6.87040284194e-09
1.53812851759e-08

