# vtk DataFile Version 3.0
File Name: Molecule/methanol/methanoldphi_2.0-0.vtk
ASCII
DATASET UNSTRUCTURED_GRID
FIELD FieldData 1
TIME 1 1 double
0.0
POINTS 96 double
1.611 0.0 -0.359
1.445 -0.731 -0.342
1.403 0.0 -0.933
1.252 -0.666 -0.918
0.98 -1.317 -0.296
0.828 -1.2 -0.876
0.308 -1.642 -0.229
0.216 -1.496 -0.815
-0.438 -1.642 -0.155
-0.464 -1.496 -0.747
-1.11 -1.317 -0.088
-1.076 -1.2 -0.686
-1.576 -0.731 -0.042
-1.5 -0.666 -0.644
-1.742 0.0 -0.025
-1.651 0.0 -0.629
-1.576 0.731 -0.042
-1.5 0.666 -0.644
-1.11 1.317 -0.088
-1.076 1.2 -0.686
-0.438 1.642 -0.155
-0.464 1.496 -0.747
0.308 1.642 -0.229
0.216 1.496 -0.815
0.98 1.317 -0.296
0.828 1.2 -0.876
1.445 0.731 -0.342
1.252 0.666 -0.918
1.907 0.0 0.656
1.763 0.722 0.656
1.763 0.361 1.281
1.763 -0.361 1.281
1.763 -0.722 0.656
1.763 -0.361 0.03
1.763 0.361 0.03
1.354 1.123 1.377
1.354 0.554 1.87
1.354 -0.19 1.977
1.354 -0.874 1.664
1.354 -1.281 1.032
1.354 -1.281 0.28
1.354 1.335 0.656
0.741 1.571 1.412
0.741 1.087 2.019
0.741 0.388 2.356
0.741 -0.388 2.356
0.741 -1.087 2.019
0.741 -1.571 1.412
0.741 -1.744 0.656
0.741 1.744 0.656
0.019 1.744 1.378
0.019 1.335 1.99
0.019 0.722 2.399
0.019 -0.0 2.543
0.019 -0.722 2.399
0.019 -1.335 1.99
0.019 -1.744 1.378
0.019 -1.888 0.656
0.019 1.888 0.656
-0.703 1.744 0.656
-0.703 1.571 1.412
-0.703 1.087 2.019
-0.703 0.388 2.356
-0.703 -0.388 2.356
-0.703 -1.087 2.019
-0.703 -1.571 1.412
-0.703 -1.744 0.656
-1.316 1.335 0.656
-1.316 1.123 1.377
-1.316 0.554 1.87
-1.316 -0.19 1.977
-1.316 -0.874 1.664
-1.316 -1.281 1.032
-1.725 0.722 0.656
-1.725 0.361 1.281
-1.725 -0.361 1.281
-1.725 -0.722 0.656
-1.868 0.0 0.656
1.21 -0.384 -1.402
0.648 -0.871 -1.742
0.648 -0.189 -2.053
1.21 0.384 -1.402
0.648 0.552 -1.946
0.648 1.118 -1.456
-0.12 -1.149 -1.755
-0.12 -0.544 -2.172
-0.12 0.185 -2.261
-0.12 0.872 -2.0
-0.12 1.359 -1.451
-0.887 -1.276 -1.112
-0.887 -0.871 -1.742
-0.887 -0.189 -2.053
-0.887 0.552 -1.946
-0.887 1.118 -1.456
-1.449 -0.384 -1.402
-1.449 0.384 -1.402

CELLS 188 752
3 0 1 2
3 2 1 3
3 1 4 3
3 3 4 5
3 4 6 5
3 5 6 7
3 6 8 7
3 7 8 9
3 8 10 9
3 9 10 11
3 10 12 11
3 11 12 13
3 12 14 13
3 13 14 15
3 14 16 15
3 15 16 17
3 16 18 17
3 17 18 19
3 18 20 19
3 19 20 21
3 20 22 21
3 21 22 23
3 22 24 23
3 23 24 25
3 24 26 25
3 25 26 27
3 26 0 27
3 27 0 2
3 28 29 30
3 28 30 31
3 28 31 32
3 28 32 33
3 28 33 34
3 28 34 29
3 30 29 35
3 30 35 36
3 30 36 37
3 31 30 37
3 31 37 38
3 31 38 39
3 32 31 39
3 32 39 40
3 33 32 40
3 29 41 35
3 35 41 42
3 35 42 43
3 36 35 43
3 36 43 44
3 37 36 44
3 37 44 45
3 38 37 45
3 38 45 46
3 38 46 47
3 39 38 47
3 39 47 48
3 40 39 48
3 41 49 42
3 42 49 50
3 42 50 51
3 43 42 51
3 43 51 52
3 44 43 52
3 44 52 53
3 45 44 53
3 45 53 54
3 46 45 54
3 46 54 55
3 47 46 55
3 47 55 56
3 48 47 56
3 48 56 57
3 49 58 50
3 50 58 59
3 50 59 60
3 51 50 60
3 51 60 61
3 52 51 61
3 52 61 62
3 53 52 62
3 53 62 63
3 54 53 63
3 54 63 64
3 55 54 64
3 55 64 65
3 56 55 65
3 56 65 66
3 57 56 66
3 60 59 67
3 60 67 68
3 61 60 68
3 61 68 69
3 62 61 69
3 62 69 70
3 63 62 70
3 63 70 71
3 64 63 71
3 65 64 71
3 65 71 72
3 66 65 72
3 68 67 73
3 68 73 74
3 69 68 74
3 70 69 74
3 70 74 75
3 71 70 75
3 72 71 75
3 72 75 76
3 74 73 77
3 75 74 77
3 76 75 77
3 76 77 14
3 76 14 12
3 76 12 10
3 76 10 72
3 72 10 66
3 66 10 8
3 66 8 57
3 57 8 6
3 57 6 48
3 48 6 4
3 48 4 40
3 40 4 1
3 40 1 33
3 33 1 0
3 33 0 34
3 34 0 26
3 34 26 29
3 29 26 41
3 41 26 24
3 41 24 49
3 49 24 22
3 49 22 58
3 58 22 20
3 58 20 59
3 59 20 18
3 59 18 67
3 67 18 16
3 67 16 73
3 73 16 14
3 73 14 77
3 78 79 80
3 81 78 80
3 81 80 82
3 81 82 83
3 79 84 85
3 80 79 85
3 80 85 86
3 82 80 86
3 82 86 87
3 83 82 87
3 83 87 88
3 84 89 90
3 85 84 90
3 85 90 91
3 86 85 91
3 86 91 92
3 87 86 92
3 87 92 93
3 88 87 93
3 90 89 94
3 91 90 94
3 91 94 95
3 92 91 95
3 93 92 95
3 93 95 17
3 93 17 19
3 93 19 21
3 93 21 88
3 88 21 23
3 88 23 83
3 83 23 25
3 83 25 27
3 83 27 81
3 81 27 2
3 81 2 78
3 78 2 3
3 78 3 79
3 79 3 5
3 79 5 7
3 79 7 84
3 84 7 9
3 84 9 89
3 89 9 11
3 89 11 13
3 89 13 94
3 94 13 15
3 94 15 95
3 95 15 17

CELL_TYPES 188
5
5
5
5
5
5
5
5
5
5
5
5
5
5
5
5
5
5
5
5
5
5
5
5
5
5
5
5
5
5
5
5
5
5
5
5
5
5
5
5
5
5
5
5
5
5
5
5
5
5
5
5
5
5
5
5
5
5
5
5
5
5
5
5
5
5
5
5
5
5
5
5
5
5
5
5
5
5
5
5
5
5
5
5
5
5
5
5
5
5
5
5
5
5
5
5
5
5
5
5
5
5
5
5
5
5
5
5
5
5
5
5
5
5
5
5
5
5
5
5
5
5
5
5
5
5
5
5
5
5
5
5
5
5
5
5
5
5
5
5
5
5
5
5
5
5
5
5
5
5
5
5
5
5
5
5
5
5
5
5
5
5
5
5
5
5
5
5
5
5
5
5
5
5
5
5
5
5
5
5
5
5
5
5
5
5
5
5

POINT_DATA 96
SCALARS point_data_0_real double
LOOKUP_TABLE default
0.000557799121876
0.00177567678155
-0.0197081995806
-0.00470143514088
0.00109368860311
0.00142212078383
0.00132805500812
0.00506128365189
0.0015187395348
0.00550167646012
0.0018126747893
0.0052965656927
0.00206017548107
0.00615133865098
0.00191467469718
0.00583498877593
0.00185942160108
0.00624187382731
0.00179233937362
0.00554275534934
0.00161268027825
0.00560195124572
0.00126864414483
0.00414202195082
0.000893027955122
0.00114408547677
-0.00053537564237
-0.00471433569071
-0.000686828462127
-0.000750971993607
-0.00105994985069
-0.0011222498449
-0.000594157532874
-0.00118938256776
-0.000771161259573
-0.00100607869196
-0.00110171952064
-0.00111320089369
-0.00111488932947
-0.000794664012557
-0.000958959413959
-0.000827310729488
-0.000923894661844
-0.00113516814093
-0.00118324057124
-0.00119869439361
-0.00110374575914
-0.000963483853403
-0.000806433259292
-0.000851756030513
-0.000804742333275
-0.00112062000415
-0.00113472245468
-0.00117011441403
-0.00112981462597
-0.00113162980939
-0.000804695931656
-0.000708342112316
-0.000703826546223
-0.000569994098039
-0.000846218452516
-0.00107464687577
-0.00111330201283
-0.00114356008689
-0.00106008821127
-0.000805453963782
-0.000618983692959
-0.000432400299089
-0.000766520834172
-0.000981941803665
-0.00106430715697
-0.000907339121986
-0.000793142568142
-0.000360187142508
-0.000717674790319
-0.000605769205798
-0.000497912121463
-0.000249854405725
-0.0335222871043
0.000615005897374
-0.00372459625172
-0.0329542674672
-0.000537781688321
0.00370368256944
0.00413096592287
0.00380802097972
0.00366401669142
0.00329484991598
0.0035833349508
0.00563797850595
0.00477155630973
0.00502788766586
0.00496340040752
0.0055762006613
0.00560494834233
0.00538929741493

SCALARS point_data_0_imag double
LOOKUP_TABLE default
0.0
0.0
0.0
0.0
0.0
0.0
0.0
0.0
0.0
0.0
0.0
0.0
0.0
0.0
0.0
0.0
0.0
0.0
0.0
0.0
0.0
0.0
0.0
0.0
0.0
0.0
0.0
0.0
0.0
0.0
0.0
0.0
0.0
0.0
0.0
0.0
0.0
0.0
0.0
0.0
0.0
0.0
0.0
0.0
0.0
0.0
0.0
0.0
0.0
0.0
0.0
0.0
0.0
0.0
0.0
0.0
0.0
0.0
0.0
0.0
0.0
0.0
0.0
0.0
0.0
0.0
0.0
0.0
0.0
0.0
0.0
0.0
0.0
0.0
0.0
0.0
0.0
0.0
0.0
0.0
0.0
0.0
0.0
0.0
0.0
0.0
0.0
0.0
0.0
0.0
0.0
0.0
0.0
0.0
0.0
0.0

