# vtk DataFile Version 3.0
File Name: Molecule/methanol/methanolU_2.0-0.vtk
ASCII
DATASET UNSTRUCTURED_GRID
FIELD FieldData 1
TIME 1 1 double
0.0
POINTS 96 double
1.611 0.0 -0.359
1.445 -0.731 -0.342
1.403 0.0 -0.933
1.252 -0.666 -0.918
0.98 -1.317 -0.296
0.828 -1.2 -0.876
0.308 -1.642 -0.229
0.216 -1.496 -0.815
-0.438 -1.642 -0.155
-0.464 -1.496 -0.747
-1.11 -1.317 -0.088
-1.076 -1.2 -0.686
-1.576 -0.731 -0.042
-1.5 -0.666 -0.644
-1.742 0.0 -0.025
-1.651 0.0 -0.629
-1.576 0.731 -0.042
-1.5 0.666 -0.644
-1.11 1.317 -0.088
-1.076 1.2 -0.686
-0.438 1.642 -0.155
-0.464 1.496 -0.747
0.308 1.642 -0.229
0.216 1.496 -0.815
0.98 1.317 -0.296
0.828 1.2 -0.876
1.445 0.731 -0.342
1.252 0.666 -0.918
1.907 0.0 0.656
1.763 0.722 0.656
1.763 0.361 1.281
1.763 -0.361 1.281
1.763 -0.722 0.656
1.763 -0.361 0.03
1.763 0.361 0.03
1.354 1.123 1.377
1.354 0.554 1.87
1.354 -0.19 1.977
1.354 -0.874 1.664
1.354 -1.281 1.032
1.354 -1.281 0.28
1.354 1.335 0.656
0.741 1.571 1.412
0.741 1.087 2.019
0.741 0.388 2.356
0.741 -0.388 2.356
0.741 -1.087 2.019
0.741 -1.571 1.412
0.741 -1.744 0.656
0.741 1.744 0.656
0.019 1.744 1.378
0.019 1.335 1.99
0.019 0.722 2.399
0.019 -0.0 2.543
0.019 -0.722 2.399
0.019 -1.335 1.99
0.019 -1.744 1.378
0.019 -1.888 0.656
0.019 1.888 0.656
-0.703 1.744 0.656
-0.703 1.571 1.412
-0.703 1.087 2.019
-0.703 0.388 2.356
-0.703 -0.388 2.356
-0.703 -1.087 2.019
-0.703 -1.571 1.412
-0.703 -1.744 0.656
-1.316 1.335 0.656
-1.316 1.123 1.377
-1.316 0.554 1.87
-1.316 -0.19 1.977
-1.316 -0.874 1.664
-1.316 -1.281 1.032
-1.725 0.722 0.656
-1.725 0.361 1.281
-1.725 -0.361 1.281
-1.725 -0.722 0.656
-1.868 0.0 0.656
1.21 -0.384 -1.402
0.648 -0.871 -1.742
0.648 -0.189 -2.053
1.21 0.384 -1.402
0.648 0.552 -1.946
0.648 1.118 -1.456
-0.12 -1.149 -1.755
-0.12 -0.544 -2.172
-0.12 0.185 -2.261
-0.12 0.872 -2.0
-0.12 1.359 -1.451
-0.887 -1.276 -1.112
-0.887 -0.871 -1.742
-0.887 -0.189 -2.053
-0.887 0.552 -1.946
-0.887 1.118 -1.456
-1.449 -0.384 -1.402
-1.449 0.384 -1.402

CELLS 188 752
3 0 1 2
3 2 1 3
3 1 4 3
3 3 4 5
3 4 6 5
3 5 6 7
3 6 8 7
3 7 8 9
3 8 10 9
3 9 10 11
3 10 12 11
3 11 12 13
3 12 14 13
3 13 14 15
3 14 16 15
3 15 16 17
3 16 18 17
3 17 18 19
3 18 20 19
3 19 20 21
3 20 22 21
3 21 22 23
3 22 24 23
3 23 24 25
3 24 26 25
3 25 26 27
3 26 0 27
3 27 0 2
3 28 29 30
3 28 30 31
3 28 31 32
3 28 32 33
3 28 33 34
3 28 34 29
3 30 29 35
3 30 35 36
3 30 36 37
3 31 30 37
3 31 37 38
3 31 38 39
3 32 31 39
3 32 39 40
3 33 32 40
3 29 41 35
3 35 41 42
3 35 42 43
3 36 35 43
3 36 43 44
3 37 36 44
3 37 44 45
3 38 37 45
3 38 45 46
3 38 46 47
3 39 38 47
3 39 47 48
3 40 39 48
3 41 49 42
3 42 49 50
3 42 50 51
3 43 42 51
3 43 51 52
3 44 43 52
3 44 52 53
3 45 44 53
3 45 53 54
3 46 45 54
3 46 54 55
3 47 46 55
3 47 55 56
3 48 47 56
3 48 56 57
3 49 58 50
3 50 58 59
3 50 59 60
3 51 50 60
3 51 60 61
3 52 51 61
3 52 61 62
3 53 52 62
3 53 62 63
3 54 53 63
3 54 63 64
3 55 54 64
3 55 64 65
3 56 55 65
3 56 65 66
3 57 56 66
3 60 59 67
3 60 67 68
3 61 60 68
3 61 68 69
3 62 61 69
3 62 69 70
3 63 62 70
3 63 70 71
3 64 63 71
3 65 64 71
3 65 71 72
3 66 65 72
3 68 67 73
3 68 73 74
3 69 68 74
3 70 69 74
3 70 74 75
3 71 70 75
3 72 71 75
3 72 75 76
3 74 73 77
3 75 74 77
3 76 75 77
3 76 77 14
3 76 14 12
3 76 12 10
3 76 10 72
3 72 10 66
3 66 10 8
3 66 8 57
3 57 8 6
3 57 6 48
3 48 6 4
3 48 4 40
3 40 4 1
3 40 1 33
3 33 1 0
3 33 0 34
3 34 0 26
3 34 26 29
3 29 26 41
3 41 26 24
3 41 24 49
3 49 24 22
3 49 22 58
3 58 22 20
3 58 20 59
3 59 20 18
3 59 18 67
3 67 18 16
3 67 16 73
3 73 16 14
3 73 14 77
3 78 79 80
3 81 78 80
3 81 80 82
3 81 82 83
3 79 84 85
3 80 79 85
3 80 85 86
3 82 80 86
3 82 86 87
3 83 82 87
3 83 87 88
3 84 89 90
3 85 84 90
3 85 90 91
3 86 85 91
3 86 91 92
3 87 86 92
3 87 92 93
3 88 87 93
3 90 89 94
3 91 90 94
3 91 94 95
3 92 91 95
3 93 92 95
3 93 95 17
3 93 17 19
3 93 19 21
3 93 21 88
3 88 21 23
3 88 23 83
3 83 23 25
3 83 25 27
3 83 27 81
3 81 27 2
3 81 2 78
3 78 2 3
3 78 3 79
3 79 3 5
3 79 5 7
3 79 7 84
3 84 7 9
3 84 9 89
3 89 9 11
3 89 11 13
3 89 13 94
3 94 13 15
3 94 15 95
3 95 15 17

CELL_TYPES 188
5
5
5
5
5
5
5
5
5
5
5
5
5
5
5
5
5
5
5
5
5
5
5
5
5
5
5
5
5
5
5
5
5
5
5
5
5
5
5
5
5
5
5
5
5
5
5
5
5
5
5
5
5
5
5
5
5
5
5
5
5
5
5
5
5
5
5
5
5
5
5
5
5
5
5
5
5
5
5
5
5
5
5
5
5
5
5
5
5
5
5
5
5
5
5
5
5
5
5
5
5
5
5
5
5
5
5
5
5
5
5
5
5
5
5
5
5
5
5
5
5
5
5
5
5
5
5
5
5
5
5
5
5
5
5
5
5
5
5
5
5
5
5
5
5
5
5
5
5
5
5
5
5
5
5
5
5
5
5
5
5
5
5
5
5
5
5
5
5
5
5
5
5
5
5
5
5
5
5
5
5
5
5
5
5
5
5
5

CELL_DATA 188
SCALARS cell_data_0_real double
LOOKUP_TABLE default
0.000260565876407
0.000310882495113
0.000117010592258
8.8671548246e-05
-1.77343141667e-05
-5.98832893862e-05
-9.86498776092e-05
-0.000138990178988
-0.000144113996823
-0.000181138483217
-0.000168318462699
-0.000203457874404
-0.000179862006297
-0.000212303812076
-0.00018159985694
-0.000211023515348
-0.000173435341734
-0.000198896147072
-0.000153188817723
-0.000171845347591
-0.000114784569085
-0.000120810004436
-4.59525342438e-05
-2.52228725841e-05
7.05865234774e-05
0.000146950176632
0.00022310464467
0.000355699319438
7.95723238077e-05
7.78893615154e-05
7.96928436394e-05
9.23913457167e-05
0.00010770092444
9.17548046808e-05
7.23462903692e-05
6.98917149155e-05
7.24539390879e-05
7.43288057614e-05
7.10037936705e-05
6.93186692301e-05
7.22478350652e-05
6.53401938758e-05
8.48980059382e-05
6.60078614534e-05
5.68563432623e-05
5.92561342236e-05
6.57802028403e-05
6.6563459592e-05
6.99360770133e-05
6.8851602573e-05
6.94856226373e-05
6.6718892058e-05
6.0907741206e-05
6.01736608784e-05
4.74262348164e-05
4.80212101014e-05
4.63024497717e-05
3.88901615516e-05
4.63899731467e-05
5.52502600793e-05
5.80155816822e-05
6.3441992122e-05
6.30267293703e-05
6.58842888363e-05
6.29962367685e-05
6.33933489075e-05
5.79114970893e-05
5.50617477403e-05
4.61685284231e-05
3.84819301248e-05
2.40964154768e-05
2.44812554534e-05
9.61791899324e-06
1.57620584833e-05
3.77144889665e-05
4.04063068934e-05
5.17476660633e-05
5.18953116751e-05
5.76738041763e-05
5.52384752698e-05
5.76345076847e-05
5.17747827096e-05
5.1584725257e-05
4.00255742816e-05
3.74265118625e-05
1.52069586179e-05
9.24917449729e-06
-7.73139132323e-06
1.85758121813e-06
2.67214326425e-05
2.93665290713e-05
4.19371871107e-05
3.96258096319e-05
4.60355082971e-05
3.78369957136e-05
4.04540352963e-05
2.96979857199e-05
1.39037958861e-05
-8.08282106395e-07
-2.18347182714e-05
-1.00255092686e-05
1.37587461972e-05
2.25707350676e-05
1.30135297784e-05
1.94768947408e-05
5.09733473187e-06
-1.61255352725e-05
-3.23350291108e-05
-1.64539472439e-05
-3.18604239808e-05
-8.18702085245e-05
-0.000112743421715
-0.000106796472105
-5.84970444274e-05
-4.7366641291e-05
-8.39581693452e-05
-3.55108049813e-05
-5.06615979123e-05
-3.52312745233e-06
-1.56775464501e-06
3.32006838566e-05
6.75012991981e-05
9.94555923068e-05
0.000159859723555
0.00014450433624
0.000159338435264
0.000104217702105
8.0332792983e-05
6.64172307022e-05
3.72562602656e-05
-3.10445949092e-07
-2.95360392854e-06
-5.01943579965e-05
-3.51728196731e-05
-8.34148795821e-05
-5.85527808639e-05
-0.000103795422561
-7.37602284589e-05
-0.000114371321732
-8.23083396692e-05
0.000293888291672
0.000590935044078
0.000367491615927
0.0002432135238
-5.61328075137e-05
3.90408094659e-05
-2.69657216251e-05
6.06308829627e-05
-3.82792565618e-05
5.23513538392e-06
-8.06674726276e-05
-0.000190110460765
-0.000152989070296
-0.000178632623063
-0.000141222351431
-0.000175516918445
-0.000146075865193
-0.000185213004653
-0.000164288449441
-0.000230099445975
-0.000219005556634
-0.000237221863827
-0.000223068146295
-0.000222117271547
-0.000247512434752
-0.000238143057681
-0.0002108513945
-0.000186756797787
-0.00015019247281
-8.51471700669e-05
-3.00953095197e-05
0.000122577853901
0.000290546062023
0.000501021730214
0.000668136337781
0.000496560522957
0.000326989801408
0.000156429210107
-1.84016540374e-05
-7.41798257254e-05
-0.000159284521295
-0.000189092808771
-0.000197912732165
-0.000228614058134
-0.000249031742587
-0.000246132074262
-0.000248315882268
-0.000246386606328

SCALARS cell_data_0_imag double
LOOKUP_TABLE default
0.0
0.0
0.0
0.0
0.0
0.0
0.0
0.0
0.0
0.0
0.0
0.0
0.0
0.0
0.0
0.0
0.0
0.0
0.0
0.0
0.0
0.0
0.0
0.0
0.0
0.0
0.0
0.0
0.0
0.0
0.0
0.0
0.0
0.0
0.0
0.0
0.0
0.0
0.0
0.0
0.0
0.0
0.0
0.0
0.0
0.0
0.0
0.0
0.0
0.0
0.0
0.0
0.0
0.0
0.0
0.0
0.0
0.0
0.0
0.0
0.0
0.0
0.0
0.0
0.0
0.0
0.0
0.0
0.0
0.0
0.0
0.0
0.0
0.0
0.0
0.0
0.0
0.0
0.0
0.0
0.0
0.0
0.0
0.0
0.0
0.0
0.0
0.0
0.0
0.0
0.0
0.0
0.0
0.0
0.0
0.0
0.0
0.0
0.0
0.0
0.0
0.0
0.0
0.0
0.0
0.0
0.0
0.0
0.0
0.0
0.0
0.0
0.0
0.0
0.0
0.0
0.0
0.0
0.0
0.0
0.0
0.0
0.0
0.0
0.0
0.0
0.0
0.0
0.0
0.0
0.0
0.0
0.0
0.0
0.0
0.0
0.0
0.0
0.0
0.0
0.0
0.0
0.0
0.0
0.0
0.0
0.0
0.0
0.0
0.0
0.0
0.0
0.0
0.0
0.0
0.0
0.0
0.0
0.0
0.0
0.0
0.0
0.0
0.0
0.0
0.0
0.0
0.0
0.0
0.0
0.0
0.0
0.0
0.0
0.0
0.0
0.0
0.0
0.0
0.0
0.0
0.0
0.0
0.0
0.0
0.0
0.0
0.0

