# vtk DataFile Version 3.0
File Name: Molecule/methanol/methanol_5.0-3.vtk
ASCII
DATASET UNSTRUCTURED_GRID
FIELD FieldData 1
TIME 1 1 double
0.0
POINTS 255 double
1.611 0.0 -0.359
1.543 -0.475 -0.352
1.403 0.0 -0.933
1.341 -0.432 -0.927
1.345 -0.911 -0.332
1.16 -0.83 -0.909
1.032 -1.273 -0.301
0.876 -1.16 -0.88
0.631 -1.532 -0.261
0.51 -1.396 -0.844
0.173 -1.667 -0.216
0.093 -1.519 -0.802
-0.304 -1.667 -0.168
-0.341 -1.519 -0.759
-0.762 -1.532 -0.123
-0.758 -1.396 -0.718
-1.163 -1.273 -0.083
-1.124 -1.16 -0.681
-1.475 -0.911 -0.051
-1.408 -0.83 -0.653
-1.674 -0.475 -0.032
-1.589 -0.432 -0.635
-1.742 -0.0 -0.025
-1.651 -0.0 -0.629
-1.674 0.475 -0.032
-1.589 0.432 -0.635
-1.475 0.911 -0.051
-1.408 0.83 -0.653
-1.163 1.273 -0.083
-1.124 1.16 -0.681
-0.762 1.532 -0.123
-0.758 1.396 -0.718
-0.304 1.667 -0.168
-0.341 1.519 -0.759
0.173 1.667 -0.216
0.093 1.519 -0.802
0.631 1.532 -0.261
0.51 1.396 -0.844
1.032 1.273 -0.301
0.876 1.16 -0.88
1.345 0.911 -0.332
1.16 0.83 -0.909
1.543 0.475 -0.352
1.341 0.432 -0.927
1.907 0.0 0.656
1.852 0.452 0.656
1.852 0.226 1.047
1.852 -0.226 1.047
1.852 -0.452 0.656
1.852 -0.226 0.264
1.852 0.226 0.264
1.69 0.76 1.094
1.69 0.439 1.415
1.69 -0.0 1.533
1.69 -0.439 1.415
1.69 -0.76 1.094
1.69 -0.877 0.656
1.69 -0.76 0.217
1.69 -0.439 -0.104
1.69 0.439 -0.104
1.69 0.76 0.217
1.69 0.877 0.656
1.432 1.167 1.108
1.432 0.925 1.499
1.432 0.558 1.776
1.432 0.115 1.902
1.432 -0.343 1.859
1.432 -0.754 1.654
1.432 -1.064 1.315
1.432 -1.23 0.886
1.432 -1.23 0.426
1.432 -1.064 -0.003
1.432 1.167 0.203
1.432 1.252 0.656
1.091 1.484 1.113
1.091 1.283 1.531
1.091 0.969 1.87
1.091 0.568 2.102
1.091 0.116 2.205
1.091 -0.346 2.17
1.091 -0.777 2.001
1.091 -1.139 1.712
1.091 -1.4 1.33
1.091 -1.536 0.887
1.091 -1.536 0.424
1.091 -1.4 -0.018
1.091 1.484 0.198
1.091 1.553 0.656
0.688 1.705 1.112
0.688 1.528 1.538
0.688 1.248 1.904
0.688 0.882 2.184
0.688 0.457 2.36
0.688 0.0 2.42
0.688 -0.457 2.36
0.688 -0.882 2.184
0.688 -1.248 1.904
0.688 -1.528 1.538
0.688 -1.705 1.112
0.688 -1.765 0.656
0.688 -1.705 0.199
0.688 1.705 0.199
0.688 1.765 0.656
0.247 1.815 1.122
0.247 1.642 1.558
0.247 1.366 1.938
0.247 1.004 2.238
0.247 0.579 2.438
0.247 0.118 2.526
0.247 -0.351 2.496
0.247 -0.798 2.351
0.247 -1.194 2.099
0.247 -1.516 1.757
0.247 -1.742 1.345
0.247 -1.859 0.89
0.247 -1.859 0.421
0.247 1.815 0.19
0.247 1.874 0.656
-0.209 1.815 1.122
-0.209 1.642 1.558
-0.209 1.366 1.938
-0.209 1.004 2.238
-0.209 0.579 2.438
-0.209 0.118 2.526
-0.209 -0.351 2.496
-0.209 -0.798 2.351
-0.209 -1.194 2.099
-0.209 -1.516 1.757
-0.209 -1.742 1.345
-0.209 -1.859 0.89
-0.209 -1.859 0.421
-0.209 1.815 0.19
-0.209 1.874 0.656
-0.65 1.765 0.656
-0.65 1.705 1.112
-0.65 1.528 1.538
-0.65 1.248 1.904
-0.65 0.882 2.184
-0.65 0.457 2.36
-0.65 0.0 2.42
-0.65 -0.457 2.36
-0.65 -0.882 2.184
-0.65 -1.248 1.904
-0.65 -1.528 1.538
-0.65 -1.705 1.112
-0.65 -1.765 0.656
-0.65 -1.705 0.199
-0.65 1.705 0.199
-1.053 1.553 0.656
-1.053 1.484 1.113
-1.053 1.283 1.531
-1.053 0.969 1.87
-1.053 0.568 2.102
-1.053 0.116 2.205
-1.053 -0.346 2.17
-1.053 -0.777 2.001
-1.053 -1.139 1.712
-1.053 -1.4 1.33
-1.053 -1.536 0.887
-1.053 -1.536 0.424
-1.053 1.484 0.198
-1.394 1.252 0.656
-1.394 1.167 1.108
-1.394 0.925 1.499
-1.394 0.558 1.776
-1.394 0.115 1.902
-1.394 -0.343 1.859
-1.394 -0.754 1.654
-1.394 -1.064 1.315
-1.394 -1.23 0.886
-1.394 -1.23 0.426
-1.394 1.167 0.203
-1.652 0.877 0.656
-1.652 0.76 1.094
-1.652 0.439 1.415
-1.652 -0.0 1.533
-1.652 -0.439 1.415
-1.652 -0.76 1.094
-1.652 -0.877 0.656
-1.652 -0.76 0.217
-1.652 0.76 0.217
-1.814 0.452 0.656
-1.814 0.226 1.047
-1.814 -0.226 1.047
-1.814 -0.452 0.656
-1.814 -0.226 0.264
-1.814 0.226 0.264
-1.868 -0.0 0.656
1.122 -0.781 -1.188
0.783 -1.147 -1.212
0.783 -0.878 -1.615
1.122 -0.451 -1.519
0.783 -0.475 -1.885
1.122 -0.0 -1.639
1.122 0.781 -1.188
1.122 0.451 -1.519
0.783 0.878 -1.615
0.783 1.147 -1.212
0.355 -1.284 -1.432
0.355 -0.989 -1.811
0.355 -0.586 -2.074
0.355 -0.121 -2.192
0.783 0.475 -1.885
0.355 0.798 -1.959
0.355 1.152 -1.634
0.355 1.381 -1.211
-0.12 -1.383 -1.403
-0.12 -1.125 -1.781
-0.12 -0.767 -2.067
-0.12 -0.342 -2.234
-0.12 0.115 -2.268
0.355 0.358 -2.152
-0.12 0.561 -2.166
-0.12 0.957 -1.937
-0.12 1.268 -1.602
-0.12 1.467 -1.19
-0.594 -1.44 -0.977
-0.594 -1.284 -1.432
-0.594 -0.989 -1.811
-0.594 -0.586 -2.074
-0.594 -0.121 -2.192
-0.594 0.358 -2.152
-0.594 0.798 -1.959
-0.594 1.152 -1.634
-0.594 1.381 -1.211
-1.022 -1.147 -1.212
-1.022 -0.878 -1.615
-1.022 -0.475 -1.885
-1.022 0.0 -1.979
-1.022 0.475 -1.885
-1.022 0.878 -1.615
-1.022 1.147 -1.212
-1.362 -0.781 -1.188
-1.362 -0.451 -1.519
-1.362 -0.0 -1.639
-1.362 0.451 -1.519
-1.362 0.781 -1.188
-1.58 -0.237 -1.148
-1.58 0.237 -1.148
0.783 0.0 -1.979
0.569 -0.0605 -2.0855
0.569 0.179 -2.0655
0.355 0.1185 -2.172
0.783 0.2375 -1.932
0.569 0.4165 -2.0185
0.9525 0.0 -1.809
0.783 0.35625 -1.9085
0.9525 0.11875 -1.7855
0.9525 0.2375 -1.762
0.783 0.11875 -1.9555
0.9525 0.463 -1.702
1.122 0.2255 -1.579
0.86775 0.35625 -1.8235
1.03725 0.34425 -1.6405
1.03725 0.11875 -1.7005

CELLS 506 2024
3 0 1 2
3 2 1 3
3 1 4 3
3 3 4 5
3 4 6 5
3 5 6 7
3 6 8 7
3 7 8 9
3 8 10 9
3 9 10 11
3 10 12 11
3 11 12 13
3 12 14 13
3 13 14 15
3 14 16 15
3 15 16 17
3 16 18 17
3 17 18 19
3 18 20 19
3 19 20 21
3 20 22 21
3 21 22 23
3 22 24 23
3 23 24 25
3 24 26 25
3 25 26 27
3 26 28 27
3 27 28 29
3 28 30 29
3 29 30 31
3 30 32 31
3 31 32 33
3 32 34 33
3 33 34 35
3 34 36 35
3 35 36 37
3 36 38 37
3 37 38 39
3 38 40 39
3 39 40 41
3 40 42 41
3 41 42 43
3 42 0 43
3 43 0 2
3 44 45 46
3 44 46 47
3 44 47 48
3 44 48 49
3 44 49 50
3 44 50 45
3 46 45 51
3 46 51 52
3 46 52 53
3 47 46 53
3 47 53 54
3 47 54 55
3 48 47 55
3 48 55 56
3 48 56 57
3 49 48 57
3 49 57 58
3 50 59 60
3 45 50 60
3 45 60 61
3 45 61 51
3 51 61 62
3 51 62 63
3 52 51 63
3 52 63 64
3 52 64 65
3 53 52 65
3 53 65 66
3 54 53 66
3 54 66 67
3 55 54 67
3 55 67 68
3 55 68 69
3 56 55 69
3 56 69 70
3 57 56 70
3 57 70 71
3 61 60 72
3 61 72 73
3 61 73 62
3 62 73 74
3 62 74 75
3 63 62 75
3 63 75 76
3 64 63 76
3 64 76 77
3 65 64 77
3 65 77 78
3 65 78 79
3 66 65 79
3 66 79 80
3 67 66 80
3 67 80 81
3 68 67 81
3 68 81 82
3 69 68 82
3 69 82 83
3 69 83 84
3 70 69 84
3 70 84 85
3 71 70 85
3 73 72 86
3 73 86 87
3 73 87 74
3 74 87 88
3 74 88 89
3 75 74 89
3 75 89 90
3 76 75 90
3 76 90 91
3 77 76 91
3 77 91 92
3 78 77 92
3 78 92 93
3 79 78 93
3 79 93 94
3 80 79 94
3 80 94 95
3 80 95 96
3 81 80 96
3 81 96 97
3 82 81 97
3 82 97 98
3 83 82 98
3 83 98 99
3 84 83 99
3 84 99 100
3 85 84 100
3 87 86 101
3 87 101 102
3 87 102 88
3 88 102 103
3 88 103 104
3 89 88 104
3 89 104 105
3 90 89 105
3 90 105 106
3 91 90 106
3 91 106 107
3 92 91 107
3 92 107 108
3 93 92 108
3 93 108 109
3 94 93 109
3 94 109 110
3 95 94 110
3 95 110 111
3 96 95 111
3 96 111 112
3 97 96 112
3 97 112 113
3 98 97 113
3 98 113 114
3 99 98 114
3 99 114 115
3 100 99 115
3 102 101 116
3 102 116 117
3 102 117 103
3 103 117 118
3 103 118 119
3 104 103 119
3 104 119 120
3 105 104 120
3 105 120 121
3 106 105 121
3 106 121 122
3 107 106 122
3 107 122 123
3 108 107 123
3 108 123 124
3 109 108 124
3 109 124 125
3 110 109 125
3 110 125 126
3 111 110 126
3 111 126 127
3 112 111 127
3 112 127 128
3 113 112 128
3 113 128 129
3 114 113 129
3 114 129 130
3 115 114 130
3 117 116 131
3 117 131 132
3 117 132 118
3 118 132 133
3 118 133 134
3 119 118 134
3 119 134 135
3 120 119 135
3 120 135 136
3 121 120 136
3 121 136 137
3 122 121 137
3 122 137 138
3 123 122 138
3 123 138 139
3 124 123 139
3 124 139 140
3 125 124 140
3 125 140 141
3 126 125 141
3 126 141 142
3 127 126 142
3 127 142 143
3 128 127 143
3 128 143 144
3 129 128 144
3 129 144 145
3 130 129 145
3 130 145 146
3 133 131 147
3 132 131 133
3 134 133 148
3 134 148 149
3 135 134 149
3 135 149 150
3 136 135 150
3 136 150 151
3 137 136 151
3 137 151 152
3 138 137 152
3 138 152 153
3 139 138 153
3 139 153 154
3 140 139 154
3 140 154 155
3 141 140 155
3 142 141 155
3 142 155 156
3 143 142 156
3 143 156 157
3 144 143 157
3 144 157 158
3 145 144 158
3 145 158 159
3 146 145 159
3 148 147 160
3 133 147 148
3 149 148 161
3 149 161 162
3 150 149 162
3 150 162 163
3 151 150 163
3 151 163 164
3 152 151 164
3 152 164 165
3 153 152 165
3 154 153 165
3 154 165 166
3 155 154 166
3 155 166 167
3 156 155 167
3 156 167 168
3 157 156 168
3 157 168 169
3 158 157 169
3 158 169 170
3 159 158 170
3 161 160 171
3 148 160 161
3 162 161 172
3 162 172 173
3 163 162 173
3 163 173 174
3 164 163 174
3 165 164 174
3 165 174 175
3 166 165 175
3 166 175 176
3 167 166 176
3 167 176 177
3 168 167 177
3 169 168 177
3 169 177 178
3 170 169 178
3 170 178 179
3 172 171 180
3 161 171 172
3 173 172 181
3 173 181 182
3 174 173 182
3 175 174 182
3 175 182 183
3 176 175 183
3 177 176 183
3 177 183 184
3 178 177 184
3 179 178 184
3 179 184 185
3 181 180 186
3 172 180 181
3 182 181 187
3 183 182 187
3 184 183 187
3 185 184 187
3 186 185 187
3 181 186 187
3 186 180 24
3 186 24 22
3 186 22 185
3 185 22 20
3 185 20 179
3 179 20 18
3 179 18 170
3 170 18 16
3 170 16 159
3 159 16 14
3 159 14 146
3 146 14 12
3 146 12 130
3 130 12 10
3 130 10 115
3 115 10 100
3 100 10 8
3 100 8 85
3 85 8 6
3 85 6 71
3 71 6 4
3 71 4 58
3 71 58 57
3 58 4 1
3 58 1 0
3 58 0 49
3 49 0 50
3 50 0 59
3 59 0 42
3 59 42 40
3 59 40 60
3 60 40 72
3 72 40 38
3 72 38 86
3 86 38 36
3 86 36 101
3 101 36 116
3 116 36 34
3 116 34 131
3 131 34 32
3 131 32 147
3 147 32 30
3 147 30 160
3 160 30 28
3 160 28 171
3 171 28 26
3 171 26 180
3 180 26 24
3 188 189 190
3 191 188 190
3 191 190 192
3 193 191 192
3 194 195 196
3 194 196 197
3 190 189 198
3 190 198 199
3 192 190 199
3 192 199 200
3 192 200 201
3 196 202 203
3 196 203 204
3 197 196 204
3 197 204 205
3 198 206 207
3 199 198 207
3 199 207 208
3 200 199 208
3 200 208 209
3 201 200 209
3 201 209 210
3 211 210 212
3 203 211 212
3 203 212 213
3 204 203 213
3 204 213 214
3 205 204 214
3 205 214 215
3 206 216 217
3 207 206 217
3 207 217 218
3 208 207 218
3 208 218 219
3 209 208 219
3 209 219 220
3 210 209 220
3 210 220 221
3 212 210 221
3 212 221 222
3 213 212 222
3 213 222 223
3 214 213 223
3 214 223 224
3 215 214 224
3 217 216 225
3 217 225 226
3 218 217 226
3 218 226 227
3 219 218 227
3 220 219 227
3 220 227 228
3 221 220 228
3 221 228 229
3 222 221 229
3 222 229 230
3 223 222 230
3 223 230 231
3 224 223 231
3 226 225 232
3 226 232 233
3 227 226 233
3 227 233 234
3 228 227 234
3 229 228 234
3 229 234 235
3 230 229 235
3 230 235 236
3 231 230 236
3 233 232 237
3 234 233 237
3 234 237 238
3 235 234 238
3 236 235 238
3 236 238 25
3 236 25 27
3 236 27 29
3 236 29 231
3 231 29 31
3 231 31 224
3 224 31 33
3 224 33 215
3 215 33 35
3 215 35 205
3 205 35 37
3 205 37 197
3 197 37 39
3 197 39 194
3 194 39 41
3 194 41 43
3 194 43 195
3 195 43 2
3 193 2 191
3 191 2 3
3 191 3 188
3 188 3 5
3 188 5 7
3 188 7 189
3 189 7 9
3 189 9 198
3 198 9 11
3 198 11 206
3 206 11 13
3 206 13 216
3 216 13 15
3 216 15 225
3 225 15 17
3 225 17 232
3 232 17 19
3 232 19 21
3 232 21 237
3 237 21 23
3 237 23 238
3 238 23 25
3 239 240 192
3 201 240 192
3 239 240 241
3 240 242 241
3 240 242 201
3 241 211 242
3 243 241 244
3 244 211 241
3 202 244 203
3 211 244 203
3 201 242 210
3 211 242 210
3 239 245 192
3 193 245 192
3 246 247 248
3 246 247 243
3 239 249 245
3 249 247 245
3 249 247 243
3 245 193 247
3 202 246 244
3 243 246 244
3 239 249 241
3 243 249 241
3 202 250 196
3 195 250 196
3 193 251 2
3 195 251 2
3 202 252 250
3 252 253 250
3 252 253 248
3 250 195 253
3 193 254 251
3 254 253 251
3 254 253 248
3 251 195 253
3 202 252 246
3 248 252 246
3 193 254 247
3 248 254 247

CELL_TYPES 506
5
5
5
5
5
5
5
5
5
5
5
5
5
5
5
5
5
5
5
5
5
5
5
5
5
5
5
5
5
5
5
5
5
5
5
5
5
5
5
5
5
5
5
5
5
5
5
5
5
5
5
5
5
5
5
5
5
5
5
5
5
5
5
5
5
5
5
5
5
5
5
5
5
5
5
5
5
5
5
5
5
5
5
5
5
5
5
5
5
5
5
5
5
5
5
5
5
5
5
5
5
5
5
5
5
5
5
5
5
5
5
5
5
5
5
5
5
5
5
5
5
5
5
5
5
5
5
5
5
5
5
5
5
5
5
5
5
5
5
5
5
5
5
5
5
5
5
5
5
5
5
5
5
5
5
5
5
5
5
5
5
5
5
5
5
5
5
5
5
5
5
5
5
5
5
5
5
5
5
5
5
5
5
5
5
5
5
5
5
5
5
5
5
5
5
5
5
5
5
5
5
5
5
5
5
5
5
5
5
5
5
5
5
5
5
5
5
5
5
5
5
5
5
5
5
5
5
5
5
5
5
5
5
5
5
5
5
5
5
5
5
5
5
5
5
5
5
5
5
5
5
5
5
5
5
5
5
5
5
5
5
5
5
5
5
5
5
5
5
5
5
5
5
5
5
5
5
5
5
5
5
5
5
5
5
5
5
5
5
5
5
5
5
5
5
5
5
5
5
5
5
5
5
5
5
5
5
5
5
5
5
5
5
5
5
5
5
5
5
5
5
5
5
5
5
5
5
5
5
5
5
5
5
5
5
5
5
5
5
5
5
5
5
5
5
5
5
5
5
5
5
5
5
5
5
5
5
5
5
5
5
5
5
5
5
5
5
5
5
5
5
5
5
5
5
5
5
5
5
5
5
5
5
5
5
5
5
5
5
5
5
5
5
5
5
5
5
5
5
5
5
5
5
5
5
5
5
5
5
5
5
5
5
5
5
5
5
5
5
5
5
5
5
5
5
5
5
5
5
5
5
5
5
5
5
5
5
5
5
5
5
5
5
5
5
5
5
5
5
5
5
5
5
5
5
5
5
5
5
5
5
5
5
5
5
5
5
5
5
5
5
5
5
5
5
5
5
5
5
5
5
5
5
5
5
5
5
5
5
5
5
5
5
5
5
5
5
5
5
5
5
5
5
5
5
5

CELL_DATA 506
SCALARS cell_data_0 double
LOOKUP_TABLE default
5.50339079587e-08
1.39875251439e-07
1.03516847514e-07
6.82773710755e-08
6.67223937841e-10
3.22465449243e-09
8.1601028396e-09
1.2497193597e-08
1.06915281554e-08
1.50718335602e-08
1.06246289136e-08
1.37799284295e-08
9.29473996644e-09
1.18844557776e-08
8.37117746313e-09
1.06373626435e-08
7.7004920791e-09
1.00967178024e-08
7.65940467186e-09
9.60277781543e-09
7.36739043121e-09
8.73925543349e-09
7.11011289481e-09
9.22991069975e-09
7.84009213545e-09
1.01951883444e-08
8.5180142485e-09
1.12713329299e-08
9.27053365958e-09
1.27526527934e-08
1.05201714622e-08
1.51056020481e-08
1.25120036842e-08
1.73510485063e-08
1.35329874119e-08
1.92690001283e-08
1.35411887942e-08
1.55526858681e-08
6.4145828636e-09
1.6741078212e-09
5.08734525853e-09
1.3946733423e-07
1.49504453611e-07
1.68194777353e-07
2.41567961649e-09
2.16227159846e-09
2.18545593331e-09
2.08217848052e-09
1.37769753087e-09
1.76806114952e-09
2.52795779497e-09
1.91861561206e-09
1.82955170184e-09
2.05140366172e-09
1.99944669938e-09
1.72984694512e-09
1.76015296791e-09
2.68309563097e-09
2.4587792239e-09
4.69291946017e-09
6.60593185748e-09
1.32808093534e-09
1.50027188186e-09
2.16608373853e-09
2.36168308618e-09
2.11307530621e-09
1.79201108048e-09
2.05985725021e-09
1.77963042774e-09
1.83331894657e-09
1.89481207859e-09
1.68392213382e-09
2.08066648267e-09
1.82724027831e-09
1.69970469232e-09
1.62069680435e-09
1.20208882766e-09
2.2447321727e-09
2.93800915331e-09
1.64269599143e-09
2.92436540454e-09
2.08699903479e-09
2.15770852833e-09
2.02929774579e-09
1.89511052198e-09
1.68409512426e-09
1.75011163479e-09
1.5735567594e-09
1.6653152397e-09
1.49624704988e-09
1.60012261302e-09
1.49827092754e-09
1.53089722793e-09
1.64066733548e-09
1.56037506629e-09
1.64491737068e-09
1.56551155344e-09
1.88050040243e-09
1.65300205187e-09
1.3293477272e-09
1.18636360854e-09
6.99318291345e-10
1.09532676652e-09
1.19156597525e-09
1.7366888999e-09
2.00024740754e-09
1.83721421716e-09
1.83124638666e-09
1.67871511422e-09
1.54566318153e-09
1.606493263e-09
1.4327160451e-09
1.5155464307e-09
1.35788950015e-09
1.43580125833e-09
1.29665672202e-09
1.40031064591e-09
1.29967062024e-09
1.41218973809e-09
1.31912282833e-09
1.4346173961e-09
1.35675989106e-09
1.41069906894e-09
1.56208115141e-09
1.46408237599e-09
1.4342255317e-09
1.28090597665e-09
1.41349387933e-09
1.07362634393e-09
6.87083419309e-10
3.96276246071e-10
5.04696395045e-10
1.6374205143e-09
1.57635861929e-09
1.61046444292e-09
1.48305674461e-09
1.41073010523e-09
1.41719994725e-09
1.31865268469e-09
1.3196000217e-09
1.24727617816e-09
1.25916404528e-09
1.19303190661e-09
1.21760707599e-09
1.16856147699e-09
1.21109036173e-09
1.16898035193e-09
1.2150214002e-09
1.18839856462e-09
1.24337123961e-09
1.24168952149e-09
1.32483166395e-09
1.25955071032e-09
1.29542106065e-09
1.23561949822e-09
1.26056331083e-09
1.03181699062e-09
8.89223011895e-10
6.18917911339e-10
4.88494752818e-10
1.36279999505e-09
1.37482626327e-09
1.44459595991e-09
1.32846172575e-09
1.24817415546e-09
1.27292874192e-09
1.18253624854e-09
1.2128187158e-09
1.12249995985e-09
1.14610314218e-09
1.07134430977e-09
1.10188706804e-09
1.04768228916e-09
1.08644048105e-09
1.05110988531e-09
1.09161303115e-09
1.07442197157e-09
1.12734795467e-09
1.09316318128e-09
1.15452688454e-09
1.12608964265e-09
1.15897689526e-09
1.07211859401e-09
1.09860272838e-09
8.97181906588e-10
8.86593992032e-10
5.76025840731e-10
3.9363631709e-10
1.11684279979e-09
1.13364309668e-09
1.25420683723e-09
1.02168074742e-09
9.44442721743e-10
1.11122010168e-09
1.05183334107e-09
1.10512956574e-09
1.05330327861e-09
1.04871257247e-09
1.00602464377e-09
1.00966962828e-09
9.76000750015e-10
9.86719373302e-10
9.6407862694e-10
9.87845987484e-10
9.58733226296e-10
1.001986565e-09
9.68225489169e-10
1.00532105391e-09
9.59878110056e-10
1.01784571417e-09
1.00973968596e-09
1.0110144097e-09
9.18690679529e-10
8.51655262017e-10
6.56406366669e-10
3.08349409697e-10
1.02729876629e-10
3.36476532761e-10
8.72531171028e-10
6.71634509588e-10
7.81300815876e-10
9.4991641026e-10
9.58208226522e-10
9.86386550981e-10
9.68150789292e-10
9.5153818948e-10
9.51380227451e-10
9.27945014077e-10
9.16775663799e-10
8.97579699762e-10
8.92720971455e-10
8.96770538678e-10
8.89329726123e-10
8.99242135103e-10
9.00944712605e-10
8.98828216255e-10
9.28470961174e-10
8.932047446e-10
8.53127439528e-10
7.70163633796e-10
5.65526003709e-10
3.64483749493e-10
3.06095141162e-10
7.66710551892e-11
2.25390333052e-10
5.32830565319e-10
6.58500826813e-10
8.24393153975e-10
8.4869316817e-10
8.69429560614e-10
8.72213305178e-10
8.5474562925e-10
8.60457305807e-10
8.55771586077e-10
8.48083189648e-10
8.40456338635e-10
8.33755541149e-10
8.44804335976e-10
8.29909634367e-10
8.17841982783e-10
7.79909469187e-10
7.04946121551e-10
6.0826299083e-10
3.84548114003e-10
4.46381712534e-10
1.49283551855e-10
1.01338810155e-10
4.25664598724e-10
5.72325746564e-10
7.08392505538e-10
7.6445106764e-10
7.67811309222e-10
7.99922970463e-10
7.79912799617e-10
7.67747896213e-10
7.8309104424e-10
7.39730204507e-10
7.27763524664e-10
7.19521511738e-10
6.1183971225e-10
4.00898209956e-10
2.36447696891e-10
1.09279586525e-10
1.37144004222e-10
2.74657344826e-11
3.30048870657e-10
5.24922853046e-10
6.32058351032e-10
6.6218178105e-10
7.03657384258e-10
6.47740649474e-10
6.17025870735e-10
5.26452437996e-10
2.74388403759e-10
5.83723214994e-12
3.00901274949e-11
7.38090783837e-11
4.77074413419e-12
2.17959821017e-10
3.52992249751e-10
2.13765386821e-10
2.01812535528e-11
5.25603842753e-11
1.54854185564e-11
8.87047327836e-10
1.52682754941e-09
5.96409643509e-10
1.54142020698e-09
8.09167544849e-10
1.37469361034e-09
7.24272886984e-10
2.03370374347e-09
4.88223495108e-10
2.34694056146e-09
6.9206364138e-10
1.92461533235e-09
1.32037355377e-09
3.58734580812e-09
1.65562512201e-09
1.52798928094e-09
2.87895167136e-09
1.14480901507e-09
1.96844219189e-09
5.04651234675e-10
4.57311585981e-09
7.18513200519e-09
6.28566809753e-09
5.16224454357e-09
1.32843773579e-08
1.74770431431e-09
4.3733851602e-09
4.03848403078e-09
1.80306171347e-09
2.673859214e-09
3.64746960486e-09
3.4806304918e-09
2.80198605577e-10
3.3298108483e-10
2.59899103276e-09
2.1434846212e-10
3.52768233487e-10
2.68321575971e-09
6.62262650061e-10
2.43748997599e-09
9.50420043709e-10
2.38801881272e-09
1.10129587242e-09
1.98399991059e-09
9.39352761154e-10
1.68442910801e-09
8.09517858371e-10
1.54493175057e-09
4.06506378834e-07
7.82800147073e-08
4.03282219302e-08
2.43231535679e-08
1.43918034289e-07
1.76975164553e-08
4.01076495986e-07
6.42487881301e-08
8.82920488138e-08
4.68085262224e-08
2.26077194641e-08
1.66248430976e-08
1.87266283815e-08
1.6487503581e-08
1.80483786713e-08
1.77760731022e-08
1.2369466487e-08
2.05171149714e-08
1.6192093332e-08
7.78208670382e-09
1.93376004585e-08
1.77105373046e-08
1.92633692984e-08
2.1816096318e-08
2.33100583899e-08
2.32043316728e-08
1.88963807066e-08
1.80171763767e-08
1.56397933143e-08
1.85109988645e-08
1.78287985667e-08
1.73929622761e-08
2.11139598514e-08
2.43285492391e-08
2.41421827435e-08
2.51225187114e-08
2.25007133542e-08
2.05230446085e-08
2.07449486532e-08
2.13917494686e-08
2.10978444895e-08
2.00242522764e-08
1.84824258184e-08
1.52801265353e-08
1.34472184921e-08
1.46577724255e-08
1.59748058342e-08
1.75760796519e-08
1.80446734779e-08
1.86923680165e-08
1.82115228293e-08
1.79375742494e-08
1.90009952781e-08
1.82865877085e-08
1.76617579624e-08
1.59185009831e-08
1.59137339293e-08
1.47233404505e-08
1.33871202545e-08
1.30221463965e-08
1.34177595406e-08
1.50838113977e-08
1.35438153638e-08
1.48423418004e-08
1.41496067406e-08
1.28306716685e-08
1.3490298071e-08
1.29226910337e-08
1.20785327041e-08
1.07192676343e-08
1.10760897669e-08
1.32361238109e-08
1.01105341411e-08
1.00206775625e-08
1.22162381217e-08
1.15073415699e-08
1.23419774738e-08
1.40186503608e-08
1.35868419625e-08
1.38229051324e-08
1.40360691053e-08
1.38029713789e-08
1.37729394125e-08
1.49819128214e-08
1.55218740798e-08
1.52766628678e-08
1.02688700114e-08
1.34632255452e-08
9.517584671e-09
6.25206688599e-08
3.43079464517e-07
4.37761453315e-07
2.46338443435e-08
8.52603563681e-08
6.99476232928e-08
4.79623972968e-08
9.24841254985e-09
2.01256624856e-07
1.50807717488e-07
2.75240398402e-07
2.18727731497e-08
2.71713044857e-08
2.30697297442e-08
1.69971396393e-08
6.39558315856e-09
1.04694526209e-08
1.30941969539e-08
1.39336445212e-08
1.13134758568e-08
1.06188715489e-08
1.41171408316e-08
1.00932114549e-08
1.05789182974e-08
6.87236392414e-09
3.49849130496e-08
1.8371338107e-08
1.49756866574e-08
1.97400602594e-08
1.50576592687e-08
6.84438407622e-09
5.55684745488e-09
4.14059347796e-10
5.87746479321e-09
7.31707317134e-09
6.98646412707e-09
3.80836888484e-09
1.97390182189e-07
2.20051263196e-07
1.2536623247e-07
1.20022234744e-07
2.84067624661e-08
1.03131354362e-07
4.83694203819e-08
1.04901993242e-07
4.15919842661e-08
5.18601010073e-08
1.26094810334e-08
3.15612998626e-09
4.89299793018e-08
2.9791226385e-08
6.08709133467e-07
6.06701778473e-07
2.9850925981e-08
3.62914964174e-08
2.01291258575e-08
1.74005818296e-08
9.75729649574e-08
1.1088223301e-07
1.55094009646e-08
1.02282595274e-07
3.09235302123e-08
3.83865350917e-08
1.99873622138e-08
2.5646998243e-08

