# vtk DataFile Version 3.0
File Name: Molecule/methanol/methanol_5.0-test-1.vtk
ASCII
DATASET UNSTRUCTURED_GRID
FIELD FieldData 1
TIME 1 1 double
0.0
POINTS 252 double
1.611 0.0 -0.359
1.543 -0.475 -0.352
1.403 0.0 -0.933
1.341 -0.432 -0.927
1.345 -0.911 -0.332
1.16 -0.83 -0.909
1.032 -1.273 -0.301
0.876 -1.16 -0.88
0.631 -1.532 -0.261
0.51 -1.396 -0.844
0.173 -1.667 -0.216
0.093 -1.519 -0.802
-0.304 -1.667 -0.168
-0.341 -1.519 -0.759
-0.762 -1.532 -0.123
-0.758 -1.396 -0.718
-1.163 -1.273 -0.083
-1.124 -1.16 -0.681
-1.475 -0.911 -0.051
-1.408 -0.83 -0.653
-1.674 -0.475 -0.032
-1.589 -0.432 -0.635
-1.742 -0.0 -0.025
-1.651 -0.0 -0.629
-1.674 0.475 -0.032
-1.589 0.432 -0.635
-1.475 0.911 -0.051
-1.408 0.83 -0.653
-1.163 1.273 -0.083
-1.124 1.16 -0.681
-0.762 1.532 -0.123
-0.758 1.396 -0.718
-0.304 1.667 -0.168
-0.341 1.519 -0.759
0.173 1.667 -0.216
0.093 1.519 -0.802
0.631 1.532 -0.261
0.51 1.396 -0.844
1.032 1.273 -0.301
0.876 1.16 -0.88
1.345 0.911 -0.332
1.16 0.83 -0.909
1.543 0.475 -0.352
1.341 0.432 -0.927
1.907 0.0 0.656
1.852 -0.226 0.264
1.852 0.226 0.264
1.852 0.226 1.047
1.69 0.76 1.094
1.69 0.439 1.415
1.69 -0.0 1.533
1.852 -0.226 1.047
1.69 -0.439 1.415
1.69 -0.76 1.094
1.852 -0.452 0.656
1.69 -0.877 0.656
1.69 -0.76 0.217
1.69 -0.439 -0.104
1.69 0.439 -0.104
1.69 0.76 0.217
1.852 0.452 0.656
1.69 0.877 0.656
1.432 1.167 1.108
1.432 0.925 1.499
1.432 0.558 1.776
1.432 0.115 1.902
1.432 -0.343 1.859
1.432 -0.754 1.654
1.432 -1.064 1.315
1.432 -1.23 0.886
1.432 -1.23 0.426
1.432 -1.064 -0.003
1.432 1.167 0.203
1.432 1.252 0.656
1.091 1.484 1.113
1.091 1.283 1.531
1.091 0.969 1.87
1.091 0.568 2.102
1.091 0.116 2.205
1.091 -0.346 2.17
1.091 -0.777 2.001
1.091 -1.139 1.712
1.091 -1.4 1.33
1.091 -1.536 0.887
1.091 -1.536 0.424
1.091 -1.4 -0.018
1.091 1.484 0.198
1.091 1.553 0.656
0.688 1.705 1.112
0.688 1.528 1.538
0.688 1.248 1.904
0.688 0.882 2.184
0.688 0.457 2.36
0.688 0.0 2.42
0.688 -0.457 2.36
0.688 -0.882 2.184
0.688 -1.248 1.904
0.688 -1.528 1.538
0.688 -1.705 1.112
0.688 -1.765 0.656
0.688 -1.705 0.199
0.688 1.705 0.199
0.688 1.765 0.656
0.247 1.815 1.122
0.247 1.642 1.558
0.247 1.366 1.938
0.247 1.004 2.238
0.247 0.579 2.438
0.247 0.118 2.526
0.247 -0.351 2.496
0.247 -0.798 2.351
0.247 -1.194 2.099
0.247 -1.516 1.757
0.247 -1.742 1.345
0.247 -1.859 0.89
0.247 -1.859 0.421
0.247 1.815 0.19
0.247 1.874 0.656
-0.209 1.815 1.122
-0.209 1.642 1.558
-0.209 1.366 1.938
-0.209 1.004 2.238
-0.209 0.579 2.438
-0.209 0.118 2.526
-0.209 -0.351 2.496
-0.209 -0.798 2.351
-0.209 -1.194 2.099
-0.209 -1.516 1.757
-0.209 -1.742 1.345
-0.209 -1.859 0.89
-0.209 -1.859 0.421
-0.209 1.815 0.19
-0.209 1.874 0.656
-0.65 1.765 0.656
-0.65 1.705 1.112
-0.65 1.528 1.538
-0.65 1.248 1.904
-0.65 0.882 2.184
-0.65 0.457 2.36
-0.65 0.0 2.42
-0.65 -0.457 2.36
-0.65 -0.882 2.184
-0.65 -1.248 1.904
-0.65 -1.528 1.538
-0.65 -1.705 1.112
-0.65 -1.765 0.656
-0.65 -1.705 0.199
-0.65 1.705 0.199
-1.053 1.553 0.656
-1.053 1.484 1.113
-1.053 1.283 1.531
-1.053 0.969 1.87
-1.053 0.568 2.102
-1.053 0.116 2.205
-1.053 -0.346 2.17
-1.053 -0.777 2.001
-1.053 -1.139 1.712
-1.053 -1.4 1.33
-1.053 -1.536 0.887
-1.053 -1.536 0.424
-1.053 1.484 0.198
-1.394 1.252 0.656
-1.394 1.167 1.108
-1.394 0.925 1.499
-1.394 0.558 1.776
-1.394 0.115 1.902
-1.394 -0.343 1.859
-1.394 -0.754 1.654
-1.394 -1.064 1.315
-1.394 -1.23 0.886
-1.394 -1.23 0.426
-1.394 1.167 0.203
-1.652 0.877 0.656
-1.652 0.76 1.094
-1.652 0.439 1.415
-1.652 -0.0 1.533
-1.652 -0.439 1.415
-1.652 -0.76 1.094
-1.652 -0.877 0.656
-1.652 -0.76 0.217
-1.652 0.76 0.217
-1.814 0.452 0.656
-1.814 0.226 1.047
-1.814 -0.226 1.047
-1.814 -0.452 0.656
-1.814 -0.226 0.264
-1.814 0.226 0.264
-1.868 -0.0 0.656
1.122 -0.781 -1.188
0.783 -1.147 -1.212
0.783 -0.878 -1.615
1.122 -0.451 -1.519
0.783 -0.475 -1.885
1.122 -0.0 -1.639
0.783 0.0 -1.979
0.783 0.475 -1.885
1.122 0.451 -1.519
0.783 0.878 -1.615
1.122 0.781 -1.188
0.783 1.147 -1.212
0.355 -1.284 -1.432
0.355 -0.989 -1.811
0.355 -0.586 -2.074
0.355 -0.121 -2.192
0.355 0.358 -2.152
0.355 0.798 -1.959
0.355 1.152 -1.634
0.355 1.381 -1.211
-0.12 -1.383 -1.403
-0.12 -1.125 -1.781
-0.12 -0.767 -2.067
-0.12 -0.342 -2.234
-0.12 0.115 -2.268
-0.12 0.561 -2.166
-0.12 0.957 -1.937
-0.12 1.268 -1.602
-0.12 1.467 -1.19
-0.594 -1.44 -0.977
-0.594 -1.284 -1.432
-0.594 -0.989 -1.811
-0.594 -0.586 -2.074
-0.594 -0.121 -2.192
-0.594 0.358 -2.152
-0.594 0.798 -1.959
-0.594 1.152 -1.634
-0.594 1.381 -1.211
-1.022 -1.147 -1.212
-1.022 -0.878 -1.615
-1.022 -0.475 -1.885
-1.022 0.0 -1.979
-1.022 0.475 -1.885
-1.022 0.878 -1.615
-1.022 1.147 -1.212
-1.362 -0.781 -1.188
-1.362 -0.451 -1.519
-1.362 -0.0 -1.639
-1.362 0.451 -1.519
-1.362 0.781 -1.188
-1.58 -0.237 -1.148
-1.58 0.237 -1.148
1.8795 0.226 0.656
1.8795 0.113 0.8515
1.852 0.339 0.8515
1.8795 -0.113 0.8515
1.852 0.0 1.047
1.8795 -0.226 0.656
1.852 -0.339 0.8515
-1.471 -0.1185 -1.3935
-1.471 0.1185 -1.3935
-1.58 0.0 -1.148
-1.6155 -0.1185 -0.8885
-1.6155 0.1185 -0.8885

CELLS 500 2000
3 0 1 2
3 2 1 3
3 1 4 3
3 3 4 5
3 4 6 5
3 5 6 7
3 6 8 7
3 7 8 9
3 8 10 9
3 9 10 11
3 10 12 11
3 11 12 13
3 12 14 13
3 13 14 15
3 14 16 15
3 15 16 17
3 16 18 17
3 17 18 19
3 18 20 19
3 19 20 21
3 20 22 21
3 21 22 23
3 22 24 23
3 23 24 25
3 24 26 25
3 25 26 27
3 26 28 27
3 27 28 29
3 28 30 29
3 29 30 31
3 30 32 31
3 31 32 33
3 32 34 33
3 33 34 35
3 34 36 35
3 35 36 37
3 36 38 37
3 37 38 39
3 38 40 39
3 39 40 41
3 40 42 41
3 41 42 43
3 42 0 43
3 43 0 2
3 44 45 46
3 47 48 49
3 47 49 50
3 51 50 52
3 51 52 53
3 54 53 55
3 54 55 56
3 45 54 56
3 45 56 57
3 46 58 59
3 60 46 59
3 60 59 61
3 60 61 48
3 48 61 62
3 48 62 63
3 49 48 63
3 49 63 64
3 49 64 65
3 50 49 65
3 50 65 66
3 52 50 66
3 52 66 67
3 53 52 67
3 53 67 68
3 53 68 69
3 55 53 69
3 55 69 70
3 56 55 70
3 56 70 71
3 61 59 72
3 61 72 73
3 61 73 62
3 62 73 74
3 62 74 75
3 63 62 75
3 63 75 76
3 64 63 76
3 64 76 77
3 65 64 77
3 65 77 78
3 65 78 79
3 66 65 79
3 66 79 80
3 67 66 80
3 67 80 81
3 68 67 81
3 68 81 82
3 69 68 82
3 69 82 83
3 69 83 84
3 70 69 84
3 70 84 85
3 71 70 85
3 73 72 86
3 73 86 87
3 73 87 74
3 74 87 88
3 74 88 89
3 75 74 89
3 75 89 90
3 76 75 90
3 76 90 91
3 77 76 91
3 77 91 92
3 78 77 92
3 78 92 93
3 79 78 93
3 79 93 94
3 80 79 94
3 80 94 95
3 80 95 96
3 81 80 96
3 81 96 97
3 82 81 97
3 82 97 98
3 83 82 98
3 83 98 99
3 84 83 99
3 84 99 100
3 85 84 100
3 87 86 101
3 87 101 102
3 87 102 88
3 88 102 103
3 88 103 104
3 89 88 104
3 89 104 105
3 90 89 105
3 90 105 106
3 91 90 106
3 91 106 107
3 92 91 107
3 92 107 108
3 93 92 108
3 93 108 109
3 94 93 109
3 94 109 110
3 95 94 110
3 95 110 111
3 96 95 111
3 96 111 112
3 97 96 112
3 97 112 113
3 98 97 113
3 98 113 114
3 99 98 114
3 99 114 115
3 100 99 115
3 102 101 116
3 102 116 117
3 102 117 103
3 103 117 118
3 103 118 119
3 104 103 119
3 104 119 120
3 105 104 120
3 105 120 121
3 106 105 121
3 106 121 122
3 107 106 122
3 107 122 123
3 108 107 123
3 108 123 124
3 109 108 124
3 109 124 125
3 110 109 125
3 110 125 126
3 111 110 126
3 111 126 127
3 112 111 127
3 112 127 128
3 113 112 128
3 113 128 129
3 114 113 129
3 114 129 130
3 115 114 130
3 117 116 131
3 117 131 132
3 117 132 118
3 118 132 133
3 118 133 134
3 119 118 134
3 119 134 135
3 120 119 135
3 120 135 136
3 121 120 136
3 121 136 137
3 122 121 137
3 122 137 138
3 123 122 138
3 123 138 139
3 124 123 139
3 124 139 140
3 125 124 140
3 125 140 141
3 126 125 141
3 126 141 142
3 127 126 142
3 127 142 143
3 128 127 143
3 128 143 144
3 129 128 144
3 129 144 145
3 130 129 145
3 130 145 146
3 133 131 147
3 132 131 133
3 134 133 148
3 134 148 149
3 135 134 149
3 135 149 150
3 136 135 150
3 136 150 151
3 137 136 151
3 137 151 152
3 138 137 152
3 138 152 153
3 139 138 153
3 139 153 154
3 140 139 154
3 140 154 155
3 141 140 155
3 142 141 155
3 142 155 156
3 143 142 156
3 143 156 157
3 144 143 157
3 144 157 158
3 145 144 158
3 145 158 159
3 146 145 159
3 148 147 160
3 133 147 148
3 149 148 161
3 149 161 162
3 150 149 162
3 150 162 163
3 151 150 163
3 151 163 164
3 152 151 164
3 152 164 165
3 153 152 165
3 154 153 165
3 154 165 166
3 155 154 166
3 155 166 167
3 156 155 167
3 156 167 168
3 157 156 168
3 157 168 169
3 158 157 169
3 158 169 170
3 159 158 170
3 161 160 171
3 148 160 161
3 162 161 172
3 162 172 173
3 163 162 173
3 163 173 174
3 164 163 174
3 165 164 174
3 165 174 175
3 166 165 175
3 166 175 176
3 167 166 176
3 167 176 177
3 168 167 177
3 169 168 177
3 169 177 178
3 170 169 178
3 170 178 179
3 172 171 180
3 161 171 172
3 173 172 181
3 173 181 182
3 174 173 182
3 175 174 182
3 175 182 183
3 176 175 183
3 177 176 183
3 177 183 184
3 178 177 184
3 179 178 184
3 179 184 185
3 181 180 186
3 172 180 181
3 182 181 187
3 183 182 187
3 184 183 187
3 185 184 187
3 186 185 187
3 181 186 187
3 186 180 24
3 186 24 22
3 186 22 185
3 185 22 20
3 185 20 179
3 179 20 18
3 179 18 170
3 170 18 16
3 170 16 159
3 159 16 14
3 159 14 146
3 146 14 12
3 146 12 130
3 130 12 10
3 130 10 115
3 115 10 100
3 100 10 8
3 100 8 85
3 85 8 6
3 85 6 71
3 71 6 4
3 71 4 57
3 71 57 56
3 57 4 1
3 57 1 0
3 57 0 45
3 45 0 46
3 46 0 58
3 58 0 42
3 58 42 40
3 58 40 59
3 59 40 72
3 72 40 38
3 72 38 86
3 86 38 36
3 86 36 101
3 101 36 116
3 116 36 34
3 116 34 131
3 131 34 32
3 131 32 147
3 147 32 30
3 147 30 160
3 160 30 28
3 160 28 171
3 171 28 26
3 171 26 180
3 180 26 24
3 188 189 190
3 191 188 190
3 191 190 192
3 193 191 192
3 193 192 194
3 193 194 195
3 196 193 195
3 196 195 197
3 198 196 197
3 198 197 199
3 190 189 200
3 190 200 201
3 192 190 201
3 192 201 202
3 192 202 203
3 194 192 203
3 194 203 204
3 195 194 204
3 195 204 205
3 197 195 205
3 197 205 206
3 199 197 206
3 199 206 207
3 200 208 209
3 201 200 209
3 201 209 210
3 202 201 210
3 202 210 211
3 203 202 211
3 203 211 212
3 204 203 212
3 204 212 213
3 205 204 213
3 205 213 214
3 206 205 214
3 206 214 215
3 207 206 215
3 207 215 216
3 208 217 218
3 209 208 218
3 209 218 219
3 210 209 219
3 210 219 220
3 211 210 220
3 211 220 221
3 212 211 221
3 212 221 222
3 213 212 222
3 213 222 223
3 214 213 223
3 214 223 224
3 215 214 224
3 215 224 225
3 216 215 225
3 218 217 226
3 218 226 227
3 219 218 227
3 219 227 228
3 220 219 228
3 221 220 228
3 221 228 229
3 222 221 229
3 222 229 230
3 223 222 230
3 223 230 231
3 224 223 231
3 224 231 232
3 225 224 232
3 227 226 233
3 227 233 234
3 228 227 234
3 228 234 235
3 229 228 235
3 230 229 235
3 230 235 236
3 231 230 236
3 231 236 237
3 232 231 237
3 234 233 238
3 237 236 239
3 237 239 25
3 237 25 27
3 237 27 29
3 237 29 232
3 232 29 31
3 232 31 225
3 225 31 33
3 225 33 216
3 216 33 35
3 216 35 207
3 207 35 37
3 207 37 199
3 199 37 39
3 199 39 198
3 198 39 41
3 198 41 43
3 198 43 196
3 196 43 2
3 196 2 193
3 193 2 191
3 191 2 3
3 191 3 188
3 188 3 5
3 188 5 7
3 188 7 189
3 189 7 9
3 189 9 200
3 200 9 11
3 200 11 208
3 208 11 13
3 208 13 217
3 217 13 15
3 217 15 226
3 226 15 17
3 226 17 233
3 233 17 19
3 233 19 21
3 233 21 238
3 44 240 241
3 240 242 241
3 240 60 242
3 241 242 47
3 44 241 243
3 241 244 243
3 241 47 244
3 243 244 51
3 44 243 245
3 243 246 245
3 243 51 246
3 245 246 54
3 44 245 45
3 245 54 45
3 60 240 46
3 44 240 46
3 47 242 48
3 242 60 48
3 51 244 50
3 244 47 50
3 54 246 53
3 246 51 53
3 238 247 234
3 235 247 234
3 235 247 248
3 247 249 248
3 247 238 249
3 248 249 239
3 235 248 236
3 236 248 239
3 23 250 21
3 238 250 21
3 238 250 249
3 250 251 249
3 250 23 251
3 249 251 239
3 239 251 25
3 251 23 25

CELL_TYPES 500
5
5
5
5
5
5
5
5
5
5
5
5
5
5
5
5
5
5
5
5
5
5
5
5
5
5
5
5
5
5
5
5
5
5
5
5
5
5
5
5
5
5
5
5
5
5
5
5
5
5
5
5
5
5
5
5
5
5
5
5
5
5
5
5
5
5
5
5
5
5
5
5
5
5
5
5
5
5
5
5
5
5
5
5
5
5
5
5
5
5
5
5
5
5
5
5
5
5
5
5
5
5
5
5
5
5
5
5
5
5
5
5
5
5
5
5
5
5
5
5
5
5
5
5
5
5
5
5
5
5
5
5
5
5
5
5
5
5
5
5
5
5
5
5
5
5
5
5
5
5
5
5
5
5
5
5
5
5
5
5
5
5
5
5
5
5
5
5
5
5
5
5
5
5
5
5
5
5
5
5
5
5
5
5
5
5
5
5
5
5
5
5
5
5
5
5
5
5
5
5
5
5
5
5
5
5
5
5
5
5
5
5
5
5
5
5
5
5
5
5
5
5
5
5
5
5
5
5
5
5
5
5
5
5
5
5
5
5
5
5
5
5
5
5
5
5
5
5
5
5
5
5
5
5
5
5
5
5
5
5
5
5
5
5
5
5
5
5
5
5
5
5
5
5
5
5
5
5
5
5
5
5
5
5
5
5
5
5
5
5
5
5
5
5
5
5
5
5
5
5
5
5
5
5
5
5
5
5
5
5
5
5
5
5
5
5
5
5
5
5
5
5
5
5
5
5
5
5
5
5
5
5
5
5
5
5
5
5
5
5
5
5
5
5
5
5
5
5
5
5
5
5
5
5
5
5
5
5
5
5
5
5
5
5
5
5
5
5
5
5
5
5
5
5
5
5
5
5
5
5
5
5
5
5
5
5
5
5
5
5
5
5
5
5
5
5
5
5
5
5
5
5
5
5
5
5
5
5
5
5
5
5
5
5
5
5
5
5
5
5
5
5
5
5
5
5
5
5
5
5
5
5
5
5
5
5
5
5
5
5
5
5
5
5
5
5
5
5
5
5
5
5
5
5
5
5
5
5
5
5
5
5
5
5
5
5
5
5
5
5
5
5
5
5
5
5
5
5
5
5
5
5
5
5
5
5
5
5
5
5
5
5
5
5
5
5
5
5
5
5

CELL_DATA 500
SCALARS cell_data_0 double
LOOKUP_TABLE default
4.92140155533e-08
3.77331578712e-08
4.07710531777e-08
7.15443921874e-08
4.89756242632e-08
9.84209512255e-10
1.24922610586e-10
1.65323930534e-10
4.20436220829e-09
4.99681011738e-09
3.48111285853e-09
5.72184916125e-09
7.04047372826e-10
1.04972697632e-08
7.21539481491e-09
1.25431220194e-08
1.8315720633e-09
1.69231258721e-09
1.71201540358e-08
4.06996804416e-09
3.51485669636e-09
1.22709991001e-08
1.33873018077e-08
1.26271718534e-08
3.15559570407e-09
1.42599896927e-09
3.25195700322e-09
4.91992219851e-09
5.6844717539e-09
3.94858088047e-09
1.78079588978e-09
1.86614316512e-09
2.97188887148e-09
2.74441007836e-09
1.86865367002e-09
1.6058183141e-10
1.97815117699e-09
2.90475275528e-09
2.74995148037e-09
1.83363293532e-09
1.353668487e-09
6.0972709648e-10
2.80346118867e-08
1.03953466003e-07
6.29176622293e-10
5.14705977174e-10
3.73042971696e-09
1.37729785856e-08
3.80126724964e-09
1.71457377029e-08
5.20805137725e-09
1.63558745949e-08
3.72776126441e-11
9.38960511093e-09
1.75777359888e-09
1.62859294303e-09
1.66981921716e-11
1.62395713966e-10
7.03671664631e-13
1.80001686474e-09
1.45906094518e-09
1.20273116568e-09
5.24419914687e-09
4.67975706901e-10
1.04472444214e-08
1.15458561786e-08
2.08984450586e-10
6.88836957883e-09
6.14555925554e-09
1.832836796e-08
2.38277591405e-09
1.71369997642e-09
6.8723347594e-09
1.56306574581e-09
1.64543496219e-10
3.75474545503e-10
3.59506724855e-10
9.23415706204e-10
7.69568992357e-10
3.2275147988e-10
2.35698108239e-10
1.40407085557e-10
1.0535291742e-10
1.17344006052e-10
6.89755445531e-11
7.03910534944e-11
1.6264054935e-10
3.18537804934e-10
2.41078004995e-10
3.12128419666e-10
2.73466589754e-10
2.9999166651e-10
2.7612145435e-10
2.68187261666e-10
1.17007366226e-10
1.18749572088e-10
9.72630866204e-11
4.73774920284e-10
6.34886149844e-10
5.39849639688e-10
2.49256357679e-10
2.01059582575e-10
2.38039542593e-10
1.1333544074e-10
1.45563244275e-10
4.14260327449e-12
1.52233030304e-10
1.59063364186e-10
2.66696825983e-10
2.34081321816e-10
1.08726013793e-10
1.11212431959e-10
4.00486039791e-11
1.99061212089e-10
1.91334324737e-10
2.20735653906e-10
2.06050114737e-10
2.47275531441e-10
1.95496937787e-10
1.93138248277e-10
1.54239512283e-10
2.1334811557e-10
2.03232266199e-10
2.09446304249e-10
2.29291981984e-10
2.15783374133e-10
2.25857086889e-10
8.71382667402e-11
1.72888056267e-10
3.5936360771e-11
8.06246758688e-11
2.13210727872e-10
1.31940122058e-10
8.80136774839e-11
1.16517483338e-10
1.5594719013e-10
1.3946211965e-10
1.8661221769e-10
1.6916570586e-10
2.09624255487e-10
1.70641949604e-10
2.02201120847e-10
1.65196924889e-10
1.6796560396e-10
1.23954732216e-10
1.57806730697e-10
1.59801851904e-10
1.51259412243e-10
1.05979159374e-10
1.32705560523e-10
1.33897901162e-10
1.55712029978e-10
1.51466225292e-10
1.54004366079e-10
8.71552607343e-11
4.17563158735e-11
2.56044456785e-11
2.68514226123e-10
1.92086404347e-10
9.23965481995e-12
1.4554992766e-10
1.63382821969e-10
1.49563399505e-10
1.56401914388e-10
1.1449662309e-10
1.1993720603e-10
1.46217768178e-10
1.22879996151e-10
1.13775895363e-10
1.04423290292e-10
8.25491429877e-11
1.07470544207e-10
1.19782243892e-10
1.32274036193e-10
1.19819732765e-10
1.14165496769e-10
1.11869331333e-10
1.09685506959e-10
1.29831375143e-10
1.2629366379e-10
1.22256082299e-10
1.2196170049e-10
1.23384066464e-10
9.10316495391e-11
6.06766881117e-11
3.37460427928e-11
2.40337675984e-12
3.98092671035e-11
3.65286448602e-11
4.32951977654e-11
6.29621743755e-11
5.86834790055e-11
7.71745197048e-11
1.63883590401e-10
1.62083797471e-10
1.30731950232e-10
9.66377946315e-11
1.04164314076e-10
9.32955446496e-11
8.09057863348e-11
8.25159596765e-11
9.56407690996e-11
1.42581600716e-10
1.5199303305e-10
1.14650283981e-10
8.06723488453e-11
5.07172640496e-11
1.06147307113e-10
8.17257074108e-11
9.24133880031e-11
9.59068533988e-11
5.98020714678e-11
2.94671271366e-11
1.60549956648e-11
1.39310797728e-11
1.24719057362e-11
3.68769862866e-11
4.34160069783e-11
4.71184721425e-12
4.59094706771e-12
5.33648279443e-11
1.2980275974e-10
5.01074898068e-11
4.35992379964e-11
4.80447005048e-11
9.17746827276e-11
9.83126048689e-11
9.48513690727e-11
1.23833089959e-10
1.08037922219e-10
8.43784234293e-11
1.20613030825e-11
1.18423054394e-11
3.53576900155e-11
4.53526946716e-11
7.70392018514e-11
7.54373760964e-11
2.54280051894e-11
1.61863427541e-11
4.62476947264e-11
5.28323741111e-11
5.74393571985e-11
4.59837801432e-11
8.32413051509e-12
8.64703329174e-11
5.49077612162e-11
2.30903264612e-11
1.6819194068e-10
2.48306973836e-10
4.32854426646e-11
1.83728543396e-10
5.53906815013e-11
2.07296212924e-10
1.48143611473e-10
3.29862730955e-11
2.42417095525e-11
4.44364826458e-11
3.5332361661e-11
6.03290652639e-11
3.66789183934e-11
6.6127345161e-11
3.62983537047e-11
3.49800027283e-11
3.02225644166e-12
3.72966400133e-11
6.39370122603e-11
1.70711242911e-10
2.72427415219e-10
3.97171419627e-11
1.5931197027e-10
2.56965636468e-11
1.66017117392e-10
1.4582768593e-10
1.70387475234e-10
1.08805948881e-10
7.95806176196e-10
1.76834516125e-11
5.17960836858e-10
4.00559634385e-10
1.08078788045e-10
1.67005385962e-10
1.01268659914e-10
8.83117334659e-11
1.56349064742e-10
1.66860400469e-10
9.60715921534e-11
8.99073082045e-11
3.14636040943e-10
2.86134790686e-10
2.17112329867e-10
2.88627946316e-10
4.76389895335e-11
9.82794759216e-11
2.97836027538e-11
4.62886453308e-12
4.20677203084e-10
5.78514578414e-10
7.43099570624e-10
1.09929943857e-11
3.267546131e-10
2.90505227007e-10
5.47679492906e-09
4.05056813019e-09
9.97483591103e-09
2.92753502578e-10
4.22699223135e-09
1.47481544597e-09
1.6460850937e-09
3.48284160723e-09
3.87109411359e-09
2.75240699892e-09
2.5431657138e-09
1.96304261471e-09
5.14592680559e-10
1.16722191945e-10
1.14907327875e-10
4.98622038635e-08
4.88735938816e-08
1.89448793557e-09
2.00130327487e-08
2.96605713749e-08
1.22203517566e-08
2.36554994029e-08
1.07490602908e-08
3.01155999541e-09
4.69504680101e-09
7.33737481011e-09
1.48613542075e-09
1.40787468684e-09
6.3271180905e-10
4.93234728211e-10
2.17975492323e-10
2.04060482937e-10
8.67277746036e-10
3.58018183718e-10
6.83526367414e-10
9.2478944022e-11
6.97910453763e-10
2.61837682925e-10
1.0314537654e-09
2.56917392355e-10
7.45202481895e-10
1.84138350907e-10
6.38092012089e-10
1.49626316248e-08
9.06489373785e-09
6.65319825325e-09
1.94221972435e-09
1.37918263865e-09
1.25881207007e-09
4.17207190771e-11
5.19834023145e-10
2.34668278265e-09
1.43937009894e-09
1.606710391e-08
9.2583265538e-09
7.08134573584e-09
2.42151689468e-09
2.30258093352e-09
1.80419611568e-09
7.5181218042e-10
1.21641311266e-09
2.8096727762e-09
2.37625040466e-09
2.19387565066e-09
8.23647452207e-11
1.47328203895e-09
6.78901323063e-09
2.86702373034e-09
7.09020194046e-11
2.68162649057e-09
2.20576903607e-09
5.91831874013e-10
9.92127598304e-10
2.49584566088e-10
1.92290906563e-11
2.46913878356e-09
1.38567116416e-09
1.8471829272e-09
1.78107627517e-10
1.10631022185e-09
1.98087854943e-10
1.78907519749e-09
4.84825758203e-09
9.34362508672e-10
2.25636680186e-10
2.31301252974e-10
1.25618506027e-09
5.00936893901e-10
4.27840281975e-10
3.53764383026e-10
3.23814018976e-10
1.31236332713e-09
3.39798457292e-10
8.67446380149e-10
2.48474246209e-10
1.08687159333e-09
8.25102382721e-10
2.78666046395e-09
2.46423503914e-09
6.82005851508e-11
9.11859355935e-09
1.14211263273e-08
1.16629688575e-08
1.07291430185e-08
1.68706471245e-09
6.0218741344e-09
5.70711490614e-09
5.88558589479e-09
2.15298037489e-09
6.45550332858e-09
5.67777300085e-09
2.24423367554e-09
4.86435349564e-10
1.08896855683e-08
1.24887927478e-08
1.11199231411e-08
6.15482952109e-09
4.76326446748e-09
4.17804504555e-09
2.67856396218e-09
4.88829277197e-09
2.01684823429e-09
1.56534716121e-09
4.22056717888e-10
8.11706183701e-10
3.09635724683e-09
7.40929776953e-09
6.81054156047e-09
5.35259126082e-09
2.01842213724e-09
2.17705299542e-09
1.32339353656e-09
1.33006362652e-10
4.34497642497e-10
5.37919273952e-10
4.58904416392e-10
5.98698464962e-10
2.29610393033e-10
1.201587777e-10
8.74243575303e-10
8.4426493131e-08
6.26718519033e-08
6.77733061036e-08
7.77955628769e-08
1.24978754199e-08
6.53338725397e-09
1.63368974993e-12
3.1066555474e-09
2.17978514221e-09
3.44299655543e-09
8.43986930927e-09
1.66757415503e-08
7.65986804184e-09
9.37746916877e-10
1.70057966767e-09
2.3323432156e-09
7.96626616928e-09
8.64310059349e-09
9.80785417518e-09
3.08262786824e-09
4.70270864579e-09
2.92350656604e-11
2.11325901956e-11
3.55930496064e-11
2.00956032775e-10
1.80270335883e-11
3.4676463054e-11
5.61692374956e-11
7.15977015578e-11
3.7241167969e-12
2.33228138553e-10
1.01447303005e-10
8.26409697671e-11
1.57275883488e-11
5.44930679514e-10
6.13153390718e-10
5.95609421381e-10
1.40140245763e-10
4.55573980825e-11
5.90816358386e-10
4.93984263647e-10
6.41996844044e-09
6.21254031572e-09
9.56235499517e-10
8.74318288978e-10
3.20023122621e-10
4.53593025143e-09
3.27051573863e-09
2.2793817268e-09
6.4087854619e-10
6.48846538204e-10
3.36348652496e-09
1.39296658479e-09
1.94439459971e-09
7.19708851518e-09
4.88470768312e-09
1.73079598114e-12
1.33814389334e-09
3.1136267215e-09

