# vtk DataFile Version 3.0
File Name: Molecule/methanol/methanol_2.0-R2.vtk
ASCII
DATASET UNSTRUCTURED_GRID
FIELD FieldData 1
TIME 1 1 double
0.0
POINTS 1506 double
1.611 0.0 -0.359
1.5695 -0.18275 -0.35475
1.559 0.0 -0.5025
1.5175 -0.18275 -0.49825
1.528 -0.3655 -0.3505
1.507 0.0 -0.646
1.476 -0.3655 -0.494
1.4655 -0.18275 -0.64175
1.424 -0.3655 -0.6375
1.4865 -0.54825 -0.34625
1.4345 -0.54825 -0.48975
1.445 -0.731 -0.342
1.455 0.0 -0.7895
1.4135 -0.18275 -0.78525
1.403 0.0 -0.933
1.36525 -0.1665 -0.92925
1.37575 -0.34925 -0.7815
1.3275 -0.333 -0.9255
1.38625 -0.532 -0.63375
1.338 -0.51575 -0.77775
1.3485 -0.6985 -0.63
1.39675 -0.71475 -0.486
1.28975 -0.4995 -0.92175
1.30025 -0.68225 -0.774
1.252 -0.666 -0.918
1.32875 -0.8775 -0.3305
1.2805 -0.86125 -0.4745
1.2125 -1.024 -0.319
1.16425 -1.00775 -0.463
1.23225 -0.845 -0.6185
1.116 -0.9915 -0.607
1.09625 -1.1705 -0.3075
1.048 -1.15425 -0.4515
0.98 -1.317 -0.296
1.184 -0.82875 -0.7625
1.146 -0.7995 -0.9075
1.078 -0.96225 -0.752
1.04 -0.933 -0.897
1.01 -1.125 -0.5965
0.972 -1.09575 -0.7415
0.904 -1.2585 -0.586
0.942 -1.28775 -0.441
0.934 -1.0665 -0.8865
0.866 -1.22925 -0.731
0.828 -1.2 -0.876
0.812 -1.39825 -0.27925
0.774 -1.369 -0.42425
0.644 -1.4795 -0.2625
0.606 -1.45025 -0.4075
0.736 -1.33975 -0.56925
0.568 -1.421 -0.5525
0.476 -1.56075 -0.24575
0.438 -1.5315 -0.39075
0.308 -1.642 -0.229
0.698 -1.3105 -0.71425
0.675 -1.274 -0.86075
0.545 -1.3845 -0.699
0.522 -1.348 -0.8455
0.415 -1.495 -0.53725
0.392 -1.4585 -0.68375
0.262 -1.569 -0.522
0.285 -1.6055 -0.3755
0.369 -1.422 -0.83025
0.239 -1.5325 -0.6685
0.216 -1.496 -0.815
0.1215 -1.642 -0.2105
0.0985 -1.6055 -0.357
-0.065 -1.642 -0.192
-0.088 -1.6055 -0.3385
0.0755 -1.569 -0.5035
-0.111 -1.569 -0.485
-0.2515 -1.642 -0.1735
-0.2745 -1.6055 -0.32
-0.438 -1.642 -0.155
0.0525 -1.5325 -0.65
0.046 -1.496 -0.798
-0.1175 -1.5325 -0.633
-0.124 -1.496 -0.781
-0.281 -1.569 -0.468
-0.2875 -1.5325 -0.616
-0.451 -1.569 -0.451
-0.4445 -1.6055 -0.303
-0.294 -1.496 -0.764
-0.4575 -1.5325 -0.599
-0.464 -1.496 -0.747
-0.606 -1.56075 -0.13825
-0.6125 -1.52425 -0.28625
-0.774 -1.4795 -0.1215
-0.7805 -1.443 -0.2695
-0.619 -1.48775 -0.43425
-0.787 -1.4065 -0.4175
-0.942 -1.39825 -0.10475
-0.9485 -1.36175 -0.25275
-1.11 -1.317 -0.088
-0.6255 -1.45125 -0.58225
-0.617 -1.422 -0.73175
-0.7785 -1.37725 -0.567
-0.77 -1.348 -0.7165
-0.94 -1.3325 -0.40225
-0.9315 -1.30325 -0.55175
-1.093 -1.2585 -0.387
-1.1015 -1.28775 -0.2375
-0.923 -1.274 -0.70125
-1.0845 -1.22925 -0.5365
-1.076 -1.2 -0.686
-1.2265 -1.1705 -0.0765
-1.218 -1.14125 -0.226
-1.343 -1.024 -0.065
-1.3345 -0.99475 -0.2145
-1.2095 -1.112 -0.3755
-1.326 -0.9655 -0.364
-1.4595 -0.8775 -0.0535
-1.451 -0.84825 -0.203
-1.576 -0.731 -0.042
-1.201 -1.08275 -0.525
-1.182 -1.0665 -0.6755
-1.307 -0.94925 -0.5145
-1.288 -0.933 -0.665
-1.432 -0.832 -0.3535
-1.413 -0.81575 -0.504
-1.538 -0.6985 -0.343
-1.557 -0.71475 -0.1925
-1.394 -0.7995 -0.6545
-1.519 -0.68225 -0.4935
-1.5 -0.666 -0.644
-1.6175 -0.54825 -0.03775
-1.5985 -0.532 -0.18825
-1.659 -0.3655 -0.0335
-1.64 -0.34925 -0.184
-1.5795 -0.51575 -0.33875
-1.621 -0.333 -0.3345
-1.7005 -0.18275 -0.02925
-1.6815 -0.1665 -0.17975
-1.742 0.0 -0.025
-1.5605 -0.4995 -0.48925
-1.53775 -0.4995 -0.64025
-1.59825 -0.333 -0.4855
-1.5755 -0.333 -0.6365
-1.65875 -0.1665 -0.33075
-1.636 -0.1665 -0.48175
-1.6965 0.0 -0.327
-1.71925 0.0 -0.176
-1.61325 -0.1665 -0.63275
-1.67375 0.0 -0.478
-1.651 0.0 -0.629
-1.7005 0.18275 -0.02925
-1.67775 0.18275 -0.18025
-1.659 0.3655 -0.0335
-1.63625 0.3655 -0.1845
-1.655 0.18275 -0.33125
-1.6135 0.3655 -0.3355
-1.6175 0.54825 -0.03775
-1.59475 0.54825 -0.18875
-1.576 0.731 -0.042
-1.63225 0.18275 -0.48225
-1.61325 0.1665 -0.63275
-1.5945 0.34925 -0.486
-1.5755 0.333 -0.6365
-1.57575 0.532 -0.33925
-1.55675 0.51575 -0.48975
-1.538 0.6985 -0.343
-1.557 0.71475 -0.1925
-1.53775 0.4995 -0.64025
-1.519 0.68225 -0.4935
-1.5 0.666 -0.644
-1.4595 0.8775 -0.0535
-1.4405 0.86125 -0.204
-1.343 1.024 -0.065
-1.324 1.00775 -0.2155
-1.4215 0.845 -0.3545
-1.305 0.9915 -0.366
-1.2265 1.1705 -0.0765
-1.2075 1.15425 -0.227
-1.11 1.317 -0.088
-1.4025 0.82875 -0.505
-1.394 0.7995 -0.6545
-1.2965 0.96225 -0.5155
-1.288 0.933 -0.665
-1.199 1.125 -0.3765
-1.1905 1.09575 -0.526
-1.093 1.2585 -0.387
-1.1015 1.28775 -0.2375
-1.182 1.0665 -0.6755
-1.0845 1.22925 -0.5365
-1.076 1.2 -0.686
-0.942 1.39825 -0.10475
-0.9335 1.369 -0.25425
-0.774 1.4795 -0.1215
-0.7655 1.45025 -0.271
-0.925 1.33975 -0.40375
-0.757 1.421 -0.4205
-0.606 1.56075 -0.13825
-0.5975 1.5315 -0.28775
-0.438 1.642 -0.155
-0.9165 1.3105 -0.55325
-0.923 1.274 -0.70125
-0.7635 1.3845 -0.5685
-0.77 1.348 -0.7165
-0.604 1.495 -0.43575
-0.6105 1.4585 -0.58375
-0.451 1.569 -0.451
-0.4445 1.6055 -0.303
-0.617 1.422 -0.73175
-0.4575 1.5325 -0.599
-0.464 1.496 -0.747
-0.2515 1.642 -0.1735
-0.258 1.6055 -0.3215
-0.065 1.642 -0.192
-0.0715 1.6055 -0.34
-0.2645 1.569 -0.4695
-0.078 1.569 -0.488
0.1215 1.642 -0.2105
0.115 1.6055 -0.3585
0.308 1.642 -0.229
-0.271 1.5325 -0.6175
-0.294 1.496 -0.764
-0.101 1.5325 -0.6345
-0.124 1.496 -0.781
0.092 1.569 -0.505
0.069 1.5325 -0.6515
0.262 1.569 -0.522
0.285 1.6055 -0.3755
0.046 1.496 -0.798
0.239 1.5325 -0.6685
0.216 1.496 -0.815
0.476 1.56075 -0.24575
0.453 1.52425 -0.39225
0.644 1.4795 -0.2625
0.621 1.443 -0.409
0.43 1.48775 -0.53875
0.598 1.4065 -0.5555
0.812 1.39825 -0.27925
0.789 1.36175 -0.42575
0.98 1.317 -0.296
0.407 1.45125 -0.68525
0.369 1.422 -0.83025
0.56 1.37725 -0.7005
0.522 1.348 -0.8455
0.751 1.3325 -0.57075
0.713 1.30325 -0.71575
0.904 1.2585 -0.586
0.942 1.28775 -0.441
0.675 1.274 -0.86075
0.866 1.22925 -0.731
0.828 1.2 -0.876
1.09625 1.1705 -0.3075
1.05825 1.14125 -0.4525
1.2125 1.024 -0.319
1.1745 0.99475 -0.464
1.02025 1.112 -0.5975
1.1365 0.9655 -0.609
1.32875 0.8775 -0.3305
1.29075 0.84825 -0.4755
1.445 0.731 -0.342
0.98225 1.08275 -0.7425
0.934 1.0665 -0.8865
1.08825 0.94925 -0.753
1.04 0.933 -0.897
1.2425 0.832 -0.6195
1.19425 0.81575 -0.7635
1.3485 0.6985 -0.63
1.39675 0.71475 -0.486
1.146 0.7995 -0.9075
1.30025 0.68225 -0.774
1.252 0.666 -0.918
1.4865 0.54825 -0.34625
1.43825 0.532 -0.49025
1.528 0.3655 -0.3505
1.47975 0.34925 -0.4945
1.39 0.51575 -0.63425
1.4315 0.333 -0.6385
1.5695 0.18275 -0.35475
1.52125 0.1665 -0.49875
1.34175 0.4995 -0.77825
1.28975 0.4995 -0.92175
1.3795 0.333 -0.782
1.3275 0.333 -0.9255
1.46925 0.1665 -0.64225
1.41725 0.1665 -0.78575
1.36525 0.1665 -0.92925
1.907 0.0 0.656
1.871 0.1805 0.656
1.871 0.09025 0.81225
1.835 0.27075 0.81225
1.835 0.361 0.656
1.835 0.1805 0.9685
1.799 0.45125 0.81225
1.799 0.361 0.9685
1.763 0.5415 0.9685
1.799 0.5415 0.656
1.763 0.63175 0.81225
1.763 0.722 0.656
1.799 0.27075 1.12475
1.763 0.45125 1.12475
1.763 0.361 1.281
1.871 -0.09025 0.81225
1.835 0.0 0.9685
1.835 -0.1805 0.9685
1.799 0.09025 1.12475
1.799 -0.09025 1.12475
1.763 0.0 1.281
1.763 0.1805 1.281
1.799 -0.27075 1.12475
1.763 -0.1805 1.281
1.763 -0.361 1.281
1.871 -0.1805 0.656
1.835 -0.27075 0.81225
1.835 -0.361 0.656
1.799 -0.361 0.9685
1.799 -0.45125 0.81225
1.763 -0.5415 0.9685
1.763 -0.45125 1.12475
1.799 -0.5415 0.656
1.763 -0.63175 0.81225
1.763 -0.722 0.656
1.871 -0.09025 0.4995
1.835 -0.27075 0.4995
1.835 -0.1805 0.343
1.799 -0.45125 0.4995
1.799 -0.361 0.343
1.763 -0.5415 0.343
1.763 -0.63175 0.4995
1.799 -0.27075 0.1865
1.763 -0.45125 0.1865
1.763 -0.361 0.03
1.871 0.09025 0.4995
1.835 0.0 0.343
1.835 0.1805 0.343
1.799 -0.09025 0.1865
1.799 0.09025 0.1865
1.763 0.0 0.03
1.763 -0.1805 0.03
1.799 0.27075 0.1865
1.763 0.1805 0.03
1.763 0.361 0.03
1.835 0.27075 0.4995
1.799 0.361 0.343
1.799 0.45125 0.4995
1.763 0.5415 0.343
1.763 0.45125 0.1865
1.763 0.63175 0.4995
1.66075 0.5515 1.305
1.66075 0.64175 1.14875
1.5585 0.742 1.329
1.66075 0.732 0.9925
1.5585 0.83225 1.17275
1.5585 0.9225 1.0165
1.66075 0.82225 0.83625
1.45625 0.9325 1.353
1.45625 1.02275 1.19675
1.354 1.123 1.377
1.66075 0.40925 1.42825
1.5585 0.59975 1.45225
1.5585 0.4575 1.5755
1.45625 0.79025 1.47625
1.45625 0.648 1.5995
1.354 0.8385 1.6235
1.354 0.98075 1.50025
1.45625 0.50575 1.72275
1.354 0.69625 1.74675
1.354 0.554 1.87
1.66075 0.22325 1.455
1.5585 0.2715 1.60225
1.5585 0.0855 1.629
1.45625 0.31975 1.7495
1.45625 0.13375 1.77625
1.354 0.182 1.9235
1.354 0.368 1.89675
1.45625 -0.05225 1.803
1.354 -0.004 1.95025
1.354 -0.19 1.977
1.66075 -0.31825 1.455
1.66075 -0.13775 1.455
1.5585 -0.2755 1.629
1.66075 0.04275 1.455
1.5585 -0.095 1.629
1.45625 -0.23275 1.803
1.66075 -0.48925 1.37675
1.5585 -0.4465 1.55075
1.5585 -0.6175 1.4725
1.45625 -0.40375 1.72475
1.45625 -0.57475 1.6465
1.354 -0.532 1.8205
1.354 -0.361 1.89875
1.45625 -0.74575 1.56825
1.354 -0.703 1.74225
1.354 -0.874 1.664
1.66075 -0.591 1.21875
1.5585 -0.71925 1.3145
1.5585 -0.821 1.1565
1.45625 -0.8475 1.41025
1.45625 -0.94925 1.25225
1.354 -1.0775 1.348
1.354 -0.97575 1.506
1.45625 -1.051 1.09425
1.354 -1.17925 1.19
1.354 -1.281 1.032
1.66075 -0.86175 0.75
1.66075 -0.7715 0.90625
1.5585 -1.0015 0.844
1.66075 -0.68125 1.0625
1.5585 -0.91125 1.00025
1.45625 -1.14125 0.938
1.66075 -0.86175 0.562
1.5585 -1.0015 0.656
1.5585 -1.0015 0.468
1.45625 -1.14125 0.75
1.45625 -1.14125 0.562
1.354 -1.281 0.656
1.354 -1.281 0.844
1.45625 -1.14125 0.374
1.354 -1.281 0.468
1.354 -1.281 0.28
1.66075 -0.591 0.0925
1.66075 -0.68125 0.249
1.5585 -0.821 0.155
1.66075 -0.7715 0.4055
1.5585 -0.91125 0.3115
1.45625 -1.051 0.2175
1.66075 0.87525 0.656
1.5585 0.9755 0.83625
1.5585 1.0285 0.656
1.45625 1.12875 0.83625
1.45625 1.07575 1.0165
1.354 1.229 1.0165
1.45625 1.18175 0.656
1.354 1.282 0.83625
1.354 1.335 0.656
1.354 1.176 1.19675
1.20075 1.235 1.38575
1.20075 1.288 1.2055
1.0475 1.347 1.3945
1.20075 1.341 1.02525
1.0475 1.4 1.21425
1.0475 1.453 1.034
1.20075 1.394 0.845
0.89425 1.459 1.40325
0.89425 1.512 1.223
0.741 1.571 1.412
1.20075 1.114 1.5375
1.0475 1.226 1.54625
1.0475 1.105 1.698
0.89425 1.338 1.555
0.89425 1.217 1.70675
0.741 1.329 1.7155
0.741 1.45 1.56375
0.89425 1.096 1.8585
0.741 1.208 1.86725
0.741 1.087 2.019
1.20075 0.68725 1.90725
1.20075 0.8295 1.784
[...]
CELL_DATA 3008
SCALARS cell_data_0 double
LOOKUP_TABLE default
5.4461854167e-08
9.33888345637e-08
1.76980124445e-07
3.09865240651e-07
1.81874706861e-07
1.18163323357e-07
1.55148726232e-07
3.26136747627e-07
1.77160957017e-07
6.58988435504e-08
1.43019007355e-08
1.42746501327e-07
3.86686246537e-07
1.55291434621e-07
2.14649962549e-07
1.97228959328e-07
2.41391785788e-07
2.01267864747e-07
1.89916405163e-07
2.72371935642e-07
1.4162390522e-07
1.43347972925e-07
5.96364736189e-08
2.34317778339e-07
1.35427802573e-07
6.51909316516e-08
1.52394772273e-08
5.63014546411e-08
2.63178851178e-07
1.26441276316e-07
6.95149992179e-08
1.37006748062e-07
9.74702527163e-09
2.91388044533e-08
3.29290745476e-08
6.70245541711e-08
4.14419352625e-08
1.70562685828e-08
2.10299847611e-07
7.80886654992e-08
3.44720365401e-08
9.33804453018e-09
4.9039878603e-08
1.7976174429e-07
8.31788412324e-08
5.72630330507e-08
2.18381520667e-07
7.34315559843e-08
7.23482149354e-08
4.81768697081e-08
1.94050833566e-07
9.46664201988e-08
1.70705778177e-07
1.57590143367e-09
7.95217044994e-08
8.38347985493e-08
1.49820533269e-07
1.64329584517e-08
4.07913360008e-08
7.52906454519e-08
7.63769613946e-08
1.12762602184e-08
7.55629741913e-08
1.31149548292e-07
5.30979680246e-08
2.98286545985e-08
2.2571969266e-08
7.19257594004e-08
1.94145927746e-08
3.54266307359e-08
2.54418899021e-08
6.66493279655e-08
1.30235693681e-08
4.11670726141e-08
1.25461808207e-07
1.76561273634e-08
7.17720641788e-08
3.97940162707e-08
2.82712405329e-08
1.95023984575e-07
1.93006399338e-07
5.74743977094e-08
2.29398023864e-08
1.64856693659e-08
1.71838385481e-08
6.5851594697e-08
6.35910813884e-09
1.13234537251e-08
1.37937439015e-08
6.55052292956e-08
1.35313168551e-07
9.87827581044e-09
1.14899566668e-08
7.41319973579e-08
1.74426715962e-09
3.61324356664e-07
1.58041209567e-07
9.07265004361e-08
2.02302258778e-08
1.43026884032e-08
1.15753872576e-08
9.65990531247e-08
7.37431716076e-09
8.67477139118e-09
3.64128792608e-09
7.42017905284e-08
3.04482235213e-07
1.39550913555e-08
4.59690500624e-10
8.88080119643e-08
1.06203786557e-08
4.12353171461e-07
4.0417838979e-07
1.19400170526e-07
4.5671891366e-09
1.41021933984e-08
5.1039978444e-09
1.33177244125e-07
4.64397331676e-10
1.82128055126e-08
1.70810433493e-08
9.4154903717e-08
3.03385369143e-07
4.97458683229e-09
1.34114164591e-08
1.34093854735e-07
3.0561706911e-09
1.38182950228e-07
3.54930749426e-07
1.24552997792e-07
2.53204709251e-08
8.88448152798e-09
1.70547202744e-08
1.25574882813e-07
4.06271851743e-08
2.22481558631e-09
2.37457762023e-08
1.36792162513e-07
1.98924978842e-07
3.63184985839e-08
4.94836522624e-09
1.6326725833e-07
2.91818560395e-08
1.68458199271e-07
1.87636744337e-07
1.80910723928e-07
3.49365770932e-08
4.84279639855e-08
4.35027354436e-08
1.57304379175e-07
4.18688767163e-08
5.39216428787e-08
3.06332203559e-08
1.40991031301e-07
1.74436491103e-07
3.3655541388e-08
7.28157334683e-08
1.62711849651e-07
4.14568121466e-08
1.29195408472e-07
2.00184211756e-07
1.74119373524e-07
8.56456779748e-09
2.9300507514e-08
1.77611906169e-08
2.09256900332e-07
7.47640294542e-09
2.81387302954e-08
1.40872121542e-08
1.84479366064e-07
7.43773411967e-07
1.51873237117e-08
3.62644204966e-08
2.32135528685e-07
1.0499234462e-08
1.85606161714e-07
1.81140979392e-07
2.31309357603e-07
1.22617345877e-08
5.21628565034e-08
9.63776742937e-09
2.23837394666e-07
1.56060227736e-08
5.12850970802e-08
1.45001002142e-08
1.82585337171e-07
6.86568137189e-07
1.71516521005e-08
6.62551612018e-08
2.02037092938e-07
3.66179461491e-09
1.1132509987e-06
7.12610312713e-07
1.62053934228e-07
1.64997933207e-08
1.36369959763e-08
4.35613261207e-08
2.32742024468e-07
3.37915246379e-08
2.02766235711e-08
4.90410916004e-08
2.34522456804e-07
1.59088081299e-06
2.26267194878e-08
1.33904985812e-08
2.37034875198e-07
5.10903460929e-08
1.22504124726e-06
1.14818344341e-06
2.34749858767e-07
4.73955965964e-08
1.22614269069e-08
5.07290802477e-08
2.37950139565e-07
6.90634816379e-09
8.40065926327e-09
3.84838502011e-08
2.07684818147e-07
1.47031768716e-06
9.6698607086e-10
6.40153479535e-09
2.30165508252e-07
5.94502091853e-09
2.31366564525e-06
1.54930784803e-06
1.94106333413e-07
1.69695918181e-08
4.24042276062e-09
2.80000624971e-09
1.86345188043e-07
1.89821348528e-08
3.7734453197e-09
1.60719813321e-08
1.94673986248e-07
8.33064287912e-07
1.15520317959e-08
8.1532371643e-09
2.52238819359e-07
8.26395767324e-09
2.53482610566e-06
2.39169571781e-06
2.69201596105e-07
8.70591330518e-09
4.12959897792e-08
9.37481644173e-09
2.23877373433e-07
8.55827404984e-09
3.87220272938e-08
3.24235688344e-09
1.75479633835e-07
7.39321587665e-07
1.87802254054e-08
4.11269998165e-08
2.58687419006e-07
9.12816544975e-09
1.88226591653e-06
7.61168392569e-07
1.6433056642e-07
1.24999717241e-08
1.20386055566e-08
1.92979746339e-08
1.7394093182e-07
3.58329163346e-08
1.39929081988e-08
2.53731950951e-08
1.43694153397e-07
2.86029774908e-07
2.40589152929e-08
4.37453962657e-09
2.34231122218e-07
3.19239523714e-08
2.01128949508e-06
1.84890946278e-06
2.28402613571e-07
2.11795842776e-08
2.65880707216e-08
1.77140433854e-08
1.96798560723e-07
3.68107281483e-09
1.67194750269e-08
1.46914556846e-08
1.64834434464e-07
2.7982613079e-07
2.41327025612e-09
5.51517805323e-09
1.65691507726e-07
1.72668975123e-08
5.37248323708e-07
2.55615459128e-07
1.11932868682e-07
9.97536119029e-09
8.36632769029e-09
2.83219205308e-08
1.42941094857e-07
2.79823431931e-08
1.62079205911e-08
3.98939784872e-08
1.58073247694e-07
1.86729133265e-07
8.8061007855e-09
1.84554680107e-08
1.49729802957e-07
4.95300887301e-08
5.55280205179e-07
5.17220129546e-07
1.4691291991e-07
4.35158102254e-08
6.39114815301e-08
3.58849735951e-08
1.35408297566e-07
2.40196918678e-08
4.56798226766e-08
1.86783534654e-08
1.14441600729e-07
1.53314286659e-07
1.08270290338e-08
5.41370003163e-08
1.23575959316e-07
2.21579632261e-08
1.15391656041e-07
1.2906018958e-07
7.6219421e-08
3.29879420714e-08
2.60350656211e-10
2.85764684699e-08
5.36986393707e-08
1.50168173448e-08
1.602186757e-08
4.46522018372e-08
4.82394340029e-08
6.85899335422e-07
7.54736586326e-10
2.57446180952e-08
1.03001153085e-07
1.73813882488e-08
1.27874549851e-07
1.20398406061e-07
9.3904014949e-08
1.47804430476e-08
2.96982152349e-08
1.06605695822e-08
7.21614474538e-08
9.9565219878e-09
1.4149308554e-08
3.15851906017e-10
4.76812848829e-08
6.11690729126e-07
1.21474911141e-08
7.08252732448e-09
9.48323200387e-08
1.82675625465e-08
2.01653294411e-07
6.35828499921e-07
4.05128443661e-08
2.22422426238e-08
2.16271066614e-08
2.22160041053e-08
2.93366374835e-08
9.03965396291e-08
1.9427643667e-08
2.69659918077e-08
2.96150432439e-08
1.95272766326e-07
1.07519443965e-07
1.94091384164e-08
6.69985403827e-08
7.39086108302e-08
2.06303875496e-07
1.80873381219e-07
6.7229286146e-08
7.25813116682e-08
3.31919542339e-08
9.07802873217e-08
3.90481332152e-08
7.08971201207e-08
4.26900816366e-08
1.02027834181e-07
2.17591109432e-08
1.62164008659e-07
7.81569882681e-08
4.64732550289e-08
2.26592850422e-08
7.66538956939e-08
2.04732340715e-08
1.39366740013e-07
1.64574044972e-09
4.09792659458e-08
9.73401449753e-08
3.35473428301e-08
4.17575629311e-09
6.74321027243e-08
9.47201798737e-08
3.34043318302e-08
3.52391985125e-08
2.48246310531e-08
7.14210907057e-08
9.42621775114e-08
3.04118802841e-10
7.07014680895e-08
8.09261840834e-09
2.44174335667e-09
1.99914966081e-08
7.04996920413e-08
4.03364901695e-08
7.70557867107e-08
4.63442564525e-08
1.07107681121e-07
4.90169080918e-08
7.54667292128e-08
4.64505209242e-08
2.55033302408e-08
9.17899695112e-08
4.90669883307e-08
7.91446599117e-08
1.1136050944e-07
6.14672712705e-08
3.50877794995e-08
7.11991469239e-08
1.39492886409e-07
9.25158355219e-08
1.59202031103e-07
1.02824908953e-07
1.90228397268e-07
9.38929630483e-08
1.56851156667e-07
1.02843974919e-07
6.9068985271e-08
1.86280780094e-07
1.08173053771e-07
1.33219810215e-07
1.86993113297e-07
8.47366644862e-08
1.14133474981e-07
1.93589994353e-07
1.9324593522e-07
3.3853232446e-08
2.10349878516e-07
1.73309568883e-07
3.48430705593e-07
4.38038418187e-08
1.81215667099e-07
1.06975292088e-07
6.27040960824e-08
3.16641856232e-07
4.99907154773e-08
2.14714479938e-07
3.6746197966e-07
2.38217845937e-07
5.54407603362e-09
1.24602459961e-08
7.09182362535e-08
8.50664796561e-09
6.34824792128e-08
1.10246846499e-08
1.53717789276e-07
4.78755377879e-09
6.26467317083e-08
1.04344549121e-08
7.27438457698e-09
1.58778071531e-07
8.29001516908e-09
8.20399570341e-09
1.47463351761e-07
1.88778751886e-09
5.01165307366e-09
1.14041680945e-08
8.12804434471e-09
1.86895332483e-07
3.8979459902e-09
1.29817856244e-08
1.56554109356e-07
1.89380192313e-07
7.83479081786e-09
1.01890075269e-08
3.08455299343e-09
1.56468674649e-07
1.92889685838e-07
1.10755463753e-08
1.62706680666e-07
5.04420755055e-09
5.43353444725e-09
1.13524292083e-08
1.914226005e-07
2.12256209346e-07
1.85982336856e-07
9.10941890429e-09
9.94257580673e-08
2.00288323817e-07
1.85027271014e-07
7.31400028858e-09
4.4160199173e-09
9.47569721265e-08
1.94042272783e-07
8.71200118287e-09
1.03293017443e-07
3.40817893772e-09
6.07442645419e-09
1.48262481717e-08
2.09398138163e-07
1.50272405614e-07
2.00010962189e-07
1.73520569217e-08
5.58281902578e-08
1.45624071859e-07
1.97042480888e-07
1.19988229845e-08
4.59174200631e-09
5.52618578253e-08
1.5445914958e-07
2.33720373389e-08
5.7077298022e-08
1.4266286041e-08
7.50482764112e-09
1.87559889002e-08
1.59756419919e-07
3.53001560431e-08
1.7380340883e-07
2.48095514395e-08
2.22379135495e-07
3.42650979408e-08
1.735973071e-07
2.82239997209e-08
1.88158632863e-08
2.18628254584e-07
3.13655022241e-08
3.04722750867e-08
2.04943734633e-07
4.31252267957e-09
6.8576447741e-09
1.69448202139e-08
2.91828320084e-08
7.13011949941e-08
2.72879130999e-08
1.94942007135e-08
8.96743884729e-08
6.5661368771e-08
3.05322229019e-08
2.54980762841e-08
8.94986248384e-11
8.35855011412e-08
6.47351584862e-08
1.4972000263e-08
9.21152774545e-08
4.84907301116e-09
3.89319589978e-09
1.47049155289e-08
1.89710627392e-07
1.24001421398e-07
1.99909595975e-07
1.67012743495e-08
4.58767039262e-08
1.31915287188e-07
2.04302165508e-07
1.51844249544e-08
6.65080091951e-09
4.65254439785e-08
1.38642001254e-07
1.36033902293e-08
5.28724291667e-08
1.81868842775e-09
6.31879761216e-09
1.76278267835e-08
1.11912234561e-07
7.45344250868e-08
1.1634456811e-07
1.70101243256e-08
3.46556656471e-08
7.03806830455e-08
1.21728964156e-07
1.41454231062e-08
6.42472241492e-10
3.42391351373e-08
7.2487344788e-08
1.74140814309e-08
3.97007438272e-08
4.63256618486e-09
9.49022081489e-09
2.47519555745e-08
8.79451159278e-08
8.63018157591e-08
8.52301733056e-08
2.80770435923e-08
1.27620874534e-07
8.74740499363e-08
7.747061291e-08
2.37152288417e-08
3.16223197543e-09
1.32137474146e-07
8.48345423916e-08
2.62540484045e-08
1.38724165645e-07
5.13537944319e-09
8.82872396957e-09
2.34537210679e-08
2.26814420538e-07
1.6304027355e-07
2.44789865247e-07
3.07865561976e-08
9.89346074626e-08
1.59901204977e-07
2.20380303606e-07
2.70090150938e-08
8.45355431342e-09
9.3529713623e-08
1.46871316087e-07
3.16471599794e-08
9.33439170078e-08
7.52332544089e-09
1.05365994176e-08
2.79710793141e-08
1.30871084072e-07
3.28697290837e-08
1.28214634206e-07
2.96319661344e-08
8.604662539e-08
4.52325733543e-08
1.31860107768e-07
3.17400752634e-08
6.85595304629e-09
7.86948426705e-08
5.89876864988e-08
2.5508656928e-08
8.72344718961e-08
4.91308777224e-09
1.29400649712e-08
3.32363748922e-08
4.53687137529e-08
2.47524295052e-08
5.45696310057e-08
2.77574334223e-08
2.29233467915e-07
3.21192014847e-08
5.85084474795e-08
2.54748592183e-08
1.18010067673e-09
2.24829101734e-07
4.18604204413e-08
1.99942748153e-08
2.32637404396e-07
3.8618943819e-09
6.23666765063e-09
2.55126768163e-08
1.48972428294e-07
2.51331260324e-07
1.69455336128e-07
3.21983452943e-08
1.83762742731e-08
2.46739924395e-07
1.35964205566e-07
3.06504645991e-08
1.08679043681e-08
2.29115986108e-08
2.35527335722e-07
2.69578755637e-08
2.90258357992e-08
1.81381504198e-09
3.40702833793e-09
2.45952362099e-08
2.29008648842e-07
2.14580056853e-07
2.47216718619e-07
2.01638777289e-08
2.37540863052e-07
1.98656571216e-07
2.37252867178e-07
2.32355056104e-08
4.85784237042e-09
2.29252755284e-07
1.84121068433e-07
2.64657943552e-08
2.15351697612e-07
8.95151312911e-09
1.94238814179e-08
4.42084878096e-08
9.04930910632e-08
1.66007882435e-07
1.1778492658e-07
3.31697558237e-08
2.55699984578e-07
1.72752892004e-07
8.96776267996e-08
3.12177506299e-08
6.27455665668e-09
2.4958796468e-07
1.71244554315e-07
3.32926846605e-08
2.23150877637e-07
8.28537778033e-09
7.84055973992e-09
2.44349714471e-08
2.36087263299e-07
6.32893115176e-08
2.06806546168e-07
2.9298661326e-08
6.68229365451e-08
6.36560007596e-08
1.73993620971e-07
2.60639896495e-08
4.98474264942e-08
7.02470154525e-08
4.83428745535e-08
2.69468611101e-08
6.23074380227e-08
7.07728403171e-09
1.35689448281e-08
3.2834908047e-08
8.20406351729e-08
5.92388879102e-08
8.61604323565e-08
2.71186374736e-08
2.17769997551e-07
5.61288359013e-08
7.30579496829e-08
2.46962664074e-08
5.17344422347e-08
2.19924840387e-07
3.80783374244e-08
1.81697142848e-08
2.00052951135e-07
2.35840217933e-09
1.05326111948e-08
2.89988015808e-08
4.07301865407e-08
9.10749075412e-08
3.10218667172e-08
2.5407003165e-08
1.14632044447e-07
9.53305344912e-08
3.06781986655e-08
1.25430278407e-08
8.92770600627e-10
1.1072314151e-07
9.13741183133e-08
2.06027494693e-08
1.16207864106e-07
5.57786728527e-09
4.20551468128e-10
2.8685618195e-08
4.34350746883e-08
2.71329585994e-08
4.21539697589e-08
3.21852763894e-08
1.09171482032e-07
3.3600482715e-08
4.13516953409e-08
2.37497939495e-08
2.18244258195e-09
1.00821773642e-07
3.89645693411e-08
2.60629157579e-08
9.82184531003e-08
6.81357376975e-09
3.33746782242e-09
2.71237640193e-08
3.82002186419e-08
8.35589323632e-08
3.87630684397e-08
1.82007238199e-08
2.71341674955e-08
7.47838295047e-08
3.24251200506e-08
1.52512392498e-08
4.5640440265e-09
2.94611003719e-08
6.12821760538e-08
1.84647379131e-08
2.47429126792e-08
8.2405041913e-09
6.34246413524e-09
2.35288420276e-08
1.43286162354e-07
6.84190409393e-08
1.27953786436e-07
1.9271555061e-08
6.69639966799e-08
6.80252771957e-08
1.33059784772e-07
2.633540351e-08
1.2174289434e-09
7.0110301968e-08
6.30613409458e-08
2.06754291786e-08
6.81094811894e-08
9.46162859838e-09
7.70486921719e-09
2.46847910177e-08
6.77115311969e-08
1.10324580836e-07
7.00135343446e-08
2.34722007309e-08
1.12415803676e-07
1.16443716279e-07
6.37031783988e-08
2.35142255515e-08
7.96893954686e-09
1.12504254889e-07
1.22818334526e-07
1.50188297778e-08
1.06325163645e-07
5.03755980614e-09
7.71884759544e-09
2.2668668845e-08
7.54569644872e-08
2.04632817713e-08
6.63237051036e-08
1.68409232271e-08
1.0303888212e-07
2.04606086215e-08
7.4985757252e-08
2.61952304984e-08
7.93596590498e-09
1.03236962741e-07
2.09974304997e-08
1.73199637544e-08
1.17023077443e-07
4.61325739429e-09
3.18902554642e-09
1.12222017638e-08
1.79968924026e-08
5.15755282962e-08
2.08440848747e-08
1.48131675917e-08
8.99868078737e-10
4.80187307449e-08
2.43932488372e-08
1.58387850947e-08
1.75996778146e-10
8.22239039145e-10
5.25742203112e-08
1.4567639535e-08
2.71589778712e-09
1.69615178699e-09
2.92093598654e-09
1.18132612587e-08
5.55983385031e-08
1.55855838808e-07
6.33673473754e-08
1.07346150479e-08
1.95489811905e-07
1.54040094242e-07
6.25562688744e-08
9.48743587803e-09
9.09946510883e-10
1.89095452242e-07
1.49195761747e-07
3.93921187108e-10
1.75147204651e-07
1.16802187828e-08
2.26167032342e-09
1.29855431027e-08
2.00410560894e-07
1.41765609692e-07
1.78440119962e-07
8.24919624086e-09
1.46891816967e-07
1.42609215266e-07
2.02858754135e-07
1.9705828993e-08
4.60773057516e-09
1.5408882897e-07
1.37734718324e-07
2.08120276301e-09
1.46126916993e-07
1.18877461864e-08
1.17358979461e-09
5.77060190791e-10
1.30950230571e-07
1.61694081093e-07
1.36744221564e-07
1.01774059102e-09
8.24852657257e-08
1.65454186971e-07
1.3829456076e-07
7.7026448345e-10
1.12307815512e-08
8.14563766703e-08
1.67800459832e-07
2.19644153551e-09
8.5282690699e-08
8.47418175631e-09
5.22898383757e-09
1.01438794546e-08
2.12459656947e-07
1.18685817705e-07
2.01330699017e-07
3.49944525753e-09
1.71532810101e-07
1.1304825031e-07
2.17206702151e-07
1.31319413453e-08
5.89311126325e-09
1.75238724894e-07
1.09341138325e-07
1.2132948771e-08
1.67626100134e-07
8.98966262652e-09
7.33594974661e-08
1.05648764906e-08
4.43565369981e-08
2.0133735764e-07
4.0450117101e-08
3.57571186621e-09
2.08658095727e-08
1.81002630604e-07
3.88701650725e-08
2.83956478107e-09
4.96611938223e-09
1.99022799415e-08
1.81567899512e-07
1.02160814882e-08
2.42355674108e-08
2.58554907613e-09
1.47921256529e-09
1.03912468943e-08
2.5500972837e-08
1.60111829653e-07
2.65917747996e-08
1.01220301638e-08
7.59770679355e-08
1.70449871886e-07
2.39136772229e-08
2.97006553104e-09
2.30150473536e-09
6.87620103709e-08
1.64003333364e-07
6.20141322924e-09
7.51209197126e-08
6.37241780219e-09
2.05835901708e-09
1.02014053769e-08
1.49455074943e-07
8.0025331907e-08
1.54971242718e-07
1.56950146986e-08
2.23935710606e-08
8.4902841855e-08
1.50528412685e-07
1.01866226881e-08
4.23028650943e-09
2.17315995664e-08
9.26280549966e-08
2.39753611529e-08
1.91642440704e-08
1.78344182799e-08
6.760468089e-09
2.93235213174e-08
1.31770413775e-07
6.47330435836e-08
1.43226275495e-07
3.03073794739e-08
1.17600108811e-07
7.17780588082e-08
1.25364001825e-07
1.69695928462e-08
1.52643446868e-09
9.65531733771e-08
7.66510325526e-08
2.86516220943e-08
1.13458627491e-07
2.94141326678e-08
5.20263040889e-10
2.59838420245e-08
6.63646349605e-08
4.70889673039e-08
7.03145210545e-08
2.41444494882e-08
6.33708908776e-08
4.19253060993e-08
6.8817116801e-08
2.67905915417e-08
2.65025006099e-08
4.86852051348e-08
3.61116874421e-08
2.40279184261e-08
7.39818444289e-08
8.59083284227e-09
1.14701147016e-08
4.15306006639e-08
3.28318332357e-08
1.0351389069e-07
4.46488396046e-08
4.55289768853e-08
3.05830552261e-08
1.16007056891e-07
3.60646309315e-08
3.2845071182e-08
1.53498189111e-09
4.09854255313e-08
1.24695271819e-07
3.67511720412e-08
3.39969125646e-08
4.26070489721e-09
9.37181136158e-10
3.14942203532e-08
1.14499055366e-07
1.30001772275e-07
1.32647123332e-07
2.34828415364e-08
3.81820141802e-08
1.32015921596e-07
1.20750403666e-07
2.64846158509e-08
1.51480998434e-08
3.99305614202e-08
1.08084218904e-07
3.44330317183e-08
2.56771906261e-08
1.6893479288e-08
2.27499989157e-09
3.60318632843e-08
1.24590318146e-07
4.55831500082e-08
1.40578254166e-07
4.72470255315e-08
1.05011579722e-07
5.37243049322e-08
1.23010326067e-07
3.84352100549e-08
6.83188923959e-10
1.15950787626e-07
6.50215543396e-08
3.52955748923e-08
1.040371991e-07
3.06486808162e-08
4.83469472764e-09
3.55255818903e-08
4.35388757002e-08
3.22238649431e-10
5.02890839987e-08
3.15072929967e-08
1.33821838744e-07
3.33268985998e-09
5.91481620012e-08
3.20573321427e-08
2.15409181176e-08
1.29972521878e-07
6.16279798485e-09
2.92046683846e-08
1.16137276958e-07
1.17050555693e-08
1.61814278747e-09
3.10029902608e-08
6.51971612532e-09
1.68714906843e-07
5.29938365408e-09
3.45858209139e-08
8.93970143063e-09
1.63890108277e-07
6.45974397518e-10
2.97672643904e-08
9.89325001359e-11
3.51847589334e-09
1.55126339775e-07
3.07509600494e-08
9.71467697048e-09
1.32077918918e-08
5.50507292935e-09
3.44408368217e-08
1.46955079747e-07
9.82703201198e-08
1.51867191799e-07
3.10375955025e-08
1.49871952479e-07
1.0682127164e-07
1.53309831011e-07
2.53115149019e-08
1.25929806113e-08
1.4091765584e-07
1.11303110083e-07
2.20108763086e-08
1.50597134414e-07
3.83314070149e-08
1.14375213121e-08
4.36469670092e-09
1.76319864887e-07
4.93629690638e-08
1.8913917411e-07
1.64988721016e-08
1.00182740312e-07
4.7048729666e-08
1.85677290837e-07
1.93590104878e-08
3.12250374569e-09
1.05554331873e-07
4.73837038163e-08
1.94586956904e-08
1.04258943291e-07
3.26490023868e-08
1.09271225538e-08
6.47213311423e-09
4.63396632139e-08
6.80319529307e-08
4.36284020934e-08
3.50453140491e-09
1.69603054169e-08
6.46942108284e-08
4.34953450081e-08
1.04984210587e-08
2.62327978989e-08
1.58812538188e-08
6.26413494385e-08
3.3322140949e-09
1.95703591428e-08
2.82367354408e-08
8.35285882579e-09
4.06427931846e-10
8.67066112331e-08
1.06391451048e-08
8.55343688514e-08
6.40290548454e-09
8.05344221958e-08
1.25549611286e-08
8.57972869262e-08