# vtk DataFile Version 3.0
File Name: Molecule/methanol/methanol_9.0-16_06.vtk
ASCII
DATASET UNSTRUCTURED_GRID
FIELD FieldData 1
TIME 1 1 double
0.0
POINTS 410 double
1.611 0.0 -0.359
1.569 -0.375 -0.355
1.403 0.0 -0.933
1.365 -0.341 -0.929
1.445 -0.731 -0.342
1.252 -0.666 -0.918
1.245 -1.05 -0.322
1.07 -0.957 -0.9
0.98 -1.317 -0.296
0.828 -1.2 -0.876
0.662 -1.518 -0.264
0.538 -1.382 -0.847
0.308 -1.642 -0.229
0.216 -1.496 -0.815
-0.065 -1.684 -0.192
-0.124 -1.534 -0.781
-0.438 -1.642 -0.155
-0.464 -1.496 -0.747
-0.793 -1.518 -0.119
-0.787 -1.382 -0.715
-1.11 -1.317 -0.088
-1.076 -1.2 -0.686
-1.376 -1.05 -0.061
-1.318 -0.957 -0.662
-1.576 -0.731 -0.042
-1.5 -0.666 -0.644
-1.7 -0.375 -0.029
-1.613 -0.341 -0.633
-1.742 0.0 -0.025
-1.651 0.0 -0.629
-1.7 0.375 -0.029
-1.613 0.341 -0.633
-1.576 0.731 -0.042
-1.5 0.666 -0.644
-1.376 1.05 -0.061
-1.318 0.957 -0.662
-1.11 1.317 -0.088
-1.076 1.2 -0.686
-0.793 1.518 -0.119
-0.787 1.382 -0.715
-0.438 1.642 -0.155
-0.464 1.496 -0.747
-0.065 1.684 -0.192
-0.124 1.534 -0.781
0.308 1.642 -0.229
0.216 1.496 -0.815
0.662 1.518 -0.264
0.538 1.382 -0.847
0.98 1.317 -0.296
0.828 1.2 -0.876
1.245 1.05 -0.322
1.07 0.957 -0.9
1.445 0.731 -0.342
1.252 0.666 -0.918
1.569 0.375 -0.355
1.365 0.341 -0.929
1.907 0.0 0.656
1.874 0.347 0.656
1.874 0.173 0.956
1.874 -0.173 0.956
1.874 -0.347 0.656
1.874 -0.173 0.355
1.874 0.173 0.355
1.779 0.59 0.997
1.779 0.341 1.246
1.779 -0.0 1.337
1.779 -0.341 1.246
1.779 -0.59 0.997
1.779 -0.682 0.656
1.779 -0.59 0.315
1.779 -0.341 0.065
1.779 -0.0 -0.026
1.779 0.341 0.065
1.779 0.59 0.315
1.779 0.682 0.656
1.624 0.934 0.995
1.624 0.761 1.294
1.624 0.497 1.516
1.624 0.173 1.634
1.624 -0.173 1.634
1.624 -0.497 1.516
1.624 -0.761 1.294
1.624 -0.934 0.995
1.624 -0.994 0.656
1.624 -0.934 0.316
1.624 -0.761 0.017
1.624 0.761 0.017
1.624 0.934 0.316
1.624 0.994 0.656
1.414 1.224 0.999
1.414 1.086 1.316
1.414 0.868 1.585
1.414 0.585 1.785
1.414 0.259 1.901
1.414 -0.087 1.924
1.414 -0.426 1.854
1.414 -0.733 1.694
1.414 -0.986 1.458
1.414 -1.166 1.162
1.414 -1.26 0.829
1.414 -1.26 0.482
1.414 -1.166 0.149
1.414 -0.986 -0.147
1.414 1.086 -0.005
1.414 1.224 0.313
1.414 1.272 0.656
1.156 1.466 1.003
1.156 1.346 1.332
1.156 1.154 1.624
1.156 0.899 1.864
1.156 0.597 2.039
1.156 0.262 2.139
1.156 -0.088 2.159
1.156 -0.432 2.099
1.156 -0.753 1.96
1.156 -1.034 1.751
1.156 -1.258 1.483
1.156 -1.415 1.171
1.156 -1.496 0.83
1.156 -1.496 0.481
1.156 -1.415 0.14
1.156 1.346 -0.02
1.156 1.466 0.308
1.156 1.506 0.656
0.86 1.655 0.996
0.86 1.553 1.322
0.86 1.387 1.621
0.86 1.164 1.88
0.86 0.894 2.089
0.86 0.587 2.24
0.86 0.256 2.326
0.86 -0.086 2.343
0.86 -0.424 2.291
0.86 -0.744 2.173
0.86 -1.034 1.992
0.86 -1.282 1.756
0.86 -1.477 1.476
0.86 -1.612 1.161
0.86 -1.681 0.827
0.86 -1.681 0.485
0.86 -1.612 0.15
0.86 1.553 -0.011
0.86 1.655 0.315
0.86 1.69 0.656
0.536 1.783 0.999
0.536 1.685 1.33
0.536 1.527 1.637
0.536 1.314 1.908
0.536 1.053 2.134
0.536 0.754 2.307
0.536 0.428 2.42
0.536 0.086 2.469
0.536 -0.258 2.453
0.536 -0.594 2.371
0.536 -0.908 2.228
0.536 -1.189 2.028
0.536 -1.427 1.778
0.536 -1.614 1.487
0.536 -1.742 1.167
0.536 -1.807 0.828
0.536 -1.807 0.483
0.536 -1.742 0.144
0.536 1.685 -0.019
0.536 1.783 0.312
0.536 1.815 0.656
0.193 1.847 1.001
0.193 1.753 1.335
0.193 1.598 1.645
0.193 1.389 1.922
0.193 1.133 2.155
0.193 0.838 2.338
0.193 0.514 2.463
0.193 0.173 2.527
0.193 -0.173 2.527
0.193 -0.514 2.463
0.193 -0.838 2.338
0.193 -1.133 2.155
0.193 -1.389 1.922
0.193 -1.598 1.645
0.193 -1.753 1.335
0.193 -1.847 1.001
0.193 -1.879 0.656
0.193 -1.847 0.31
0.193 -1.753 -0.023
0.193 1.753 -0.023
0.193 1.847 0.31
0.193 1.879 0.656
-0.155 1.847 1.001
-0.155 1.753 1.335
-0.155 1.598 1.645
-0.155 1.389 1.922
-0.155 1.133 2.155
-0.155 0.838 2.338
-0.155 0.514 2.463
-0.155 0.173 2.527
-0.155 -0.173 2.527
-0.155 -0.514 2.463
-0.155 -0.838 2.338
-0.155 -1.133 2.155
-0.155 -1.389 1.922
-0.155 -1.598 1.645
-0.155 -1.753 1.335
-0.155 -1.847 1.001
-0.155 -1.879 0.656
-0.155 -1.847 0.31
-0.155 1.847 0.31
-0.155 1.879 0.656
-0.498 1.815 0.656
-0.498 1.783 0.999
-0.498 1.685 1.33
-0.498 1.527 1.637
-0.498 1.314 1.908
-0.498 1.053 2.134
-0.498 0.754 2.307
-0.498 0.428 2.42
-0.498 0.086 2.469
-0.498 -0.258 2.453
-0.498 -0.594 2.371
-0.498 -0.908 2.228
-0.498 -1.189 2.028
-0.498 -1.427 1.778
-0.498 -1.614 1.487
-0.498 -1.742 1.167
-0.498 -1.807 0.828
-0.498 -1.807 0.483
-0.498 -1.742 0.144
-0.498 1.783 0.312
-0.822 1.69 0.656
-0.822 1.655 0.996
-0.822 1.553 1.322
-0.822 1.387 1.621
-0.822 1.164 1.88
-0.822 0.894 2.089
-0.822 0.587 2.24
-0.822 0.256 2.326
-0.822 -0.086 2.343
-0.822 -0.424 2.291
-0.822 -0.744 2.173
-0.822 -1.034 1.992
-0.822 -1.282 1.756
-0.822 -1.477 1.476
-0.822 -1.612 1.161
-0.822 -1.681 0.827
-0.822 -1.681 0.485
-0.822 -1.612 0.15
-0.822 1.655 0.315
-1.118 1.506 0.656
-1.118 1.466 1.003
-1.118 1.346 1.332
-1.118 1.154 1.624
-1.118 0.899 1.864
-1.118 0.597 2.039
-1.118 0.262 2.139
-1.118 -0.088 2.159
-1.118 -0.432 2.099
-1.118 -0.753 1.96
-1.118 -1.034 1.751
-1.118 -1.258 1.483
-1.118 -1.415 1.171
-1.118 -1.496 0.83
-1.118 -1.496 0.481
-1.118 -1.415 0.14
-1.118 1.466 0.308
-1.376 1.272 0.656
-1.376 1.224 0.999
-1.376 1.086 1.316
-1.376 0.868 1.585
-1.376 0.585 1.785
-1.376 0.259 1.901
-1.376 -0.087 1.924
-1.376 -0.426 1.854
-1.376 -0.733 1.694
-1.376 -0.986 1.458
-1.376 -1.166 1.162
-1.376 -1.26 0.829
-1.376 -1.26 0.482
-1.376 -1.166 0.149
-1.376 1.224 0.313
-1.586 0.994 0.656
-1.586 0.934 0.995
-1.586 0.761 1.294
-1.586 0.497 1.516
-1.586 0.173 1.634
-1.586 -0.173 1.634
-1.586 -0.497 1.516
-1.586 -0.761 1.294
-1.586 -0.934 0.995
-1.586 -0.994 0.656
-1.586 -0.934 0.316
-1.586 0.934 0.316
-1.741 0.682 0.656
-1.741 0.59 0.997
-1.741 0.341 1.246
-1.741 -0.0 1.337
-1.741 -0.341 1.246
-1.741 -0.59 0.997
-1.741 -0.682 0.656
-1.741 -0.59 0.315
-1.741 0.59 0.315
-1.836 0.347 0.656
-1.836 0.173 0.956
-1.836 -0.173 0.956
-1.836 -0.347 0.656
-1.836 -0.173 0.355
-1.836 0.173 0.355
-1.868 -0.0 0.656
1.263 -0.333 -1.314
1.08 -0.577 -1.501
1.08 -0.262 -1.658
1.263 -0.0 -1.403
1.08 0.088 -1.69
1.263 0.333 -1.314
1.08 0.427 -1.594
1.08 0.707 -1.382
1.08 -0.814 -1.241
0.837 -1.081 -1.258
0.837 -0.88 -1.553
0.837 -0.6 -1.777
0.837 -0.267 -1.907
0.837 0.09 -1.934
0.837 0.438 -1.854
0.837 0.748 -1.675
0.837 0.992 -1.413
1.08 0.892 -1.083
0.837 1.147 -1.091
0.546 -1.286 -1.246
0.546 -1.119 -1.55
0.546 -0.882 -1.803
0.546 -0.589 -1.989
0.546 -0.259 -2.096
0.546 0.087 -2.117
0.546 0.427 -2.052
0.546 0.741 -1.905
0.546 1.008 -1.684
0.546 1.212 -1.403
0.546 1.34 -1.081
0.222 -1.406 -1.249
0.222 -1.25 -1.56
0.222 -1.027 -1.826
0.222 -0.748 -2.033
0.222 -0.429 -2.171
0.222 -0.087 -2.231
0.222 0.26 -2.211
0.222 0.593 -2.111
0.222 0.894 -1.938
0.222 1.146 -1.699
0.222 1.337 -1.409
0.222 1.456 -1.082
-0.12 -1.497 -1.079
-0.12 -1.383 -1.403
-0.12 -1.2 -1.694
-0.12 -0.957 -1.937
-0.12 -0.666 -2.12
-0.12 -0.342 -2.234
-0.12 0.0 -2.272
-0.12 0.342 -2.234
-0.12 0.666 -2.12
-0.12 0.957 -1.937
-0.12 1.2 -1.694
-0.12 1.383 -1.403
-0.12 1.497 -1.079
-0.461 -1.406 -1.249
-0.461 -1.25 -1.56
-0.461 -1.027 -1.826
-0.461 -0.748 -2.033
-0.461 -0.429 -2.171
-0.461 -0.087 -2.231
-0.461 0.26 -2.211
-0.461 0.593 -2.111
-0.461 0.894 -1.938
-0.461 1.146 -1.699
-0.461 1.337 -1.409
-0.461 1.456 -1.082
-0.786 -1.372 -0.911
-0.786 -1.286 -1.246
-0.786 -1.119 -1.55
-0.786 -0.882 -1.803
-0.786 -0.589 -1.989
-0.786 -0.259 -2.096
-0.786 0.087 -2.117
-0.786 0.427 -2.052
-0.786 0.741 -1.905
-0.786 1.008 -1.684
-0.786 1.212 -1.403
-0.786 1.34 -1.081
-1.077 -1.187 -0.916
-1.077 -1.081 -1.258
-1.077 -0.88 -1.553
-1.077 -0.6 -1.777
-1.077 -0.267 -1.907
-1.077 0.09 -1.934
-1.077 0.438 -1.854
-1.077 0.748 -1.675
-1.077 0.992 -1.413
-1.077 1.147 -1.091
-1.32 -0.941 -0.913
-1.32 -0.814 -1.241
-1.32 -0.577 -1.501
-1.32 -0.262 -1.658
-1.32 0.088 -1.69
-1.32 0.427 -1.594
-1.32 0.707 -1.382
-1.32 0.892 -1.083
-1.503 -0.577 -1.07
-1.503 -0.333 -1.314
-1.503 -0.0 -1.403
-1.503 0.333 -1.314
-1.503 0.577 -1.07
-1.616 -0.171 -1.033
-1.616 0.171 -1.033

CELLS 816 3264
3 0 1 2
3 2 1 3
3 1 4 3
3 3 4 5
3 4 6 5
3 5 6 7
3 6 8 7
3 7 8 9
3 8 10 9
3 9 10 11
3 10 12 11
3 11 12 13
3 12 14 13
3 13 14 15
3 14 16 15
3 15 16 17
3 16 18 17
3 17 18 19
3 18 20 19
3 19 20 21
3 20 22 21
3 21 22 23
3 22 24 23
3 23 24 25
3 24 26 25
3 25 26 27
3 26 28 27
3 27 28 29
3 28 30 29
3 29 30 31
3 30 32 31
3 31 32 33
3 32 34 33
3 33 34 35
3 34 36 35
3 35 36 37
3 36 38 37
3 37 38 39
3 38 40 39
3 39 40 41
3 40 42 41
3 41 42 43
3 42 44 43
3 43 44 45
3 44 46 45
3 45 46 47
3 46 48 47
3 47 48 49
3 48 50 49
3 49 50 51
3 50 52 51
3 51 52 53
3 52 54 53
3 53 54 55
3 54 0 55
3 55 0 2
3 56 57 58
3 56 58 59
3 56 59 60
3 56 60 61
3 56 61 62
3 56 62 57
3 58 57 63
3 58 63 64
3 58 64 65
3 59 58 65
3 59 65 66
3 59 66 67
3 60 59 67
3 60 67 68
3 60 68 69
3 61 60 69
3 61 69 70
3 61 70 71
3 62 61 71
3 62 71 72
3 62 72 73
3 57 62 73
3 57 73 74
3 57 74 63
3 63 74 75
3 63 75 76
3 64 63 76
3 64 76 77
3 64 77 78
3 65 64 78
3 65 78 79
3 66 65 79
3 66 79 80
3 66 80 81
3 67 66 81
3 67 81 82
3 68 67 82
3 68 82 83
3 68 83 84
3 69 68 84
3 69 84 85
3 70 69 85
3 73 72 86
3 73 86 87
3 74 73 87
3 74 87 88
3 74 88 75
3 75 88 89
3 75 89 90
3 76 75 90
3 76 90 91
3 77 76 91
3 77 91 92
3 78 77 92
3 78 92 93
3 78 93 94
3 79 78 94
3 79 94 95
3 80 79 95
3 80 95 96
3 81 80 96
3 81 96 97
3 81 97 98
3 82 81 98
3 82 98 99
3 83 82 99
3 83 99 100
3 84 83 100
3 84 100 101
3 85 84 101
3 85 101 102
3 87 86 103
3 87 103 104
3 88 87 104
3 88 104 105
3 88 105 89
3 89 105 106
3 89 106 107
3 90 89 107
3 90 107 108
3 91 90 108
3 91 108 109
3 92 91 109
3 92 109 110
3 93 92 110
3 93 110 111
3 94 93 111
3 94 111 112
3 94 112 113
3 95 94 113
3 95 113 114
3 96 95 114
3 96 114 115
3 97 96 115
3 97 115 116
3 98 97 116
3 98 116 117
3 99 98 117
3 99 117 118
3 99 118 119
3 100 99 119
3 100 119 120
3 101 100 120
3 104 103 121
3 104 121 122
3 105 104 122
3 105 122 123
3 105 123 106
3 106 123 124
3 106 124 125
3 107 106 125
3 107 125 126
3 108 107 126
3 108 126 127
3 109 108 127
3 109 127 128
3 110 109 128
3 110 128 129
3 111 110 129
3 111 129 130
[...]
CELL_DATA 816
SCALARS cell_data_0 double
LOOKUP_TABLE default
5.04053953278e-08
4.85368973943e-08
2.91656599763e-08
2.7685462047e-08
1.68467875187e-08
7.7504001619e-09
6.10878996672e-09
3.24979049161e-09
1.14980880982e-09
5.43589917533e-10
1.01079135964e-09
4.08873425147e-10
8.70997585213e-10
9.21498081717e-10
4.63729775748e-10
1.41822125679e-09
1.72583711801e-10
1.77891619679e-09
1.16895149655e-09
2.17366446104e-09
1.01409068728e-09
2.70971942375e-09
6.33242941327e-10
3.25129619309e-09
4.0443539078e-10
1.69411979878e-09
1.18500358839e-10
1.74509065552e-09
4.43131163404e-10
1.47295768245e-09
4.49220744082e-10
1.7506010596e-09
6.85868509568e-10
1.5279534158e-09
5.5749884396e-10
1.76015584195e-09
3.27762657433e-10
2.05272278604e-09
6.34685716641e-10
1.57789555548e-09
4.57713000611e-11
7.32998711856e-10
3.74214067551e-10
5.2832993151e-10
4.59949659305e-10
7.41682569567e-10
2.20954643492e-10
1.82642813009e-10
2.73367180162e-10
1.45876390998e-10
1.67222583122e-09
1.06729196732e-08
1.28307065401e-08
1.47321337746e-08
7.99826252443e-09
1.4509701471e-08
8.45028280332e-10
3.16697303032e-10
1.17599901662e-09
1.52507960791e-10
2.19204525904e-09
1.55085298405e-10
3.29327385296e-10
5.77124210489e-11
1.03393965319e-10
7.77509613822e-10
4.96206459404e-10
5.47624305542e-10
2.28705778314e-10
3.3481695447e-10
7.80148822909e-10
1.22322818233e-09
4.17861667042e-09
1.63869845987e-09
6.84282586337e-09
2.4745893313e-09
9.02778628079e-10
1.99695715962e-09
6.54174982795e-11
1.77968144618e-10
4.04251994421e-11
2.40068262338e-11
4.0232479761e-10
2.73226372228e-10
3.60701573555e-11
3.14291823091e-10
4.80958484652e-11
3.50418314592e-11
1.00233311435e-10
2.03391235894e-10
1.28367085671e-10
1.85188623397e-10
1.20007719308e-10
7.42043162598e-10
7.21756024218e-10
2.15762836206e-09
2.93873436903e-09
7.96396873298e-09
1.63538942967e-10
4.4527864434e-10
1.22951180405e-10
3.48332074478e-10
4.91774770561e-11
5.24348400188e-11
5.50461709038e-11
3.28004149077e-11
6.06200371819e-11
3.93819005463e-11
4.37841292879e-11
6.34586041056e-11
6.40554654668e-11
5.05949172909e-11
4.0773725751e-11
1.07325204995e-11
3.28960922204e-11
1.08204587677e-12
6.03920006784e-11
3.02484535654e-11
1.79890217362e-11
1.61770019165e-10
2.9089965284e-10
2.37246922327e-10
1.25428942981e-09
1.30041730824e-10
1.31149945942e-09
3.09520680126e-09
9.85319186394e-10
1.29067163845e-10
1.87710920042e-10
1.29504037759e-10
1.25186658574e-10
2.18438305654e-11
1.26009265445e-11
4.58646690967e-11
8.09463074007e-12
1.53466707175e-12
3.71069859819e-11
4.7796686466e-11
4.46572395246e-11
4.83197497935e-11
8.74489707636e-11
5.16582014064e-11
3.89775259654e-11
2.91772974921e-11
2.54214963417e-11
5.05744235552e-12
3.41881296107e-11
3.04889244698e-12
3.87758085353e-11
6.45692553575e-11
9.51754077642e-11
5.46118196576e-11
1.93653512397e-10
3.71518003555e-10
2.72201844777e-10
5.17440263038e-10
4.40795848033e-10
5.27317717341e-10
9.11603286653e-11
8.03857344519e-11
4.60809404597e-11
2.4602797104e-11
2.44063181922e-12
5.75581044226e-11
1.42314161997e-11
4.78711459096e-12
5.92859987261e-12
2.80773000265e-11
1.37027963051e-11
2.27701754619e-11
3.06957704799e-12
4.05647544658e-12
3.64885316965e-11
2.17270866319e-11
7.48010426459e-11
3.52892462127e-11
4.99584289815e-11
2.81479550349e-11
2.22147777719e-11
5.80865864451e-12
1.17169258311e-11
3.52257226519e-12
2.25339112857e-11
2.385834653e-11
4.96578340443e-11
4.29182905246e-11
1.11144229056e-10
7.18972517323e-11
1.33515916881e-10
3.14249165483e-10
4.46283042535e-10
4.0045869698e-10
3.39609060736e-10
5.34824553249e-10
8.23477993154e-10
4.04315518849e-11
6.41691369515e-12
5.75953301117e-11
9.55830496058e-11
5.6664092862e-12
3.01812982846e-12
2.08429394427e-12
1.11608813609e-11
9.95211485923e-12
1.86356319281e-11
1.21839433731e-11
1.27415940841e-11
1.9116461611e-11
2.46109247634e-12
5.87859292972e-12
1.37163524116e-11
2.06495643439e-11
4.96423191984e-11
3.40423201295e-11
2.92068458368e-13
3.10645210342e-11
5.96181761213e-12
5.788576835e-12
4.29211886329e-12
6.62365417952e-12
3.66030766406e-12
3.46468629369e-11
1.85750300467e-11
3.58044265154e-11
8.22338098321e-12
4.3399465646e-11
6.36153829143e-11
2.08752975628e-11
1.89813578369e-11
4.31678793517e-12
2.29651064454e-13
1.13390055493e-11
8.63177601565e-12
2.69754107636e-11
1.14156434855e-11
3.76222409889e-11
1.38417930695e-11
8.25596759109e-11
1.31648333829e-12
2.31889843425e-11
2.58054403988e-12
3.25701283766e-11
1.90548663596e-11
1.65822163461e-11
2.12220903301e-11
1.51888671123e-12
1.30078574813e-11
3.40903472142e-11
3.87721461753e-11
5.18074818762e-11
2.28039421965e-11
6.93650027981e-11
2.07090672725e-11
1.3276835448e-11
1.18003069078e-11
2.26490178807e-11
1.27253524705e-11
4.70346764068e-12
1.51937195064e-11
3.48270146401e-12
1.80967439325e-11
3.15500763821e-12
2.77597640083e-14
1.05435175493e-11
4.16665521868e-12
9.74158015859e-12
2.25262803389e-11
1.22831933479e-11
2.55492902638e-11
1.07682141556e-11
1.4682519236e-11
1.77617038993e-11
3.67190413935e-11
2.54906353985e-11
1.6086463336e-10
3.57328630548e-11
1.68861363585e-11
2.24771667715e-11
7.11806890943e-11
2.40723901767e-11
7.1800763887e-11
1.04255703985e-11
4.64785435682e-11
6.63013671277e-12
3.41727185343e-11
1.64293851998e-11
3.11040933887e-12
2.31982009184e-11
8.7122001479e-12
4.66619808399e-11
1.93180230092e-11
1.46511181969e-10
1.40322990067e-10
5.89346818474e-11
1.21986669274e-10
1.82920524066e-11
1.80535800593e-11
9.35973915016e-12
4.64990887276e-12
1.54068961053e-12
1.09109764338e-12
1.40526804227e-12
6.19237378631e-12
1.21290816241e-11
4.58841502186e-13
7.26814169736e-13
1.23372167973e-11
1.11620654154e-11
6.12411755469e-12
1.1097548299e-11
1.11970483634e-11
1.91510172974e-11
1.01809572059e-11
6.55104737237e-11
6.91330446726e-11
3.93475874857e-11
4.37318243883e-11
1.31354240888e-11
2.80207415751e-12
3.62292920254e-12
1.2094069091e-11
1.52462322589e-11
5.30511946887e-11
2.89046580947e-11
2.10117910869e-11
6.07169355023e-12
1.06349591826e-11
3.52369748172e-11
1.8099041232e-11
3.07169174831e-11
6.36107858892e-11
4.01767784898e-11
9.8056382084e-11
9.59869115139e-11
4.679238911e-11
5.82736542136e-11
5.20372860896e-11
3.65064866718e-12
1.0104832479e-11
1.05455440658e-11
6.64801428947e-12
2.41206624461e-12
9.05633379832e-12
2.45381173169e-11
1.56394396846e-11
2.70180391651e-12
2.39925314298e-11
3.11605809487e-12
1.61779239218e-11
1.90039983114e-11
3.88454710531e-12
4.76916028098e-11
1.62203229318e-11
3.14375158938e-11
2.65310215129e-11
8.19631272192e-11
6.3467646344e-11
6.96404511603e-11
1.71921456578e-11
5.17131698937e-12
1.11444532887e-11
2.11305615901e-11
8.32472690443e-15
4.09837185551e-12
4.57074686869e-12
2.43319147373e-11
1.30562240992e-11
4.44047953787e-13
6.33143767049e-12
8.37688446084e-13
9.08051737207e-13
4.0104572031e-11
5.55308446401e-12
4.44183824555e-12
2.12169515488e-11
9.43668943178e-12
1.36560527996e-11
1.06862285073e-12
2.44835704364e-12
9.14965256837e-13
4.3188665692e-12
3.03589844186e-12
6.38652998025e-12
3.85813085453e-12
5.36614502539e-12
4.86570756597e-14
2.98157303503e-12
7.36134275447e-12
6.15131706509e-11
2.09289125486e-11
7.94119537379e-11
1.79531888987e-10
6.90314124814e-12
2.35553373577e-11
1.45690541505e-11
1.59409399673e-12
7.46874470246e-12
8.43317812278e-12
1.24248162816e-11
7.79614254483e-13
1.8542541329e-11
2.34792676163e-12
5.07632081433e-12
4.63212708964e-12
3.77201537666e-12
3.0108222681e-12
2.59375928048e-12
5.02223451826e-12
2.78447249036e-11
9.66113227282e-12
1.19284369888e-11
6.61028684342e-12
8.44921686992e-12
3.95458843704e-12
1.02688245423e-11
8.03856668458e-12
2.55105779024e-12
4.95875522671e-13
2.15832978524e-12
2.67642532937e-12
6.84561665661e-12
2.22486076609e-12
1.39267389913e-11
4.40907911116e-11
1.84176216105e-10
2.27308457101e-10
1.11469763637e-10
2.07789888258e-10
9.39419829822e-11
1.31405863367e-11
2.55604719322e-11
1.19506853007e-11
1.15844352051e-11
4.97325416208e-12
1.20612237316e-11
1.04648498961e-11
1.61225199677e-11
2.51202150879e-12
1.35423252162e-11
5.46000416699e-12
1.3143889478e-11
3.5134996787e-12
6.73479485718e-12
5.82637144834e-13
3.80082891582e-12
8.46324042281e-12
2.73864718976e-12
5.61346379068e-12
4.64078352922e-12
9.24126498352e-13
5.38834887289e-12
1.52998627551e-11
2.09881591313e-11
5.71863833172e-11
1.38917837146e-10
5.56962677724e-10
1.96880812445e-11
2.26247665535e-11
1.00911125446e-10
1.92076277707e-11
2.46376954889e-11
1.26104025055e-13
3.77540769493e-12
6.60895390727e-12
8.97363385351e-12
5.93477710376e-12
2.78346833883e-12
2.10508848474e-12
1.67984261221e-12
9.10391299425e-12
6.12975058937e-12
7.23104196095e-12
3.38445705766e-12
2.63348440529e-12
1.38152625883e-12
7.46770220354e-12
2.03087401327e-11
2.19998488456e-11
9.06620639874e-11
2.60676438866e-11
4.9847854508e-10
1.28144700943e-10
2.66836298489e-10
5.75910965052e-11
4.99760322824e-11
3.19864088086e-11
7.82811864879e-12
5.01158757024e-12
2.56394048355e-12
6.06166460165e-13
4.59678460347e-12
1.17582518983e-12
2.89507674004e-12
3.1936050728e-12
4.3697788841e-12
4.25367525777e-11
2.68090528653e-11
1.03771194015e-10
1.17628826451e-10
1.25094958293e-10
2.5259509744e-10
9.5051633204e-11
5.04918293893e-11
9.36886250491e-12
3.54154553743e-11
5.55062311476e-12
4.94809985305e-11
4.66353747554e-12
2.51681763724e-11
3.45197999467e-11
6.65033009725e-11
2.656652442e-10
1.67250277071e-10
1.1359893444e-10
3.40070577242e-10
1.9085672241e-10
7.03521147357e-11
1.5176716336e-10
2.01412176803e-10
4.48000413225e-11
1.00696033168e-10
4.64156218609e-10
1.03906086227e-09
5.58778615061e-10
9.03221670815e-10
4.80750753129e-10
7.47999290085e-10
3.10832715974e-10
1.77850089776e-09
2.0869324514e-10
5.44993002246e-10
7.30630377052e-11
8.21510880916e-10
3.31191641751e-11
4.6213459994e-11
8.34949523771e-10
6.40172187309e-10
6.79586863469e-10
1.71147938285e-10
6.48672476633e-11
2.35818286883e-10
3.67121941841e-10
1.86828292917e-10
1.59490036848e-10
2.95444413466e-10
4.97772534348e-10
1.26277848432e-09
4.61240186224e-10
4.99844271052e-12
1.09035536263e-09
2.6140549488e-09
8.74041902962e-09
2.93702759778e-09
8.69122290568e-09
2.95835154641e-08
9.66813240295e-09
1.24927507654e-09
1.00945159656e-09
1.29759918329e-09
1.09699241866e-09
6.50746561209e-10
6.39281288972e-10
4.58685171857e-10
5.43459791835e-11
7.9259002014e-11
1.23431896954e-11
2.17261681173e-10
6.13535550024e-11
1.31172998338e-10
1.01685767734e-10
1.02138023081e-11
1.23631451535e-10
7.63140751516e-10
1.69185472911e-10
1.25434894359e-10
1.03241175488e-09
5.43876620367e-10
6.75460421282e-10
2.80093497958e-10
1.09816279973e-09
2.79266843069e-10
6.72526860339e-10
1.39382488173e-07
1.03452824031e-07
6.92549131003e-09
6.70130324026e-08
7.52169532156e-08
7.52858893529e-08
9.5601320365e-10
7.07411795978e-09
1.22760632995e-08
5.5966271001e-08
4.72506719559e-08
3.81577408853e-08
1.6846482641e-08
5.31992546603e-09
2.53392535044e-08
9.96713623245e-09
3.99976216662e-08
2.97571975716e-09
6.48660760474e-09
1.10550059856e-08
2.0273139652e-09
6.80428275926e-09
8.23037897773e-11
1.79971500057e-09
2.83084372216e-09
1.861792645e-09
1.49431874734e-09
4.36615309535e-09
6.65020567076e-09
4.99404792875e-09
4.83433806411e-09
6.85675545479e-09
7.09680789791e-09
1.46842874994e-09
1.10773540997e-08
8.69807949061e-09
8.32114645143e-09
7.78229798476e-10
4.89062355416e-10
8.20051307061e-12
2.35028277334e-10
5.74245984285e-10
4.14338053218e-10
6.97216371152e-10
7.54384062849e-11
4.48012645196e-10
1.53357355752e-10
6.55969424691e-10
2.44744391382e-10
2.38100016606e-11
1.91633054599e-10
1.78161916054e-11
1.71620177506e-10
6.17066259799e-10
2.03058044117e-10
2.52340001149e-10
1.28709848723e-10
3.57491858876e-10
2.7780646376e-10
2.75593367846e-10
1.84025774142e-10
3.77335602137e-10
1.03930784382e-09
1.2921245531e-10
6.19390217107e-10
2.80014514905e-10
2.00322003302e-10
3.94550185028e-11
9.16015931947e-11
3.1880634295e-11
2.60102326441e-12
1.40777182915e-11
5.8168141322e-12
6.62479733916e-11
3.23308219711e-10
2.90194889769e-11
4.48487805686e-10
1.78287470683e-10
3.04250987485e-10
6.48897571917e-10
4.98493716969e-10
9.05812728397e-10
9.20632609869e-10
3.71185593596e-11
7.60699908074e-10
1.24662621984e-10
9.10038115483e-10
3.25623686141e-11
4.22503025789e-10
1.3972674132e-10
2.85067547762e-10
1.6562137179e-11
7.5028050026e-11
1.12193827047e-10
8.68785076189e-11
9.40786104195e-11
1.0488853064e-10
5.90695198253e-11
5.07732136457e-10
3.14616082828e-10
2.25535704819e-10
6.19435227815e-11
1.94758718348e-10
1.35596037665e-10
5.47729849068e-10
3.34491179799e-11
9.36650380479e-11
2.26223529814e-10
7.77458350322e-10
1.5653087789e-11
4.34616875174e-10
5.88154255489e-11
1.81912112328e-10
1.66236097204e-10
4.86633029838e-10
3.26082774132e-12
2.69493148509e-10
1.17246022985e-10
2.90470071048e-10
1.13739285778e-10
8.5185995759e-11
1.29443677683e-10
5.87549174092e-10
1.43052867615e-10
7.55925349345e-10
1.68939913759e-10
6.24644536905e-10
1.65755472337e-09
1.02912305617e-09
1.07091159542e-09
1.94188823613e-10
1.29605740164e-10
1.15218671845e-10
5.87076120151e-10
2.45706103546e-10
2.69075477378e-10
4.93152396636e-11
7.08580056789e-10
5.52174915707e-10
4.14492093266e-10
3.55438120721e-10
1.81314156901e-10
8.18297026251e-11
9.87701257816e-12
5.7502381065e-10
5.1607408162e-11
1.40062074734e-09
2.61917636434e-09
1.02644137158e-09
1.18016020908e-09
4.30412633224e-10
9.38471854033e-10
3.26791274785e-10
1.13551523817e-10
5.69366882578e-10
6.84653616582e-11
3.74980822064e-10
6.29576801899e-11
1.00795087877e-10
3.32443871781e-10
6.87041014896e-11
1.61816618984e-10
6.76808879748e-10
6.99155887081e-10
1.90381365076e-10
4.08012745334e-10
8.48701177677e-10
1.26188140092e-09
6.76852290804e-10
1.85814265526e-11
8.6286717021e-10
1.27848442861e-09
4.99962207042e-10
1.49735424298e-09
5.67037360172e-10
6.48700699344e-10
1.50312331931e-09
1.03064456792e-10
1.00612118037e-09
9.98047384017e-10
1.07375255e-09
7.58260797538e-10
1.23104586114e-09
6.0390110879e-10
1.05184961838e-09
9.81466829346e-10
4.76881759155e-10
1.10172624168e-10
9.38354673222e-10
5.32428734626e-10
1.01112137297e-10
5.53810516018e-10
2.57928584296e-10
3.19605940414e-10
3.96536484636e-10
1.18582441364e-10
6.19560408521e-10
1.43892154024e-09
4.47335312618e-10
2.01869025025e-09
2.00198454697e-08
9.58206006619e-08
4.17487134535e-08
2.81121091287e-08
6.62777595952e-08
4.93087449038e-08
6.22938450622e-08
4.62939428049e-08
4.36649633475e-08
6.67288595941e-08
2.17588394922e-08
7.58869583039e-09
8.71258387199e-09
2.32471158005e-09
2.28954023181e-10
4.30382820441e-10
1.9620129989e-10
5.14371800124e-10
3.24311760514e-10
5.87615910287e-11
1.00402322729e-09
6.52524602533e-10
6.87203006338e-10
9.86427239688e-10
1.29394012708e-10
6.88992871033e-10
1.11867739729e-09
1.05660793604e-09
1.8553961531e-09
5.60276719522e-10
1.61627136529e-09
7.3706678213e-10
1.0401805314e-09
8.39180599234e-10

