# vtk DataFile Version 3.0
File Name: Molecule/methanol/methanol_1.0-1.vtk
ASCII
DATASET UNSTRUCTURED_GRID
FIELD FieldData 1
TIME 1 1 double
0.0
POINTS 48 double
1.611 0.0 -0.359
1.12 -1.191 -0.31
1.403 0.0 -0.933
0.956 -1.085 -0.888
-0.065 -1.684 -0.192
-0.124 -1.534 -0.781
-1.251 -1.191 -0.074
-1.204 -1.085 -0.673
-1.742 0.0 -0.025
-1.651 0.0 -0.629
-1.251 1.191 -0.074
-1.204 1.085 -0.673
-0.065 1.684 -0.192
-0.124 1.534 -0.781
1.12 1.191 -0.31
0.956 1.085 -0.888
1.907 0.0 0.656
1.546 1.109 0.656
1.546 0.555 1.616
1.546 -0.555 1.616
1.546 -1.109 0.656
0.602 1.452 1.711
0.602 0.555 2.363
0.602 -0.555 2.363
0.602 -1.452 1.711
0.602 -1.795 0.656
0.602 1.795 0.656
-0.564 1.452 1.711
-0.564 0.555 2.363
-0.564 -0.555 2.363
-0.564 -1.452 1.711
-0.564 -1.795 0.656
-0.564 1.795 0.656
-1.508 1.109 0.656
-1.508 0.555 1.616
-1.508 -0.555 1.616
-1.508 -1.109 0.656
-1.868 -0.0 0.656
0.966 -0.543 -1.677
-0.12 -0.768 -2.067
-0.12 0.267 -2.249
0.966 0.543 -1.677
-0.12 1.176 -1.724
-1.205 -0.543 -1.677
-1.205 0.543 -1.677
0.966 0.0 -1.677
1.1845 0.2715 -1.305
1.1845 -0.2715 -1.305

CELLS 92 368
3 0 1 2
3 2 1 3
3 1 4 3
3 3 4 5
3 4 6 5
3 5 6 7
3 6 8 7
3 7 8 9
3 8 10 9
3 9 10 11
3 10 12 11
3 11 12 13
3 12 14 13
3 13 14 15
3 14 0 15
3 15 0 2
3 16 17 18
3 16 18 19
3 16 19 20
3 18 17 21
3 18 21 22
3 18 22 23
3 19 18 23
3 19 23 24
3 20 19 24
3 20 24 25
3 17 26 21
3 21 26 27
3 21 27 28
3 22 21 28
3 22 28 29
3 23 22 29
3 24 23 29
3 24 29 30
3 24 30 31
3 25 24 31
3 26 32 27
3 27 32 33
3 27 33 34
3 28 27 34
3 28 34 35
3 29 28 35
3 30 29 35
3 30 35 36
3 31 30 36
3 34 33 37
3 35 34 37
3 36 35 37
3 36 37 8
3 36 8 6
3 36 6 31
3 31 6 4
3 31 4 25
3 25 4 1
3 25 1 20
3 20 1 0
3 20 0 16
3 16 0 17
3 17 0 14
3 17 14 26
3 26 14 12
3 26 12 32
3 32 12 10
3 32 10 33
3 33 10 8
3 33 8 37
3 38 39 40
3 41 40 42
3 40 39 43
3 40 43 44
3 42 40 44
3 42 44 11
3 42 11 13
3 42 13 15
3 42 15 41
3 38 3 39
3 39 3 5
3 39 5 43
3 43 5 7
3 43 7 9
3 43 9 44
3 44 9 11
3 41 45 40
3 45 38 40
3 2 46 15
3 15 46 41
3 41 46 45
3 46 47 45
3 46 2 47
3 45 47 38
3 38 47 3
3 47 2 3

CELL_TYPES 92
5
5
5
5
5
5
5
5
5
5
5
5
5
5
5
5
5
5
5
5
5
5
5
5
5
5
5
5
5
5
5
5
5
5
5
5
5
5
5
5
5
5
5
5
5
5
5
5
5
5
5
5
5
5
5
5
5
5
5
5
5
5
5
5
5
5
5
5
5
5
5
5
5
5
5
5
5
5
5
5
5
5
5
5
5
5
5
5
5
5
5
5

CELL_DATA 92
SCALARS cell_data_0 double
LOOKUP_TABLE default
6.81379543829e-06
6.78320058081e-06
1.2570002014e-07
2.9313986831e-07
4.54973223328e-08
1.68282539772e-06
6.07435980258e-07
2.73835146853e-07
4.17598702269e-07
3.77251195395e-07
3.70429997121e-07
2.32244973695e-07
2.32762539083e-07
9.31373787057e-07
2.89903615694e-06
1.04186075865e-05
1.86137846933e-08
4.8437331356e-08
9.26592691442e-08
3.22951147586e-08
1.48217912382e-07
1.14622892504e-07
1.96863569467e-07
7.80150361047e-08
1.8955933581e-08
3.19690188008e-07
1.78965543781e-08
2.32829166507e-08
4.17915583511e-08
3.53770928133e-08
3.74237712307e-08
9.55814068796e-09
3.9760850944e-08
9.39678098817e-08
1.379552475e-07
2.44852777643e-08
4.00738166881e-08
8.61124555483e-08
9.75062048404e-08
9.2343210358e-08
1.41905301877e-07
2.8420682868e-08
1.01515676626e-07
9.15827639329e-08
3.93805474207e-08
1.00994581848e-07
2.61871925708e-08
8.72099109453e-08
1.32309593237e-07
5.22973156297e-07
9.80808434269e-08
7.31090551888e-07
1.14048670401e-07
2.07186884312e-07
4.67122283379e-07
1.7821664801e-06
1.8112744923e-07
1.35408923942e-07
7.14168400574e-08
2.95152244232e-08
2.85645549698e-07
4.2412437709e-08
6.40947145056e-07
6.5034791132e-09
6.58792987112e-07
1.57932451897e-07
7.06030935107e-06
5.99399089548e-06
2.91451414037e-06
8.43372427197e-07
2.50694625557e-06
5.08113485938e-06
1.97715516834e-06
1.44103032759e-07
8.68221713925e-06
9.712315208e-06
4.65663662763e-07
7.41717377102e-06
3.13340806939e-06
1.21976187059e-06
6.50118240658e-07
1.40176706688e-07
3.59797598863e-06
8.65263058087e-06
1.33396551322e-07
8.2733817693e-06
4.95064702522e-06
3.41778282762e-05
1.88488050269e-05
4.8112002277e-06
1.01139118626e-05
3.90494958597e-06

