# vtk DataFile Version 3.0
File Name: Molecule/methanol/methanol_20.0-16_06.vtk
ASCII
DATASET UNSTRUCTURED_GRID
FIELD FieldData 1
TIME 1 1 double
0.0
POINTS 981 double
1.611 0.0 -0.359
1.594 -0.24 -0.357
1.475 0.0 -0.634
1.459 -0.224 -0.633
1.403 0.0 -0.933
1.387 -0.218 -0.931
1.543 -0.475 -0.352
1.412 -0.444 -0.628
1.341 -0.432 -0.927
1.459 -0.7 -0.344
1.333 -0.655 -0.62
1.265 -0.637 -0.919
1.345 -0.911 -0.332
1.226 -0.852 -0.61
1.16 -0.83 -0.909
1.201 -1.103 -0.318
1.092 -1.033 -0.596
1.03 -1.005 -0.896
1.032 -1.273 -0.301
0.934 -1.192 -0.58
0.876 -1.16 -0.88
0.841 -1.417 -0.282
0.754 -1.326 -0.563
0.701 -1.291 -0.863
0.631 -1.532 -0.261
0.558 -1.434 -0.543
0.51 -1.396 -0.844
0.407 -1.616 -0.239
0.348 -1.513 -0.522
0.306 -1.472 -0.824
0.173 -1.667 -0.216
0.129 -1.561 -0.5
0.093 -1.519 -0.802
-0.065 -1.684 -0.192
-0.094 -1.577 -0.478
-0.124 -1.534 -0.781
-0.304 -1.667 -0.168
-0.317 -1.561 -0.456
-0.341 -1.519 -0.759
-0.538 -1.616 -0.145
-0.536 -1.513 -0.434
-0.554 -1.472 -0.738
-0.762 -1.532 -0.123
-0.746 -1.434 -0.413
-0.758 -1.396 -0.718
-0.972 -1.417 -0.102
-0.942 -1.326 -0.394
-0.95 -1.291 -0.699
-1.163 -1.273 -0.083
-1.121 -1.192 -0.376
-1.124 -1.16 -0.681
-1.332 -1.103 -0.066
-1.28 -1.033 -0.36
-1.278 -1.005 -0.666
-1.475 -0.911 -0.051
-1.414 -0.852 -0.347
-1.408 -0.83 -0.653
-1.59 -0.7 -0.04
-1.521 -0.655 -0.336
-1.513 -0.637 -0.642
-1.674 -0.475 -0.032
-1.599 -0.444 -0.328
-1.589 -0.432 -0.635
-1.724 -0.24 -0.027
-1.647 -0.224 -0.323
-1.635 -0.218 -0.63
-1.742 -0.0 -0.025
-1.663 -0.0 -0.322
-1.651 -0.0 -0.629
-1.724 0.24 -0.027
-1.647 0.224 -0.323
-1.635 0.218 -0.63
-1.674 0.475 -0.032
-1.599 0.444 -0.328
-1.589 0.432 -0.635
-1.59 0.7 -0.04
-1.521 0.655 -0.336
-1.513 0.637 -0.642
-1.475 0.911 -0.051
-1.414 0.852 -0.347
-1.408 0.83 -0.653
-1.332 1.103 -0.066
-1.28 1.033 -0.36
-1.278 1.005 -0.666
-1.163 1.273 -0.083
-1.121 1.192 -0.376
-1.124 1.16 -0.681
-0.972 1.417 -0.102
-0.942 1.326 -0.394
-0.95 1.291 -0.699
-0.762 1.532 -0.123
-0.746 1.434 -0.413
-0.758 1.396 -0.718
-0.538 1.616 -0.145
-0.536 1.513 -0.434
-0.554 1.472 -0.738
-0.304 1.667 -0.168
-0.317 1.561 -0.456
-0.341 1.519 -0.759
-0.065 1.684 -0.192
-0.094 1.577 -0.478
-0.124 1.534 -0.781
0.173 1.667 -0.216
0.129 1.561 -0.5
0.093 1.519 -0.802
0.407 1.616 -0.239
0.348 1.513 -0.522
0.306 1.472 -0.824
0.631 1.532 -0.261
0.558 1.434 -0.543
0.51 1.396 -0.844
0.841 1.417 -0.282
0.754 1.326 -0.563
0.701 1.291 -0.863
1.032 1.273 -0.301
0.934 1.192 -0.58
0.876 1.16 -0.88
1.201 1.103 -0.318
1.092 1.033 -0.596
1.03 1.005 -0.896
1.345 0.911 -0.332
1.226 0.852 -0.61
1.16 0.83 -0.909
1.459 0.7 -0.344
1.333 0.655 -0.62
1.265 0.637 -0.919
1.543 0.475 -0.352
1.412 0.444 -0.628
1.341 0.432 -0.927
1.594 0.24 -0.357
1.459 0.224 -0.633
1.387 0.218 -0.931
1.907 0.0 0.656
1.893 0.228 0.656
1.893 0.114 0.853
1.893 -0.114 0.853
1.893 -0.228 0.656
1.893 -0.114 0.459
1.893 0.114 0.459
1.852 0.391 0.881
1.852 0.226 1.047
1.852 -0.0 1.107
1.852 -0.226 1.047
1.852 -0.391 0.881
1.852 -0.452 0.656
1.852 -0.391 0.43
1.852 -0.226 0.264
1.852 -0.0 0.204
1.852 0.226 0.264
1.852 0.391 0.43
1.852 0.452 0.656
1.784 0.629 0.885
1.784 0.513 1.086
1.784 0.335 1.235
1.784 0.116 1.315
1.784 -0.116 1.315
1.784 -0.335 1.235
1.784 -0.513 1.086
1.784 -0.629 0.885
1.784 -0.669 0.656
1.784 -0.629 0.427
1.784 -0.513 0.225
1.784 -0.335 0.076
1.784 -0.116 -0.004
1.784 0.116 -0.004
1.784 0.335 0.076
1.784 0.513 0.225
1.784 0.629 0.427
1.784 0.669 0.656
1.69 0.847 0.883
1.69 0.76 1.094
1.69 0.62 1.276
1.69 0.439 1.415
1.69 0.227 1.503
1.69 0.0 1.533
1.69 -0.227 1.503
1.69 -0.439 1.415
1.69 -0.62 1.276
1.69 -0.76 1.094
1.69 -0.847 0.883
1.69 -0.877 0.656
1.69 -0.847 0.429
1.69 -0.76 0.217
1.69 -0.62 0.035
1.69 -0.439 -0.104
1.69 -0.227 -0.192
1.69 -0.0 -0.222
1.69 0.227 -0.192
1.69 0.439 -0.104
1.69 0.62 0.035
1.69 0.76 0.217
1.69 0.847 0.429
1.69 0.877 0.656
1.572 1.049 0.879
1.572 0.98 1.092
1.572 0.867 1.286
1.572 0.717 1.452
1.572 0.536 1.584
1.572 0.331 1.675
1.572 0.112 1.722
1.572 -0.112 1.722
1.572 -0.331 1.675
1.572 -0.536 1.584
1.572 -0.717 1.452
1.572 -0.867 1.286
1.572 -0.98 1.092
1.572 -1.049 0.879
1.572 -1.072 0.656
1.572 -1.049 0.433
1.572 -0.98 0.219
1.572 -0.867 0.025
1.572 -0.717 -0.141
1.572 0.717 -0.141
1.572 0.867 0.025
1.572 0.98 0.219
1.572 1.049 0.433
1.572 1.072 0.656
1.432 1.232 0.879
1.432 1.172 1.095
1.432 1.074 1.298
1.432 0.943 1.479
1.432 0.78 1.634
1.432 0.593 1.758
1.432 0.387 1.846
1.432 0.168 1.896
1.432 -0.056 1.906
1.432 -0.279 1.876
1.432 -0.492 1.807
1.432 -0.69 1.7
1.432 -0.865 1.56
1.432 -1.013 1.391
1.432 -1.128 1.199
1.432 -1.207 0.989
1.432 -1.247 0.768
1.432 -1.247 0.543
1.432 -1.207 0.323
1.432 -1.128 0.113
1.432 -1.013 -0.08
1.432 0.943 -0.168
1.432 1.074 0.014
1.432 1.172 0.216
1.432 1.232 0.432
1.432 1.252 0.656
1.271 1.395 0.882
1.271 1.34 1.103
1.271 1.251 1.312
1.271 1.129 1.504
1.271 0.979 1.675
1.271 0.803 1.818
1.271 0.606 1.932
1.271 0.393 2.013
1.271 0.17 2.058
1.271 -0.057 2.067
1.271 -0.283 2.04
1.271 -0.501 1.977
1.271 -0.706 1.879
1.271 -0.894 1.75
1.271 -1.058 1.592
1.271 -1.194 1.411
1.271 -1.3 1.209
1.271 -1.372 0.994
1.271 -1.408 0.769
1.271 -1.408 0.542
1.271 -1.372 0.317
1.271 -1.3 0.102
1.271 -1.194 -0.1
1.271 1.129 -0.193
1.271 1.251 -0.001
1.271 1.34 0.208
1.271 1.395 0.429
1.271 1.413 0.656
1.091 1.537 0.882
1.091 1.488 1.103
1.091 1.407 1.315
1.091 1.296 1.513
1.091 1.157 1.692
1.091 0.994 1.85
1.091 0.809 1.982
1.091 0.608 2.085
1.091 0.393 2.158
1.091 0.17 2.2
1.091 -0.057 2.208
1.091 -0.282 2.183
1.091 -0.502 2.126
1.091 -0.71 2.037
1.091 -0.904 1.919
1.091 -1.078 1.774
1.091 -1.229 1.605
1.091 -1.355 1.416
1.091 -1.451 1.211
1.091 -1.516 0.993
1.091 -1.549 0.769
1.091 -1.549 0.542
1.091 -1.516 0.318
1.091 -1.451 0.101
1.091 -1.355 -0.105
1.091 1.296 -0.202
1.091 1.407 -0.004
1.091 1.488 0.208
1.091 1.537 0.429
1.091 1.553 0.656
0.896 1.656 0.883
0.896 1.609 1.107
0.896 1.533 1.321
0.896 1.428 1.524
0.896 1.296 1.71
0.896 1.141 1.877
0.896 0.964 2.021
0.896 0.769 2.14
0.896 0.56 2.23
0.896 0.34 2.292
0.896 0.114 2.323
0.896 -0.114 2.323
0.896 -0.34 2.292
0.896 -0.56 2.23
0.896 -0.769 2.14
0.896 -0.964 2.021
0.896 -1.141 1.877
0.896 -1.296 1.71
0.896 -1.428 1.524
0.896 -1.533 1.321
0.896 -1.609 1.107
0.896 -1.656 0.883
0.896 -1.671 0.656
0.896 -1.656 0.428
0.896 -1.609 0.205
0.896 -1.533 -0.01
0.896 1.533 -0.01
0.896 1.609 0.205
0.896 1.656 0.428
0.896 1.671 0.656
0.688 1.75 0.881
0.688 1.707 1.103
0.688 1.636 1.318
0.688 1.538 1.522
0.688 1.414 1.711
0.688 1.268 1.883
0.688 1.1 2.035
0.688 0.915 2.165
0.688 0.714 2.269
0.688 0.502 2.347
0.688 0.282 2.398
0.688 0.057 2.42
0.688 -0.169 2.412
0.688 -0.393 2.376
0.688 -0.61 2.312
0.688 -0.816 2.22
0.688 -1.01 2.103
0.688 -1.187 1.962
0.688 -1.344 1.8
0.688 -1.479 1.618
0.688 -1.59 1.421
0.688 -1.675 1.212
0.688 -1.732 0.993
0.688 -1.761 0.769
0.688 -1.761 0.543
0.688 -1.732 0.318
0.688 -1.675 0.099
0.688 -1.59 -0.11
0.688 1.636 -0.007
0.688 1.707 0.208
0.688 1.75 0.43
0.688 1.765 0.656
0.471 1.819 0.881
0.471 1.777 1.103
0.471 1.709 1.318
0.471 1.615 1.523
0.471 1.496 1.714
0.471 1.354 1.89
0.471 1.192 2.047
0.471 1.012 2.183
0.471 0.817 2.296
0.471 0.609 2.384
0.471 0.392 2.446
0.471 0.169 2.48
0.471 -0.056 2.487
0.471 -0.281 2.467
0.471 -0.502 2.418
0.471 -0.714 2.343
0.471 -0.916 2.243
0.471 -1.104 2.118
0.471 -1.276 1.971
0.471 -1.428 1.805
0.471 -1.558 1.62
0.471 -1.665 1.422
0.471 -1.746 1.211
0.471 -1.801 0.992
0.471 -1.829 0.768
0.471 -1.829 0.543
0.471 -1.801 0.319
0.471 -1.746 0.1
0.471 -1.665 -0.11
0.471 1.709 -0.006
0.471 1.777 0.209
0.471 1.819 0.43
0.471 1.833 0.656
0.247 1.86 0.881
0.247 1.819 1.104
0.247 1.752 1.32
0.247 1.659 1.526
0.247 1.542 1.72
0.247 1.403 1.898
0.247 1.243 2.058
0.247 1.064 2.198
0.247 0.871 2.315
0.247 0.664 2.408
0.247 0.448 2.475
0.247 0.226 2.516
0.247 -0.0 2.529
0.247 -0.226 2.516
0.247 -0.448 2.475
0.247 -0.664 2.408
0.247 -0.871 2.315
0.247 -1.064 2.198
0.247 -1.243 2.058
0.247 -1.403 1.898
0.247 -1.542 1.72
0.247 -1.659 1.526
0.247 -1.752 1.32
0.247 -1.819 1.104
0.247 -1.86 0.881
0.247 -1.874 0.656
0.247 -1.86 0.43
0.247 -1.819 0.207
0.247 -1.752 -0.009
0.247 1.752 -0.009
0.247 1.819 0.207
0.247 1.86 0.43
0.247 1.874 0.656
0.019 1.874 0.879
0.019 1.835 1.099
0.019 1.769 1.313
0.019 1.679 1.517
0.019 1.566 1.71
0.019 1.43 1.888
0.019 1.274 2.048
0.019 1.1 2.189
0.019 0.911 2.309
0.019 0.709 2.405
0.019 0.498 2.476
0.019 0.279 2.522
0.019 0.056 2.542
0.019 -0.168 2.536
0.019 -0.389 2.503
0.019 -0.605 2.444
0.019 -0.812 2.36
0.019 -1.008 2.252
0.019 -1.189 2.121
0.019 -1.354 1.97
0.019 -1.5 1.801
0.019 -1.625 1.615
0.019 -1.727 1.416
0.019 -1.805 1.207
0.019 -1.858 0.989
0.019 -1.884 0.767
0.019 -1.884 0.544
0.019 -1.858 0.322
0.019 -1.805 0.104
0.019 1.769 -0.002
0.019 1.835 0.212
0.019 1.874 0.432
0.019 1.888 0.656
-0.209 1.874 0.656
-0.209 1.86 0.881
-0.209 1.819 1.104
-0.209 1.752 1.32
-0.209 1.659 1.526
-0.209 1.542 1.72
-0.209 1.403 1.898
-0.209 1.243 2.058
-0.209 1.064 2.198
-0.209 0.871 2.315
-0.209 0.664 2.408
-0.209 0.448 2.475
-0.209 0.226 2.516
-0.209 -0.0 2.529
-0.209 -0.226 2.516
-0.209 -0.448 2.475
-0.209 -0.664 2.408
-0.209 -0.871 2.315
-0.209 -1.064 2.198
-0.209 -1.243 2.058
-0.209 -1.403 1.898
-0.209 -1.542 1.72
-0.209 -1.659 1.526
-0.209 -1.752 1.32
-0.209 -1.819 1.104
-0.209 -1.86 0.881
-0.209 -1.874 0.656
-0.209 -1.86 0.43
-0.209 -1.819 0.207
-0.209 -1.752 -0.009
-0.209 1.752 -0.009
-0.209 1.819 0.207
-0.209 1.86 0.43
-0.433 1.833 0.656
-0.433 1.819 0.881
-0.433 1.777 1.103
-0.433 1.709 1.318
-0.433 1.615 1.523
-0.433 1.496 1.714
-0.433 1.354 1.89
-0.433 1.192 2.047
-0.433 1.012 2.183
-0.433 0.817 2.296
-0.433 0.609 2.384
-0.433 0.392 2.446
-0.433 0.169 2.48
-0.433 -0.056 2.487
-0.433 -0.281 2.467
-0.433 -0.502 2.418
-0.433 -0.714 2.343
-0.433 -0.916 2.243
-0.433 -1.104 2.118
-0.433 -1.276 1.971
-0.433 -1.428 1.805
-0.433 -1.558 1.62
-0.433 -1.665 1.422
-0.433 -1.746 1.211
-0.433 -1.801 0.992
-0.433 -1.829 0.768
-0.433 -1.829 0.543
-0.433 -1.801 0.319
-0.433 -1.746 0.1
-0.433 1.709 -0.006
-0.433 1.777 0.209
[...]
CELL_DATA 1958
SCALARS cell_data_0 double
LOOKUP_TABLE default
3.16836649651e-09
7.14830020534e-09
2.85624621863e-09
6.41213602157e-09
3.86476035315e-09
2.8748151813e-09
3.32785006199e-09
2.57125054495e-09
3.60501148036e-10
7.0931938887e-10
3.59087899136e-09
1.55107462038e-09
4.58864366935e-10
3.39035208101e-10
2.52477584797e-11
2.98359727823e-11
1.24106933278e-10
4.10003998653e-10
6.8316011869e-10
4.98471607815e-10
4.12581840748e-11
1.77600707802e-10
1.7761074252e-10
2.92424082799e-10
1.06346859629e-11
4.64837765795e-11
8.90919862979e-11
4.17187492374e-11
2.84008094346e-11
3.92448637629e-11
2.05831892527e-11
4.28462474754e-11
6.53583786807e-11
2.8183189643e-11
4.35178230767e-11
3.32959004773e-11
6.8918472685e-11
5.00812936549e-11
4.67078634985e-11
1.64195540418e-10
4.86798891456e-11
6.86561322627e-11
4.23943980035e-11
2.48974350506e-10
1.30982878006e-10
1.48432934089e-10
1.24411200707e-10
2.81238719061e-10
1.10083681403e-10
2.08385929351e-11
8.60096792005e-11
2.18492287975e-10
1.02672645105e-10
2.10014515626e-10
3.92429403525e-12
3.63128780777e-10
2.28920017723e-11
1.24249576455e-10
2.40194645122e-11
3.93717214797e-10
2.07317994882e-10
2.95204939268e-10
1.43926764716e-10
5.47109899456e-10
2.35624206617e-10
2.6649637801e-10
4.81411070121e-11
9.59410657686e-10
3.39016140285e-10
5.12516905781e-10
4.47033611823e-10
8.47193292333e-10
4.64492126314e-11
1.75987880989e-10
3.05775574002e-10
5.56332661776e-10
8.93905981716e-11
4.78849716664e-10
2.4512382137e-10
4.77841493685e-10
3.32807623683e-11
3.50081200664e-11
2.24149460237e-10
2.75453750706e-10
1.42515782975e-10
5.04352017542e-10
1.41917020642e-10
3.60091682991e-10
1.22523942753e-10
4.47400739569e-11
1.52405248119e-10
2.74268334581e-10
9.37243638016e-11
4.38546330168e-10
9.58590659552e-11
4.81601331671e-10
8.05821324736e-11
1.5371063753e-10
1.7834590296e-10
4.59006697504e-10
1.49370069857e-10
3.68486416445e-10
2.20975668098e-10
4.49742126724e-10
3.31703830576e-12
2.94746560272e-11
2.07462911906e-10
9.82265442017e-11
1.40487445796e-11
1.98351275984e-10
6.21042050222e-11
3.03056116706e-10
7.36666990033e-11
1.22106032769e-10
3.34587978121e-11
2.52183731757e-10
7.68039500165e-11
1.42472413208e-10
6.94730414135e-11
3.32511006498e-10
3.1327037088e-10
2.12981638516e-10
2.14494543195e-10
3.073533161e-10
2.75048843879e-10
4.62656275027e-11
1.26103885163e-10
2.41650685646e-10
1.88579625979e-10
1.14422606474e-10
1.44482382584e-10
2.69250578982e-10
9.65949790078e-11
7.07059117029e-11
2.69866225239e-11
2.41800624485e-10
1.0238043755e-10
8.467302058e-11
1.38348940785e-10
1.98800842728e-10
1.65365677463e-11
1.65601816006e-11
2.53866723984e-11
4.46790054537e-12
5.78415059032e-12
9.82384359241e-13
4.78960133731e-12
2.0725694296e-11
3.36551048896e-11
8.63804819363e-12
1.75065744805e-11
1.2757293971e-11
8.28316816635e-11
5.09060980806e-11
1.0783116443e-10
8.59013237684e-12
1.17597785737e-11
1.81242968966e-10
8.09165626399e-11
3.24301910853e-10
2.38381496472e-11
4.50209780298e-10
2.17665223491e-10
5.01268950827e-10
7.28276536515e-10
3.77967163304e-10
7.01951645065e-10
1.14605240701e-10
1.51226656357e-10
1.33997875109e-09
2.92116995523e-09
3.92836137288e-09
8.73554211711e-10
2.99819416068e-09
2.97611350736e-09
6.40650013801e-09
1.60106912131e-11
3.59360808441e-12
6.27754821328e-12
5.49365830708e-12
5.98373755035e-12
7.99746568726e-12
2.28316582288e-11
4.55432837948e-13
4.91713775457e-12
9.19204324859e-13
6.92407750116e-13
3.04283821585e-12
7.0551992582e-12
2.63109525508e-12
9.66652076772e-12
2.06106990442e-11
8.11381568489e-12
5.81451893976e-11
6.00967122038e-11
1.49087110129e-11
3.43797080017e-11
1.92128170567e-11
1.54281771835e-11
1.00220316906e-11
4.44352883231e-12
1.59058318785e-12
7.21627503668e-12
1.03795221356e-11
3.69269151682e-13
2.03580089637e-12
6.85598796095e-13
4.12096895854e-12
5.93302545744e-12
6.02422165745e-12
1.83042443965e-12
1.9269322691e-12
2.10712490829e-12
8.02001674963e-12
2.28728143779e-11
4.44862719399e-12
2.08089140671e-11
1.96426530058e-11
3.35104962285e-11
1.15658283367e-10
4.36129102161e-11
1.21553012353e-10
6.24967042786e-11
9.91618838445e-11
1.5293980423e-11
2.80876177281e-11
6.95323742082e-12
1.43878171993e-12
1.1597838098e-11
9.31404116497e-12
1.09692694998e-12
5.38902941542e-12
1.68763803411e-14
7.72911484073e-12
1.38866080348e-11
1.14488518115e-11
2.63402355499e-12
1.30673555039e-11
4.14980522433e-12
9.46702753798e-12
1.15816229765e-11
2.48574916195e-11
6.90242015155e-12
1.68107197236e-11
3.85237699859e-13
4.88069414434e-12
8.41548448633e-12
1.18898723293e-11
8.64244049399e-12
7.69451154093e-12
2.05156847169e-11
7.23240212815e-12
9.65571203633e-12
4.27075113583e-11
8.12153763318e-12
3.01356731101e-12
4.84173907167e-11
1.37851199071e-10
1.84173341424e-10
1.00373217108e-10
4.80638865106e-11
2.62786494235e-10
3.05800914999e-11
5.79584011645e-11
2.08838286513e-11
3.22021176372e-11
1.03881350036e-12
1.20672667948e-11
4.47719485813e-12
2.90579438137e-12
1.37830307768e-12
4.36306870712e-12
1.76380241423e-12
4.83576393591e-12
9.25515593712e-12
1.01239047026e-11
2.27744495989e-11
2.66742902697e-11
6.77204571148e-11
2.76402995106e-11
6.41374574489e-12
2.36411525031e-11
1.14392280618e-11
6.37528076253e-13
1.97861819116e-12
2.26318196135e-11
3.98966066485e-12
3.12407108644e-11
4.62624098281e-11
1.18595188772e-11
6.06618406662e-12
4.46385002544e-12
1.2961853396e-11
1.2066242378e-12
2.09829343182e-11
1.82209182477e-11
2.99320231833e-11
1.82243415139e-11
1.57019029102e-11
2.28444505803e-11
2.80375298605e-11
3.26258678195e-11
9.98240315587e-11
3.05633497002e-11
7.77274432212e-11
6.69878981122e-11
5.87112473763e-11
2.71308303191e-12
6.38339108908e-12
3.14719377741e-12
3.88171029705e-12
6.33161337941e-12
4.65203867059e-12
3.13811500027e-12
3.75084140423e-12
1.22869709028e-12
1.7190505903e-13
1.35018461226e-12
8.49792371269e-12
6.53558070765e-12
1.7663472462e-11
2.63378279467e-11
1.93852523551e-11
1.64415529823e-11
1.40838155272e-11
3.35069588831e-11
7.71691978668e-11
6.06164109353e-14
4.16660668833e-12
2.06781372827e-12
8.00775155572e-12
8.6238258541e-12
1.07522958501e-11
7.91879509816e-12
1.84437825848e-11
1.12683964722e-11
2.26535671489e-11
1.18482194956e-11
2.38115299884e-11
3.8490217964e-11
1.16581410118e-11
1.48110297711e-11
1.63594568877e-11
5.94524874693e-12
1.09997387827e-11
1.43347096585e-11
1.37783704916e-11
1.73688322917e-11
9.5827313746e-12
3.56312521579e-11
6.43316861079e-13
5.58228047055e-11
2.40757342541e-11
6.94511661866e-12
1.03846232462e-11
1.05881271747e-11
1.61339584199e-11
1.06912131156e-13
4.42871031623e-12
3.48059709911e-12
3.59882666872e-12
5.20801872841e-12
6.8908279637e-13
5.52032285804e-12
1.56985737599e-12
2.72514883134e-12
5.87341567293e-12
4.61858768392e-12
4.0429034305e-12
3.25839244516e-12
1.70307210081e-11
1.64282828432e-11
2.20555983654e-11
1.66691583272e-11
2.48284673775e-11
1.72090790923e-11
6.32641249139e-12
1.03963307491e-11
1.02177725497e-11
1.39590309821e-11
1.38047574722e-11
8.38490383077e-14
2.15015637081e-12
8.92249823846e-12
2.77863013847e-12
9.59463289044e-12
8.82525902201e-12
2.30951471085e-11
1.06840586757e-11
1.51075192737e-11
1.57099948195e-11
1.96105607634e-12
3.80124463807e-12
1.28739829683e-11
1.19453486697e-11
1.01777540482e-11
9.45117166554e-12
5.58643280197e-13
2.73444585404e-12
6.50007226083e-12
2.06476658884e-11
3.19249698454e-11
1.72748795343e-11
2.07163659636e-11
2.3347396221e-11
1.89856571651e-11
2.358676272e-11
8.61362123012e-12
1.9021565841e-12
4.25327463179e-12
1.03510076419e-12
2.929953588e-12
6.22165369808e-12
7.06814451832e-12
2.51317114736e-12
1.67390445345e-12
2.0077403318e-12
3.41254198367e-12
1.18437399475e-12
2.88558370911e-12
2.65018778266e-13
5.37235705458e-12
6.24281238056e-12
7.05849561222e-12
4.60432028751e-12
7.14796514681e-13
2.60083929131e-11
7.60852192724e-12
6.96054550822e-12
2.66400036536e-12
1.18136147746e-11
8.19893223299e-12
3.38863510642e-11
2.8249348287e-11
3.47450789927e-12
8.79516022855e-12
8.72274136995e-12
1.80675981067e-12
1.18123989402e-12
1.43324019151e-11
3.59659761746e-12
7.18459568882e-12
8.06302108421e-13
1.41900542597e-11
8.14909752258e-13
6.94092656091e-12
4.50839544766e-12
1.75624530911e-12
6.59959041346e-12
4.44385714575e-12
1.41040233069e-11
2.57343833547e-11
6.38463964801e-12
2.32560088904e-12
1.23669227902e-11
9.67003507408e-13
4.91228558239e-12
5.16858153796e-12
4.13969237091e-11
1.04495376283e-10
1.13647202712e-10
1.55568268508e-11
1.50886515346e-11
5.84972888667e-12
5.60406989302e-12
2.74317355976e-12
8.36048049381e-12
1.16856511786e-12
4.88539756101e-12
5.58022977099e-12
2.51427066399e-14
1.79811196218e-12
2.85557606754e-13
1.58874316059e-12
2.22298414842e-12
7.77807500265e-13
2.0330935569e-12
3.5997975344e-12
1.03366955309e-12
3.33371250217e-13
3.8262755792e-12
1.96680215002e-12
5.2930930092e-12
1.11449036372e-12
1.42695736856e-11
8.02694241412e-12
4.46465361559e-12
1.73781735227e-11
9.36968107938e-12
1.84679552081e-11
1.22282609975e-11
2.54553656671e-11
3.8651059444e-12
8.93953104887e-12
1.06702728254e-12
1.36895655856e-11
2.04808528427e-11
4.26090754168e-12
2.62234196074e-12
2.87277346877e-12
1.59212777253e-12
1.05992131293e-11
4.19606551244e-12
5.61114188152e-12
6.99507616345e-13
3.99770113979e-12
7.86544848626e-12
2.99049236172e-13
4.46556322135e-12
6.49131489167e-12
7.9638791328e-12
1.70192552978e-12
1.15618198529e-11
1.74226787581e-12
1.16792702715e-12
1.13225388058e-11
1.13461040704e-11
3.55753852834e-12
2.06481359921e-11
2.42262587665e-11
6.47469694618e-12
3.85930129623e-12
2.42191047931e-12
1.19963908716e-12
3.31709599238e-12
2.24271385001e-13
3.23854249075e-12
1.15602872631e-12
9.74069534502e-13
6.97220936925e-13
1.80441471288e-12
4.92860500769e-13
3.6943989796e-13
2.19564968626e-12
3.19168157857e-13
1.85316618724e-12
2.26375615899e-12
3.94753568435e-12
1.6583746172e-12
8.34890953122e-13
1.76895139353e-13
5.48478401055e-12
1.9417723721e-12
1.44624300676e-12
5.18721830713e-12
1.96436696569e-12
3.03953557681e-12
1.3247961495e-11
3.77431284255e-12
9.76848199052e-12
5.62570998784e-12
2.84171202907e-12
8.64340696837e-12
1.53516417474e-11
1.15483797793e-11
3.77057509613e-11
2.76112699421e-11
2.63194737301e-12
4.8036879065e-12
3.9604485726e-12
4.98887893623e-12
1.21423018963e-14
2.60300945038e-12
2.05937198658e-12
1.59733304524e-12
4.3344305892e-12
4.03520384061e-13
1.76230397437e-12
2.52512814096e-13
4.36113393374e-12
6.5270077409e-12
2.48739658877e-12
5.53978539458e-12
4.15905683233e-12
1.03573657105e-11
4.59305138307e-13
5.20103699263e-12
3.96645283864e-12
8.65192255764e-12
3.30343550912e-12
1.50467001315e-12
2.66746254323e-12
1.06060087953e-12
4.49205707267e-12
2.38757386929e-12
3.57846137103e-12
4.91189981076e-12
1.60816314673e-13
3.05954988642e-12
2.79541783859e-13
2.44455603767e-13
1.46246726914e-12
8.68789800068e-14
1.26086932155e-12
2.2294977551e-12
8.13110787474e-13
9.63613269178e-13
6.10237821933e-13
3.37533419137e-12
4.18147305125e-13
1.37506360365e-12
1.33177674278e-12
3.15381537114e-12
5.11124848564e-12
1.62471600236e-14
5.1590731463e-13
1.00029094951e-12
1.80123931436e-12
3.3278126437e-12
7.63068280487e-12
3.76886423143e-14
3.66342079684e-12
5.39778256589e-12
3.96328806684e-12
1.02667406826e-11
1.13740097359e-11
1.54500685894e-11
6.68286918484e-12
1.41059375219e-11
3.36833681768e-12
7.88684930906e-12
2.49770722733e-13
6.84153806856e-13
7.7303706219e-15
7.68375738144e-13
1.14674434385e-12
1.80400794679e-12
3.89163333931e-12
1.1253754745e-12
1.18788630044e-12
5.01272094026e-14
4.63309309172e-12
7.92457607366e-12
1.49266001295e-11
4.75339865548e-12
2.74296414173e-13
3.55089448454e-12
5.44188057135e-13
7.03557744458e-13
1.48399125489e-11
1.97069071985e-11
3.03358437492e-11
5.96929880199e-12
1.58382474365e-12
1.58571267073e-12
1.36393561401e-12
4.28191502737e-13
2.01385964341e-12
1.41139961996e-13
1.78118885731e-12
4.66462479463e-13
1.56890074913e-12
1.11403423864e-12
4.83189010367e-12
6.16411638429e-13
2.4200912254e-12
2.26080624447e-13
3.87228179188e-12
3.93460380826e-13
3.80610519443e-12
1.05467895392e-12
5.56832363051e-12
3.3749232929e-13
2.09971549334e-12
1.38903111899e-14
3.61273260007e-12
3.26017894948e-12
2.049770629e-12
5.81180812831e-13
3.48251171709e-12
1.42177642041e-12
1.58986289959e-12
2.36414380526e-12
1.1585235088e-12
5.36655367866e-12
4.86796598237e-12
2.20486275982e-12
4.92710601342e-12
1.74743919436e-12
1.23091438497e-12
8.48007994226e-12
3.93913584649e-12
1.02283490319e-12
4.11226005185e-12
2.58015270327e-12
4.03581773859e-12
8.35653086739e-14
4.86591765979e-13
5.22426488938e-13
6.85062936927e-13
1.58669399759e-12
2.55310704322e-12
2.21951814697e-12
2.82417483243e-12
2.80173133632e-12
4.78669348838e-12
4.12962670953e-12
2.72078893858e-12
1.51442001165e-12
1.87453571093e-12
7.93651720866e-13
4.74775409757e-12
9.4496510266e-12
1.35648533315e-11
2.83536118175e-11
6.02003936195e-11
5.14648014985e-11
3.61806152135e-12
4.54459633956e-12
1.71544680867e-13
2.07133525039e-12
2.47406265771e-12
3.62060047481e-12
5.93940220423e-12
2.19689493663e-12
4.4437765431e-12
1.37226484124e-12
2.7688520637e-12
7.54779219631e-13
4.38753061548e-12
1.44727774538e-12
2.99591916047e-12
1.43133584784e-12
4.07677230488e-12
1.62464202144e-12
5.47188478709e-12
9.770975844e-13
4.71501815716e-12
2.2054940948e-12
3.53295116979e-12
1.79696453188e-13
3.10351458191e-12
5.78586027704e-13
5.07852654442e-12
2.64143366154e-13
2.22957120475e-12
1.09335810807e-12
2.39008720625e-12
7.91461047058e-13
1.17278980759e-12
1.98726221249e-12
2.19564234797e-12
1.73993171188e-12
8.65657766242e-13
2.72475630327e-12
2.05625084864e-12
2.54303883744e-12
1.18739641967e-12
2.51830254876e-14
1.51146831952e-12
9.83917525152e-13
2.45087409527e-12
7.75577202693e-14
4.11210162488e-13
1.43072166409e-13
2.38916647473e-12
9.90953592734e-13
4.35157271363e-13
8.83982489259e-13
1.63036623475e-12
2.01103971266e-12
1.0982875412e-12
9.10181457968e-13
6.94771172525e-14
3.42787411409e-13
1.78963629837e-12
1.31893643208e-11
6.19711996805e-12
2.40571926024e-11
5.25924556449e-11
2.93168274478e-11
2.74526868841e-12
7.99160280741e-12
2.52304153916e-13
4.43575146497e-13
1.79368818485e-12
7.06878249334e-13
9.30611606422e-13
2.61687263661e-12
8.55817051827e-14
1.44675784123e-12
1.50574976337e-12
4.1856393844e-12
3.75714828479e-13
2.93220573923e-12
3.52966024623e-12
1.23477627409e-12
1.10655201765e-12
5.6297536466e-12
2.56327282376e-13
5.1089074909e-12
3.5376141776e-12
1.82805272072e-12
5.0972463468e-12
3.03278943692e-12
2.81393282411e-12
3.23483591326e-13
5.99158323915e-12
1.0660785191e-12
3.91959753487e-14
6.32277342478e-12
2.61623403872e-12
3.40946038979e-12
7.75058919353e-12
1.60255714459e-12
1.52018193271e-13
2.83289360215e-12
8.73475531672e-13
1.00286546532e-12
4.56897636096e-12
6.84082129818e-12
3.87577749287e-12
3.6306091997e-12
6.34224570043e-12
5.23663317394e-12
4.03311769526e-12
4.07106595688e-12
5.61963027003e-12
2.56340806104e-13
3.67320528763e-13
1.95783484708e-12
1.00560889758e-12
1.25031242066e-13
2.92163190245e-12
4.29290419471e-13
1.03010931756e-12
3.12307026368e-12
3.13762958312e-13
1.65815957727e-15
8.59892970705e-13
8.39100872975e-12
5.41779904973e-12
4.98122026936e-11
4.937866516e-11
1.93689263252e-11
1.29753166049e-10
4.20760832714e-11
8.17775219508e-13
1.33000550624e-11
9.02505390307e-13
1.93261299129e-12
5.38348005421e-13
8.36491490506e-13
1.04624367375e-12
1.36378572775e-12
1.44323696315e-13
2.02121359663e-12
4.83824986021e-13
2.95555640093e-12
8.81643490718e-13
3.05659533509e-12
6.45495343932e-13
3.21250774757e-12
4.92030417242e-14
4.3071196711e-12
2.70250733611e-13
5.69972185351e-12
8.93598690031e-13
3.66024693455e-12
3.69642625754e-13
4.62041581892e-12
8.37819554939e-13
3.05108069021e-12
3.86926692899e-13
5.17545836041e-12
1.64009109799e-12
3.19405936581e-12
2.35757882057e-12
5.14055647218e-13
2.94231440163e-12
4.49763229622e-12
1.62326113769e-12
1.47449666022e-12
9.48884447489e-13
1.96176945612e-12
4.15403234335e-12
3.20750796807e-12
1.06972162056e-12
1.0830157962e-12
1.93689914072e-12
4.40797028662e-12
3.98488580278e-13
5.1694343687e-13
1.32174578156e-12
7.80953157206e-13
9.9091434091e-13
1.98730688761e-12
9.79972370197e-13
4.28147217077e-13
1.76621017777e-12
1.06648707578e-12
2.62605154493e-13
6.51578968186e-13
5.0130137311e-12
2.56132932799e-12
7.12892706194e-12
1.31741596371e-11
1.52772668743e-11
5.31121040582e-11
6.16402092466e-11
5.48845638797e-12
2.22603401555e-11
7.20521668272e-12
2.77692733476e-12
3.83758288305e-12
1.75752789881e-12
2.23452241587e-13
1.73106204988e-13
2.11740729241e-13
7.04935889383e-13
1.19306980226e-13
4.30067988398e-13
3.32743653588e-13
3.33022469432e-13
2.92595346253e-13
1.57429647085e-12
2.26620789871e-13
2.24786835477e-12
4.55039627731e-13
3.03863166134e-12
6.36925033966e-14
1.45059773287e-12
2.58601025247e-13
2.70225930334e-12
1.91961781125e-12
1.65016819442e-12
1.85699935971e-13
2.24710168933e-12
7.34797366326e-13
2.18722933922e-12
2.72994420844e-12
4.76947897478e-13
8.4373997566e-13
3.39422916898e-12
3.62684098995e-12
5.85839407892e-12
5.01224832852e-12
9.42864611684e-12
2.72549209722e-12
6.17907505779e-12
9.73145417606e-13
6.68260522556e-12
9.27509801266e-13
7.25655770078e-13
3.33463001732e-13
1.6583319415e-12
6.23520600455e-13
1.73407597714e-12
7.49728788991e-14
1.50864420769e-12
1.82111650432e-14
9.6193193391e-13
5.84858691515e-13
5.79366555415e-13
6.96485432755e-12
1.5118682945e-11
1.11512624768e-11
9.13254992839e-12
5.52530747659e-12
1.0231830468e-10
2.31180075662e-10
6.78938212522e-12
4.01326560086e-11
1.22036066183e-11
5.56902416345e-12
6.31421701412e-12
4.69323858493e-12
3.10489819767e-12
1.1249045946e-13
5.67467691201e-14
3.12408561844e-13
1.15621542328e-13
1.26232956306e-12
2.94823748688e-13
3.32975582969e-13
5.55097428285e-13
1.33066359211e-12
6.30055597379e-13
1.51685318301e-12
1.02918130675e-12
6.93026086616e-13
7.18350612332e-13
1.21481455143e-12
1.61330035684e-12
8.86488625022e-13
1.35585425286e-13
1.24078888147e-12
3.25445396672e-13
2.19520659287e-12
5.14047468185e-12
1.72858062732e-12
2.67881213094e-12
1.98076104618e-12
3.24799999838e-12
4.53666474257e-12
5.43189836446e-12
5.78596760034e-12
6.83691231066e-12
5.94760616836e-12
5.08181848571e-12
1.0248416846e-12
2.20031780676e-12
2.85289612137e-12
2.64372856821e-13
1.3791994391e-12
1.52182015838e-12
1.02206691706e-12
5.95235375985e-13
4.7147777431e-13
6.29067856002e-13
2.94865738445e-13
8.80478744249e-13
6.36042809061e-12
2.0468826574e-11
8.91619962676e-12
4.12195657702e-11
3.98881528827e-11
8.90377963787e-12
6.53704417515e-11
5.89423231208e-11
3.29077013152e-11
2.53814439302e-11
1.24398355827e-11
1.87125000142e-11
6.66274375499e-12
2.56040915484e-12
8.84850091107e-13
3.05249820198e-13
4.75875207785e-13
1.05520535001e-12
7.06046094636e-13
3.88788221022e-13
1.0314346325e-13
9.06377537366e-13
5.33183989844e-13
1.22389008053e-13
6.48202131921e-13
1.95276835294e-13
7.15211926009e-13
5.11193839825e-13
2.46100608687e-12
2.23588160187e-12
2.11839866559e-12
5.43896951917e-12
3.3250443845e-12
6.42395450887e-12
4.57434872951e-12
7.40517735171e-12
1.18183170414e-12
4.81050344799e-12
2.4007524992e-12
2.30662134847e-13
2.11816911752e-12
2.05081310977e-13
5.24863599603e-13
1.6994835846e-12
4.2539507365e-13
2.85484558345e-12
2.81025244375e-13
1.61971596886e-13
3.54513921472e-13
1.79426703772e-13
2.09976910693e-13
2.3801543468e-13
5.56079354668e-13
1.09477753959e-13
5.35728411104e-12
1.98550346751e-11
1.97768810852e-11
7.08417916403e-11
3.14866396675e-11
1.85190618877e-11
3.59509096962e-11
5.48775120333e-12
5.66636038002e-11
1.08720988771e-11
2.67542520814e-11
5.09278282713e-12
4.16694622283e-12
4.29631575786e-13
3.28157525855e-13
3.53837604455e-13
9.19550572375e-13
3.71346075725e-13
1.79832849987e-13
1.71887181685e-15
9.56877761774e-13
2.27135557508e-13
9.99549337564e-14
5.45343662739e-13
3.06241939548e-13
4.35206937499e-12
1.43413665284e-12
5.78093871585e-14
1.29500239393e-13
3.64420684387e-12
2.43670980041e-12
6.79098231474e-12
3.61005675825e-12
6.51873908091e-13
8.04600187487e-14
2.30910045777e-12
2.28423653206e-12
3.40225713868e-13
1.98357366102e-13
1.1543551344e-12
2.32294781757e-12
1.0066285838e-12
1.02641243628e-12
5.28847502034e-13
1.00063299315e-13
5.00051224278e-14
8.58023466095e-13