# vtk DataFile Version 3.0
File Name: Molecule/methanol/methanol_2.0-3.vtk
ASCII
DATASET UNSTRUCTURED_GRID
FIELD FieldData 1
TIME 1 1 double
0.0
POINTS 108 double
1.252 -0.666 -0.918
0.98 -1.317 -0.296
0.828 -1.2 -0.876
0.308 -1.642 -0.229
0.216 -1.496 -0.815
-0.438 -1.642 -0.155
-0.464 -1.496 -0.747
-1.11 -1.317 -0.088
-1.076 -1.2 -0.686
-1.576 -0.731 -0.042
-1.5 -0.666 -0.644
-1.742 0.0 -0.025
-1.651 0.0 -0.629
-1.576 0.731 -0.042
-1.5 0.666 -0.644
-1.11 1.317 -0.088
-1.076 1.2 -0.686
-0.438 1.642 -0.155
-0.464 1.496 -0.747
0.308 1.642 -0.229
0.216 1.496 -0.815
0.98 1.317 -0.296
0.828 1.2 -0.876
1.445 0.731 -0.342
1.252 0.666 -0.918
1.611 0.0 -0.359
1.403 0.0 -0.933
1.907 0.0 0.656
1.763 0.722 0.656
1.763 0.361 1.281
1.763 -0.361 1.281
1.763 -0.722 0.656
1.763 -0.361 0.03
1.763 0.361 0.03
1.354 1.123 1.377
1.354 0.554 1.87
1.354 -0.19 1.977
1.354 -0.874 1.664
1.354 -1.281 1.032
1.354 -1.281 0.28
1.354 1.335 0.656
0.741 1.571 1.412
0.741 1.087 2.019
0.741 0.388 2.356
0.741 -0.388 2.356
0.741 -1.087 2.019
0.741 -1.571 1.412
0.741 -1.744 0.656
0.741 1.744 0.656
0.019 1.744 1.378
0.019 1.335 1.99
0.019 0.722 2.399
0.019 -0.0 2.543
0.019 -0.722 2.399
0.019 -1.335 1.99
0.019 -1.744 1.378
0.019 -1.888 0.656
0.019 1.888 0.656
-0.703 1.744 0.656
-0.703 1.571 1.412
-0.703 1.087 2.019
-0.703 0.388 2.356
-0.703 -0.388 2.356
-0.703 -1.087 2.019
-0.703 -1.571 1.412
-0.703 -1.744 0.656
-1.316 1.335 0.656
-1.316 1.123 1.377
-1.316 0.554 1.87
-1.316 -0.19 1.977
-1.316 -0.874 1.664
-1.316 -1.281 1.032
-1.725 0.722 0.656
-1.725 0.361 1.281
-1.725 -0.361 1.281
-1.725 -0.722 0.656
-1.868 0.0 0.656
1.445 -0.731 -0.342
0.648 -0.871 -1.742
-0.12 -1.149 -1.755
-0.12 -0.544 -2.172
0.648 -0.189 -2.053
-0.12 0.185 -2.261
0.648 0.552 -1.946
-0.12 0.872 -2.0
0.648 1.118 -1.456
-0.12 1.359 -1.451
-0.887 -1.276 -1.112
-0.887 -0.871 -1.742
-0.887 -0.189 -2.053
-0.887 0.552 -1.946
-0.887 1.118 -1.456
-1.449 -0.384 -1.402
-1.449 0.384 -1.402
1.21 0.384 -1.402
1.21 -0.384 -1.402
0.929 0.0975 -1.7275
0.929 0.468 -1.674
0.648 0.1815 -1.9995
0.929 -0.6275 -1.572
0.929 -0.2865 -1.7275
0.648 -0.53 -1.8975
1.424 -0.3655 -0.6375
1.3275 -0.333 -0.9255
1.3485 -0.6985 -0.63
0.95 0.892 -1.187
0.929 0.751 -1.429
1.231 0.525 -1.16

CELLS 212 848
3 0 1 2
3 1 3 2
3 2 3 4
3 3 5 4
3 4 5 6
3 5 7 6
3 6 7 8
3 7 9 8
3 8 9 10
3 9 11 10
3 10 11 12
3 11 13 12
3 12 13 14
3 13 15 14
3 14 15 16
3 15 17 16
3 16 17 18
3 17 19 18
3 18 19 20
3 19 21 20
3 20 21 22
3 21 23 22
3 22 23 24
3 23 25 24
3 24 25 26
3 27 28 29
3 27 29 30
3 27 30 31
3 27 31 32
3 27 32 33
3 27 33 28
3 29 28 34
3 29 34 35
3 29 35 36
3 30 29 36
3 30 36 37
3 30 37 38
3 31 30 38
3 31 38 39
3 32 31 39
3 28 40 34
3 34 40 41
3 34 41 42
3 35 34 42
3 35 42 43
3 36 35 43
3 36 43 44
3 37 36 44
3 37 44 45
3 37 45 46
3 38 37 46
3 38 46 47
3 39 38 47
3 40 48 41
3 41 48 49
3 41 49 50
3 42 41 50
3 42 50 51
3 43 42 51
3 43 51 52
3 44 43 52
3 44 52 53
3 45 44 53
3 45 53 54
3 46 45 54
3 46 54 55
3 47 46 55
3 47 55 56
3 48 57 49
3 49 57 58
3 49 58 59
3 50 49 59
3 50 59 60
3 51 50 60
3 51 60 61
3 52 51 61
3 52 61 62
3 53 52 62
3 53 62 63
3 54 53 63
3 54 63 64
3 55 54 64
3 55 64 65
3 56 55 65
3 59 58 66
3 59 66 67
3 60 59 67
3 60 67 68
3 61 60 68
3 61 68 69
3 62 61 69
3 62 69 70
3 63 62 70
3 64 63 70
3 64 70 71
3 65 64 71
3 67 66 72
3 67 72 73
3 68 67 73
3 69 68 73
3 69 73 74
3 70 69 74
3 71 70 74
3 71 74 75
3 73 72 76
3 74 73 76
3 75 74 76
3 75 76 11
3 75 11 9
3 75 9 7
3 75 7 71
3 71 7 65
3 65 7 5
3 65 5 56
3 56 5 3
3 56 3 47
3 47 3 1
3 47 1 39
3 39 1 77
3 39 77 32
3 32 77 25
3 32 25 33
3 33 25 23
3 33 23 28
3 28 23 40
3 40 23 21
3 40 21 48
3 48 21 19
3 48 19 57
3 57 19 17
3 57 17 58
3 58 17 15
3 58 15 66
3 66 15 13
3 66 13 72
3 72 13 11
3 72 11 76
3 78 79 80
3 81 80 82
3 83 82 84
3 85 83 84
3 85 84 86
3 79 87 88
3 80 79 88
3 80 88 89
3 82 80 89
3 82 89 90
3 84 82 90
3 84 90 91
3 86 84 91
3 88 87 92
3 89 88 92
3 89 92 93
3 90 89 93
3 91 90 93
3 91 93 14
3 91 14 16
3 91 16 18
3 91 18 86
3 86 18 20
3 86 20 85
3 85 20 22
3 94 26 95
3 78 0 2
3 78 2 4
3 78 4 79
3 79 4 6
3 79 6 87
3 87 6 8
3 87 8 10
3 87 10 92
3 92 10 12
3 92 12 93
3 93 12 14
3 95 96 94
3 94 96 97
3 96 98 97
3 96 81 98
3 97 98 83
3 97 83 85
3 83 98 82
3 98 81 82
3 95 99 100
3 99 101 100
3 99 78 101
3 100 101 81
3 81 101 80
3 101 78 80
3 78 99 0
3 0 99 95
3 95 100 96
3 96 100 81
3 77 102 25
3 25 102 26
3 26 102 103
3 102 104 103
3 102 77 104
3 103 104 0
3 0 104 1
3 1 104 77
3 24 105 22
3 22 105 85
3 85 105 106
3 105 107 106
3 105 24 107
3 106 107 94
3 94 107 26
3 107 24 26
3 26 103 95
3 95 103 0
3 85 106 97
3 97 106 94

CELL_TYPES 212
5
5
5
5
5
5
5
5
5
5
5
5
5
5
5
5
5
5
5
5
5
5
5
5
5
5
5
5
5
5
5
5
5
5
5
5
5
5
5
5
5
5
5
5
5
5
5
5
5
5
5
5
5
5
5
5
5
5
5
5
5
5
5
5
5
5
5
5
5
5
5
5
5
5
5
5
5
5
5
5
5
5
5
5
5
5
5
5
5
5
5
5
5
5
5
5
5
5
5
5
5
5
5
5
5
5
5
5
5
5
5
5
5
5
5
5
5
5
5
5
5
5
5
5
5
5
5
5
5
5
5
5
5
5
5
5
5
5
5
5
5
5
5
5
5
5
5
5
5
5
5
5
5
5
5
5
5
5
5
5
5
5
5
5
5
5
5
5
5
5
5
5
5
5
5
5
5
5
5
5
5
5
5
5
5
5
5
5
5
5
5
5
5
5
5
5
5
5
5
5
5
5
5
5
5
5
5
5
5
5
5
5

CELL_DATA 212
SCALARS cell_data_0 double
LOOKUP_TABLE default
1.08973044741e-06
6.40057342583e-08
3.59278712044e-08
9.00400329164e-08
1.29847528422e-07
9.06162259636e-09
1.65386959304e-07
5.96609645615e-08
1.40350491991e-07
9.69143184992e-08
1.18230333607e-07
1.46116635573e-07
1.30835588686e-07
1.72537386081e-07
3.54904857087e-08
1.98045977343e-07
3.77080638006e-08
2.40538350219e-07
5.50795705565e-08
2.60408213703e-07
2.33867670642e-07
1.2400815635e-07
1.53838714654e-07
5.4246705149e-08
2.65693257246e-06
1.84313679776e-11
6.41836600534e-10
9.22332426187e-10
1.3746652371e-09
1.30133453491e-08
1.79523411645e-09
1.86711217722e-09
2.12277262612e-09
1.63263931025e-10
1.91107812467e-09
4.28909062671e-09
7.73488681869e-10
7.03012017843e-09
2.78901018603e-09
2.52544582454e-11
5.67587391851e-10
4.09183819895e-10
1.23823337034e-09
1.22748652082e-09
1.28024674522e-09
6.86608154704e-10
1.14452226433e-09
9.60920202248e-10
3.38318406634e-10
6.12467818037e-10
3.41145818779e-09
2.18933953105e-09
4.90086390735e-10
9.4518065501e-10
6.49307921464e-10
3.61313767714e-09
1.28213183892e-10
1.72085679579e-09
5.53965462207e-10
1.14880160678e-09
1.02075078223e-10
1.14864422678e-09
6.94843866739e-10
1.57201821254e-09
4.90874650552e-10
4.33545554687e-09
2.60970268092e-09
5.15817150477e-10
4.66040443447e-10
4.31109680603e-09
2.22289683516e-09
5.29858841023e-09
1.4320145532e-11
2.01227748482e-09
1.09215943907e-10
7.2768913163e-10
3.37910491394e-10
4.11305241567e-10
1.28594085956e-10
1.24655146898e-09
6.55535240277e-10
6.30564760783e-09
2.31400628465e-10
2.16947354368e-09
1.2359440582e-08
2.22048436129e-10
5.82804396844e-09
2.12163230104e-09
1.25059409723e-09
1.99349642858e-09
1.32385534485e-09
2.71304175184e-09
3.49562045829e-09
1.34723184634e-09
1.63610530987e-09
2.00374351088e-09
1.32078624074e-08
1.23426377122e-09
3.71485170095e-09
2.55422987562e-10
1.35093715354e-08
8.56237810928e-09
6.30734857953e-09
2.19889099587e-09
1.0810228168e-08
7.98070509603e-09
8.91291505043e-09
4.99575258629e-08
2.15510060516e-07
1.62321534794e-07
2.37515374803e-07
8.99375390893e-08
1.97811515475e-07
1.01032124917e-07
1.38493084345e-07
1.0079606696e-07
1.1940511569e-07
6.76905617219e-08
8.6329110352e-08
2.87411078595e-08
8.33548872079e-09
8.29705481558e-09
5.2812774084e-09
2.31633024431e-08
3.39424837614e-09
6.0983025429e-08
1.40301621259e-08
6.02917155704e-08
5.54754810116e-09
1.65227628595e-07
1.82937887529e-08
2.02001945815e-07
2.85815186666e-08
1.92774893788e-07
3.85091976863e-08
1.8149423544e-07
5.12828537394e-08
7.33497670619e-07
9.00056337837e-07
1.0079116907e-06
1.02884407127e-06
3.26314818403e-07
9.05387224374e-08
6.28334501281e-08
7.224288011e-08
4.08828507157e-08
1.16230141158e-07
8.58623713687e-08
6.35484686557e-08
1.34660333303e-08
5.63068109384e-08
4.75721932428e-08
6.61336483832e-09
1.78413814471e-08
6.82771403157e-08
2.63401927792e-08
3.97117983273e-08
1.18897815475e-08
1.67817766659e-08
5.58088411282e-08
1.2483103045e-07
5.82461688823e-08
9.21404420825e-08
1.64775122272e-06
2.13773669632e-07
1.34611052657e-06
4.11489462221e-08
2.03966390322e-08
4.86301732958e-08
6.10051713186e-09
8.24405579187e-08
1.45604898008e-08
5.36246241743e-08
1.23157566942e-08
2.89296771192e-07
2.23234734402e-09
7.40872389696e-07
2.13363073347e-06
2.96813718526e-07
6.91133072126e-07
3.47310003169e-07
2.72048941288e-07
7.30226319055e-07
5.94946143444e-07
3.39541232812e-07
6.61131596977e-07
4.27730776843e-07
6.74915021435e-08
3.6836633074e-07
3.48027664077e-07
4.13004322314e-07
7.41734663586e-07
1.05310402663e-07
3.68752434379e-07
7.21688384294e-08
3.60401264177e-07
1.63722112238e-08
2.93350509974e-07
3.07437002039e-07
6.36906853518e-08
7.98154729491e-08
5.33897630602e-08
2.08402217819e-07
1.21823088414e-07
9.76365522143e-09
5.71367549581e-07
2.60076784007e-07
1.06106914357e-06
4.37196662852e-07
9.06641915466e-07
3.72804656219e-07
9.4116322018e-07

