# vtk DataFile Version 3.0
File Name: Molecule/methanol/methanol_2.0-test-1.vtk
ASCII
DATASET UNSTRUCTURED_GRID
FIELD FieldData 1
TIME 1 1 double
0.0
POINTS 378 double
1.611 0.0 -0.359
1.528 -0.3655 -0.3505
1.507 0.0 -0.646
1.424 -0.3655 -0.6375
1.445 -0.731 -0.342
1.403 0.0 -0.933
1.3275 -0.333 -0.9255
1.3485 -0.6985 -0.63
1.252 -0.666 -0.918
1.2125 -1.024 -0.319
1.116 -0.9915 -0.607
0.98 -1.317 -0.296
1.04 -0.933 -0.897
0.904 -1.2585 -0.586
0.828 -1.2 -0.876
0.644 -1.4795 -0.2625
0.568 -1.421 -0.5525
0.308 -1.642 -0.229
0.522 -1.348 -0.8455
0.262 -1.569 -0.522
0.216 -1.496 -0.815
-0.065 -1.642 -0.192
-0.111 -1.569 -0.485
-0.438 -1.642 -0.155
-0.124 -1.496 -0.781
-0.451 -1.569 -0.451
-0.464 -1.496 -0.747
-0.774 -1.4795 -0.1215
-0.787 -1.4065 -0.4175
-1.11 -1.317 -0.088
-0.77 -1.348 -0.7165
-1.093 -1.2585 -0.387
-1.076 -1.2 -0.686
-1.343 -1.024 -0.065
-1.326 -0.9655 -0.364
-1.576 -0.731 -0.042
-1.288 -0.933 -0.665
-1.538 -0.6985 -0.343
-1.5 -0.666 -0.644
-1.659 -0.3655 -0.0335
-1.621 -0.333 -0.3345
-1.742 0.0 -0.025
-1.5755 -0.333 -0.6365
-1.6965 0.0 -0.327
-1.651 0.0 -0.629
-1.659 0.3655 -0.0335
-1.6135 0.3655 -0.3355
-1.576 0.731 -0.042
-1.5755 0.333 -0.6365
-1.538 0.6985 -0.343
-1.5 0.666 -0.644
-1.343 1.024 -0.065
-1.305 0.9915 -0.366
-1.11 1.317 -0.088
-1.288 0.933 -0.665
-1.093 1.2585 -0.387
-1.076 1.2 -0.686
-0.774 1.4795 -0.1215
-0.757 1.421 -0.4205
-0.438 1.642 -0.155
-0.77 1.348 -0.7165
-0.451 1.569 -0.451
-0.464 1.496 -0.747
-0.065 1.642 -0.192
-0.078 1.569 -0.488
0.308 1.642 -0.229
-0.124 1.496 -0.781
0.262 1.569 -0.522
0.216 1.496 -0.815
0.644 1.4795 -0.2625
0.598 1.4065 -0.5555
0.98 1.317 -0.296
0.522 1.348 -0.8455
0.904 1.2585 -0.586
0.828 1.2 -0.876
1.2125 1.024 -0.319
1.1365 0.9655 -0.609
1.445 0.731 -0.342
1.04 0.933 -0.897
1.3485 0.6985 -0.63
1.252 0.666 -0.918
1.528 0.3655 -0.3505
1.4315 0.333 -0.6385
1.3275 0.333 -0.9255
1.907 0.0 0.656
1.835 0.361 0.656
1.835 0.1805 0.9685
1.763 0.5415 0.9685
1.763 0.722 0.656
1.763 0.361 1.281
1.835 -0.1805 0.9685
1.763 0.0 1.281
1.763 -0.361 1.281
1.835 -0.361 0.656
1.763 -0.5415 0.9685
1.763 -0.722 0.656
1.835 -0.1805 0.343
1.763 -0.5415 0.343
1.763 -0.361 0.03
1.835 0.1805 0.343
1.763 0.0 0.03
1.763 0.361 0.03
1.763 0.5415 0.343
1.5585 0.742 1.329
1.5585 0.9225 1.0165
1.354 1.123 1.377
1.5585 0.4575 1.5755
1.354 0.8385 1.6235
1.354 0.554 1.87
1.5585 0.0855 1.629
1.354 0.182 1.9235
1.354 -0.19 1.977
1.5585 -0.2755 1.629
1.5585 -0.6175 1.4725
1.354 -0.532 1.8205
1.354 -0.874 1.664
1.5585 -0.821 1.1565
1.354 -1.0775 1.348
1.354 -1.281 1.032
1.5585 -1.0015 0.844
1.5585 -1.0015 0.468
1.354 -1.281 0.656
1.354 -1.281 0.28
1.5585 -0.821 0.155
1.5585 1.0285 0.656
1.354 1.229 1.0165
1.354 1.335 0.656
1.0475 1.347 1.3945
1.0475 1.453 1.034
0.741 1.571 1.412
1.0475 1.105 1.698
0.741 1.329 1.7155
0.741 1.087 2.019
1.0475 0.8205 1.9445
1.0475 0.471 2.113
0.741 0.7375 2.1875
0.741 0.388 2.356
1.0475 0.099 2.1665
1.0475 -0.289 2.1665
0.741 0.0 2.356
0.741 -0.388 2.356
1.0475 -0.631 2.01
1.0475 -0.9805 1.8415
0.741 -0.7375 2.1875
0.741 -1.087 2.019
1.0475 -1.2225 1.538
0.741 -1.329 1.7155
0.741 -1.571 1.412
1.0475 -1.426 1.222
1.0475 -1.5125 0.844
0.741 -1.6575 1.034
0.741 -1.744 0.656
1.0475 -1.5125 0.468
1.0475 1.5395 0.656
0.741 1.6575 1.034
0.741 1.744 0.656
0.38 1.6575 1.395
0.38 1.744 1.017
0.019 1.744 1.378
0.38 1.453 1.701
0.019 1.5395 1.684
0.019 1.335 1.99
0.38 1.211 2.0045
0.38 0.9045 2.209
0.019 1.0285 2.1945
0.019 0.722 2.399
0.38 0.555 2.3775
0.38 0.194 2.4495
0.019 0.361 2.471
0.019 -0.0 2.543
0.38 -0.194 2.4495
0.38 -0.555 2.3775
0.019 -0.361 2.471
0.019 -0.722 2.399
0.38 -0.9045 2.209
0.38 -1.211 2.0045
0.019 -1.0285 2.1945
0.019 -1.335 1.99
0.38 -1.453 1.701
0.38 -1.6575 1.395
0.019 -1.5395 1.684
0.019 -1.744 1.378
0.38 -1.744 1.017
0.38 -1.816 0.656
0.019 -1.816 1.017
0.019 -1.888 0.656
0.38 1.816 0.656
0.019 1.816 1.017
0.019 1.888 0.656
-0.342 1.744 1.017
-0.342 1.816 0.656
-0.703 1.744 0.656
-0.342 1.6575 1.395
-0.703 1.6575 1.034
-0.703 1.571 1.412
-0.342 1.453 1.701
-0.342 1.211 2.0045
-0.703 1.329 1.7155
-0.703 1.087 2.019
-0.342 0.9045 2.209
-0.342 0.555 2.3775
-0.703 0.7375 2.1875
-0.703 0.388 2.356
-0.342 0.194 2.4495
-0.342 -0.194 2.4495
-0.703 0.0 2.356
-0.703 -0.388 2.356
-0.342 -0.555 2.3775
-0.342 -0.9045 2.209
-0.703 -0.7375 2.1875
-0.703 -1.087 2.019
-0.342 -1.211 2.0045
-0.342 -1.453 1.701
-0.703 -1.329 1.7155
-0.703 -1.571 1.412
-0.342 -1.6575 1.395
-0.342 -1.744 1.017
-0.703 -1.6575 1.034
-0.703 -1.744 0.656
-0.342 -1.816 0.656
-1.0095 1.453 1.034
-1.0095 1.5395 0.656
-1.316 1.335 0.656
-1.0095 1.347 1.3945
-1.316 1.229 1.0165
-1.316 1.123 1.377
-1.0095 1.105 1.698
-1.0095 0.8205 1.9445
-1.316 0.8385 1.6235
-1.316 0.554 1.87
-1.0095 0.471 2.113
-1.0095 0.099 2.1665
-1.316 0.182 1.9235
-1.316 -0.19 1.977
-1.0095 -0.289 2.1665
-1.0095 -0.631 2.01
-1.316 -0.532 1.8205
-1.316 -0.874 1.664
-1.0095 -0.9805 1.8415
-1.0095 -1.2225 1.538
-1.0095 -1.426 1.222
-1.316 -1.0775 1.348
-1.316 -1.281 1.032
-1.0095 -1.5125 0.844
-1.5205 0.9225 1.0165
-1.5205 1.0285 0.656
-1.725 0.722 0.656
-1.5205 0.742 1.329
-1.725 0.5415 0.9685
-1.725 0.361 1.281
-1.5205 0.4575 1.5755
-1.5205 0.0855 1.629
-1.5205 -0.2755 1.629
-1.725 0.0 1.281
-1.725 -0.361 1.281
-1.5205 -0.6175 1.4725
-1.5205 -0.821 1.1565
-1.5205 -1.0015 0.844
-1.725 -0.5415 0.9685
-1.725 -0.722 0.656
-1.7965 0.1805 0.9685
-1.7965 0.361 0.656
-1.868 0.0 0.656
-1.7965 -0.1805 0.9685
-1.7965 -0.361 0.656
-1.7335 -0.361 0.3155
-1.805 0.0 0.3155
-1.6505 -0.7265 0.307
-1.4175 -1.0195 0.284
-1.213 -1.299 0.472
-0.9065 -1.5305 0.284
-0.5705 -1.693 0.2505
-0.2095 -1.765 0.2505
0.1635 -1.765 0.2135
0.5245 -1.693 0.2135
0.8605 -1.5305 0.18
1.167 -1.299 -0.008
1.3995 -1.006 -0.031
1.604 -0.546 -0.156
1.687 -0.1805 -0.1645
1.687 0.1805 -0.1645
1.604 0.546 -0.156
1.604 0.7265 0.157
1.3995 1.033 0.157
1.167 1.326 0.18
0.8605 1.5305 0.18
0.5245 1.693 0.2135
0.1635 1.765 0.2135
-0.2095 1.765 0.2505
-0.5705 1.693 0.2505
-0.9065 1.5305 0.284
-1.213 1.326 0.284
-1.446 1.033 0.307
-1.6505 0.7265 0.307
-1.7335 0.361 0.3155
1.21 -0.384 -1.402
0.929 -0.6275 -1.572
0.929 -0.2865 -1.7275
0.648 -0.53 -1.8975
0.648 -0.871 -1.742
0.648 -0.189 -2.053
1.21 0.384 -1.402
1.21 0.0 -1.402
0.929 0.0975 -1.7275
0.929 0.468 -1.674
0.648 0.1815 -1.9995
0.648 0.552 -1.946
0.929 0.751 -1.429
0.648 0.835 -1.701
0.648 1.118 -1.456
0.264 -1.01 -1.7485
0.264 -0.7075 -1.957
-0.12 -0.8465 -1.9635
-0.12 -1.149 -1.755
-0.12 -0.544 -2.172
0.264 -0.3665 -2.1125
0.264 -0.002 -2.157
-0.12 -0.1795 -2.2165
-0.12 0.185 -2.261
0.264 0.3685 -2.1035
0.264 0.712 -1.973
-0.12 0.5285 -2.1305
-0.12 0.872 -2.0
0.264 0.995 -1.728
0.264 1.2385 -1.4535
-0.12 1.1155 -1.7255
-0.12 1.359 -1.451
-0.5035 -1.2125 -1.4335
-0.5035 -1.01 -1.7485
-0.887 -1.0735 -1.427
-0.887 -1.276 -1.112
-0.887 -0.871 -1.742
-0.5035 -0.7075 -1.957
-0.5035 -0.3665 -2.1125
-0.887 -0.53 -1.8975
-0.887 -0.189 -2.053
-0.5035 -0.002 -2.157
-0.5035 0.3685 -2.1035
-0.887 0.1815 -1.9995
-0.887 0.552 -1.946
-0.5035 0.712 -1.973
-0.5035 0.995 -1.728
-0.887 0.835 -1.701
-0.887 1.118 -1.456
-0.5035 1.2385 -1.4535
-1.168 -0.6275 -1.572
-1.168 -0.83 -1.257
-1.449 -0.384 -1.402
-1.168 -0.2865 -1.7275
-1.168 0.0975 -1.7275
-1.449 0.0 -1.402
-1.449 0.384 -1.402
-1.168 0.468 -1.674
-1.168 0.751 -1.429
-1.1935 0.892 -1.05
-1.4745 0.525 -1.023
-0.9815 1.159 -1.071
-0.6755 1.307 -1.1015
-0.292 1.4275 -1.099
0.048 1.4275 -1.133
0.432 1.307 -1.1355
0.738 1.159 -1.166
0.95 0.892 -1.187
1.231 0.525 -1.16
1.3065 0.192 -1.1675
1.3065 -0.192 -1.1675
1.231 -0.525 -1.16
0.95 -0.7685 -1.33
0.738 -1.0355 -1.309
0.432 -1.1835 -1.2785
0.048 -1.3225 -1.285
-0.292 -1.3225 -1.251
-0.6755 -1.386 -0.9295
-0.9815 -1.238 -0.899
-1.1935 -0.971 -0.878
-1.4745 -0.525 -1.023
-1.55 -0.192 -1.0155
-1.55 0.192 -1.0155

CELLS 752 3008
3 0 1 2
3 1 3 2
3 1 4 3
3 2 3 5
3 5 3 6
3 3 7 6
3 3 4 7
3 6 7 8
3 4 9 7
3 9 10 7
3 9 11 10
3 7 10 8
3 8 10 12
3 10 13 12
3 10 11 13
3 12 13 14
3 11 15 13
3 15 16 13
3 15 17 16
3 13 16 14
3 14 16 18
3 16 19 18
3 16 17 19
3 18 19 20
3 17 21 19
3 21 22 19
3 21 23 22
3 19 22 20
3 20 22 24
3 22 25 24
3 22 23 25
3 24 25 26
3 23 27 25
3 27 28 25
3 27 29 28
3 25 28 26
3 26 28 30
3 28 31 30
3 28 29 31
3 30 31 32
3 29 33 31
3 33 34 31
3 33 35 34
3 31 34 32
3 32 34 36
3 34 37 36
3 34 35 37
3 36 37 38
3 35 39 37
3 39 40 37
3 39 41 40
3 37 40 38
3 38 40 42
3 40 43 42
3 40 41 43
3 42 43 44
3 41 45 43
3 45 46 43
3 45 47 46
3 43 46 44
3 44 46 48
3 46 49 48
3 46 47 49
3 48 49 50
3 47 51 49
3 51 52 49
3 51 53 52
3 49 52 50
3 50 52 54
3 52 55 54
3 52 53 55
3 54 55 56
3 53 57 55
3 57 58 55
3 57 59 58
3 55 58 56
3 56 58 60
3 58 61 60
3 58 59 61
3 60 61 62
3 59 63 61
3 63 64 61
3 63 65 64
3 61 64 62
3 62 64 66
3 64 67 66
3 64 65 67
3 66 67 68
3 65 69 67
3 69 70 67
3 69 71 70
3 67 70 68
3 68 70 72
3 70 73 72
3 70 71 73
3 72 73 74
3 71 75 73
3 75 76 73
3 75 77 76
3 73 76 74
3 74 76 78
3 76 79 78
3 76 77 79
3 78 79 80
3 77 81 79
3 81 82 79
3 81 0 82
3 79 82 80
3 80 82 83
3 82 2 83
3 82 0 2
3 83 2 5
3 84 85 86
3 85 87 86
3 85 88 87
3 86 87 89
3 84 86 90
3 86 91 90
3 86 89 91
3 90 91 92
3 84 90 93
3 90 94 93
3 90 92 94
3 93 94 95
3 84 93 96
3 93 97 96
3 93 95 97
3 96 97 98
3 84 96 99
3 96 100 99
3 96 98 100
3 99 100 101
3 84 99 85
3 99 102 85
3 99 101 102
3 85 102 88
3 89 87 103
3 87 104 103
3 87 88 104
3 103 104 105
3 89 103 106
3 103 107 106
3 103 105 107
3 106 107 108
3 89 106 109
3 106 110 109
3 106 108 110
3 109 110 111
3 92 91 112
3 91 109 112
3 91 89 109
3 112 109 111
3 92 112 113
3 112 114 113
3 112 111 114
3 113 114 115
3 92 113 116
3 113 117 116
3 113 115 117
3 116 117 118
3 95 94 119
3 94 116 119
3 94 92 116
3 119 116 118
3 95 119 120
3 119 121 120
3 119 118 121
3 120 121 122
3 98 97 123
3 97 120 123
3 97 95 120
3 123 120 122
3 88 124 104
3 124 125 104
3 124 126 125
3 104 125 105
3 105 125 127
3 125 128 127
3 125 126 128
3 127 128 129
3 105 127 130
3 127 131 130
3 127 129 131
3 130 131 132
3 108 107 133
3 107 130 133
3 107 105 130
3 133 130 132
3 108 133 134
3 133 135 134
3 133 132 135
3 134 135 136
3 111 110 137
3 110 134 137
3 110 108 134
3 137 134 136
3 111 137 138
3 137 139 138
3 137 136 139
3 138 139 140
3 115 114 141
3 114 138 141
3 114 111 138
3 141 138 140
3 115 141 142
3 141 143 142
3 141 140 143
3 142 143 144
3 115 142 145
3 142 146 145
3 142 144 146
3 145 146 147
3 118 117 148
3 117 145 148
3 117 115 145
3 148 145 147
3 118 148 149
3 148 150 149
3 148 147 150
3 149 150 151
3 122 121 152
3 121 149 152
3 121 118 149
3 152 149 151
3 126 153 128
3 153 154 128
3 153 155 154
3 128 154 129
3 129 154 156
3 154 157 156
3 154 155 157
3 156 157 158
3 129 156 159
3 156 160 159
3 156 158 160
3 159 160 161
3 132 131 162
3 131 159 162
3 131 129 159
3 162 159 161
3 132 162 163
3 162 164 163
3 162 161 164
3 163 164 165
3 136 135 166
3 135 163 166
3 135 132 163
3 166 163 165
3 136 166 167
3 166 168 167
3 166 165 168
3 167 168 169
3 140 139 170
3 139 167 170
3 139 136 167
3 170 167 169
3 140 170 171
3 170 172 171
3 170 169 172
3 171 172 173
3 144 143 174
3 143 171 174
3 143 140 171
3 174 171 173
3 144 174 175
3 174 176 175
3 174 173 176
3 175 176 177
3 147 146 178
3 146 175 178
3 146 144 175
3 178 175 177
3 147 178 179
3 178 180 179
3 178 177 180
3 179 180 181
3 151 150 182
3 150 179 182
3 150 147 179
3 182 179 181
3 151 182 183
3 182 184 183
3 182 181 184
3 183 184 185
3 155 186 157
3 186 187 157
3 186 188 187
3 157 187 158
3 158 187 189
3 187 190 189
3 187 188 190
3 189 190 191
3 158 189 192
3 189 193 192
3 189 191 193
3 192 193 194
3 161 160 195
3 160 192 195
3 160 158 192
3 195 192 194
3 161 195 196
3 195 197 196
3 195 194 197
3 196 197 198
3 165 164 199
3 164 196 199
3 164 161 196
3 199 196 198
3 165 199 200
3 199 201 200
3 199 198 201
3 200 201 202
3 169 168 203
3 168 200 203
3 168 165 200
3 203 200 202
3 169 203 204
3 203 205 204
3 203 202 205
3 204 205 206
3 173 172 207
3 172 204 207
3 172 169 204
3 207 204 206
3 173 207 208
3 207 209 208
3 207 206 209
3 208 209 210
3 177 176 211
3 176 208 211
3 176 173 208
3 211 208 210
3 177 211 212
3 211 213 212
3 211 210 213
3 212 213 214
3 181 180 215
3 180 212 215
3 180 177 212
3 215 212 214
3 181 215 216
3 215 217 216
3 215 214 217
3 216 217 218
3 185 184 219
3 184 216 219
3 184 181 216
3 219 216 218
3 194 193 220
3 193 221 220
3 193 191 221
3 220 221 222
3 194 220 223
3 220 224 223
3 220 222 224
3 223 224 225
3 198 197 226
3 197 223 226
3 197 194 223
3 226 223 225
3 198 226 227
3 226 228 227
3 226 225 228
3 227 228 229
3 202 201 230
3 201 227 230
3 201 198 227
3 230 227 229
3 202 230 231
3 230 232 231
3 230 229 232
3 231 232 233
3 206 205 234
3 205 231 234
3 205 202 231
3 234 231 233
3 206 234 235
3 234 236 235
3 234 233 236
3 235 236 237
3 210 209 238
3 209 235 238
3 209 206 235
3 238 235 237
3 214 213 239
3 213 238 239
3 213 210 238
3 239 238 237
3 214 239 240
3 239 241 240
3 239 237 241
3 240 241 242
3 218 217 243
3 217 240 243
3 217 214 240
3 243 240 242
3 225 224 244
3 224 245 244
3 224 222 245
3 244 245 246
3 225 244 247
3 244 248 247
3 244 246 248
3 247 248 249
3 229 228 250
3 228 247 250
3 228 225 247
3 250 247 249
3 233 232 251
3 232 250 251
3 232 229 250
3 251 250 249
3 233 251 252
3 251 253 252
3 251 249 253
3 252 253 254
3 237 236 255
3 236 252 255
3 236 233 252
3 255 252 254
3 242 241 256
3 241 255 256
3 241 237 255
3 256 255 254
3 242 256 257
3 256 258 257
3 256 254 258
3 257 258 259
3 249 248 260
3 248 261 260
3 248 246 261
3 260 261 262
3 254 253 263
3 253 260 263
3 253 249 260
3 263 260 262
3 259 258 264
3 258 263 264
3 258 254 263
3 264 263 262
3 259 264 265
3 264 266 265
3 264 262 266
3 265 266 41
3 259 265 267
3 265 39 267
3 265 41 39
3 267 39 35
3 259 267 268
3 267 33 268
3 267 35 33
3 268 33 29
3 259 268 257
3 268 269 257
3 268 29 269
3 257 269 242
3 242 269 243
3 269 270 243
3 269 29 270
3 243 270 218
3 218 270 271
3 270 27 271
3 270 29 27
3 271 27 23
3 218 271 219
3 271 272 219
3 271 23 272
3 219 272 185
3 185 272 273
3 272 21 273
3 272 23 21
3 273 21 17
3 185 273 183
3 273 274 183
3 273 17 274
3 183 274 151
3 151 274 275
3 274 15 275
3 274 17 15
3 275 15 11
3 151 275 152
3 275 276 152
3 275 11 276
3 152 276 122
3 122 276 277
3 276 9 277
3 276 11 9
3 277 9 4
3 122 277 123
3 277 278 123
3 277 4 278
3 123 278 98
3 98 278 279
3 278 1 279
3 278 4 1
3 279 1 0
3 98 279 100
3 279 280 100
3 279 0 280
3 100 280 101
3 101 280 281
3 280 81 281
3 280 0 81
3 281 81 77
3 101 281 102
3 281 282 102
3 281 77 282
3 102 282 88
3 88 282 124
3 282 283 124
3 282 77 283
3 124 283 126
3 126 283 284
3 283 75 284
3 283 77 75
3 284 75 71
3 126 284 153
3 284 285 153
3 284 71 285
3 153 285 155
3 155 285 286
3 285 69 286
3 285 71 69
3 286 69 65
3 155 286 186
3 286 287 186
3 286 65 287
3 186 287 188
3 188 287 288
3 287 63 288
3 287 65 63
3 288 63 59
3 188 288 190
3 288 289 190
3 288 59 289
3 190 289 191
3 191 289 290
3 289 57 290
3 289 59 57
3 290 57 53
3 191 290 221
3 290 291 221
3 290 53 291
3 221 291 222
3 222 291 292
3 291 51 292
3 291 53 51
3 292 51 47
3 222 292 245
3 292 293 245
3 292 47 293
3 245 293 246
3 246 293 294
3 293 45 294
3 293 47 45
3 294 45 41
3 246 294 261
3 294 266 261
3 294 41 266
3 261 266 262
3 295 296 297
3 296 298 297
3 296 299 298
3 297 298 300
3 301 302 303
3 302 297 303
3 302 295 297
3 303 297 300
3 301 303 304
3 303 305 304
3 303 300 305
3 304 305 306
3 301 304 307
3 304 308 307
3 304 306 308
3 307 308 309
3 299 310 311
3 310 312 311
3 310 313 312
3 311 312 314
3 300 298 315
3 298 311 315
3 298 299 311
3 315 311 314
3 300 315 316
3 315 317 316
3 315 314 317
3 316 317 318
3 306 305 319
3 305 316 319
3 305 300 316
3 319 316 318
3 306 319 320
3 319 321 320
3 319 318 321
3 320 321 322
3 309 308 323
3 308 320 323
3 308 306 320
3 323 320 322
3 309 323 324
3 323 325 324
3 323 322 325
3 324 325 326
3 313 327 328
3 327 329 328
3 327 330 329
3 328 329 331
3 314 312 332
3 312 328 332
3 312 313 328
3 332 328 331
3 314 332 333
3 332 334 333
3 332 331 334
3 333 334 335
3 318 317 336
3 317 333 336
3 317 314 333
3 336 333 335
3 318 336 337
3 336 338 337
3 336 335 338
3 337 338 339
3 322 321 340
3 321 337 340
3 321 318 337
3 340 337 339
3 322 340 341
3 340 342 341
3 340 339 342
3 341 342 343
3 326 325 344
3 325 341 344
3 325 322 341
3 344 341 343
3 331 329 345
3 329 346 345
3 329 330 346
3 345 346 347
3 335 334 348
3 334 345 348
3 334 331 345
3 348 345 347
3 335 348 349
3 348 350 349
3 348 347 350
3 349 350 351
3 339 338 352
3 338 349 352
3 338 335 349
3 352 349 351
3 343 342 353
3 342 352 353
3 342 339 352
3 353 352 351
3 343 353 354
3 353 355 354
3 353 351 355
3 354 355 50
3 343 354 356
3 354 54 356
3 354 50 54
3 356 54 56
3 343 356 357
3 356 60 357
3 356 56 60
3 357 60 62
3 343 357 344
3 357 358 344
3 357 62 358
3 344 358 326
3 326 358 359
3 358 66 359
3 358 62 66
3 359 66 68
3 326 359 324
3 359 360 324
3 359 68 360
3 324 360 309
3 309 360 361
3 360 72 361
3 360 68 72
3 361 72 74
3 309 361 362
3 361 78 362
3 361 74 78
3 362 78 80
3 309 362 307
3 362 363 307
3 362 80 363
3 307 363 301
3 301 363 364
3 363 83 364
3 363 80 83
3 364 83 5
3 301 364 302
3 364 365 302
3 364 5 365
3 302 365 295
3 295 365 366
3 365 6 366
3 365 5 6
3 366 6 8
3 295 366 296
3 366 367 296
3 366 8 367
3 296 367 299
3 299 367 368
3 367 12 368
3 367 8 12
3 368 12 14
3 299 368 369
3 368 18 369
3 368 14 18
3 369 18 20
3 299 369 310
3 369 370 310
3 369 20 370
3 310 370 313
3 313 370 371
3 370 24 371
3 370 20 24
3 371 24 26
3 313 371 327
3 371 372 327
3 371 26 372
3 327 372 330
3 330 372 373
3 372 30 373
3 372 26 30
3 373 30 32
3 330 373 374
3 373 36 374
3 373 32 36
3 374 36 38
3 330 374 346
3 374 375 346
3 374 38 375
3 346 375 347
3 347 375 376
3 375 42 376
3 375 38 42
3 376 42 44
3 347 376 350
3 376 377 350
3 376 44 377
3 350 377 351
3 351 377 355
3 377 48 355
3 377 44 48
3 355 48 50

CELL_TYPES 752
5
5
5
5
5
5
5
5
5
5
5
5
5
5
5
5
5
5
5
5
5
5
5
5
5
5
5
5
5
5
5
5
5
5
5
5
5
5
5
5
5
5
5
5
5
5
5
5
5
5
5
5
5
5
5
5
5
5
5
5
5
5
5
5
5
5
5
5
5
5
5
5
5
5
5
5
5
5
5
5
5
5
5
5
5
5
5
5
5
5
5
5
5
5
5
5
5
5
5
5
5
5
5
5
5
5
5
5
5
5
5
5
5
5
5
5
5
5
5
5
5
5
5
5
5
5
5
5
5
5
5
5
5
5
5
5
5
5
5
5
5
5
5
5
5
5
5
5
5
5
5
5
5
5
5
5
5
5
5
5
5
5
5
5
5
5
5
5
5
5
5
5
5
5
5
5
5
5
5
5
5
5
5
5
5
5
5
5
5
5
5
5
5
5
5
5
5
5
5
5
5
5
5
5
5
5
5
5
5
5
5
5
5
5
5
5
5
5
5
5
5
5
5
5
5
5
5
5
5
5
5
5
5
5
5
5
5
5
5
5
5
5
5
5
5
5
5
5
5
5
5
5
5
5
5
5
5
5
5
5
5
5
5
5
5
5
5
5
5
5
5
5
5
5
5
5
5
5
5
5
5
5
5
5
5
5
5
5
5
5
5
5
5
5
5
5
5
5
5
5
5
5
5
5
5
5
5
5
5
5
5
5
5
5
5
5
5
5
5
5
5
5
5
5
5
5
5
5
5
5
5
5
5
5
5
5
5
5
5
5
5
5
5
5
5
5
5
5
5
5
5
5
5
5
5
5
5
5
5
5
5
5
5
5
5
5
5
5
5
5
5
5
5
5
5
5
5
5
5
5
5
5
5
5
5
5
5
5
5
5
5
5
5
5
5
5
5
5
5
5
5
5
5
5
5
5
5
5
5
5
5
5
5
5
5
5
5
5
5
5
5
5
5
5
5
5
5
5
5
5
5
5
5
5
5
5
5
5
5
5
5
5
5
5
5
5
5
5
5
5
5
5
5
5
5
5
5
5
5
5
5
5
5
5
5
5
5
5
5
5
5
5
5
5
5
5
5
5
5
5
5
5
5
5
5
5
5
5
5
5
5
5
5
5
5
5
5
5
5
5
5
5
5
5
5
5
5
5
5
5
5
5
5
5
5
5
5
5
5
5
5
5
5
5
5
5
5
5
5
5
5
5
5
5
5
5
5
5
5
5
5
5
5
5
5
5
5
5
5
5
5
5
5
5
5
5
5
5
5
5
5
5
5
5
5
5
5
5
5
5
5
5
5
5
5
5
5
5
5
5
5
5
5
5
5
5
5
5
5
5
5
5
5
5
5
5
5
5
5
5
5
5
5
5
5
5
5
5
5
5
5
5
5
5
5
5
5
5
5
5
5
5
5
5
5
5
5
5
5
5
5
5
5
5
5
5
5
5
5
5
5
5
5
5
5
5
5
5
5
5
5
5
5
5
5
5
5
5
5
5
5
5
5
5
5
5
5
5
5
5
5
5
5
5
5
5
5
5
5
5
5
5
5
5
5
5
5
5
5
5
5
5
5
5
5
5
5
5
5
5
5
5
5
5
5
5
5
5
5
5
5
5
5
5
5
5
5
5
5
5
5
5
5
5
5
5
5
5
5
5
5
5
5
5
5
5
5
5
5
5
5
5
5
5
5
5
5
5
5
5
5
5

CELL_DATA 752
SCALARS cell_data_0 double
LOOKUP_TABLE default
1.37782325351e-09
1.10100396516e-10
8.49110448733e-10
4.9799903852e-10
3.65921576228e-10
1.57273087128e-10
6.09984598859e-10
1.83027980195e-09
6.72886107515e-10
2.87539892671e-10
9.54884907076e-10
1.81964890878e-09
1.67529711215e-09
1.2074906109e-11
6.59504153579e-10
9.28887896514e-09
6.7541818852e-10
3.74191026739e-11
4.58370817049e-09
1.02504067102e-08
9.29713349256e-09
1.50155534634e-12
4.26199042489e-09
3.3623439927e-11
4.67780972411e-09
5.80419416958e-12
4.60322154782e-10
3.69419366665e-11
4.51276831278e-12
6.54213868342e-12
4.49496157477e-10
7.09569418986e-12
4.8236554251e-10
4.45895573127e-11
3.01147540766e-11
5.35177213494e-11
5.25397188405e-12
8.41383638376e-12
1.77028765429e-11
2.94166345018e-12
3.60194146249e-11
2.35809024286e-11
3.4448192372e-10
2.84403135323e-11
1.10040972716e-11
8.33916480851e-11
2.20806877578e-10
2.26450189801e-10
2.9615130559e-10
3.26648103569e-11
7.71127394921e-11
2.21960019986e-10
5.2464678111e-11
1.14652183019e-10
3.57770627073e-11
1.02270530691e-10
1.96739753405e-11
4.56143270334e-11
5.10812097983e-11
5.85759280386e-11
5.67932779074e-11
3.9173461263e-11
3.25891382966e-11
1.35416643618e-11
1.30066310031e-11
1.00484551525e-11
2.9771950943e-11
3.38771211917e-11
3.14317792771e-11
2.48674742486e-11
4.97485603265e-11
1.82637012973e-11
4.91647175746e-11
1.27939712712e-11
4.92471352994e-12
1.68928936022e-11
1.99791721891e-11
3.12914347496e-11
2.47760741924e-12
1.31525456383e-11
1.1809862103e-11
1.41108484256e-11
9.35683280547e-12
1.42214779341e-11
2.4899473668e-12
3.00245894036e-11
1.65134567388e-11
3.73550260606e-11
1.60967555465e-11
1.14139954791e-11
1.70854483153e-10
3.5190202865e-11
2.16724982038e-11
2.32112256817e-11
1.591684075e-10
1.91961549553e-11
1.81586709342e-10
1.20240041077e-11
1.6311298594e-10
2.23550123804e-11
1.7556887082e-11
2.72946652773e-11
1.55424165953e-10
2.48030351151e-11
1.78530744149e-10
1.92938486669e-11
1.07894950108e-09
3.19257344053e-11
3.37006776909e-11
2.54612134664e-12
1.15533907978e-09
2.46195534708e-10
3.50693944657e-11
2.02689269772e-11
6.78053334854e-11
3.62590498673e-10
3.81712975332e-11
3.38299912845e-12
3.69499368923e-10
3.11620757933e-11
4.24144633143e-11
2.36406056876e-11
1.78948881755e-11
1.69952731057e-10
3.1690585116e-11
7.3125620004e-11
2.05894680147e-10
1.41839623853e-11
3.91236769462e-11
3.52947840579e-11
1.47800994906e-11
8.32901288836e-11
4.66176892049e-11
6.01524252015e-11
7.89863227753e-11
6.13653428607e-11
4.52510767177e-10
1.23044451431e-11
8.22309873851e-11
2.80933499619e-11
3.80233128997e-10
5.60680699954e-11
1.35345217499e-11
9.92468868474e-12
3.90831363158e-10
4.75560283181e-11
1.00701792756e-11
1.43575242939e-10
4.2622967872e-11
1.18505636821e-11
4.49017869794e-10
1.61403219337e-10
3.47328448615e-11
4.63510291795e-11
1.47574822134e-10
1.00794768712e-11
4.21670043798e-11
2.6856984649e-11
9.00834685434e-12
8.95007103714e-11
1.90009933373e-10
6.66663468673e-11
2.84602110922e-11
9.0446648647e-11
1.81325184142e-10
2.78824931058e-11
9.35188984199e-11
7.40978738806e-11
1.74714576617e-11
9.36554843374e-11
2.22225795707e-10
7.78803721018e-11
7.64545970243e-11
1.89292370254e-13
6.85738277691e-11
1.80210826328e-11
3.9338489658e-11
5.27194519534e-12
8.33793946385e-11
2.71905587837e-11
7.01485331279e-11
1.51359421415e-11
3.21662490881e-11
3.32487780061e-10
2.7614622442e-11
2.36438986439e-11
1.71901381731e-11
3.4788635569e-10
3.63080977697e-11
1.14242903644e-11
3.45247636053e-10
5.61341917149e-12
1.45951764573e-10
3.41341237356e-11
7.59154439306e-12
1.79390696324e-11
2.01723309075e-10
8.50757752399e-13
9.95239033173e-12
1.25996764782e-10
1.61846412976e-11
2.24552972905e-11
2.01246936748e-10
1.24671010562e-10
1.33528614935e-11
7.48942415757e-12
1.24212592075e-10
1.23106947006e-10
3.21196794747e-11
9.90933667962e-12
1.0403868824e-10
1.47074923629e-10
9.16661408444e-11
1.06450711631e-11
1.17355564165e-11
1.747014167e-10
9.42779423875e-11
2.01866160842e-11
1.65215509977e-10
5.68918238548e-11
8.34197375379e-11
1.99301033602e-11
1.14576156591e-10
7.29060741472e-11
7.18925468578e-11
2.62662699108e-11
1.4969613751e-10
5.67653996566e-11
3.51617503965e-11
3.82827258431e-11
1.5425011783e-10
2.35667016061e-11
3.61119998707e-11
2.23438967626e-11
2.46880377526e-11
6.32810273098e-11
3.03317741119e-10
3.1745961915e-11
6.91376200848e-11
7.72985015073e-11
2.44013560704e-10
5.12752428623e-12
7.55700527123e-11
6.34331251811e-11
7.32411004519e-12
4.7042060938e-12
3.03456030937e-10
7.33997817321e-11
1.18662626379e-11
2.2190672598e-11
7.18705293253e-11
1.01445562226e-10
1.17816050719e-10
1.82486115696e-11
2.06678731565e-12
9.18918034914e-11
1.11074307288e-10
3.24328393418e-11
7.11569337608e-11
2.80548782454e-11
1.29085212704e-10
2.82909352018e-12
1.28958059956e-10
5.24911361619e-12
1.08334292269e-10
6.18643959228e-12
9.79345025108e-12
4.31291195003e-10
7.21851601855e-11
1.14573041602e-11
1.29126498937e-10
5.46941065853e-10
1.13347906162e-10
1.56935481344e-11
5.34364439254e-10
7.62895045911e-12
8.19991688548e-11
7.77261725921e-12
2.09071072037e-10
1.00563515906e-11
1.70771951103e-10
1.87903426123e-11
1.84491105836e-12
1.24711547559e-10
1.79487394327e-10
5.85713926761e-12
1.2577485588e-10
3.35556381803e-11
2.76215604574e-11
1.35697224051e-12
1.07576085021e-10
4.77388835789e-11
9.89925983979e-12
1.07453683912e-12
5.0628664823e-11
2.75923487106e-10
6.12258764117e-11
6.32261569676e-11
1.35773142743e-11
2.0913602844e-10
7.10729808394e-11
1.67266863807e-11
2.43314083023e-10
2.8282581612e-12
7.77150092081e-11
3.5541805418e-11
6.98024750754e-11
9.83128832258e-12
9.04518780244e-11
1.91059058562e-11
1.03094111623e-11
2.50684949715e-10
9.54138804594e-11
2.6086379564e-12
7.39314459211e-11
2.47858148221e-10
9.87001603901e-11
1.08895813757e-11
2.80675770807e-10
2.8824522363e-11
2.224277926e-11
4.83806236443e-12
8.62266194997e-11
2.84629022509e-11
4.50060749904e-11
4.52868198381e-12
2.70546884136e-11
6.56801590906e-11
4.58075846366e-10
2.77670193541e-12
6.38587916665e-11
5.71952663386e-11
4.0152828129e-10
1.85717053049e-11
5.74141726047e-11
1.56308988165e-11
1.04125285926e-11
2.63151563122e-11
3.73105329958e-10
4.11553353814e-12
8.23764472763e-11
1.6848169309e-11
1.79367374902e-11
4.54659410095e-10
9.78984189044e-11
4.8721984652e-11
2.9649455048e-11
3.29800581506e-10
3.09887706695e-10
1.25536477987e-12
6.54747206879e-11
8.78408098995e-12
3.40620646917e-10
1.18115863601e-11
2.48969364976e-11
2.3544293389e-10
2.99751650175e-11
1.60362246831e-11
3.13085995175e-10
2.78123207717e-10
1.58192007038e-11
9.413117846e-13
2.98554284672e-10
5.81480140623e-12
3.27142805561e-10
8.20228380593e-13
1.63226574408e-11
6.68414430834e-12
3.2665365657e-10
3.20909825791e-11
6.71591879833e-11
5.15478643717e-12
2.88473016159e-11
2.8755834357e-11
2.42382045608e-10
6.94263182105e-11
5.30103327604e-11
6.66916562876e-11
8.35062709992e-11
4.32656322806e-11
1.64978934612e-10
6.7254384799e-11
4.29892194217e-11
4.94280166044e-11
2.85247466136e-11
5.97615565595e-11
1.81251776539e-10
3.51746420405e-11
4.93353379779e-11
2.11052836299e-10
7.20203333611e-11
3.97185799557e-10
5.71481057764e-10
1.10849047452e-10
4.06571975421e-11
3.01112631722e-10
3.56268346626e-10
4.51039773902e-11
2.26038588675e-11
9.95922026069e-11
4.36877136487e-10
1.20829173373e-10
9.25976604806e-11
8.6165590732e-11
9.09601603338e-11
1.77140356975e-10
2.80260557773e-10
3.43622230759e-11
8.60750850134e-11
1.528189148e-11
1.54320957796e-11
1.16356020109e-11
4.869373247e-11
1.31996968417e-11
7.65683521201e-11
7.75744565857e-11
2.10997192117e-11
1.03759330428e-10
1.49918500049e-10
2.33104262066e-11
1.74542328795e-10
4.55607209984e-11
4.88019325056e-11
1.23833661824e-10
7.86436965826e-11
5.69905486318e-10
6.34242108328e-10
5.90874314866e-10
6.76951243286e-10
6.40983970554e-10
1.9665789852e-11
6.174596689e-10
4.18818581164e-10
9.13966535835e-10
9.00786544189e-10
8.35457026126e-10
4.04646769185e-10
7.45250219146e-10
8.87586121871e-10
1.30952069522e-10
5.14963502901e-11
4.17971861648e-11
1.72665928659e-10
3.85655786712e-11
9.37627106811e-11
1.23078215189e-10
9.98319737264e-11
5.15243113325e-10
2.88149436683e-11
2.48532998263e-11
4.57480739543e-10
2.92746561205e-11
2.46190523279e-10
8.74066693333e-11
6.81366971869e-11
1.13416691731e-10
3.57494237399e-10
5.46246534203e-11
5.08188383753e-11
7.43756300926e-10
6.66125890568e-10
4.00772809816e-11
3.77374366121e-11
3.9979924617e-10
5.85232179147e-10
1.06900096454e-10
3.13385084183e-10
1.77435061877e-10
4.51339827398e-10
9.60911903369e-11
4.47253263095e-10
5.70045641926e-09
2.51282740189e-10
1.62345620704e-10
4.53661242401e-09
3.23623179983e-11
2.15693798064e-10
1.88252345208e-10
5.84788125105e-09
6.34630337316e-10
1.77013243872e-11
1.28408686311e-10
6.69486604447e-11
8.57845145961e-11
4.62144316314e-09
6.95603523181e-09
5.81241017051e-10
8.55671293668e-09
5.96592990252e-09
5.91681233436e-09
5.38167659862e-09
1.5109731901e-09
4.11341836061e-09
5.32404037299e-09
2.9099129294e-09
1.32105607345e-09
1.64669350258e-09
2.30167606974e-09
1.18931157056e-09
4.55463012003e-11
1.07772066916e-10
2.09552193726e-10
9.09921497586e-10
8.87988818488e-11
8.20655565466e-11
8.32353765459e-10
3.83785021879e-10
3.46364089641e-10
5.40000859535e-10
1.06615262597e-08
8.32845987361e-09
8.66753503208e-09
3.04397466741e-08
3.56436745056e-08
8.47136467955e-09
1.2676231893e-08
1.10575611879e-08
1.39596808057e-08
1.35810082553e-08
1.97461955909e-09
2.00596866567e-09
2.66723693314e-09
1.76260214277e-09
3.43749998413e-10
1.45433802229e-10
3.22122816255e-09
2.79176642752e-09
7.1005096728e-10
9.23128311817e-10
1.72447319101e-09
1.83480528897e-09
6.16601342729e-10
2.79497051657e-10
5.92208340472e-10
6.65664526625e-10
1.2883292478e-09
2.40014117046e-09
3.30519431787e-09
1.4577861436e-09
7.17948089492e-10
2.42251732898e-10
6.0376219813e-10
5.40500622144e-10
3.25577473121e-11
2.90249004633e-10
7.18587947638e-11
2.37072017005e-12
1.81972729455e-10
4.90631065545e-10
3.15538334829e-10
3.0984966956e-10
3.59417018599e-12
2.01885229982e-10
2.02982861105e-10
9.81108841513e-12
1.20880775102e-10
2.0986754151e-11
9.15303560399e-11
1.25064497358e-10
1.25907132185e-10
4.55966501667e-10
7.54963351464e-11
5.19342393161e-10
1.00751952135e-10
4.64295359765e-10
4.79185244438e-10
1.06432398721e-09
2.9058388032e-11
1.94755064074e-10
1.00870078085e-09
2.59610232215e-10
9.53536293655e-10
2.37496853735e-11
6.00989624894e-10
8.12885657514e-10
2.24901811155e-09
1.41948666259e-10
1.30953859379e-10
1.15738821665e-10
1.19935031331e-10
1.16333123171e-10
3.78086650462e-10
1.08835467288e-09
2.01102941776e-11
7.5689855916e-11
8.37238239112e-10
3.74171973605e-10
2.25750022505e-10
6.437854044e-10
2.75544521062e-10
1.29768585767e-10
1.02498678356e-10
5.9770440262e-10
4.80151039664e-10
2.13484883122e-10
1.83948789278e-11
1.75257729956e-09
1.64564901449e-09
4.80689477179e-10
7.34616927561e-10
1.4062018777e-09
5.62578759333e-10
2.32860653695e-10