# vtk DataFile Version 3.0
File Name: Molecule/methanol/methanol_5.0-2.vtk
ASCII
DATASET UNSTRUCTURED_GRID
FIELD FieldData 1
TIME 1 1 double
0.0
POINTS 291 double
1.611 0.0 -0.359
1.543 -0.475 -0.352
1.403 0.0 -0.933
1.345 -0.911 -0.332
1.032 -1.273 -0.301
1.16 -0.83 -0.909
0.876 -1.16 -0.88
0.631 -1.532 -0.261
0.51 -1.396 -0.844
0.173 -1.667 -0.216
0.093 -1.519 -0.802
-0.304 -1.667 -0.168
-0.341 -1.519 -0.759
-0.762 -1.532 -0.123
-0.758 -1.396 -0.718
-1.163 -1.273 -0.083
-1.124 -1.16 -0.681
-1.475 -0.911 -0.051
-1.408 -0.83 -0.653
-1.674 -0.475 -0.032
-1.589 -0.432 -0.635
-1.742 -0.0 -0.025
-1.674 0.475 -0.032
-1.651 -0.0 -0.629
-1.475 0.911 -0.051
-1.589 0.432 -0.635
-1.408 0.83 -0.653
-1.163 1.273 -0.083
-1.124 1.16 -0.681
-0.762 1.532 -0.123
-0.758 1.396 -0.718
-0.304 1.667 -0.168
-0.341 1.519 -0.759
0.173 1.667 -0.216
0.093 1.519 -0.802
0.631 1.532 -0.261
0.51 1.396 -0.844
1.032 1.273 -0.301
0.876 1.16 -0.88
1.345 0.911 -0.332
1.16 0.83 -0.909
1.543 0.475 -0.352
1.341 0.432 -0.927
1.907 0.0 0.656
1.852 0.452 0.656
1.852 0.226 1.047
1.852 -0.226 1.047
1.852 -0.452 0.656
1.852 -0.226 0.264
1.852 0.226 0.264
1.69 0.76 1.094
1.69 0.439 1.415
1.69 -0.0 1.533
1.69 -0.439 1.415
1.69 -0.76 1.094
1.69 -0.877 0.656
1.69 0.439 -0.104
1.69 0.76 0.217
1.69 0.877 0.656
1.432 1.167 1.108
1.432 0.925 1.499
1.432 0.558 1.776
1.432 0.115 1.902
1.432 -0.343 1.859
1.432 -0.754 1.654
1.432 -1.064 1.315
1.432 -1.23 0.886
1.432 -1.23 0.426
1.432 1.167 0.203
1.432 1.252 0.656
1.091 1.484 1.113
1.091 1.283 1.531
1.091 0.969 1.87
1.091 0.568 2.102
1.091 0.116 2.205
1.091 -0.346 2.17
1.091 -0.777 2.001
1.091 -1.139 1.712
1.091 -1.4 1.33
1.091 -1.536 0.887
1.091 -1.536 0.424
1.091 -1.4 -0.018
1.091 1.484 0.198
1.091 1.553 0.656
0.688 1.705 1.112
0.688 1.528 1.538
0.688 1.248 1.904
0.688 0.882 2.184
0.688 0.457 2.36
0.688 0.0 2.42
0.688 -0.457 2.36
0.688 -0.882 2.184
0.688 -1.248 1.904
0.688 -1.528 1.538
0.688 -1.705 1.112
0.688 -1.765 0.656
0.688 -1.705 0.199
0.688 1.705 0.199
0.688 1.765 0.656
0.247 1.815 1.122
0.247 1.642 1.558
0.247 1.366 1.938
0.247 1.004 2.238
0.247 0.579 2.438
0.247 0.118 2.526
0.247 -0.351 2.496
0.247 -0.798 2.351
0.247 -1.194 2.099
0.247 -1.516 1.757
0.247 -1.742 1.345
0.247 -1.859 0.89
0.247 -1.859 0.421
0.247 1.815 0.19
0.247 1.874 0.656
-0.209 1.815 1.122
-0.209 1.642 1.558
-0.209 1.366 1.938
-0.209 1.004 2.238
-0.209 0.579 2.438
-0.209 0.118 2.526
-0.209 -0.351 2.496
-0.209 -0.798 2.351
-0.209 -1.194 2.099
-0.209 -1.516 1.757
-0.209 -1.742 1.345
-0.209 -1.859 0.89
-0.209 -1.859 0.421
-0.209 1.815 0.19
-0.209 1.874 0.656
-0.65 1.765 0.656
-0.65 1.705 1.112
-0.65 1.528 1.538
-0.65 1.248 1.904
-0.65 0.882 2.184
-0.65 0.457 2.36
-0.65 0.0 2.42
-0.65 -0.457 2.36
-0.65 -0.882 2.184
-0.65 -1.248 1.904
-0.65 -1.528 1.538
-0.65 -1.705 1.112
-0.65 -1.765 0.656
-0.65 -1.705 0.199
-0.65 1.705 0.199
-1.053 1.553 0.656
-1.053 1.484 1.113
-1.053 1.283 1.531
-1.053 0.969 1.87
-1.053 0.568 2.102
-1.053 0.116 2.205
-1.053 -0.346 2.17
-1.053 -0.777 2.001
-1.053 -1.139 1.712
-1.053 -1.4 1.33
-1.053 -1.536 0.887
-1.053 -1.536 0.424
-1.053 1.484 0.198
-1.394 1.252 0.656
-1.394 1.167 1.108
-1.394 0.925 1.499
-1.394 0.558 1.776
-1.394 0.115 1.902
-1.394 -0.343 1.859
-1.394 -0.754 1.654
-1.394 -1.064 1.315
-1.394 -1.23 0.886
-1.394 -1.23 0.426
-1.394 1.167 0.203
-1.652 0.877 0.656
-1.652 0.76 1.094
-1.652 0.439 1.415
-1.652 -0.0 1.533
-1.652 -0.439 1.415
-1.652 -0.76 1.094
-1.652 -0.877 0.656
-1.652 -0.76 0.217
-1.652 0.76 0.217
-1.814 0.452 0.656
-1.814 0.226 1.047
-1.814 -0.226 1.047
-1.814 -0.452 0.656
-1.814 -0.226 0.264
-1.814 0.226 0.264
-1.868 -0.0 0.656
1.432 -1.064 -0.003
1.122 -0.781 -1.188
0.783 -1.147 -1.212
0.783 -0.878 -1.615
1.122 -0.451 -1.519
0.783 -0.475 -1.885
1.122 0.451 -1.519
0.783 0.475 -1.885
0.783 0.878 -1.615
1.122 0.781 -1.188
0.783 1.147 -1.212
0.355 -1.284 -1.432
0.355 -0.989 -1.811
0.355 -0.586 -2.074
0.355 -0.121 -2.192
0.355 0.798 -1.959
0.355 1.152 -1.634
0.355 1.381 -1.211
-0.12 -1.383 -1.403
-0.12 -1.125 -1.781
-0.12 -0.767 -2.067
-0.12 -0.342 -2.234
-0.12 0.115 -2.268
0.355 0.358 -2.152
-0.12 0.561 -2.166
-0.12 0.957 -1.937
-0.12 1.268 -1.602
-0.12 1.467 -1.19
-0.594 -1.44 -0.977
-0.594 -1.284 -1.432
-0.594 -0.989 -1.811
-0.594 -0.586 -2.074
-0.594 -0.121 -2.192
-0.594 0.358 -2.152
-0.594 0.798 -1.959
-0.594 1.152 -1.634
-0.594 1.381 -1.211
-1.022 -1.147 -1.212
-1.022 -0.878 -1.615
-1.022 -0.475 -1.885
-1.022 0.0 -1.979
-1.022 0.475 -1.885
-1.022 0.878 -1.615
-1.022 1.147 -1.212
-1.362 -0.781 -1.188
-1.362 -0.451 -1.519
-1.362 -0.0 -1.639
-1.362 0.451 -1.519
-1.362 0.781 -1.188
1.122 -0.0 -1.639
1.341 -0.432 -0.927
1.442 -0.4535 -0.6395
1.444 -0.693 -0.342
1.343 -0.6715 -0.6295
1.852 -0.339 0.46
1.771 -0.606 0.4365
1.69 -0.76 0.217
1.771 -0.493 0.2405
1.771 -0.3325 0.08
1.69 -0.5995 0.0565
1.69 -0.439 -0.104
1.561 -0.995 0.3215
1.561 -0.912 0.107
1.432 -1.147 0.2115
1.3885 -0.9875 -0.1675
1.561 -0.7515 -0.0535
1.5175 -0.675 -0.218
1.6165 -0.457 -0.228
0.569 -0.0605 -2.0855
0.355 0.1185 -2.172
0.569 0.179 -2.0655
0.569 0.4165 -2.0185
-1.62 -0.216 -0.632
-1.62 0.216 -0.632
0.9525 -0.2375 -1.762
0.9525 0.0 -1.809
0.783 -0.2375 -1.932
0.783 0.0 -1.979
0.9525 0.2375 -1.762
-1.362 0.2255 -1.579
-1.362 0.616 -1.3535
-1.471 -0.509 -1.168
-1.58 -0.237 -1.148
-1.471 -0.1185 -1.3935
-1.471 0.1185 -1.3935
-1.58 0.0 -1.148
-1.58 0.237 -1.148
-1.471 0.344 -1.3335
-1.471 0.509 -1.168
-1.4755 0.6065 -0.9115
-1.5845 0.3345 -0.8915
-1.4755 -0.6065 -0.9115
-1.5845 -0.3345 -0.8915
-1.6155 -0.1185 -0.8885
-1.6155 0.1185 -0.8885
0.783 0.35625 -1.9085
0.9525 0.11875 -1.7855
0.783 0.2375 -1.932
0.783 0.11875 -1.9555
0.676 -0.03025 -2.03225
0.676 -0.26775 -1.98525
0.676 0.0895 -2.02225
0.569 0.05925 -2.0755
0.676 0.44575 -1.95175
0.676 0.327 -1.97525
0.676 0.20825 -1.99875
0.569 0.29775 -2.042

CELLS 578 2312
3 0 1 2
3 3 4 5
3 5 4 6
3 4 7 6
3 6 7 8
3 7 9 8
3 8 9 10
3 9 11 10
3 10 11 12
3 11 13 12
3 12 13 14
3 13 15 14
3 14 15 16
3 15 17 16
3 16 17 18
3 17 19 18
3 18 19 20
3 19 21 20
3 21 22 23
3 22 24 25
3 25 24 26
3 24 27 26
3 26 27 28
3 27 29 28
3 28 29 30
3 29 31 30
3 30 31 32
3 31 33 32
3 32 33 34
3 33 35 34
3 34 35 36
3 35 37 36
3 36 37 38
3 37 39 38
3 38 39 40
3 39 41 40
3 40 41 42
3 41 0 42
3 42 0 2
3 43 44 45
3 43 45 46
3 43 46 47
3 43 48 49
3 43 49 44
3 45 44 50
3 45 50 51
3 45 51 52
3 46 45 52
3 46 52 53
3 46 53 54
3 47 46 54
3 47 54 55
3 49 56 57
3 44 49 57
3 44 57 58
3 44 58 50
3 50 58 59
3 50 59 60
3 51 50 60
3 51 60 61
3 51 61 62
3 52 51 62
3 52 62 63
3 53 52 63
3 53 63 64
3 54 53 64
3 54 64 65
3 54 65 66
3 55 54 66
3 55 66 67
3 58 57 68
3 58 68 69
3 58 69 59
3 59 69 70
3 59 70 71
3 60 59 71
3 60 71 72
3 61 60 72
3 61 72 73
3 62 61 73
3 62 73 74
3 62 74 75
3 63 62 75
3 63 75 76
3 64 63 76
3 64 76 77
3 65 64 77
3 65 77 78
3 66 65 78
3 66 78 79
3 66 79 80
3 67 66 80
3 67 80 81
3 69 68 82
3 69 82 83
3 69 83 70
3 70 83 84
3 70 84 85
3 71 70 85
3 71 85 86
3 72 71 86
3 72 86 87
3 73 72 87
3 73 87 88
3 74 73 88
3 74 88 89
3 75 74 89
3 75 89 90
3 76 75 90
3 76 90 91
3 76 91 92
3 77 76 92
3 77 92 93
3 78 77 93
3 78 93 94
3 79 78 94
3 79 94 95
3 80 79 95
3 80 95 96
3 81 80 96
3 83 82 97
3 83 97 98
3 83 98 84
3 84 98 99
3 84 99 100
3 85 84 100
3 85 100 101
3 86 85 101
3 86 101 102
3 87 86 102
3 87 102 103
3 88 87 103
3 88 103 104
3 89 88 104
3 89 104 105
3 90 89 105
3 90 105 106
3 91 90 106
3 91 106 107
3 92 91 107
3 92 107 108
3 93 92 108
3 93 108 109
3 94 93 109
3 94 109 110
3 95 94 110
3 95 110 111
3 96 95 111
3 98 97 112
3 98 112 113
3 98 113 99
3 99 113 114
3 99 114 115
3 100 99 115
3 100 115 116
3 101 100 116
3 101 116 117
3 102 101 117
3 102 117 118
3 103 102 118
3 103 118 119
3 104 103 119
3 104 119 120
3 105 104 120
3 105 120 121
3 106 105 121
3 106 121 122
3 107 106 122
3 107 122 123
3 108 107 123
3 108 123 124
3 109 108 124
3 109 124 125
3 110 109 125
3 110 125 126
3 111 110 126
3 113 112 127
3 113 127 128
3 113 128 114
3 114 128 129
3 114 129 130
3 115 114 130
3 115 130 131
3 116 115 131
3 116 131 132
3 117 116 132
3 117 132 133
3 118 117 133
3 118 133 134
3 119 118 134
3 119 134 135
3 120 119 135
3 120 135 136
3 121 120 136
3 121 136 137
3 122 121 137
3 122 137 138
3 123 122 138
3 123 138 139
3 124 123 139
3 124 139 140
3 125 124 140
3 125 140 141
3 126 125 141
3 126 141 142
3 129 127 143
3 128 127 129
3 130 129 144
3 130 144 145
3 131 130 145
3 131 145 146
3 132 131 146
3 132 146 147
3 133 132 147
3 133 147 148
3 134 133 148
3 134 148 149
3 135 134 149
3 135 149 150
3 136 135 150
3 136 150 151
3 137 136 151
3 138 137 151
3 138 151 152
3 139 138 152
3 139 152 153
3 140 139 153
3 140 153 154
3 141 140 154
3 141 154 155
3 142 141 155
3 144 143 156
3 129 143 144
3 145 144 157
3 145 157 158
3 146 145 158
3 146 158 159
3 147 146 159
3 147 159 160
3 148 147 160
3 148 160 161
3 149 148 161
3 150 149 161
3 150 161 162
3 151 150 162
3 151 162 163
3 152 151 163
3 152 163 164
3 153 152 164
3 153 164 165
3 154 153 165
3 154 165 166
3 155 154 166
3 157 156 167
3 144 156 157
3 158 157 168
3 158 168 169
3 159 158 169
3 159 169 170
3 160 159 170
3 161 160 170
3 161 170 171
3 162 161 171
3 162 171 172
3 163 162 172
3 163 172 173
3 164 163 173
3 165 164 173
3 165 173 174
3 166 165 174
3 166 174 175
3 168 167 176
3 157 167 168
3 169 168 177
3 169 177 178
3 170 169 178
3 171 170 178
3 171 178 179
3 172 171 179
3 173 172 179
3 173 179 180
3 174 173 180
3 175 174 180
3 175 180 181
3 177 176 182
3 168 176 177
3 178 177 183
3 179 178 183
3 180 179 183
3 181 180 183
3 182 181 183
3 177 182 183
3 182 176 22
3 182 22 21
3 182 21 181
3 181 21 19
3 181 19 175
3 175 19 17
3 175 17 166
3 166 17 15
3 166 15 155
3 155 15 13
3 155 13 142
3 142 13 11
3 142 11 126
3 126 11 9
3 126 9 111
3 111 9 96
3 96 9 7
3 96 7 81
3 81 7 4
3 81 4 184
3 48 0 49
3 49 0 56
3 56 0 41
3 56 41 39
3 56 39 57
3 57 39 68
3 68 39 37
3 68 37 82
3 82 37 35
3 82 35 97
3 97 35 112
3 112 35 33
3 112 33 127
3 127 33 31
3 127 31 143
3 143 31 29
3 143 29 156
3 156 29 27
3 156 27 167
3 167 27 24
3 167 24 176
3 176 24 22
3 185 186 187
3 188 185 187
3 188 187 189
3 190 191 192
3 193 190 192
3 193 192 194
3 187 186 195
3 187 195 196
3 189 187 196
3 189 196 197
3 189 197 198
3 192 191 199
3 192 199 200
3 194 192 200
3 194 200 201
3 195 202 203
3 196 195 203
3 196 203 204
3 197 196 204
3 197 204 205
3 198 197 205
3 198 205 206
3 207 206 208
3 199 207 208
3 199 208 209
3 200 199 209
3 200 209 210
3 201 200 210
3 201 210 211
3 202 212 213
3 203 202 213
3 203 213 214
3 204 203 214
3 204 214 215
3 205 204 215
3 205 215 216
3 206 205 216
3 206 216 217
3 208 206 217
3 208 217 218
3 209 208 218
3 209 218 219
3 210 209 219
3 210 219 220
3 211 210 220
3 213 212 221
3 213 221 222
3 214 213 222
3 214 222 223
3 215 214 223
3 216 215 223
3 216 223 224
3 217 216 224
3 217 224 225
3 218 217 225
3 218 225 226
3 219 218 226
3 219 226 227
3 220 219 227
3 222 221 228
3 222 228 229
3 223 222 229
3 223 229 230
3 224 223 230
3 225 224 230
3 226 225 231
3 227 226 232
3 232 26 28
3 232 28 227
3 227 28 30
3 227 30 220
3 220 30 32
3 220 32 211
3 211 32 34
3 211 34 201
3 201 34 36
3 201 36 194
3 194 36 38
3 194 38 193
3 193 38 40
3 193 40 42
3 193 42 190
3 190 42 2
3 190 2 233
3 233 2 188
3 188 2 234
3 188 234 185
3 185 234 5
3 185 5 6
3 185 6 186
3 186 6 8
3 186 8 195
3 195 8 10
3 195 10 202
3 202 10 12
3 202 12 212
3 212 12 14
3 212 14 221
3 221 14 16
3 221 16 228
3 228 16 18
3 1 235 2
3 234 235 2
3 1 236 235
3 236 237 235
3 236 237 3
3 235 234 237
3 3 237 5
3 234 237 5
3 48 238 43
3 47 238 43
3 47 239 55
3 240 239 55
3 48 238 241
3 238 239 241
3 238 239 47
3 241 240 239
3 48 241 242
3 241 243 242
3 241 243 240
3 242 244 243
3 240 245 55
3 67 245 55
3 240 245 246
3 245 247 246
3 245 247 67
3 246 184 247
3 67 247 81
3 184 247 81
3 184 248 4
3 3 248 4
3 184 248 249
3 248 250 249
3 248 250 3
3 249 244 250
3 184 249 246
3 249 243 246
3 249 243 244
3 246 240 243
3 244 250 251
3 250 236 251
3 250 236 3
3 251 1 236
3 244 251 0
3 1 251 0
3 48 242 0
3 244 242 0
3 252 253 198
3 254 207 253
3 207 255 199
3 198 253 206
3 207 253 206
3 20 256 21
3 23 256 21
3 23 257 22
3 25 257 22
3 233 258 188
3 189 258 188
3 233 258 259
3 258 260 259
3 258 260 189
3 259 261 260
3 191 262 190
3 233 262 190
3 231 263 225
3 230 263 225
3 232 264 226
3 231 264 226
3 228 265 229
3 266 265 229
3 230 267 229
3 266 267 229
3 230 267 268
3 267 269 268
3 267 269 266
3 268 270 269
3 231 263 271
3 263 268 271
3 263 268 230
3 271 270 268
3 232 264 272
3 264 271 272
3 264 271 231
3 272 270 271
3 232 272 273
3 272 274 273
3 272 274 270
3 273 25 274
3 232 273 26
3 25 273 26
3 228 275 18
3 20 275 18
3 228 275 265
3 275 276 265
3 275 276 20
3 265 266 276
3 266 276 277
3 276 256 277
3 276 256 20
3 277 23 256
3 266 277 269
3 277 278 269
3 277 278 23
3 269 270 278
3 270 278 274
3 278 257 274
3 278 257 23
3 274 25 257
3 191 279 262
3 279 280 262
3 279 280 281
3 262 233 280
3 261 282 259
3 282 280 259
3 282 280 281
3 259 233 280
3 261 283 260
3 283 284 260
3 283 284 252
3 260 189 284
3 252 284 198
3 189 284 198
3 261 283 285
3 283 286 285
3 283 286 252
3 285 254 286
3 252 286 253
3 254 286 253
3 191 279 287
3 279 288 287
3 279 288 281
3 287 255 288
3 281 289 288
3 289 290 288
3 289 290 254
3 288 255 290
3 281 289 282
3 289 285 282
3 289 285 254
3 282 261 285
3 254 290 207
3 255 290 207
3 191 287 199
3 255 287 199

CELL_TYPES 578
5
5
5
5
5
5
5
5
5
5
5
5
5
5
5
5
5
5
5
5
5
5
5
5
5
5
5
5
5
5
5
5
5
5
5
5
5
5
5
5
5
5
5
5
5
5
5
5
5
5
5
5
5
5
5
5
5
5
5
5
5
5
5
5
5
5
5
5
5
5
5
5
5
5
5
5
5
5
5
5
5
5
5
5
5
5
5
5
5
5
5
5
5
5
5
5
5
5
5
5
5
5
5
5
5
5
5
5
5
5
5
5
5
5
5
5
5
5
5
5
5
5
5
5
5
5
5
5
5
5
5
5
5
5
5
5
5
5
5
5
5
5
5
5
5
5
5
5
5
5
5
5
5
5
5
5
5
5
5
5
5
5
5
5
5
5
5
5
5
5
5
5
5
5
5
5
5
5
5
5
5
5
5
5
5
5
5
5
5
5
5
5
5
5
5
5
5
5
5
5
5
5
5
5
5
5
5
5
5
5
5
5
5
5
5
5
5
5
5
5
5
5
5
5
5
5
5
5
5
5
5
5
5
5
5
5
5
5
5
5
5
5
5
5
5
5
5
5
5
5
5
5
5
5
5
5
5
5
5
5
5
5
5
5
5
5
5
5
5
5
5
5
5
5
5
5
5
5
5
5
5
5
5
5
5
5
5
5
5
5
5
5
5
5
5
5
5
5
5
5
5
5
5
5
5
5
5
5
5
5
5
5
5
5
5
5
5
5
5
5
5
5
5
5
5
5
5
5
5
5
5
5
5
5
5
5
5
5
5
5
5
5
5
5
5
5
5
5
5
5
5
5
5
5
5
5
5
5
5
5
5
5
5
5
5
5
5
5
5
5
5
5
5
5
5
5
5
5
5
5
5
5
5
5
5
5
5
5
5
5
5
5
5
5
5
5
5
5
5
5
5
5
5
5
5
5
5
5
5
5
5
5
5
5
5
5
5
5
5
5
5
5
5
5
5
5
5
5
5
5
5
5
5
5
5
5
5
5
5
5
5
5
5
5
5
5
5
5
5
5
5
5
5
5
5
5
5
5
5
5
5
5
5
5
5
5
5
5
5
5
5
5
5
5
5
5
5
5
5
5
5
5
5
5
5
5
5
5
5
5
5
5
5
5
5
5
5
5
5
5
5
5
5
5
5
5
5
5
5
5
5
5
5
5
5
5
5
5
5
5
5
5
5
5
5
5
5
5
5
5
5
5
5
5
5
5
5
5
5
5
5
5
5
5
5
5
5
5
5
5
5
5
5
5
5
5
5
5
5
5
5
5
5
5
5
5
5
5
5
5
5
5
5
5
5
5
5
5

CELL_DATA 578
SCALARS cell_data_0 double
LOOKUP_TABLE default
9.91694828076e-08
1.75028496927e-08
1.26723169881e-08
8.76209088966e-09
4.99991089378e-09
6.35469250745e-09
6.80542573683e-10
2.10883795735e-09
5.88631766149e-09
1.24720365627e-08
1.13291990229e-08
3.81959918862e-08
2.98438790133e-08
6.04028723831e-08
4.39890361638e-08
2.16625319085e-08
1.06128141506e-08
1.00236032984e-08
3.1245841707e-08
1.03455024293e-08
1.24606054024e-08
4.85914692024e-08
2.79106872365e-08
3.61332368982e-08
9.01633125007e-09
1.27062083455e-08
4.02818781467e-09
2.77483678221e-09
1.24483657069e-09
4.50441352964e-09
4.07769597005e-09
6.11298517021e-09
1.44444946792e-09
3.62318859121e-09
8.79192588817e-09
6.22768326936e-08
4.89791547284e-08
5.4444772101e-08
5.65461789261e-09
1.0388711598e-09
2.39064792497e-09
6.26518625872e-10
1.15233734924e-09
1.17377813809e-09
1.20229132809e-09
8.49450784841e-10
1.44872778385e-09
3.67732406311e-09
2.26685370676e-09
1.46328557595e-09
3.23184926083e-09
4.07425049293e-09
6.74139334612e-10
1.02216042506e-09
9.0588882038e-10
1.194121809e-09
1.03778964933e-09
8.20208881482e-10
9.2130891197e-10
5.55934087193e-10
9.10361704016e-10
1.83351431949e-09
2.34585150866e-09
1.3149214315e-09
1.15358487466e-10
3.650694574e-09
2.14585113564e-09
1.77726166869e-09
1.33577053153e-09
1.38627573406e-09
6.26726639517e-10
7.07439853099e-10
8.02801174769e-10
5.40567063275e-10
4.89995516842e-10
6.34595539344e-10
5.89050520747e-10
5.50368008154e-10
5.9984376162e-10
9.77351498926e-10
9.39513429125e-10
1.06835926889e-09
1.71342850904e-09
7.41896688374e-10
3.8165843321e-10
9.44530367673e-11
5.74060210932e-10
6.88121620494e-10
6.98994998133e-10
3.78120492044e-10
2.16724357449e-10
3.02115988388e-10
1.85313567266e-10
3.66849728433e-10
3.98356934926e-10
4.64688091626e-10
2.92361022004e-10
1.91973806432e-10
3.39945097597e-10
2.6624747223e-10
4.25391488043e-10
2.56869496254e-10
5.26594909523e-10
4.69038881981e-10
5.93340805816e-10
3.87978287335e-10
6.82784563078e-10
6.63053443256e-10
3.66354580471e-10
1.60204970049e-10
1.85125714323e-11
4.41526051028e-11
2.62108854729e-10
4.63926327418e-10
2.25555026776e-10
1.98718038366e-10
4.53562421272e-11
5.36169870292e-11
5.60734089687e-11
8.0261776677e-12
8.91563922672e-11
8.74028653484e-11
2.20215744676e-10
9.64770006585e-12
1.04921196758e-10
2.970458661e-11
7.49588192558e-11
2.72455029362e-11
3.00092243115e-11
5.61436548438e-11
5.71565674396e-12
1.64293083578e-10
5.48976661377e-11
1.70328753157e-10
1.37864278132e-10
3.51892602064e-10
2.16677257382e-10
2.72590730051e-10
1.3775614503e-10
1.1404388159e-10
4.81773069616e-11
1.19844537103e-10
6.32122860461e-11
1.1372272049e-10
4.10534484226e-10
2.83330805917e-10
3.92905407077e-10
2.60530111495e-10
1.85325962611e-10
1.81397895484e-10
1.3656363665e-10
3.12570328132e-10
3.95775681082e-10
3.15715335067e-10
3.67761308764e-10
2.62215850812e-10
3.1993542632e-10
1.93203020777e-10
3.09587081242e-10
2.10252548631e-10
2.8543905927e-10
1.86822980122e-10
2.35578000274e-10
5.12037353562e-11
1.40210925679e-10
3.7944529764e-12
3.66399548253e-12
6.40383360213e-11
5.76433169024e-11
1.01609121348e-10
3.82475117718e-10
4.21387259095e-10
7.05077202059e-10
6.61507578008e-10
7.74384177813e-10
6.3965298405e-10
5.06758768274e-10
5.03113605485e-10
3.53120031432e-10
5.79316757923e-10
6.84613671487e-10
5.56747404915e-10
6.30180231299e-10
5.27349398138e-10
6.21810955983e-10
5.23757339476e-10
6.06329010379e-10
5.17163666717e-10
6.33178068714e-10
5.00046552129e-10
5.64874677151e-10
4.05502623963e-10
5.93115785785e-10
3.95984317121e-10
4.8793342882e-10
2.89797322789e-10
1.9773093971e-10
3.41016677836e-11
7.57870372222e-11
3.03033170996e-10
5.04295426641e-10
9.04945141221e-10
1.08418988539e-09
9.99568442057e-10
1.12052512598e-09
9.2915288188e-10
7.19459800319e-10
8.8879980184e-10
9.85454334128e-10
8.4476796511e-10
9.68936890971e-10
8.20830535457e-10
9.87047667056e-10
8.34800308792e-10
9.91054125863e-10
8.3796222841e-10
1.05382214878e-09
8.71393650785e-10
1.00495977781e-09
8.68179599238e-10
9.27476015266e-10
7.40073441839e-10
4.11089477836e-10
2.31841670318e-10
6.16203024011e-10
6.9112921556e-11
6.27935806832e-10
1.4564108395e-09
1.32297214878e-09
1.54842264922e-09
1.34569106045e-09
1.27249354729e-09
1.00341234078e-09
1.19726030811e-09
1.33804747101e-09
1.17914928962e-09
1.37667326078e-09
1.20558420972e-09
1.44951933069e-09
1.25375560063e-09
1.47629426184e-09
1.31602336996e-09
1.31352702403e-09
1.2485565943e-09
8.65910831385e-10
9.76526482136e-10
5.48113782307e-10
7.87727742897e-10
6.77869672735e-10
1.85577449333e-09
1.76450763989e-09
1.94827066064e-09
1.78519292316e-09
1.68892992967e-09
1.3680711038e-09
1.58851023368e-09
1.87832599761e-09
1.63516483092e-09
2.03215900485e-09
1.74236153517e-09
1.85597223163e-09
1.74233266845e-09
1.00441935738e-09
1.62177580416e-09
1.98929637828e-09
2.61672021817e-09
1.78206508813e-09
2.05434090233e-09
2.42576667154e-09
2.1226642147e-09
2.39995797846e-09
2.19757074922e-09
1.76488774046e-09
3.17208318368e-09
5.60587633942e-09
3.2723258522e-09
3.04586529889e-09
3.28775851204e-09
2.05058356235e-09
2.51971579712e-09
2.88697399543e-10
8.98361010332e-11
1.37483492414e-10
1.8278601519e-08
1.64285261245e-09
3.35304914973e-09
1.30185342133e-09
6.40273676598e-11
4.29849334606e-09
2.55438645212e-08
2.00636850407e-08
1.37286073575e-09
5.68242204246e-09
1.30954422385e-08
5.85226630734e-09
2.10577348896e-09
1.92639220478e-09
1.27167688231e-09
9.946988064e-09
4.03717911439e-08
1.28934669466e-08
2.57145060657e-08
2.42816566723e-09
4.84020551561e-09
1.68420717029e-09
1.67709316531e-09
3.09181255726e-10
4.84693976281e-10
3.50817562208e-09
1.06142798603e-09
2.69082515669e-09
4.89505287678e-10
4.90228616143e-09
4.24048222813e-09
2.46069494292e-08
2.23109601902e-08
2.88400344865e-09
2.74887824782e-09
3.06886534964e-09
7.99060710016e-10
2.65283161988e-09
6.91819059533e-10
6.64329063621e-10
1.51307426487e-09
1.26487530213e-10
2.06611796932e-09
1.20960374494e-09
5.67649334525e-09
2.26118224511e-09
1.54274033053e-08
7.085564289e-09
1.77614656367e-08
3.92174839083e-09
1.50713794407e-08
8.717106793e-08
1.39896226374e-07
1.65881152734e-08
1.54533403534e-08
5.21891255956e-09
1.09914101086e-08
4.44685879455e-09
5.94974301526e-09
6.81381296904e-09
6.85852150919e-09
5.62271792845e-09
1.02025587105e-08
1.24152921529e-08
1.03787024365e-08
1.03046575195e-08
4.55153284572e-09
6.22342750981e-09
6.24910724929e-09
5.32205899581e-09
9.31996791022e-10
1.95982326656e-09
2.49202059727e-09
3.20380855889e-09
2.52148555681e-09
2.12984437339e-09
7.4857720108e-09
5.52601535288e-09
1.43370682984e-08
8.95903235274e-09
1.00158236747e-08
1.35620710309e-09
8.40192467943e-09
1.06695652377e-09
8.07001353805e-09
3.5332008374e-09
1.28260638336e-08
1.21392097307e-08
2.55016913487e-08
1.91812653865e-08
3.50809948297e-08
2.14715161491e-08
2.77273195637e-08
8.97451592225e-09
1.03202741952e-08
5.35184470931e-09
1.97121173185e-08
2.91697317691e-08
2.63378659463e-08
4.57393554376e-08
3.39102260487e-08
3.63470942901e-08
2.78874592359e-08
1.72077503122e-08
4.18625218915e-08
6.48253679702e-08
8.58212792772e-08
5.71317227865e-08
6.54190766821e-08
3.51005572423e-08
9.24039736552e-08
5.09310507811e-08
7.34112087359e-09
1.16820469061e-07
5.60488647924e-09
1.33756576639e-08
4.07157136776e-08
3.54442033237e-08
7.08893152635e-09
9.77700553832e-09
2.08569330622e-08
2.63871673274e-08
2.25682285467e-09
3.96401120215e-09
5.5588514282e-10
5.59447409856e-09
1.87945189681e-09
1.86087148511e-09
3.42901216237e-10
1.15296949263e-08
1.34863506942e-08
1.2793395744e-08
3.96095355217e-09
4.07047288273e-08
9.63286206317e-08
2.13422899455e-07
3.51502289518e-08
1.59428655554e-07
6.931911212e-08
5.54696621778e-08
6.62836137467e-08
4.97364505888e-09
5.83286999703e-09
1.18132189958e-10
1.63271228806e-09
2.34755936768e-09
6.22986230829e-09
4.87951418896e-09
1.16130524274e-08
1.01638256307e-08
1.00326125543e-07
7.30563455604e-08
4.67090617148e-08
2.43446557305e-09
2.65093623329e-08
5.6551910602e-10
7.03561115925e-10
2.76591226911e-09
9.1888619881e-09
1.61754430184e-08
3.08108120623e-09
1.94985081155e-09
1.30759461327e-09
2.45407038284e-09
3.88393977754e-10
4.77310074917e-10
2.3641745035e-09
1.05121995119e-09
1.87972304976e-09
2.62386687169e-09
2.1464631273e-09
8.7592116047e-10
1.18505886397e-09
1.2945233837e-09
2.67941998309e-10
1.31540044177e-09
2.59271073443e-10
1.20630490198e-09
6.43520429214e-10
6.21175433482e-10
5.23529295058e-09
4.83797220386e-09
5.94873485791e-09
9.99516721103e-09
6.90682128867e-09
2.82879520242e-09
5.20420030971e-10
1.91589112832e-09
6.98995171367e-10
1.37548285185e-09
3.8576806949e-10
6.46473977752e-10
9.98989380359e-10
9.67361135599e-09
6.40169486031e-09
1.84991322275e-08
2.96472231525e-10
6.55693007786e-10
4.92279693399e-08
5.00263964302e-08
4.88828569986e-08
1.00867755183e-07
1.04649276995e-07
9.87609429474e-09
2.14062726151e-08
2.99271580309e-08
2.0885427455e-08
1.74088932232e-07
1.56835899818e-07
6.25789363021e-08
4.89240275515e-08
4.98078998254e-08
5.09742902659e-08
1.53768875136e-08
3.64943654743e-08
2.71459962854e-09
3.04907796525e-09
9.26148087544e-09
1.34075303905e-08
9.11542922993e-09
2.30505463445e-08
4.53634190888e-08
2.39902449273e-08
1.91161766504e-08
5.2102542861e-08
8.67667605683e-09
2.14923767818e-08
2.98779087763e-09
3.39061802001e-08
1.60442029087e-08
1.2346998344e-08
2.03451782739e-08
3.53456560582e-08
6.89241184258e-09
8.55277020386e-09
1.61599885152e-08
6.64705109833e-08
3.71458949721e-08
4.31384344992e-08
8.13550198944e-11
1.60775308669e-08
1.21727060677e-08
4.74896205058e-10
6.36528122792e-09
9.85912643545e-09
2.44975878652e-08
2.01594491103e-08
2.03628263208e-08
1.41081506601e-08
8.9026091194e-09
9.39967243922e-09
1.41559696363e-09
7.99509083387e-10
1.03318186429e-08
3.33694687658e-09
5.90357701193e-09
3.07050258314e-08
3.12675578398e-08
1.62328089787e-08
2.54766381883e-08
3.57185404495e-08
6.19326804349e-08
1.03360190665e-08
1.15852807948e-09
8.40974081084e-09
4.89336377523e-09
1.17338333489e-08
6.9984476377e-09
4.20220156468e-09
4.19105777075e-09
6.4782036552e-09
1.28268249526e-08
2.41250568333e-09
8.91372084062e-10
2.66144254207e-09
3.69389652064e-09
8.06796516869e-10
4.04616686701e-08
4.04844032919e-08
2.180567724e-08
2.75405607418e-08
2.99124007967e-08
1.09015953332e-08
9.12282442056e-09
6.02624034907e-09
2.92050727956e-09
1.14647972535e-08
1.9415533364e-09
6.18443224482e-09
1.00281268857e-09
9.19050925176e-09
6.97780312464e-09
1.93955977297e-08
1.35924186212e-09
3.64629876338e-08

