# vtk DataFile Version 3.0
File Name: Molecule/methanol/methanol_3.0-3.vtk
ASCII
DATASET UNSTRUCTURED_GRID
FIELD FieldData 1
TIME 1 1 double
0.0
POINTS 154 double
1.611 0.0 -0.359
1.483 -0.645 -0.346
1.403 0.0 -0.933
1.287 -0.587 -0.921
1.12 -1.191 -0.31
0.956 -1.085 -0.888
0.576 -1.556 -0.256
0.46 -1.418 -0.839
-0.065 -1.684 -0.192
-0.124 -1.534 -0.781
-0.707 -1.556 -0.128
-0.708 -1.418 -0.723
-1.251 -1.191 -0.074
-1.204 -1.085 -0.673
-1.614 -0.645 -0.038
-1.535 -0.587 -0.64
-1.742 0.0 -0.025
-1.651 0.0 -0.629
-1.614 0.645 -0.038
-1.535 0.587 -0.64
-1.251 1.191 -0.074
-1.204 1.085 -0.673
-0.707 1.556 -0.128
-0.708 1.418 -0.723
-0.065 1.684 -0.192
-0.124 1.534 -0.781
0.576 1.556 -0.256
0.46 1.418 -0.839
1.12 1.191 -0.31
0.956 1.085 -0.888
1.483 0.645 -0.346
1.287 0.587 -0.921
1.907 0.0 0.656
1.814 0.583 0.656
1.814 0.292 1.161
1.814 -0.292 1.161
1.814 -0.583 0.656
1.814 -0.292 0.15
1.814 0.292 0.15
1.546 0.933 1.255
1.546 0.461 1.665
1.546 -0.158 1.754
1.546 -0.727 1.494
1.546 -1.065 0.968
1.546 -1.065 0.343
1.546 0.933 0.056
1.546 1.109 0.656
1.128 1.411 1.24
1.128 1.08 1.735
1.128 0.584 2.066
1.128 -0.0 2.183
1.128 -0.584 2.066
1.128 -1.08 1.735
1.128 -1.411 1.24
1.128 -1.527 0.656
1.128 -1.411 0.071
1.128 1.411 0.071
1.128 1.527 0.656
0.602 1.698 1.238
0.602 1.417 1.758
0.602 0.982 2.158
0.602 0.441 2.396
0.602 -0.148 2.445
0.602 -0.721 2.3
0.602 -1.216 1.976
0.602 -1.579 1.51
0.602 -1.771 0.951
0.602 -1.771 0.36
0.602 1.698 0.073
0.602 1.795 0.656
0.019 1.795 1.239
0.019 1.527 1.765
0.019 1.109 2.183
0.019 0.583 2.451
0.019 -0.0 2.543
0.019 -0.583 2.451
0.019 -1.109 2.183
0.019 -1.527 1.765
0.019 -1.795 1.239
0.019 -1.888 0.656
0.019 1.888 0.656
-0.564 1.795 0.656
-0.564 1.698 1.238
-0.564 1.417 1.758
-0.564 0.982 2.158
-0.564 0.441 2.396
-0.564 -0.148 2.445
-0.564 -0.721 2.3
-0.564 -1.216 1.976
-0.564 -1.579 1.51
-0.564 -1.771 0.951
-0.564 -1.771 0.36
-1.09 1.527 0.656
-1.09 1.411 1.24
-1.09 1.08 1.735
-1.09 0.584 2.066
-1.09 -0.0 2.183
-1.09 -0.584 2.066
-1.09 -1.08 1.735
-1.09 -1.411 1.24
-1.09 -1.527 0.656
-1.508 1.109 0.656
-1.508 0.933 1.255
-1.508 0.461 1.665
-1.508 -0.158 1.754
-1.508 -0.727 1.494
-1.508 -1.065 0.968
-1.508 -1.065 0.343
-1.776 0.583 0.656
-1.776 0.292 1.161
-1.776 -0.292 1.161
-1.776 -0.583 0.656
-1.868 -0.0 0.656
1.298 0.294 -1.246
0.966 -0.154 -1.812
0.966 0.451 -1.725
0.966 0.913 -1.324
0.966 -0.711 -1.557
0.468 -1.278 -1.353
0.468 -0.884 -1.846
0.468 -0.316 -2.12
0.468 0.316 -2.12
0.468 0.884 -1.846
0.468 1.278 -1.353
-0.12 -1.418 -1.325
-0.12 -1.085 -1.823
-0.12 -0.587 -2.155
-0.12 0.0 -2.272
-0.12 0.587 -2.155
-0.12 1.085 -1.823
-0.12 1.418 -1.325
-0.707 -1.278 -1.353
-0.707 -0.884 -1.846
-0.707 -0.316 -2.12
-0.707 0.316 -2.12
-0.707 0.884 -1.846
-0.707 1.278 -1.353
-1.205 -1.041 -1.043
-1.205 -0.711 -1.557
-1.205 -0.154 -1.812
-1.205 0.451 -1.725
-1.205 0.913 -1.324
-1.538 -0.294 -1.246
1.298 -0.294 -1.246
1.132 -0.5025 -1.4015
1.132 -0.224 -1.529
0.966 -0.4325 -1.6845
-1.538 0.294 -1.246
-1.3715 0.6035 -1.285
-1.37 0.75 -0.982
-1.5365 0.4405 -0.943
-1.3715 -0.224 -1.529
-1.3715 0.07 -1.529
-1.538 0.0 -1.246

CELLS 304 1216
3 0 1 2
3 2 1 3
3 1 4 3
3 3 4 5
3 4 6 5
3 5 6 7
3 6 8 7
3 7 8 9
3 8 10 9
3 9 10 11
3 10 12 11
3 11 12 13
3 12 14 13
3 13 14 15
3 14 16 15
3 15 16 17
3 16 18 17
3 17 18 19
3 18 20 19
3 19 20 21
3 20 22 21
3 21 22 23
3 22 24 23
3 23 24 25
3 24 26 25
3 25 26 27
3 26 28 27
3 27 28 29
3 28 30 29
3 29 30 31
3 30 0 31
3 31 0 2
3 32 33 34
3 32 34 35
3 32 35 36
3 32 36 37
3 32 37 38
3 32 38 33
3 34 33 39
3 34 39 40
3 34 40 41
3 35 34 41
3 35 41 42
3 35 42 43
3 36 35 43
3 36 43 44
3 37 36 44
3 33 38 45
3 33 45 46
3 33 46 39
3 39 46 47
3 39 47 48
3 40 39 48
3 40 48 49
3 40 49 50
3 41 40 50
3 41 50 51
3 42 41 51
3 42 51 52
3 42 52 53
3 43 42 53
3 43 53 54
3 44 43 54
3 44 54 55
3 46 45 56
3 46 56 57
3 46 57 47
3 47 57 58
3 47 58 59
3 48 47 59
3 48 59 60
3 49 48 60
3 49 60 61
3 50 49 61
3 50 61 62
3 51 50 62
3 51 62 63
3 51 63 64
3 52 51 64
3 52 64 65
3 53 52 65
3 53 65 66
3 54 53 66
3 54 66 67
3 55 54 67
3 57 56 68
3 57 68 69
3 57 69 58
3 58 69 70
3 58 70 71
3 59 58 71
3 59 71 72
3 60 59 72
3 60 72 73
3 61 60 73
3 61 73 74
3 62 61 74
3 62 74 75
3 63 62 75
3 63 75 76
3 64 63 76
3 64 76 77
3 65 64 77
3 65 77 78
3 66 65 78
3 66 78 79
3 67 66 79
3 69 80 70
3 70 80 81
3 70 81 82
3 71 70 82
3 71 82 83
3 72 71 83
3 72 83 84
3 73 72 84
3 73 84 85
3 74 73 85
3 74 85 86
3 75 74 86
3 75 86 87
3 76 75 87
3 76 87 88
3 77 76 88
3 77 88 89
3 78 77 89
3 78 89 90
3 79 78 90
3 79 90 91
3 82 81 92
3 82 92 93
3 83 82 93
3 83 93 94
3 84 83 94
3 84 94 95
3 85 84 95
3 85 95 96
3 86 85 96
3 86 96 97
3 87 86 97
3 88 87 97
3 88 97 98
3 89 88 98
3 89 98 99
3 90 89 99
3 90 99 100
3 91 90 100
3 93 92 101
3 93 101 102
3 94 93 102
3 94 102 103
3 95 94 103
3 96 95 103
3 96 103 104
3 97 96 104
3 97 104 105
3 98 97 105
3 99 98 105
3 99 105 106
3 100 99 106
3 100 106 107
3 102 101 108
3 102 108 109
3 103 102 109
3 104 103 109
3 104 109 110
3 105 104 110
3 106 105 110
3 106 110 111
3 107 106 111
3 109 108 112
3 110 109 112
3 111 110 112
3 111 112 16
3 111 16 14
3 111 14 107
3 107 14 12
3 107 12 100
3 100 12 10
3 100 10 91
3 91 10 8
3 91 8 79
3 79 8 67
3 67 8 6
3 67 6 55
3 55 6 4
3 55 4 44
3 44 4 1
3 44 1 37
3 37 1 0
3 37 0 38
3 38 0 30
3 38 30 45
3 45 30 28
3 45 28 56
3 56 28 26
3 56 26 68
3 68 26 24
3 68 24 80
3 68 80 69
3 80 24 81
3 81 24 22
3 81 22 92
3 92 22 20
3 92 20 101
3 101 20 18
3 101 18 108
3 108 18 16
3 108 16 112
3 113 114 115
3 113 115 116
3 117 118 119
3 117 119 120
3 114 120 121
3 115 114 121
3 115 121 122
3 116 115 122
3 116 122 123
3 118 124 125
3 119 118 125
3 119 125 126
3 120 119 126
3 120 126 127
3 121 120 127
3 121 127 128
3 122 121 128
3 122 128 129
3 123 122 129
3 123 129 130
3 125 124 131
3 125 131 132
3 126 125 132
3 126 132 133
3 127 126 133
3 127 133 134
3 128 127 134
3 128 134 135
3 129 128 135
3 129 135 136
3 130 129 136
3 131 137 138
3 132 131 138
3 133 132 138
3 133 138 139
3 134 133 139
3 134 139 140
3 135 134 140
3 135 140 141
3 136 135 141
3 138 137 142
3 141 21 136
3 136 21 23
3 136 23 130
3 130 23 25
3 130 25 27
3 130 27 123
3 123 27 29
3 123 29 116
3 116 29 31
3 116 31 113
3 113 31 2
3 113 2 143
3 143 2 3
3 117 3 5
3 117 5 118
3 118 5 7
3 118 7 124
3 124 7 9
3 124 9 11
3 124 11 131
3 131 11 137
3 137 11 13
3 137 13 15
3 137 15 142
3 142 15 17
3 143 144 145
3 144 146 145
3 144 117 146
3 145 146 114
3 143 145 113
3 113 145 114
3 114 146 120
3 146 117 120
3 117 144 3
3 143 144 3
3 147 148 140
3 141 148 140
3 141 148 149
3 148 150 149
3 148 147 150
3 149 150 19
3 141 149 21
3 149 19 21
3 19 150 17
3 147 150 17
3 142 151 138
3 139 151 138
3 139 151 152
3 151 153 152
3 151 142 153
3 152 153 147
3 139 152 140
3 140 152 147
3 147 153 17
3 142 153 17

CELL_TYPES 304
5
5
5
5
5
5
5
5
5
5
5
5
5
5
5
5
5
5
5
5
5
5
5
5
5
5
5
5
5
5
5
5
5
5
5
5
5
5
5
5
5
5
5
5
5
5
5
5
5
5
5
5
5
5
5
5
5
5
5
5
5
5
5
5
5
5
5
5
5
5
5
5
5
5
5
5
5
5
5
5
5
5
5
5
5
5
5
5
5
5
5
5
5
5
5
5
5
5
5
5
5
5
5
5
5
5
5
5
5
5
5
5
5
5
5
5
5
5
5
5
5
5
5
5
5
5
5
5
5
5
5
5
5
5
5
5
5
5
5
5
5
5
5
5
5
5
5
5
5
5
5
5
5
5
5
5
5
5
5
5
5
5
5
5
5
5
5
5
5
5
5
5
5
5
5
5
5
5
5
5
5
5
5
5
5
5
5
5
5
5
5
5
5
5
5
5
5
5
5
5
5
5
5
5
5
5
5
5
5
5
5
5
5
5
5
5
5
5
5
5
5
5
5
5
5
5
5
5
5
5
5
5
5
5
5
5
5
5
5
5
5
5
5
5
5
5
5
5
5
5
5
5
5
5
5
5
5
5
5
5
5
5
5
5
5
5
5
5
5
5
5
5
5
5
5
5
5
5
5
5
5
5
5
5
5
5
5
5
5
5
5
5
5
5
5
5
5
5
5
5
5
5
5
5

CELL_DATA 304
SCALARS cell_data_0 double
LOOKUP_TABLE default
3.82900755799e-06
2.33813605424e-06
1.28393527415e-05
1.23731088541e-06
2.17999731881e-09
2.79203397331e-08
4.18266386194e-08
4.40201064738e-09
4.97284699192e-08
1.15912294605e-07
1.28809535514e-07
8.20028028404e-08
1.10758001845e-07
9.23338942997e-08
1.43474804033e-07
2.21691723948e-07
2.44630618197e-07
1.75553622063e-07
1.10284301888e-07
1.36986730501e-07
2.14929501803e-07
2.33389259963e-07
2.24519156346e-07
1.90798858676e-07
1.94667806194e-07
1.50734000377e-07
1.71263825895e-07
2.25417657013e-07
2.78790959851e-08
7.37397889568e-07
5.16689788592e-07
2.05004488163e-06
2.16667105779e-09
1.63077080198e-09
4.62997861673e-09
9.93398142432e-09
8.89923049895e-09
1.18251108542e-09
1.54023401589e-08
1.85052586416e-08
8.19604639344e-09
1.04708848592e-08
1.81657146818e-08
1.1358920247e-08
1.69337584595e-10
2.15791105967e-08
2.7407349823e-08
3.49337987899e-08
1.40346972709e-08
3.05978695703e-08
6.66616110084e-08
6.22628191246e-08
3.63251126803e-08
2.49182383419e-08
2.21830031343e-09
1.58902515041e-08
2.72549704269e-08
4.69507684012e-08
5.15683153683e-08
6.5743816612e-08
3.98908826198e-08
2.31742068611e-08
2.13311897116e-08
7.52974054704e-09
1.00098694187e-08
6.03793566364e-08
7.55403980729e-08
1.03758606812e-07
9.43773042541e-08
7.46105356621e-08
5.85977370283e-08
3.81380889582e-08
2.44874666217e-08
3.96922618432e-09
9.37347375255e-09
3.31106727849e-08
4.51208506146e-08
6.82660819475e-08
7.40458755556e-08
8.78551251851e-08
8.28082933794e-08
8.44614768368e-08
5.88696538537e-08
3.02575102048e-08
3.86871081379e-09
9.90685000771e-08
1.23766192683e-07
1.21083806782e-07
1.4443808751e-07
1.22827384209e-07
1.00963622785e-07
7.92677858351e-08
6.10452070931e-08
3.93802965616e-08
2.33260013084e-08
3.04153330761e-09
1.22771226992e-08
3.28741366905e-08
4.59001644618e-08
6.7072566735e-08
7.88332791464e-08
9.97299516288e-08
1.04285268503e-07
1.15395974092e-07
1.06842659321e-07
7.37103775346e-08
3.31638919989e-08
1.6350415477e-07
1.09804057424e-07
4.96309381055e-08
7.81685269375e-08
3.16155067457e-08
5.17387338735e-08
1.91004377361e-08
2.51696470086e-08
5.72629483139e-09
5.51975981956e-10
5.99797006077e-09
2.33900679742e-08
1.86314054264e-08
4.89107676195e-08
3.18142933643e-08
7.2692208701e-08
4.32294024607e-08
8.66895474e-08
4.33103542813e-08
3.80801491967e-08
9.72208596011e-09
1.27797394768e-08
6.26853656758e-09
3.68829681201e-09
3.38317355971e-09
4.10122553047e-09
5.96925461366e-10
2.28900901209e-09
3.10391558516e-10
2.74765631276e-09
4.61133409e-10
5.1767368547e-10
9.11382094775e-10
3.20621125115e-10
2.70395607137e-09
1.77567835074e-09
2.9612328967e-09
6.07826940152e-09
8.32105196528e-09
1.4461195753e-08
7.46034757953e-09
4.27857076831e-09
4.2325660844e-09
3.64366372764e-09
2.16897346419e-10
1.60957172538e-09
5.81920467544e-09
3.33205232806e-09
2.76418425956e-09
2.67099442778e-09
5.14249754694e-09
7.70756241296e-09
2.08346080993e-08
1.52514319183e-08
8.91436707241e-09
5.99901552702e-09
5.94655416556e-09
4.61180206418e-09
6.30114699257e-09
5.04665364775e-09
9.43214629182e-09
1.43767088779e-08
1.23065146695e-08
6.40502580451e-09
1.17890561287e-08
1.24209344809e-07
1.59031886907e-07
1.10651184978e-07
2.77385235317e-08
1.09638725084e-07
1.89534675753e-07
9.04990516203e-08
4.43306109133e-08
9.76383147872e-08
1.51321010037e-07
1.37738486879e-07
6.81802232582e-08
5.47639251678e-08
9.67870561893e-09
1.14465611862e-05
1.3210927104e-05
8.57808378552e-06
4.44070710881e-09
3.30308385064e-08
1.6973019434e-08
1.73203921944e-08
1.9641624299e-09
2.84506703483e-08
3.34532921332e-08
7.724230998e-09
1.56933211076e-07
1.59185041168e-07
1.31108349938e-07
1.30913049389e-07
1.38606447438e-07
1.49611489818e-07
1.52426425126e-07
1.54218622332e-07
1.51618454388e-07
1.33553430391e-07
1.25884938153e-07
1.72489299967e-05
6.53923018486e-06
4.68846441691e-06
3.18179150027e-06
6.73599284242e-08
2.78006736478e-06
5.36787328065e-07
6.27008288299e-07
3.45470394275e-06
5.08604535246e-07
2.96373537824e-07
1.78806915802e-07
7.28948603752e-08
1.99805378058e-07
5.13754024029e-07
6.90335646687e-07
1.02049698755e-06
9.3454956327e-07
1.94347615628e-06
2.38556872229e-06
3.93757437065e-07
3.42125289451e-07
2.56439738642e-07
1.25285158808e-07
7.25507020204e-08
1.85565280937e-07
4.15940138531e-07
3.89459828667e-07
5.38755306412e-07
7.27553888823e-07
1.48517938874e-06
7.15968091987e-08
1.26678041229e-07
1.30745579737e-07
2.59356150322e-07
1.13422061743e-07
1.91647929392e-08
2.03893672345e-07
1.75624480645e-07
8.89230876445e-07
2.97618376025e-05
7.02148839591e-07
3.53237269335e-07
1.40030888128e-06
7.22858273537e-07
7.77706117479e-07
1.8831898059e-06
9.81232043942e-07
1.93339516905e-06
3.56306223541e-07
2.8339195944e-06
5.71076027014e-06
1.00940746257e-05
3.65176257092e-06
2.39758737491e-06
4.92323764678e-06
7.06256933103e-08
3.57549765611e-07
6.43148082109e-08
2.14785539244e-07
3.32743881857e-07
1.03909098289e-07
1.67687997151e-07
1.53598388517e-07
3.47636992912e-05
2.77444667274e-05
1.33064189977e-06
3.86752472871e-06
4.99786281909e-08
1.14952001556e-06
1.50298900577e-05
1.3327822515e-05
1.92227716212e-06
2.19811884225e-07
6.39688555689e-06
9.39581707776e-06
5.96154762718e-06
3.00846967904e-07
5.91092003677e-08
1.66508099485e-09
3.72270234332e-06
4.33278727617e-08
1.85665091224e-07
6.79398982399e-08
7.87790791272e-08
5.96363735789e-06
1.37356223495e-05
1.57112464358e-07
5.60614005555e-08
5.21720882972e-09
7.58678095374e-06
3.16426951337e-06
2.30004622128e-08
6.0651886664e-06
6.12303099938e-06
1.43220850068e-05

