# vtk DataFile Version 3.0
File Name: Molecule/methanol/methanol_2.0-4.vtk
ASCII
DATASET UNSTRUCTURED_GRID
FIELD FieldData 1
TIME 1 1 double
0.0
POINTS 114 double
1.252 -0.666 -0.918
0.98 -1.317 -0.296
0.828 -1.2 -0.876
0.308 -1.642 -0.229
0.216 -1.496 -0.815
-0.438 -1.642 -0.155
-0.464 -1.496 -0.747
-1.11 -1.317 -0.088
-1.076 -1.2 -0.686
-1.576 -0.731 -0.042
-1.5 -0.666 -0.644
-1.742 0.0 -0.025
-1.651 0.0 -0.629
-1.576 0.731 -0.042
-1.5 0.666 -0.644
-1.11 1.317 -0.088
-1.076 1.2 -0.686
-0.438 1.642 -0.155
-0.464 1.496 -0.747
0.308 1.642 -0.229
0.216 1.496 -0.815
0.98 1.317 -0.296
0.828 1.2 -0.876
1.445 0.731 -0.342
1.252 0.666 -0.918
1.907 0.0 0.656
1.763 0.722 0.656
1.763 0.361 1.281
1.763 -0.361 1.281
1.763 -0.722 0.656
1.763 -0.361 0.03
1.763 0.361 0.03
1.354 1.123 1.377
1.354 0.554 1.87
1.354 -0.19 1.977
1.354 -0.874 1.664
1.354 -1.281 1.032
1.354 -1.281 0.28
1.354 1.335 0.656
0.741 1.571 1.412
0.741 1.087 2.019
0.741 0.388 2.356
0.741 -0.388 2.356
0.741 -1.087 2.019
0.741 -1.571 1.412
0.741 -1.744 0.656
0.741 1.744 0.656
0.019 1.744 1.378
0.019 1.335 1.99
0.019 0.722 2.399
0.019 -0.0 2.543
0.019 -0.722 2.399
0.019 -1.335 1.99
0.019 -1.744 1.378
0.019 -1.888 0.656
0.019 1.888 0.656
-0.703 1.744 0.656
-0.703 1.571 1.412
-0.703 1.087 2.019
-0.703 0.388 2.356
-0.703 -0.388 2.356
-0.703 -1.087 2.019
-0.703 -1.571 1.412
-0.703 -1.744 0.656
-1.316 1.335 0.656
-1.316 1.123 1.377
-1.316 0.554 1.87
-1.316 -0.19 1.977
-1.316 -0.874 1.664
-1.316 -1.281 1.032
-1.725 0.722 0.656
-1.725 0.361 1.281
-1.725 -0.361 1.281
-1.725 -0.722 0.656
-1.868 0.0 0.656
1.445 -0.731 -0.342
1.611 0.0 -0.359
0.648 -0.871 -1.742
-0.12 -1.149 -1.755
-0.12 -0.544 -2.172
0.648 -0.189 -2.053
-0.12 0.185 -2.261
0.648 0.552 -1.946
-0.12 0.872 -2.0
0.648 1.118 -1.456
-0.12 1.359 -1.451
-0.887 -1.276 -1.112
-0.887 -0.871 -1.742
-0.887 -0.189 -2.053
-0.887 0.552 -1.946
-0.887 1.118 -1.456
-1.449 -0.384 -1.402
-1.449 0.384 -1.402
1.21 0.384 -1.402
1.403 0.0 -0.933
1.21 -0.384 -1.402
0.929 0.0975 -1.7275
0.929 0.468 -1.674
0.648 0.1815 -1.9995
0.929 -0.6275 -1.572
0.929 -0.2865 -1.7275
0.648 -0.53 -1.8975
1.424 -0.3655 -0.6375
1.3275 -0.333 -0.9255
1.3485 -0.6985 -0.63
0.95 0.892 -1.187
0.929 0.751 -1.429
1.231 0.525 -1.16
1.4315 0.333 -0.6385
1.3275 0.333 -0.9255
1.507 0.0 -0.646
0.7885 0.1395 -1.8635
0.7885 -0.04575 -1.89025
0.648 -0.00375 -2.02625

CELLS 224 896
3 0 1 2
3 1 3 2
3 2 3 4
3 3 5 4
3 4 5 6
3 5 7 6
3 6 7 8
3 7 9 8
3 8 9 10
3 9 11 10
3 10 11 12
3 11 13 12
3 12 13 14
3 13 15 14
3 14 15 16
3 15 17 16
3 16 17 18
3 17 19 18
3 18 19 20
3 19 21 20
3 20 21 22
3 21 23 22
3 22 23 24
3 25 26 27
3 25 27 28
3 25 28 29
3 25 29 30
3 25 30 31
3 25 31 26
3 27 26 32
3 27 32 33
3 27 33 34
3 28 27 34
3 28 34 35
3 28 35 36
3 29 28 36
3 29 36 37
3 30 29 37
3 26 38 32
3 32 38 39
3 32 39 40
3 33 32 40
3 33 40 41
3 34 33 41
3 34 41 42
3 35 34 42
3 35 42 43
3 35 43 44
3 36 35 44
3 36 44 45
3 37 36 45
3 38 46 39
3 39 46 47
3 39 47 48
3 40 39 48
3 40 48 49
3 41 40 49
3 41 49 50
3 42 41 50
3 42 50 51
3 43 42 51
3 43 51 52
3 44 43 52
3 44 52 53
3 45 44 53
3 45 53 54
3 46 55 47
3 47 55 56
3 47 56 57
3 48 47 57
3 48 57 58
3 49 48 58
3 49 58 59
3 50 49 59
3 50 59 60
3 51 50 60
3 51 60 61
3 52 51 61
3 52 61 62
3 53 52 62
3 53 62 63
3 54 53 63
3 57 56 64
3 57 64 65
3 58 57 65
3 58 65 66
3 59 58 66
3 59 66 67
3 60 59 67
3 60 67 68
3 61 60 68
3 62 61 68
3 62 68 69
3 63 62 69
3 65 64 70
3 65 70 71
3 66 65 71
3 67 66 71
3 67 71 72
3 68 67 72
3 69 68 72
3 69 72 73
3 71 70 74
3 72 71 74
3 73 72 74
3 73 74 11
3 73 11 9
3 73 9 7
3 73 7 69
3 69 7 63
3 63 7 5
3 63 5 54
3 54 5 3
3 54 3 45
3 45 3 1
3 45 1 37
3 37 1 75
3 37 75 30
3 30 75 76
3 30 76 31
3 31 76 23
3 31 23 26
3 26 23 38
3 38 23 21
3 38 21 46
3 46 21 19
3 46 19 55
3 55 19 17
3 55 17 56
3 56 17 15
3 56 15 64
3 64 15 13
3 64 13 70
3 70 13 11
3 70 11 74
3 77 78 79
3 80 79 81
3 82 81 83
3 84 82 83
3 84 83 85
3 78 86 87
3 79 78 87
3 79 87 88
3 81 79 88
3 81 88 89
3 83 81 89
3 83 89 90
3 85 83 90
3 87 86 91
3 88 87 91
3 88 91 92
3 89 88 92
3 90 89 92
3 90 92 14
3 90 14 16
3 90 16 18
3 90 18 85
3 85 18 20
3 85 20 84
3 84 20 22
3 93 94 95
3 77 0 2
3 77 2 4
3 77 4 78
3 78 4 6
3 78 6 86
3 86 6 8
3 86 8 10
3 86 10 91
3 91 10 12
3 91 12 92
3 92 12 14
3 95 96 93
3 93 96 97
3 97 98 82
3 97 82 84
3 82 98 81
3 95 99 100
3 99 101 100
3 99 77 101
3 100 101 80
3 80 101 79
3 101 77 79
3 77 99 0
3 0 99 95
3 95 100 96
3 75 102 76
3 94 102 103
3 102 104 103
3 102 75 104
3 103 104 0
3 0 104 1
3 1 104 75
3 24 105 22
3 22 105 84
3 84 105 106
3 105 107 106
3 105 24 107
3 106 107 93
3 93 107 94
3 94 103 95
3 95 103 0
3 84 106 97
3 97 106 93
3 76 108 23
3 23 108 24
3 24 108 109
3 108 110 109
3 108 76 110
3 109 110 94
3 96 111 97
3 111 98 97
3 96 112 111
3 112 113 111
3 112 80 113
3 111 113 98
3 98 113 81
3 113 80 81
3 80 112 100
3 100 112 96
3 94 110 102
3 102 110 76
3 24 109 107
3 107 109 94

CELL_TYPES 224
5
5
5
5
5
5
5
5
5
5
5
5
5
5
5
5
5
5
5
5
5
5
5
5
5
5
5
5
5
5
5
5
5
5
5
5
5
5
5
5
5
5
5
5
5
5
5
5
5
5
5
5
5
5
5
5
5
5
5
5
5
5
5
5
5
5
5
5
5
5
5
5
5
5
5
5
5
5
5
5
5
5
5
5
5
5
5
5
5
5
5
5
5
5
5
5
5
5
5
5
5
5
5
5
5
5
5
5
5
5
5
5
5
5
5
5
5
5
5
5
5
5
5
5
5
5
5
5
5
5
5
5
5
5
5
5
5
5
5
5
5
5
5
5
5
5
5
5
5
5
5
5
5
5
5
5
5
5
5
5
5
5
5
5
5
5
5
5
5
5
5
5
5
5
5
5
5
5
5
5
5
5
5
5
5
5
5
5
5
5
5
5
5
5
5
5
5
5
5
5
5
5
5
5
5
5
5
5
5
5
5
5
5
5
5
5
5
5
5
5
5
5
5
5

CELL_DATA 224
SCALARS cell_data_0 double
LOOKUP_TABLE default
1.12519097311e-06
6.97140458929e-08
3.87644160545e-08
9.00330341386e-08
1.29638977218e-07
8.56504639628e-09
1.64861193464e-07
5.96446115818e-08
1.41024846691e-07
9.60227425936e-08
1.19650344982e-07
1.45666824123e-07
1.30912063226e-07
1.72392355952e-07
3.65855596233e-08
1.97109307963e-07
3.74459467342e-08
2.39684684988e-07
5.21283317002e-08
2.64755070075e-07
2.44669499726e-07
1.09991219426e-07
1.20333636062e-07
3.92349108574e-09
1.14105825874e-09
2.42906711252e-09
1.21372135584e-09
1.12053830238e-08
1.17947703092e-09
2.24018463757e-09
6.61293532224e-10
8.32955697117e-10
3.09716765417e-09
4.27703495406e-09
1.61222370773e-09
7.37140576983e-09
5.15200811428e-09
1.10122189569e-08
3.82700855296e-09
7.91795370345e-11
1.74595216562e-09
1.06681543039e-09
1.70202434163e-09
2.95052487383e-10
1.15233335452e-09
7.73702298064e-10
3.68336813047e-10
9.76287508489e-10
3.45593595436e-09
6.56464279678e-10
1.14969158558e-09
9.72115019931e-10
5.75056910435e-10
3.58348380592e-09
2.69512521195e-10
1.84679570901e-09
7.19967053936e-10
9.94385885889e-10
1.80600575962e-10
1.28016896402e-09
6.22895946135e-10
1.43486864577e-09
5.0381865874e-10
3.96823227434e-09
2.48649609841e-09
8.93346198518e-10
4.52230772968e-10
4.04990892534e-09
2.19578412774e-09
5.45091326039e-09
1.68685507218e-10
1.93622355649e-09
2.14299380651e-11
8.14207815882e-10
4.36548874992e-10
5.66780773346e-10
3.10744816025e-10
9.68517306687e-10
5.26658361393e-10
6.31751012033e-09
4.77334953389e-10
2.12201765604e-09
1.22534130971e-08
3.03701727362e-10
5.72126731924e-09
2.04290386735e-09
1.3337319534e-09
2.07623908448e-09
1.22959908897e-09
2.81314606021e-09
3.3838519627e-09
1.13974448347e-09
1.90484548781e-09
1.78167988765e-09
1.32672885717e-08
1.18371638867e-09
3.69767833702e-09
3.65563043505e-10
1.32723704324e-08
8.34233788208e-09
6.22188595705e-09
2.10305119365e-09
1.08788060914e-08
8.01148538848e-09
9.16042184182e-09
4.97159141752e-08
2.15982021781e-07
1.63507669102e-07
2.37161687799e-07
9.09158044562e-08
1.98706796125e-07
1.01759230528e-07
1.38732055447e-07
9.87251053212e-08
1.14432707231e-07
6.61417822183e-08
7.67655706794e-08
7.67420245588e-09
3.15932540922e-08
1.52655133656e-10
1.80753384789e-08
1.34517497143e-08
9.10288995716e-09
5.38540331994e-08
1.49223565265e-08
5.71330352128e-08
6.85966824049e-09
1.66186874432e-07
1.81990998796e-08
2.03076552682e-07
2.85476774338e-08
1.93384310167e-07
3.85329757103e-08
1.81984850625e-07
5.10610501681e-08
7.45198722424e-07
1.17566923003e-06
9.98890391436e-07
9.68858303056e-07
3.0842085654e-07
9.02772064935e-08
5.98338336077e-08
5.91834984636e-08
2.85170795385e-08
9.13322776761e-08
3.33584816706e-08
6.15146788355e-08
2.93217654389e-08
5.8379546027e-08
4.25644165741e-08
4.98840134504e-09
4.72267193805e-09
6.52156367202e-08
2.27555846447e-08
3.84005167154e-08
1.09184376757e-08
2.10845627275e-08
5.32073068953e-08
1.24023256671e-07
7.34966924615e-08
4.03846025814e-08
1.69092993152e-06
2.28088749278e-07
1.3455603822e-06
4.29524628957e-08
2.08133559114e-08
4.88862189825e-08
5.5966106223e-09
8.07072976358e-08
1.55404571298e-08
5.70448291148e-08
1.18678264448e-08
6.91594767712e-08
1.11622950469e-08
2.27424413123e-07
7.22817021514e-07
6.17067545919e-07
6.36192458103e-07
6.2385998877e-07
3.53951864514e-07
6.53298166103e-07
2.94959404188e-07
1.05243641797e-07
3.95479236374e-07
3.63169395185e-07
2.12749063909e-07
2.34396775804e-08
1.9818458868e-07
3.48081365978e-07
6.13032251709e-08
2.55859263765e-07
3.33847874396e-07
3.93101651639e-08
3.07675711144e-08
5.82492096383e-08
2.29343130166e-07
9.39937787592e-08
1.02451845201e-07
4.41299189778e-07
3.5537597416e-07
3.49766568999e-07
8.22414804426e-07
4.14248813116e-07
8.96511798293e-07
1.048367203e-07
3.10860192776e-07
2.21310737228e-07
2.22908000535e-07
5.0921143099e-09
2.40620688523e-07
3.16072850815e-07
1.46752706383e-07
2.92503762369e-07
5.92016755429e-08
2.49084717502e-08
3.23720270631e-08
2.07308792704e-07
1.65524549857e-07
1.36466455844e-07
4.89690456134e-07
8.4358509239e-07
2.48934348906e-08
2.3452774199e-07
3.35395253222e-07

