# vtk DataFile Version 3.0
File Name: Molecule/methanol/methanol_6.25-0.vtk
ASCII
DATASET UNSTRUCTURED_GRID
FIELD FieldData 1
TIME 1 1 double
0.0
POINTS 296 double
1.611 0.0 -0.359
1.554 -0.436 -0.353
1.403 0.0 -0.933
1.351 -0.397 -0.928
1.386 -0.842 -0.336
1.198 -0.767 -0.912
1.12 -1.191 -0.31
0.956 -1.085 -0.888
0.773 -1.459 -0.275
0.639 -1.329 -0.857
0.368 -1.627 -0.235
0.271 -1.482 -0.82
-0.065 -1.684 -0.192
-0.124 -1.534 -0.781
-0.499 -1.627 -0.149
-0.519 -1.482 -0.741
-0.903 -1.459 -0.108
-0.887 -1.329 -0.705
-1.251 -1.191 -0.074
-1.204 -1.085 -0.673
-1.517 -0.842 -0.047
-1.446 -0.767 -0.649
-1.684 -0.436 -0.031
-1.599 -0.397 -0.634
-1.742 0.0 -0.025
-1.651 0.0 -0.629
-1.684 0.436 -0.031
-1.599 0.397 -0.634
-1.517 0.842 -0.047
-1.446 0.767 -0.649
-1.251 1.191 -0.074
-1.204 1.085 -0.673
-0.903 1.459 -0.108
-0.887 1.329 -0.705
-0.499 1.627 -0.149
-0.519 1.482 -0.741
-0.065 1.684 -0.192
-0.124 1.534 -0.781
0.368 1.627 -0.235
0.271 1.482 -0.82
0.773 1.459 -0.275
0.639 1.329 -0.857
1.12 1.191 -0.31
0.956 1.085 -0.888
1.386 0.842 -0.336
1.198 0.767 -0.912
1.554 0.436 -0.353
1.351 0.397 -0.928
1.907 0.0 0.656
1.859 0.42 0.656
1.859 0.21 1.019
1.859 -0.21 1.019
1.859 -0.42 0.656
1.859 -0.21 0.292
1.859 0.21 0.292
1.72 0.709 1.065
1.72 0.409 1.365
1.72 -0.0 1.475
1.72 -0.409 1.365
1.72 -0.709 1.065
1.72 -0.819 0.656
1.72 -0.709 0.246
1.72 -0.409 -0.054
1.72 -0.0 -0.163
1.72 0.409 -0.054
1.72 0.709 0.246
1.72 0.819 0.656
1.495 1.106 1.058
1.495 0.902 1.412
1.495 0.588 1.675
1.495 0.204 1.815
1.495 -0.204 1.815
1.495 -0.588 1.675
1.495 -0.902 1.412
1.495 -1.106 1.058
1.495 -1.177 0.656
1.495 -1.106 0.253
1.495 -0.902 -0.101
1.495 0.902 -0.101
1.495 1.106 0.253
1.495 1.177 0.656
1.196 1.416 1.071
1.196 1.241 1.453
1.196 0.966 1.771
1.196 0.613 1.998
1.196 0.21 2.116
1.196 -0.21 2.116
1.196 -0.613 1.998
1.196 -0.966 1.771
1.196 -1.241 1.453
1.196 -1.416 1.071
1.196 -1.476 0.656
1.196 -1.416 0.24
1.196 1.416 0.24
1.196 1.476 0.656
0.838 1.651 1.063
0.838 1.506 1.446
0.838 1.273 1.783
0.838 0.966 2.055
0.838 0.603 2.246
0.838 0.205 2.344
0.838 -0.205 2.344
0.838 -0.603 2.246
0.838 -0.966 2.055
0.838 -1.273 1.783
0.838 -1.506 1.446
0.838 -1.651 1.063
0.838 -1.701 0.656
0.838 -1.651 0.249
0.838 1.651 0.249
0.838 1.701 0.656
0.439 1.794 1.065
0.439 1.658 1.454
0.439 1.439 1.803
0.439 1.147 2.094
0.439 0.798 2.314
0.439 0.409 2.45
0.439 0.0 2.496
0.439 -0.409 2.45
0.439 -0.798 2.314
0.439 -1.147 2.094
0.439 -1.439 1.803
0.439 -1.658 1.454
0.439 -1.794 1.065
0.439 -1.84 0.656
0.439 -1.794 0.246
0.439 1.794 0.246
0.439 1.84 0.656
0.019 1.843 1.061
0.019 1.713 1.448
0.019 1.503 1.798
0.019 1.222 2.094
0.019 0.884 2.323
0.019 0.505 2.474
0.019 0.102 2.54
0.019 -0.305 2.518
0.019 -0.699 2.409
0.019 -1.059 2.218
0.019 -1.37 1.954
0.019 -1.617 1.629
0.019 -1.789 1.258
0.019 -1.876 0.86
0.019 -1.876 0.452
0.019 -1.789 0.053
0.019 1.843 0.25
0.019 1.888 0.656
-0.401 1.84 0.656
-0.401 1.794 1.065
-0.401 1.658 1.454
-0.401 1.439 1.803
-0.401 1.147 2.094
-0.401 0.798 2.314
-0.401 0.409 2.45
-0.401 0.0 2.496
-0.401 -0.409 2.45
-0.401 -0.798 2.314
-0.401 -1.147 2.094
-0.401 -1.439 1.803
-0.401 -1.658 1.454
-0.401 -1.794 1.065
-0.401 -1.84 0.656
-0.401 -1.794 0.246
-0.401 1.794 0.246
-0.8 1.701 0.656
-0.8 1.651 1.063
-0.8 1.506 1.446
-0.8 1.273 1.783
-0.8 0.966 2.055
-0.8 0.603 2.246
-0.8 0.205 2.344
-0.8 -0.205 2.344
-0.8 -0.603 2.246
-0.8 -0.966 2.055
-0.8 -1.273 1.783
-0.8 -1.506 1.446
-0.8 -1.651 1.063
-0.8 -1.701 0.656
-0.8 -1.651 0.249
-0.8 1.651 0.249
-1.158 1.476 0.656
-1.158 1.416 1.071
-1.158 1.241 1.453
-1.158 0.966 1.771
-1.158 0.613 1.998
-1.158 0.21 2.116
-1.158 -0.21 2.116
-1.158 -0.613 1.998
-1.158 -0.966 1.771
-1.158 -1.241 1.453
-1.158 -1.416 1.071
-1.158 -1.476 0.656
-1.158 -1.416 0.24
-1.158 1.416 0.24
-1.457 1.177 0.656
-1.457 1.106 1.058
-1.457 0.902 1.412
-1.457 0.588 1.675
-1.457 0.204 1.815
-1.457 -0.204 1.815
-1.457 -0.588 1.675
-1.457 -0.902 1.412
-1.457 -1.106 1.058
-1.457 -1.177 0.656
-1.457 -1.106 0.253
-1.457 1.106 0.253
-1.682 0.819 0.656
-1.682 0.709 1.065
-1.682 0.409 1.365
-1.682 -0.0 1.475
-1.682 -0.409 1.365
-1.682 -0.709 1.065
-1.682 -0.819 0.656
-1.682 -0.709 0.246
-1.682 0.709 0.246
-1.821 0.42 0.656
-1.821 0.21 1.019
-1.821 -0.21 1.019
-1.821 -0.42 0.656
-1.821 -0.21 0.292
-1.821 0.21 0.292
-1.868 -0.0 0.656
1.21 -0.665 -1.121
0.966 -1.003 -1.153
0.966 -0.768 -1.505
1.21 -0.384 -1.402
0.966 -0.415 -1.74
1.21 -0.0 -1.505
0.966 0.0 -1.823
0.966 0.415 -1.74
1.21 0.384 -1.402
0.966 0.768 -1.505
1.21 0.665 -1.121
0.966 1.003 -1.153
0.648 -1.264 -1.148
0.648 -1.075 -1.519
0.648 -0.781 -1.813
0.648 -0.411 -2.001
0.648 0.0 -2.067
0.648 0.411 -2.001
0.648 0.781 -1.813
0.648 1.075 -1.519
0.648 1.264 -1.148
0.278 -1.36 -1.328
0.278 -1.15 -1.673
0.278 -0.855 -1.949
0.278 -0.497 -2.134
0.278 -0.101 -2.216
0.278 0.302 -2.189
0.278 0.682 -2.054
0.278 1.012 -1.821
0.278 1.267 -1.508
0.278 1.428 -1.137
-0.12 -1.483 -1.134
-0.12 -1.329 -1.505
-0.12 -1.085 -1.823
-0.12 -0.768 -2.067
-0.12 -0.397 -2.22
-0.12 -0.0 -2.272
-0.12 0.397 -2.22
-0.12 0.767 -2.067
-0.12 1.085 -1.823
-0.12 1.329 -1.505
-0.12 1.483 -1.134
-0.517 -1.36 -1.328
-0.517 -1.15 -1.673
-0.517 -0.855 -1.949
-0.517 -0.497 -2.134
-0.517 -0.101 -2.216
-0.517 0.302 -2.189
-0.517 0.682 -2.054
-0.517 1.012 -1.821
-0.517 1.267 -1.508
-0.517 1.428 -1.137
-0.887 -1.264 -1.148
-0.887 -1.075 -1.519
-0.887 -0.781 -1.813
-0.887 -0.411 -2.001
-0.887 0.0 -2.067
-0.887 0.411 -2.001
-0.887 0.781 -1.813
-0.887 1.075 -1.519
-0.887 1.264 -1.148
-1.205 -1.003 -1.153
-1.205 -0.768 -1.505
-1.205 -0.415 -1.74
-1.205 0.0 -1.823
-1.205 0.415 -1.74
-1.205 0.768 -1.505
-1.205 1.003 -1.153
-1.449 -0.665 -1.121
-1.449 -0.384 -1.402
-1.449 -0.0 -1.505
-1.449 0.384 -1.402
-1.449 0.665 -1.121
-1.602 -0.199 -1.081
-1.602 0.199 -1.081

CELLS 588 2352
3 0 1 2
3 2 1 3
3 1 4 3
3 3 4 5
3 4 6 5
3 5 6 7
3 6 8 7
3 7 8 9
3 8 10 9
3 9 10 11
3 10 12 11
3 11 12 13
3 12 14 13
3 13 14 15
3 14 16 15
3 15 16 17
3 16 18 17
3 17 18 19
3 18 20 19
3 19 20 21
3 20 22 21
3 21 22 23
3 22 24 23
3 23 24 25
3 24 26 25
3 25 26 27
3 26 28 27
3 27 28 29
3 28 30 29
3 29 30 31
3 30 32 31
3 31 32 33
3 32 34 33
3 33 34 35
3 34 36 35
3 35 36 37
3 36 38 37
3 37 38 39
3 38 40 39
3 39 40 41
3 40 42 41
3 41 42 43
3 42 44 43
3 43 44 45
3 44 46 45
3 45 46 47
3 46 0 47
3 47 0 2
3 48 49 50
3 48 50 51
3 48 51 52
3 48 52 53
3 48 53 54
3 48 54 49
3 50 49 55
3 50 55 56
3 50 56 57
3 51 50 57
3 51 57 58
3 51 58 59
3 52 51 59
3 52 59 60
3 52 60 61
3 53 52 61
3 53 61 62
3 53 62 63
3 54 53 63
3 54 63 64
3 54 64 65
3 49 54 65
3 49 65 66
3 49 66 55
3 55 66 67
3 55 67 68
3 56 55 68
3 56 68 69
3 56 69 70
3 57 56 70
3 57 70 71
3 58 57 71
3 58 71 72
3 58 72 73
3 59 58 73
3 59 73 74
3 60 59 74
3 60 74 75
3 60 75 76
3 61 60 76
3 61 76 77
3 62 61 77
3 65 64 78
3 65 78 79
3 66 65 79
3 66 79 80
3 66 80 67
3 67 80 81
3 67 81 82
3 68 67 82
3 68 82 83
3 69 68 83
3 69 83 84
3 70 69 84
3 70 84 85
3 70 85 86
3 71 70 86
3 71 86 87
3 72 71 87
3 72 87 88
3 73 72 88
3 73 88 89
3 74 73 89
3 74 89 90
3 75 74 90
3 75 90 91
3 75 91 92
3 76 75 92
3 80 79 93
3 80 93 94
3 80 94 81
3 81 94 95
3 81 95 96
3 82 81 96
3 82 96 97
3 83 82 97
3 83 97 98
3 84 83 98
3 84 98 99
3 85 84 99
3 85 99 100
3 85 100 101
3 86 85 101
3 86 101 102
3 87 86 102
3 87 102 103
3 88 87 103
3 88 103 104
3 89 88 104
3 89 104 105
3 90 89 105
3 90 105 106
3 91 90 106
3 91 106 107
3 91 107 108
3 92 91 108
3 94 93 109
3 94 109 110
3 94 110 95
3 95 110 111
3 95 111 112
3 96 95 112
3 96 112 113
3 97 96 113
3 97 113 114
3 98 97 114
3 98 114 115
3 99 98 115
3 99 115 116
3 100 99 116
3 100 116 117
3 101 100 117
3 101 117 118
3 102 101 118
3 102 118 119
3 103 102 119
3 103 119 120
3 104 103 120
3 104 120 121
3 105 104 121
3 105 121 122
3 106 105 122
3 106 122 123
3 107 106 123
3 107 123 124
3 107 124 125
3 108 107 125
3 110 109 126
3 110 126 127
3 110 127 111
3 111 127 128
3 111 128 129
3 112 111 129
3 112 129 130
3 113 112 130
3 113 130 131
3 114 113 131
3 114 131 132
3 115 114 132
3 115 132 133
3 116 115 133
3 116 133 134
3 117 116 134
3 117 134 135
3 118 117 135
3 118 135 136
3 119 118 136
3 119 136 137
3 120 119 137
3 120 137 138
3 121 120 138
3 121 138 139
3 122 121 139
3 122 139 140
3 123 122 140
3 123 140 141
3 124 123 141
3 124 141 142
3 125 124 142
3 125 142 143
3 127 126 144
3 127 144 145
3 127 145 128
3 128 145 146
3 128 146 147
3 129 128 147
3 129 147 148
3 130 129 148
3 130 148 149
3 131 130 149
3 131 149 150
3 132 131 150
3 132 150 151
3 133 132 151
3 133 151 152
3 134 133 152
3 134 152 153
3 135 134 153
3 135 153 154
3 136 135 154
3 136 154 155
3 137 136 155
3 137 155 156
3 138 137 156
3 138 156 157
3 139 138 157
3 139 157 158
3 140 139 158
3 140 158 159
3 141 140 159
3 141 159 160
3 142 141 160
3 142 160 161
3 143 142 161
3 146 144 162
3 145 144 146
3 147 146 163
3 147 163 164
3 148 147 164
3 148 164 165
3 149 148 165
3 149 165 166
3 150 149 166
3 150 166 167
3 151 150 167
3 151 167 168
3 152 151 168
3 152 168 169
3 153 152 169
3 153 169 170
3 154 153 170
3 154 170 171
3 155 154 171
3 155 171 172
3 156 155 172
3 156 172 173
3 157 156 173
3 157 173 174
3 158 157 174
3 158 174 175
3 159 158 175
3 159 175 176
3 160 159 176
3 161 160 176
3 161 176 177
3 163 162 178
3 146 162 163
3 164 163 179
3 164 179 180
3 165 164 180
3 165 180 181
3 166 165 181
3 166 181 182
3 167 166 182
3 167 182 183
3 168 167 183
3 168 183 184
3 169 168 184
3 169 184 185
3 170 169 185
3 171 170 185
3 171 185 186
3 172 171 186
3 172 186 187
3 173 172 187
3 173 187 188
3 174 173 188
3 174 188 189
3 175 174 189
3 175 189 190
3 176 175 190
3 177 176 190
3 177 190 191
3 179 178 192
3 163 178 179
3 180 179 193
3 180 193 194
3 181 180 194
3 181 194 195
3 182 181 195
3 182 195 196
3 183 182 196
3 183 196 197
3 184 183 197
3 184 197 198
3 185 184 198
3 186 185 198
3 186 198 199
3 187 186 199
3 187 199 200
3 188 187 200
3 188 200 201
3 189 188 201
3 189 201 202
3 190 189 202
3 191 190 202
3 191 202 203
3 193 192 204
3 179 192 193
3 194 193 205
3 194 205 206
3 195 194 206
3 195 206 207
3 196 195 207
3 197 196 207
3 197 207 208
3 198 197 208
3 198 208 209
3 199 198 209
3 200 199 209
3 200 209 210
3 201 200 210
3 201 210 211
3 202 201 211
3 203 202 211
3 203 211 212
3 205 204 213
3 193 204 205
3 206 205 214
3 206 214 215
3 207 206 215
3 208 207 215
3 208 215 216
3 209 208 216
3 210 209 216
3 210 216 217
3 211 210 217
3 212 211 217
3 212 217 218
3 214 213 219
3 205 213 214
3 215 214 220
3 216 215 220
3 217 216 220
3 218 217 220
3 219 218 220
3 214 219 220
3 219 213 26
3 219 26 24
3 219 24 218
3 218 24 22
3 218 22 212
3 212 22 20
3 212 20 203
3 203 20 18
3 203 18 191
3 191 18 16
3 191 16 177
3 177 16 14
3 177 14 161
3 161 14 12
3 161 12 143
3 143 12 10
3 143 10 125
3 125 10 108
3 108 10 8
3 108 8 92
3 92 8 6
3 92 6 76
3 76 6 77
3 77 6 4
3 77 4 1
3 77 1 62
3 62 1 63
3 63 1 0
3 63 0 46
3 63 46 64
3 64 46 78
3 78 46 44
3 78 44 42
3 78 42 79
3 79 42 93
3 93 42 40
3 93 40 109
3 109 40 38
3 109 38 126
3 126 38 144
3 144 38 36
3 144 36 162
3 162 36 34
3 162 34 178
3 178 34 32
3 178 32 192
3 192 32 30
3 192 30 204
3 204 30 28
3 204 28 213
3 213 28 26
3 221 222 223
3 224 221 223
3 224 223 225
3 226 224 225
3 226 225 227
3 226 227 228
3 229 226 228
3 229 228 230
3 231 229 230
3 231 230 232
3 222 233 234
3 223 222 234
3 223 234 235
3 225 223 235
3 225 235 236
3 227 225 236
3 227 236 237
3 227 237 238
3 228 227 238
3 228 238 239
3 230 228 239
3 230 239 240
3 232 230 240
3 232 240 241
3 234 233 242
3 234 242 243
3 235 234 243
3 235 243 244
3 235 244 245
3 236 235 245
3 236 245 246
3 237 236 246
3 237 246 247
3 238 237 247
3 238 247 248
3 239 238 248
3 239 248 249
3 240 239 249
3 240 249 250
3 241 240 250
3 241 250 251
3 242 252 253
3 243 242 253
3 243 253 254
3 244 243 254
3 244 254 255
3 245 244 255
3 245 255 256
3 246 245 256
3 246 256 257
3 247 246 257
3 247 257 258
3 248 247 258
3 248 258 259
3 249 248 259
3 249 259 260
3 250 249 260
3 250 260 261
3 251 250 261
3 251 261 262
3 253 252 263
3 253 263 264
3 254 253 264
3 254 264 265
3 255 254 265
3 255 265 266
3 256 255 266
3 256 266 267
3 257 256 267
3 257 267 268
3 258 257 268
3 258 268 269
3 259 258 269
3 259 269 270
3 260 259 270
3 260 270 271
3 261 260 271
3 261 271 272
3 262 261 272
3 263 273 274
3 264 263 274
3 264 274 275
3 265 264 275
3 266 265 275
3 266 275 276
3 267 266 276
3 267 276 277
3 268 267 277
3 268 277 278
3 269 268 278
3 269 278 279
3 270 269 279
3 270 279 280
3 271 270 280
3 271 280 281
3 272 271 281
3 274 273 282
3 274 282 283
3 275 274 283
3 275 283 284
3 276 275 284
3 276 284 285
3 277 276 285
3 278 277 285
3 278 285 286
3 279 278 286
3 279 286 287
3 280 279 287
3 280 287 288
3 281 280 288
3 283 282 289
3 283 289 290
3 284 283 290
3 284 290 291
3 285 284 291
3 286 285 291
3 286 291 292
3 287 286 292
3 287 292 293
3 288 287 293
3 290 289 294
3 291 290 294
3 291 294 295
3 292 291 295
3 293 292 295
3 293 295 27
3 293 27 29
3 293 29 288
3 288 29 31
3 288 31 281
3 281 31 33
3 281 33 272
3 272 33 35
3 272 35 37
3 272 37 262
3 262 37 39
3 262 39 251
3 251 39 41
3 251 41 241
3 241 41 43
3 241 43 232
3 232 43 45
3 232 45 231
3 231 45 47
3 231 47 229
3 229 47 2
3 229 2 226
3 226 2 224
3 224 2 3
3 224 3 221
3 221 3 5
3 221 5 222
3 222 5 7
3 222 7 233
3 233 7 9
3 233 9 11
3 233 11 242
3 242 11 252
3 252 11 13
3 252 13 15
3 252 15 263
3 263 15 273
3 273 15 17
3 273 17 19
3 273 19 282
3 282 19 21
3 282 21 289
3 289 21 23
3 289 23 294
3 294 23 25
3 294 25 295
3 295 25 27

CELL_TYPES 588
5
5
5
5
5
5
5
5
5
5
5
5
5
5
5
5
5
5
5
5
5
5
5
5
5
5
5
5
5
5
5
5
5
5
5
5
5
5
5
5
5
5
5
5
5
5
5
5
5
5
5
5
5
5
5
5
5
5
5
5
5
5
5
5
5
5
5
5
5
5
5
5
5
5
5
5
5
5
5
5
5
5
5
5
5
5
5
5
5
5
5
5
5
5
5
5
5
5
5
5
5
5
5
5
5
5
5
5
5
5
5
5
5
5
5
5
5
5
5
5
5
5
5
5
5
5
5
5
5
5
5
5
5
5
5
5
5
5
5
5
5
5
5
5
5
5
5
5
5
5
5
5
5
5
5
5
5
5
5
5
5
5
5
5
5
5
5
5
5
5
5
5
5
5
5
5
5
5
5
5
5
5
5
5
5
5
5
5
5
5
5
5
5
5
5
5
5
5
5
5
5
5
5
5
5
5
5
5
5
5
5
5
5
5
5
5
5
5
5
5
5
5
5
5
5
5
5
5
5
5
5
5
5
5
5
5
5
5
5
5
5
5
5
5
5
5
5
5
5
5
5
5
5
5
5
5
5
5
5
5
5
5
5
5
5
5
5
5
5
5
5
5
5
5
5
5
5
5
5
5
5
5
5
5
5
5
5
5
5
5
5
5
5
5
5
5
5
5
5
5
5
5
5
5
5
5
5
5
5
5
5
5
5
5
5
5
5
5
5
5
5
5
5
5
5
5
5
5
5
5
5
5
5
5
5
5
5
5
5
5
5
5
5
5
5
5
5
5
5
5
5
5
5
5
5
5
5
5
5
5
5
5
5
5
5
5
5
5
5
5
5
5
5
5
5
5
5
5
5
5
5
5
5
5
5
5
5
5
5
5
5
5
5
5
5
5
5
5
5
5
5
5
5
5
5
5
5
5
5
5
5
5
5
5
5
5
5
5
5
5
5
5
5
5
5
5
5
5
5
5
5
5
5
5
5
5
5
5
5
5
5
5
5
5
5
5
5
5
5
5
5
5
5
5
5
5
5
5
5
5
5
5
5
5
5
5
5
5
5
5
5
5
5
5
5
5
5
5
5
5
5
5
5
5
5
5
5
5
5
5
5
5
5
5
5
5
5
5
5
5
5
5
5
5
5
5
5
5
5
5
5
5
5
5
5
5
5
5
5
5
5
5
5
5
5
5
5
5
5
5
5
5
5
5
5
5
5
5
5
5
5
5
5
5
5
5
5
5
5
5
5
5
5
5
5
5
5
5
5
5
5
5
5
5
5
5
5
5
5
5
5
5
5
5
5
5
5
5
5
5
5
5
5
5
5
5
5
5

CELL_DATA 588
SCALARS cell_data_0 double
LOOKUP_TABLE default
2.4131159083e-08
1.1959466462e-08
4.08321346319e-09
9.11334208924e-09
3.60464414652e-10
2.49409118345e-09
5.92739224814e-10
4.74470299607e-10
4.35069171834e-12
4.87158628007e-11
2.14853657219e-10
2.46786420636e-10
3.09814817692e-10
2.58195228783e-11
8.6768522414e-11
1.93024060803e-10
3.92838466304e-10
3.42786262706e-10
2.68459476433e-10
5.76370826058e-11
3.06131741919e-10
7.44559592203e-11
3.19583155515e-10
3.15501626899e-11
3.48561546974e-10
7.17443661615e-11
3.2725379659e-10
4.23942767759e-11
1.9379354256e-10
3.07047169528e-11
1.6491476009e-10
1.11195139823e-10
5.88751737711e-11
2.17262811761e-10
1.86310310949e-10
2.33842942507e-10
8.52058389457e-11
1.23810187417e-10
1.01779741591e-10
5.99532912838e-11
2.50543541597e-11
1.01756746889e-10
9.07469885266e-10
2.01348270564e-09
5.95553117991e-11
1.50369513227e-09
2.00787697424e-08
2.53123111732e-08
3.46780415296e-10
9.68890652607e-11
5.40273292383e-10
3.29165144368e-10
1.44213142602e-09
2.00271178448e-10
4.37768315691e-11
3.56847229293e-11
1.11831856662e-11
2.04696637079e-10
2.18971755801e-10
1.34978447416e-10
4.46071021956e-10
1.35785728233e-11
1.83790164967e-09
1.42228345697e-09
5.79473867998e-09
2.47103718389e-09
3.50775397135e-09
1.32552172387e-09
5.7165383993e-10
7.92156238853e-10
2.51837629551e-11
1.18641377893e-10
7.51602236543e-12
5.07935027957e-12
4.4704140217e-11
2.19830791312e-11
1.57937241573e-12
7.13441385255e-11
1.53642821548e-11
8.84403229105e-11
1.07838183846e-10
9.94887012098e-11
8.27758440975e-12
7.44082699243e-11
4.91476533786e-10
8.79040027167e-10
6.72980317478e-10
3.56866578314e-09
4.17402676854e-09
8.27524535679e-09
4.50472725656e-11
1.51648783477e-10
6.62805662636e-11
2.35651321779e-11
4.33277288145e-12
5.14152026337e-12
1.17724706603e-11
4.15484410781e-12
3.19422411845e-12
1.24544513396e-11
3.324079652e-12
2.02966774301e-11
3.79777087252e-12
6.24670746495e-12
3.12052746346e-11
1.49051294938e-11
2.66315267597e-12
1.89144417458e-12
8.87826763829e-12
2.87485713857e-11
1.00454424676e-11
1.45448897273e-10
4.80778939127e-10
2.12639413249e-10
2.00714076377e-11
1.16401436422e-09
5.50681435701e-11
5.37303445417e-11
1.21325745109e-11
7.71811504364e-12
1.56012769253e-11
3.08938426998e-12
3.28130301184e-12
4.56208806118e-12
6.84114607945e-12
2.84579574346e-12
8.47387836197e-12
1.91101548857e-11
8.73078056681e-12
2.54146901761e-12
1.00030617806e-11
2.83622821801e-12
2.85566098198e-12
3.20355740207e-12
1.2574745716e-11
3.98814438661e-11
4.681202655e-12
6.84889059857e-11
5.07220979191e-11
1.5232817547e-10
4.58156621871e-11
1.38036567506e-10
2.34687828187e-10
2.38672798274e-10
1.12161886791e-10
1.80728045971e-11
3.04775843352e-11
9.90663807465e-12
1.89350699063e-11
7.03106874873e-12
2.70048492679e-12
2.33308200771e-13
5.49168307645e-12
5.0907726537e-12
6.15354420843e-12
2.35935238898e-12
3.73895138117e-12
2.28523312494e-12
6.37921397747e-12
6.5257074829e-12
3.71170560424e-12
7.10067123086e-12
6.59640308508e-12
3.27411442718e-12
1.48898327145e-11
1.35066878841e-11
2.55554772855e-11
1.43900448425e-11
3.39769466548e-11
2.39497768179e-11
4.79301249447e-11
1.52643775366e-12
3.15356064016e-11
1.66504245392e-11
6.8886757433e-11
4.15391698502e-11
8.68317135834e-12
2.71004214423e-11
1.2455294561e-11
1.15257912041e-11
4.65145928602e-12
1.03769192175e-11
4.64855763263e-12
1.92344594251e-12
1.37595036007e-13
4.16658673361e-12
2.44828142748e-12
1.99794461495e-12
2.96673803623e-12
1.29464056833e-12
3.43622994374e-12
8.65571979182e-13
1.11749988706e-12
2.18507987212e-12
2.17161026939e-14
7.73000314216e-12
2.38207322289e-12
5.33753027019e-12
7.78837691122e-12
1.09794541147e-11
1.73604477532e-11
3.22271848809e-12
1.15558478788e-11
3.98934957953e-12
2.4975767771e-12
8.09437436149e-11
1.40026958481e-10
1.74050708623e-10
1.79140071415e-11
4.44603413893e-12
1.13059600634e-11
5.21762793064e-12
1.17742833082e-12
1.84931970133e-11
1.94943373984e-11
3.81413350162e-12
8.93886686212e-12
6.676771867e-12
7.57447143726e-12
2.95178372423e-12
1.22466514701e-12
3.84316528246e-12
2.89699769589e-13
1.70278871275e-12
3.28834260811e-12
1.42835116196e-12
4.95628399567e-12
1.16819650508e-12
4.17797395206e-13
3.97188953045e-12
7.63428474342e-12
2.99798675367e-12
8.00372370272e-12
3.04773869035e-12
1.33971263944e-11
2.775551077e-13
1.13649096488e-11
7.18611063286e-12
2.08374142134e-11
4.78966091616e-11
1.73686580033e-10
2.41831483458e-10
6.8374101228e-12
8.25665508765e-12
3.31453311913e-11
1.10206730314e-11
1.10364438638e-11
3.2116297277e-12
1.22613779557e-11
6.96513864247e-13
6.94296155136e-12
1.02015418381e-14
4.25740457196e-12
9.82670788223e-13
1.43868768453e-12
1.33155498632e-13
3.55074715205e-12
6.91780158762e-13
2.11736710858e-12
3.94359371833e-13
5.7822905934e-13
1.92321931768e-13
2.83442968794e-12
2.14503924825e-12
8.45507330013e-12
6.15646396446e-13
1.10596905746e-11
6.80478541459e-13
9.06608519775e-12
1.4215827786e-11
3.0983417447e-11
1.87575031407e-11
6.20266258357e-11
6.55337994089e-11
2.99048278909e-11
4.53344852922e-11
6.4928088322e-12
1.453043212e-14
3.2999919466e-12
7.93987204942e-12
2.65604162008e-13
4.66864116915e-12
1.91358732773e-12
4.54122307871e-12
3.09444842949e-12
1.90490605436e-12
4.8506736512e-12
6.75086407046e-12
5.81170837422e-12
1.30203055455e-12
6.01669975076e-12
2.39669390886e-12
6.77946150505e-12
1.08771230705e-12
8.39233426727e-12
4.16270989544e-12
4.43698319689e-13
5.74231606817e-12
5.06366124736e-11
4.61263082028e-11
1.2018194448e-10
9.78595651222e-11
4.13636139716e-11
5.331859145e-11
7.11554732186e-12
5.75176602748e-12
3.29747082506e-12
5.32934982066e-12
1.4047240845e-12
4.97381035262e-12
2.72083634942e-12
3.05921293104e-12
5.27727092558e-13
2.35789258217e-12
2.12570033733e-12
8.54968136094e-13
4.2494666717e-12
1.64235459544e-12
5.53275454279e-12
3.46757763829e-12
6.03065904296e-12
9.06948291411e-12
6.01498198338e-11
2.47173968237e-11
1.57661761384e-10
1.38397540068e-10
2.58794800444e-11
5.58237061815e-11
5.10175607187e-12
8.22626270824e-12
3.26994397693e-12
1.21097127535e-12
1.77707133835e-12
2.27630682983e-12
1.55905529556e-12
2.76314387083e-12
1.46216827753e-12
1.04275473368e-12
3.20225599067e-12
8.66647764625e-12
4.82429253129e-12
5.93470546057e-11
7.67412946673e-12
2.22899660399e-10
2.1696905251e-10
1.0783070688e-11
6.2832166276e-11
1.25555533086e-11
1.23185895012e-11
4.38942456678e-12
1.47240928909e-11
4.26692986723e-12
1.21650558966e-11
1.15943477204e-11
6.29150598255e-11
1.14000020329e-11
2.80180626667e-10
2.86743718482e-10
1.62209535633e-11
8.92139171428e-11
3.18668743748e-11
8.82998560856e-11
1.21575076819e-11
1.94811657918e-10
1.19521738867e-11
2.44088872668e-10
9.77090040288e-12
2.82082893479e-10
1.22038679086e-11
2.40128573597e-10
1.39123921762e-11
2.20941423973e-10
4.02743250061e-11
2.00678391344e-10
5.18492200389e-11
1.83305356571e-10
1.22931945705e-10
2.16245056586e-10
9.63744739578e-12
2.60809699708e-12
7.35814191411e-11
3.81425804356e-11
2.68238427438e-12
3.37768409588e-12
1.11143588632e-10
2.97149462902e-11
1.93065915914e-09
2.12550832805e-09
5.63859312651e-10
3.21568868116e-09
1.15421770674e-08
8.0362044653e-09
7.57763482808e-09
6.35286728268e-09
4.12092042391e-10
1.13630203051e-09
9.90837459218e-11
3.3778765989e-10
4.81374464024e-11
6.17045683657e-11
7.63514516189e-12
1.33157670546e-10
1.41751333962e-12
1.50305046522e-11
2.0828768534e-11
6.40723155093e-11
2.25481517946e-11
1.07016435937e-10
1.82134166703e-10
8.82608686227e-11
1.60823186221e-10
5.07527951827e-11
1.77161695344e-10
1.19994634968e-11
1.97287019507e-10
2.96074454813e-11
7.96956741393e-09
8.46282703866e-10
1.01883336229e-08
1.13504470105e-08
6.92752568658e-09
1.04540373802e-09
2.3470964467e-09
4.68443976839e-09
3.69981582974e-09
1.09830562315e-08
6.97509285375e-09
6.92946478673e-09
1.05942974078e-11
1.08504521289e-08
4.00102271056e-09
3.10798574383e-09
1.24404718559e-08
1.22283656572e-08
9.77206671441e-09
6.01859287587e-10
4.01404774349e-09
1.92013748053e-10
2.97457225761e-10
7.93251428031e-10
4.5499478904e-11
6.11259767204e-11
5.707752531e-10
4.02201564232e-10
4.3104307372e-10
2.10064881884e-09
6.80264926113e-10
9.18356660046e-10
4.25395712058e-10
7.95265049347e-10
5.46448019273e-10
1.8152849329e-09
3.78050179142e-10
6.62765041393e-10
3.60450048137e-11
8.67999860807e-12
1.71308195944e-11
2.7446395355e-10
7.298995388e-11
5.32274224952e-11
2.4498828708e-10
3.03513191198e-11
1.55428302436e-10
2.25017711282e-11
3.69427497072e-11
4.89663372784e-11
7.0186380372e-12
7.21405680623e-11
7.80944382819e-11
3.18272529027e-11
1.84216082044e-10
5.56065927775e-11
6.48695233903e-11
9.25391729094e-12
7.87462591925e-11
7.02650389705e-11
1.84317947591e-10
3.84328526666e-11
3.59370263184e-10
4.62999620468e-11
2.52686817864e-10
3.78631443342e-11
2.16453737202e-10
7.60409984059e-11
1.23218633418e-10
8.95777743584e-12
1.29130737014e-10
4.28984971376e-11
2.81775171517e-10
4.00528210485e-11
1.79526661095e-10
3.73701091282e-11
4.71554623754e-11
2.77762526864e-11
2.01651405115e-11
1.18298212921e-10
1.58753191418e-11
1.42376604577e-10
2.31289175907e-10
2.29905873086e-10
6.55733955561e-11
1.33547007982e-11
5.20538861801e-12
8.41609700149e-11
6.46900384941e-12
2.45730080668e-11
5.3494042933e-11
2.09933997258e-10
3.76615815509e-11
2.23844999992e-11
1.57317412185e-10
1.08202359824e-10
2.6738713495e-10
3.84020090877e-10
3.32219469985e-10
3.47066503861e-11
4.35179129814e-11
5.05232943139e-11
9.50835761614e-11
1.31161182481e-11
8.7548989572e-11
2.45191723124e-11
3.06116910588e-11
3.42800408148e-10
2.45845327277e-10
5.26900986644e-11
8.95844807587e-11
1.31058826204e-10
2.62888838043e-10
1.53690750696e-10
8.34669293622e-11
2.11052200762e-10
1.03694637964e-10
2.23793054291e-10
2.02683176646e-10
1.3160696e-10
1.57738525729e-11
1.79280902806e-10
2.83942797134e-11
2.15971327301e-10
4.36301112308e-12
2.04750385005e-10
3.92181129584e-11
2.68346909889e-10
3.58309886541e-11
1.54394315069e-10
8.20792054344e-11
6.24695817993e-11
6.26125280832e-11
5.21165709889e-11
9.4310308044e-11
4.1760932587e-11
1.01874160527e-10
4.99666620017e-11
1.97554407204e-12
1.17992834389e-10
4.52223780713e-10
6.31416931645e-10
4.59423961893e-09
6.80667012284e-09
1.20226282499e-10
1.25229931305e-08
5.79792796416e-09
5.66924250492e-09
7.17866522576e-09
2.70457681947e-09
4.29289836907e-09
5.273976579e-09
4.31845308397e-09
4.40406656087e-09
2.62991361685e-10
4.49250909326e-11
9.8218964468e-11
1.79429542536e-10
7.38674399442e-11
7.11202976906e-11
1.06136677883e-11
1.16343099869e-10
4.60966164125e-11
1.32247293669e-10
2.26933677267e-11
1.04648714731e-11
1.91129691956e-10
4.02496918004e-11
1.64693978854e-10
1.35620230342e-10
6.9330484677e-12
1.23385813123e-10

