# vtk DataFile Version 3.0
File Name: Molecule/methanol/methanol_12.0-16_06.vtk
ASCII
DATASET UNSTRUCTURED_GRID
FIELD FieldData 1
TIME 1 1 double
0.0
POINTS 601 double
1.611 0.0 -0.359
1.582 -0.31 -0.356
1.475 0.0 -0.634
1.448 -0.29 -0.632
1.403 0.0 -0.933
1.377 -0.282 -0.93
1.498 -0.608 -0.348
1.369 -0.57 -0.624
1.3 -0.554 -0.923
1.36 -0.887 -0.334
1.24 -0.83 -0.611
1.174 -0.808 -0.91
1.173 -1.135 -0.315
1.066 -1.062 -0.594
1.004 -1.034 -0.893
0.945 -1.344 -0.292
0.852 -1.258 -0.572
0.796 -1.224 -0.872
0.682 -1.508 -0.266
0.605 -1.411 -0.548
0.557 -1.374 -0.849
0.393 -1.62 -0.238
0.335 -1.517 -0.521
0.294 -1.476 -0.822
0.089 -1.677 -0.207
0.051 -1.57 -0.493
0.017 -1.528 -0.795
-0.22 -1.677 -0.176
-0.239 -1.57 -0.464
-0.265 -1.528 -0.767
-0.524 -1.62 -0.146
-0.523 -1.517 -0.435
-0.542 -1.476 -0.739
-0.813 -1.508 -0.117
-0.793 -1.411 -0.408
-0.805 -1.374 -0.713
-1.075 -1.344 -0.091
-1.039 -1.258 -0.384
-1.044 -1.224 -0.689
-1.304 -1.135 -0.069
-1.253 -1.062 -0.363
-1.252 -1.034 -0.668
-1.49 -0.887 -0.05
-1.428 -0.83 -0.345
-1.422 -0.808 -0.651
-1.628 -0.608 -0.036
-1.557 -0.57 -0.332
-1.548 -0.554 -0.639
-1.713 -0.31 -0.028
-1.636 -0.29 -0.324
-1.625 -0.282 -0.631
-1.742 0.0 -0.025
-1.663 0.0 -0.322
-1.651 0.0 -0.629
-1.713 0.31 -0.028
-1.636 0.29 -0.324
-1.625 0.282 -0.631
-1.628 0.608 -0.036
-1.557 0.57 -0.332
-1.548 0.554 -0.639
-1.49 0.887 -0.05
-1.428 0.83 -0.345
-1.422 0.808 -0.651
-1.304 1.135 -0.069
-1.253 1.062 -0.363
-1.252 1.034 -0.668
-1.075 1.344 -0.091
-1.039 1.258 -0.384
-1.044 1.224 -0.689
-0.813 1.508 -0.117
-0.793 1.411 -0.408
-0.805 1.374 -0.713
-0.524 1.62 -0.146
-0.523 1.517 -0.435
-0.542 1.476 -0.739
-0.22 1.677 -0.176
-0.239 1.57 -0.464
-0.265 1.528 -0.767
0.089 1.677 -0.207
0.051 1.57 -0.493
0.017 1.528 -0.795
0.393 1.62 -0.238
0.335 1.517 -0.521
0.294 1.476 -0.822
0.682 1.508 -0.266
0.605 1.411 -0.548
0.557 1.374 -0.849
0.945 1.344 -0.292
0.852 1.258 -0.572
0.796 1.224 -0.872
1.173 1.135 -0.315
1.066 1.062 -0.594
1.004 1.034 -0.893
1.36 0.887 -0.334
1.24 0.83 -0.611
1.174 0.808 -0.91
1.498 0.608 -0.348
1.369 0.57 -0.624
1.3 0.554 -0.923
1.582 0.31 -0.356
1.448 0.29 -0.632
1.377 0.282 -0.93
1.907 0.0 0.656
1.883 0.295 0.656
1.883 0.148 0.911
1.883 -0.148 0.911
1.883 -0.295 0.656
1.883 -0.148 0.4
1.883 0.148 0.4
1.814 0.505 0.947
1.814 0.292 1.161
1.814 -0.0 1.239
1.814 -0.292 1.161
1.814 -0.505 0.947
1.814 -0.583 0.656
1.814 -0.505 0.364
1.814 -0.292 0.15
1.814 -0.0 0.072
1.814 0.292 0.15
1.814 0.505 0.364
1.814 0.583 0.656
1.701 0.805 0.949
1.701 0.656 1.206
1.701 0.428 1.398
1.701 0.149 1.499
1.701 -0.149 1.499
1.701 -0.428 1.398
1.701 -0.656 1.206
1.701 -0.805 0.949
1.701 -0.857 0.656
1.701 -0.805 0.363
1.701 -0.656 0.105
1.701 -0.428 -0.087
1.701 -0.149 -0.188
1.701 0.149 -0.188
1.701 0.428 -0.087
1.701 0.656 0.105
1.701 0.805 0.363
1.701 0.857 0.656
1.546 1.072 0.943
1.546 0.961 1.21
1.546 0.784 1.44
1.546 0.555 1.616
1.546 0.287 1.727
1.546 0.0 1.765
1.546 -0.287 1.727
1.546 -0.555 1.616
1.546 -0.784 1.44
1.546 -0.961 1.21
1.546 -1.072 0.943
1.546 -1.109 0.656
1.546 -1.072 0.368
1.546 -0.961 0.101
1.546 -0.784 -0.129
1.546 0.784 -0.129
1.546 0.961 0.101
1.546 1.072 0.368
1.546 1.109 0.656
1.354 1.301 0.953
1.354 1.202 1.235
1.354 1.043 1.488
1.354 0.832 1.699
1.354 0.579 1.858
1.354 0.297 1.957
1.354 0.0 1.99
1.354 -0.297 1.957
1.354 -0.579 1.858
1.354 -0.832 1.699
1.354 -1.043 1.488
1.354 -1.202 1.235
1.354 -1.301 0.953
1.354 -1.335 0.656
1.354 -1.301 0.359
1.354 -1.202 0.077
1.354 -1.043 -0.177
1.354 1.043 -0.177
1.354 1.202 0.077
1.354 1.301 0.359
1.354 1.335 0.656
1.128 1.499 0.945
1.128 1.418 1.223
1.128 1.285 1.481
1.128 1.105 1.709
1.128 0.886 1.899
1.128 0.634 2.045
1.128 0.36 2.14
1.128 0.073 2.181
1.128 -0.217 2.167
1.128 -0.499 2.099
1.128 -0.764 1.978
1.128 -1.0 1.81
1.128 -1.2 1.6
1.128 -1.357 1.355
1.128 -1.465 1.086
1.128 -1.52 0.801
1.128 -1.52 0.51
1.128 -1.465 0.225
1.128 -1.357 -0.044
1.128 1.285 -0.17
1.128 1.418 0.088
1.128 1.499 0.367
1.128 1.527 0.656
0.876 1.656 0.948
0.876 1.58 1.231
0.876 1.456 1.496
0.876 1.288 1.737
0.876 1.081 1.944
0.876 0.841 2.112
0.876 0.575 2.236
0.876 0.292 2.312
0.876 0.0 2.337
0.876 -0.292 2.312
0.876 -0.575 2.236
0.876 -0.841 2.112
0.876 -1.081 1.944
0.876 -1.288 1.737
0.876 -1.456 1.496
0.876 -1.58 1.231
0.876 -1.656 0.948
0.876 -1.682 0.656
0.876 -1.656 0.364
0.876 -1.58 0.08
0.876 1.58 0.08
0.876 1.656 0.364
0.876 1.682 0.656
0.602 1.771 0.951
0.602 1.698 1.238
0.602 1.579 1.51
0.602 1.417 1.758
0.602 1.216 1.976
0.602 0.982 2.158
0.602 0.721 2.3
0.602 0.441 2.396
0.602 0.148 2.445
0.602 -0.148 2.445
0.602 -0.441 2.396
0.602 -0.721 2.3
0.602 -0.982 2.158
0.602 -1.216 1.976
0.602 -1.417 1.758
0.602 -1.579 1.51
0.602 -1.698 1.238
0.602 -1.771 0.951
0.602 -1.795 0.656
0.602 -1.771 0.36
0.602 -1.698 0.073
0.602 1.698 0.073
0.602 1.771 0.36
0.602 1.795 0.656
0.314 1.841 0.947
0.314 1.773 1.232
0.314 1.661 1.502
0.314 1.508 1.751
0.314 1.318 1.974
0.314 1.096 2.164
0.314 0.846 2.317
0.314 0.576 2.429
0.314 0.292 2.497
0.314 -0.0 2.52
0.314 -0.292 2.497
0.314 -0.576 2.429
0.314 -0.846 2.317
0.314 -1.096 2.164
0.314 -1.318 1.974
0.314 -1.508 1.751
0.314 -1.661 1.502
0.314 -1.773 1.232
0.314 -1.841 0.947
0.314 -1.864 0.656
0.314 -1.841 0.364
0.314 -1.773 0.08
0.314 1.773 0.08
0.314 1.841 0.364
0.314 1.864 0.656
0.019 1.865 0.944
0.019 1.8 1.225
0.019 1.692 1.493
0.019 1.544 1.742
0.019 1.36 1.964
0.019 1.144 2.157
0.019 0.902 2.314
0.019 0.638 2.432
0.019 0.359 2.509
0.019 0.072 2.542
0.019 -0.216 2.531
0.019 -0.5 2.476
0.019 -0.772 2.378
0.019 -1.026 2.24
0.019 -1.256 2.065
0.019 -1.456 1.857
0.019 -1.622 1.62
0.019 -1.751 1.361
0.019 -1.838 1.086
0.019 -1.882 0.8
0.019 -1.882 0.511
0.019 -1.838 0.226
0.019 -1.751 -0.05
0.019 1.8 0.086
0.019 1.865 0.367
0.019 1.888 0.656
-0.276 1.864 0.656
-0.276 1.841 0.947
-0.276 1.773 1.232
-0.276 1.661 1.502
-0.276 1.508 1.751
-0.276 1.318 1.974
-0.276 1.096 2.164
-0.276 0.846 2.317
-0.276 0.576 2.429
-0.276 0.292 2.497
-0.276 -0.0 2.52
-0.276 -0.292 2.497
-0.276 -0.576 2.429
-0.276 -0.846 2.317
-0.276 -1.096 2.164
-0.276 -1.318 1.974
-0.276 -1.508 1.751
-0.276 -1.661 1.502
-0.276 -1.773 1.232
-0.276 -1.841 0.947
-0.276 -1.864 0.656
-0.276 -1.841 0.364
-0.276 -1.773 0.08
-0.276 1.773 0.08
-0.276 1.841 0.364
-0.564 1.795 0.656
-0.564 1.771 0.951
-0.564 1.698 1.238
-0.564 1.579 1.51
-0.564 1.417 1.758
-0.564 1.216 1.976
-0.564 0.982 2.158
-0.564 0.721 2.3
-0.564 0.441 2.396
-0.564 0.148 2.445
-0.564 -0.148 2.445
-0.564 -0.441 2.396
-0.564 -0.721 2.3
-0.564 -0.982 2.158
-0.564 -1.216 1.976
-0.564 -1.417 1.758
-0.564 -1.579 1.51
-0.564 -1.698 1.238
-0.564 -1.771 0.951
-0.564 -1.795 0.656
-0.564 -1.771 0.36
-0.564 -1.698 0.073
-0.564 1.698 0.073
-0.564 1.771 0.36
-0.838 1.682 0.656
-0.838 1.656 0.948
-0.838 1.58 1.231
-0.838 1.456 1.496
-0.838 1.288 1.737
-0.838 1.081 1.944
-0.838 0.841 2.112
-0.838 0.575 2.236
-0.838 0.292 2.312
-0.838 0.0 2.337
-0.838 -0.292 2.312
-0.838 -0.575 2.236
-0.838 -0.841 2.112
-0.838 -1.081 1.944
-0.838 -1.288 1.737
-0.838 -1.456 1.496
-0.838 -1.58 1.231
-0.838 -1.656 0.948
-0.838 -1.682 0.656
-0.838 -1.656 0.364
-0.838 -1.58 0.08
-0.838 1.58 0.08
-0.838 1.656 0.364
-1.09 1.527 0.656
-1.09 1.499 0.945
-1.09 1.418 1.223
-1.09 1.285 1.481
-1.09 1.105 1.709
-1.09 0.886 1.899
-1.09 0.634 2.045
-1.09 0.36 2.14
-1.09 0.073 2.181
-1.09 -0.217 2.167
-1.09 -0.499 2.099
-1.09 -0.764 1.978
-1.09 -1.0 1.81
-1.09 -1.2 1.6
-1.09 -1.357 1.355
-1.09 -1.465 1.086
-1.09 -1.52 0.801
-1.09 -1.52 0.51
-1.09 -1.465 0.225
-1.09 1.418 0.088
-1.09 1.499 0.367
-1.316 1.335 0.656
-1.316 1.301 0.953
-1.316 1.202 1.235
-1.316 1.043 1.488
-1.316 0.832 1.699
-1.316 0.579 1.858
-1.316 0.297 1.957
-1.316 0.0 1.99
-1.316 -0.297 1.957
-1.316 -0.579 1.858
-1.316 -0.832 1.699
-1.316 -1.043 1.488
-1.316 -1.202 1.235
-1.316 -1.301 0.953
-1.316 -1.335 0.656
-1.316 -1.301 0.359
-1.316 -1.202 0.077
-1.316 1.202 0.077
-1.316 1.301 0.359
-1.508 1.109 0.656
-1.508 1.072 0.943
-1.508 0.961 1.21
-1.508 0.784 1.44
-1.508 0.555 1.616
-1.508 0.287 1.727
-1.508 0.0 1.765
-1.508 -0.287 1.727
-1.508 -0.555 1.616
-1.508 -0.784 1.44
-1.508 -0.961 1.21
-1.508 -1.072 0.943
-1.508 -1.109 0.656
-1.508 -1.072 0.368
-1.508 -0.961 0.101
-1.508 0.961 0.101
-1.508 1.072 0.368
-1.663 0.857 0.656
-1.663 0.805 0.949
-1.663 0.656 1.206
-1.663 0.428 1.398
-1.663 0.149 1.499
-1.663 -0.149 1.499
-1.663 -0.428 1.398
-1.663 -0.656 1.206
-1.663 -0.805 0.949
-1.663 -0.857 0.656
-1.663 -0.805 0.363
-1.663 0.805 0.363
-1.776 0.583 0.656
-1.776 0.505 0.947
-1.776 0.292 1.161
-1.776 -0.0 1.239
-1.776 -0.292 1.161
-1.776 -0.505 0.947
-1.776 -0.583 0.656
-1.776 -0.505 0.364
-1.776 0.505 0.364
-1.845 0.295 0.656
-1.845 0.148 0.911
-1.845 -0.148 0.911
-1.845 -0.295 0.656
-1.845 -0.148 0.4
-1.776 -0.292 0.15
-1.776 0.292 0.15
-1.845 0.148 0.4
-1.868 -0.0 0.656
1.298 -0.294 -1.246
1.157 -0.653 -1.285
1.157 -0.426 -1.476
1.157 -0.148 -1.577
1.298 -0.0 -1.325
1.157 0.148 -1.577
1.298 0.294 -1.246
1.157 0.426 -1.476
1.157 0.653 -1.285
0.966 -0.996 -1.17
0.966 -0.842 -1.422
0.966 -0.626 -1.624
0.966 -0.363 -1.76
0.966 -0.074 -1.82
0.966 0.221 -1.8
0.966 0.499 -1.701
0.966 0.741 -1.53
0.966 0.927 -1.301
0.733 -1.199 -1.174
0.733 -1.066 -1.439
0.733 -0.876 -1.666
0.733 -0.638 -1.843
0.733 -0.366 -1.96
0.733 -0.074 -2.011
0.733 0.222 -1.994
0.733 0.506 -1.909
0.733 0.762 -1.761
0.733 0.978 -1.558
0.733 1.141 -1.31
0.468 -1.387 -1.032
0.468 -1.296 -1.314
0.468 -1.147 -1.571
0.468 -0.949 -1.791
0.468 -0.709 -1.965
0.468 -0.438 -2.086
0.468 -0.148 -2.148
0.468 0.148 -2.148
0.468 0.438 -2.086
0.468 0.709 -1.965
0.468 0.949 -1.791
0.468 1.147 -1.571
0.468 1.296 -1.314
0.733 1.242 -1.032
0.468 1.387 -1.032
0.18 -1.477 -1.031
0.18 -1.391 -1.313
0.18 -1.252 -1.574
0.18 -1.065 -1.802
0.18 -0.836 -1.989
0.18 -0.576 -2.128
0.18 -0.294 -2.214
0.18 0.0 -2.243
0.18 0.294 -2.214
0.18 0.576 -2.128
0.18 0.836 -1.989
0.18 1.065 -1.802
0.18 1.252 -1.574
0.18 1.391 -1.313
0.18 1.477 -1.031
-0.12 -1.473 -1.17
-0.12 -1.364 -1.441
-0.12 -1.207 -1.686
-0.12 -1.005 -1.897
[...]
CELL_DATA 1198
SCALARS cell_data_0 double
LOOKUP_TABLE default
1.01393939063e-09
1.57211067302e-08
1.30617454629e-08
9.73135475734e-09
1.71345311003e-08
1.10376088335e-08
6.722418507e-09
6.41525797061e-09
7.87925595577e-10
1.93889088462e-09
8.0618773216e-09
5.51921160682e-09
4.9717256821e-10
2.07621233564e-10
2.47892962397e-09
2.27801620444e-09
3.99488001017e-10
5.19563823036e-10
4.29576558699e-10
2.65029492974e-10
1.93919011114e-11
5.09484598231e-11
8.80635201483e-11
6.94136189287e-11
4.65024926244e-12
6.76689516257e-11
1.61129228468e-10
1.14954905446e-10
1.76299781999e-10
9.88475576524e-11
1.04550374285e-10
9.18023430177e-11
2.67942571085e-10
5.468169547e-11
4.65242983092e-10
1.11044927509e-10
3.27448336183e-10
2.8632649506e-10
3.30315905843e-10
2.33991759786e-10
3.28932537024e-10
1.21075096273e-10
4.56198064615e-10
4.19004222283e-10
5.19568854396e-10
2.91089399147e-10
7.03543954535e-10
3.25114242812e-10
7.26084578967e-10
1.22480860286e-10
5.98290713987e-10
1.15680511143e-09
8.58451384436e-10
2.54125106456e-10
1.09459660031e-09
9.54657367152e-10
6.72777394572e-10
3.65670816944e-10
6.99515689345e-10
4.26653159599e-10
6.27923227229e-10
2.09588177521e-10
5.89174306587e-10
1.68072502724e-10
7.7819000799e-10
7.20266257657e-10
9.96534558474e-10
3.46848143614e-10
9.07335516189e-10
3.87679430414e-10
7.14000056931e-10
5.63060007668e-10
6.59656303333e-10
5.7270116113e-10
7.87960940639e-10
1.85011732159e-10
5.66889616549e-10
1.66686893694e-10
4.68456097334e-10
6.89223775922e-10
8.40132543797e-10
1.45732184019e-10
1.12713349253e-09
3.84245033886e-10
7.07255424822e-10
2.49530578546e-10
4.97153212158e-10
1.35395473842e-10
4.62637928739e-10
2.46492672509e-10
7.09725882144e-10
2.35420268641e-10
3.48452180487e-10
1.80872435691e-10
4.09288811964e-10
2.50236150715e-10
1.9802931618e-10
8.26072610381e-11
3.62818539781e-10
2.19377803076e-10
2.00368427684e-10
1.21420094332e-10
3.34686916183e-10
1.02162731669e-10
1.50966047351e-11
1.69993000671e-11
1.13509726733e-10
3.88033575125e-10
6.62977857037e-11
1.09774772013e-10
3.03879878048e-10
2.08636281616e-10
2.2896848257e-11
4.13064044682e-11
6.73772957037e-11
2.96795326543e-11
6.46371275453e-11
1.06855030809e-10
2.10606842962e-10
5.7780280472e-10
4.15000176253e-10
5.65615477098e-10
8.66163990051e-10
1.17606662231e-09
1.30641374602e-09
2.5463090815e-10
3.72730516085e-09
4.38135781506e-10
1.3457577059e-10
1.54109646568e-09
3.4947741525e-09
1.29715964654e-09
1.91767237706e-09
8.19815565931e-10
8.24381275401e-09
7.26563004615e-09
7.11359541061e-11
8.18528917204e-12
3.99500920219e-11
2.20604877284e-11
1.21355473993e-10
3.11650818153e-11
2.02274938773e-11
6.80107045985e-12
2.29925074618e-11
7.73370306682e-11
8.87070180744e-12
1.23842850289e-11
1.37756083626e-11
1.24619630619e-11
3.65265613694e-11
1.01179371104e-10
2.16609736107e-10
5.37561528018e-10
4.14116084161e-11
1.53618869978e-11
2.3195172731e-10
1.27073308531e-10
5.64237603652e-11
6.55071056195e-11
4.9085833082e-12
2.55561881815e-11
7.62352001579e-11
3.76593778324e-11
1.04292460652e-11
6.65869973607e-12
1.21323909684e-11
4.3916750179e-11
4.00761253622e-11
7.80246116093e-12
1.38326147351e-11
3.13676179949e-11
6.28534327572e-11
3.21038889733e-11
8.92345797682e-11
1.60943127253e-10
1.49018267783e-10
3.09121426007e-10
2.05062103825e-10
4.72329413245e-10
3.57814909402e-11
8.18079057274e-10
2.62703899913e-10
3.80373560416e-10
6.76348530268e-11
5.87084061507e-11
8.54477803181e-12
1.01649912694e-11
1.69812812161e-12
3.45406662384e-12
8.86863165895e-12
7.35787437348e-12
2.8859951284e-11
3.07164895646e-12
3.14024491704e-11
8.60548577707e-11
4.29681819742e-12
7.21345779578e-12
1.10894120106e-11
6.6363457879e-13
1.10324200332e-11
1.59862237315e-13
4.25959265962e-11
1.76486458037e-11
2.1801763328e-11
4.77172788881e-13
3.32516379667e-11
3.86743662399e-11
4.33361344915e-11
9.96012811425e-11
1.91788920865e-11
2.21602487031e-10
9.38463162513e-11
2.86314671371e-10
4.60861717121e-10
1.6357808729e-10
6.60152857325e-11
9.33189875227e-12
3.5822276438e-11
8.60695268794e-12
2.16216532471e-11
1.42977202468e-12
1.76710841384e-11
1.24391614915e-12
1.5666067755e-11
1.07849936337e-12
1.96946362318e-11
1.21045890925e-11
1.86804174612e-11
6.13166411238e-11
3.56760937655e-11
7.75063576483e-11
9.70566277946e-13
7.55104675164e-11
9.35065021116e-11
1.41189995252e-11
3.98531854642e-11
2.93032603458e-11
4.38532070947e-11
2.76500329284e-11
3.30296971503e-11
1.19486954242e-11
1.82494293624e-11
1.66252938505e-12
2.77274524941e-11
2.00508399604e-11
6.55269116086e-11
2.22184210188e-11
2.14098051596e-11
4.83932607768e-11
1.78056533464e-11
3.27793729938e-10
3.47047633403e-10
3.03544502261e-10
6.78085327076e-11
3.20114899626e-12
2.81666228995e-11
1.26487175606e-11
1.19612292e-11
2.03958838591e-11
1.83794763477e-11
2.79674257396e-12
3.24275149232e-12
4.81595826483e-12
3.76986360365e-12
3.53837174875e-12
2.20530748326e-12
1.22805720938e-11
5.21235909102e-12
7.1911456107e-11
1.53289756269e-11
1.28232774667e-10
1.47059170952e-10
3.60234904622e-11
4.55271187951e-11
1.85939186135e-11
6.30885081951e-12
1.10256146913e-11
4.24763136958e-11
1.57253683971e-11
1.75865362626e-11
2.65811388787e-11
3.7517805711e-11
6.05932337419e-11
2.11692962415e-11
2.00120889112e-11
2.03761561983e-11
1.7187338105e-12
2.57055319725e-11
7.1058428764e-12
6.96508417723e-12
1.14192001149e-11
1.06742396249e-10
1.01540286024e-10
1.89044652931e-10
1.26616989672e-10
1.01932180843e-12
4.08533541189e-11
8.78229287482e-12
1.60936762258e-11
9.13490222885e-12
8.91124155022e-13
1.26147356015e-11
4.11754696977e-12
7.86473361605e-12
3.19416422568e-12
6.28074359952e-12
6.26520476012e-13
1.69517026472e-12
3.9124582498e-12
6.7764113536e-12
7.1112538795e-12
2.12750506735e-11
4.92348088916e-11
3.19678351116e-11
2.19422921302e-11
2.71737965379e-11
3.14483099563e-11
4.60504000013e-12
7.51062043229e-13
1.10097254135e-11
2.51061381583e-11
3.78486260566e-12
4.1133139689e-11
7.76418728357e-11
9.74642015091e-12
4.2706745027e-11
2.09059792274e-11
2.98628331444e-11
1.33090668262e-11
2.80047708721e-12
8.47812715086e-12
6.23408851555e-12
1.24042571021e-12
8.89941312935e-12
1.4927384874e-11
1.39594295092e-11
2.37222081736e-11
5.41011978953e-11
3.75046456519e-11
1.44676643608e-10
1.54380164776e-11
7.38999232474e-12
3.37256180492e-11
7.23056955014e-13
2.05885353743e-11
6.89658262509e-12
1.12271331989e-11
1.35701974889e-12
1.86867186325e-12
1.82413729155e-12
6.89674495055e-12
2.43855012763e-12
2.03196479502e-12
1.59020572127e-12
1.07640555247e-11
1.21044109604e-11
2.19957579233e-12
2.82345729002e-11
9.99797165317e-12
1.54402858251e-12
1.38062966981e-11
1.1518960835e-11
2.5374680776e-12
8.2635711822e-12
1.98646796677e-11
2.76852773088e-11
1.78602528476e-11
3.16658806639e-11
1.88948319387e-11
1.68845805897e-11
1.04517267427e-11
2.31076355213e-11
7.36232649748e-12
6.76214227396e-12
1.50833724052e-12
3.56728257172e-12
2.00995417475e-11
1.10951231422e-11
1.16470482149e-11
2.23410332983e-13
1.29626617115e-11
1.51828082298e-11
1.16225659876e-11
1.30082942032e-11
3.47463186475e-11
1.31902967501e-11
8.30213196933e-12
6.1801718403e-12
1.46721463984e-11
1.26454044619e-11
2.79911780634e-12
2.30856187693e-13
4.70153045735e-13
1.06882525548e-11
3.27420521969e-12
5.81611206095e-12
3.07308204269e-13
7.05567972406e-12
2.0407851368e-13
5.10060920661e-12
1.87916197482e-12
8.27126596968e-12
1.02728616006e-11
3.14969093472e-12
8.56904100884e-12
2.17385374443e-12
8.70058367673e-12
6.62435364424e-12
1.67706343726e-12
1.13979712369e-11
4.14409202025e-12
1.91895571124e-12
2.62124224167e-11
3.57134419412e-12
1.01779143461e-11
1.07161536121e-11
8.41276668311e-12
4.99464366858e-12
1.95712963429e-12
1.07615789447e-12
2.55663690368e-12
1.5302932912e-11
6.62286983625e-12
9.23253474262e-12
8.90533407708e-13
2.25472779559e-11
1.52530390674e-11
3.75959167797e-12
5.0455722158e-12
1.56908941447e-11
1.95064230981e-11
3.24890316378e-12
2.24681620906e-13
8.91249579333e-12
9.86368917073e-12
4.46181307333e-12
1.86819078873e-11
4.77639682088e-12
1.15378672099e-11
6.00113798814e-12
2.26374687119e-12
1.85820936843e-12
8.74808412021e-12
2.49448682617e-12
6.38218668343e-12
3.87888068351e-12
4.10416749789e-12
3.70476024851e-12
7.26269630738e-12
3.7313223006e-12
3.61126271603e-12
7.49618322162e-12
1.68397062206e-13
5.1253096589e-13
3.73506343562e-12
2.93909787722e-12
1.31201715212e-12
1.10308225712e-12
4.98150675291e-12
8.97000129801e-12
1.90474898658e-12
1.23574740987e-11
1.8335277072e-12
2.7566799388e-12
4.37182354343e-12
2.13442693913e-14
1.28544260921e-12
4.97151458202e-12
8.13300143867e-12
5.18644700464e-12
3.48346034021e-12
7.4329184864e-12
8.12079727003e-12
4.06820251692e-13
1.06058759596e-12
2.21868618582e-12
1.19000155047e-11
3.44755630645e-11
1.34552230362e-10
2.01540551391e-10
2.74773823819e-10
4.5084628116e-12
4.72846122592e-12
1.62925592765e-12
5.2892735875e-12
6.97671597846e-13
8.96575463918e-12
3.203572042e-12
4.69661187794e-12
7.93222371366e-12
2.14822188936e-12
1.69553756337e-12
7.27522883932e-12
2.17395926031e-12
6.49194222393e-12
1.09603373272e-12
5.70089292017e-12
6.93193696497e-12
1.22316526803e-12
2.0772466256e-12
1.07538315673e-11
1.16787303172e-12
1.3295980518e-12
1.24664007541e-11
7.93983146366e-12
2.65467363373e-12
4.81813006827e-12
6.20950273737e-12
3.73494125178e-12
7.73622131539e-12
1.52427748192e-11
8.90194584961e-13
4.02585572045e-12
1.26682946497e-11
2.3062088652e-13
5.47094838163e-12
7.55498433895e-12
2.42840886019e-12
6.64701883736e-12
1.92330022707e-12
3.59823095468e-12
2.1051414912e-12
6.54450174459e-12
3.85934049608e-12
1.84878779249e-12
3.33247219594e-12
3.46761188591e-11
1.1828720903e-11
2.26562993209e-10
2.87781446292e-10
2.54552081311e-10
4.21668707455e-11
1.0284704579e-11
6.85861627012e-12
9.86232513141e-14
3.64149942585e-12
2.25290460703e-12
3.53530870431e-12
8.98479717346e-13
6.0863997516e-12
8.81416853864e-13
2.76462908562e-12
2.09956156233e-12
8.01782895149e-12
1.31210012007e-12
5.22841509882e-12
9.11443244396e-13
5.25255206838e-12
1.02761762505e-12
6.77384597548e-12
2.55782514759e-12
2.24015263425e-12
3.21935071397e-12
1.49979248634e-12
3.32738959166e-12
3.04703999159e-12
1.26232979701e-13
4.88050728599e-12
4.59912254614e-12
1.06484144406e-12
8.13619285106e-12
2.28065697285e-12
1.15184244402e-12
5.38379430355e-12
7.56079222585e-12
2.37409874131e-12
7.34085175452e-13
8.51572199916e-13
1.77374561829e-12
4.5741205484e-12
6.94206574487e-13
2.20781638792e-13
3.43696161481e-12
6.25164027635e-12
1.41005754337e-11
2.59547261992e-11
3.63611972582e-12
1.00308725873e-12
9.2573786939e-11
1.19789189002e-11
1.0314167998e-11
9.32362979771e-12
2.18273146524e-12
8.56239757956e-13
2.60226689947e-13
1.83585480351e-12
2.15269585474e-12
9.12109233825e-13
3.93728531488e-12
1.46430004786e-12
1.04422099174e-12
1.22599501841e-13
1.72824965124e-12
1.30009030172e-12
4.5696762936e-12
3.58825837957e-12
1.31349582196e-12
8.44042997154e-12
2.4777093062e-12
3.50935668459e-13
3.45613040397e-12
1.33944209541e-12
2.4430162121e-12
3.00910301639e-12
9.61629676532e-12
8.49904158437e-12
7.01970443132e-12
5.45355848946e-12
9.01395398281e-12
1.02586390433e-11
1.0788255313e-12
5.14566159761e-12
1.47325990532e-12
6.49465803096e-13
2.73460747543e-12
9.55719549939e-13
6.94862609558e-13
1.29386688565e-12
1.01167182927e-11
1.74789740769e-11
7.6464328551e-11
3.34855157488e-11
3.17490862081e-10
1.58989888062e-10
1.56287612082e-11
5.15100384313e-11
4.0119344312e-12
1.33116433695e-11
2.33953152315e-12
3.62695779486e-12
2.53172268729e-12
2.60418972502e-12
1.40634236425e-12
1.07813979132e-12
1.36352451433e-12
2.32332379026e-12
1.4454009627e-12
7.70697301293e-13
1.72925598157e-12
8.80221793805e-12
1.0358437989e-11
7.79096665643e-12
5.13599637459e-12
8.60229641638e-12
4.54851692043e-12
1.72968268322e-12
3.28809702232e-12
2.29038641464e-12
5.15879341686e-12
5.88388997592e-12
1.54150401335e-12
6.27077408359e-12
4.94120500804e-12
8.3221455256e-12
1.06079353932e-12
4.57739981909e-13
3.54733361785e-13
1.13479376425e-12
9.00238327046e-13
3.06475560733e-12
1.24045391524e-11
4.94708013397e-11
1.73655922268e-11
1.60699579859e-10
2.51669087684e-11
2.36984934087e-10
2.76079232596e-11
8.66829935423e-11
2.94452858278e-11
1.76863344145e-11
2.03461890519e-12
5.33451055951e-12
2.39188272204e-12
2.1309046322e-12
2.39418380443e-13
8.98810671711e-13
1.11721514603e-12
3.06499751195e-12
2.59655735418e-12
2.69149426381e-12
9.617423187e-12
2.626590382e-12
1.04143689838e-12
2.20515179104e-12
6.8576326608e-12
3.67609449013e-12
5.55382621068e-12
8.91949046514e-13
2.46070144568e-12
8.14250862839e-12
6.56335841745e-13
3.24049310902e-12
9.57417569911e-12
1.51730761838e-12
1.30907847946e-12
9.72579328358e-13
8.28918715441e-13
6.25332134614e-12
2.38027170292e-11
5.02258153789e-11
5.9119627279e-11
1.2152285762e-10
1.02995893071e-10
2.99305727045e-10
6.47863049746e-11
1.0562809979e-10
6.3767431569e-12
1.96912539612e-11
8.36536151688e-12
8.95143418052e-12
1.45080900108e-12
5.95800312872e-13
1.29002077682e-12
3.38534081547e-12
2.75115001559e-12
4.54048623405e-12
3.65569387359e-12
1.56510407634e-12
8.21122006671e-12
6.80078186519e-14
1.23546080271e-12
6.99864147882e-12
4.56236976876e-13
1.65677181569e-12
5.49278214828e-12
9.74563319016e-13
1.12863783816e-12
8.26589385199e-13
1.32854223937e-12
2.92014162187e-12
7.91731097861e-12
3.68748529584e-12
5.12118474462e-12
5.02357478216e-11
1.55145080124e-10
2.126201186e-10
6.15169804365e-10
5.354715253e-10
7.61442643783e-11
1.5929356785e-10
5.10498870109e-11
4.10515269638e-11
6.49595092302e-12
1.46894708745e-11
2.58537041613e-12
2.10234766745e-12
1.5972048081e-12
1.26874790336e-12
1.67820103433e-12
5.07959246404e-12
5.01410819752e-13
4.5923033323e-12
3.94249458866e-13
4.15248742373e-12
1.97546726836e-12
1.61470320487e-12
1.52962358312e-12
2.14364498947e-12
3.54889398665e-12
1.43731345052e-11
1.90640831853e-11
5.1865885263e-11
2.01616300682e-11
1.903796549e-10
4.87123134826e-11
3.811016876e-11
1.34136649133e-10
6.67213148369e-12
8.16837085171e-11
1.78087347829e-11
3.77404719157e-11
1.00272773458e-11
7.03722131498e-12
2.04951885199e-12
8.94479139717e-14
1.70671611547e-12
8.95904208818e-13
1.27128660169e-12
5.70243967433e-12
7.39871897359e-12
3.44195989678e-11
1.5916283058e-11
8.97551540064e-11
2.02062306014e-11
1.92449791579e-10
4.16689711735e-11
3.36914043721e-11
2.55414763281e-12
9.54157534746e-12
1.78362866952e-11
3.86038399563e-11
7.55491315015e-11
8.16375286938e-11
1.12280291985e-10
2.54172456587e-10
4.08132916144e-10
4.49932454154e-10
1.10684917692e-09
2.39804047088e-10
6.46817238001e-11
1.61270970635e-10
4.59678644431e-11
8.67136093214e-11
1.48684074027e-11
3.51157898378e-10
9.83343689843e-10
3.26312984177e-10
7.61822442606e-11
1.24565377644e-10
4.8402703554e-10
4.56216328171e-10
7.56614750627e-10
7.02361257564e-10
3.78757466002e-10
5.05596336478e-10
2.0566138102e-10
2.18876677535e-12
3.89291370934e-10
1.69524722765e-10
1.2252529824e-10
4.81137849281e-11
3.24110869873e-11
7.8164894147e-11
7.65691339529e-11
2.83336976469e-10
4.41503284664e-12
3.67167061732e-10
2.54969324841e-10
2.65138754318e-10
7.65255824152e-11
1.39996656851e-10
1.72755021439e-12
3.58886350812e-11
1.51435776721e-11
4.91040277221e-11
5.66256269858e-11
3.20746142166e-10
1.86853149715e-10
1.41607350072e-10
5.58461713553e-10
9.51335707366e-10
2.32519141167e-10
1.13358842131e-09
2.63959945622e-10
4.58874687502e-10
4.93502598208e-10
9.5983335834e-10
6.3744003306e-10
2.00234286175e-09
5.26823210792e-10
6.13701939871e-11
2.31519658003e-10
2.18567532762e-10
5.54417918508e-11
4.95020542176e-11
1.02856596614e-11
1.79038909333e-11
6.48939421913e-13
1.95869550551e-11
2.02658064598e-11
1.74974777309e-11
1.28924165593e-10
4.87748836178e-11
1.37225817262e-10
7.76544239066e-12
2.18171014222e-10
2.47066984505e-11
2.9393327335e-10
3.32972616261e-11
4.39557102879e-11
3.56548972887e-10
1.04567729459e-10
2.50303466529e-10
1.57388258493e-10
3.6649588011e-10
7.78412573839e-11
2.43940742865e-10
2.36923739189e-10
1.3195128762e-10
4.34094562509e-10
4.72241685088e-10
1.62290886826e-08
3.43968038264e-08
3.02572139282e-08
1.66202476402e-08
2.50489728179e-09
1.07581856959e-09
1.88237363528e-08
8.57448127121e-09
3.7731161234e-09
8.63725523178e-09
4.10564092299e-09
8.90352513488e-09
8.22007633658e-09
2.20386114717e-08
1.5088332485e-08
6.49214436702e-09
2.22526277982e-09
5.58404042745e-09
6.04586647331e-09
1.04761192886e-09
3.81709402417e-10
1.9563156184e-10
6.2663455041e-10
1.39835370782e-09
1.20253967781e-10
3.04247083345e-09
9.98591088547e-10
1.0337604557e-09
3.58579941848e-10
6.55477641688e-10
1.51549502055e-09
3.8229192899e-10
3.23462708218e-09
2.24124438426e-09
1.29568315723e-09
1.11848026841e-09
1.45105003053e-09
6.85312638925e-10
1.04907798766e-10
4.75242745147e-10
9.26581222093e-11
5.27249643953e-10
6.76068938466e-10
7.27777533583e-10
7.12940933e-10
6.51705370492e-10
1.81293493736e-09
1.9242927908e-09
3.69277393313e-10
1.65512430484e-09
3.60606015436e-10
1.60321053746e-09
1.40940230619e-09
5.08145063019e-10
1.72783543286e-09
3.92145718185e-10
5.2531108621e-10
3.59170982531e-10
1.20753209869e-11
6.09923060892e-11
3.49384818431e-11
7.53788765231e-11
4.33814215091e-10
8.44645936774e-11
4.34685809866e-10
1.58582281353e-10
9.10918258192e-11
5.44072145783e-12
2.05263558772e-11
2.15686965556e-10
8.95321362997e-11
1.42096783438e-10
6.32163006305e-11
2.1567906982e-10
3.88430501822e-11
1.3352654895e-10
6.38776329664e-11
9.33357346559e-11
5.638223119e-11
6.60720489055e-11
9.04054251051e-11
8.87692995462e-12
9.67130071195e-11
1.28284164485e-11
2.18322623701e-10
1.92748351518e-10
9.32707307295e-10
3.92852444251e-10
4.45466934035e-10
3.45832578928e-10
2.09852551146e-10
1.65059515511e-10
1.11729390876e-10
1.1412048388e-10
1.57579364006e-10
3.05989614799e-11
1.85836656689e-11
7.83753677983e-11
9.60205233296e-11
8.70283021055e-11
3.4913773237e-11
1.25457421588e-11
8.51545649883e-11
6.68847997674e-12
7.70119336641e-11
1.26297052074e-11
2.94602118909e-11
4.07208639333e-11
3.75568084414e-11
4.35625182403e-11
9.68804229725e-11
9.25819476741e-12
2.35916296336e-10
2.57428516956e-10
3.0243450038e-10
2.74513414884e-10
2.18540139504e-10
6.94577963576e-11
1.52108758624e-10
1.19082055588e-10
7.26028148213e-11
2.41863547187e-10
1.86283796498e-10
5.17384115486e-11
1.4997520887e-11
1.79708129196e-10
1.6299678347e-10
9.68878090969e-11
3.04252779588e-11
1.70666125215e-10
3.24584413349e-11
2.52132892186e-11
9.1494616618e-12
1.14686477934e-10
1.17057970279e-12
9.69572750749e-11
7.21597625538e-11
3.26142719424e-11
2.58934609464e-11
1.01704993251e-10
9.71308226867e-11
2.46461178623e-11
1.55812381776e-10
1.75663239616e-10
2.31488262997e-10
2.69686198117e-10
3.25949732595e-10
1.41210026848e-11
1.76051903905e-10
4.87127044065e-11
1.26849747941e-10
3.76942174113e-10
1.42568223892e-10
2.53001506616e-10
2.98786072761e-10
7.90721803313e-11
2.47025443574e-10
2.19346594803e-11
2.97039661823e-10
7.07991858696e-11
1.61998063997e-10
1.31854708249e-10
6.30429070757e-11
9.91209991876e-11
8.69832526783e-11
3.89415397909e-12
2.2507881439e-11
1.76256254047e-11
4.47872066273e-11
2.01301768159e-10
1.23071360768e-10
6.45889884107e-11
1.09893300584e-10
9.88737170513e-12
6.59428615572e-11
6.55277482831e-11
3.0463546798e-10
1.44467502673e-10
2.84527372108e-10
2.95016121498e-10
3.36583322345e-10
3.19042566959e-10
4.93128190958e-10
5.17232045518e-10
4.18175935565e-10
1.02459767111e-10
3.87845218048e-10
4.47226261368e-10
5.58837240065e-11
9.22400084881e-11
1.20899428629e-10
1.07919387518e-10
1.41207820354e-10
5.36037230804e-11
1.21594794788e-12
1.23241112231e-10
2.62675155122e-10
2.75487308286e-10
5.20354725245e-10
3.9768224741e-11
2.65423690599e-10
1.16169425719e-10
4.64181169002e-10
4.27601788254e-10
4.23209984466e-10
1.64165778495e-13
3.23800505172e-10
4.29682368235e-10
2.31527715621e-10
9.32107133622e-11
3.89293470313e-10
3.94750467523e-10
4.36393878276e-10
4.45536655382e-10
9.12317019962e-11
4.55843736739e-11
7.15833403791e-11
1.63750080034e-10
9.64676687852e-11
6.61248828363e-10
3.01227288458e-11
4.82914156506e-10
1.83617352691e-10
3.86228249336e-10
3.01013055026e-10
7.06427382368e-10
3.82543246423e-10
1.01659494247e-09
3.31148163772e-10
6.47049756465e-11
3.24014175184e-10
4.06841118255e-11