# vtk DataFile Version 3.0
File Name: Molecule/methanol/methanol_2.0-1.vtk
ASCII
DATASET UNSTRUCTURED_GRID
FIELD FieldData 1
TIME 1 1 double
0.0
POINTS 99 double
1.611 0.0 -0.359
1.445 -0.731 -0.342
1.403 0.0 -0.933
1.252 -0.666 -0.918
0.98 -1.317 -0.296
0.828 -1.2 -0.876
0.308 -1.642 -0.229
0.216 -1.496 -0.815
-0.438 -1.642 -0.155
-0.464 -1.496 -0.747
-1.11 -1.317 -0.088
-1.076 -1.2 -0.686
-1.576 -0.731 -0.042
-1.5 -0.666 -0.644
-1.742 0.0 -0.025
-1.651 0.0 -0.629
-1.576 0.731 -0.042
-1.5 0.666 -0.644
-1.11 1.317 -0.088
-1.076 1.2 -0.686
-0.438 1.642 -0.155
-0.464 1.496 -0.747
0.308 1.642 -0.229
0.216 1.496 -0.815
0.98 1.317 -0.296
0.828 1.2 -0.876
1.445 0.731 -0.342
1.252 0.666 -0.918
1.907 0.0 0.656
1.763 0.722 0.656
1.763 0.361 1.281
1.763 -0.361 1.281
1.763 -0.722 0.656
1.763 -0.361 0.03
1.763 0.361 0.03
1.354 1.123 1.377
1.354 0.554 1.87
1.354 -0.19 1.977
1.354 -0.874 1.664
1.354 -1.281 1.032
1.354 -1.281 0.28
1.354 1.335 0.656
0.741 1.571 1.412
0.741 1.087 2.019
0.741 0.388 2.356
0.741 -0.388 2.356
0.741 -1.087 2.019
0.741 -1.571 1.412
0.741 -1.744 0.656
0.741 1.744 0.656
0.019 1.744 1.378
0.019 1.335 1.99
0.019 0.722 2.399
0.019 -0.0 2.543
0.019 -0.722 2.399
0.019 -1.335 1.99
0.019 -1.744 1.378
0.019 -1.888 0.656
0.019 1.888 0.656
-0.703 1.744 0.656
-0.703 1.571 1.412
-0.703 1.087 2.019
-0.703 0.388 2.356
-0.703 -0.388 2.356
-0.703 -1.087 2.019
-0.703 -1.571 1.412
-0.703 -1.744 0.656
-1.316 1.335 0.656
-1.316 1.123 1.377
-1.316 0.554 1.87
-1.316 -0.19 1.977
-1.316 -0.874 1.664
-1.316 -1.281 1.032
-1.725 0.722 0.656
-1.725 0.361 1.281
-1.725 -0.361 1.281
-1.725 -0.722 0.656
-1.868 0.0 0.656
1.21 -0.384 -1.402
0.648 -0.871 -1.742
0.648 -0.189 -2.053
-0.12 -1.149 -1.755
-0.12 -0.544 -2.172
-0.12 0.185 -2.261
0.648 0.552 -1.946
-0.12 0.872 -2.0
0.648 1.118 -1.456
-0.12 1.359 -1.451
-0.887 -1.276 -1.112
-0.887 -0.871 -1.742
-0.887 -0.189 -2.053
-0.887 0.552 -1.946
-0.887 1.118 -1.456
-1.449 -0.384 -1.402
-1.449 0.384 -1.402
1.21 0.384 -1.402
0.929 0.0975 -1.7275
0.929 0.468 -1.674
0.648 0.1815 -1.9995

CELLS 194 776
3 0 1 2
3 2 1 3
3 1 4 3
3 3 4 5
3 4 6 5
3 5 6 7
3 6 8 7
3 7 8 9
3 8 10 9
3 9 10 11
3 10 12 11
3 11 12 13
3 12 14 13
3 13 14 15
3 14 16 15
3 15 16 17
3 16 18 17
3 17 18 19
3 18 20 19
3 19 20 21
3 20 22 21
3 21 22 23
3 22 24 23
3 23 24 25
3 24 26 25
3 25 26 27
3 26 0 27
3 27 0 2
3 28 29 30
3 28 30 31
3 28 31 32
3 28 32 33
3 28 33 34
3 28 34 29
3 30 29 35
3 30 35 36
3 30 36 37
3 31 30 37
3 31 37 38
3 31 38 39
3 32 31 39
3 32 39 40
3 33 32 40
3 29 41 35
3 35 41 42
3 35 42 43
3 36 35 43
3 36 43 44
3 37 36 44
3 37 44 45
3 38 37 45
3 38 45 46
3 38 46 47
3 39 38 47
3 39 47 48
3 40 39 48
3 41 49 42
3 42 49 50
3 42 50 51
3 43 42 51
3 43 51 52
3 44 43 52
3 44 52 53
3 45 44 53
3 45 53 54
3 46 45 54
3 46 54 55
3 47 46 55
3 47 55 56
3 48 47 56
3 48 56 57
3 49 58 50
3 50 58 59
3 50 59 60
3 51 50 60
3 51 60 61
3 52 51 61
3 52 61 62
3 53 52 62
3 53 62 63
3 54 53 63
3 54 63 64
3 55 54 64
3 55 64 65
3 56 55 65
3 56 65 66
3 57 56 66
3 60 59 67
3 60 67 68
3 61 60 68
3 61 68 69
3 62 61 69
3 62 69 70
3 63 62 70
3 63 70 71
3 64 63 71
3 65 64 71
3 65 71 72
3 66 65 72
3 68 67 73
3 68 73 74
3 69 68 74
3 70 69 74
3 70 74 75
3 71 70 75
3 72 71 75
3 72 75 76
3 74 73 77
3 75 74 77
3 76 75 77
3 76 77 14
3 76 14 12
3 76 12 10
3 76 10 72
3 72 10 66
3 66 10 8
3 66 8 57
3 57 8 6
3 57 6 48
3 48 6 4
3 48 4 40
3 40 4 1
3 40 1 33
3 33 1 0
3 33 0 34
3 34 0 26
3 34 26 29
3 29 26 41
3 41 26 24
3 41 24 49
3 49 24 22
3 49 22 58
3 58 22 20
3 58 20 59
3 59 20 18
3 59 18 67
3 67 18 16
3 67 16 73
3 73 16 14
3 73 14 77
3 78 79 80
3 79 81 82
3 80 79 82
3 80 82 83
3 84 83 85
3 86 84 85
3 86 85 87
3 81 88 89
3 82 81 89
3 82 89 90
3 83 82 90
3 83 90 91
3 85 83 91
3 85 91 92
3 87 85 92
3 89 88 93
3 90 89 93
3 90 93 94
3 91 90 94
3 92 91 94
3 92 94 17
3 92 17 19
3 92 19 21
3 92 21 87
3 87 21 23
3 87 23 86
3 86 23 25
3 86 25 27
3 86 27 95
3 95 27 2
3 95 2 78
3 78 2 3
3 78 3 79
3 79 3 5
3 79 5 7
3 79 7 81
3 81 7 9
3 81 9 88
3 88 9 11
3 88 11 13
3 88 13 93
3 93 13 15
3 93 15 94
3 94 15 17
3 80 96 78
3 78 96 95
3 95 96 97
3 96 98 97
3 96 80 98
3 97 98 84
3 95 97 86
3 97 84 86
3 84 98 83
3 98 80 83

CELL_TYPES 194
5
5
5
5
5
5
5
5
5
5
5
5
5
5
5
5
5
5
5
5
5
5
5
5
5
5
5
5
5
5
5
5
5
5
5
5
5
5
5
5
5
5
5
5
5
5
5
5
5
5
5
5
5
5
5
5
5
5
5
5
5
5
5
5
5
5
5
5
5
5
5
5
5
5
5
5
5
5
5
5
5
5
5
5
5
5
5
5
5
5
5
5
5
5
5
5
5
5
5
5
5
5
5
5
5
5
5
5
5
5
5
5
5
5
5
5
5
5
5
5
5
5
5
5
5
5
5
5
5
5
5
5
5
5
5
5
5
5
5
5
5
5
5
5
5
5
5
5
5
5
5
5
5
5
5
5
5
5
5
5
5
5
5
5
5
5
5
5
5
5
5
5
5
5
5
5
5
5
5
5
5
5
5
5
5
5
5
5
5
5
5
5
5
5

CELL_DATA 194
SCALARS cell_data_0 double
LOOKUP_TABLE default
2.08410894558e-06
3.1099748083e-06
5.56963642477e-07
8.1539523042e-07
4.30906137095e-08
7.15550021997e-09
8.10905025261e-08
1.32870151679e-07
5.76532506262e-09
1.6092985333e-07
6.02378350674e-08
1.42236441751e-07
9.62149617919e-08
1.18243571488e-07
1.46099298257e-07
1.28660398892e-07
1.70337152175e-07
3.44009239177e-08
1.99600431056e-07
4.66146209507e-08
2.43270200454e-07
7.41730051113e-08
2.38231655387e-07
2.34401382804e-07
7.55192468354e-08
9.77113120186e-08
5.09300357362e-08
2.78871694288e-06
3.0105324494e-09
1.36652590817e-09
6.26920488777e-09
2.01397059859e-09
3.55869928095e-08
1.40533264953e-09
1.66642113176e-09
2.44341147882e-09
4.8954209134e-10
5.7339242201e-11
6.09556878522e-09
8.98810102456e-10
1.46324339677e-08
3.6233351092e-10
4.73121205296e-08
1.28133335121e-10
2.18696092263e-10
1.44244954575e-09
1.14636832219e-09
1.29137859986e-09
1.270638218e-09
8.41159803182e-10
1.32569378369e-09
6.28423348102e-10
1.28675545234e-09
3.15117291747e-09
2.37823585722e-09
5.67620596552e-09
1.79054827686e-09
5.28087049416e-10
3.98474621775e-09
2.3401559945e-11
1.85005519134e-09
5.12946731361e-10
1.11334449566e-09
1.05555234241e-10
1.42460706485e-09
6.90894566351e-10
1.07967602121e-09
6.5999074194e-10
3.30143348766e-09
2.51044682582e-09
4.44994354333e-10
8.73317390651e-10
4.53802693558e-09
2.42531671491e-09
5.54699163378e-09
3.08869636771e-10
1.90834421366e-09
2.40033800581e-11
6.96359104725e-10
2.31790245325e-10
3.84244371673e-10
2.60750380721e-10
1.01921533535e-09
3.34934553858e-10
6.20669571739e-09
2.33127753211e-11
3.53767973945e-09
1.23442125306e-08
1.16174151388e-10
5.54589110351e-09
1.84972439839e-09
1.44483963222e-09
2.17821281884e-09
1.20752456588e-09
2.74513781285e-09
3.45472244872e-09
1.28971376398e-09
1.58933355117e-09
2.62858766815e-09
1.31923210366e-08
1.49500554315e-09
3.76981075221e-09
3.68283335108e-10
1.32820987632e-08
8.51110278517e-09
6.47503700728e-09
2.21934336315e-09
1.10863818094e-08
8.21922565631e-09
8.78351357787e-09
4.98482675657e-08
2.15092840376e-07
1.62676271819e-07
2.37960436897e-07
8.6308953934e-08
1.94230468168e-07
1.07779752128e-07
1.60112776034e-07
1.02426760457e-07
8.66377614268e-08
5.70860110977e-08
2.03960045833e-08
9.72542663621e-08
1.23933237679e-07
2.31357439322e-10
1.73762766278e-08
2.25416256125e-08
2.5808740656e-09
7.82398914012e-08
1.32953534192e-08
7.2938654416e-08
2.63958146855e-09
1.64472889881e-07
1.89005182383e-08
2.01300305308e-07
2.89299204357e-08
1.94549399181e-07
3.79516606909e-08
1.80373097546e-07
5.11653963753e-08
1.06653048948e-05
5.41983198814e-07
1.63361293451e-07
7.49250483702e-07
1.09113618132e-06
1.16351157472e-06
1.42635723533e-07
1.09435292574e-07
4.71129755683e-08
1.09038777758e-07
1.18523565008e-07
1.18815266136e-07
7.40275712124e-08
7.44525144176e-08
3.50009786628e-08
6.30809307223e-08
6.98372700412e-08
4.01190587811e-09
2.67303116188e-08
7.17191961772e-08
2.25125933665e-08
3.89593664508e-08
3.96036081506e-09
6.68079674925e-09
8.25066645163e-08
7.47724799068e-08
1.45533352838e-07
4.27761684363e-07
2.86090732169e-06
6.54557235768e-07
1.05994116801e-06
6.70827476626e-07
4.44386867886e-06
1.28472650798e-06
3.48708277015e-08
1.12757567191e-06
6.1350509918e-08
2.59262670484e-08
5.17177700757e-08
4.87721141019e-09
8.66908490564e-08
1.22925497943e-08
4.85206877046e-08
1.37290330046e-08
6.45682501338e-06
1.01482397124e-06
3.4223087164e-07
8.76031565372e-07
2.45020546648e-06
1.59660096287e-07
2.50056462313e-06
5.33351791624e-07
3.54570053641e-07
1.74587933478e-07

