# vtk DataFile Version 3.0
File Name: Molecule/methanol/methanolus_4.0-0.vtk
ASCII
DATASET UNSTRUCTURED_GRID
FIELD FieldData 1
TIME 1 1 double
0.0
POINTS 181 double
1.611 0.0 -0.359
1.51 -0.576 -0.349
1.403 0.0 -0.933
1.311 -0.525 -0.924
1.219 -1.083 -0.32
1.046 -0.986 -0.897
0.773 -1.459 -0.275
0.639 -1.329 -0.857
0.226 -1.659 -0.221
0.141 -1.511 -0.807
-0.356 -1.659 -0.163
-0.389 -1.511 -0.754
-0.903 -1.459 -0.108
-0.887 -1.329 -0.705
-1.349 -1.083 -0.064
-1.294 -0.986 -0.664
-1.64 -0.576 -0.035
-1.559 -0.525 -0.638
-1.742 -0.0 -0.025
-1.651 -0.0 -0.629
-1.64 0.576 -0.035
-1.559 0.525 -0.638
-1.349 1.083 -0.064
-1.294 0.986 -0.664
-0.903 1.459 -0.108
-0.887 1.329 -0.705
-0.356 1.659 -0.163
-0.389 1.511 -0.754
0.226 1.659 -0.221
0.141 1.511 -0.807
0.773 1.459 -0.275
0.639 1.329 -0.857
1.219 1.083 -0.32
1.046 0.986 -0.897
1.51 0.576 -0.349
1.311 0.525 -0.924
1.907 0.0 0.656
1.83 0.532 0.656
1.83 0.266 1.116
1.83 -0.266 1.116
1.83 -0.532 0.656
1.83 -0.266 0.195
1.83 0.266 0.195
1.607 0.884 1.166
1.607 0.51 1.539
1.607 -0.0 1.676
1.607 -0.51 1.539
1.607 -0.884 1.166
1.607 -1.02 0.656
1.607 -0.884 0.145
1.607 0.884 0.145
1.607 1.02 0.656
1.255 1.33 1.171
1.255 1.054 1.617
1.255 0.636 1.933
1.255 0.132 2.076
1.255 -0.39 2.028
1.255 -0.86 1.794
1.255 -1.213 1.407
1.255 -1.402 0.918
1.255 -1.402 0.393
1.255 1.33 0.14
1.255 1.426 0.656
0.803 1.633 1.186
0.803 1.389 1.665
0.803 1.009 2.045
0.803 0.531 2.288
0.803 -0.0 2.373
0.803 -0.531 2.288
0.803 -1.009 2.045
0.803 -1.389 1.665
0.803 -1.633 1.186
0.803 -1.717 0.656
0.803 -1.633 0.125
0.803 1.633 0.125
0.803 1.717 0.656
0.288 1.793 1.182
0.288 1.572 1.666
0.288 1.223 2.068
0.288 0.776 2.355
0.288 0.266 2.505
0.288 -0.266 2.505
0.288 -0.776 2.355
0.288 -1.223 2.068
0.288 -1.572 1.666
0.288 -1.793 1.182
0.288 -1.868 0.656
0.288 -1.793 0.129
0.288 1.793 0.129
0.288 1.868 0.656
-0.25 1.793 1.182
-0.25 1.572 1.666
-0.25 1.223 2.068
-0.25 0.776 2.355
-0.25 0.266 2.505
-0.25 -0.266 2.505
-0.25 -0.776 2.355
-0.25 -1.223 2.068
-0.25 -1.572 1.666
-0.25 -1.793 1.182
-0.25 -1.868 0.656
-0.25 -1.793 0.129
-0.25 1.793 0.129
-0.25 1.868 0.656
-0.765 1.717 0.656
-0.765 1.633 1.186
-0.765 1.389 1.665
-0.765 1.009 2.045
-0.765 0.531 2.288
-0.765 -0.0 2.373
-0.765 -0.531 2.288
-0.765 -1.009 2.045
-0.765 -1.389 1.665
-0.765 -1.633 1.186
-0.765 -1.717 0.656
-1.217 1.426 0.656
-1.217 1.33 1.171
-1.217 1.054 1.617
-1.217 0.636 1.933
-1.217 0.132 2.076
-1.217 -0.39 2.028
-1.217 -0.86 1.794
-1.217 -1.213 1.407
-1.217 -1.402 0.918
-1.217 -1.402 0.393
-1.569 1.02 0.656
-1.569 0.884 1.166
-1.569 0.51 1.539
-1.569 -0.0 1.676
-1.569 -0.51 1.539
-1.569 -0.884 1.166
-1.569 -1.02 0.656
-1.792 0.532 0.656
-1.792 0.266 1.116
-1.792 -0.266 1.116
-1.792 -0.532 0.656
-1.868 0.0 0.656
1.323 -0.263 -1.192
1.056 -0.854 -1.231
1.056 -0.493 -1.592
1.056 -0.0 -1.724
1.323 0.263 -1.192
1.056 0.493 -1.592
1.056 0.854 -1.231
0.648 -1.228 -1.246
0.648 -0.94 -1.677
0.648 -0.509 -1.965
0.648 0.0 -2.067
0.648 0.509 -1.965
0.648 0.94 -1.677
0.648 1.228 -1.246
0.147 -1.421 -1.254
0.147 -1.158 -1.709
0.147 -0.756 -2.046
0.147 -0.263 -2.226
0.147 0.262 -2.226
0.147 0.756 -2.046
0.147 1.158 -1.709
0.147 1.421 -1.254
-0.386 -1.421 -1.254
-0.386 -1.158 -1.709
-0.386 -0.756 -2.046
-0.386 -0.263 -2.226
-0.386 0.262 -2.226
-0.386 0.756 -2.046
-0.386 1.158 -1.709
-0.386 1.421 -1.254
-0.887 -1.228 -1.246
-0.887 -0.94 -1.677
-0.887 -0.509 -1.965
-0.887 0.0 -2.067
-0.887 0.509 -1.965
-0.887 0.94 -1.677
-0.887 1.228 -1.246
-1.296 -0.854 -1.231
-1.296 -0.493 -1.592
-1.296 -0.0 -1.724
-1.296 0.493 -1.592
-1.296 0.854 -1.231
-1.562 -0.263 -1.192
-1.562 0.263 -1.192

CELLS 358 1432
3 0 1 2
3 2 1 3
3 1 4 3
3 3 4 5
3 4 6 5
3 5 6 7
3 6 8 7
3 7 8 9
3 8 10 9
3 9 10 11
3 10 12 11
3 11 12 13
3 12 14 13
3 13 14 15
3 14 16 15
3 15 16 17
3 16 18 17
3 17 18 19
3 18 20 19
3 19 20 21
3 20 22 21
3 21 22 23
3 22 24 23
3 23 24 25
3 24 26 25
3 25 26 27
3 26 28 27
3 27 28 29
3 28 30 29
3 29 30 31
3 30 32 31
3 31 32 33
3 32 34 33
3 33 34 35
3 34 0 35
3 35 0 2
3 36 37 38
3 36 38 39
3 36 39 40
3 36 40 41
3 36 41 42
3 36 42 37
3 38 37 43
3 38 43 44
3 38 44 45
3 39 38 45
3 39 45 46
3 39 46 47
3 40 39 47
3 40 47 48
3 40 48 49
3 41 40 49
3 37 42 50
3 37 50 51
3 37 51 43
3 43 51 52
3 43 52 53
3 44 43 53
3 44 53 54
3 44 54 55
3 45 44 55
3 45 55 56
3 46 45 56
3 46 56 57
3 47 46 57
3 47 57 58
3 47 58 59
3 48 47 59
3 48 59 60
3 49 48 60
3 51 50 61
3 51 61 62
3 51 62 52
3 52 62 63
3 52 63 64
3 53 52 64
3 53 64 65
3 54 53 65
3 54 65 66
3 55 54 66
3 55 66 67
3 56 55 67
3 56 67 68
3 57 56 68
3 57 68 69
3 57 69 70
3 58 57 70
3 58 70 71
3 59 58 71
3 59 71 72
3 60 59 72
3 60 72 73
3 62 61 74
3 62 74 75
3 62 75 63
3 63 75 76
3 63 76 77
3 64 63 77
3 64 77 78
3 65 64 78
3 65 78 79
3 66 65 79
3 66 79 80
3 67 66 80
3 67 80 81
3 68 67 81
3 68 81 82
3 69 68 82
3 69 82 83
3 70 69 83
3 70 83 84
3 71 70 84
3 71 84 85
3 72 71 85
3 72 85 86
3 72 86 87
3 73 72 87
3 75 74 88
3 75 88 89
3 75 89 76
3 76 89 90
3 76 90 91
3 77 76 91
3 77 91 92
3 78 77 92
3 78 92 93
3 79 78 93
3 79 93 94
3 80 79 94
3 80 94 95
3 81 80 95
3 81 95 96
3 82 81 96
3 82 96 97
3 83 82 97
3 83 97 98
3 84 83 98
3 84 98 99
3 85 84 99
3 85 99 100
3 86 85 100
3 86 100 101
3 87 86 101
3 89 88 102
3 89 102 103
3 89 103 90
3 90 103 104
3 90 104 105
3 91 90 105
3 91 105 106
3 92 91 106
3 92 106 107
3 93 92 107
3 93 107 108
3 94 93 108
3 94 108 109
3 95 94 109
3 95 109 110
3 96 95 110
3 96 110 111
3 97 96 111
3 97 111 112
3 98 97 112
3 98 112 113
3 99 98 113
3 99 113 114
3 100 99 114
3 101 100 114
3 103 102 104
3 105 104 115
3 105 115 116
3 106 105 116
3 106 116 117
3 107 106 117
3 107 117 118
3 108 107 118
3 108 118 119
3 109 108 119
3 109 119 120
3 110 109 120
3 110 120 121
3 111 110 121
3 112 111 121
3 112 121 122
3 113 112 122
3 113 122 123
3 114 113 123
3 114 123 124
3 116 115 125
3 116 125 126
3 117 116 126
3 117 126 127
3 118 117 127
3 119 118 127
3 119 127 128
3 120 119 128
3 120 128 129
3 121 120 129
3 121 129 130
3 122 121 130
3 123 122 130
3 123 130 131
3 124 123 131
3 126 125 132
3 126 132 133
3 127 126 133
3 128 127 133
3 128 133 134
3 129 128 134
3 130 129 134
3 130 134 135
3 131 130 135
3 133 132 136
3 134 133 136
3 135 134 136
3 135 136 18
3 135 18 16
3 135 16 131
3 131 16 14
3 131 14 124
3 124 14 12
3 124 12 114
3 114 12 101
3 101 12 10
3 101 10 8
3 101 8 87
3 87 8 73
3 73 8 6
3 73 6 4
3 73 4 60
3 60 4 49
3 49 4 1
3 49 1 41
3 41 1 0
3 41 0 42
3 42 0 34
3 42 34 50
3 50 34 32
3 50 32 61
3 61 32 30
3 61 30 74
3 74 30 28
3 74 28 88
3 88 28 102
3 102 28 26
3 102 26 24
3 102 24 104
3 104 24 115
3 115 24 22
3 115 22 125
3 125 22 20
3 125 20 132
3 132 20 18
3 132 18 136
3 137 138 139
3 137 139 140
3 141 137 140
3 141 140 142
3 141 142 143
3 138 144 145
3 139 138 145
3 139 145 146
3 140 139 146
3 140 146 147
3 140 147 148
3 142 140 148
3 142 148 149
3 143 142 149
3 143 149 150
3 144 151 152
3 145 144 152
3 145 152 153
3 146 145 153
3 146 153 154
3 147 146 154
3 147 154 155
3 148 147 155
3 148 155 156
3 149 148 156
3 149 156 157
3 150 149 157
3 150 157 158
3 151 159 160
3 152 151 160
3 153 152 160
3 153 160 161
3 153 161 162
3 154 153 162
3 154 162 163
3 155 154 163
3 155 163 164
3 156 155 164
3 156 164 165
3 157 156 165
3 157 165 166
3 158 157 166
3 160 159 167
3 160 167 168
3 161 160 168
3 161 168 169
3 162 161 169
3 162 169 170
3 163 162 170
3 163 170 171
3 164 163 171
3 164 171 172
3 165 164 172
3 165 172 173
3 166 165 173
3 168 167 174
3 168 174 175
3 169 168 175
3 169 175 176
3 170 169 176
3 171 170 176
3 171 176 177
3 172 171 177
3 172 177 178
3 173 172 178
3 175 174 179
3 176 175 179
3 176 179 180
3 177 176 180
3 178 177 180
3 178 180 21
3 178 21 23
3 178 23 173
3 173 23 25
3 173 25 166
3 166 25 27
3 166 27 29
3 166 29 158
3 158 29 31
3 158 31 150
3 150 31 33
3 150 33 143
3 143 33 35
3 143 35 141
3 141 35 2
3 141 2 137
3 137 2 3
3 137 3 138
3 138 3 5
3 138 5 144
3 144 5 7
3 144 7 151
3 151 7 9
3 151 9 159
3 159 9 11
3 159 11 13
3 159 13 167
3 167 13 15
3 167 15 174
3 174 15 17
3 174 17 179
3 179 17 19
3 179 19 180
3 180 19 21

CELL_TYPES 358
5
5
5
5
5
5
5
5
5
5
5
5
5
5
5
5
5
5
5
5
5
5
5
5
5
5
5
5
5
5
5
5
5
5
5
5
5
5
5
5
5
5
5
5
5
5
5
5
5
5
5
5
5
5
5
5
5
5
5
5
5
5
5
5
5
5
5
5
5
5
5
5
5
5
5
5
5
5
5
5
5
5
5
5
5
5
5
5
5
5
5
5
5
5
5
5
5
5
5
5
5
5
5
5
5
5
5
5
5
5
5
5
5
5
5
5
5
5
5
5
5
5
5
5
5
5
5
5
5
5
5
5
5
5
5
5
5
5
5
5
5
5
5
5
5
5
5
5
5
5
5
5
5
5
5
5
5
5
5
5
5
5
5
5
5
5
5
5
5
5
5
5
5
5
5
5
5
5
5
5
5
5
5
5
5
5
5
5
5
5
5
5
5
5
5
5
5
5
5
5
5
5
5
5
5
5
5
5
5
5
5
5
5
5
5
5
5
5
5
5
5
5
5
5
5
5
5
5
5
5
5
5
5
5
5
5
5
5
5
5
5
5
5
5
5
5
5
5
5
5
5
5
5
5
5
5
5
5
5
5
5
5
5
5
5
5
5
5
5
5
5
5
5
5
5
5
5
5
5
5
5
5
5
5
5
5
5
5
5
5
5
5
5
5
5
5
5
5
5
5
5
5
5
5
5
5
5
5
5
5
5
5
5
5
5
5
5
5
5
5
5
5
5
5
5
5
5
5
5
5
5
5
5
5
5
5
5
5
5
5
5
5
5
5
5
5
5
5
5
5
5
5
5
5
5
5
5
5

POINT_DATA 181
SCALARS point_data_0 double
LOOKUP_TABLE default
0.00218459231243
0.0016718590657
0.0057500354665
0.00391753129398
0.000758145377531
0.0013994697487
-9.10638036868e-05
-0.000381564773208
-0.000717219921226
-0.00149178038157
-0.00122719470278
-0.00220595337329
-0.0015017763369
-0.00268896983001
-0.0017265772637
-0.00296589109818
-0.00183342703202
-0.00312840545503
-0.00186773136966
-0.00315677897935
-0.00183608818078
-0.00312316315258
-0.00170474521727
-0.00296386132973
-0.00148101722865
-0.00266730501043
-0.0011915503333
-0.00216971024375
-0.000685067401268
-0.00144916588559
3.09163896932e-05
-0.000299262560545
0.000934677762542
0.00158157997006
0.00183770208856
0.0042307756071
0.00118446852594
0.001139039433
0.00110539549773
0.00110800868174
0.00112544880741
0.00136162415398
0.0013323641829
0.00100571931604
0.00106051850208
0.00107764202934
0.00105432505089
0.00101209756898
0.000965567869553
0.00115160220178
0.00110049623697
0.000977427885368
0.000856465140831
0.000958419158382
0.00102024546101
0.00105130876305
0.00104106749061
0.000997702466488
0.000912361472025
0.000810568887074
0.000698977155693
0.000709326481528
0.000753270425936
0.000687417336119
0.000838420022186
0.000936332534855
0.000993372225856
0.00101131920121
0.000994717767077
0.000935293597683
0.000839929589385
0.000689581628866
0.000492063334777
0.000269043930908
0.000271932276298
0.000495972411882
0.000502249063913
0.000701523531505
0.000830171085997
0.000909779636216
0.00094772077946
0.000947718693105
0.000910537046789
0.000831390837295
0.000703089329945
0.000510447744352
0.000242580973347
-0.000163829691849
-0.000168249350011
0.000240541838849
0.000333432543854
0.000569826792417
0.000718461687695
0.000811151557937
0.00085422306946
0.000854030987822
0.000811714712091
0.000721810442457
0.000572329045585
0.000341388097754
-1.66715324215e-05
-0.00056212174303
-0.000571070350549
-2.36985978376e-05
-0.000208259568195
0.000178768965673
0.000448879790231
0.000607134323756
0.000695963009305
0.000724398181316
0.000698813323217
0.000605211524977
0.000442764602917
0.00017985425259
-0.000210218378056
-0.000373904356288
3.31348989596e-05
0.000318633352704
0.000469837770661
0.000536324383374
0.000513213353606
0.000414426542431
0.000196785506617
-0.000179267572941
-0.000724182491144
-0.000511566820282
-7.22729133774e-05
0.000195390509222
0.000278748201735
0.000192797282945
-6.79473922374e-05
-0.00051217757273
-0.000597977688872
-0.000171223374715
-0.000171422100828
-0.000599016409152
-0.000646270040244
0.00780538516761
0.00263802628502
0.00489403425616
0.00692946589859
0.00776611649871
0.00491193150831
0.00257554960156
0.000109874519637
0.000837517521236
0.00159703588475
0.00196036642476
0.00159339062374
0.000852669335328
8.57131747169e-05
-0.00135095086532
-0.00110398524329
-0.000778417153807
-0.000520995671369
-0.000531112042012
-0.000777968534836
-0.00112307530215
-0.0013649307739
-0.00225458122382
-0.00220602903591
-0.00204393536962
-0.00195400995516
-0.00196675155732
-0.00206817854309
-0.00219762786261
-0.0022902882323
-0.00281755735354
-0.00280178239166
-0.002778616387
-0.00273487571029
-0.00277269310158
-0.0027997359795
-0.00281712494251
-0.00316032940867
-0.00315002028884
-0.00319888165384
-0.00315121458974
-0.00316174547152
-0.00332622402654
-0.00332688332782

