# vtk DataFile Version 3.0
File Name: Molecule/methanol/methanol_6.0-0.vtk
ASCII
DATASET UNSTRUCTURED_GRID
FIELD FieldData 1
TIME 1 1 double
0.0
POINTS 286 double
1.611 0.0 -0.359
1.554 -0.436 -0.353
1.403 0.0 -0.933
1.351 -0.397 -0.928
1.386 -0.842 -0.336
1.198 -0.767 -0.912
1.12 -1.191 -0.31
0.956 -1.085 -0.888
0.773 -1.459 -0.275
0.639 -1.329 -0.857
0.368 -1.627 -0.235
0.271 -1.482 -0.82
-0.065 -1.684 -0.192
-0.124 -1.534 -0.781
-0.499 -1.627 -0.149
-0.519 -1.482 -0.741
-0.903 -1.459 -0.108
-0.887 -1.329 -0.705
-1.251 -1.191 -0.074
-1.204 -1.085 -0.673
-1.517 -0.842 -0.047
-1.446 -0.767 -0.649
-1.684 -0.436 -0.031
-1.599 -0.397 -0.634
-1.742 0.0 -0.025
-1.651 0.0 -0.629
-1.684 0.436 -0.031
-1.599 0.397 -0.634
-1.517 0.842 -0.047
-1.446 0.767 -0.649
-1.251 1.191 -0.074
-1.204 1.085 -0.673
-0.903 1.459 -0.108
-0.887 1.329 -0.705
-0.499 1.627 -0.149
-0.519 1.482 -0.741
-0.065 1.684 -0.192
-0.124 1.534 -0.781
0.368 1.627 -0.235
0.271 1.482 -0.82
0.773 1.459 -0.275
0.639 1.329 -0.857
1.12 1.191 -0.31
0.956 1.085 -0.888
1.386 0.842 -0.336
1.198 0.767 -0.912
1.554 0.436 -0.353
1.351 0.397 -0.928
1.907 0.0 0.656
1.859 0.42 0.656
1.859 0.21 1.019
1.859 -0.21 1.019
1.859 -0.42 0.656
1.859 -0.21 0.292
1.859 0.21 0.292
1.72 0.709 1.065
1.72 0.409 1.365
1.72 -0.0 1.475
1.72 -0.409 1.365
1.72 -0.709 1.065
1.72 -0.819 0.656
1.72 -0.709 0.246
1.72 -0.409 -0.054
1.72 -0.0 -0.163
1.72 0.409 -0.054
1.72 0.709 0.246
1.72 0.819 0.656
1.495 1.106 1.058
1.495 0.902 1.412
1.495 0.588 1.675
1.495 0.204 1.815
1.495 -0.204 1.815
1.495 -0.588 1.675
1.495 -0.902 1.412
1.495 -1.106 1.058
1.495 -1.177 0.656
1.495 -1.106 0.253
1.495 -0.902 -0.101
1.495 0.902 -0.101
1.495 1.106 0.253
1.495 1.177 0.656
1.196 1.416 1.071
1.196 1.241 1.453
1.196 0.966 1.771
1.196 0.613 1.998
1.196 0.21 2.116
1.196 -0.21 2.116
1.196 -0.613 1.998
1.196 -0.966 1.771
1.196 -1.241 1.453
1.196 -1.416 1.071
1.196 -1.476 0.656
1.196 -1.416 0.24
1.196 1.416 0.24
1.196 1.476 0.656
0.838 1.651 1.063
0.838 1.506 1.446
0.838 1.273 1.783
0.838 0.966 2.055
0.838 0.603 2.246
0.838 0.205 2.344
0.838 -0.205 2.344
0.838 -0.603 2.246
0.838 -0.966 2.055
0.838 -1.273 1.783
0.838 -1.506 1.446
0.838 -1.651 1.063
0.838 -1.701 0.656
0.838 -1.651 0.249
0.838 1.651 0.249
0.838 1.701 0.656
0.439 1.794 1.065
0.439 1.658 1.454
0.439 1.439 1.803
0.439 1.147 2.094
0.439 0.798 2.314
0.439 0.409 2.45
0.439 0.0 2.496
0.439 -0.409 2.45
0.439 -0.798 2.314
0.439 -1.147 2.094
0.439 -1.439 1.803
0.439 -1.658 1.454
0.439 -1.794 1.065
0.439 -1.84 0.656
0.439 -1.794 0.246
0.439 1.794 0.246
0.439 1.84 0.656
0.019 1.843 1.061
0.019 1.713 1.448
0.019 1.503 1.798
0.019 1.222 2.094
0.019 0.884 2.323
0.019 0.505 2.474
0.019 0.102 2.54
0.019 -0.305 2.518
0.019 -0.699 2.409
0.019 -1.059 2.218
0.019 -1.37 1.954
0.019 -1.617 1.629
0.019 -1.789 1.258
0.019 -1.876 0.86
0.019 -1.876 0.452
0.019 -1.789 0.053
0.019 1.843 0.25
0.019 1.888 0.656
-0.401 1.84 0.656
-0.401 1.794 1.065
-0.401 1.658 1.454
-0.401 1.439 1.803
-0.401 1.147 2.094
-0.401 0.798 2.314
-0.401 0.409 2.45
-0.401 0.0 2.496
-0.401 -0.409 2.45
-0.401 -0.798 2.314
-0.401 -1.147 2.094
-0.401 -1.439 1.803
-0.401 -1.658 1.454
-0.401 -1.794 1.065
-0.401 -1.84 0.656
-0.401 -1.794 0.246
-0.401 1.794 0.246
-0.8 1.701 0.656
-0.8 1.651 1.063
-0.8 1.506 1.446
-0.8 1.273 1.783
-0.8 0.966 2.055
-0.8 0.603 2.246
-0.8 0.205 2.344
-0.8 -0.205 2.344
-0.8 -0.603 2.246
-0.8 -0.966 2.055
-0.8 -1.273 1.783
-0.8 -1.506 1.446
-0.8 -1.651 1.063
-0.8 -1.701 0.656
-0.8 -1.651 0.249
-0.8 1.651 0.249
-1.158 1.476 0.656
-1.158 1.416 1.071
-1.158 1.241 1.453
-1.158 0.966 1.771
-1.158 0.613 1.998
-1.158 0.21 2.116
-1.158 -0.21 2.116
-1.158 -0.613 1.998
-1.158 -0.966 1.771
-1.158 -1.241 1.453
-1.158 -1.416 1.071
-1.158 -1.476 0.656
-1.158 -1.416 0.24
-1.158 1.416 0.24
-1.457 1.177 0.656
-1.457 1.106 1.058
-1.457 0.902 1.412
-1.457 0.588 1.675
-1.457 0.204 1.815
-1.457 -0.204 1.815
-1.457 -0.588 1.675
-1.457 -0.902 1.412
-1.457 -1.106 1.058
-1.457 -1.177 0.656
-1.457 -1.106 0.253
-1.457 1.106 0.253
-1.682 0.819 0.656
-1.682 0.709 1.065
-1.682 0.409 1.365
-1.682 -0.0 1.475
-1.682 -0.409 1.365
-1.682 -0.709 1.065
-1.682 -0.819 0.656
-1.682 -0.709 0.246
-1.682 0.709 0.246
-1.821 0.42 0.656
-1.821 0.21 1.019
-1.821 -0.21 1.019
-1.821 -0.42 0.656
-1.821 -0.21 0.292
-1.821 0.21 0.292
-1.868 -0.0 0.656
1.172 -0.719 -1.152
0.886 -0.986 -1.348
0.886 -0.699 -1.663
1.172 -0.415 -1.456
0.886 -0.317 -1.853
1.172 -0.0 -1.567
0.886 0.107 -1.892
1.172 0.415 -1.456
0.886 0.517 -1.776
0.886 0.857 -1.519
1.172 0.719 -1.152
0.886 1.082 -1.156
0.518 -1.328 -1.169
0.518 -1.13 -1.558
0.518 -0.821 -1.867
0.518 -0.431 -2.065
0.518 0.0 -2.133
0.518 0.431 -2.065
0.518 0.821 -1.867
0.518 1.13 -1.558
0.518 1.328 -1.169
0.099 -1.458 -1.165
0.099 -1.278 -1.559
0.099 -0.995 -1.885
0.099 -0.631 -2.119
0.099 -0.216 -2.241
0.099 0.216 -2.241
0.099 0.631 -2.119
0.099 0.995 -1.885
0.099 1.278 -1.559
0.099 1.458 -1.165
-0.338 -1.458 -1.165
-0.338 -1.278 -1.559
-0.338 -0.995 -1.885
-0.338 -0.631 -2.119
-0.338 -0.216 -2.241
-0.338 0.216 -2.241
-0.338 0.631 -2.119
-0.338 0.995 -1.885
-0.338 1.278 -1.559
-0.338 1.458 -1.165
-0.757 -1.328 -1.169
-0.757 -1.13 -1.558
-0.757 -0.821 -1.867
-0.757 -0.431 -2.065
-0.757 0.0 -2.133
-0.757 0.431 -2.065
-0.757 0.821 -1.867
-0.757 1.13 -1.558
-0.757 1.328 -1.169
-1.125 -1.14 -0.95
-1.125 -0.986 -1.348
-1.125 -0.699 -1.663
-1.125 -0.317 -1.853
-1.125 0.107 -1.892
-1.125 0.517 -1.776
-1.125 0.857 -1.519
-1.125 1.082 -1.156
-1.411 -0.719 -1.152
-1.411 -0.415 -1.456
-1.411 -0.0 -1.567
-1.411 0.415 -1.456
-1.411 0.719 -1.152
-1.593 -0.216 -1.112
-1.593 0.216 -1.112

CELLS 568 2272
3 0 1 2
3 2 1 3
3 1 4 3
3 3 4 5
3 4 6 5
3 5 6 7
3 6 8 7
3 7 8 9
3 8 10 9
3 9 10 11
3 10 12 11
3 11 12 13
3 12 14 13
3 13 14 15
3 14 16 15
3 15 16 17
3 16 18 17
3 17 18 19
3 18 20 19
3 19 20 21
3 20 22 21
3 21 22 23
3 22 24 23
3 23 24 25
3 24 26 25
3 25 26 27
3 26 28 27
3 27 28 29
3 28 30 29
3 29 30 31
3 30 32 31
3 31 32 33
3 32 34 33
3 33 34 35
3 34 36 35
3 35 36 37
3 36 38 37
3 37 38 39
3 38 40 39
3 39 40 41
3 40 42 41
3 41 42 43
3 42 44 43
3 43 44 45
3 44 46 45
3 45 46 47
3 46 0 47
3 47 0 2
3 48 49 50
3 48 50 51
3 48 51 52
3 48 52 53
3 48 53 54
3 48 54 49
3 50 49 55
3 50 55 56
3 50 56 57
3 51 50 57
3 51 57 58
3 51 58 59
3 52 51 59
3 52 59 60
3 52 60 61
3 53 52 61
3 53 61 62
3 53 62 63
3 54 53 63
3 54 63 64
3 54 64 65
3 49 54 65
3 49 65 66
3 49 66 55
3 55 66 67
3 55 67 68
3 56 55 68
3 56 68 69
3 56 69 70
3 57 56 70
3 57 70 71
3 58 57 71
3 58 71 72
3 58 72 73
3 59 58 73
3 59 73 74
3 60 59 74
3 60 74 75
3 60 75 76
3 61 60 76
3 61 76 77
3 62 61 77
3 65 64 78
3 65 78 79
3 66 65 79
3 66 79 80
3 66 80 67
3 67 80 81
3 67 81 82
3 68 67 82
3 68 82 83
3 69 68 83
3 69 83 84
3 70 69 84
3 70 84 85
3 70 85 86
3 71 70 86
3 71 86 87
3 72 71 87
3 72 87 88
3 73 72 88
3 73 88 89
3 74 73 89
3 74 89 90
3 75 74 90
3 75 90 91
3 75 91 92
3 76 75 92
3 80 79 93
3 80 93 94
3 80 94 81
3 81 94 95
3 81 95 96
3 82 81 96
3 82 96 97
3 83 82 97
3 83 97 98
3 84 83 98
3 84 98 99
3 85 84 99
3 85 99 100
3 85 100 101
3 86 85 101
3 86 101 102
3 87 86 102
3 87 102 103
3 88 87 103
3 88 103 104
3 89 88 104
3 89 104 105
3 90 89 105
3 90 105 106
3 91 90 106
3 91 106 107
3 91 107 108
3 92 91 108
3 94 93 109
3 94 109 110
3 94 110 95
3 95 110 111
3 95 111 112
3 96 95 112
3 96 112 113
3 97 96 113
3 97 113 114
3 98 97 114
3 98 114 115
3 99 98 115
3 99 115 116
3 100 99 116
3 100 116 117
3 101 100 117
3 101 117 118
3 102 101 118
3 102 118 119
3 103 102 119
3 103 119 120
3 104 103 120
3 104 120 121
3 105 104 121
3 105 121 122
3 106 105 122
3 106 122 123
3 107 106 123
3 107 123 124
3 107 124 125
3 108 107 125
3 110 109 126
3 110 126 127
3 110 127 111
3 111 127 128
3 111 128 129
3 112 111 129
3 112 129 130
3 113 112 130
3 113 130 131
3 114 113 131
3 114 131 132
3 115 114 132
3 115 132 133
3 116 115 133
3 116 133 134
3 117 116 134
3 117 134 135
3 118 117 135
3 118 135 136
3 119 118 136
3 119 136 137
3 120 119 137
3 120 137 138
3 121 120 138
3 121 138 139
3 122 121 139
3 122 139 140
3 123 122 140
3 123 140 141
3 124 123 141
3 124 141 142
3 125 124 142
3 125 142 143
3 127 126 144
3 127 144 145
3 127 145 128
3 128 145 146
3 128 146 147
3 129 128 147
3 129 147 148
3 130 129 148
3 130 148 149
3 131 130 149
3 131 149 150
3 132 131 150
3 132 150 151
3 133 132 151
3 133 151 152
3 134 133 152
3 134 152 153
3 135 134 153
3 135 153 154
3 136 135 154
3 136 154 155
3 137 136 155
3 137 155 156
3 138 137 156
3 138 156 157
3 139 138 157
3 139 157 158
3 140 139 158
3 140 158 159
3 141 140 159
3 141 159 160
3 142 141 160
3 142 160 161
3 143 142 161
3 146 144 162
3 145 144 146
3 147 146 163
3 147 163 164
3 148 147 164
3 148 164 165
3 149 148 165
3 149 165 166
3 150 149 166
3 150 166 167
3 151 150 167
3 151 167 168
3 152 151 168
3 152 168 169
3 153 152 169
3 153 169 170
3 154 153 170
3 154 170 171
3 155 154 171
3 155 171 172
3 156 155 172
3 156 172 173
3 157 156 173
3 157 173 174
3 158 157 174
3 158 174 175
3 159 158 175
3 159 175 176
3 160 159 176
3 161 160 176
3 161 176 177
3 163 162 178
3 146 162 163
3 164 163 179
3 164 179 180
3 165 164 180
3 165 180 181
3 166 165 181
3 166 181 182
3 167 166 182
3 167 182 183
3 168 167 183
3 168 183 184
3 169 168 184
3 169 184 185
3 170 169 185
3 171 170 185
3 171 185 186
3 172 171 186
3 172 186 187
3 173 172 187
3 173 187 188
3 174 173 188
3 174 188 189
3 175 174 189
3 175 189 190
3 176 175 190
3 177 176 190
3 177 190 191
3 179 178 192
3 163 178 179
3 180 179 193
3 180 193 194
3 181 180 194
3 181 194 195
3 182 181 195
3 182 195 196
3 183 182 196
3 183 196 197
3 184 183 197
3 184 197 198
3 185 184 198
3 186 185 198
3 186 198 199
3 187 186 199
3 187 199 200
3 188 187 200
3 188 200 201
3 189 188 201
3 189 201 202
3 190 189 202
3 191 190 202
3 191 202 203
3 193 192 204
3 179 192 193
3 194 193 205
3 194 205 206
3 195 194 206
3 195 206 207
3 196 195 207
3 197 196 207
3 197 207 208
3 198 197 208
3 198 208 209
3 199 198 209
3 200 199 209
3 200 209 210
3 201 200 210
3 201 210 211
3 202 201 211
3 203 202 211
3 203 211 212
3 205 204 213
3 193 204 205
3 206 205 214
3 206 214 215
3 207 206 215
3 208 207 215
3 208 215 216
3 209 208 216
3 210 209 216
3 210 216 217
3 211 210 217
3 212 211 217
3 212 217 218
3 214 213 219
3 205 213 214
3 215 214 220
3 216 215 220
3 217 216 220
3 218 217 220
3 219 218 220
3 214 219 220
3 219 213 26
3 219 26 24
3 219 24 218
3 218 24 22
3 218 22 212
3 212 22 20
3 212 20 203
3 203 20 18
3 203 18 191
3 191 18 16
3 191 16 177
3 177 16 14
3 177 14 161
3 161 14 12
3 161 12 143
3 143 12 10
3 143 10 125
3 125 10 108
3 108 10 8
3 108 8 92
3 92 8 6
3 92 6 76
3 76 6 77
3 77 6 4
3 77 4 1
3 77 1 62
3 62 1 63
3 63 1 0
3 63 0 46
3 63 46 64
3 64 46 78
3 78 46 44
3 78 44 42
3 78 42 79
3 79 42 93
3 93 42 40
3 93 40 109
3 109 40 38
3 109 38 126
3 126 38 144
3 144 38 36
3 144 36 162
3 162 36 34
3 162 34 178
3 178 34 32
3 178 32 192
3 192 32 30
3 192 30 204
3 204 30 28
3 204 28 213
3 213 28 26
3 221 222 223
3 224 221 223
3 224 223 225
3 226 224 225
3 226 225 227
3 228 226 227
3 228 227 229
3 228 229 230
3 231 228 230
3 231 230 232
3 222 233 234
3 223 222 234
3 223 234 235
3 223 235 236
3 225 223 236
3 225 236 237
3 227 225 237
3 227 237 238
3 229 227 238
3 229 238 239
3 230 229 239
3 230 239 240
3 232 230 240
3 232 240 241
3 233 242 243
3 234 233 243
3 234 243 244
3 235 234 244
3 235 244 245
3 236 235 245
3 236 245 246
3 237 236 246
3 237 246 247
3 238 237 247
3 238 247 248
3 239 238 248
3 239 248 249
3 240 239 249
3 240 249 250
3 241 240 250
3 241 250 251
3 242 252 253
3 243 242 253
3 243 253 254
3 244 243 254
3 244 254 255
3 245 244 255
3 246 245 255
3 246 255 256
3 246 256 257
3 247 246 257
3 247 257 258
3 248 247 258
3 248 258 259
3 249 248 259
3 249 259 260
3 250 249 260
3 250 260 261
3 251 250 261
3 253 252 262
3 253 262 263
3 254 253 263
3 254 263 264
3 255 254 264
3 255 264 265
3 256 255 265
3 256 265 266
3 257 256 266
3 257 266 267
3 258 257 267
3 258 267 268
3 259 258 268
3 259 268 269
3 260 259 269
3 260 269 270
3 261 260 270
3 262 271 272
3 263 262 272
3 263 272 273
3 264 263 273
3 265 264 273
3 265 273 274
3 266 265 274
3 266 274 275
3 267 266 275
3 267 275 276
3 268 267 276
3 268 276 277
3 269 268 277
3 269 277 278
3 270 269 278
3 272 271 279
3 273 272 279
3 273 279 280
3 274 273 280
3 274 280 281
3 275 274 281
3 275 281 282
3 276 275 282
3 277 276 282
3 277 282 283
3 278 277 283
3 280 279 284
3 281 280 284
3 281 284 285
3 282 281 285
3 283 282 285
3 283 285 27
3 283 27 29
3 283 29 31
3 283 31 278
3 278 31 33
3 278 33 270
3 270 33 35
3 270 35 261
3 261 35 37
3 261 37 251
3 251 37 39
3 251 39 241
3 241 39 41
3 241 41 232
3 232 41 43
3 232 43 231
3 231 43 45
3 231 45 47
3 231 47 228
3 228 47 2
3 228 2 226
3 226 2 224
3 224 2 3
3 224 3 221
3 221 3 5
3 221 5 7
3 221 7 222
3 222 7 233
3 233 7 9
3 233 9 11
3 233 11 242
3 242 11 13
3 242 13 252
3 252 13 15
3 252 15 262
3 262 15 17
3 262 17 271
3 271 17 19
3 271 19 21
3 271 21 279
3 279 21 23
3 279 23 284
3 284 23 25
3 284 25 285
3 285 25 27

CELL_TYPES 568
5
5
5
5
5
5
5
5
5
5
5
5
5
5
5
5
5
5
5
5
5
5
5
5
5
5
5
5
5
5
5
5
5
5
5
5
5
5
5
5
5
5
5
5
5
5
5
5
5
5
5
5
5
5
5
5
5
5
5
5
5
5
5
5
5
5
5
5
5
5
5
5
5
5
5
5
5
5
5
5
5
5
5
5
5
5
5
5
5
5
5
5
5
5
5
5
5
5
5
5
5
5
5
5
5
5
5
5
5
5
5
5
5
5
5
5
5
5
5
5
5
5
5
5
5
5
5
5
5
5
5
5
5
5
5
5
5
5
5
5
5
5
5
5
5
5
5
5
5
5
5
5
5
5
5
5
5
5
5
5
5
5
5
5
5
5
5
5
5
5
5
5
5
5
5
5
5
5
5
5
5
5
5
5
5
5
5
5
5
5
5
5
5
5
5
5
5
5
5
5
5
5
5
5
5
5
5
5
5
5
5
5
5
5
5
5
5
5
5
5
5
5
5
5
5
5
5
5
5
5
5
5
5
5
5
5
5
5
5
5
5
5
5
5
5
5
5
5
5
5
5
5
5
5
5
5
5
5
5
5
5
5
5
5
5
5
5
5
5
5
5
5
5
5
5
5
5
5
5
5
5
5
5
5
5
5
5
5
5
5
5
5
5
5
5
5
5
5
5
5
5
5
5
5
5
5
5
5
5
5
5
5
5
5
5
5
5
5
5
5
5
5
5
5
5
5
5
5
5
5
5
5
5
5
5
5
5
5
5
5
5
5
5
5
5
5
5
5
5
5
5
5
5
5
5
5
5
5
5
5
5
5
5
5
5
5
5
5
5
5
5
5
5
5
5
5
5
5
5
5
5
5
5
5
5
5
5
5
5
5
5
5
5
5
5
5
5
5
5
5
5
5
5
5
5
5
5
5
5
5
5
5
5
5
5
5
5
5
5
5
5
5
5
5
5
5
5
5
5
5
5
5
5
5
5
5
5
5
5
5
5
5
5
5
5
5
5
5
5
5
5
5
5
5
5
5
5
5
5
5
5
5
5
5
5
5
5
5
5
5
5
5
5
5
5
5
5
5
5
5
5
5
5
5
5
5
5
5
5
5
5
5
5
5
5
5
5
5
5
5
5
5
5
5
5
5
5
5
5
5
5
5
5
5
5
5
5
5
5
5
5
5
5
5
5
5
5
5
5
5
5
5
5
5
5
5
5
5
5
5
5
5
5
5
5
5
5
5
5
5
5
5
5
5
5
5
5
5
5
5
5
5
5
5
5
5
5
5

CELL_DATA 568
SCALARS cell_data_0 double
LOOKUP_TABLE default
2.11981319446e-06
4.55588900711e-06
1.36972955892e-05
3.85328044126e-07
3.53761800244e-07
3.29247064663e-09
7.59914006282e-09
4.15967415258e-09
4.27559769235e-08
3.79105803715e-08
2.98269681008e-09
8.48914456148e-08
5.4951679254e-08
1.14259831414e-07
9.33818924271e-08
1.31913889278e-07
1.18585366152e-07
1.37144412673e-07
1.40613727748e-07
1.63948410991e-07
1.72919634733e-07
1.83913344606e-07
1.87406271627e-07
1.75917949382e-07
1.82787854327e-07
1.8195367178e-07
2.10607556354e-07
1.7471020543e-07
1.99943224301e-07
1.68050433996e-07
2.16501707381e-07
1.58782503371e-07
2.09425824851e-07
1.3085765463e-07
2.03870671081e-07
1.03646794471e-07
1.93390300056e-07
6.54724903906e-08
1.63139995994e-07
2.49618660958e-08
1.09707963715e-07
9.56111048628e-09
6.24961363655e-09
2.40596445779e-07
7.54554016479e-08
1.38699600618e-06
1.85772210741e-06
2.05200949542e-07
1.58176596247e-10
6.7947569479e-10
3.91145262935e-10
2.31693436771e-09
5.3698072836e-10
1.63429868485e-09
2.34948853624e-09
2.94434942851e-09
3.64366760396e-10
1.4402463306e-09
2.65879737617e-09
1.30231279511e-09
1.67311625651e-09
1.25092013648e-08
6.16518465933e-08
4.74494664745e-08
1.25648754148e-07
9.73807675233e-09
3.75300752151e-09
3.69042562822e-08
3.7721967004e-08
1.70777470417e-08
1.54098081257e-08
1.59590621871e-09
8.16686082677e-09
1.26844526871e-08
8.43976875817e-09
8.07690060453e-09
3.99970797813e-09
1.67367847236e-10
3.09195023216e-09
6.44969284745e-09
8.89977771064e-09
1.19279108434e-08
7.00569299346e-09
6.10933671304e-09
1.07796371042e-08
1.11029027632e-08
4.53648283754e-08
1.06154077458e-07
8.1370904514e-08
1.23259741049e-07
6.36231263405e-08
3.38618678784e-08
2.0524603433e-08
3.8181267108e-09
7.9689381325e-09
1.94030998847e-08
2.36315549795e-08
1.9125539351e-08
1.85037358602e-08
1.35608166937e-08
1.17805183487e-08
5.80427216955e-09
3.17926366267e-09
3.31789718548e-09
5.98705669694e-09
1.10759669956e-08
1.30543664197e-08
1.72350194059e-08
1.76643700523e-08
2.11189115374e-08
1.62659668008e-08
1.64852679804e-08
2.63758761545e-09
3.79026749674e-09
7.81495125919e-10
3.57146511e-08
3.15307810785e-09
1.4441925886e-08
2.21685798089e-08
3.25615983831e-08
3.29719148541e-08
2.97345395499e-08
2.67810097521e-08
2.27746474258e-08
1.91196483834e-08
1.46470218126e-08
1.1033271964e-08
5.76599857304e-09
2.6192277094e-09
3.19154096978e-09
6.13817590403e-09
1.08870850356e-08
1.43037367778e-08
1.81278389034e-08
2.16358936452e-08
2.44079559671e-08
2.70743551862e-08
2.94418476376e-08
2.69323917975e-08
2.52847953066e-08
1.70913988105e-08
1.71685540042e-08
8.5302842211e-09
9.33903652119e-10
2.34646875909e-08
3.19624264914e-08
3.53761028878e-08
4.31294730693e-08
4.22269572795e-08
3.72714350355e-08
3.43421686693e-08
2.95850413758e-08
2.53945071042e-08
2.08756933087e-08
1.67021450499e-08
1.23849384952e-08
8.23652058184e-09
4.14641639955e-09
1.94756144359e-10
3.9352035059e-09
8.00797303657e-09
1.21141795738e-08
1.60470465803e-08
1.99968780824e-08
2.4199826964e-08
2.74138752032e-08
3.12147043204e-08
3.32799844995e-08
3.68986677538e-08
3.39789321495e-08
3.41908469808e-08
2.63890973462e-08
2.23365968236e-08
1.19828079308e-08
1.82434881892e-09
3.93511594825e-08
4.76375246285e-08
4.80747324369e-08
5.34994051398e-08
5.03820325927e-08
4.54211381361e-08
4.03246410431e-08
3.583000103e-08
3.04294891454e-08
2.60643148554e-08
2.06129906503e-08
1.66650172355e-08
1.15346148682e-08
7.84715948825e-09
2.77549187688e-09
8.09955104763e-10
5.83539185166e-09
9.32582940164e-09
1.43882609068e-08
1.7696180224e-08
2.28813479845e-08
2.64409533418e-08
3.15159200069e-08
3.42073934427e-08
3.84519255324e-08
4.01312538163e-08
4.24088954749e-08
4.04349181649e-08
3.32218057251e-08
2.35174333401e-08
3.40360424468e-09
7.17673271697e-09
1.0775897194e-09
5.13583865373e-08
5.83666274825e-08
5.83789439236e-08
3.51981506548e-08
1.70712385486e-08
3.22129727627e-08
1.44852479553e-08
2.59525339133e-08
1.13662951135e-08
1.97233224485e-08
8.18352068003e-09
1.34659875552e-08
5.03638529488e-09
7.43968242455e-09
2.05509722156e-09
1.51041204873e-09
9.56001141535e-10
4.3570133424e-09
3.90031244063e-09
1.01910630235e-08
6.69334566576e-09
1.59976066375e-08
9.78652242365e-09
2.2122143973e-08
1.2561610379e-08
2.74806061272e-08
1.50008691213e-08
3.11262288341e-08
1.57193577916e-08
2.75485719126e-08
1.03974982984e-08
5.23529569393e-09
9.59289649542e-09
3.24916658294e-09
1.63607399685e-08
3.60913973007e-08
3.3061627233e-11
2.96127725473e-09
6.13039437577e-10
9.93783766891e-10
1.88459420955e-10
3.65681298955e-10
2.21113783726e-10
5.31483772586e-11
1.90577611839e-10
7.49019236352e-11
2.02665055513e-10
5.78301493599e-11
3.25018632485e-10
5.47444826741e-11
1.54063019211e-10
1.93362702147e-10
2.32224539496e-10
8.55573882699e-12
3.20796279879e-10
4.36520700211e-11
4.06902104428e-10
2.28504651226e-10
6.46714523286e-10
9.92092603936e-10
1.91745376544e-09
2.78879543268e-09
4.59766651126e-09
5.7385884513e-10
8.06342288815e-09
2.27076616815e-09
2.45102966645e-09
1.69818683936e-11
3.71894059903e-09
5.04265884105e-10
1.24541184755e-09
2.38312750596e-10
3.01692692993e-10
3.98644312053e-10
1.01330802565e-10
3.20147749996e-10
1.75207042765e-10
2.97875405143e-10
4.04061012413e-10
8.98199069413e-11
2.66840237546e-10
2.01709975903e-10
5.01576528839e-10
4.31604051166e-11
7.45015512728e-10
5.86686069274e-10
1.37993623163e-09
1.15328022624e-09
2.52842594906e-09
3.64791657165e-09
5.20069196899e-09
2.95543320074e-11
1.0759053801e-08
2.53405115179e-09
3.78268302976e-09
1.13301722472e-10
3.50124968912e-09
4.8552741605e-10
1.18772866143e-09
2.39083737908e-10
2.46718653102e-10
2.05224509817e-10
1.20058159409e-10
6.49026023385e-10
1.49385255129e-10
6.68568214772e-10
9.88392116908e-10
3.45907247888e-11
9.21395385688e-10
5.42270086345e-11
1.12732291428e-09
1.1703044139e-09
2.21678875687e-09
3.78226530405e-09
5.64906676699e-09
1.82551798395e-10
1.15620258081e-08
1.83552266797e-09
6.48410525902e-09
2.63538190089e-10
4.46539893816e-09
4.28019139842e-10
1.185847346e-09
4.41615538615e-10
4.99844224553e-10
3.58612239227e-11
1.37507994013e-09
2.08962885359e-11
1.07335688346e-09
1.06329808403e-09
1.26765674921e-09
2.26364553345e-09
4.52618799441e-09
5.62371867424e-09
5.04954743527e-11
1.47431754766e-08
1.76588741434e-09
7.47057743012e-09
8.40294979129e-11
4.44532235367e-09
5.85107743933e-10
1.64170515752e-09
4.08181142717e-10
3.07839523307e-09
2.48879061691e-09
4.09891098682e-09
5.31033654408e-09
2.9954036885e-10
1.13578334163e-08
4.27248650659e-10
1.03824540446e-08
2.71563932188e-11
3.81912255187e-09
3.72508524279e-09
7.44129550436e-10
8.74206438916e-09
7.80274781547e-09
2.5349999494e-08
2.15051506331e-09
2.44735278594e-08
2.09189518443e-09
2.45332740829e-08
2.45695382699e-09
2.60801178903e-08
2.90532692171e-10
2.88918119166e-08
1.801214093e-09
3.4136460635e-08
3.83979583807e-09
3.70380904151e-08
7.24649755966e-09
9.53888784377e-09
8.96229163757e-09
2.32989300854e-08
5.71977999721e-08
1.84029106348e-08
4.09067444482e-08
2.09641511453e-08
5.23175869994e-08
4.72511860707e-08
1.53871834136e-08
4.25472966288e-06
7.09061828045e-06
5.39513029252e-06
2.75914509837e-06
9.48374473466e-08
4.11681814894e-08
4.20986283219e-08
1.55176317498e-11
1.64932116985e-10
8.0681984044e-09
4.10179573253e-09
1.16412097624e-08
2.10584567388e-08
1.10250640911e-09
3.69790396546e-08
1.46567959125e-08
2.33973364541e-08
9.90173484215e-09
1.32269526442e-09
2.22111772214e-08
5.86130100216e-10
2.03365230115e-08
2.04578292832e-09
2.05325601325e-08
2.35988456868e-09
1.91694478681e-08
3.34172828941e-09
1.992421555e-05
1.88231777353e-06
2.08068364097e-06
7.55484215633e-06
2.34180481192e-06
7.69159619253e-06
2.29914509067e-06
1.36109113973e-06
5.84822736445e-06
1.17685096217e-06
1.50236002994e-05
2.20399426198e-05
8.78463652206e-07
8.72492440339e-07
7.490095178e-06
4.60439939597e-06
5.75847064368e-06
3.39402980242e-07
2.91952094389e-07
1.48046369999e-07
4.19806048831e-07
5.7490909214e-07
1.11199457731e-06
2.24736740234e-08
2.78571791734e-10
3.26573366122e-08
1.77150851541e-08
4.81058685146e-08
4.25518284415e-09
1.11161338419e-07
9.483429854e-09
2.25949605917e-07
1.12143307351e-08
2.53806012793e-07
9.91429261016e-09
2.07971148393e-07
1.18401742802e-08
1.48831414043e-07
1.50198444832e-08
8.89721227035e-08
1.40211609765e-08
4.54053597675e-09
2.16854573332e-09
1.05850563376e-08
4.75713444191e-09
7.90344946212e-09
2.70076516277e-08
4.11107822263e-08
2.29761396852e-09
3.40559693155e-09
4.87059577984e-08
3.81222950527e-09
5.38653050538e-08
5.12945715604e-09
4.49115078398e-08
4.08491860528e-09
3.14835596467e-08
7.91764991849e-09
5.42078572119e-10
7.18993356837e-09
2.91789579488e-09
6.52151812641e-09
8.53046232328e-09
9.24711282328e-09
1.29079104894e-10
2.04997391973e-08
2.63011580505e-09
2.0288116244e-08
3.32370915926e-09
2.40169993611e-08
2.03344526663e-09
2.44139494468e-08
9.72588374275e-10
2.27754086351e-08
1.78339325252e-09
8.24624231383e-09
9.46661866687e-09
1.88496101918e-09
8.86140459805e-10
7.88350043664e-09
4.45943477091e-09
3.93601663175e-09
3.79777678328e-09
1.11838592061e-09
1.11948410444e-08
9.88513643898e-10
6.22526053702e-09
7.40068563082e-09
3.89401660093e-09
5.64989876293e-09
2.56420804531e-09
1.01391614912e-08
6.58912287778e-09
7.87612021001e-11
5.56808437393e-09
1.28020613875e-08
1.65136848106e-08
1.27637137102e-08
1.76530461373e-08
8.52668985132e-10
9.1406575864e-09
2.82517437994e-08
2.26904003637e-08
1.73081731748e-09
6.54605630663e-09
9.24667915909e-09
2.95695206043e-08
5.3379504024e-08
9.32350708525e-09
7.78043577154e-09
2.0291446706e-08
6.94130513169e-09
1.08039261601e-08
9.47448150274e-09
7.03234492137e-09
1.83520379962e-08
1.5710301636e-08
1.50702332063e-08
2.21210672655e-08
2.1272421999e-08
1.00405723274e-07
5.39228012054e-08
5.22604300495e-07
2.48217937705e-07
3.09171632122e-07
7.93167149973e-07
7.73349844094e-06
1.41800246551e-05
3.13574951004e-06
3.94938959282e-06
3.20905476924e-06
8.2474278749e-08
1.39238691332e-07
1.81197607003e-05
1.89748096219e-05
9.17293952855e-08
4.64608157733e-08
2.6415893712e-09
4.0382648426e-08
2.31766705057e-09
2.96526884786e-08
2.54759236136e-09
2.27171897548e-08
9.66852967079e-09
4.01198157223e-08
1.63384640674e-08
3.83181073066e-08
2.07295695283e-09
4.87639705105e-08
1.63448941291e-08
9.80714453812e-09
1.51738287147e-08

