# vtk DataFile Version 3.0
File Name: Molecule/methanol/methanol_0.5-2.vtk
ASCII
DATASET UNSTRUCTURED_GRID
FIELD FieldData 1
TIME 1 1 double
0.0
POINTS 32 double
1.611 0.0 -0.359
0.773 -1.459 -0.275
1.403 0.0 -0.933
0.639 -1.329 -0.857
-0.903 -1.459 -0.108
-0.887 -1.329 -0.705
-1.742 0.0 -0.025
-1.651 0.0 -0.629
-0.903 1.459 -0.108
-0.887 1.329 -0.705
0.773 1.459 -0.275
0.639 1.329 -0.857
1.907 0.0 0.656
1.354 1.335 0.656
1.354 0.412 1.925
1.354 -1.08 1.44
0.019 1.335 1.99
0.019 -0.0 2.543
0.019 -1.335 1.99
0.019 -1.888 0.656
0.019 1.888 0.656
-1.316 0.412 1.925
-1.316 -1.08 1.44
0.648 0.411 -2.001
-0.887 -1.075 -1.519
-0.887 0.411 -2.001
1.021 0.6645 -0.895
0.6435 0.87 -1.429
1.0255 0.2055 -1.467
0.6435 -0.459 -1.429
0.83675 0.30825 -1.734
0.83225 -0.56175 -1.162

CELLS 60 240
3 0 1 2
3 2 1 3
3 1 4 3
3 3 4 5
3 4 6 5
3 5 6 7
3 6 8 7
3 7 8 9
3 8 10 9
3 9 10 11
3 10 0 11
3 12 13 14
3 12 14 15
3 14 13 16
3 14 16 17
3 15 14 17
3 15 17 18
3 15 18 19
3 13 20 16
3 17 16 21
3 17 21 22
3 18 17 22
3 19 18 22
3 19 22 4
3 19 4 1
3 19 1 15
3 15 1 12
3 12 1 0
3 12 0 13
3 13 0 10
3 13 10 20
3 20 10 8
3 20 8 21
3 20 21 16
3 21 8 6
3 21 6 22
3 22 6 4
3 23 24 25
3 24 3 5
3 24 5 7
3 24 7 25
3 25 7 9
3 25 9 11
3 2 26 0
3 0 26 11
3 11 27 25
3 25 27 23
3 27 26 28
3 27 11 26
3 28 26 2
3 23 29 24
3 29 3 24
3 28 30 27
3 27 30 23
3 23 30 29
3 30 31 29
3 30 28 31
3 29 31 3
3 3 31 2
3 2 31 28

CELL_TYPES 60
5
5
5
5
5
5
5
5
5
5
5
5
5
5
5
5
5
5
5
5
5
5
5
5
5
5
5
5
5
5
5
5
5
5
5
5
5
5
5
5
5
5
5
5
5
5
5
5
5
5
5
5
5
5
5
5
5
5
5
5

CELL_DATA 60
SCALARS cell_data_0 double
LOOKUP_TABLE default
5.50447480838e-06
1.20274284231e-05
2.66653218226e-06
5.64478040589e-07
3.22851232463e-07
7.96074704364e-07
6.795637171e-07
1.1561480912e-07
1.37950937342e-06
2.01570210703e-06
2.12658516549e-06
4.64791704842e-09
2.9125985409e-08
8.96707238619e-10
3.38772954579e-08
1.35906710517e-08
3.35774649149e-08
1.35708187813e-07
1.56677013048e-08
7.61056868794e-08
5.80020985396e-08
6.81425774624e-08
8.21388425397e-08
6.10866160647e-07
5.06744717724e-07
7.27846647028e-07
4.6625740829e-07
3.11314360825e-07
3.02493090989e-08
5.46788864701e-07
1.17501729372e-07
3.98255412808e-07
1.62298070787e-06
1.37849083573e-07
4.21806395595e-06
3.00296642106e-07
2.29010261901e-06
1.30268047081e-05
3.06357187281e-06
1.50592059407e-07
1.70760249841e-06
1.43403436216e-06
5.27822339738e-07
7.81513902541e-07
1.25482803353e-06
2.87306236898e-06
3.20130521811e-06
7.71127420563e-07
1.60800559938e-06
2.29010537294e-05
5.37182262713e-06
1.05984587211e-05
1.2178286714e-05
6.03005686992e-08
4.08907143179e-06
4.38332944654e-06
2.14028230128e-05
1.22153525401e-05
4.13963747029e-05
3.39451486936e-05

