# vtk DataFile Version 3.0
File Name: Molecule/methanol/normals_  16.00.vtk
ASCII
DATASET UNSTRUCTURED_GRID
FIELD FieldData 1
TIME 1 1 double
0.0
POINTS 779 double
1.611 0.0 -0.359
1.588 -0.277 -0.357
1.475 0.0 -0.634
1.454 -0.26 -0.632
1.403 0.0 -0.933
1.382 -0.253 -0.931
1.52 -0.547 -0.35
1.39 -0.512 -0.626
1.32 -0.498 -0.925
1.409 -0.802 -0.339
1.286 -0.75 -0.615
1.219 -0.73 -0.914
1.257 -1.035 -0.324
1.144 -0.968 -0.601
1.081 -0.942 -0.901
1.07 -1.239 -0.305
0.969 -1.16 -0.584
0.91 -1.129 -0.884
0.851 -1.41 -0.283
0.764 -1.32 -0.564
0.711 -1.285 -0.864
0.608 -1.543 -0.259
0.536 -1.444 -0.541
0.489 -1.405 -0.842
0.346 -1.633 -0.233
0.291 -1.529 -0.516
0.251 -1.487 -0.818
0.073 -1.679 -0.206
0.036 -1.571 -0.491
0.002 -1.529 -0.793
-0.204 -1.679 -0.178
-0.223 -1.571 -0.465
-0.25 -1.529 -0.768
-0.477 -1.633 -0.151
-0.479 -1.529 -0.44
-0.499 -1.487 -0.743
-0.739 -1.543 -0.125
-0.724 -1.444 -0.415
-0.737 -1.405 -0.72
-0.982 -1.41 -0.101
-0.952 -1.32 -0.393
-0.959 -1.285 -0.698
-1.201 -1.239 -0.079
-1.157 -1.16 -0.372
-1.158 -1.129 -0.678
-1.388 -1.035 -0.06
-1.332 -0.968 -0.355
-1.329 -0.942 -0.661
-1.54 -0.802 -0.045
-1.474 -0.75 -0.341
-1.467 -0.73 -0.647
-1.651 -0.547 -0.034
-1.578 -0.512 -0.33
-1.568 -0.498 -0.637
-1.719 -0.277 -0.027
-1.641 -0.26 -0.324
-1.63 -0.253 -0.631
-1.742 -0.0 -0.025
-1.663 -0.0 -0.322
-1.651 -0.0 -0.629
-1.719 0.277 -0.027
-1.641 0.26 -0.324
-1.63 0.253 -0.631
-1.651 0.547 -0.034
-1.578 0.512 -0.33
-1.568 0.498 -0.637
-1.54 0.802 -0.045
-1.474 0.75 -0.341
-1.467 0.73 -0.647
-1.388 1.035 -0.06
-1.332 0.968 -0.355
-1.329 0.942 -0.661
-1.201 1.239 -0.079
-1.157 1.16 -0.372
-1.158 1.129 -0.678
-0.982 1.41 -0.101
-0.952 1.32 -0.393
-0.959 1.285 -0.698
-0.739 1.543 -0.125
-0.724 1.444 -0.415
-0.737 1.405 -0.72
-0.477 1.633 -0.151
-0.479 1.529 -0.44
-0.499 1.487 -0.743
-0.204 1.679 -0.178
-0.223 1.571 -0.465
-0.25 1.529 -0.768
0.073 1.679 -0.206
0.036 1.571 -0.491
0.002 1.529 -0.793
0.346 1.633 -0.233
0.291 1.529 -0.516
0.251 1.487 -0.818
0.608 1.543 -0.259
0.536 1.444 -0.541
0.489 1.405 -0.842
0.851 1.41 -0.283
0.764 1.32 -0.564
0.711 1.285 -0.864
1.07 1.239 -0.305
0.969 1.16 -0.584
0.91 1.129 -0.884
1.257 1.035 -0.324
1.144 0.968 -0.601
1.081 0.942 -0.901
1.409 0.802 -0.339
1.286 0.75 -0.615
1.219 0.73 -0.914
1.52 0.547 -0.35
1.39 0.512 -0.626
1.32 0.498 -0.925
1.588 0.277 -0.357
1.454 0.26 -0.632
1.382 0.253 -0.931
1.907 0.0 0.656
1.889 0.257 0.656
1.889 0.129 0.878
1.889 -0.129 0.878
1.889 -0.257 0.656
1.889 -0.129 0.433
1.889 0.129 0.433
1.837 0.441 0.91
1.837 0.255 1.097
1.837 -0.0 1.165
1.837 -0.255 1.097
1.837 -0.441 0.91
1.837 -0.509 0.656
1.837 -0.441 0.401
1.837 -0.255 0.215
1.837 -0.0 0.146
1.837 0.255 0.215
1.837 0.441 0.401
1.837 0.509 0.656
1.75 0.707 0.913
1.75 0.576 1.139
1.75 0.376 1.307
1.75 0.131 1.396
1.75 -0.131 1.396
1.75 -0.376 1.307
1.75 -0.576 1.139
1.75 -0.707 0.913
1.75 -0.752 0.656
1.75 -0.707 0.398
1.75 -0.576 0.172
1.75 -0.376 0.004
1.75 -0.131 -0.085
1.75 0.131 -0.085
1.75 0.376 0.004
1.75 0.576 0.172
1.75 0.707 0.398
1.75 0.752 0.656
1.632 0.947 0.909
1.632 0.849 1.146
1.632 0.693 1.349
1.632 0.49 1.505
1.632 0.254 1.603
1.632 0.0 1.636
1.632 -0.254 1.603
1.632 -0.49 1.505
1.632 -0.693 1.349
1.632 -0.849 1.146
1.632 -0.947 0.909
1.632 -0.981 0.656
1.632 -0.947 0.402
1.632 -0.849 0.165
1.632 -0.693 -0.038
1.632 -0.49 -0.194
1.632 0.49 -0.194
1.632 0.693 -0.038
1.632 0.849 0.165
1.632 0.947 0.402
1.632 0.981 0.656
1.483 1.163 0.912
1.483 1.081 1.156
1.483 0.948 1.376
1.483 0.771 1.563
1.483 0.558 1.708
1.483 0.319 1.803
1.483 0.064 1.845
1.483 -0.193 1.831
1.483 -0.441 1.762
1.483 -0.668 1.642
1.483 -0.865 1.475
1.483 -1.021 1.27
1.483 -1.129 1.036
1.483 -1.184 0.784
1.483 -1.184 0.527
1.483 -1.129 0.275
1.483 -1.021 0.041
1.483 -0.865 -0.164
1.483 0.948 -0.065
1.483 1.081 0.155
1.483 1.163 0.4
1.483 1.191 0.656
1.307 1.356 0.909
1.307 1.286 1.154
1.307 1.173 1.382
1.307 1.019 1.585
1.307 0.831 1.756
1.307 0.615 1.89
1.307 0.378 1.982
1.307 0.127 2.029
1.307 -0.127 2.029
1.307 -0.378 1.982
1.307 -0.615 1.89
1.307 -0.831 1.756
1.307 -1.019 1.585
1.307 -1.173 1.382
1.307 -1.286 1.154
1.307 -1.356 0.909
1.307 -1.379 0.656
1.307 -1.356 0.402
1.307 -1.286 0.157
1.307 -1.173 -0.071
1.307 1.173 -0.071
1.307 1.286 0.157
1.307 1.356 0.402
1.307 1.379 0.656
1.107 1.521 0.909
1.107 1.458 1.156
1.107 1.356 1.39
1.107 1.217 1.603
1.107 1.044 1.79
1.107 0.843 1.947
1.107 0.619 2.068
1.107 0.379 2.15
1.107 0.127 2.192
1.107 -0.127 2.192
1.107 -0.379 2.15
1.107 -0.619 2.068
1.107 -0.843 1.947
1.107 -1.044 1.79
1.107 -1.217 1.603
1.107 -1.356 1.39
1.107 -1.458 1.156
1.107 -1.521 0.909
1.107 -1.542 0.656
1.107 -1.521 0.402
1.107 -1.458 0.155
1.107 -1.356 -0.078
1.107 1.356 -0.078
1.107 1.458 0.155
1.107 1.521 0.402
1.107 1.542 0.656
0.887 1.656 0.911
0.887 1.598 1.161
0.887 1.502 1.399
0.887 1.371 1.62
0.887 1.208 1.818
0.887 1.016 1.988
0.887 0.801 2.128
0.887 0.566 2.233
0.887 0.319 2.301
0.887 0.064 2.33
0.887 -0.192 2.32
0.887 -0.444 2.272
0.887 -0.686 2.185
0.887 -0.911 2.062
0.887 -1.115 1.907
0.887 -1.293 1.722
0.887 -1.441 1.512
0.887 -1.554 1.282
0.887 -1.632 1.037
0.887 -1.671 0.784
0.887 -1.671 0.527
0.887 -1.632 0.274
0.887 -1.554 0.029
0.887 1.502 -0.088
0.887 1.598 0.15
0.887 1.656 0.4
0.887 1.676 0.656
0.651 1.76 0.909
0.651 1.706 1.157
0.651 1.618 1.394
0.651 1.496 1.617
0.651 1.344 1.82
0.651 1.165 2.0
0.651 0.962 2.152
0.651 0.739 2.273
0.651 0.501 2.362
0.651 0.253 2.416
0.651 0.0 2.434
0.651 -0.253 2.416
0.651 -0.501 2.362
0.651 -0.739 2.273
0.651 -0.962 2.152
0.651 -1.165 2.0
0.651 -1.344 1.82
0.651 -1.496 1.617
0.651 -1.618 1.394
0.651 -1.706 1.157
0.651 -1.76 0.909
0.651 -1.779 0.656
0.651 -1.76 0.402
0.651 -1.706 0.155
0.651 -1.618 -0.083
0.651 1.618 -0.083
0.651 1.706 0.155
0.651 1.76 0.402
0.651 1.779 0.656
0.403 1.831 0.907
0.403 1.779 1.154
0.403 1.695 1.392
0.403 1.579 1.616
0.403 1.434 1.822
0.403 1.261 2.006
0.403 1.066 2.165
0.403 0.85 2.296
0.403 0.619 2.397
0.403 0.376 2.465
0.403 0.126 2.499
0.403 -0.126 2.499
0.403 -0.376 2.465
0.403 -0.619 2.397
0.403 -0.85 2.296
0.403 -1.066 2.165
0.403 -1.261 2.006
0.403 -1.434 1.822
0.403 -1.579 1.616
0.403 -1.695 1.392
0.403 -1.779 1.154
0.403 -1.831 0.907
0.403 -1.848 0.656
0.403 -1.831 0.404
0.403 -1.779 0.157
0.403 -1.695 -0.081
0.403 1.695 -0.081
0.403 1.779 0.157
0.403 1.831 0.404
0.403 1.848 0.656
0.148 1.866 0.912
0.148 1.813 1.164
0.148 1.727 1.406
0.148 1.609 1.634
0.148 1.461 1.844
0.148 1.285 2.032
0.148 1.086 2.194
0.148 0.866 2.328
0.148 0.631 2.43
0.148 0.383 2.499
0.148 0.129 2.534
0.148 -0.129 2.534
0.148 -0.383 2.499
0.148 -0.631 2.43
0.148 -0.866 2.328
0.148 -1.086 2.194
0.148 -1.285 2.032
0.148 -1.461 1.844
0.148 -1.609 1.634
0.148 -1.727 1.406
0.148 -1.813 1.164
0.148 -1.866 0.912
0.148 -1.883 0.656
0.148 -1.866 0.399
0.148 -1.813 0.148
0.148 1.813 0.148
0.148 1.866 0.399
0.148 1.883 0.656
-0.11 1.866 0.912
-0.11 1.813 1.164
-0.11 1.727 1.406
-0.11 1.609 1.634
-0.11 1.461 1.844
-0.11 1.285 2.032
-0.11 1.086 2.194
-0.11 0.866 2.328
-0.11 0.631 2.43
-0.11 0.383 2.499
-0.11 0.129 2.534
-0.11 -0.129 2.534
-0.11 -0.383 2.499
-0.11 -0.631 2.43
-0.11 -0.866 2.328
-0.11 -1.086 2.194
-0.11 -1.285 2.032
-0.11 -1.461 1.844
-0.11 -1.609 1.634
-0.11 -1.727 1.406
-0.11 -1.813 1.164
-0.11 -1.866 0.912
-0.11 -1.883 0.656
-0.11 -1.866 0.399
-0.11 -1.813 0.148
-0.11 1.813 0.148
-0.11 1.866 0.399
-0.11 1.883 0.656
-0.365 1.831 0.907
-0.365 1.779 1.154
-0.365 1.695 1.392
-0.365 1.579 1.616
-0.365 1.434 1.822
-0.365 1.261 2.006
-0.365 1.066 2.165
-0.365 0.85 2.296
-0.365 0.619 2.397
-0.365 0.376 2.465
-0.365 0.126 2.499
-0.365 -0.126 2.499
-0.365 -0.376 2.465
-0.365 -0.619 2.397
-0.365 -0.85 2.296
-0.365 -1.066 2.165
-0.365 -1.261 2.006
-0.365 -1.434 1.822
-0.365 -1.579 1.616
-0.365 -1.695 1.392
-0.365 -1.779 1.154
-0.365 -1.831 0.907
-0.365 -1.848 0.656
-0.365 -1.831 0.404
-0.365 -1.779 0.157
-0.365 1.779 0.157
-0.365 1.831 0.404
-0.365 1.848 0.656
-0.613 1.779 0.656
-0.613 1.76 0.909
-0.613 1.706 1.157
-0.613 1.618 1.394
-0.613 1.496 1.617
-0.613 1.344 1.82
-0.613 1.165 2.0
-0.613 0.962 2.152
-0.613 0.739 2.273
-0.613 0.501 2.362
-0.613 0.253 2.416
-0.613 0.0 2.434
-0.613 -0.253 2.416
-0.613 -0.501 2.362
-0.613 -0.739 2.273
-0.613 -0.962 2.152
-0.613 -1.165 2.0
-0.613 -1.344 1.82
-0.613 -1.496 1.617
-0.613 -1.618 1.394
-0.613 -1.706 1.157
-0.613 -1.76 0.909
-0.613 -1.779 0.656
-0.613 -1.76 0.402
-0.613 -1.706 0.155
-0.613 1.706 0.155
-0.613 1.76 0.402
-0.849 1.676 0.656
-0.849 1.656 0.911
-0.849 1.598 1.161
-0.849 1.502 1.399
-0.849 1.371 1.62
-0.849 1.208 1.818
-0.849 1.016 1.988
-0.849 0.801 2.128
-0.849 0.566 2.233
-0.849 0.319 2.301
-0.849 0.064 2.33
-0.849 -0.192 2.32
-0.849 -0.444 2.272
-0.849 -0.686 2.185
-0.849 -0.911 2.062
-0.849 -1.115 1.907
-0.849 -1.293 1.722
-0.849 -1.441 1.512
-0.849 -1.554 1.282
-0.849 -1.632 1.037
-0.849 -1.671 0.784
-0.849 -1.671 0.527
-0.849 -1.632 0.274
-0.849 -1.554 0.029
-0.849 1.598 0.15
-0.849 1.656 0.4
-1.069 1.542 0.656
-1.069 1.521 0.909
-1.069 1.458 1.156
-1.069 1.356 1.39
-1.069 1.217 1.603
-1.069 1.044 1.79
-1.069 0.843 1.947
-1.069 0.619 2.068
-1.069 0.379 2.15
-1.069 0.127 2.192
-1.069 -0.127 2.192
-1.069 -0.379 2.15
-1.069 -0.619 2.068
-1.069 -0.843 1.947
-1.069 -1.044 1.79
-1.069 -1.217 1.603
-1.069 -1.356 1.39
-1.069 -1.458 1.156
-1.069 -1.521 0.909
-1.069 -1.542 0.656
-1.069 -1.521 0.402
-1.069 -1.458 0.155
-1.069 1.458 0.155
-1.069 1.521 0.402
-1.269 1.379 0.656
-1.269 1.356 0.909
-1.269 1.286 1.154
-1.269 1.173 1.382
-1.269 1.019 1.585
-1.269 0.831 1.756
-1.269 0.615 1.89
-1.269 0.378 1.982
-1.269 0.127 2.029
-1.269 -0.127 2.029
-1.269 -0.378 1.982
-1.269 -0.615 1.89
-1.269 -0.831 1.756
-1.269 -1.019 1.585
-1.269 -1.173 1.382
-1.269 -1.286 1.154
-1.269 -1.356 0.909
-1.269 -1.379 0.656
-1.269 -1.356 0.402
-1.269 -1.286 0.157
-1.269 1.286 0.157
-1.269 1.356 0.402
-1.445 1.191 0.656
-1.445 1.163 0.912
-1.445 1.081 1.156
-1.445 0.948 1.376
-1.445 0.771 1.563
-1.445 0.558 1.708
-1.445 0.319 1.803
-1.445 0.064 1.845
-1.445 -0.193 1.831
[...]
POINT_DATA 779
SCALARS point_data_0 double
LOOKUP_TABLE default
15.6623150164
31.0828855215
16.0388588077
16.6832918794
20.7623752303
11.8288335028
23.0237698286
20.8049909234
18.623772999
11.1348055984
20.8266341961
19.5512418322
14.1597125046
20.782621636
18.0066995866
16.1115325403
20.7575242683
18.3443998076
25.8286703143
20.7599033442
20.4621846183
18.8194588704
20.7857732391
19.0752741727
9.22386847525
20.8223443447
11.0006716055
24.3513783605
20.8110568529
30.4382074761
16.704451937
20.7843497714
20.5047484656
16.403336548
20.7711942559
19.2401520613
18.5300250374
20.7757499421
21.3310972518
11.435620539
20.7631487151
19.9216562656
16.2605141109
20.7929282509
19.9442859856
26.1674641116
20.7622125983
11.6569081636
17.3758799072
20.7971753804
17.362298327
10.1859442456
20.8195391244
19.0594739921
30.2023186214
20.7897903649
18.8191804398
10.1099874556
20.7481346503
18.6671714049
27.7625484118
20.7785922761
17.4062997
10.2433032108
20.821182783
18.8054615441
30.4979475244
20.786318959
19.3092526826
17.1033037609
20.8007865978
19.6485594077
16.4370015771
20.7682930128
20.0222994006
15.7744649072
20.7494449523
12.0420901656
15.2892697215
20.781745083
20.4571928822
15.2884194952
20.7794340619
20.4502038331
15.6892537112
20.7829195781
20.5007411272
29.4952718638
20.8204881583
20.5537362712
11.0969915186
20.8052535921
20.5770443786
28.0554657074
20.7526322064
20.6752042863
16.0018836911
20.7659349018
20.5445891134
15.3954769856
20.7942463925
14.0118050192
15.1761588317
20.7785098095
19.1482445143
14.8691469752
20.7959257146
18.9015043515
19.4729041429
20.7870407647
18.5826484519
11.6833880838
20.8028177953
11.8023173562
15.7253503067
16.7455200536
16.456328212
16.4533567816
16.4620266154
16.4420155177
16.4413968345
18.4594187218
12.848511799
18.1921448967
14.3270750423
18.1828265215
14.3592612689
18.1839698662
14.3217255769
18.2086452973
14.3259571997
18.2063018766
14.3641337206
19.3100237387
15.885354989
17.4996592551
18.9478792083
12.1859258965
17.5076098672
18.9561066976
12.1933592214
17.5082993095
18.9559002494
12.1193448062
17.4944560451
11.313361512
20.8015362347
27.6352790759
10.9731833105
12.1877567143
17.5167587105
19.6229441806
16.9676276373
15.2126596759
18.6223151915
11.3147433563
20.0024842152
15.3683162677
18.6049400278
11.1680453488
11.1783362746
27.4523631288
18.7018523194
11.0556736095
10.970914514
26.5551455153
18.5034364985
11.2846676468
13.6950721373
18.425326028
15.1475585612
18.7749576022
19.974836517
17.8288876998
13.0411605798
15.5422183549
17.845670334
20.1276781856
19.5187144347
10.956945808
13.5458304865
16.0014602989
18.2801846125
20.5574543647
19.5057428616
11.4988173819
14.0649264026
16.4431619937
18.7097536809
11.6677112696
18.3982172634
14.0088110036
17.3647157277
19.636164078
20.1409097819
18.100400776
12.5041883026
14.5860827358
16.4984209987
18.3268367466
20.1618535565
11.5148914626
18.4607901532
13.3120519926
15.2044314976
16.9265034339
18.6435434945
20.3819518139
11.3106171939
11.0104526634
13.6126600874
27.5256703011
17.5029396453
19.0843877547
16.7215482638
13.5616990949
18.1801007945
20.0446126451
20.2502472857
18.5071943516
11.4496908788
12.9309851787
14.3938549259
15.7430506138
16.9882801028
18.2481636485
19.5162996956
11.6253624649
8.56679988577
10.6127217064
12.5844023186
24.7817925268
15.3460579261
16.5282935275
17.7236226863
18.8314565219
20.020036717
11.3644840997
9.32068472768
11.2484318528
12.7261202377
12.7242134985
19.1639072623
20.4881051443
20.4425776317
18.9073095473
10.5750068404
11.6440392246
12.7003275602
13.7091120111
14.7034918882
15.6621307681
16.5585636526
17.4626618614
18.3904705993
19.2923352745
20.1841741023
21.0903408167
19.9325667499
9.80504646049
10.9058690438
11.9584710348
13.0281419229
14.0140719076
14.9866333698
15.9205899139
16.8839710772
16.2949994899
12.0722621187
19.8879862394
20.8275003485
20.5602444304
19.0027670104
10.4801394669
11.5559239002
12.5538746719
13.4923195023
14.4013445355
15.2452030167
16.1150317022
16.9133513041
17.6997223138
18.4731158287
19.2248438687
20.0168733806
20.8139717392
11.6327516159
9.52253770778
10.775384165
11.9799193315
13.1277556954
14.2315674023
15.2630108933
27.9101776531
16.6566331896
17.3722633878
10.758091265
7.20484841039
20.1820548096
20.9610510546
20.5558175763
19.1138332298
10.0559821719
10.7236973263
11.394107031
12.0730794374
12.7260871589
13.3387987322
13.9471800133
14.4896870998
15.0696758819
15.5744317341
16.1118967209
16.5881066358
17.099530816
17.5393417436
18.0213672399
18.4508789593
18.9047351542
19.3545376161
19.7876979169
20.1793311411
20.6428577432
11.2526035339
9.30308309082
6.02558487259
21.458121772
19.1151034034
20.2171131075
12.4110944082
20.6834639906
19.5421221372
8.75557209492
8.76070346743
8.78287647229
8.77602445338
8.77089790273
8.75302996631
8.75023659233
8.77030537311
8.78781483361
8.78745823174
8.77508613868
8.7562036123
8.77394405694
8.78816384434
8.80464925087
8.79579466017
8.77534901026
8.77777820024
8.77799706884
8.78934105249
8.79496712565
8.7827875815
8.76846715735
8.0009891538
17.2679973972
10.2053640961
20.8821325906
19.6743020754
8.73750432814
8.75190814821
8.75896043539
8.74539689016
8.74769697101
8.74410775791
8.7410960617
8.76207571854
8.7445584454
8.762204645
8.73219074221
8.75499689251
8.74480017824
8.76046713386
8.75266580777
8.75199925868
8.74641340962
8.75001063426
8.75304770588
8.7517165098
8.75364745614
8.74885384909
8.74157657558
7.98593210995
17.1137975222
10.1302557119
7.14189338381
20.2742392393
8.98502221436
8.88586450355
8.76176921027
8.66565559317
8.57644767178
8.53290120816
8.45487020165
8.39499600706
8.32308411431
8.28528333542
8.27952401478
8.28661979096
8.27281376367
8.26962293944
8.25954393735
8.30920711068
8.36218222696
8.42985508318
8.50375009356
8.5356554066
8.62938972745
5.27632095082
9.11391683554
15.6866002564
16.7197651951
17.2039504585
10.7824864067
20.9106195394
20.391180296
19.8317026634
19.2692785233
18.7168025599
18.1831451529
17.6439319778
17.1117380592
16.5951287237
16.0762218263
15.5826888113
15.0936561018
14.6009549176
14.1227016747
8.29429879206
13.5029076761
12.6970013672
11.8816319671
11.0573229201
10.2687832228
9.49256215001
16.7387765867
20.3582638908
17.7370584448
16.5723228066
9.64447559156
10.9014188849
20.6553038374
19.8072381407
18.9450287686
18.1299586388
17.2784746185
16.3980404232
15.5135942058
14.6268961545
13.7004394041
12.7790933365
11.8053327741
10.8584636609
9.83030644338
10.2650284505
20.3400775653
19.5219329915
18.7012982866
17.8133527079
16.9653150114
16.1112057159
15.2223702412
14.3337451828
9.53979881275
16.5736249633
10.1570397046
10.9289408803
20.5563845698
19.5921083654
18.6901427722
17.745558964
16.7959215797
15.9014357451
15.0008625253
14.1180254795
13.2334845198
7.54424177181
11.5260127845
10.0906040231
16.542517945
19.8164356768
18.9686097842
18.1071108271
17.3013711821
16.5175512901
9.51982916207
15.4817238542
25.6896402525
16.4219055467
10.1950685035
11.1327316546
20.032366385
18.7109066974
17.3366920318
15.9402919711
14.6146633347
13.2727046583
7.30182199534
10.6866467369
16.1441201122
19.0320764027
17.7300060946
16.4714646817
15.3085881884
8.6716057375
13.0621112356
11.1730285115
17.4861817493
19.4430594905
9.50465843335
16.616825698
10.8969853591
11.420538061
19.4473771081
17.5633936163
15.5619682082
13.5113591562
11.3615225084
10.5745836823
19.0774877881
17.1658709563
15.1907673491
13.0983558748
10.9132998476
10.1670815979
18.6898772271
16.7645162432
14.7508349018
11.8152227826
16.8031694003
11.7575183123
11.5634006966
19.0516351988
16.6343465642
14.1896542498
7.30588422864
18.1868024919
18.2314827804
15.9759557849
8.49003194103
12.0370886315
15.9090693604
17.573670154
9.53797250415
14.0973202035
14.5773889162
9.80328012365
12.2212245398
12.126198325
17.7327336185
13.9251733089
11.6009113444
17.7083767276
13.9279941596
11.5547435134
17.7196841145
13.9378607559
11.5977735047
17.7347235066
27.5982659173
26.4549109187
13.9135737473
12.7187206608
15.9919009049
12.0160921434
15.9766921209
12.014062703
16.0020830596
11.9705827399
16.0091502594
7.64321666593
32.6007379219
6.64580645801
15.9767488358
14.6561523019
13.5198371452
13.505976721
13.5027226517
13.4982988127
13.4848873602
17.1744664276
24.7387511644
10.1788093171
31.0716137172
21.6363035065
11.0087600208
12.1265095211
30.924385282
11.0357245657
12.6429356671
12.0163600458
11.1243883804
11.4589150003
15.174752683
31.701117796
11.3222767683
9.05514141289
12.9043712444
15.1130533041
15.3252975594
13.6090873254
15.6792022168
17.6665192275
19.6742635267
19.8072540486
9.61045187892
11.9437911191
14.1714253201
16.2178095599
29.0957818483
16.5445497128
13.0392753716
15.2039993065
17.1136204241
32.5569941517
19.834356527
11.4493187929
8.97451270476
11.2813748612
13.3967845511
15.3419003036
17.1399337434
12.6592768446
22.5308333599
15.7341746285
17.9584639211
18.8688522234
19.779053693
20.7415904497
11.4663285836
9.65297878176
11.1924813475
12.6539220008
13.9888574291
15.2638546849
16.5036399453
17.6502553016
18.7764404648
19.8588353676
18.9047029196
17.5443354818
9.73517775034
10.7528133948
11.6788353281
12.5973042766
13.4700044299
14.3036307352
15.0737814003
15.8797839098
16.6389794591
17.3432336156
18.0375889821
18.7047672722
19.3632838374
20.0061657188
20.6990288423
19.4919585049
13.7792320247
16.7890347272
17.1059665815
17.435518022
17.7208597341
18.0036769922
18.2794223984
18.5778541945
11.3049592951
33.7612329137
19.407891929
19.6727199269
19.9388968898
20.2126970087
20.522499566
20.7682749912
10.5320253556
17.4564067057
8.1476509597
8.11678037915
8.13643200242
8.1658696439
8.16062307201
8.16662704925
8.19716195573
16.1793972689
11.6350988183
8.30120587176
8.32821327207
8.37690440326
8.41598829255
8.48158410515
8.55578065604
9.98933905698
10.0854808952
15.7036718745
15.2260515853
14.7687592917
14.2684877988
13.8008081356
13.3441139074
12.9064222778
12.4568019039
12.0194188228
11.5559208958
11.140479907
10.744286823
10.3417510291
9.95016449567
9.5472028198
10.096048096
18.1688999807
19.8327765322
19.200624466
18.6228750825
18.0625681162
10.6222343819
17.4556312654
16.6112338846
15.7288013402
14.869677198
14.0508338784
13.1704008029
12.3064681277
11.4732911164
10.6375925438
10.2326938366
10.7082782767
14.6253853008
13.102533777
11.5126656289
9.92888175529
16.0127355759
19.522398704
11.2077961483
18.4231572175
17.1694854276
15.85181684
14.531440257
13.1841222035
11.8414014286
18.5444227608
12.2515772566
19.1996697684
17.4723475805
15.7152717237
13.8755777922
11.9528804321
11.3519332656
20.4283399186
18.779712574
17.0386016955
15.2735847723
13.4257598095
11.2323886048
21.2834561932
18.2372901787
10.1099038943
15.3114497472
12.7450773981
19.0794222168
11.6696622012
18.7292739311
16.5490398872
14.2525672061
11.3860689967
16.0904805605
17.1936976262
10.6315950749
15.4207440701
21.6786638105
11.5449340762
17.0748260484
12.3928741393
14.9518580256
12.2481019208
16.2770054886
12.2305741691
14.2470391651
16.830987633
12.3293707163

