# vtk DataFile Version 3.0
File Name: Molecule/methanol/U_reac_  20.00-0.vtk
ASCII
DATASET UNSTRUCTURED_GRID
FIELD FieldData 1
TIME 1 1 double
0.0
POINTS 981 double
1.611 0.0 -0.359
1.594 -0.24 -0.357
1.475 0.0 -0.634
1.459 -0.224 -0.633
1.403 0.0 -0.933
1.387 -0.218 -0.931
1.543 -0.475 -0.352
1.412 -0.444 -0.628
1.341 -0.432 -0.927
1.459 -0.7 -0.344
1.333 -0.655 -0.62
1.265 -0.637 -0.919
1.345 -0.911 -0.332
1.226 -0.852 -0.61
1.16 -0.83 -0.909
1.201 -1.103 -0.318
1.092 -1.033 -0.596
1.03 -1.005 -0.896
1.032 -1.273 -0.301
0.934 -1.192 -0.58
0.876 -1.16 -0.88
0.841 -1.417 -0.282
0.754 -1.326 -0.563
0.701 -1.291 -0.863
0.631 -1.532 -0.261
0.558 -1.434 -0.543
0.51 -1.396 -0.844
0.407 -1.616 -0.239
0.348 -1.513 -0.522
0.306 -1.472 -0.824
0.173 -1.667 -0.216
0.129 -1.561 -0.5
0.093 -1.519 -0.802
-0.065 -1.684 -0.192
-0.094 -1.577 -0.478
-0.124 -1.534 -0.781
-0.304 -1.667 -0.168
-0.317 -1.561 -0.456
-0.341 -1.519 -0.759
-0.538 -1.616 -0.145
-0.536 -1.513 -0.434
-0.554 -1.472 -0.738
-0.762 -1.532 -0.123
-0.746 -1.434 -0.413
-0.758 -1.396 -0.718
-0.972 -1.417 -0.102
-0.942 -1.326 -0.394
-0.95 -1.291 -0.699
-1.163 -1.273 -0.083
-1.121 -1.192 -0.376
-1.124 -1.16 -0.681
-1.332 -1.103 -0.066
-1.28 -1.033 -0.36
-1.278 -1.005 -0.666
-1.475 -0.911 -0.051
-1.414 -0.852 -0.347
-1.408 -0.83 -0.653
-1.59 -0.7 -0.04
-1.521 -0.655 -0.336
-1.513 -0.637 -0.642
-1.674 -0.475 -0.032
-1.599 -0.444 -0.328
-1.589 -0.432 -0.635
-1.724 -0.24 -0.027
-1.647 -0.224 -0.323
-1.635 -0.218 -0.63
-1.742 -0.0 -0.025
-1.663 -0.0 -0.322
-1.651 -0.0 -0.629
-1.724 0.24 -0.027
-1.647 0.224 -0.323
-1.635 0.218 -0.63
-1.674 0.475 -0.032
-1.599 0.444 -0.328
-1.589 0.432 -0.635
-1.59 0.7 -0.04
-1.521 0.655 -0.336
-1.513 0.637 -0.642
-1.475 0.911 -0.051
-1.414 0.852 -0.347
-1.408 0.83 -0.653
-1.332 1.103 -0.066
-1.28 1.033 -0.36
-1.278 1.005 -0.666
-1.163 1.273 -0.083
-1.121 1.192 -0.376
-1.124 1.16 -0.681
-0.972 1.417 -0.102
-0.942 1.326 -0.394
-0.95 1.291 -0.699
-0.762 1.532 -0.123
-0.746 1.434 -0.413
-0.758 1.396 -0.718
-0.538 1.616 -0.145
-0.536 1.513 -0.434
-0.554 1.472 -0.738
-0.304 1.667 -0.168
-0.317 1.561 -0.456
-0.341 1.519 -0.759
-0.065 1.684 -0.192
-0.094 1.577 -0.478
-0.124 1.534 -0.781
0.173 1.667 -0.216
0.129 1.561 -0.5
0.093 1.519 -0.802
0.407 1.616 -0.239
0.348 1.513 -0.522
0.306 1.472 -0.824
0.631 1.532 -0.261
0.558 1.434 -0.543
0.51 1.396 -0.844
0.841 1.417 -0.282
0.754 1.326 -0.563
0.701 1.291 -0.863
1.032 1.273 -0.301
0.934 1.192 -0.58
0.876 1.16 -0.88
1.201 1.103 -0.318
1.092 1.033 -0.596
1.03 1.005 -0.896
1.345 0.911 -0.332
1.226 0.852 -0.61
1.16 0.83 -0.909
1.459 0.7 -0.344
1.333 0.655 -0.62
1.265 0.637 -0.919
1.543 0.475 -0.352
1.412 0.444 -0.628
1.341 0.432 -0.927
1.594 0.24 -0.357
1.459 0.224 -0.633
1.387 0.218 -0.931
1.907 0.0 0.656
1.893 0.228 0.656
1.893 0.114 0.853
1.893 -0.114 0.853
1.893 -0.228 0.656
1.893 -0.114 0.459
1.893 0.114 0.459
1.852 0.391 0.881
1.852 0.226 1.047
1.852 -0.0 1.107
1.852 -0.226 1.047
1.852 -0.391 0.881
1.852 -0.452 0.656
1.852 -0.391 0.43
1.852 -0.226 0.264
1.852 -0.0 0.204
1.852 0.226 0.264
1.852 0.391 0.43
1.852 0.452 0.656
1.784 0.629 0.885
1.784 0.513 1.086
1.784 0.335 1.235
1.784 0.116 1.315
1.784 -0.116 1.315
1.784 -0.335 1.235
1.784 -0.513 1.086
1.784 -0.629 0.885
1.784 -0.669 0.656
1.784 -0.629 0.427
1.784 -0.513 0.225
1.784 -0.335 0.076
1.784 -0.116 -0.004
1.784 0.116 -0.004
1.784 0.335 0.076
1.784 0.513 0.225
1.784 0.629 0.427
1.784 0.669 0.656
1.69 0.847 0.883
1.69 0.76 1.094
1.69 0.62 1.276
1.69 0.439 1.415
1.69 0.227 1.503
1.69 0.0 1.533
1.69 -0.227 1.503
1.69 -0.439 1.415
1.69 -0.62 1.276
1.69 -0.76 1.094
1.69 -0.847 0.883
1.69 -0.877 0.656
1.69 -0.847 0.429
1.69 -0.76 0.217
1.69 -0.62 0.035
1.69 -0.439 -0.104
1.69 -0.227 -0.192
1.69 -0.0 -0.222
1.69 0.227 -0.192
1.69 0.439 -0.104
1.69 0.62 0.035
1.69 0.76 0.217
1.69 0.847 0.429
1.69 0.877 0.656
1.572 1.049 0.879
1.572 0.98 1.092
1.572 0.867 1.286
1.572 0.717 1.452
1.572 0.536 1.584
1.572 0.331 1.675
1.572 0.112 1.722
1.572 -0.112 1.722
1.572 -0.331 1.675
1.572 -0.536 1.584
1.572 -0.717 1.452
1.572 -0.867 1.286
1.572 -0.98 1.092
1.572 -1.049 0.879
1.572 -1.072 0.656
1.572 -1.049 0.433
1.572 -0.98 0.219
1.572 -0.867 0.025
1.572 -0.717 -0.141
1.572 0.717 -0.141
1.572 0.867 0.025
1.572 0.98 0.219
1.572 1.049 0.433
1.572 1.072 0.656
1.432 1.232 0.879
1.432 1.172 1.095
1.432 1.074 1.298
1.432 0.943 1.479
1.432 0.78 1.634
1.432 0.593 1.758
1.432 0.387 1.846
1.432 0.168 1.896
1.432 -0.056 1.906
1.432 -0.279 1.876
1.432 -0.492 1.807
1.432 -0.69 1.7
1.432 -0.865 1.56
1.432 -1.013 1.391
1.432 -1.128 1.199
1.432 -1.207 0.989
1.432 -1.247 0.768
1.432 -1.247 0.543
1.432 -1.207 0.323
1.432 -1.128 0.113
1.432 -1.013 -0.08
1.432 0.943 -0.168
1.432 1.074 0.014
1.432 1.172 0.216
1.432 1.232 0.432
1.432 1.252 0.656
1.271 1.395 0.882
1.271 1.34 1.103
1.271 1.251 1.312
1.271 1.129 1.504
1.271 0.979 1.675
1.271 0.803 1.818
1.271 0.606 1.932
1.271 0.393 2.013
1.271 0.17 2.058
1.271 -0.057 2.067
1.271 -0.283 2.04
1.271 -0.501 1.977
1.271 -0.706 1.879
1.271 -0.894 1.75
1.271 -1.058 1.592
1.271 -1.194 1.411
1.271 -1.3 1.209
1.271 -1.372 0.994
1.271 -1.408 0.769
1.271 -1.408 0.542
1.271 -1.372 0.317
1.271 -1.3 0.102
1.271 -1.194 -0.1
1.271 1.129 -0.193
1.271 1.251 -0.001
1.271 1.34 0.208
1.271 1.395 0.429
1.271 1.413 0.656
1.091 1.537 0.882
1.091 1.488 1.103
1.091 1.407 1.315
1.091 1.296 1.513
1.091 1.157 1.692
1.091 0.994 1.85
1.091 0.809 1.982
1.091 0.608 2.085
1.091 0.393 2.158
1.091 0.17 2.2
1.091 -0.057 2.208
1.091 -0.282 2.183
1.091 -0.502 2.126
1.091 -0.71 2.037
1.091 -0.904 1.919
1.091 -1.078 1.774
1.091 -1.229 1.605
1.091 -1.355 1.416
1.091 -1.451 1.211
1.091 -1.516 0.993
1.091 -1.549 0.769
1.091 -1.549 0.542
1.091 -1.516 0.318
1.091 -1.451 0.101
1.091 -1.355 -0.105
1.091 1.296 -0.202
1.091 1.407 -0.004
1.091 1.488 0.208
1.091 1.537 0.429
1.091 1.553 0.656
0.896 1.656 0.883
0.896 1.609 1.107
0.896 1.533 1.321
0.896 1.428 1.524
0.896 1.296 1.71
0.896 1.141 1.877
0.896 0.964 2.021
0.896 0.769 2.14
0.896 0.56 2.23
0.896 0.34 2.292
0.896 0.114 2.323
0.896 -0.114 2.323
0.896 -0.34 2.292
0.896 -0.56 2.23
0.896 -0.769 2.14
0.896 -0.964 2.021
0.896 -1.141 1.877
0.896 -1.296 1.71
0.896 -1.428 1.524
0.896 -1.533 1.321
0.896 -1.609 1.107
0.896 -1.656 0.883
0.896 -1.671 0.656
0.896 -1.656 0.428
0.896 -1.609 0.205
0.896 -1.533 -0.01
0.896 1.533 -0.01
0.896 1.609 0.205
0.896 1.656 0.428
0.896 1.671 0.656
0.688 1.75 0.881
0.688 1.707 1.103
0.688 1.636 1.318
0.688 1.538 1.522
0.688 1.414 1.711
0.688 1.268 1.883
0.688 1.1 2.035
0.688 0.915 2.165
0.688 0.714 2.269
0.688 0.502 2.347
0.688 0.282 2.398
0.688 0.057 2.42
0.688 -0.169 2.412
0.688 -0.393 2.376
0.688 -0.61 2.312
0.688 -0.816 2.22
0.688 -1.01 2.103
0.688 -1.187 1.962
0.688 -1.344 1.8
0.688 -1.479 1.618
0.688 -1.59 1.421
0.688 -1.675 1.212
0.688 -1.732 0.993
0.688 -1.761 0.769
0.688 -1.761 0.543
0.688 -1.732 0.318
0.688 -1.675 0.099
0.688 -1.59 -0.11
0.688 1.636 -0.007
0.688 1.707 0.208
0.688 1.75 0.43
0.688 1.765 0.656
0.471 1.819 0.881
0.471 1.777 1.103
0.471 1.709 1.318
0.471 1.615 1.523
0.471 1.496 1.714
0.471 1.354 1.89
0.471 1.192 2.047
0.471 1.012 2.183
0.471 0.817 2.296
0.471 0.609 2.384
0.471 0.392 2.446
0.471 0.169 2.48
0.471 -0.056 2.487
0.471 -0.281 2.467
0.471 -0.502 2.418
0.471 -0.714 2.343
0.471 -0.916 2.243
0.471 -1.104 2.118
0.471 -1.276 1.971
0.471 -1.428 1.805
0.471 -1.558 1.62
0.471 -1.665 1.422
0.471 -1.746 1.211
0.471 -1.801 0.992
0.471 -1.829 0.768
0.471 -1.829 0.543
0.471 -1.801 0.319
0.471 -1.746 0.1
0.471 -1.665 -0.11
0.471 1.709 -0.006
0.471 1.777 0.209
0.471 1.819 0.43
0.471 1.833 0.656
0.247 1.86 0.881
0.247 1.819 1.104
0.247 1.752 1.32
0.247 1.659 1.526
0.247 1.542 1.72
0.247 1.403 1.898
0.247 1.243 2.058
0.247 1.064 2.198
0.247 0.871 2.315
0.247 0.664 2.408
0.247 0.448 2.475
0.247 0.226 2.516
0.247 -0.0 2.529
0.247 -0.226 2.516
0.247 -0.448 2.475
0.247 -0.664 2.408
0.247 -0.871 2.315
0.247 -1.064 2.198
0.247 -1.243 2.058
0.247 -1.403 1.898
0.247 -1.542 1.72
0.247 -1.659 1.526
0.247 -1.752 1.32
0.247 -1.819 1.104
0.247 -1.86 0.881
0.247 -1.874 0.656
0.247 -1.86 0.43
0.247 -1.819 0.207
0.247 -1.752 -0.009
0.247 1.752 -0.009
0.247 1.819 0.207
0.247 1.86 0.43
0.247 1.874 0.656
0.019 1.874 0.879
0.019 1.835 1.099
0.019 1.769 1.313
0.019 1.679 1.517
0.019 1.566 1.71
0.019 1.43 1.888
0.019 1.274 2.048
0.019 1.1 2.189
0.019 0.911 2.309
0.019 0.709 2.405
0.019 0.498 2.476
0.019 0.279 2.522
0.019 0.056 2.542
0.019 -0.168 2.536
0.019 -0.389 2.503
0.019 -0.605 2.444
0.019 -0.812 2.36
0.019 -1.008 2.252
0.019 -1.189 2.121
0.019 -1.354 1.97
0.019 -1.5 1.801
0.019 -1.625 1.615
0.019 -1.727 1.416
0.019 -1.805 1.207
0.019 -1.858 0.989
0.019 -1.884 0.767
0.019 -1.884 0.544
0.019 -1.858 0.322
0.019 -1.805 0.104
0.019 1.769 -0.002
0.019 1.835 0.212
0.019 1.874 0.432
0.019 1.888 0.656
-0.209 1.874 0.656
-0.209 1.86 0.881
-0.209 1.819 1.104
-0.209 1.752 1.32
-0.209 1.659 1.526
-0.209 1.542 1.72
-0.209 1.403 1.898
-0.209 1.243 2.058
-0.209 1.064 2.198
-0.209 0.871 2.315
-0.209 0.664 2.408
-0.209 0.448 2.475
-0.209 0.226 2.516
-0.209 -0.0 2.529
-0.209 -0.226 2.516
-0.209 -0.448 2.475
-0.209 -0.664 2.408
-0.209 -0.871 2.315
-0.209 -1.064 2.198
-0.209 -1.243 2.058
-0.209 -1.403 1.898
-0.209 -1.542 1.72
-0.209 -1.659 1.526
-0.209 -1.752 1.32
-0.209 -1.819 1.104
-0.209 -1.86 0.881
-0.209 -1.874 0.656
-0.209 -1.86 0.43
-0.209 -1.819 0.207
-0.209 -1.752 -0.009
-0.209 1.752 -0.009
-0.209 1.819 0.207
-0.209 1.86 0.43
-0.433 1.833 0.656
-0.433 1.819 0.881
-0.433 1.777 1.103
-0.433 1.709 1.318
-0.433 1.615 1.523
-0.433 1.496 1.714
-0.433 1.354 1.89
-0.433 1.192 2.047
-0.433 1.012 2.183
-0.433 0.817 2.296
-0.433 0.609 2.384
-0.433 0.392 2.446
-0.433 0.169 2.48
-0.433 -0.056 2.487
-0.433 -0.281 2.467
-0.433 -0.502 2.418
-0.433 -0.714 2.343
-0.433 -0.916 2.243
-0.433 -1.104 2.118
-0.433 -1.276 1.971
-0.433 -1.428 1.805
-0.433 -1.558 1.62
-0.433 -1.665 1.422
-0.433 -1.746 1.211
-0.433 -1.801 0.992
-0.433 -1.829 0.768
-0.433 -1.829 0.543
-0.433 -1.801 0.319
-0.433 -1.746 0.1
-0.433 1.709 -0.006
-0.433 1.777 0.209
[...]
CELL_DATA 1958
SCALARS cell_data_0 double
LOOKUP_TABLE default
-0.00239785550406
-0.00275209342146
-0.00388060189132
-0.00445660362178
-0.00224994624581
-0.00249401879137
-0.00357163910421
-0.00392954434518
-0.00195251616869
-0.00207693389397
-0.00298129432543
-0.00313728050559
-0.00156247009533
-0.00158160581409
-0.00226575475761
-0.00227446337284
-0.00113705691956
-0.00107319328717
-0.00154307294471
-0.00145995814639
-0.000714351673089
-0.000591541448427
-0.000880880597358
-0.000746469444052
-0.00032039115232
-0.00015674248019
-0.000301258424704
-0.000138580223231
3.58218085723e-05
0.000227101181381
0.000195800521997
0.000371419913524
0.000350677073012
0.000560049331793
0.000616096863627
0.000797570439284
0.000626319449886
0.000847340745536
0.00097130689421
0.0011540398719
0.000865028858697
0.00109311983519
0.00127021594777
0.00145224492165
0.00107035592461
0.0013032046145
0.00152279983312
0.00170212511773
0.00124683728713
0.00148232959696
0.00173496548537
0.00191188592814
0.00139750515742
0.00163435318401
0.00191473442793
0.00208799623285
0.00152521278191
0.00176240988079
0.00206494935874
0.0022343915607
0.00163230550263
0.00186875060839
0.00218929491943
0.00235437872956
0.0017204304498
0.00195516490844
0.0022903976617
0.00245271020759
0.00179139899694
0.00202501523652
0.00237349224618
0.00253278786577
0.00184820273789
0.00207957458655
0.00243873408923
0.00259330748617
0.00188995234318
0.00211846047258
0.00248624088904
0.00263718302986
0.00191869797895
0.0021437528643
0.00251834169586
0.00266489949564
0.00193329392525
0.00215399363954
0.0025352008162
0.00267738361691
0.00193567299863
0.00215253042407
0.00253743265383
0.00267473125021
0.00192485536719
0.0021362663322
0.00252583148889
0.00265783274142
0.00190088748731
0.00210702501756
0.00249907291126
0.00262425862061
0.00186349381778
0.00206302959252
0.00245642870691
0.00257523962788
0.00181260300214
0.00200375382592
0.00239740281369
0.0025078353037
0.00174596950038
0.00192781161678
0.00232068140902
0.00242270626117
0.00166342139645
0.00183504966377
0.00222597439218
0.00231738523436
0.00156340685603
0.0017220873411
0.0021096115683
0.00218826441249
0.0014424638263
0.0015859599864
0.00196810058163
0.00203279405697
0.00129972588357
0.001425287746
0.00179950693729
0.00184622619338
0.00113247480599
0.00123645691818
0.00159844213225
0.00162422264951
0.00093752852449
0.00101530741135
0.00136122932003
0.00135963822389
0.000710815226391
0.000756450663051
0.00107902198406
0.00104376869639
0.000448552848093
0.000455131722854
0.000744790025478
0.000666311509395
0.000147782593533
0.000106447335553
0.000348694414149
0.000215432796198
-0.000193254356793
-0.000293319346752
-0.000119639083538
-0.000324164204964
-0.000574160585995
-0.000743282276873
-0.000668365808416
-0.000963671162745
-0.000986762096056
-0.00123492512649
-0.00130088164521
-0.00170943386135
-0.00141399084698
-0.00174355048974
-0.0020024219204
-0.00254197495637
-0.00182014877591
-0.00221993465002
-0.00272726141924
-0.00339672891825
-0.00215619333295
-0.00259526847063
-0.00337819495818
-0.00412934865803
-0.00236471629636
-0.00278938584966
-0.00380704403828
-0.00453093980088
-0.00107586643269
-0.00106601031174
-0.00107586204222
-0.00110545444641
-0.00112635250635
-0.00110545839633
-0.00105550670962
-0.00103664562554
-0.00103450750239
-0.00104446750442
-0.00103452968042
-0.00103665766463
-0.0010554820299
-0.00105497363903
-0.00108525240647
-0.0011166988922
-0.00116039703736
-0.001206420215
-0.00118139387126
-0.00120644896558
-0.00116043918106
-0.00111673054664
-0.00108529952991
-0.00105501485799
-0.00102496269515
-0.00100543305037
-0.00101693870323
-0.00100806217787
-0.00101165091313
-0.00101970049752
-0.00101370202972
-0.00101972135749
-0.00101166449862
-0.00100805974453
-0.00101692962204
-0.00100539851837
-0.00102491352496
-0.00101814610367
-0.00104216750702
-0.00107977074228
-0.00111625486483
-0.00116958779403
-0.00123256428711
-0.00131302865578
-0.00129677593509
-0.00137043942276
-0.00129681235454
-0.00131307194595
-0.00123262153106
-0.0011696604636
-0.00111633914933
-0.0010798398061
-0.00104224033795
-0.00101820069706
-0.000981136306036
-0.000963085671119
-0.000980359529357
-0.000972755744624
-0.000989467341307
-0.000985761199943
-0.000993099121033
-0.00100144731264
-0.000999181364729
-0.00100438519634
-0.000999204351292
-0.00100146415912
-0.000993109613858
-0.000985755746466
-0.000989452466184
-0.00097271830143
-0.000980323685305
-0.000963049380325
-0.000981081115724
-0.00096637524163
-0.000981078436795
-0.00101938935927
-0.00103802627952
-0.00110036837584
-0.00115274153049
-0.00123671185229
-0.00132565580234
-0.00145740639804
-0.00145269990581
-0.00160200660503
-0.00152340795928
-0.00160210054462
-0.00145279592234
-0.0014575631807
-0.00132580185171
-0.00123681578581
-0.00115285934858
-0.00110047333533
-0.00103812712721
-0.00101947046688
-0.000981152175979
-0.000966433472734
-0.000924152858455
-0.00090932167054
-0.000933112191744
-0.000927415016437
-0.000949982676294
-0.000948146412197
-0.000967684943171
-0.000966658447136
-0.000976468450352
-0.000985631934351
-0.000986015356989
-0.000992051096814
-0.000989223454344
-0.00099206195413
-0.000986027532564
-0.000985649739469
-0.000976487101882
-0.000966657136249
-0.00096767290319
-0.000948124665687
-0.000949946434557
-0.000927365558057
-0.00093306031316
-0.000909269431693
-0.000924089548946
-0.00090091374159
-0.000904547139141
-0.000941120390226
-0.000938300458907
-0.000998946346302
-0.00102482128985
-0.00111962082169
-0.00118821305763
-0.00131685035644
-0.00131709122078
-0.00118850750937
-0.00111980151459
-0.00102500615919
-0.00099907287558
-0.00093843228871
-0.000941207399229
-0.00090463480409
-0.000900976452083
-0.000855729347636
-0.000846216527473
-0.000876093180354
-0.000874176743285
-0.000901593137333
-0.000902766495889
-0.000926885654853
-0.000928795825654
-0.000949124172801
-0.000950304973465
-0.000966378195118
-0.000966315514323
-0.000973570254025
-0.000980125307515
-0.000978755384377
-0.000982653995981
-0.000977536620461
-0.000978767850526
-0.000969890585448
-0.000968504796988
-0.000956054723607
-0.000952402856569
-0.000936679158125
-0.000931317993907
-0.000912265536618
-0.000893455051372
-0.000897096258568
-0.000864195464863
-0.000871651700332
-0.000837221224741
-0.00085236962619
-0.000818649035301
-0.000847620565726
-0.000818589022336
-0.000871466017324
-0.000853830883095
-0.000945591128262
-0.000949751690676
-0.00113373505705
-0.00100025564446
-0.000964242279208
-0.000876981578064
-0.000879232452916
-0.000825103675614
-0.000849061233524
-0.000815985011364
-0.000824383155278
-0.000778575602948
-0.000776388832182
-0.000812162556407
-0.000815572590948
-0.000847532580859
-0.000853137330962
-0.000880969580227
-0.000886428747449
-0.000910238024429
-0.000914902857982
-0.000934723795767
-0.000937613872104
-0.000953160834684
-0.000954157338274
-0.000965537323327
-0.000964509672823
-0.00097169937721
-0.000968547992832
-0.000967318874436
-0.000969375182683
-0.000960024793277
-0.00096000763256
-0.000946653774251
-0.000944664676123
-0.000927022397354
-0.000923106290779
-0.000901322875712
-0.000896105245739
-0.000870183513109
-0.000864409197783
-0.00083451174567
-0.000829684293321
-0.000795859779221
-0.000794766510574
-0.000757411991921
-0.000733221625766
-0.000755173519456
-0.00070682235304
-0.000742993596344
-0.000703013856349
-0.000762837774698
-0.00074281951418
-0.000840280182287
-0.000913194677803
-0.00078969167663
-0.000792657228772
-0.000716036131611
-0.000747812620705
-0.000701104972372
-0.000746240410856
-0.000718030462782
-0.000739551687097
-0.000695094009998
-0.000700534713763
-0.000742441676535
-0.000751170689075
-0.00078842618143
-0.000797662922837
-0.000830509579423
-0.000839032754072
-0.000867322576329
-0.000874040382817
-0.000898063019305
-0.000903074631469
-0.00092306328427
-0.000925788794138
-0.000941627936481
-0.000942239817813
-0.000954027637997
-0.000952310506946
-0.000959926419815
-0.000956025082929
-0.000954996735666
-0.000957764013431
-0.000947919846321
-0.000948417631157
-0.000934705038751
-0.000933249405616
-0.000915415908904
-0.00091146130463
-0.000889416555433
-0.000883453019882
-0.000857473907358
-0.000849631611524
-0.000819144656113
-0.0008099470293
-0.000775017190051
-0.000765778586608
-0.000726383266721
-0.000718907744285
-0.000674661218275
-0.000639053559816
-0.000656379038867
-0.000590086898128
-0.000618740462596
-0.00055324999344
-0.000601680358836
-0.000544584241824
-0.000626605815254
-0.000666062243812
-0.000559123583925
-0.000607321279681
-0.000544107096889
-0.000606548125511
-0.000569121907081
-0.000635685923309
-0.000613615874823
-0.000648582128958
-0.000606817446607
-0.000621286463081
-0.000668245394336
-0.000683688541982
-0.000724676305253
-0.000739435105086
-0.000775213308478
-0.000788298296312
-0.000819427589189
-0.000830086718399
-0.000856581595301
-0.000864559776544
-0.000887171625723
-0.00089257949376
-0.000911308830999
-0.000914109081844
-0.000929294089164
-0.000929352228274
-0.000940561120974
-0.000937915570926
-0.000945664489242
-0.000940604210061
-0.000944796615687
-0.000937125490296
-0.000937587478939
-0.000927353833662
-0.000924297375947
-0.000911387691513
-0.000897025275222
-0.000896375343745
-0.000869993773142
-0.00086775189609
-0.000836455539413
-0.000832831803637
-0.000795892949515
-0.00079064316193
-0.00074780933809
-0.000741939887941
-0.000693118432113
-0.000687292781244
-0.00063154448837
-0.000626903547605
-0.000564164658779
-0.000563326173131
-0.000493018361207
-0.000499660038545
-0.000422407537614
-0.000443742968425
-0.00036046509378
-0.000408011648701
-0.000415289448366
-0.000368696287201
-0.000460017940755
-0.000433169482897
-0.00052001175665
-0.000504774859457
-0.000553389272433
-0.000515376586506
-0.000538511160885
-0.00059094560326
-0.000612533666943
-0.000658366244883
-0.000677184449386
-0.000717389975751
-0.00073344531557
-0.000768750147714
-0.000781589509532
-0.000811994770847
-0.000821712914886
-0.000848003220087
-0.000854657316188
-0.00087681715458
-0.000880730440911
-0.000899478568685
-0.000900625626318
-0.000915550745368
-0.00091363835223
-0.000925040109844
-0.00092052642458
-0.000928608061056
-0.000921732741286
-0.000926302400915
-0.000916870752654
-0.000917697205217
-0.000905654231914
-0.00090266088077
-0.000888209285097
-0.000873117003038
-0.000872784382087
-0.000844519665898
-0.00084248163436
-0.000808994804605
-0.000805291617406
-0.000766432967011
-0.000760683597024
-0.000715605060266
-0.000707963432205
-0.000656411664363
-0.000647347854592
-0.000588627158269
-0.000578425807039
-0.000511408319049
-0.000501368214379
-0.000425301058183
-0.00041708261944
-0.000330405227166
-0.000327772056393
-0.000229603515926
-0.000238750710141
-0.000128285520464
-0.000223431632688
-0.000194691290764
-0.000312029820863
-0.00029678189342
-0.000402009407167
-0.000394227125306
-0.000455488611332
-0.000422373321288
-0.000455046541368
-0.000511429667382
-0.000540119983231
-0.000588955911133
-0.000613493528263
-0.000656092626817
-0.000676687884884
-0.000714095449013
-0.000730965985863
-0.000763395481153
-0.000776342069223
-0.000804515324011
-0.000813973554357
-0.000838065527461
-0.000843888711114
-0.000864587071328
-0.000867393786838
-0.000884831093692
-0.000884216514168
-0.000898268498456
-0.000894739491049
-0.000905720024601
-0.000899338037336
-0.000907353821957
-0.000897823080175
-0.000902783759806
-0.000890132702415
-0.000892127739723
-0.000876474409691
-0.000875449706371
-0.000856544354335
-0.000852114818664
-0.000829655501137
-0.000821944596553
-0.000795812590153
-0.000784526855415
-0.000754288530956
-0.00073960013053
-0.000704969186202
-0.000686400185046
-0.000646467726361
-0.00062380994316
-0.000578204002988
-0.000551594303354
-0.000499146855038
-0.000468455745404
-0.000407775594375
-0.000338888312671
-0.000338243297544
-0.000224779947764
-0.00022657545844
-9.53448683009e-05
-0.000102706014404
4.88194136495e-05
3.0364785812e-05
-3.73368481754e-05
-2.53245878863e-05
-0.000166249418421
-0.00016187679207
-0.000283738591803
-0.000283390854811
-0.000357205142116
-0.000330064183052
-0.000372356985547
-0.000432398918022
-0.000468692522233
-0.000520277237692
-0.000550848067522
-0.000595527728734
-0.000621034473658
-0.000659877148553
-0.000680572553568
-0.000714538159692
-0.000730678070998
-0.000760351533577
-0.000772310470262
-0.000798054827684
-0.000805916646506
-0.000827980280722
-0.000832145785442
-0.000851155297786
-0.000851806070389
-0.000867735874499
-0.000864711647226
-0.000877962357847
-0.000871641945451
-0.000882319922878
-0.000872120298843
-0.000879882916454
-0.000866126492324
-0.000871687052768
-0.000854293859211
-0.000857322802713
-0.000835817528386
-0.000836267326883
-0.000810506662736
-0.000808542330622
-0.000778194543455
-0.000773351065392
-0.000737800166506
-0.000730198320947
-0.000689205827611
-0.000678860005836
-0.000631475231481
-0.000617839224323
-0.000562969400214
-0.000546212715424
-0.000482859343002
-0.000462694672998
-0.000389016448965
-0.000365201958003
-0.000279521734324
-0.000252503447955
-0.000152266890245
-0.00012199234784
-3.35246508265e-06
2.92589959051e-05
0.000170594539134
0.00020321628372
0.000143763974393
0.000140748061106
-2.25299946334e-05
-2.88686220979e-05
-0.000166809712194
-0.00017432759603
-0.000260159650649
-0.000238887107
-0.000289550344657
-0.000353513422725
-0.00039586915985
-0.000451356672671
-0.000486152655916
-0.000534394925404
-0.000562662162472
-0.000604885780486
-0.000627364286135
-0.000664440006349
-0.000681818465514
-0.00071433752061
-0.000727121067505
-0.000755643785695
-0.000763891354504
-0.00078862575624
-0.000792721714829
-0.000814360830792
-0.000814686115549
-0.000833321337457
-0.000829903854212
-0.000845520677311
-0.000838362652231
-0.00085136818083
-0.000840444940141
-0.000850642248071
-0.000835845017836
-0.00084367641853
-0.000825217243
-0.00083040641527
-0.00080786283984
-0.000810355429025
-0.000783588198659
-0.000783391677372
-0.000752323834904
-0.000749158810706
-0.000712958334614
-0.00070648924543
-0.000664765740891
-0.000655092091088
-0.000607096197876
-0.000593836874757
-0.000538503281616
-0.000521209611998
-0.000457497113778
-0.000435805465055
-0.000362090933106
-0.000335254966089
-0.000249742467732
-0.000217448227369
-0.00011780166079
-7.90593544847e-05
3.85412300513e-05
8.48826206662e-05
0.000225119187055
0.000279727227128
0.000316724519251
0.000295954568744
0.000115814608823
9.77456871243e-05
-5.3044124145e-05
-6.82935728948e-05
-0.000164548851668
-0.000102069562733
-0.000120768846938
-0.000235792619239
-0.000251443141673
-0.000348944168399
-0.000361750624622
-0.000444566027798
-0.00045454713449
-0.000525251264517
-0.000532724326947
-0.000593271740791
-0.00059836403983
-0.000650336035732
-0.000653057790863
-0.000697718041608
-0.000698149833117
-0.000736119492021
-0.00073409431937
-0.00076620108083
-0.000762054121837
-0.000789073806148
-0.000782572017834
-0.000804907273039
-0.000795786083511
-0.000813719441597
-0.000802120689905
-0.000815911975262
-0.000801396486756
-0.000811164312521
-0.000793896363718
-0.000800123006124
-0.00077953072218
-0.000782075977761
-0.000757846172091
-0.000756814512228
-0.000728594373403
-0.000724215024422
-0.000691325874777
-0.000683107130003
-0.000644736842028
-0.000632712052112
-0.000588388467633
-0.00057225929573
-0.000520855882896
-0.00050014357834
-0.000440313411592
-0.000414700953441
-0.000344901309016
-0.000313655387308
-0.000231503643026
-0.000194027573911
-9.71015207716e-05
-5.26608822875e-05
6.30258195214e-05
0.000116146880567
0.000256095912947
0.00031958716975
0.000490695804391
0.000533756076425
0.000395495091822
0.000291418019753
0.000179087184098
9.2294680853e-05
-4.65990059997e-07
-1.31920320009e-05
-3.7696154735e-05
-0.000160080128593
-0.00017976599613
-0.000283283285517
-0.000298443684698
-0.000386403920551
-0.000397767681582
-0.000473029501534
-0.000481002950635
-0.00054555041009
-0.00055057671522
-0.000605924476462
-0.000608179359741
-0.000655631588753
-0.00065510851129
-0.000695523432661
-0.000692165304011
-0.000726525498737
-0.000720619980119
-0.000749578541092
-0.00074089251722
-0.000764740909982
-0.000753375876012
-0.000772802055674
-0.000758596467628
-0.000773397838624
-0.000755796816191
-0.000766496687767
-0.000745840722877
-0.000752625032328
-0.000728301019923
-0.000730980796373
-0.000702577115117
-0.000701212611184
-0.000668434079013
-0.000662912389933
-0.000624783067906
-0.000614798153751
-0.000570832002312
-0.00055641033971
-0.000505726225909
-0.000486218824566
-0.00042729339199
-0.000402022430047
-0.00033361199552
-0.000301897251254
-0.000221807918738
-0.000182413670097
-8.79924717222e-05
-3.98277452075e-05
7.18827542239e-05
0.000130873777293
0.000265146847465
0.000338101069713
0.000501195804497
0.00059149770123
0.000687533210862
0.00054504694359
0.000417061927754
0.000300531053828
0.000196495749847
9.97413450244e-05
7.13301677766e-05
4.09749866579e-05
-8.68404166835e-05
-0.000111191676788
-0.000218537475956
-0.000237646896301
-0.000328263575986
-0.000342901530768
-0.000419834463803
-0.000430549575252
-0.000496308730039
-0.000503203101151
-0.000559279534248
-0.000562658314877
-0.000610646057445
-0.000610470369708
-0.000651202407632
-0.000647813799125
-0.00068255649379
-0.000675827598274
-0.000704931320481
-0.000694529752012
-0.000718878210743
-0.00070485374692
-0.000724929363156
-0.000707039214316
-0.000722952259891
-0.000700799737802
-0.000712864168234
-0.000686132090407
-0.000694735707874
-0.000662943722214
-0.000668141311201
-0.000630396663623
-0.000632110468875
-0.000587799618611
-0.000586151307254
-0.00053422323884
-0.00052912395439
-0.000468577576462
-0.000459893702477
-0.000388849312198
-0.00037623993039
-0.000292767996304
-0.000275944889816
-0.000177432062005
-0.000155647040792
-3.87238489296e-05
-1.12584885859e-05
9.99201203344e-05
0.000190844751244
0.000297287811469
0.000407685036823
0.000539080977131
0.000674122570582
0.000829461811996
0.00067954404602
0.000533498302621
0.000411987005596
0.000293914688576
0.000193830190665
0.000150506594473
0.000114108308416
-1.86718892128e-05
-4.82275295962e-05
-0.000158977491662
-0.000182224089131
-0.000274826977396
-0.00029276157861
-0.000370944513176
-0.000384076969925
-0.000450114575263
-0.000458509092236
-0.000514532786273
-0.000518637209884
-0.000566236340909
-0.000565890541713
-0.00060641116624
-0.000601871462743
-0.000636333056878
-0.000627197669916
-0.00065612704084
-0.000642295264632
-0.000666604124332
-0.000647861632169
-0.000668237153218
-0.000644021124134
-0.000660790683077
-0.000630426461319
-0.00064392653965
-0.000606758661531
-0.000617519048107
-0.000594622783123
-0.000559151919369
-0.000550558364286
-0.000509681972341
-0.000494715609567
-0.000447406508504
-0.00042577561654
-0.00037031154992
-0.000341282822461
-0.000276052773544
-0.000238971071465
-0.000162032603303
-0.000115815796635
-2.38576320582e-05
3.33783154087e-05
0.000143578418768
0.000213726345838
0.00034746204137
0.000434296684676
0.000597897557088
0.000705443021829
0.000808584863651
0.00064457154971
0.000517816161112
0.000385590346834
0.000281914711385
0.000223417636302
0.000181770788958
4.39415118134e-05
1.12968953523e-05
-0.000103356824365
-0.000128235224937
-0.000224440189234
-0.000242853612684
-0.000323816951888
-0.000336226189255
-0.000404572109763
-0.000411348416873
-0.000469106704716
-0.000470744651455
-0.000519711484738
-0.000516086685171
-0.000557565144307
-0.000548777327685
-0.000583834944498
-0.000569415936763
-0.000598815530318
-0.000578685507087
-0.000603282957998
-0.000576891586381
-0.000597148705582
-0.000563820399499
-0.000580222725863
-0.000539299846161
-0.000552269008096
-0.000527225022951
-0.000487595428689
-0.000478767951835
-0.000433001531853
-0.000416649137849
-0.000363456468928
-0.000338830926993
-0.000276380814819
-0.000242650283625
-0.000169279513407
-0.000125661156574
-3.86747655231e-05
1.7063066826e-05
0.000121105818543
0.000190613627031
0.000315653903284
0.000402752942488
0.000554354072258
0.000663257336405
0.000848155760694
0.000743913667569
0.000616237789681
0.000469594017246
0.000364177011111
0.000290713369145
0.000243775708054