# vtk DataFile Version 3.0
File Name: Molecule/methanol/U_reac_   2.00-2.vtk
ASCII
DATASET UNSTRUCTURED_GRID
FIELD FieldData 1
TIME 1 1 double
0.0
POINTS 136 double
1.445 -0.731 -0.342
0.98 -1.317 -0.296
1.252 -0.666 -0.918
0.828 -1.2 -0.876
0.308 -1.642 -0.229
0.216 -1.496 -0.815
-0.438 -1.642 -0.155
-0.464 -1.496 -0.747
-1.11 -1.317 -0.088
-1.076 -1.2 -0.686
-1.576 -0.731 -0.042
-1.5 -0.666 -0.644
-1.742 0.0 -0.025
-1.651 0.0 -0.629
-1.576 0.731 -0.042
-1.5 0.666 -0.644
-1.11 1.317 -0.088
-1.076 1.2 -0.686
-0.438 1.642 -0.155
-0.464 1.496 -0.747
0.308 1.642 -0.229
0.216 1.496 -0.815
0.98 1.317 -0.296
0.828 1.2 -0.876
1.445 0.731 -0.342
1.907 0.0 0.656
1.763 0.722 0.656
1.763 0.361 1.281
1.763 -0.361 1.281
1.763 -0.722 0.656
1.763 -0.361 0.03
1.763 0.361 0.03
1.354 1.123 1.377
1.354 0.554 1.87
1.354 -0.19 1.977
1.354 -0.874 1.664
1.354 -1.281 1.032
1.354 -1.281 0.28
1.354 1.335 0.656
0.741 1.571 1.412
0.741 1.087 2.019
0.741 0.388 2.356
0.741 -0.388 2.356
0.741 -1.087 2.019
0.741 -1.571 1.412
0.741 -1.744 0.656
0.741 1.744 0.656
0.019 1.744 1.378
0.019 1.335 1.99
0.019 0.722 2.399
0.019 -0.0 2.543
0.019 -0.722 2.399
0.019 -1.335 1.99
0.019 -1.744 1.378
0.019 -1.888 0.656
0.019 1.888 0.656
-0.703 1.744 0.656
-0.703 1.571 1.412
-0.703 1.087 2.019
-0.703 0.388 2.356
-0.703 -0.388 2.356
-0.703 -1.087 2.019
-0.703 -1.571 1.412
-0.703 -1.744 0.656
-1.316 1.335 0.656
-1.316 1.123 1.377
-1.316 0.554 1.87
-1.316 -0.19 1.977
-1.316 -0.874 1.664
-1.316 -1.281 1.032
-1.725 0.722 0.656
-1.725 0.361 1.281
-1.725 -0.361 1.281
-1.725 -0.722 0.656
-1.868 0.0 0.656
1.611 0.0 -0.359
0.648 -0.871 -1.742
-0.12 -1.149 -1.755
-0.12 -0.544 -2.172
0.648 -0.189 -2.053
-0.12 0.185 -2.261
0.648 0.552 -1.946
-0.12 0.872 -2.0
0.648 1.118 -1.456
-0.12 1.359 -1.451
-0.887 -1.276 -1.112
-0.887 -0.871 -1.742
-0.887 -0.189 -2.053
-0.887 0.552 -1.946
-0.887 1.118 -1.456
-1.449 -0.384 -1.402
-1.449 0.384 -1.402
1.48633333333 -0.243666666667 -0.544666666667
1.403 0.0 -0.933
1.36666666667 -0.465666666667 -0.731
1.175 0.865666666667 -0.712
1.252 0.666 -0.918
1.436 0.465666666667 -0.539666666667
1.422 0.222 -0.736666666667
1.60633333333 -0.364 -0.223666666667
1.60633333333 0.364 -0.223666666667
0.835333333333 -0.481333333333 -1.73233333333
0.835333333333 0.249 -1.80033333333
0.909333333333 0.994666666667 -1.08333333333
1.03666666667 0.722666666667 -1.25866666667
1.28833333333 0.35 -1.08433333333
1.28833333333 -0.35 -1.08433333333
1.03666666667 -0.640333333333 -1.354
0.909333333333 -0.912333333333 -1.17866666667
-1.15433333333 -1.04733333333 -0.814
1.21 0.384 -1.402
0.835333333333 0.684666666667 -1.60133333333
1.50011111111 -0.0812222222223 -0.612222222222
1.47866666667 0.074 -0.676222222222
1.359 0.296 -0.862555555556
1.21 -0.384 -1.402
0.897777777778 -0.578777777778 -1.62544444444
0.897777777778 -0.351444444444 -1.72911111111
1.14755555556 -0.021 -1.47433333333
1.02266666667 -0.063 -1.619
0.960222222223 -0.212 -1.69133333333
0.960222222223 0.044 -1.69133333333
0.897777777778 0.148 -1.75177777778
0.897777777778 0.395 -1.71611111111
1.16622222222 0.590888888889 -1.19288888889
0.96488888889 0.741555555556 -1.37222222222
1.25011111111 0.466666666667 -1.13477777778
1.30044444444 0.244666666667 -1.13977777778
1.29577777778 0.128 -1.19355555556
1.27433333333 0.0 -1.24566666667
1.29577777778 -0.128 -1.19355555556
1.23144444444 0.0 -1.34988888889
1.30044444444 -0.244666666667 -1.13977777778
1.25011111111 -0.466666666667 -1.13477777778
1.16622222222 -0.563444444444 -1.22466666667
0.96488888889 -0.631777777778 -1.49933333333

CELLS 268 1072
3 0 1 2
3 2 1 3
3 1 4 3
3 3 4 5
3 4 6 5
3 5 6 7
3 6 8 7
3 7 8 9
3 8 10 9
3 9 10 11
3 10 12 11
3 11 12 13
3 12 14 13
3 13 14 15
3 14 16 15
3 15 16 17
3 16 18 17
3 17 18 19
3 18 20 19
3 19 20 21
3 20 22 21
3 21 22 23
3 22 24 23
3 25 26 27
3 25 27 28
3 25 28 29
3 25 29 30
3 25 30 31
3 25 31 26
3 27 26 32
3 27 32 33
3 27 33 34
3 28 27 34
3 28 34 35
3 28 35 36
3 29 28 36
3 29 36 37
3 30 29 37
3 26 38 32
3 32 38 39
3 32 39 40
3 33 32 40
3 33 40 41
3 34 33 41
3 34 41 42
3 35 34 42
3 35 42 43
3 35 43 44
3 36 35 44
3 36 44 45
3 37 36 45
3 38 46 39
3 39 46 47
3 39 47 48
3 40 39 48
3 40 48 49
3 41 40 49
3 41 49 50
3 42 41 50
3 42 50 51
3 43 42 51
3 43 51 52
3 44 43 52
3 44 52 53
3 45 44 53
3 45 53 54
3 46 55 47
3 47 55 56
3 47 56 57
3 48 47 57
3 48 57 58
3 49 48 58
3 49 58 59
3 50 49 59
3 50 59 60
3 51 50 60
3 51 60 61
3 52 51 61
3 52 61 62
3 53 52 62
3 53 62 63
3 54 53 63
3 57 56 64
3 57 64 65
3 58 57 65
3 58 65 66
3 59 58 66
3 59 66 67
3 60 59 67
3 60 67 68
3 61 60 68
3 62 61 68
3 62 68 69
3 63 62 69
3 65 64 70
3 65 70 71
3 66 65 71
3 67 66 71
3 67 71 72
3 68 67 72
3 69 68 72
3 69 72 73
3 71 70 74
3 72 71 74
3 73 72 74
3 73 74 12
3 73 12 10
3 73 10 8
3 73 8 69
3 69 8 63
3 63 8 6
3 63 6 54
3 54 6 4
3 54 4 45
3 45 4 1
3 45 1 37
3 37 1 0
3 37 0 30
3 30 75 31
3 31 24 26
3 26 24 38
3 38 24 22
3 38 22 46
3 46 22 20
3 46 20 55
3 55 20 18
3 55 18 56
3 56 18 16
3 56 16 64
3 64 16 14
3 64 14 70
3 70 14 12
3 70 12 74
3 76 77 78
3 79 76 78
3 79 78 80
3 81 79 80
3 81 80 82
3 83 81 82
3 83 82 84
3 77 85 86
3 78 77 86
3 78 86 87
3 80 78 87
3 80 87 88
3 82 80 88
3 82 88 89
3 84 82 89
3 86 85 90
3 87 86 90
3 87 90 91
3 88 87 91
3 89 88 91
3 89 91 15
3 89 15 17
3 89 17 19
3 89 19 84
3 84 19 21
3 84 21 83
3 83 21 23
3 76 3 5
3 76 5 77
3 77 5 7
3 77 7 85
3 85 7 9
3 85 11 90
3 90 11 13
3 90 13 91
3 91 13 15
3 75 0 92
3 0 93 92
3 93 0 94
3 0 2 94
3 93 2 94
3 23 24 95
3 24 96 95
3 23 96 95
3 24 75 97
3 75 96 97
3 24 96 97
3 96 75 98
3 30 0 99
3 0 75 99
3 30 75 99
3 31 75 100
3 75 24 100
3 31 24 100
3 76 79 101
3 79 81 102
3 83 23 103
3 23 96 103
3 83 96 103
3 83 96 104
3 96 93 105
3 93 2 106
3 2 76 107
3 76 2 108
3 2 3 108
3 76 3 108
3 85 9 109
3 9 11 109
3 85 11 109
3 110 81 111
3 81 83 111
3 110 83 111
3 75 93 112
3 93 92 112
3 75 92 112
3 75 93 113
3 93 98 113
3 75 98 113
3 96 93 114
3 93 98 114
3 96 98 114
3 115 76 116
3 76 101 116
3 115 101 116
3 115 79 117
3 79 101 117
3 115 101 117
3 110 115 118
3 115 119 118
3 110 119 118
3 115 79 120
3 79 119 120
3 115 119 120
3 110 79 121
3 79 119 121
3 110 119 121
3 110 79 122
3 79 102 122
3 110 102 122
3 110 81 123
3 81 102 123
3 110 102 123
3 96 110 124
3 110 104 124
3 96 104 124
3 83 110 125
3 110 104 125
3 83 104 125
3 110 96 126
3 96 105 126
3 110 105 126
3 110 93 127
3 93 105 127
3 110 105 127
3 110 93 128
3 93 129 128
3 110 129 128
3 93 115 130
3 115 129 130
3 93 129 130
3 110 115 131
3 115 129 131
3 110 129 131
3 115 93 132
3 93 106 132
3 115 106 132
3 115 2 133
3 2 106 133
3 115 106 133
3 115 2 134
3 2 107 134
3 115 107 134
3 115 76 135
3 76 107 135
3 115 107 135

CELL_TYPES 268
5
5
5
5
5
5
5
5
5
5
5
5
5
5
5
5
5
5
5
5
5
5
5
5
5
5
5
5
5
5
5
5
5
5
5
5
5
5
5
5
5
5
5
5
5
5
5
5
5
5
5
5
5
5
5
5
5
5
5
5
5
5
5
5
5
5
5
5
5
5
5
5
5
5
5
5
5
5
5
5
5
5
5
5
5
5
5
5
5
5
5
5
5
5
5
5
5
5
5
5
5
5
5
5
5
5
5
5
5
5
5
5
5
5
5
5
5
5
5
5
5
5
5
5
5
5
5
5
5
5
5
5
5
5
5
5
5
5
5
5
5
5
5
5
5
5
5
5
5
5
5
5
5
5
5
5
5
5
5
5
5
5
5
5
5
5
5
5
5
5
5
5
5
5
5
5
5
5
5
5
5
5
5
5
5
5
5
5
5
5
5
5
5
5
5
5
5
5
5
5
5
5
5
5
5
5
5
5
5
5
5
5
5
5
5
5
5
5
5
5
5
5
5
5
5
5
5
5
5
5
5
5
5
5
5
5
5
5
5
5
5
5
5
5
5
5
5
5
5
5
5
5
5
5
5
5
5
5
5
5
5
5
5
5
5
5
5
5

CELL_DATA 268
SCALARS cell_data_0 double
LOOKUP_TABLE default
-0.00143644272187
-0.00104552594486
5.5107281742e-05
0.000596079555104
0.00103340711714
0.00155285892143
0.00162679242862
0.00210583175255
0.00197127957775
0.002410623265
0.00213372345038
0.00253123253771
0.00215575310211
0.00250577902289
0.00204031016073
0.00232580149749
0.00176457058689
0.00195172700382
0.00127156163603
0.00129097204345
0.000453668426562
0.000157844620454
-0.000826587535389
-0.00107746146358
-0.00107074239813
-0.00107688872601
-0.00117539599345
-0.00131219650726
-0.00117690655415
-0.000999806884434
-0.000986295392925
-0.00102199034662
-0.00104111940011
-0.00100529497452
-0.000965357541524
-0.00098985418073
-0.000889796058022
-0.00107019797557
-0.000912006254125
-0.000803969472723
-0.0008393832089
-0.000932479854218
-0.000946959871911
-0.000993953104375
-0.000979404243064
-0.000984855358592
-0.000939941324099
-0.000863123319521
-0.000849008346996
-0.000681556834941
-0.000685052149033
-0.000652521104471
-0.000560628435332
-0.000648964659854
-0.000779507704199
-0.000814594470692
-0.000896140482073
-0.00088944716198
-0.000932487953277
-0.00088938703672
-0.00089598832018
-0.000814395869575
-0.000779215770949
-0.000648578512189
-0.00056008987633
-0.000353355722402
-0.000354056240116
-0.000162158855831
-0.000238388799746
-0.000524119813774
-0.000556529778107
-0.000719082149682
-0.000715168052695
-0.000805470793048
-0.00076338924946
-0.000805418719659
-0.000715088887696
-0.000718946339781
-0.000556471352678
-0.000523838542687
-0.000238155305534
-0.000161538050815
7.01722776866e-05
-4.65334070026e-05
-0.000365388189284
-0.00039509413924
-0.000571270332302
-0.000530377883183
-0.000626441718034
-0.000504320838129
-0.00054944185438
-0.000414883737495
-0.000193275859127
-2.81618702101e-05
0.000256994012977
0.000118389891312
-0.000191741191655
-0.000301359894639
-0.000163285766482
-0.000262468524789
-8.26987587813e-05
0.000211003031358
0.000384988184477
0.000196646536179
0.000385676981755
0.000933389013829
0.00130016948209
0.00123667827479
0.000649785070915
0.000503502499501
0.000888800783796
0.000340869727317
0.000476968552895
-5.91167767182e-05
-0.000102017788995
-0.000512439421215
-0.000843137568212
-0.00119200354499
-0.00163085641887
-0.00126091394321
-0.00101602094678
-0.000826365559184
-0.000539664354073
-0.000103561176072
-6.02263187109e-05
0.000475727660992
0.000339825527731
0.000887506955885
0.000641166255135
0.00115516836314
0.000840139545488
0.00129765068417
0.000932683432021
0.000743922532064
-0.000496190221487
0.000368536813892
-0.000734967940625
0.000509277269031
-0.000113996979063
0.00099795835827
0.00240975225712
0.00193818214058
0.0023043761599
0.00179609390791
0.00226942886257
0.00184908177068
0.00235919468362
0.00203161086874
0.00289790363213
0.00285148585183
0.00306104158367
0.00287365921918
0.00286195556332
0.00305237975153
0.00284271303134
0.00253175413915
0.00225090413097
0.00172500003296
0.000968866683767
0.000218314744417
6.48736803602e-05
0.000838975689624
0.00179884857952
0.0022857507009
0.00241765025805
0.00304031503463
0.00304596038362
0.00314763580409
0.00304481768908
-0.00221958924294
-0.00307722630881
-0.00325012670864
-0.00252032305106
-0.0042872936689
-0.0013385354877
-0.00204141945308
-0.00172991932163
-0.00212722575432
-0.00280961047994
-0.00231654317697
-0.00328862194152
-0.00157264671518
-0.00189138895384
-0.00174245723714
-0.0017402282728
-0.00189212445449
-0.00157713134721
-0.00223640287771
-0.00271909472452
-0.000754038919076
-0.00162529635034
-0.00180926125982
-0.00245083505828
-0.0052026682107
-0.00520084260841
-0.00311437649283
-0.00239638952054
-0.00177480829011
-0.00116381663615
0.00264108797326
0.00275740533086
0.00285365184528
-0.00359951553982
-0.00159446404194
-0.00298245397398
-0.0034129350133
-0.00376001690341
-0.00271212821944
-0.00346298919409
-0.00429190672068
-0.00310990157361
-0.00478742802121
-0.00477743546989
-0.00406800831368
-0.00347423291196
-0.00254657909181
-0.00456854957757
-0.00462482002466
-0.00337382678662
-0.00493610491446
-0.00773788558596
-0.00755942128038
-0.00786888234077
-0.00496562515882
-0.00484896644376
-0.00676685711503
-0.00565843331329
-0.00510249341579
-0.00726889297067
-0.00526765901608
-0.00385257488722
-0.00574624998186
-0.00415884351627
-0.00328651296485
-0.00526107804973
-0.00463287013164
-0.0046950155081
-0.00379488523913
-0.00306494058345
-0.0042899981219
-0.00218780100363
-0.00486905922157
-0.00468706550626
-0.00582575579716
-0.0066800286997
-0.00632698312545
-0.00633865956195
-0.00685290346567
-0.0071658374808
-0.00753090253529
-0.00688372297473
-0.00750286690406
-0.00721767665889
-0.00783459472936
-0.00789063006551
-0.00783891256959
-0.00661555757425
-0.00624361266881
-0.00635879989866
-0.00490826039011
-0.00474210837104
-0.00580750882008
-0.00465608866874
-0.00408492928558
-0.00501370453472
-0.00359170553767
-0.00290002724679
-0.00467999527708

