# vtk DataFile Version 3.0
File Name: Molecule/methanol/U_reac_   2.00-0.vtk
ASCII
DATASET UNSTRUCTURED_GRID
FIELD FieldData 1
TIME 1 1 double
0.0
POINTS 96 double
1.611 0.0 -0.359
1.445 -0.731 -0.342
1.403 0.0 -0.933
1.252 -0.666 -0.918
0.98 -1.317 -0.296
0.828 -1.2 -0.876
0.308 -1.642 -0.229
0.216 -1.496 -0.815
-0.438 -1.642 -0.155
-0.464 -1.496 -0.747
-1.11 -1.317 -0.088
-1.076 -1.2 -0.686
-1.576 -0.731 -0.042
-1.5 -0.666 -0.644
-1.742 0.0 -0.025
-1.651 0.0 -0.629
-1.576 0.731 -0.042
-1.5 0.666 -0.644
-1.11 1.317 -0.088
-1.076 1.2 -0.686
-0.438 1.642 -0.155
-0.464 1.496 -0.747
0.308 1.642 -0.229
0.216 1.496 -0.815
0.98 1.317 -0.296
0.828 1.2 -0.876
1.445 0.731 -0.342
1.252 0.666 -0.918
1.907 0.0 0.656
1.763 0.722 0.656
1.763 0.361 1.281
1.763 -0.361 1.281
1.763 -0.722 0.656
1.763 -0.361 0.03
1.763 0.361 0.03
1.354 1.123 1.377
1.354 0.554 1.87
1.354 -0.19 1.977
1.354 -0.874 1.664
1.354 -1.281 1.032
1.354 -1.281 0.28
1.354 1.335 0.656
0.741 1.571 1.412
0.741 1.087 2.019
0.741 0.388 2.356
0.741 -0.388 2.356
0.741 -1.087 2.019
0.741 -1.571 1.412
0.741 -1.744 0.656
0.741 1.744 0.656
0.019 1.744 1.378
0.019 1.335 1.99
0.019 0.722 2.399
0.019 -0.0 2.543
0.019 -0.722 2.399
0.019 -1.335 1.99
0.019 -1.744 1.378
0.019 -1.888 0.656
0.019 1.888 0.656
-0.703 1.744 0.656
-0.703 1.571 1.412
-0.703 1.087 2.019
-0.703 0.388 2.356
-0.703 -0.388 2.356
-0.703 -1.087 2.019
-0.703 -1.571 1.412
-0.703 -1.744 0.656
-1.316 1.335 0.656
-1.316 1.123 1.377
-1.316 0.554 1.87
-1.316 -0.19 1.977
-1.316 -0.874 1.664
-1.316 -1.281 1.032
-1.725 0.722 0.656
-1.725 0.361 1.281
-1.725 -0.361 1.281
-1.725 -0.722 0.656
-1.868 0.0 0.656
1.21 -0.384 -1.402
0.648 -0.871 -1.742
0.648 -0.189 -2.053
1.21 0.384 -1.402
0.648 0.552 -1.946
0.648 1.118 -1.456
-0.12 -1.149 -1.755
-0.12 -0.544 -2.172
-0.12 0.185 -2.261
-0.12 0.872 -2.0
-0.12 1.359 -1.451
-0.887 -1.276 -1.112
-0.887 -0.871 -1.742
-0.887 -0.189 -2.053
-0.887 0.552 -1.946
-0.887 1.118 -1.456
-1.449 -0.384 -1.402
-1.449 0.384 -1.402

CELLS 188 752
3 0 1 2
3 2 1 3
3 1 4 3
3 3 4 5
3 4 6 5
3 5 6 7
3 6 8 7
3 7 8 9
3 8 10 9
3 9 10 11
3 10 12 11
3 11 12 13
3 12 14 13
3 13 14 15
3 14 16 15
3 15 16 17
3 16 18 17
3 17 18 19
3 18 20 19
3 19 20 21
3 20 22 21
3 21 22 23
3 22 24 23
3 23 24 25
3 24 26 25
3 25 26 27
3 26 0 27
3 27 0 2
3 28 29 30
3 28 30 31
3 28 31 32
3 28 32 33
3 28 33 34
3 28 34 29
3 30 29 35
3 30 35 36
3 30 36 37
3 31 30 37
3 31 37 38
3 31 38 39
3 32 31 39
3 32 39 40
3 33 32 40
3 29 41 35
3 35 41 42
3 35 42 43
3 36 35 43
3 36 43 44
3 37 36 44
3 37 44 45
3 38 37 45
3 38 45 46
3 38 46 47
3 39 38 47
3 39 47 48
3 40 39 48
3 41 49 42
3 42 49 50
3 42 50 51
3 43 42 51
3 43 51 52
3 44 43 52
3 44 52 53
3 45 44 53
3 45 53 54
3 46 45 54
3 46 54 55
3 47 46 55
3 47 55 56
3 48 47 56
3 48 56 57
3 49 58 50
3 50 58 59
3 50 59 60
3 51 50 60
3 51 60 61
3 52 51 61
3 52 61 62
3 53 52 62
3 53 62 63
3 54 53 63
3 54 63 64
3 55 54 64
3 55 64 65
3 56 55 65
3 56 65 66
3 57 56 66
3 60 59 67
3 60 67 68
3 61 60 68
3 61 68 69
3 62 61 69
3 62 69 70
3 63 62 70
3 63 70 71
3 64 63 71
3 65 64 71
3 65 71 72
3 66 65 72
3 68 67 73
3 68 73 74
3 69 68 74
3 70 69 74
3 70 74 75
3 71 70 75
3 72 71 75
3 72 75 76
3 74 73 77
3 75 74 77
3 76 75 77
3 76 77 14
3 76 14 12
3 76 12 10
3 76 10 72
3 72 10 66
3 66 10 8
3 66 8 57
3 57 8 6
3 57 6 48
3 48 6 4
3 48 4 40
3 40 4 1
3 40 1 33
3 33 1 0
3 33 0 34
3 34 0 26
3 34 26 29
3 29 26 41
3 41 26 24
3 41 24 49
3 49 24 22
3 49 22 58
3 58 22 20
3 58 20 59
3 59 20 18
3 59 18 67
3 67 18 16
3 67 16 73
3 73 16 14
3 73 14 77
3 78 79 80
3 81 78 80
3 81 80 82
3 81 82 83
3 79 84 85
3 80 79 85
3 80 85 86
3 82 80 86
3 82 86 87
3 83 82 87
3 83 87 88
3 84 89 90
3 85 84 90
3 85 90 91
3 86 85 91
3 86 91 92
3 87 86 92
3 87 92 93
3 88 87 93
3 90 89 94
3 91 90 94
3 91 94 95
3 92 91 95
3 93 92 95
3 93 95 17
3 93 17 19
3 93 19 21
3 93 21 88
3 88 21 23
3 88 23 83
3 83 23 25
3 83 25 27
3 83 27 81
3 81 27 2
3 81 2 78
3 78 2 3
3 78 3 79
3 79 3 5
3 79 5 7
3 79 7 84
3 84 7 9
3 84 9 89
3 89 9 11
3 89 11 13
3 89 13 94
3 94 13 15
3 94 15 95
3 95 15 17

CELL_TYPES 188
5
5
5
5
5
5
5
5
5
5
5
5
5
5
5
5
5
5
5
5
5
5
5
5
5
5
5
5
5
5
5
5
5
5
5
5
5
5
5
5
5
5
5
5
5
5
5
5
5
5
5
5
5
5
5
5
5
5
5
5
5
5
5
5
5
5
5
5
5
5
5
5
5
5
5
5
5
5
5
5
5
5
5
5
5
5
5
5
5
5
5
5
5
5
5
5
5
5
5
5
5
5
5
5
5
5
5
5
5
5
5
5
5
5
5
5
5
5
5
5
5
5
5
5
5
5
5
5
5
5
5
5
5
5
5
5
5
5
5
5
5
5
5
5
5
5
5
5
5
5
5
5
5
5
5
5
5
5
5
5
5
5
5
5
5
5
5
5
5
5
5
5
5
5
5
5
5
5
5
5
5
5
5
5
5
5
5
5

CELL_DATA 188
SCALARS cell_data_0 double
LOOKUP_TABLE default
-0.00276895956534
-0.00323037166861
-0.00139029605668
-0.00100661663884
7.67675125356e-05
0.000613773493597
0.00104450602426
0.00156249463175
0.00163263588649
0.00211075033194
0.00197228324069
0.00240971884086
0.00213576510768
0.00253384385076
0.00215856731621
0.00250890604848
0.002044036246
0.00233005461606
0.00177019335254
0.00195835216097
0.00128119745718
0.00130272209492
0.000472343691147
0.000182436220796
-0.000788244662414
-0.00165696892242
-0.00232832691717
-0.00369740278943
-0.00105381451959
-0.00105027274257
-0.00105342476135
-0.0011423846299
-0.00127154909595
-0.00114377533677
-0.000981484180441
-0.000972470026474
-0.00100943454759
-0.0010266408063
-0.000992469865507
-0.000950411695521
-0.000970781879992
-0.000867748241177
-0.00103770961924
-0.000892653270649
-0.00078984062016
-0.000828933395896
-0.000921818393415
-0.000938320458338
-0.000984632008292
-0.000971286354642
-0.000975356970983
-0.000931177863966
-0.000853300527489
-0.000836789272166
-0.000668709432639
-0.000667565960279
-0.000638169562216
-0.00055031318458
-0.000641100780378
-0.000771461919876
-0.00080803190932
-0.000889276075194
-0.000883501934321
-0.000926025088156
-0.000883499920493
-0.000889245779206
-0.000808020078455
-0.000771441597194
-0.000641084897059
-0.000550315925915
-0.000343900246386
-0.000343948046347
-0.000154408681498
-0.000231876361659
-0.000517741900299
-0.000551067742955
-0.000713629718978
-0.000710368421256
-0.000800491227601
-0.000758850254804
-0.000800502201711
-0.000710431760296
-0.000713696372392
-0.00055132299523
-0.000517844537494
-0.000232197502178
-0.000154425741429
7.56219981168e-05
-4.17988850238e-05
-0.000360635679103
-0.000390922469538
-0.00056706234087
-0.000526554358525
-0.000622459333763
-0.000500543837144
-0.000545386922878
-0.000410576402905
-0.00018918869684
-2.34245311578e-05
0.000261037722764
0.000122015191356
-0.00018803601055
-0.000297863182093
-0.000159976949757
-0.000259036180769
-7.92698086365e-05
0.00021417308782
0.000388227893083
0.000199768691402
0.000388628279829
0.000936039093398
0.00130246514914
0.00123881446234
0.000652764782941
0.000507558720883
0.000893967876615
0.000348099546301
0.000486591266702
-4.71381740022e-05
-8.49768154144e-05
-0.000491603690172
-0.000809073145639
-0.00114990614351
-0.00166269583719
-0.00157575812219
-0.00166625617125
-0.00122605354241
-0.000986199360961
-0.000795844368135
-0.000518971967027
-8.52220044239e-05
-4.73608265866e-05
0.000486059097547
0.000347846554186
0.00089372717422
0.000646453813211
0.00115929042933
0.000843921919345
0.00130069619048
0.000935641267036
-0.0032348733405
-0.00617240926489
-0.00379859757444
-0.00264400104232
0.000771615668224
-0.000452916746434
0.000401663751345
-0.000686422124301
0.000540359655043
-7.93341270144e-05
0.0010209247544
0.00242003886897
0.00195389779438
0.00231750163181
0.0018142447436
0.00228344162879
0.00186652121339
0.00237150897468
0.00204566640686
0.00290214300971
0.00285902101222
0.00306756371015
0.00288205631325
0.00286980632325
0.00305762733837
0.00284781439324
0.00253862125337
0.00226093552973
0.00173715390572
0.000988927922162
0.000244207109328
-0.00132692082506
-0.00324201645548
-0.00539006729131
-0.00712028805501
-0.00539315556697
-0.0037147058001
-0.00171797034054
8.27229680841e-05
0.000859877146202
0.00181136145487
0.00229663637198
0.00242588816762
0.00273723901062
0.00303921956314
0.00304872441987
0.00315167028338
0.00304853644591

