# vtk DataFile Version 3.0
File Name: Molecule/methanol/U_reac_   5.00-0.vtk
ASCII
DATASET UNSTRUCTURED_GRID
FIELD FieldData 1
TIME 1 1 double
0.0
POINTS 240 double
1.611 0.0 -0.359
1.543 -0.475 -0.352
1.403 0.0 -0.933
1.341 -0.432 -0.927
1.345 -0.911 -0.332
1.16 -0.83 -0.909
1.032 -1.273 -0.301
0.876 -1.16 -0.88
0.631 -1.532 -0.261
0.51 -1.396 -0.844
0.173 -1.667 -0.216
0.093 -1.519 -0.802
-0.304 -1.667 -0.168
-0.341 -1.519 -0.759
-0.762 -1.532 -0.123
-0.758 -1.396 -0.718
-1.163 -1.273 -0.083
-1.124 -1.16 -0.681
-1.475 -0.911 -0.051
-1.408 -0.83 -0.653
-1.674 -0.475 -0.032
-1.589 -0.432 -0.635
-1.742 -0.0 -0.025
-1.651 -0.0 -0.629
-1.674 0.475 -0.032
-1.589 0.432 -0.635
-1.475 0.911 -0.051
-1.408 0.83 -0.653
-1.163 1.273 -0.083
-1.124 1.16 -0.681
-0.762 1.532 -0.123
-0.758 1.396 -0.718
-0.304 1.667 -0.168
-0.341 1.519 -0.759
0.173 1.667 -0.216
0.093 1.519 -0.802
0.631 1.532 -0.261
0.51 1.396 -0.844
1.032 1.273 -0.301
0.876 1.16 -0.88
1.345 0.911 -0.332
1.16 0.83 -0.909
1.543 0.475 -0.352
1.341 0.432 -0.927
1.907 0.0 0.656
1.852 0.452 0.656
1.852 0.226 1.047
1.852 -0.226 1.047
1.852 -0.452 0.656
1.852 -0.226 0.264
1.852 0.226 0.264
1.69 0.76 1.094
1.69 0.439 1.415
1.69 -0.0 1.533
1.69 -0.439 1.415
1.69 -0.76 1.094
1.69 -0.877 0.656
1.69 -0.76 0.217
1.69 -0.439 -0.104
1.69 0.439 -0.104
1.69 0.76 0.217
1.69 0.877 0.656
1.432 1.167 1.108
1.432 0.925 1.499
1.432 0.558 1.776
1.432 0.115 1.902
1.432 -0.343 1.859
1.432 -0.754 1.654
1.432 -1.064 1.315
1.432 -1.23 0.886
1.432 -1.23 0.426
1.432 -1.064 -0.003
1.432 1.167 0.203
1.432 1.252 0.656
1.091 1.484 1.113
1.091 1.283 1.531
1.091 0.969 1.87
1.091 0.568 2.102
1.091 0.116 2.205
1.091 -0.346 2.17
1.091 -0.777 2.001
1.091 -1.139 1.712
1.091 -1.4 1.33
1.091 -1.536 0.887
1.091 -1.536 0.424
1.091 -1.4 -0.018
1.091 1.484 0.198
1.091 1.553 0.656
0.688 1.705 1.112
0.688 1.528 1.538
0.688 1.248 1.904
0.688 0.882 2.184
0.688 0.457 2.36
0.688 0.0 2.42
0.688 -0.457 2.36
0.688 -0.882 2.184
0.688 -1.248 1.904
0.688 -1.528 1.538
0.688 -1.705 1.112
0.688 -1.765 0.656
0.688 -1.705 0.199
0.688 1.705 0.199
0.688 1.765 0.656
0.247 1.815 1.122
0.247 1.642 1.558
0.247 1.366 1.938
0.247 1.004 2.238
0.247 0.579 2.438
0.247 0.118 2.526
0.247 -0.351 2.496
0.247 -0.798 2.351
0.247 -1.194 2.099
0.247 -1.516 1.757
0.247 -1.742 1.345
0.247 -1.859 0.89
0.247 -1.859 0.421
0.247 1.815 0.19
0.247 1.874 0.656
-0.209 1.815 1.122
-0.209 1.642 1.558
-0.209 1.366 1.938
-0.209 1.004 2.238
-0.209 0.579 2.438
-0.209 0.118 2.526
-0.209 -0.351 2.496
-0.209 -0.798 2.351
-0.209 -1.194 2.099
-0.209 -1.516 1.757
-0.209 -1.742 1.345
-0.209 -1.859 0.89
-0.209 -1.859 0.421
-0.209 1.815 0.19
-0.209 1.874 0.656
-0.65 1.765 0.656
-0.65 1.705 1.112
-0.65 1.528 1.538
-0.65 1.248 1.904
-0.65 0.882 2.184
-0.65 0.457 2.36
-0.65 0.0 2.42
-0.65 -0.457 2.36
-0.65 -0.882 2.184
-0.65 -1.248 1.904
-0.65 -1.528 1.538
-0.65 -1.705 1.112
-0.65 -1.765 0.656
-0.65 -1.705 0.199
-0.65 1.705 0.199
-1.053 1.553 0.656
-1.053 1.484 1.113
-1.053 1.283 1.531
-1.053 0.969 1.87
-1.053 0.568 2.102
-1.053 0.116 2.205
-1.053 -0.346 2.17
-1.053 -0.777 2.001
-1.053 -1.139 1.712
-1.053 -1.4 1.33
-1.053 -1.536 0.887
-1.053 -1.536 0.424
-1.053 1.484 0.198
-1.394 1.252 0.656
-1.394 1.167 1.108
-1.394 0.925 1.499
-1.394 0.558 1.776
-1.394 0.115 1.902
-1.394 -0.343 1.859
-1.394 -0.754 1.654
-1.394 -1.064 1.315
-1.394 -1.23 0.886
-1.394 -1.23 0.426
-1.394 1.167 0.203
-1.652 0.877 0.656
-1.652 0.76 1.094
-1.652 0.439 1.415
-1.652 -0.0 1.533
-1.652 -0.439 1.415
-1.652 -0.76 1.094
-1.652 -0.877 0.656
-1.652 -0.76 0.217
-1.652 0.76 0.217
-1.814 0.452 0.656
-1.814 0.226 1.047
-1.814 -0.226 1.047
-1.814 -0.452 0.656
-1.814 -0.226 0.264
-1.814 0.226 0.264
-1.868 -0.0 0.656
1.122 -0.781 -1.188
0.783 -1.147 -1.212
0.783 -0.878 -1.615
1.122 -0.451 -1.519
0.783 -0.475 -1.885
1.122 -0.0 -1.639
0.783 0.0 -1.979
0.783 0.475 -1.885
1.122 0.451 -1.519
0.783 0.878 -1.615
1.122 0.781 -1.188
0.783 1.147 -1.212
0.355 -1.284 -1.432
0.355 -0.989 -1.811
0.355 -0.586 -2.074
0.355 -0.121 -2.192
0.355 0.358 -2.152
0.355 0.798 -1.959
0.355 1.152 -1.634
0.355 1.381 -1.211
-0.12 -1.383 -1.403
-0.12 -1.125 -1.781
-0.12 -0.767 -2.067
-0.12 -0.342 -2.234
-0.12 0.115 -2.268
-0.12 0.561 -2.166
-0.12 0.957 -1.937
-0.12 1.268 -1.602
-0.12 1.467 -1.19
-0.594 -1.44 -0.977
-0.594 -1.284 -1.432
-0.594 -0.989 -1.811
-0.594 -0.586 -2.074
-0.594 -0.121 -2.192
-0.594 0.358 -2.152
-0.594 0.798 -1.959
-0.594 1.152 -1.634
-0.594 1.381 -1.211
-1.022 -1.147 -1.212
-1.022 -0.878 -1.615
-1.022 -0.475 -1.885
-1.022 0.0 -1.979
-1.022 0.475 -1.885
-1.022 0.878 -1.615
-1.022 1.147 -1.212
-1.362 -0.781 -1.188
-1.362 -0.451 -1.519
-1.362 -0.0 -1.639
-1.362 0.451 -1.519
-1.362 0.781 -1.188
-1.58 -0.237 -1.148
-1.58 0.237 -1.148

CELLS 476 1904
3 0 1 2
3 2 1 3
3 1 4 3
3 3 4 5
3 4 6 5
3 5 6 7
3 6 8 7
3 7 8 9
3 8 10 9
3 9 10 11
3 10 12 11
3 11 12 13
3 12 14 13
3 13 14 15
3 14 16 15
3 15 16 17
3 16 18 17
3 17 18 19
3 18 20 19
3 19 20 21
3 20 22 21
3 21 22 23
3 22 24 23
3 23 24 25
3 24 26 25
3 25 26 27
3 26 28 27
3 27 28 29
3 28 30 29
3 29 30 31
3 30 32 31
3 31 32 33
3 32 34 33
3 33 34 35
3 34 36 35
3 35 36 37
3 36 38 37
3 37 38 39
3 38 40 39
3 39 40 41
3 40 42 41
3 41 42 43
3 42 0 43
3 43 0 2
3 44 45 46
3 44 46 47
3 44 47 48
3 44 48 49
3 44 49 50
3 44 50 45
3 46 45 51
3 46 51 52
3 46 52 53
3 47 46 53
3 47 53 54
3 47 54 55
3 48 47 55
3 48 55 56
3 48 56 57
3 49 48 57
3 49 57 58
3 50 59 60
3 45 50 60
3 45 60 61
3 45 61 51
3 51 61 62
3 51 62 63
3 52 51 63
3 52 63 64
3 52 64 65
3 53 52 65
3 53 65 66
3 54 53 66
3 54 66 67
3 55 54 67
3 55 67 68
3 55 68 69
3 56 55 69
3 56 69 70
3 57 56 70
3 57 70 71
3 61 60 72
3 61 72 73
3 61 73 62
3 62 73 74
3 62 74 75
3 63 62 75
3 63 75 76
3 64 63 76
3 64 76 77
3 65 64 77
3 65 77 78
3 65 78 79
3 66 65 79
3 66 79 80
3 67 66 80
3 67 80 81
3 68 67 81
3 68 81 82
3 69 68 82
3 69 82 83
3 69 83 84
3 70 69 84
3 70 84 85
3 71 70 85
3 73 72 86
3 73 86 87
3 73 87 74
3 74 87 88
3 74 88 89
3 75 74 89
3 75 89 90
3 76 75 90
3 76 90 91
3 77 76 91
3 77 91 92
3 78 77 92
3 78 92 93
3 79 78 93
3 79 93 94
3 80 79 94
3 80 94 95
3 80 95 96
3 81 80 96
3 81 96 97
3 82 81 97
3 82 97 98
3 83 82 98
3 83 98 99
3 84 83 99
3 84 99 100
3 85 84 100
3 87 86 101
3 87 101 102
3 87 102 88
3 88 102 103
3 88 103 104
3 89 88 104
3 89 104 105
3 90 89 105
3 90 105 106
3 91 90 106
3 91 106 107
3 92 91 107
3 92 107 108
3 93 92 108
3 93 108 109
3 94 93 109
3 94 109 110
3 95 94 110
3 95 110 111
3 96 95 111
3 96 111 112
3 97 96 112
3 97 112 113
3 98 97 113
3 98 113 114
3 99 98 114
3 99 114 115
3 100 99 115
3 102 101 116
3 102 116 117
3 102 117 103
3 103 117 118
3 103 118 119
3 104 103 119
3 104 119 120
3 105 104 120
3 105 120 121
3 106 105 121
3 106 121 122
3 107 106 122
3 107 122 123
3 108 107 123
3 108 123 124
3 109 108 124
3 109 124 125
3 110 109 125
3 110 125 126
3 111 110 126
3 111 126 127
3 112 111 127
3 112 127 128
3 113 112 128
3 113 128 129
3 114 113 129
3 114 129 130
3 115 114 130
3 117 116 131
3 117 131 132
3 117 132 118
3 118 132 133
3 118 133 134
3 119 118 134
3 119 134 135
3 120 119 135
3 120 135 136
3 121 120 136
3 121 136 137
3 122 121 137
3 122 137 138
3 123 122 138
3 123 138 139
3 124 123 139
3 124 139 140
3 125 124 140
3 125 140 141
3 126 125 141
3 126 141 142
3 127 126 142
3 127 142 143
3 128 127 143
3 128 143 144
3 129 128 144
3 129 144 145
3 130 129 145
3 130 145 146
3 133 131 147
3 132 131 133
3 134 133 148
3 134 148 149
3 135 134 149
3 135 149 150
3 136 135 150
3 136 150 151
3 137 136 151
3 137 151 152
3 138 137 152
3 138 152 153
3 139 138 153
3 139 153 154
3 140 139 154
3 140 154 155
3 141 140 155
3 142 141 155
3 142 155 156
3 143 142 156
3 143 156 157
3 144 143 157
3 144 157 158
3 145 144 158
3 145 158 159
3 146 145 159
3 148 147 160
3 133 147 148
3 149 148 161
3 149 161 162
3 150 149 162
3 150 162 163
3 151 150 163
3 151 163 164
3 152 151 164
3 152 164 165
3 153 152 165
3 154 153 165
3 154 165 166
3 155 154 166
3 155 166 167
3 156 155 167
3 156 167 168
3 157 156 168
3 157 168 169
3 158 157 169
3 158 169 170
3 159 158 170
3 161 160 171
3 148 160 161
3 162 161 172
3 162 172 173
3 163 162 173
3 163 173 174
3 164 163 174
3 165 164 174
3 165 174 175
3 166 165 175
3 166 175 176
3 167 166 176
3 167 176 177
3 168 167 177
3 169 168 177
3 169 177 178
3 170 169 178
3 170 178 179
3 172 171 180
3 161 171 172
3 173 172 181
3 173 181 182
3 174 173 182
3 175 174 182
3 175 182 183
3 176 175 183
3 177 176 183
3 177 183 184
3 178 177 184
3 179 178 184
3 179 184 185
3 181 180 186
3 172 180 181
3 182 181 187
3 183 182 187
3 184 183 187
3 185 184 187
3 186 185 187
3 181 186 187
3 186 180 24
3 186 24 22
3 186 22 185
3 185 22 20
3 185 20 179
3 179 20 18
3 179 18 170
3 170 18 16
3 170 16 159
3 159 16 14
3 159 14 146
3 146 14 12
3 146 12 130
3 130 12 10
3 130 10 115
3 115 10 100
3 100 10 8
3 100 8 85
3 85 8 6
3 85 6 71
3 71 6 4
3 71 4 58
3 71 58 57
3 58 4 1
3 58 1 0
3 58 0 49
3 49 0 50
3 50 0 59
3 59 0 42
3 59 42 40
3 59 40 60
3 60 40 72
3 72 40 38
3 72 38 86
3 86 38 36
3 86 36 101
3 101 36 116
3 116 36 34
3 116 34 131
3 131 34 32
3 131 32 147
3 147 32 30
3 147 30 160
3 160 30 28
3 160 28 171
3 171 28 26
3 171 26 180
3 180 26 24
3 188 189 190
3 191 188 190
3 191 190 192
3 193 191 192
3 193 192 194
3 193 194 195
3 196 193 195
3 196 195 197
3 198 196 197
3 198 197 199
3 190 189 200
3 190 200 201
3 192 190 201
3 192 201 202
3 192 202 203
3 194 192 203
3 194 203 204
3 195 194 204
3 195 204 205
3 197 195 205
3 197 205 206
3 199 197 206
3 199 206 207
3 200 208 209
3 201 200 209
3 201 209 210
3 202 201 210
3 202 210 211
3 203 202 211
3 203 211 212
3 204 203 212
3 204 212 213
3 205 204 213
3 205 213 214
3 206 205 214
3 206 214 215
3 207 206 215
3 207 215 216
3 208 217 218
3 209 208 218
3 209 218 219
3 210 209 219
3 210 219 220
3 211 210 220
3 211 220 221
3 212 211 221
3 212 221 222
3 213 212 222
3 213 222 223
3 214 213 223
3 214 223 224
3 215 214 224
3 215 224 225
3 216 215 225
3 218 217 226
3 218 226 227
3 219 218 227
3 219 227 228
3 220 219 228
3 221 220 228
3 221 228 229
3 222 221 229
3 222 229 230
3 223 222 230
3 223 230 231
3 224 223 231
3 224 231 232
3 225 224 232
3 227 226 233
3 227 233 234
3 228 227 234
3 228 234 235
3 229 228 235
3 230 229 235
3 230 235 236
3 231 230 236
3 231 236 237
3 232 231 237
3 234 233 238
3 235 234 238
3 235 238 239
3 236 235 239
3 237 236 239
3 237 239 25
3 237 25 27
3 237 27 29
3 237 29 232
3 232 29 31
3 232 31 225
3 225 31 33
3 225 33 216
3 216 33 35
3 216 35 207
3 207 35 37
3 207 37 199
3 199 37 39
3 199 39 198
3 198 39 41
3 198 41 43
3 198 43 196
3 196 43 2
3 196 2 193
3 193 2 191
3 191 2 3
3 191 3 188
3 188 3 5
3 188 5 7
3 188 7 189
3 189 7 9
3 189 9 200
3 200 9 11
3 200 11 208
3 208 11 13
3 208 13 217
3 217 13 15
3 217 15 226
3 226 15 17
3 226 17 233
3 233 17 19
3 233 19 21
3 233 21 238
3 238 21 23
3 238 23 239
3 239 23 25

CELL_TYPES 476
5
5
5
5
5
5
5
5
5
5
5
5
5
5
5
5
5
5
5
5
5
5
5
5
5
5
5
5
5
5
5
5
5
5
5
5
5
5
5
5
5
5
5
5
5
5
5
5
5
5
5
5
5
5
5
5
5
5
5
5
5
5
5
5
5
5
5
5
5
5
5
5
5
5
5
5
5
5
5
5
5
5
5
5
5
5
5
5
5
5
5
5
5
5
5
5
5
5
5
5
5
5
5
5
5
5
5
5
5
5
5
5
5
5
5
5
5
5
5
5
5
5
5
5
5
5
5
5
5
5
5
5
5
5
5
5
5
5
5
5
5
5
5
5
5
5
5
5
5
5
5
5
5
5
5
5
5
5
5
5
5
5
5
5
5
5
5
5
5
5
5
5
5
5
5
5
5
5
5
5
5
5
5
5
5
5
5
5
5
5
5
5
5
5
5
5
5
5
5
5
5
5
5
5
5
5
5
5
5
5
5
5
5
5
5
5
5
5
5
5
5
5
5
5
5
5
5
5
5
5
5
5
5
5
5
5
5
5
5
5
5
5
5
5
5
5
5
5
5
5
5
5
5
5
5
5
5
5
5
5
5
5
5
5
5
5
5
5
5
5
5
5
5
5
5
5
5
5
5
5
5
5
5
5
5
5
5
5
5
5
5
5
5
5
5
5
5
5
5
5
5
5
5
5
5
5
5
5
5
5
5
5
5
5
5
5
5
5
5
5
5
5
5
5
5
5
5
5
5
5
5
5
5
5
5
5
5
5
5
5
5
5
5
5
5
5
5
5
5
5
5
5
5
5
5
5
5
5
5
5
5
5
5
5
5
5
5
5
5
5
5
5
5
5
5
5
5
5
5
5
5
5
5
5
5
5
5
5
5
5
5
5
5
5
5
5
5
5
5
5
5
5
5
5
5
5
5
5
5
5
5
5
5
5
5
5
5
5
5
5
5
5
5
5
5
5
5
5
5
5
5
5
5
5
5
5
5
5
5
5
5
5
5
5
5
5
5
5
5
5
5
5
5
5
5
5
5
5
5
5
5
5
5
5
5
5
5
5
5
5
5
5
5
5
5
5

CELL_DATA 476
SCALARS cell_data_0 double
LOOKUP_TABLE default
-0.00281552249854
-0.00360332333918
-0.00213886178502
-0.00230707645439
-0.00111596486558
-0.000916294362918
-0.000188764454468
0.000161116057254
0.000532883423348
0.000936693688067
0.00106769762887
0.00148627361467
0.00145646636421
0.00187628015643
0.00173604644379
0.00214897468731
0.00192844823822
0.0023324372477
0.00205179268041
0.00244431174795
0.00211554695169
0.00249266209618
0.00212444690249
0.00248293850216
0.00207937818986
0.00241406022243
0.00197679448229
0.00227913221529
0.00180860578827
0.00206798257805
0.00156169400981
0.00176025105894
0.00121431707457
0.00132465517356
0.000737151638898
0.000712686050575
9.19904836856e-05
-0.000143910104473
-0.000751919235972
-0.00131277864425
-0.00174961279689
-0.00273012711781
-0.00262370001434
-0.00381293090939
-0.00106433925504
-0.00105314571237
-0.00106428084348
-0.00112235034893
-0.00117892224778
-0.00112248875764
-0.00102031087537
-0.000998804298972
-0.00101080704912
-0.00102638379141
-0.00101079688631
-0.000998754205195
-0.00102021388069
-0.000992097538189
-0.00102908136673
-0.00112449951236
-0.00124091966526
-0.00124203180802
-0.00112500280089
-0.00102955752356
-0.000992271473837
-0.000922730010523
-0.000912668601436
-0.00096002249517
-0.000960873249188
-0.000983801605418
-0.000997987739409
-0.000991162059994
-0.000994592690477
-0.000972725856269
-0.000967935403398
-0.000932354151262
-0.000894864066567
-0.000916066466479
-0.000856436299773
-0.000936178134723
-0.00091644150464
-0.000952393021051
-0.000859016021952
-0.000867248650087
-0.000789561451683
-0.000800534432539
-0.000866428083026
-0.00087999740129
-0.000928437863997
-0.00093568057597
-0.000967019568167
-0.000965550602817
-0.000970742503197
-0.000976722558045
-0.000954034138173
-0.000951042002879
-0.000911081829823
-0.00090001823051
-0.000842609683812
-0.000828522327625
-0.000753552678882
-0.00068694219329
-0.000727136972906
-0.000611670096738
-0.000726607056969
-0.000709990041996
-0.000642108507762
-0.000705913363928
-0.000633076738136
-0.000670135670799
-0.000753135765711
-0.000781773604463
-0.000843874214663
-0.000861188093893
-0.000906136730267
-0.000911796493278
-0.000941204251054
-0.000935832894351
-0.000950413086253
-0.00093424206519
-0.000933683769135
-0.000906726633414
-0.000872690037041
-0.000868234957759
-0.000797157727302
-0.000785771303112
-0.000689872774115
-0.000673684876492
-0.000548414690617
-0.000536178744161
-0.000375449271021
-0.000394184892195
-0.00043634465213
-0.000404548354417
-0.000524199622066
-0.000467619203829
-0.000536529473296
-0.000630581619229
-0.000679748328253
-0.000749384849935
-0.000780216070131
-0.000831723349221
-0.000846246662232
-0.000883285785184
-0.000882305666331
-0.000907140321177
-0.000891210468248
-0.000904892401199
-0.000873144389646
-0.000875984949642
-0.000827130678994
-0.000819203228465
-0.000749645335196
-0.00073053497893
-0.00063555962353
-0.000604452730648
-0.000475301752155
-0.000432375367836
-0.000256065105311
-0.000204730804354
-0.000156789964769
-0.000163886001512
-0.000339383057526
-0.00030431249394
-0.000402990367655
-0.000508726508605
-0.000574484664657
-0.000653237500193
-0.000693039731942
-0.000752266393671
-0.00077028070816
-0.000814769683399
-0.000813316898408
-0.000845953729401
-0.000825770585219
-0.000848486833533
-0.000808508757259
-0.000821912675135
-0.000759865129999
-0.000764672626356
-0.000676091258505
-0.000671525784559
-0.000549123108256
-0.000534737722885
-0.000366446119203
-0.000340328435308
-0.000105775803606
-6.5834934941e-05
0.000112679917668
6.44976877312e-05
-0.00015864927473
-4.33782101613e-05
-9.54145969926e-05
-0.000314138067012
-0.000344251975078
-0.000501567540079
-0.000515000771918
-0.000629063696361
-0.000628805101814
-0.000711122192289
-0.000698295849531
-0.00075547508656
-0.00073012086875
-0.00076644089609
-0.000727282900304
-0.000744588820982
-0.000689276589895
-0.000688308249933
-0.000613053321729
-0.00059215482725
-0.000490753318756
-0.000446900644084
-0.000309086143598
-0.000235409524473
-4.46299452811e-05
7.07001190926e-05
0.000344140713514
0.000426553150408
0.000201065437969
0.000112334101862
3.9383385018e-05
-0.000191645446641
-0.000235675670349
-0.000396949079104
-0.000417658667181
-0.00053194150845
-0.000532314670838
-0.000613777316261
-0.000593772543382
-0.000651298905512
-0.000608871851626
-0.000648103601691
-0.000578897998949
-0.000603829972096
-0.000550338305918
-0.000463215773709
-0.000424754182382
-0.000305680972369
-0.000233051711392
-6.58859120002e-05
5.09214798215e-05
0.00029275761093
0.000474062376398
0.000629003043955
0.000389746279664
0.000242646453816
0.000151450340525
-8.86902289005e-05
-0.000139410653285
-0.000302630582114
-0.000319321802213
-0.000432049940957
-0.000416188593131
-0.000495296056512
-0.000504772243261
-0.000438045290746
-0.000471274268473
-0.000376991150253
-0.000376435664307
-0.000240994311925
-0.00020772989761
-1.04238840399e-05
5.94861512989e-05
0.00035192133697
0.000469374208228
0.000796702117303
0.000552152469289
0.000347311357523
0.000241736018105
2.74923982669e-06
-4.47649002814e-05
-0.000199619992722
-0.000270599414762
-0.00021036659961
-0.000302814719146
-0.000202245539697
-0.000241071701424
-7.66380318658e-05
-7.58514957908e-05
9.83145706505e-05
0.000305722577813
0.000498824307351
0.000806756771555
0.000916190354236
0.000677451630095
0.000424195665484
0.000316224249083
9.34287005393e-05
-7.49833123695e-06
9.14096442938e-05
-7.4858420528e-06
9.33969836853e-05
0.000316231213036
0.000424274497894
0.000760074984941
0.000969437954938
0.000969442353281
0.000760227529143
0.000478903058477
0.000351344554559
0.000478906502024
0.000785738347171
0.000971736193014
0.000785732405524
0.00134055370679
0.00152311827456
0.00133980736303
0.00152315530226
0.00134061808328
0.00149370434342
0.0011557756167
0.00126206093575
0.000909279218899
0.00110540437741
0.000837253140479
0.000997674214558
0.000610267747648
0.000614257794363
0.000253680775961
0.000116075451556
0.000195448046697
-0.000169910401192
-0.000263466814855
-0.000625508312655
-0.000844849000012
-0.00118946297253
-0.00114120133195
-0.00150597662515
-0.00178041110336
-0.00151609135502
-0.00141738758218
-0.00151668355915
-0.00178255680179
-0.00150843814437
-0.00124321670385
-0.000998605793644
-0.000802499861597
-0.000599820902616
-0.000274774333134
-0.000194827820892
5.25344843263e-05
0.000332921612094
0.000407228674146
0.000705979787679
0.000703984143802
0.000997346155276
0.000949007956904
0.00122623665582
0.00114426383051
0.00139020987012
0.00127944712171
0.00149371869216
-0.00168567366532
-0.00316806226708
-0.00299197532263
-0.00483239628659
-0.00402147277243
-0.00402139689895
-0.00483231967548
-0.00299187351562
-0.00316783159501
-0.00168535502579
-0.00042896279615
-0.000120832539582
-0.00117290001748
-0.000687195736317
-0.00096105099874
-0.00192544498843
-0.0011196291628
-0.0018739349623
-0.000832807143971
-0.00127333673299
-0.000291255075239
-0.000526141878969
0.000232435875109
0.0012926730247
0.000830722605768
0.00106507283798
0.000516203663842
0.000846005404766
0.000272790957338
0.000729159432459
0.000216197441851
0.000770051711344
0.000376992341329
0.000948626013122
0.000672876336617
0.00118338941881
0.000973971804413
0.00137980657514
0.00209396109967
0.00184171528105
0.00203749506664
0.00171793558638
0.00193905353704
0.00159290721508
0.00185876231322
0.00152642798951
0.00184078966239
0.00155011658859
0.00189421912703
0.00165215763957
0.00198990818788
0.00178381074163
0.00207444844565
0.00188113595689
0.0024108482569
0.00256572813756
0.00241631502783
0.00255836219615
0.00237637107419
0.00234053791043
0.00251597411185
0.00232297678643
0.00251620373633
0.00234931504172
0.00254375377734
0.00239805871356
0.00256392034177
0.00242053336618
0.00276888897424
0.00287017106833
0.00278761243528
0.0028874746532
0.00279039426
0.00279038903233
0.0028874489502
0.00278750116905
0.00287006724966
0.00276871484939
0.0029753834817
0.00299778685035
0.0030392305372
0.00299776656376
0.00297532948326
0.00298156303679
0.00286616157129
0.00277151632829
0.00275232769441
0.00253797042763
0.00244228926613
0.00218261781056
0.00198046987354
0.00167056005088
0.00131156516447
0.000934361766445
0.000299574568047
-0.000167705222611
-0.00128030109321
-0.00182827562111
-0.00318974802215
-0.00437447349937
-0.00577625016173
-0.0069770204018
-0.00697712830223
-0.00577669139473
-0.00437514347709
-0.00319219279806
-0.0018303128476
-0.00128134604272
-0.000169538992668
0.000238178260274
0.000919231347831
0.00129401806932
0.00170223182284
0.00199496176777
0.00213558268585
0.0024184935889
0.00253802151919
0.00275248307465
0.00277160023784
0.00286622468352
0.00298160329659
0.00293448029659
0.00300683569245
0.00293447205784

