# vtk DataFile Version 3.0
File Name: Molecule/sphere_cent/sphere_cent_0-s6.vtk
ASCII
DATASET UNSTRUCTURED_GRID
FIELD FieldData 1
TIME 1 1 double
0.0
POINTS 87 double
1.7012740374 1.0511558056 0.00037193670869
0.96212667227 1.6708317995 -0.52512091398
0.95509898663 1.6787617207 0.51251983643
0.08450846374 1.9967428446 0.00036521645961
0.00059642025735 1.7016136646 -1.0507880449
0.0011119969422 1.7009497881 1.0517534018
-0.54778063297 0.97031623125 1.6589338779
0.50794410706 0.95636075735 1.6793845892
-0.0053412453271 0.10820428282 1.9953584671
-1.0519735813 -0.00098493508995 1.7009271383
1.0502332449 0.0015313490294 1.7018626928
0.70993506908 -1.0295842886 1.5591390133
1.6164351702 -0.62112820148 1.0005611181
1.0302021503 -1.5693339109 0.68510955572
0.060249879956 -1.6872332096 1.066280961
1.7015664577 -1.0507824421 -0.0019763978198
1.9946893454 -0.0024935593829 0.13136014342
1.6760362387 0.50911307335 0.96243494749
1.0513654947 -0.00043073826237 -1.7011449337
1.5474390984 -0.72328025103 -1.0377258062
0.71865528822 -1.0411478281 -1.5474883318
1.0226439238 -1.5733189583 -0.68607109785
-0.00029105460271 -1.7006366253 -1.0523436069
-0.0039402372204 0.1302921474 -1.9943127632
0.52497833967 0.96513849497 -1.6688725948
-0.5947009325 0.98968625069 -1.6295990944
-1.0498514175 -0.002120653633 -1.7022095919
1.9018313885 -0.33063974977 -0.5221773982
1.701407671 -0.01318724826 -1.0511199236
1.9060468674 0.31797292829 -0.51551783085
1.6093434095 0.63139688969 -1.0049433708
0.32915154099 -0.52318489552 -1.9018037319
0.001364124706 -1.0551809072 -1.6987862587
-0.32824331522 -0.52225863934 -1.902323246
-0.69436132908 -1.0283679962 -1.568118453
1.3787831068 1.1752909422 0.84653192759
0.84605967999 1.378677249 1.1756976843
1.1748764515 0.84603893757 1.3795160055
1.3587968349 1.1951022148 -0.85159832239
1.1560143232 0.86677491665 -1.3828167915
0.84467405081 1.379924655 -1.175113678
-0.65914332867 -1.0042003393 1.5985155106
-0.32337319851 -0.52225589752 1.903370738
0.0016294459347 -1.0539729595 1.6994789839
0.32717087865 -0.52460634708 1.9019480944
-1.607596755 0.6341227293 1.0059483051
-1.7033010721 -0.0038995367941 1.0483925343
-1.5966119766 -0.6529109478 1.0111660957
-1.9042061567 0.31995046139 0.52130258083
-1.9030797482 -0.32337504625 0.52309113741
-1.9979207516 0.0010414022254 -0.075067147613
-1.7015382051 1.0510714054 0.0010901978239
-1.7019597292 -1.0503944159 0.0015454299282
-0.52100932598 1.904691577 0.31758779287
-0.99855452776 1.6190876961 0.6166331768
-0.52498424053 1.902408123 -0.32409751415
-1.0481635332 1.7034798861 -0.0066142077558
-1.0166329145 1.590904355 -0.65841799974
-0.8487033844 1.3718361855 1.1822248697
-1.3620764017 1.1854647398 0.86034941673
-1.1588134766 0.86590236425 1.3810786009
0.53000086546 -1.9009861946 -0.32520061731
-0.0243874304 -1.9992835522 -0.012370301411
1.0515258312 -1.7011957169 0.00055749039166
0.52716428041 -1.9013376236 0.32624223828
-1.0103869438 -1.6046329737 -0.63468462229
-1.0497989655 -1.7024474144 -0.0028520212509
-1.0068246126 -1.616864562 0.60837638378
-0.54523330927 -1.8972275257 -0.32178252935
-0.54788410664 -1.8979281187 0.3127104342
-0.51125079393 -1.7267407179 0.86991381645
-0.040102161467 -1.9241811037 0.54345530272
-1.3548537493 -1.1953486204 0.85765624046
-0.87859463692 -1.3770079613 1.1541267633
-1.176127553 -0.88253766298 1.3557523489
-0.36578261852 -1.4181035757 1.3619400263
-1.6200591326 -0.61578291655 -0.99755984545
-1.701997757 0.00033905456075 -1.0504506826
-1.6168273687 0.61727190018 -1.0019106865
-1.8913314342 -0.31934401393 -0.56719362736
-1.8905380964 0.32095479965 -0.5688342452
-0.86007714272 1.353511095 -1.195291996
-1.1754459143 0.85151714087 -1.3760730028
-1.3794169426 1.1548681259 -0.87426292896
-1.2138044834 -0.86321663857 -1.3348679543
-0.89730876684 -1.3712687492 -1.1467454433
-1.3805269003 -1.1643396616 -0.85927730799

CELLS 170 680
3 0 1 2
3 1 3 2
3 1 4 3
3 2 3 5
3 5 6 7
3 6 8 7
3 6 9 8
3 7 8 10
3 10 11 12
3 11 13 12
3 11 14 13
3 12 13 15
3 15 16 12
3 16 17 12
3 16 0 17
3 12 17 10
3 18 19 20
3 19 21 20
3 19 15 21
3 20 21 22
3 18 23 24
3 23 25 24
3 23 26 25
3 24 25 4
3 19 27 15
3 15 27 16
3 19 28 27
3 28 29 27
3 28 30 29
3 27 29 16
3 30 28 18
3 18 28 19
3 16 29 0
3 29 30 0
3 20 31 18
3 18 31 23
3 20 32 31
3 32 33 31
3 32 34 33
3 31 33 23
3 34 32 22
3 22 32 20
3 23 33 26
3 33 34 26
3 2 35 0
3 0 35 17
3 2 36 35
3 36 37 35
3 36 7 37
3 35 37 17
3 7 36 5
3 5 36 2
3 17 37 10
3 37 7 10
3 30 38 0
3 0 38 1
3 30 39 38
3 39 40 38
3 39 24 40
3 38 40 1
3 24 39 18
3 18 39 30
3 1 40 4
3 40 24 4
3 41 42 9
3 9 42 8
3 41 43 42
3 43 44 42
3 43 11 44
3 42 44 8
3 11 43 14
3 8 44 10
3 44 11 10
3 45 46 9
3 9 46 47
3 45 48 46
3 48 49 46
3 48 50 49
3 46 49 47
3 50 48 51
3 51 48 45
3 47 49 52
3 49 50 52
3 3 53 5
3 5 53 54
3 3 55 53
3 55 56 53
3 55 57 56
3 53 56 54
3 57 55 4
3 4 55 3
3 54 56 51
3 56 57 51
3 54 58 5
3 5 58 6
3 54 59 58
3 59 60 58
3 59 45 60
3 58 60 6
3 45 59 51
3 51 59 54
3 6 60 9
3 60 45 9
3 21 61 22
3 22 61 62
3 21 63 61
3 63 64 61
3 63 13 64
3 61 64 62
3 13 63 15
3 15 63 21
3 64 13 14
3 65 66 52
3 52 66 67
3 65 68 66
3 68 69 66
3 68 62 69
3 66 69 67
3 62 68 22
3 22 68 65
3 67 69 70
3 69 71 70
3 69 62 71
3 70 71 14
3 67 72 52
3 52 72 47
3 67 73 72
3 73 74 72
3 73 41 74
3 72 74 47
3 67 70 73
3 70 75 73
3 70 14 75
3 73 75 41
3 47 74 9
3 74 41 9
3 41 75 43
3 43 75 14
3 14 71 64
3 64 71 62
3 76 77 26
3 26 77 78
3 76 79 77
3 79 80 77
3 79 50 80
3 77 80 78
3 50 79 52
3 52 79 76
3 78 80 51
3 80 50 51
3 25 81 4
3 4 81 57
3 25 82 81
3 82 83 81
3 82 78 83
3 81 83 57
3 78 82 26
3 26 82 25
3 57 83 51
3 83 78 51
3 34 84 26
3 26 84 76
3 34 85 84
3 85 86 84
3 85 65 86
3 84 86 76
3 65 85 22
3 22 85 34
3 76 86 52
3 86 65 52

CELL_TYPES 170
5
5
5
5
5
5
5
5
5
5
5
5
5
5
5
5
5
5
5
5
5
5
5
5
5
5
5
5
5
5
5
5
5
5
5
5
5
5
5
5
5
5
5
5
5
5
5
5
5
5
5
5
5
5
5
5
5
5
5
5
5
5
5
5
5
5
5
5
5
5
5
5
5
5
5
5
5
5
5
5
5
5
5
5
5
5
5
5
5
5
5
5
5
5
5
5
5
5
5
5
5
5
5
5
5
5
5
5
5
5
5
5
5
5
5
5
5
5
5
5
5
5
5
5
5
5
5
5
5
5
5
5
5
5
5
5
5
5
5
5
5
5
5
5
5
5
5
5
5
5
5
5
5
5
5
5
5
5
5
5
5
5
5
5
5
5
5
5
5
5

CELL_DATA 170
SCALARS cell_data_0 double
LOOKUP_TABLE default
4.14096067766e-07
1.4872701699e-07
3.73417669625e-07
4.25455272097e-07
5.22858144182e-07
1.32181266036e-08
4.09769806225e-07
2.84263623584e-07
1.22487157851e-06
2.37272177807e-06
9.01266567075e-07
2.35135623262e-06
1.35936321097e-06
1.99864962787e-06
1.17191995546e-06
2.14180369477e-06
9.59468549238e-07
9.79920410959e-07
7.49139902264e-07
1.92642981405e-06
9.09675234173e-07
1.69346924574e-06
2.00863159746e-06
1.71959864388e-06
3.24550817044e-07
1.58592013775e-07
4.64193096964e-07
5.77905645871e-08
2.86309792276e-07
3.15265171296e-07
4.43719537668e-08
2.72900084991e-07
2.73857574583e-08
1.15799850794e-07
2.51017836906e-07
6.06792053129e-08
1.35797952453e-07
2.90069406042e-07
1.37025501728e-07
5.17543159151e-07
5.75368478619e-07
4.69380962635e-07
9.29526263631e-08
3.36606180088e-07
5.08257340592e-08
4.85571931495e-07
3.32223189993e-07
1.62666656522e-07
5.33089605418e-07
1.64587989625e-07
9.20594255854e-08
8.06581672771e-08
8.14318954817e-08
4.69088307421e-07
5.70063678755e-07
8.18639253384e-07
1.15336593917e-06
7.20805844729e-07
7.50475230451e-07
7.92254085964e-07
7.49222952131e-07
5.89845338932e-07
9.07406745532e-08
2.96274381541e-08
4.60425041598e-07
4.94846078409e-07
4.80672229277e-07
1.13545926235e-07
3.86489227292e-07
5.58651447613e-07
1.74047810189e-07
2.01981834316e-07
2.98531548824e-07
5.08436926486e-07
2.07395282192e-07
5.99657114976e-07
1.08874149639e-07
9.388501702e-09
1.89837374876e-07
4.95949522715e-07
1.92493532697e-07
4.90104809145e-07
5.06191235859e-07
1.32837639727e-07
2.983377394e-10
3.8204580676e-07
4.32147168949e-08
4.75067982768e-07
4.7003400373e-07
1.58719464915e-08
1.82201303447e-07
3.09213512414e-07
2.67585378905e-07
3.92139882357e-08
1.00773156449e-08
3.45085691993e-07
7.30629684671e-08
6.12782339366e-07
4.86559311146e-07
2.32479299183e-07
1.23474350207e-07
4.49605661248e-07
4.62331429651e-07
2.36854604345e-07
4.43767964196e-07
2.65657922523e-07
9.81802521873e-08
1.40152101219e-07
1.8287024108e-08
2.32382759803e-07
6.83230244011e-08
3.83815096771e-07
5.00119847122e-07
4.44147775821e-07
1.03766862717e-08
1.6097380966e-07
9.12262307137e-08
6.47677180126e-08
5.13933063173e-07
5.73374822428e-07
4.03660712913e-08
5.94500182813e-08
6.5792436545e-08
2.94274863292e-07
3.73203263435e-07
4.40717734267e-07
9.67604097182e-09
8.82728631383e-08
4.37356616144e-07
2.4668889234e-07
4.04637711196e-08
2.1242903663e-08
3.35592637977e-07
2.53579251299e-07
2.12231931774e-07
4.27692048568e-07
3.01787556851e-07
1.48277205616e-07
1.49278509288e-07
6.76100684843e-09
1.988127862e-07
7.57955120648e-08
2.68082148385e-07
1.13502618312e-07
9.88180923741e-08
4.30482639396e-07
4.32227146175e-07
3.91087747477e-07
9.92539609441e-08
3.84491082842e-07
4.40875793512e-07
5.85961647093e-08
7.46957429131e-09
9.76931363558e-08
2.48883111712e-07
3.47913942397e-07
2.44871557987e-07
4.61445382271e-07
1.17389872243e-07
7.58713765038e-08
4.79086684873e-07
4.44375701307e-07
1.08266995996e-07
2.21947452337e-08
1.16191981396e-07
1.34974514456e-07
4.74862814239e-07
4.75545260813e-07
4.03351993124e-07
4.32274335035e-07

