# vtk DataFile Version 3.0
File Name: Molecule/sphere_cent/sphere_cent_0-s4.vtk
ASCII
DATASET UNSTRUCTURED_GRID
FIELD FieldData 1
TIME 1 1 double
0.0
POINTS 69 double
1.7015182972 1.0509976149 -4.9965874496e-05
0.9779368639 1.6468886137 -0.56406784058
0.96939575672 1.6585981846 0.54508912563
0.031876873225 1.9958584309 0.00027729716385
0.00087641354185 1.7013735771 -1.051399827
0.0011521046981 1.7010831833 1.0517858267
-0.59044104815 0.98762369156 1.6319159269
0.54215699434 0.96937078238 1.6594785452
-0.0024147978984 0.062469393015 1.9951899052
-1.0518453121 -0.00028571276926 1.7010776997
1.0510349274 0.0012478034478 1.701513648
0.66878265142 -1.0169389248 1.5826979876
1.6169310808 -0.61972105503 1.0005258322
1.0093199015 -1.5972653627 0.64301776886
0.00034230021993 -1.7008680105 1.05222404
1.7019188404 -1.0504561663 -0.0012721917592
1.9961851835 1.5831639757e-05 0.089877456427
1.6578264236 0.54422521591 0.97272700071
-1.0498981476 -0.0013237567618 -1.7021789551
-1.6192028522 -0.61708825827 -0.99838644266
-1.6177990437 0.61773824692 -1.0003572702
-1.9972207546 0.0011182384333 -0.063304878771
-1.7018765211 -1.0504393578 0.00089156278409
-1.7014181614 1.0511313677 0.0012926625786
-0.62016457319 1.0011562109 -1.6164139509
-1.0093723536 1.5996214151 -0.64274609089
-1.0004303455 -1.6185817719 -0.61546468735
-0.99987816811 -1.6185622215 0.61654096842
-0.032684437931 -1.9965264797 7.0059140853e-05
0.0002964931482 -1.7004272938 -1.0528719425
-1.5834950209 -0.6687771678 1.0175565481
-0.6682382226 -1.0179319382 1.5827437639
-0.6896198988 -1.0260250568 -1.5696724653
1.0518106222 -0.00025884149363 -1.7010159492
1.5690128803 -0.68960088491 -1.0259478092
0.68802285194 -1.0268923044 -1.5684494972
1.0072681904 -1.5980657339 -0.64229267836
-0.00055964314379 0.08878429234 -1.9955322742
0.56552797556 0.97886931896 -1.6469385624
1.902000308 -0.32544893026 -0.52535927296
1.7021398544 -0.005035164766 -1.0501047373
1.9036650658 0.32104206085 -0.52255040407
1.606225729 0.63631856441 -1.006788969
0.32530030608 -0.52567833662 -1.9019169807
-4.2287574615e-05 -1.0518351793 -1.7009544373
-0.32541945577 -0.52559638023 -1.9020255804
1.3765010834 1.175388813 0.85039836168
0.85024106503 1.3763334751 1.1756687164
1.175286293 0.85028707981 1.3766971827
1.3616502285 1.1899242401 -0.85452198982
1.1612226963 0.86552155018 -1.3793762922
0.84950429201 1.3770524263 -1.175463438
-0.32434004545 -0.52652096748 1.9019643068
-2.255032814e-05 -1.0505763292 1.7018276453
0.3239672482 -0.52633494139 1.9020913839
-1.6035792828 0.64046478271 1.0085566044
-1.7022328377 -0.0018550644163 1.0500531197
-1.902747035 0.32254254818 0.52526986599
-1.902104497 -0.32416430116 0.5262042284
-0.52597010136 1.9026840925 0.32214397192
-0.99935436249 1.618252635 0.61745494604
-0.52705973387 1.901990056 -0.32401353121
-1.0500172377 1.7024203539 -0.0016207890585
-0.85122102499 1.374933362 1.177026391
-1.3631885052 1.186822176 0.85654896498
-1.1628642082 0.86457115412 1.3786883354
0.526083529 -1.9024267197 -0.32299163938
1.0499985218 -1.7023011446 0.00061961379834
0.52651500702 -1.9021749496 0.32373428345

CELLS 134 536
3 0 1 2
3 1 3 2
3 1 4 3
3 2 3 5
3 5 6 7
3 6 8 7
3 6 9 8
3 7 8 10
3 10 11 12
3 11 13 12
3 11 14 13
3 12 13 15
3 15 16 12
3 16 17 12
3 16 0 17
3 12 17 10
3 18 19 20
3 19 21 20
3 19 22 21
3 20 21 23
3 4 24 25
3 24 20 25
3 24 18 20
3 25 20 23
3 22 26 27
3 26 28 27
3 26 29 28
3 27 28 14
3 22 27 30
3 27 31 30
3 27 14 31
3 30 31 9
3 18 32 19
3 32 26 19
3 32 29 26
3 19 26 22
3 33 34 35
3 34 36 35
3 34 15 36
3 35 36 29
3 33 37 38
3 37 24 38
3 37 18 24
3 38 24 4
3 34 39 15
3 15 39 16
3 34 40 39
3 40 41 39
3 40 42 41
3 39 41 16
3 42 40 33
3 33 40 34
3 16 41 0
3 41 42 0
3 35 43 33
3 33 43 37
3 35 44 43
3 44 45 43
3 44 32 45
3 43 45 37
3 32 44 29
3 29 44 35
3 37 45 18
3 45 32 18
3 2 46 0
3 0 46 17
3 2 47 46
3 47 48 46
3 47 7 48
3 46 48 17
3 7 47 5
3 5 47 2
3 17 48 10
3 48 7 10
3 42 49 0
3 0 49 1
3 42 50 49
3 50 51 49
3 50 38 51
3 49 51 1
3 38 50 33
3 33 50 42
3 1 51 4
3 51 38 4
3 31 52 9
3 9 52 8
3 31 53 52
3 53 54 52
3 53 11 54
3 52 54 8
3 11 53 14
3 14 53 31
3 8 54 10
3 54 11 10
3 55 56 9
3 9 56 30
3 55 57 56
3 57 58 56
3 57 21 58
3 56 58 30
3 21 57 23
3 23 57 55
3 30 58 22
3 58 21 22
3 3 59 5
3 5 59 60
3 3 61 59
3 61 62 59
3 61 25 62
3 59 62 60
3 25 61 4
3 4 61 3
3 60 62 23
3 62 25 23
3 60 63 5
3 5 63 6
3 60 64 63
3 64 65 63
3 64 55 65
3 63 65 6
3 55 64 23
3 23 64 60
3 6 65 9
3 65 55 9
3 36 66 29
3 29 66 28
3 36 67 66
3 67 68 66
3 67 13 68
3 66 68 28
3 13 67 15
3 15 67 36
3 28 68 14
3 68 13 14

CELL_TYPES 134
5
5
5
5
5
5
5
5
5
5
5
5
5
5
5
5
5
5
5
5
5
5
5
5
5
5
5
5
5
5
5
5
5
5
5
5
5
5
5
5
5
5
5
5
5
5
5
5
5
5
5
5
5
5
5
5
5
5
5
5
5
5
5
5
5
5
5
5
5
5
5
5
5
5
5
5
5
5
5
5
5
5
5
5
5
5
5
5
5
5
5
5
5
5
5
5
5
5
5
5
5
5
5
5
5
5
5
5
5
5
5
5
5
5
5
5
5
5
5
5
5
5
5
5
5
5
5
5
5
5
5
5
5
5

CELL_DATA 134
SCALARS cell_data_0 double
LOOKUP_TABLE default
4.11127790228e-07
9.38207693721e-07
7.77158997978e-07
6.15001937762e-07
4.72186169965e-07
3.44293572328e-07
2.49524162391e-07
1.88677050622e-07
2.74823447932e-07
2.88402023097e-07
1.24267441007e-07
1.15363620525e-07
3.40337947959e-07
5.51431171496e-08
7.58208045424e-08
2.46010160686e-08
2.90341634721e-07
1.35475814711e-06
4.30993208083e-07
3.52178327386e-07
1.10169111481e-07
1.03945863256e-06
9.53011346898e-08
1.23467533345e-07
3.65748478378e-07
2.88028421395e-06
1.50657796564e-06
1.61902783069e-06
1.49183144878e-06
1.993943093e-06
3.10777862434e-07
1.42714076733e-06
1.70098853387e-07
1.15253919276e-06
8.82245638351e-08
4.71170958194e-07
2.32147436329e-08
1.29284652213e-06
1.11320767114e-06
1.50531796043e-06
3.27764428679e-07
6.67586671927e-07
5.68327048374e-08
2.57358724076e-07
8.54924134514e-07
7.22561975695e-07
6.6621771003e-07
5.21504932804e-08
2.79782907309e-07
6.07130713285e-07
5.66519466587e-08
3.79976192466e-07
3.04624614304e-07
8.17405876228e-08
1.22150263594e-07
2.20152906047e-07
2.51034923084e-07
1.52679893364e-07
3.05936037349e-07
3.03105441514e-07
2.67483686681e-07
1.93068564414e-07
2.37038715289e-07
2.51314543406e-07
1.97152874869e-07
2.00054353725e-07
2.95435234541e-07
1.25401484896e-07
2.86584223077e-07
3.05727340286e-07
1.84465000674e-07
2.21094357384e-07
1.36910031253e-07
1.00186474529e-07
5.0050309497e-08
1.33666638072e-07
2.61411119904e-07
1.93397456292e-07
2.76542321474e-07
2.47191632313e-07
1.56137254651e-07
3.90289233265e-08
1.4926488297e-07
1.61476575928e-07
1.8426102753e-07
3.42394757222e-07
5.74472743595e-07
6.47414847182e-08
7.01558083741e-07
4.31681962053e-07
7.79570025717e-07
6.11075411837e-07
3.63204927581e-07
3.52369404541e-07
1.76059989373e-08
3.98178691141e-07
2.69340081712e-07
1.4456907925e-07
3.19839139047e-07
2.65971197535e-08
1.51882295043e-07
4.58767608328e-08
4.39262575693e-07
1.77850948747e-07
5.18911100418e-07
7.04531610501e-07
4.50987799547e-07
1.51862900748e-08
4.21917499633e-07
6.87980270114e-07
3.61441658781e-07
7.14003575782e-08
2.86983868896e-07
4.07410167587e-07
3.18147192831e-07
2.44205200275e-07
4.99577581776e-07
1.09055583997e-07
3.36818660642e-07
3.3509260974e-07
9.0380479803e-08
3.54608631431e-07
1.88855791631e-07
9.3585119191e-09
3.64622825614e-07
4.04779354832e-07
8.76839605888e-08
2.39027344648e-07
3.02627382193e-07
1.04076807865e-07
2.70480822179e-07
3.73919145459e-07
4.80726370929e-07
2.08743253891e-07

