# vtk DataFile Version 3.0
File Name: Molecule/sphere_cent/sphere_cent_0-s14.vtk
ASCII
DATASET UNSTRUCTURED_GRID
FIELD FieldData 1
TIME 1 1 double
0.0
POINTS 200 double
1.7418737411 -0.97784626484 -0.067170113325
1.8867019415 -0.48367512226 -0.45280629396
1.9888110161 -0.11393199861 0.16988369823
0.69071793556 -1.0116997957 -1.5806699991
0.12942743301 -1.0737550259 -1.681425333
0.34545493126 -0.55867183208 -1.8864459991
0.85532253981 1.3786950111 1.1692246199
1.1737558842 0.84950578213 1.3785711527
1.4021199942 1.1046663523 0.90122485161
0.55329042673 0.99057209492 1.6463832855
1.6596602201 0.55938744545 0.96513265371
1.5817551613 0.66568750143 -1.024333477
1.1737742424 0.87842148542 -1.3566893339
1.3440513611 1.2045708895 -0.86138868332
0.84463787079 1.3825272322 -1.1725885868
0.9897467494 1.6488311291 -0.54826033115
-0.009088145569 -1.0650554895 1.6927337646
0.3158326447 -0.53155165911 1.901969552
-0.29293933511 -0.48382028937 1.9164040089
0.62862277031 -1.0431861877 1.5859982967
-0.014112122357 0.05733621493 1.9989557266
0.21496081352 -1.6538090706 1.1028375626
-1.5977863073 0.59937024117 1.0371110439
-1.7123355865 -0.0037370689679 1.033347249
-1.1316245794 -0.048463720828 1.64374125
-1.6170229912 -0.58553659916 1.0178958178
-1.9195187092 0.2496997267 0.49820157886
-1.9108270407 -0.31690204144 0.49752816558
-1.99967134 0.0084985215217 -0.029336811975
-1.8930783272 -0.60974770784 -0.19236336648
-1.7445114851 -0.83065760136 0.51133406162
-0.13686425984 1.7194303274 1.007760644
-0.49091893435 1.913579464 0.31222462654
-0.93359255791 1.639008522 0.65027868748
0.05829211697 1.9989126921 0.0010710707866
-0.48909249902 1.9126771688 -0.3199762404
-1.0114504099 1.7227965593 -0.060109652579
-0.95320826769 1.6394124031 -0.63160866499
-0.14025993645 1.7245470285 -0.99888396263
-0.82467585802 1.3665220737 1.2053202391
-1.3261086941 1.1809026003 0.91612327099
-1.1420968771 0.85633766651 1.4007097483
-0.56538707018 0.97652578354 1.6508342028
1.036686182 -1.5819222927 -0.64996129274
1.0586749315 -1.6968058348 0.0061845188029
0.63578468561 -1.8649106026 -0.34088596702
0.51192015409 -1.9054062366 0.32739308476
0.98277437687 -1.6129267216 0.657153368
-1.0132420063 -1.6113760471 -0.61322981119
-0.54302060604 -1.8979657888 -0.32008168101
-0.98385763168 -1.7385433912 -0.078678302467
-0.57194530964 -1.8934904337 0.29529199004
-0.071222603321 -1.9980536699 0.020279150456
-0.12896512449 -1.7184253931 -1.0108808279
-0.99223524332 -1.6033499241 0.66626799107
-0.48728719354 -1.7288439274 0.87942814827
-0.063752017915 -1.9219093323 0.54961943626
-0.8837018013 -1.3651058674 1.1643596888
-1.3091621399 -1.2391922474 0.86457139254
-1.1868613958 -0.87815231085 1.3489612341
-0.65663641691 -0.99287861586 1.6049261093
-0.37317931652 -1.4234365225 1.3543850183
-1.5851041079 -0.55837005377 -1.0790352821
-1.7075052261 -0.0069025983103 -1.0414662361
-1.1482881308 -0.070018902421 -1.6337224245
-1.9143264294 -0.21172325313 -0.53820335865
-1.8975783587 0.29510310292 -0.55303686857
-1.6538945436 0.55049216747 -0.97832721472
-0.83821433783 1.3562383652 -1.2074792385
-0.5970017314 0.98967409134 -1.6321585178
-1.0894621611 0.86088508368 -1.4382785559
-1.2039642334 -0.86929786205 -1.3397488594
-0.72017943859 -1.0365489721 -1.5510363579
-0.89138400555 -1.3670501709 -1.1558234692
-1.3106942177 -1.2176150084 -0.8929489255
1.0431311131 0.0050203236751 1.7063871622
0.89613759518 -0.51395499706 1.712467432
1.3765939474 -0.31610271335 1.4159916639
1.182366848 -0.87471210957 1.3551607132
1.5673421621 -0.65796148777 1.0537555218
0.90661358833 -1.3449975252 1.1700246334
1.3723784685 -1.1550735235 0.88450413942
1.7616354227 -0.77656519413 0.53998535872
1.4432057142 -1.3429454565 0.33610716462
1.7539744377 -0.10575355589 0.9542620182
1.4058891535 0.27069309354 1.3964147568
0.83511787653 0.5045747757 1.7456400394
0.54764604568 0.033136699349 1.9231393337
1.4280822277 -1.3568885326 -0.34449377656
0.26900672913 0.55181127787 1.9033689499
0.90689980984 -1.3493467569 -1.1648020744
0.41091364622 -1.424582243 -1.342346549
0.56914591789 -1.6783177853 -0.92726236582
-0.29143002629 0.57126915455 -1.89432621
-0.014358386397 1.0147469044 -1.7232979536
0.2440777272 0.58059930801 -1.8960880041
0.0017187613994 0.050260324031 -1.9979822636
-0.53675711155 0.10210035741 -1.923920393
-0.80147826672 0.51031702757 -1.759834528
0.57172954082 0.99430036545 -1.636046052
0.27466705441 1.4133147001 -1.388053894
-0.27822971344 1.366121769 -1.4339911938
-0.28082284331 -0.40766215324 -1.9368706942
0.48548394442 1.7486675978 -0.83998441696
0.54749506712 1.9038336277 -0.27528241277
0.94090163708 1.7645987272 0.021798864007
0.53670078516 1.9073241949 0.27207812667
0.92377597094 1.6918829679 0.53199225664
0.084447667003 1.9298843145 -0.51813536882
0.47758355737 1.7465102673 0.84889298677
0.085011929274 1.9283610582 0.52355283499
-0.26380836964 1.3615427017 1.4410523176
0.27274462581 1.417229414 1.3841189146
-0.0064092222601 1.0046408176 1.7293268442
-0.78740853071 0.50425076485 1.7680888176
-0.28128919005 0.55568403006 1.900523901
-0.54157036543 0.090270675719 1.9232738018
1.925752759 0.52810233831 0.11136251688
1.8947410583 0.3090518117 0.56105667353
1.766925931 0.79519325495 0.49609303474
1.7038749456 1.0455833673 -0.035077869892
1.0037959814 0.067013673484 -1.7287831306
1.3335957527 -0.41446006298 -1.4317839146
0.93393909931 -0.54860496521 -1.6814469099
1.1704826355 -0.90848821402 -1.3433545828
1.5660816431 -0.69103938341 -1.0334719419
1.6587674618 -0.95114839077 -0.58658266068
1.3372871876 -1.18811059 -0.89443063736
1.6463394165 -0.078983932734 -1.1310857534
1.8188031912 -0.22087103128 -0.80091607571
1.8292381763 0.15235197544 -0.79405415058
1.9381023645 -0.042531624436 -0.48907005787
1.9247663021 0.36007547379 -0.40100905299
-0.1419044286 -0.79150927067 -1.8309915066
-0.3099116087 -1.0889190435 -1.648755312
-0.52552837133 -0.74021118879 -1.7821401358
-0.40869453549 -1.3876844645 -1.3811275959
-0.030800070614 -1.4030311108 -1.425121665
-0.70924627781 -0.30020141602 -1.8457556963
-0.90249854326 -0.58813112974 -1.6849689484
1.2244026661 1.4246207476 0.6864066124
1.3098615408 1.4839656353 0.27754870057
1.5523021221 1.1821004152 0.43919405341
0.26601725817 -1.8665349483 -0.66807949543
-0.05358844623 -1.9357694387 -0.50003856421
0.26106581092 -1.9713442326 -0.21416157484
-1.388273716 -1.4375560284 -0.059235803783
-1.5402392149 -1.1916275024 -0.45185449719
-1.6968741417 -1.0581653118 0.013182885945
-1.3767356873 -1.4085001945 0.34621584415
-1.0709735155 -1.6652777195 0.28224766254
-1.7764970064 -0.51099997759 -0.76321679354
-1.7341880798 -0.85276097059 -0.5137912631
-1.5461461544 -0.89501446486 -0.89919489622
1.7908197641 0.52381086349 -0.72012943029
1.8468247652 0.71566706896 -0.27686950564
1.6787449121 0.93405294418 -0.55485290289
1.4163936377 1.3669502735 -0.34778919816
-1.3748058081 1.4104455709 -0.34635949135
-1.5698846579 -1.1365486383 0.49380517006
-1.5156613588 -0.93627488613 0.90893810987
-1.4377878904 0.31278058887 -1.353998661
-1.2573314905 1.0617588758 -1.1359869242
-1.2150472403 1.3819327354 -0.78259152174
-1.4008718729 0.7128521204 -1.2372043133
-1.5380195379 0.88859510422 -0.91855329275
-1.3975892067 1.1444919109 -0.85773569345
-1.1748116016 0.44491448998 -1.5564072132
-1.5742965937 1.1378041506 -0.47550091147
-1.7055053711 1.0435043573 -0.0023356631864
-1.7227698565 0.84920215607 -0.55270427465
-1.8349112272 0.77764636278 -0.16287867725
1.5038141012 1.3165961504 0.067822322249
1.2323960066 1.5706675053 -0.11976792663
1.6491825581 0.29901865125 -1.0911772251
1.3734123707 0.37613773346 -1.4041991234
1.3892008066 0.012891464867 -1.4388836622
-1.7838379145 0.49359729886 0.75651419163
-1.9326682091 0.48720178008 -0.14876759052
-1.8692120314 0.66798442602 0.24582244456
-1.727258563 0.8537364006 0.53689831495
-1.5219751596 0.90976643562 0.92495119572
-1.055303812 1.6700907946 0.31297531724
-1.2006247044 1.4278297424 0.72116392851
-1.3881953955 1.4389193058 0.011049091816
-1.3933454752 1.3947271109 0.33640953898
-1.5588862896 1.1496098042 0.49565535784
0.68327713013 -0.23724831641 -1.8645923138
0.51872843504 0.058825965971 -1.9308888912
0.20399810374 -0.23266348243 -1.9760764837
0.88714408875 0.92058867216 -1.538135767
0.81625795364 0.55352395773 -1.7399179935
1.0991348028 0.50130945444 -1.5939307213
-0.50344985723 -0.7375600338 1.7897948027
-0.90802359581 -0.54403424263 1.6968719959
-0.72941607237 -0.29065677524 1.8398176432
-1.8356127739 0.59017968178 -0.5302824378
0.16741371155 0.30861106515 -1.9689323902
0.63222759962 0.34119325876 -1.8665853739
0.4434069097 0.76322907209 -1.7947423458

CELLS 396 1584
3 0 1 2
3 3 4 5
3 6 7 8
3 6 9 7
3 8 7 10
3 11 12 13
3 12 14 13
3 13 14 15
3 16 17 18
3 16 19 17
3 18 17 20
3 19 16 21
3 22 23 24
3 24 23 25
3 26 27 23
3 26 28 27
3 23 27 25
3 27 29 30
3 31 32 33
3 34 35 32
3 35 36 32
3 35 37 36
3 37 35 38
3 33 39 31
3 40 41 39
3 39 41 42
3 41 22 24
3 43 44 45
3 44 46 45
3 44 47 46
3 46 47 21
3 48 49 50
3 49 51 50
3 49 52 51
3 53 49 48
3 54 51 55
3 51 56 55
3 51 52 56
3 55 56 21
3 54 57 58
3 57 59 58
3 57 60 59
3 54 55 57
3 55 61 57
3 55 21 61
3 57 61 60
3 25 59 24
3 60 61 16
3 16 61 21
3 21 56 46
3 46 56 52
3 62 63 64
3 65 66 63
3 65 28 66
3 63 66 67
3 38 68 37
3 69 70 68
3 64 71 62
3 72 73 71
3 73 74 71
3 73 48 74
3 48 73 53
3 75 76 77
3 76 78 77
3 76 19 78
3 77 78 79
3 19 80 78
3 80 81 78
3 80 47 81
3 78 81 79
3 47 80 21
3 21 80 19
3 79 81 82
3 81 83 82
3 81 47 83
3 82 83 0
3 79 82 84
3 2 82 0
3 2 84 82
3 79 84 77
3 84 85 77
3 84 10 85
3 77 85 75
3 75 85 86
3 7 85 10
3 19 76 17
3 17 76 87
3 0 83 88
3 44 83 47
3 9 89 86
3 89 87 86
3 89 20 87
3 86 87 75
3 3 90 91
3 90 92 91
3 90 43 92
3 91 92 53
3 93 94 95
3 93 69 94
3 96 97 93
3 97 98 93
3 97 64 98
3 93 98 69
3 99 94 100
3 94 101 100
3 94 69 101
3 100 101 38
3 3 91 4
3 102 97 96
3 9 86 7
3 7 86 85
3 99 100 14
3 14 100 103
3 75 87 76
3 17 87 20
3 45 92 43
3 38 101 68
3 68 101 69
3 69 98 70
3 15 104 105
3 104 106 105
3 104 34 106
3 105 106 107
3 15 103 104
3 103 108 104
3 103 38 108
3 104 108 34
3 107 106 109
3 106 110 109
3 106 34 110
3 109 110 31
3 31 111 112
3 111 113 112
3 111 42 113
3 112 113 9
3 42 114 115
3 114 116 115
3 114 24 116
3 115 116 20
3 31 112 109
3 6 112 9
3 107 109 6
3 6 109 112
3 38 103 100
3 14 103 15
3 20 116 18
3 31 110 32
3 32 110 34
3 34 108 35
3 35 108 38
3 42 111 39
3 39 111 31
3 24 114 41
3 41 114 42
3 42 115 113
3 89 115 20
3 9 113 89
3 89 113 115
3 2 117 118
3 117 119 118
3 117 120 119
3 118 119 10
3 121 122 123
3 122 124 123
3 122 125 124
3 123 124 3
3 125 126 127
3 126 88 127
3 126 0 88
3 127 88 43
3 0 126 1
3 1 126 125
3 128 129 125
3 125 129 1
3 128 130 129
3 130 131 129
3 130 132 131
3 129 131 1
3 1 131 2
3 131 132 2
3 125 122 128
3 132 117 2
3 5 123 3
3 10 119 8
3 43 88 44
3 44 88 83
3 2 118 84
3 84 118 10
3 125 127 124
3 90 127 43
3 3 124 90
3 90 124 127
3 4 133 5
3 133 102 5
3 4 134 133
3 134 135 133
3 134 72 135
3 133 135 102
3 72 134 136
3 134 137 136
3 134 4 137
3 136 137 53
3 102 135 138
3 135 139 138
3 135 72 139
3 138 139 64
3 107 140 141
3 140 142 141
3 140 8 142
3 8 140 6
3 6 140 107
3 53 143 144
3 143 145 144
3 143 45 145
3 144 145 52
3 52 145 46
3 46 145 45
3 50 146 48
3 48 146 147
3 148 146 149
3 146 150 149
3 146 50 150
3 149 150 54
3 54 150 51
3 51 150 50
3 53 144 49
3 49 144 52
3 58 149 54
3 62 151 63
3 151 65 63
3 65 29 28
3 28 29 27
3 148 29 152
3 29 151 152
3 29 65 151
3 152 151 153
3 64 139 71
3 71 139 72
3 74 153 71
3 71 153 62
3 72 136 73
3 73 136 53
3 62 153 151
3 153 147 152
3 153 74 147
3 152 147 148
3 148 147 146
3 48 147 74
3 53 137 91
3 91 137 4
3 102 138 97
3 97 138 64
3 45 143 92
3 92 143 53
3 107 141 105
3 120 142 119
3 119 142 8
3 132 154 155
3 154 156 155
3 154 11 156
3 155 156 120
3 120 156 157
3 13 156 11
3 15 157 13
3 13 157 156
3 148 30 29
3 27 30 25
3 37 158 36
3 148 159 30
3 159 160 30
3 159 58 160
3 30 160 25
3 25 160 59
3 59 160 58
3 67 161 63
3 63 161 64
3 70 162 68
3 68 162 163
3 70 164 162
3 164 165 162
3 164 67 165
3 162 165 166
3 166 163 162
3 68 163 37
3 67 164 161
3 164 167 161
3 164 70 167
3 161 167 64
3 37 163 158
3 163 168 158
3 163 166 168
3 158 168 169
3 166 165 168
3 165 170 168
3 165 67 170
3 169 168 171
3 64 167 98
3 98 167 70
3 120 157 172
3 157 173 172
3 157 15 173
3 172 173 141
3 11 154 174
3 130 154 132
3 132 155 117
3 117 155 120
3 120 172 142
3 142 172 141
3 58 159 149
3 149 159 148
3 141 173 105
3 105 173 15
3 11 174 175
3 174 176 175
3 174 128 176
3 175 176 121
3 11 175 12
3 22 177 23
3 177 26 23
3 28 26 178
3 169 179 180
3 179 177 180
3 179 26 177
3 180 177 181
3 36 182 32
3 32 182 33
3 33 182 183
3 182 184 185
3 182 36 184
3 185 184 169
3 33 183 39
3 183 40 39
3 40 181 41
3 181 22 41
3 22 181 177
3 181 186 180
3 181 40 186
3 180 186 169
3 169 186 185
3 186 183 185
3 186 40 183
3 185 183 182
3 128 174 130
3 130 174 154
3 121 176 122
3 122 176 128
3 169 184 158
3 158 184 36
3 121 187 188
3 187 189 188
3 187 5 189
3 188 189 96
3 96 189 102
3 102 189 5
3 12 190 14
3 190 99 14
3 99 190 191
3 190 192 191
3 190 12 192
3 191 192 121
3 60 193 194
3 193 195 194
3 193 18 195
3 194 195 24
3 18 193 16
3 16 193 60
3 60 194 59
3 59 194 24
3 66 178 196
3 178 171 196
3 178 179 171
3 196 171 170
3 96 197 188
3 197 198 188
3 197 95 198
3 188 198 121
3 121 198 191
3 198 199 191
3 198 95 199
3 191 199 99
3 95 197 93
3 93 197 96
3 99 199 94
3 94 199 95
3 24 195 116
3 116 195 18
3 5 187 123
3 123 187 121
3 170 171 168
3 169 171 179
3 66 196 67
3 196 170 67
3 121 192 175
3 175 192 12
3 179 178 26
3 28 178 66

CELL_TYPES 396
5
5
5
5
5
5
5
5
5
5
5
5
5
5
5
5
5
5
5
5
5
5
5
5
5
5
5
5
5
5
5
5
5
5
5
5
5
5
5
5
5
5
5
5
5
5
5
5
5
5
5
5
5
5
5
5
5
5
5
5
5
5
5
5
5
5
5
5
5
5
5
5
5
5
5
5
5
5
5
5
5
5
5
5
5
5
5
5
5
5
5
5
5
5
5
5
5
5
5
5
5
5
5
5
5
5
5
5
5
5
5
5
5
5
5
5
5
5
5
5
5
5
5
5
5
5
5
5
5
5
5
5
5
5
5
5
5
5
5
5
5
5
5
5
5
5
5
5
5
5
5
5
5
5
5
5
5
5
5
5
5
5
5
5
5
5
5
5
5
5
5
5
5
5
5
5
5
5
5
5
5
5
5
5
5
5
5
5
5
5
5
5
5
5
5
5
5
5
5
5
5
5
5
5
5
5
5
5
5
5
5
5
5
5
5
5
5
5
5
5
5
5
5
5
5
5
5
5
5
5
5
5
5
5
5
5
5
5
5
5
5
5
5
5
5
5
5
5
5
5
5
5
5
5
5
5
5
5
5
5
5
5
5
5
5
5
5
5
5
5
5
5
5
5
5
5
5
5
5
5
5
5
5
5
5
5
5
5
5
5
5
5
5
5
5
5
5
5
5
5
5
5
5
5
5
5
5
5
5
5
5
5
5
5
5
5
5
5
5
5
5
5
5
5
5
5
5
5
5
5
5
5
5
5
5
5
5
5
5
5
5
5
5
5
5
5
5
5
5
5
5
5
5
5
5
5
5
5
5
5
5
5
5
5
5
5
5
5
5
5
5
5
5
5
5
5
5
5
5
5
5
5
5
5
5
5
5
5
5
5
5
5
5
5
5
5

CELL_DATA 396
SCALARS cell_data_0 double
LOOKUP_TABLE default
5.20768287938e-07
5.48090916192e-08
1.14292247578e-08
1.83119644075e-07
1.6185161283e-08
3.02102804495e-08
8.57628976564e-08
8.61618134869e-08
1.65252451782e-07
9.1456665216e-08
1.18964131932e-07
5.05919589244e-07
5.03355167221e-07
5.86969622013e-07
2.75860904821e-08
7.64146705977e-08
1.60409614545e-08
3.55080235578e-07
4.64902222422e-07
5.82128493978e-08
3.34813759332e-08
6.81454444744e-08
3.23633640362e-07
4.20015093138e-07
7.28108126129e-08
9.39091326291e-08
8.66201445608e-07
6.57788304301e-09
7.49163727769e-08
2.27737980123e-08
4.39878512872e-07
1.3104889262e-07
6.78743871787e-09
2.08996038342e-08
6.39170235275e-07
6.91221135835e-08
4.46666362064e-08
1.39322525718e-07
4.63761069405e-08
7.09877917302e-08
9.35121636796e-08
3.40611750583e-10
5.06010252751e-08
4.53954838813e-08
1.12241995206e-07
3.66805267993e-08
8.13069356744e-07
2.70771964571e-08
1.81344913109e-07
6.46394691108e-08
1.13675191765e-07
2.89673706983e-07
3.36661759009e-08
1.42356125964e-08
4.56661288272e-08
4.40640815778e-07
1.47731975283e-08
2.18284938982e-07
1.87818772059e-07
9.30338760192e-08
1.84645148374e-07
5.95146042035e-07
3.95993801706e-08
2.13548775455e-08
1.10408574117e-08
4.92568204587e-08
4.92329012572e-09
3.3727524999e-08
1.03061068497e-08
2.34310126912e-08
2.64757788006e-07
2.59281907868e-07
7.36285803707e-09
1.31404480784e-07
5.10478393425e-08
1.00864614112e-07
7.56445527733e-08
5.60364866462e-07
6.5651766752e-07
3.88725503035e-08
1.21545525917e-07
8.27877726497e-08
1.56553572502e-08
7.72437647828e-08
1.14724155743e-07
6.0473258528e-08
1.18259482387e-07
1.65036962361e-07
7.78659697925e-08
1.48840360574e-08
4.75567525727e-08
2.00666971748e-07
2.07660447666e-08
9.49098539583e-08
5.9493182498e-08
5.69021912666e-08
1.79874710603e-07
6.04121043104e-10
2.65693734087e-08
2.67566919828e-08
4.02932944016e-08
1.49466764132e-07
3.32946636344e-09
4.19995912008e-09
1.23168766784e-08
1.44097084201e-08
9.60389018153e-08
1.35741702752e-07
1.98189013121e-08
9.07313051339e-08
2.23109674052e-07
1.47913666231e-07
1.01974036831e-07
2.52002035617e-08
1.45900235523e-07
7.40057264134e-10
4.89699677511e-08
4.2962408641e-08
5.55975827439e-08
4.00569862463e-09
9.32071436309e-09
2.72905704347e-08
5.96591668335e-08
2.60252579043e-08
1.11999908182e-09
1.32657438884e-07
4.0425244266e-08
1.57600540012e-08
4.27490266869e-08
4.29227918842e-08
8.15507589869e-09
2.24202153884e-08
7.66087795034e-08
1.02937713138e-07
5.75957329784e-08
1.75940524336e-07
7.38922208781e-08
1.68910058214e-08
2.41453576781e-07
1.72426629066e-07
2.19576924663e-08
6.54275599401e-08
9.87616121042e-08
2.44793721988e-09
1.09692517796e-07
1.83326031007e-07
1.17705069374e-07
2.45081794932e-08
1.21029731813e-08
1.41059801353e-08
1.53428296882e-07
1.01349447611e-07
3.65214865406e-07
1.31823144002e-07
9.79950827528e-08
2.08777328009e-07
2.3380544869e-08
2.60835628143e-08
3.19661712903e-08
5.39471015802e-08
3.62785906817e-08
8.30007839341e-08
5.3553626149e-08
2.79459874375e-08
6.73460322769e-08
4.49461951455e-08
1.10271868319e-08
8.02564077178e-08
2.20999926069e-08
4.08502773262e-08
2.92899886643e-08
3.45890249136e-08
2.04734133136e-08
7.73823074483e-08
5.40403286525e-08
3.08494491237e-08
6.46686354338e-08
4.82457711742e-08
8.13950493184e-08
1.03361787879e-07
1.01253463599e-08
1.3246218455e-07
5.81257022252e-08
9.09612302852e-08
7.42968724437e-08
2.03790225823e-07
1.12514923259e-07
3.17490647428e-08
3.56683867134e-08
3.48454627196e-08
6.97919219589e-08
1.48164487133e-08
4.2836419121e-08
8.51198617857e-09
7.04846917615e-08
6.07337460943e-09
7.82339807234e-08
6.44212274687e-08
6.04555737251e-08
1.80910079772e-08
2.63073881028e-08
1.34866823625e-08
3.54547390339e-08
1.13486227289e-08
7.81631274762e-08
5.18262570837e-08
5.23012445391e-08
2.45840420715e-08
7.88186633517e-08
8.82956087549e-08
1.47874493936e-08
9.89320595604e-09
2.4376021129e-08
3.68337617793e-08
7.14993754935e-08
7.00091729292e-08
3.11546365165e-08
3.490907959e-08
1.08291241159e-07
3.85859914833e-08
4.60191259518e-08
5.00310516963e-08
1.2295989775e-07
1.2769948269e-07
5.82350407797e-08
1.52027235661e-07
1.90974385626e-08
3.62298542642e-08
1.03636131146e-07
2.43015898087e-08
7.37329555078e-08
1.98001507564e-07
2.82645244885e-08
6.58708311742e-08
6.74366152863e-08
2.14163983174e-08
8.76643354835e-08
1.70336506587e-07
5.78504161443e-08
1.58695803961e-07
1.08427311698e-07
1.8310110482e-07
8.12837605421e-08
3.26009558262e-08
3.68303330807e-09
1.30142780802e-08
3.87809269198e-08
8.65489460286e-09
4.94709397609e-08
7.15853928693e-08
6.31498700555e-08
2.37122577915e-08
2.70531912063e-08
7.9654767438e-08
3.67729248449e-10
4.30420133403e-08
3.32420237148e-08
4.14084351417e-08
1.113676887e-08
2.75031893933e-08
5.96126010017e-08
5.48327420153e-08
1.94118966923e-08
3.17318175561e-08
1.80685648826e-09
2.12940684237e-07
5.68132473057e-08
4.77722518534e-08
2.0839225737e-08
6.30585527504e-09
7.49274840448e-09
1.52445966058e-08
5.65404182702e-08
3.01373710123e-08
4.83394626278e-09
1.32060453503e-07
4.41990251925e-08
4.42138370246e-08
5.70715960382e-08
2.35779217251e-08
2.11914001703e-08
3.2058823504e-08
4.62153263915e-08
5.27316785184e-08
6.59543178967e-09
1.42742260111e-08
6.81682842623e-08
7.12569743856e-08
8.64540280272e-09
2.6102216763e-08
3.7002980023e-08
3.82942175697e-08
1.28945179632e-08
1.68568951783e-08
1.58255818871e-08
9.93644953452e-09
2.91565959115e-08
1.05233406846e-07
1.3933792541e-08
4.58857748286e-09
1.07748341839e-08
1.10435560415e-08
2.94281284557e-08
4.76717245705e-08
8.44229512408e-08
4.3231372604e-08
4.15556980384e-09
5.09792557016e-09
1.03458064235e-08
9.65545275179e-09
6.36029522567e-09
2.46765556359e-08
2.28950908383e-08
1.29146139179e-08
1.29569051998e-08
2.1660862052e-08
4.52235063151e-08
1.34478151452e-07
1.18443467699e-08
1.13993842509e-07
1.59473311795e-09
9.01137507818e-09
2.05611814372e-08
3.01862447255e-08
3.22060892093e-08
6.21869011159e-08
5.92922677435e-08
3.70881857462e-10
3.46726941145e-08
1.06332161315e-08
5.35227808084e-08
9.30117037414e-08
4.34226583877e-08
9.03697441416e-08
8.26686908235e-08
1.34560540613e-08
6.54378061396e-08
1.49784200301e-08
5.75589320859e-09
7.21422318178e-09
6.50970114852e-08
1.84720444429e-08
4.48626415624e-08
8.64109562751e-09
5.15870231353e-08
7.98070022685e-08
7.35095114555e-08
7.62760713215e-09
5.58099128811e-08
1.2070670368e-08
2.95404404151e-08
2.23104540453e-08
6.72074270806e-08
1.1231967813e-08
8.86772104303e-08
1.20106459076e-07
3.87641212399e-08
8.85824597068e-09
1.32909800794e-08
1.63934838442e-08
5.95279414353e-08
1.1461069432e-08
1.71635435332e-08
5.15536641507e-08
2.13462780077e-08
3.65641230867e-08
4.34822547271e-08
1.68814167442e-07
7.60524502971e-09
3.27195051235e-08
1.61841051363e-08
1.90450456599e-08
2.62287434092e-08
7.28501131982e-09
8.73914233658e-09
3.60486700708e-08
1.71246542905e-08
1.11153798798e-08
7.93202969949e-09
2.39771107909e-08
2.9749478817e-08
1.06528959462e-08
3.46146248258e-08
1.82360632844e-08
1.17508819803e-08
1.12753960776e-09
1.9764003706e-08
1.68934487984e-08
3.31466197705e-08
6.81364338373e-09
8.42018346832e-09
2.62337158413e-08
6.39410465801e-10
1.04888964163e-08
1.36418500876e-07
4.37079376268e-09

