# vtk DataFile Version 3.0
File Name: Molecule/sphere_cent/sphere_cent_0-s21.vtk
ASCII
DATASET UNSTRUCTURED_GRID
FIELD FieldData 1
TIME 1 1 double
0.0
POINTS 409 double
0.65410125256 -1.0123274326 -1.5929917097
0.18405708671 -1.0783843994 -1.6742725372
0.35317289829 -0.64395046234 -1.8602620363
1.5541950464 0.73032695055 -1.0251684189
1.2249081135 0.91250109673 -1.2908010483
1.4011006355 1.1363174915 -0.86246013641
-1.7277458906 0.0012122867629 1.0069447756
-1.9077341557 -0.21821774542 0.557053864
-1.6900031567 -0.50924003124 0.93966668844
-0.45966765285 1.9335782528 -0.21878665686
-0.95817112923 1.7511795759 -0.12268763036
-0.55669081211 1.9071727991 0.21831718087
-1.2673040628 1.1663967371 1.0161043406
-1.0538041592 0.90716284513 1.4375156164
-0.82897549868 1.2921956778 1.281419158
-0.61087626219 1.011223197 1.6130262613
-0.50396418571 -1.9204912186 -0.23885183036
-0.5825497508 -1.8876701593 0.31188684702
-0.94309550524 -1.7589310408 -0.12645842135
-0.13726349175 -1.9949070215 -0.026597455144
-0.97092998028 -1.6064924002 0.69048947096
-0.5736131072 -1.7157405615 0.85209900141
-0.85767692327 -1.3774271011 1.1690927744
-1.2685958147 -1.2767829895 0.87177503109
-1.1935471296 -0.989351511 1.2613890171
-0.37366890907 -1.3721476793 1.4059393406
-0.60835558176 -1.0888136625 1.5629411936
-0.14976394176 -1.082716465 1.6745128632
-1.9101712704 -0.1646039933 -0.56467545033
-1.8902565241 0.22900182009 -0.60437643528
-1.7534543276 0.026825888082 -0.96105480194
-1.6919020414 0.49946394563 -0.94192618132
-0.63977777958 0.97253495455 -1.6251161098
-1.0365239382 0.87870836258 -1.467233777
-0.66256165504 1.240486145 -1.4208552837
-0.73770314455 -1.0374356508 -1.5425672531
-0.89359170198 -1.3091119528 -1.2196851969
-1.1676453352 -0.94811826944 -1.317966342
-1.2634129524 -1.2550953627 -0.91010677814
0.76801401377 -1.0316706896 1.5293935537
0.93463289738 -1.3296737671 1.1652984619
1.1822634935 -0.93442380428 1.3139523268
1.339163661 -1.1983953714 0.87661707401
1.0889657736 -1.5194810629 0.70826119184
1.4023141861 -1.3658987284 0.40528863668
1.3809709549 -0.23219263554 1.4256942272
1.3555282354 0.22212666273 1.45332551
1.0428187847 -0.0022119369823 1.7066420317
-0.11036280543 0.047572035342 -1.996303916
-0.48742944002 0.054388657212 -1.938569665
-0.28589069843 0.49516889453 -1.9152271748
0.4284812212 -1.3654860258 -1.3964515924
-0.23938106 -0.36684703827 -1.951320529
0.61700201035 0.033144880086 1.9005100727
0.83892685175 -0.44392049313 1.7587888241
-0.79372280836 0.5965526104 -1.7357798815
0.49290886521 1.9265398979 -0.2065833658
0.5932123065 1.8932936192 0.24908694625
0.91713637114 1.7771282196 0.018382743001
0.92778134346 1.7032008171 0.48739084601
-0.039093136787 0.036442756653 1.9983440638
-0.4600455761 0.052397523075 1.945250392
-0.29787638783 -0.36257329583 1.9437593222
-0.32380700111 1.3742361069 1.415913105
-0.79826080799 0.60183167458 1.731118083
0.52013480663 0.93163329363 1.6909692287
0.059262290597 0.96885448694 1.7473582029
0.26944154501 0.56373536587 1.8990098238
1.9974398613 -0.0076447455212 0.099206984043
1.9265760183 0.52623277903 0.10603744537
1.9153169394 0.31118491292 0.48240566254
1.7651382685 0.79144704342 0.50778323412
1.7342172861 0.99410665035 0.02650170587
1.6575584412 -0.96043038368 -0.57456696033
1.4428236485 -1.3250886202 -0.40240511298
1.356479764 -1.1818089485 -0.8691880703
1.6945607662 -1.0566734076 -0.090347900987
1.8581330776 -0.52991127968 -0.51493155956
1.6108300686 -0.65165215731 -0.98373842239
1.636801362 -0.14733207226 -1.1394633055
1.8157049417 -0.25754109025 -0.79783809185
1.8391140699 0.13335350156 -0.77431303263
1.9528999329 -0.1111696884 -0.41589736938
1.9440959692 0.31965506077 -0.3428388834
1.9517897367 -0.42734181881 -0.085715673864
0.86893922091 -0.62320888042 -1.6891652346
1.6228239536 0.66830050945 0.95837640762
1.4616247416 1.0722185373 0.84419369698
-0.11080549657 -0.79401898384 -1.8322935104
-0.29460191727 -1.0956574678 -1.6469954252
-0.51920604706 -0.7248416543 -1.7902498245
-0.48724353313 -1.3488333225 -1.3929561377
0.017257658765 -1.3640434742 -1.4612629414
-0.6678301692 -0.30728015304 -1.8580136299
-0.90664386749 -0.65312099457 -1.6563140154
1.2394983768 1.4141176939 0.68094956875
1.2575368881 1.5284664631 0.2859570682
1.5400795937 1.2006169558 0.43158781528
-0.11679190397 -1.7443778515 -0.96991920471
0.28198966384 -1.8714537621 -0.64670693874
-0.0706602633 -1.9451304674 -0.46015661955
0.25359067321 -1.9695062637 -0.23696048558
0.60386431217 -1.8672441244 -0.37657788396
-1.3519566059 -1.4711632729 -0.090662047267
-1.145691514 -1.5526987314 -0.52600497007
-1.5045205355 -1.2284986973 -0.47683519125
-1.6811420918 -1.0831891298 0.0086046298966
-1.3560607433 -1.4228070974 0.36947470903
-1.0634278059 -1.6737684011 0.25888440013
-1.7775956392 -0.51254999638 -0.7591702342
-1.8952387571 -0.6120620966 -0.17117759585
-1.7422335148 -0.85586321354 -0.48118504882
-1.9174491167 -0.40677547455 -0.39523473382
-1.5489413738 -0.90055835247 -0.88866776228
-1.5905324221 -0.56050413847 -1.0749566555
1.7907617092 0.54079294205 -0.70753443241
1.8493036032 0.70172590017 -0.29589232802
1.6680772305 0.91634690762 -0.61150443554
-0.99295467138 1.6329641342 -0.58931845427
-1.320104599 1.4507477283 -0.38341510296
-1.5522158146 -1.1417529583 0.53602987528
-1.7311257124 -0.84514224529 0.53708571196
-1.5177381039 -0.93030256033 0.91153305769
-1.4733886719 0.3093752861 -1.3164403439
-1.249166131 1.0696367025 -1.1382049322
-0.88512527943 1.2782462835 -1.2520110607
-1.2154922485 1.3779093027 -0.78958469629
-1.3881877661 0.69905823469 -1.2586576939
-1.5322217941 0.85194611549 -0.9622926712
-1.4542502165 1.1071844101 -0.81163954735
-1.1807463169 0.46897131205 -1.5446865559
-1.1758964062 -0.068351566792 -1.6151703596
-1.5962562561 1.1234377623 -0.43175911903
-1.6963140965 0.85260105133 -0.62926924229
-1.6713306904 1.0948843956 0.075646802783
-1.8211884499 0.80126452446 -0.2033816874
1.3961650133 1.3730591536 -0.40407520533
1.2370769978 1.5669051409 -0.12062358856
1.4814174175 1.3427371979 0.048647139221
1.0358431339 1.638204813 -0.49152284861
1.6449198723 0.29648190737 -1.0982170105
1.3845024109 0.42547231913 -1.3791153431
1.4096062183 0.022213144228 -1.4186979532
0.99165809155 0.10617911816 -1.7329602242
-1.8617485762 0.68493193388 0.23105840385
-1.7289026976 0.85966020823 0.52098655701
-1.7777180672 0.53181898594 0.74281352758
-1.5708622932 0.86495780945 0.88551533222
-1.0511639118 1.6702404022 0.32382035255
-0.90333670378 1.6521918774 0.67375427485
-1.2064043283 1.4434845448 0.67894428968
-1.3119097948 1.5040450096 0.058508824557
-1.3844436407 1.4008103609 0.34782889485
-0.89427709579 1.5102175474 0.95802009106
-1.3820682764 0.72024357319 1.2533657551
-1.6144317389 0.49389371276 1.0715447664
-1.5239787102 1.1613539457 0.57302939892
1.3702118397 -0.39571359754 -1.3996878862
0.65277433395 -0.28014394641 -1.8697398901
0.51877349615 0.043109253049 -1.9309369326
0.22282412648 -0.19940184057 -1.9775736332
0.1944591701 0.2591329515 -1.9735862017
0.87287580967 0.91253590584 -1.550790906
0.84322243929 1.304418087 -1.2586587667
0.50936019421 1.1187913418 -1.5771517754
0.49558648467 0.7750621438 -1.7757245302
1.0941097736 0.56565648317 -1.57573843
0.81257480383 0.56468528509 -1.7380716801
-0.52000850439 -0.72153794765 1.7912564278
-0.69253730774 -0.30297911167 1.8516163826
-0.90586280823 -0.55727815628 1.6932892799
-1.136652112 -0.072810016572 1.6438217163
-1.9469438791 0.43497812748 -0.13878124952
-1.8491470814 0.57282912731 -0.5020917058
0.5656862855 0.38226208091 -1.8799331188
0.1746121645 0.62440735102 -1.8918972015
0.056372597814 0.99127840996 -1.7347595692
-1.4536944628 0.21452525258 1.3566229343
-1.4716054201 -0.2501296401 1.3308128119
-1.1784082651 0.46197709441 1.548610568
-0.77658414841 -1.7684167624 -0.51906609535
-0.38630738854 -1.8585470915 -0.63025474548
-0.59147697687 -1.7198345661 -0.83192259073
-0.92200112343 -1.5403693914 -0.88147068024
-1.4210385084 -0.6731697917 1.2359740734
-1.2254834175 -0.47593304515 1.5070548058
-1.0681527853 -0.76583844423 1.5067722797
-0.58044439554 -1.5589864254 -1.1106826067
1.9157910347 -0.11780405045 0.56169527769
1.9183536768 -0.44484874606 0.34870120883
1.805855751 -0.45075562596 0.73180645704
1.7419799566 -0.1183815822 0.97461104393
1.7483699322 -0.80686211586 0.53792870045
1.8373132944 -0.75497949123 -0.23264583945
1.8594921827 -0.72564166784 0.12531000376
0.24165962636 -1.1137552261 1.6428967714
0.08682616055 -1.3773360252 1.4474381208
0.49262991548 -1.385848999 1.3552019596
0.22311732173 -1.6528412104 1.1035971642
-0.6911585331 1.8122780323 -0.48765739799
-0.58451223373 1.7248238325 -0.82652229071
-0.33761936426 1.8632980585 -0.64333492517
-0.14479647577 1.7233134508 -1.0019779205
0.48899707198 -1.9190950394 0.27768796682
0.69001358747 -1.8036017418 0.51701104641
0.37568351626 -1.834155798 0.70321625471
0.64994901419 -1.6405104399 0.94156688452
-0.50983244181 1.5710016489 -1.1266354322
-0.86170768738 1.542214036 -0.93746167421
0.10426326841 -0.8097550869 1.8256078959
-0.17227704823 -0.72617650032 1.8553922176
0.030890597031 -0.51267743111 1.9328074455
0.38416177034 -0.52004307508 1.8922913074
0.17878580093 -0.23452502489 1.9777113199
-1.9483801126 -0.41012129188 0.17922222614
-1.8581181765 -0.55394417048 0.48962888122
-1.8551309109 -0.72339785099 0.18729908764
-0.20336219668 1.7265794277 0.98842275143
-0.3521027565 1.8583140373 0.64984881878
-0.57618677616 1.7191888094 0.84391492605
-0.68094056845 1.8009591103 0.54106152058
-0.54312217236 1.5578556061 1.1304649115
-1.6352366209 -0.27633488178 -1.1178699732
-1.4255464077 -0.34878456593 -1.3591167927
-1.4935030937 -0.057058289647 -1.3290218115
-1.2190699577 -0.52239090204 -1.4971077442
-1.3998959064 -0.67790865898 -1.2572499514
0.030826281756 1.9124957323 0.58034521341
-1.9948722124 -0.047461878508 0.010932892561
-1.9828742743 0.072173938155 0.23157814145
0.8647313118 1.3748573065 1.1670405865
1.0338509083 1.1129673719 1.3008996248
1.1637592316 1.2615866661 1.0266011953
1.3313179016 0.95592862368 1.1463307142
[...]
CELL_DATA 814
SCALARS cell_data_0 double
LOOKUP_TABLE default
6.01817626817e-08
1.28045563197e-08
8.16708434128e-08
7.40495188885e-08
1.58318452581e-08
2.55158423788e-08
6.19009260837e-08
3.81218349907e-08
3.96874040325e-08
2.00110425724e-08
4.83246720719e-08
1.58634178266e-08
4.47511352019e-08
1.23053402225e-08
1.36453747735e-08
1.53080350982e-08
3.30902147203e-08
1.35930125758e-09
3.14760963899e-08
4.10451944558e-08
8.20553793536e-08
5.53236181843e-08
4.30986080511e-08
4.17573257825e-08
1.3566051926e-08
3.65094612266e-08
3.95111441626e-08
4.07018388015e-08
2.31171392678e-08
1.54422183615e-08
4.26965146372e-08
5.17902091819e-09
5.15445972803e-08
5.69199555537e-09
5.93032389751e-08
1.95246979925e-08
2.82080641096e-08
5.59030919437e-08
6.7588636534e-08
3.39601503863e-08
7.97269381644e-08
8.45257869477e-09
1.82995967699e-08
4.04721053993e-08
2.47645319199e-08
7.63924826725e-09
3.8841942466e-08
2.65816871113e-08
4.87348795502e-08
7.48400326011e-08
7.24482105855e-08
7.38017948649e-08
2.13132419096e-08
4.86498428711e-08
1.75209018709e-08
3.60145829876e-08
4.68280548829e-10
4.06397270613e-08
2.15576697081e-09
2.61127184491e-08
6.56838341469e-09
7.58250518221e-09
4.78543136135e-08
3.68323980238e-08
3.24816667281e-08
6.1799398229e-08
2.29377025997e-08
2.48905245306e-09
7.02055266799e-10
1.30625760264e-08
5.0194219792e-09
4.51476507696e-08
1.08228041035e-08
2.55830407672e-08
4.90542427815e-09
6.49313468001e-08
3.41268999589e-08
1.55075429283e-09
3.18569892482e-08
3.09260696706e-08
6.23733701248e-08
5.85556819086e-08
2.86610108528e-08
4.17288831221e-08
7.58030248445e-08
1.25027058094e-09
1.19375243191e-08
3.06404543113e-08
3.24279004244e-08
3.70839207834e-08
3.01781055987e-08
1.42604478397e-08
3.74173304083e-09
3.71749621126e-09
2.18326115045e-08
5.32836994027e-09
8.3318187152e-09
1.34408804138e-08
8.99152068119e-09
8.97893203331e-10
1.35505094624e-08
3.2205739028e-08
3.6975256073e-08
2.25195964854e-08
1.10151038352e-08
2.94332562537e-08
7.31607272572e-09
1.60782698678e-08
1.77686666227e-08
7.61202869477e-08
3.99676560029e-09
1.58329503376e-10
1.61719704044e-08
2.20960183038e-08
3.38026605517e-08
2.12781977758e-08
3.30710749712e-08
6.14621417779e-09
4.86555144028e-08
2.93371642771e-08
4.33985450963e-08
1.33594942859e-08
4.03273365432e-08
3.09077150254e-08
4.39500037737e-09
3.3652894848e-08
2.14677096808e-08
1.1768669155e-08
4.34454833479e-09
3.33134488424e-08
1.37499388064e-08
1.14335187552e-09
1.25804993439e-08
8.63617366923e-09
5.49523357264e-08
5.68568565295e-08
1.58172281413e-08
2.04936409414e-08
4.99010729108e-09
1.97449036884e-08
4.36041581652e-09
4.63911619924e-09
1.53428690806e-09
8.51667851161e-08
1.58727056097e-08
1.5913065688e-08
5.38014212227e-09
7.79028191969e-08
1.12252836864e-08
1.7432423038e-09
2.0198482715e-08
3.95956950783e-08
1.84151084397e-08
2.32350879481e-08
1.94774264264e-08
3.23163908056e-08
2.60638302408e-08
4.30847646089e-08
1.28769533613e-08
3.5581277098e-08
9.0682730555e-09
6.66194519687e-09
1.55802500889e-09
2.85173693274e-08
5.22292872089e-08
1.40743000119e-09
1.84583309274e-08
3.33584938317e-09
2.61751798832e-08
9.66572073706e-08
2.2786904256e-08
2.16910990523e-08
3.80322808568e-09
2.53581025239e-08
1.50288923233e-08
7.44966545416e-09
9.36958364792e-09
1.14515493521e-08
6.61426947029e-08
5.77110338477e-08
8.76082370314e-09
2.01580752151e-08
3.46513321267e-08
3.0051576985e-08
2.02826158992e-08
2.86162647983e-08
7.05172970126e-09
2.48240596378e-08
1.79436480374e-09
8.83283785696e-09
2.23452404592e-08
2.79412201958e-09
3.70191525569e-08
1.14043107343e-08
2.82689470575e-09
3.86906174468e-08
9.71361790071e-09
2.00827766602e-08
4.54217977233e-08
1.32668480792e-08
5.41429032226e-08
6.6874681956e-09
4.70876415189e-08
2.13034448922e-08
5.38838314505e-08
4.09385130045e-08
1.79692058995e-08
2.42217766006e-08
1.78979436077e-08
5.15083562539e-08
2.08703723568e-08
1.33673891468e-08
1.49414616009e-08
3.36308634499e-08
3.71730380365e-09
5.16007935584e-09
1.71178525157e-08
6.07006553961e-09
1.17310491567e-08
2.80784750572e-09
5.21219799115e-09
3.99910820805e-09
3.0799942426e-09
1.8262080381e-08
8.73655762166e-09
3.10051557847e-08
2.31380079846e-08
4.24271601806e-10
2.62385554957e-08
2.97998058822e-08
1.08441392582e-08
2.31539647734e-08
8.49489917484e-09
1.75472680933e-08
1.15291285626e-08
1.7189752998e-10
1.89363335746e-08
3.53759925358e-08
2.22337295781e-08
2.05684202634e-08
1.40375151664e-08
2.01083166197e-09
1.45324249504e-08
7.84699634081e-09
7.511703794e-09
1.08717980782e-08
2.08745789755e-08
2.22856130145e-08
1.63074215281e-08
2.04748232019e-09
1.91361647756e-09
1.73219004473e-08
9.94426996359e-09
3.96506244948e-09
2.8518147006e-08
2.09052255739e-08
3.51328824722e-08
1.22355026969e-08
7.92356000449e-09
1.18193176214e-08
3.75812831725e-08
8.38874614173e-08
5.70957039723e-08
6.16679329494e-08
1.1087157013e-08
2.54066165118e-09
4.8843526286e-08
4.72231724931e-08
4.13011923031e-08
5.01972390484e-08
2.69336683718e-08
2.81015066068e-08
3.30938399554e-08
1.55477570215e-08
3.24216839107e-08
2.35081546851e-08
1.40311369085e-08
8.39794799467e-09
1.24260592379e-10
1.91231355629e-08
1.09439450079e-09
5.91696572707e-09
1.10456825157e-08
1.73366330798e-08
2.90672132891e-09
1.34480766196e-08
1.39005373097e-08
4.33534705472e-09
2.29672205043e-08
2.01974252081e-08
2.50735647372e-08
1.0422689331e-08
9.6364536596e-09
1.39707251855e-08
3.29345389577e-09
1.60896167062e-08
3.18281887147e-08
4.69186803835e-08
1.26018070458e-08
2.50781521603e-08
2.04013263563e-08
3.30004932204e-08
5.56642103041e-08
1.6000114508e-08
5.44995859698e-08
3.00904982765e-08
7.92569484914e-09
3.31401155916e-09
1.47401648833e-08
5.92995947475e-09
1.08579548868e-08
2.31616216539e-08
3.05918773728e-08
2.30388206207e-08
1.49386208871e-08
5.21122080402e-10
3.07388512975e-08
1.74770330352e-08
1.47516113253e-09
1.4240972604e-08
1.41908728438e-08
4.71499709667e-09
7.01908054167e-10
2.84754423571e-09
6.31043751294e-10
1.56983242951e-08
1.9150055753e-08
7.38071141348e-09
7.29848714705e-10
1.46397131333e-08
5.56637282615e-09
3.88618788189e-09
1.50181920184e-09
1.03791226727e-08
1.78732930891e-09
2.94939381688e-08
1.27801366801e-08
3.18260671232e-08
1.38629121049e-08
1.78150732084e-08
2.44387486365e-08
1.50496269529e-08
2.50773469251e-08
3.39295572461e-08
3.45559077719e-08
2.44914927276e-08
1.29021611559e-09
6.99837667206e-09
7.67777850271e-09
4.57645414103e-10
3.81783812131e-09
9.32277763602e-10
7.17867249325e-09
4.60553608681e-08
2.39086751008e-08
2.22054931149e-08
1.89889251358e-08
4.3245110861e-08
4.30288883225e-08
1.569732962e-08
3.8799083818e-08
7.51204958657e-08
6.51597083498e-09
1.44270535188e-08
2.07512031319e-08
1.55824691688e-08
3.30399895804e-09
1.58317464715e-08
6.66318225932e-09
1.50543068302e-08
9.3084582835e-10
1.064758225e-08
3.26257935058e-09
2.08924134218e-09
2.85745524241e-09
8.10397469116e-09
1.34278480121e-09
1.94785632785e-08
2.13855113982e-09
7.84172769966e-10
3.65971318826e-09
5.69588021553e-09
3.62318942409e-09
2.69835227688e-09
9.82803328642e-09
1.47331326824e-08
1.45655281716e-08
8.75810579308e-09
1.19875843364e-08
5.32297091672e-09
6.59550582369e-09
6.37266820905e-09
7.2881040911e-09
1.1851251389e-08
2.05815141469e-09
1.34558293233e-08
4.89918969102e-09
2.21060249891e-08
2.48693047394e-09
1.19471913726e-08
3.10882237693e-08
2.04252454785e-09
4.32937327122e-08
8.12506627458e-09
3.10568802635e-09
3.11292176906e-08
2.13607531142e-08
1.63843047986e-08
7.97911762832e-09
7.92827178598e-10
2.02200941229e-08
2.48804741947e-08
3.23298971498e-09
9.26680900318e-10
6.87244441947e-09
9.85197761994e-09
3.90892825906e-09
2.54277748332e-08
1.2195443093e-09
1.78086167016e-08
2.09984439881e-08
3.02279963383e-08
2.20130379599e-08
2.38158455397e-08
1.02655540388e-09
3.13775598477e-08
1.78592829498e-08
8.87172954167e-09
8.05297731906e-09
1.08950884516e-08
6.38448913685e-09
1.81358293943e-08
6.23510424342e-09
5.14841441026e-09
1.63782549963e-08
1.55642298813e-08
2.96355580224e-08
1.89762400783e-08
1.70943090115e-08
2.10734643753e-08
1.94482884732e-08
5.00160500881e-09
4.88200137039e-08
1.68538663188e-09
9.77452646378e-09
2.06943827096e-08
1.85114313979e-08
2.97253452327e-08
1.84534687173e-08
1.33780368248e-08
1.06595605224e-08
2.92854036965e-08
1.46328233048e-08
1.69510808068e-08
2.62850967361e-09
7.45846770398e-09
3.57748972471e-09
4.01019847195e-09
7.08521534135e-09
1.24483702402e-08
5.79620319341e-09
1.25554545027e-08
5.67182658043e-09
2.20506733201e-09
1.12021830295e-09
1.84616866355e-08
6.53404509466e-09
1.07623942623e-09
2.10849758538e-08
2.01700469698e-08
1.26261300706e-08
1.020977677e-08
1.57133831625e-08
5.42953304014e-09
1.29007579215e-08
3.15270787865e-09
1.65321923199e-08
2.71679844743e-09
1.62118170644e-08
1.6363981116e-08
1.82961735803e-08
1.80067439193e-08
8.60435085072e-09
4.95104212337e-09
8.73526553265e-10
3.21782255436e-09
7.48813652004e-09
1.09057359237e-08
1.06456549436e-08
5.03473572053e-09
5.27456334955e-10
4.04459151919e-08
5.49961249032e-09
2.28425576878e-09
7.84952889517e-09
7.84728029555e-09
2.92542709607e-09
9.50577113526e-09
4.97267976699e-09
2.17473189566e-08
9.66633332282e-09
1.75875549123e-09
6.95205344764e-09
1.10601231321e-08
4.35320569962e-09
4.14067199103e-09
1.27353400782e-08
2.12702304332e-08
3.6003959226e-09
1.10244445404e-08
1.44353469819e-08
1.20617451698e-08
7.91422991306e-10
1.09181589767e-08
1.42549663608e-08
1.55250454033e-08
1.26579657751e-08
1.46993273815e-08
2.89573591622e-09
7.03130610471e-09
1.34439001164e-10
9.89566597604e-09
4.5448780202e-09
3.00367690974e-08
1.60610983733e-08
1.40340514455e-08
1.86785235534e-08
4.46248051632e-09
1.16261851674e-08
3.87743305685e-08
1.7060868655e-08
2.87652245934e-09
5.25507717528e-09
4.542043709e-09
1.03600044274e-08
1.59678203665e-08
1.9187404634e-08
2.88989527063e-09
1.08810796187e-08
5.65476803012e-09
1.97616883061e-08
5.53023278862e-09
1.11629483261e-08
1.58126769084e-09
2.8538754148e-08
1.07811521881e-08
1.8359354342e-08
3.41260434607e-09
1.03706576704e-08
5.91601097549e-10
1.07705162641e-08
6.53070459058e-09
1.42589424658e-08
4.50082796917e-09
1.91903003996e-09
1.28437491138e-08
6.91808988375e-09
6.13495442232e-09
6.84206026017e-09
4.11269937879e-09
1.70146261191e-08
1.00839500213e-08
1.43096160623e-09
1.07138363569e-08
9.29704254059e-09
5.17345399818e-10
3.24524245036e-09
1.76750751253e-08
5.73196429264e-09
6.43950842332e-09
3.22118060481e-09
6.53506287056e-10
9.03328760732e-09
3.64857317221e-09
8.58165329954e-09
1.7552541985e-08
1.4747896661e-08
6.77090246849e-09
1.37721538271e-08
6.42955954729e-09
3.21557728361e-09
1.01630372685e-09
1.84666952749e-08
1.58047405263e-08
1.15117086117e-08
8.60505482783e-09
3.20069482331e-08
1.04648121306e-08
1.55029678123e-08
1.25566098816e-09
1.6686556908e-08
8.93438772532e-09
1.75942869326e-08
7.56560881977e-09
2.62555790031e-09
7.76425359727e-10
4.05653976567e-08
2.06162873025e-09
7.14246964078e-09
9.1666101615e-09
6.30819725033e-09
6.80783427221e-09
1.1386611895e-08
4.14259467422e-09
1.53241630606e-08
2.21165847446e-09
2.12760015437e-08
8.38545329854e-09
7.85874378321e-09
2.16123048623e-08
1.83365359033e-08
1.10155964225e-09
6.28312857735e-09
6.08335395096e-09
2.54653183325e-08
2.64933956763e-10
3.08497859445e-08
6.18957713829e-09
4.28361859055e-09
1.51687278156e-11
8.59781128159e-10
8.67131496136e-09
4.22478617717e-09
2.08360785168e-08
6.29025216128e-09
2.12242978934e-09
3.26476842161e-09
7.88941839018e-09
2.77758355793e-08
2.88255743734e-08
8.79336091063e-09
2.16473943537e-08
3.27851970324e-10
1.26936719743e-08
7.75942855751e-09
6.35848378167e-09
1.18982419239e-08
3.32340677666e-09
1.04275254758e-08
8.94817524818e-09
8.9397860029e-09
5.16112859723e-09
8.50036024469e-09
7.22286920014e-09
4.77299176115e-09
1.75703238691e-09
3.25425908506e-09
2.95604082498e-09
3.03284312154e-08
1.37468988461e-08
7.02788806495e-09
5.1119300826e-08
7.72283365171e-09
6.12795550642e-10
3.71961631219e-09
1.4441697311e-09
1.12375584848e-08
3.12290141764e-10
1.87411851673e-08
1.02719226668e-08
1.0407250578e-08
2.0340016025e-09
7.08165032906e-09
1.50977437224e-08
6.22321951951e-09
1.04964413036e-08
3.63806145766e-08
3.61475429313e-09
1.01856460314e-08
5.43484371595e-09
5.45293173394e-09
4.50530157843e-09
5.60357423962e-09
1.01380448408e-08
1.55319452284e-08
5.75930256648e-09
1.18949322279e-08
1.66340352722e-08
4.20353149034e-09
3.40562649368e-09
8.37201853441e-10
2.73884965043e-08
5.13092785648e-10
8.00827870326e-08
5.54618535914e-09
1.70500128383e-08
1.09229339521e-08
9.16480919653e-09
1.14257419269e-08
8.71313661245e-09
2.78915737933e-08
1.67925021402e-08
1.44468322739e-09
1.40596731277e-08
2.73846663767e-08
1.69622444118e-08
8.5059839351e-09
1.36619684544e-09
1.39729878249e-08
1.63838927087e-09
2.16272377101e-08
1.13786078876e-08
2.75534775407e-09
3.3438489994e-09
7.92712920402e-09
1.2017775988e-08
1.80885007138e-08
1.99501616968e-10
1.5170275966e-08
5.81698867988e-09
6.71541926333e-08
7.37728787945e-10
2.86148226791e-08
2.40926566248e-08
3.32224288008e-09
3.23727451849e-08
9.83522612247e-09
1.79269215697e-08
7.78629367294e-09
1.82341921751e-09
8.0008679252e-09
7.43217319572e-09
4.732823795e-09
1.33388495844e-08
1.49259631547e-09
1.27006225408e-08
1.25062273087e-08
4.38204574639e-09
6.90959656576e-09
1.41451973239e-08
1.05384962514e-09
2.80760807849e-09
1.1338747683e-08
3.288001741e-09
7.13590725351e-09
6.62344542679e-09
8.64507080641e-09
1.65456567913e-09
3.61909951213e-09
1.35742359801e-08
2.46863584159e-09
9.10177019329e-09
1.49052894015e-08
1.14440879324e-09
2.44569996093e-08
1.55222708629e-09
9.3506719706e-10
2.18838363792e-09
1.80335787165e-08
2.03005115611e-08
3.556345247e-09
7.36710522106e-09
1.04389744844e-08
2.32409688684e-09
1.89553343082e-08
1.32077989421e-08
5.13488826469e-09
5.01565648615e-09
7.88702972974e-09
5.27750849941e-09
1.54251070857e-09
8.04081305827e-09
1.22371468544e-08
2.4559647807e-09
8.57739033161e-10
1.19015865677e-08
1.52932699365e-08
1.65750968961e-08
3.13330406048e-09
1.92611958819e-09
2.66522608842e-09
1.72304772809e-09
5.42255197636e-09
2.94861150091e-09
3.32459141582e-09
8.83541597392e-09
1.02644328833e-09
6.95298643007e-10
2.15286504063e-09
1.62176588709e-09
2.06286402914e-09
7.10982987687e-09
6.85570940108e-09
9.00335149789e-09
2.18289854443e-09
3.99675039305e-09
7.67611051672e-09
4.5794243153e-09
8.89405849086e-09
7.42966785726e-09
1.00486030898e-08
1.65647810474e-08
7.01253897514e-09
3.74111644441e-09
5.53618754023e-10
2.90475855755e-09
5.81997595086e-09
1.75214605981e-09
8.96083290631e-09
4.7887356154e-09
3.10961499819e-09
1.48092518314e-08
8.70748364437e-10
3.17231248903e-09
4.31465774923e-08
8.78431494362e-09
4.29697718083e-09
1.71017306733e-08
1.24427122e-09
2.40878780311e-09
1.1094794319e-08
1.18263387849e-08
7.1270683638e-09
3.62578593627e-10

