# vtk DataFile Version 3.0
File Name: Molecule/sphere_cent/sphere_cent_0-s20.vtk
ASCII
DATASET UNSTRUCTURED_GRID
FIELD FieldData 1
TIME 1 1 double
0.0
POINTS 367 double
0.68352901936 -1.0211424828 -1.5779650211
0.18119965494 -1.0807840824 -1.6730146408
0.35274475813 -0.63988596201 -1.8617764711
1.5541008711 0.72955334187 -1.0257095098
1.2239470482 0.90912997723 -1.2939659357
1.3911010027 1.147094965 -0.86381500959
-1.9382379055 0.2104717195 0.44501504302
-1.910359025 -0.2284527868 0.54461419582
-1.7376435995 0.016573032364 0.98942106962
-1.9993760586 -0.0011506248266 -0.010399840772
-1.6846410036 -0.51511365175 0.94589740038
-0.44971042871 1.9347429276 -0.22777691483
-0.96115076542 1.7495865822 -0.11926900595
-0.54115259647 1.9102530479 0.22751484811
-1.272783041 1.1673654318 1.0078991652
-1.0596549511 0.90589094162 1.4336743355
-0.83046984673 1.2988538742 1.2733441591
-0.58947974443 1.0016064644 1.6262396574
-0.50189936161 -1.9205777645 -0.2417679131
-0.582490623 -1.8879282475 0.31043082476
-0.94619470835 -1.7574529648 -0.12300046533
-0.12776593864 -1.9952923059 -0.01070344355
-0.96945244074 -1.6069537401 0.69129747152
-0.55969583988 -1.7178337574 0.85651278496
-0.86085319519 -1.3753160238 1.1692203283
-1.270493269 -1.2744106054 0.87231868505
-1.184376359 -0.9733248353 1.2808578014
-0.37533786893 -1.3780601025 1.3993343115
-0.62087446451 -1.0806292295 1.5630933046
-0.13859339058 -1.0807406902 1.6765333414
-1.9144256115 -0.17335382104 -0.54406321049
-1.9022948742 0.22892352939 -0.57293814421
-1.7489824295 0.022684723139 -0.96875751019
-1.6884309053 0.50288504362 -0.9460529685
-0.61669552326 0.97735500336 -1.6298351288
-1.0399874449 0.87278175354 -1.4685320854
-0.84861505032 1.2897468805 -1.2711455822
-0.73728382587 -1.0380961895 -1.5423238277
-0.89353501797 -1.311098814 -1.217538476
-1.1713881493 -0.93979352713 -1.3202354908
-1.267419219 -1.2513383627 -0.90963464975
0.74909502268 -1.0210049152 1.5446583033
0.93098890781 -1.3303924799 1.1672728062
1.179535985 -0.9207547307 1.3253314495
1.351757288 -1.1816462278 0.87845879793
1.0811926126 -1.5354664326 0.6831638813
1.4170917273 -1.3530477285 0.39252710342
1.3846402168 -0.25523424149 1.4165853262
1.3580862284 0.23301255703 1.4489992857
1.0437840223 -0.0015984392958 1.7060465813
0.53140968084 0.93907159567 1.6828970909
0.28166168928 0.53891736269 1.9052807093
0.80530297756 0.49178725481 1.7622796297
0.59642034769 0.050160780549 1.9051311016
0.90692919493 -1.348140955 -1.1661467552
0.42457726598 -1.3796981573 -1.3833552599
1.0337001085 -1.5749652386 -0.66881012917
0.6204059124 -1.6855595112 -0.87486630678
-0.10605053604 0.048135053366 -1.9964262247
-0.49331974983 0.06449573487 -1.9364622831
-0.28656664491 0.52340149879 -1.9062863588
-0.24367411435 -0.36717423797 -1.9506733418
0.85190331936 -0.46215653419 1.7468746901
0.63340711594 -1.854847312 -0.393879354
0.94504076242 -1.7117322683 -0.41501820087
-0.79436504841 0.58421063423 -1.739703536
0.50375384092 1.9210731983 -0.22433483601
0.580966115 1.8955014944 0.25791549683
0.91733187437 1.7769618034 0.021580208093
0.92856705189 1.70096457 0.49318772554
-0.26817321777 0.51193356514 1.9111851454
-0.47060471773 0.059081837535 1.942240715
-0.025425236672 0.054135512561 1.9978410006
-0.30178579688 -0.3733740449 1.9408835173
-0.31180199981 1.3733251095 1.4191945791
-0.78689134121 0.58609521389 1.7421463728
0.040256150067 0.97500228882 1.7435534
1.9972307682 -0.01471073553 0.10163842142
1.9267933369 0.5249106884 0.10870544612
1.9115642309 0.31197708845 0.49551606178
1.7648574114 0.79187750816 0.50808745623
1.7284252644 1.0029939413 0.0063452795148
1.3684455156 -0.42833775282 -1.3923019171
1.5825972557 -0.67524862289 -1.019485116
1.1720092297 -0.90808236599 -1.3422752619
0.88396465778 -0.6086268425 -1.6859881878
1.657176733 -0.96175849438 -0.57339113951
1.3387120962 -1.1869925261 -0.89369660616
1.440754056 -1.3301628828 -0.39333546162
1.6980223656 -1.0523388386 -0.078428164124
1.8608527184 -0.52696734667 -0.5076354146
1.6361137629 -0.14203168452 -1.1411305666
1.8152445555 -0.25393643975 -0.79989165068
1.8373943567 0.13610267639 -0.77784007788
1.9520511627 -0.10610572249 -0.42064967752
1.942606926 0.32430106401 -0.34661355615
1.9507033825 -0.43281555176 -0.081539854407
1.6253452301 0.65328460932 0.96390044689
1.4540143013 1.0727370977 0.85608959198
-0.1139543578 -0.79346549511 -1.8322544098
-0.29558414221 -1.0945959091 -1.6475285292
-0.52080768347 -0.72545856237 -1.789517045
-0.46382948756 -1.3585422039 -1.3904485703
-0.0010667387396 -1.3741414547 -1.4511841536
-0.69604432583 -0.31708535552 -1.8480387926
-0.90572488308 -0.62257456779 -1.6709991693
-1.1584342718 -0.084805265069 -1.6276737452
1.2361366749 1.4149179459 0.68538719416
1.2602000237 1.5258970261 0.28774112463
1.5396521091 1.2001097202 0.43455973268
-0.10832139105 -1.732370615 -0.9907951951
0.28192079067 -1.871212244 -0.64751940966
-0.068232551217 -1.9447026253 -0.46237573028
0.25866886973 -1.9695111513 -0.23145727813
-1.3551591635 -1.468280673 -0.089544713497
-1.1385858059 -1.5561343431 -0.53109109402
-1.5063455105 -1.227003336 -0.47499281168
-1.6835416555 -1.0794858932 0.0075471247546
-1.3585757017 -1.4207231998 0.36823040247
-1.0650880337 -1.6723269224 0.26128652692
-1.7793123722 -0.51521062851 -0.75391197205
-1.8979189396 -0.59563612938 -0.18251387775
-1.7399041653 -0.85873126984 -0.48423498869
-1.92205441 -0.39494338632 -0.38080739975
-1.5500432253 -0.89855736494 -0.88878810406
-1.5882110596 -0.55751639605 -1.0795768499
1.7903686762 0.541893363 -0.7077588439
1.8488615751 0.70316928625 -0.29527533054
1.6644957066 0.93275874853 -0.59330976009
-0.99030607939 1.6333453655 -0.59246790409
-1.3355197906 1.4444572926 -0.35984286666
-1.5555201769 -1.1392520666 0.53172791004
-1.7328568697 -0.84445357323 0.53252220154
-1.5185894966 -0.93110400438 0.90926146507
-1.469112277 0.30955854058 -1.3211721182
-1.246332407 1.0716902018 -1.1393814087
-1.2163659334 1.3788108826 -0.78646421432
-1.3898650408 0.7006739378 -1.2559159994
-1.5335339308 0.85532712936 -0.9570735693
-1.4479618073 1.1132237911 -0.81456518173
-1.1806150675 0.46649819613 -1.5456409454
-1.5889995098 1.1309242249 -0.44210222363
-1.6649878025 1.1060506105 0.054882593453
-1.6979818344 0.85311043262 -0.62322664261
-1.8223965168 0.79871815443 -0.20129987597
1.4115875959 1.3579399586 -0.39778551459
1.2374712229 1.5664861202 -0.12180669606
1.4820843935 1.3419722319 0.049020182341
1.0227129459 1.6427916288 -0.50186449289
1.644436717 0.29721143842 -1.0987567902
1.3838264942 0.42006894946 -1.3814462423
1.4078569412 0.019005225971 -1.4205360413
0.99552845955 0.091567896307 -1.7312235832
-1.6119083166 0.50189065933 1.0717144012
-1.7929486036 0.50595116615 0.72733336687
-1.9508055449 0.42042535543 -0.12363193929
-1.8758199215 0.65105265379 0.23877629638
-1.7295178175 0.85749810934 0.52227669954
-1.5699267387 0.8676841259 0.88472700119
-1.0542240143 1.6680796146 0.32443404198
-0.90002387762 1.6537452936 0.67430853844
-1.2058274746 1.4434722662 0.68011695147
-1.3365534544 1.4870706797 0.028906440362
-1.3851095438 1.4001528025 0.34771969914
-0.88853758574 1.5159702301 0.95414835215
-1.383664608 0.71965378523 1.2518565655
-1.5269982815 1.1608754396 0.56525093317
0.65533947945 -0.27507972717 -1.8696275949
0.5169917345 0.042441371828 -1.9314312935
0.22248916328 -0.20204362273 -1.9773577452
0.19494611025 0.2638092041 -1.9729706049
0.8763563633 0.91129648685 -1.5495460033
0.83776116371 1.3194680214 -1.2456567287
0.51445370913 1.1084233522 -1.5825215578
0.49273392558 0.77101379633 -1.778269887
1.0951273441 0.55769222975 -1.577829957
0.8130761385 0.56403040886 -1.7380273342
-0.5181093812 -0.72193092108 1.7916500568
-0.6956307888 -0.30370026827 1.8503816128
-0.90233331919 -0.56542366743 1.6922544241
-1.1321004629 -0.067128755152 1.6471050978
-1.8482278585 0.57653039694 -0.50144845247
0.57160532475 0.37722218037 -1.8791309595
0.17826418579 0.62250357866 -1.8921663761
0.030128324404 1.0025321245 -1.7279183865
-1.9762403965 -0.083508566022 -0.28832137585
-1.4513601065 0.21910300851 1.3583694696
-1.4664493799 -0.25399082899 1.335481286
-1.1773549318 0.45881229639 1.5503689051
-0.77486556768 -1.7699855566 -0.51623421907
-0.38169273734 -1.857306242 -0.6366443038
-0.59274089336 -1.7188677788 -0.83294892311
-0.92291140556 -1.5382056236 -0.88423806429
-1.4222145081 -0.67499321699 1.233637929
-1.222984314 -0.48105502129 1.5073934793
-1.0576599836 -0.76570099592 1.5141422749
-0.57481640577 -1.5614210367 -1.1102141142
1.9148026705 -0.12117276341 0.56437557936
1.9169019461 -0.44873800874 0.35177201033
1.8033634424 -0.45257261395 0.73680979013
1.7349293232 -0.12261905521 0.98607945442
1.7380007505 -0.81995207071 0.54956877232
1.8378002644 -0.75415748358 -0.23150840402
1.8593109846 -0.72556442022 0.1282492429
0.25633952022 -1.1067682505 1.644849062
0.090581700206 -1.3764669895 1.4480311871
0.48662695289 -1.3874560595 1.3556681871
0.21659912169 -1.6546459198 1.1020576954
-0.69259250164 1.811270833 -0.48925533891
-0.58357596397 1.725050211 -0.82680976391
-0.3316026628 1.8636618853 -0.64531165361
-0.11991617829 1.7214406729 -1.009863615
0.48730266094 -1.9206041098 0.26885432005
0.710503757 -1.7956297398 0.51357549429
0.37818437815 -1.8338251114 0.70277917385
0.64495676756 -1.6434583664 0.93982803822
-0.52053916454 1.5571011305 -1.1414045095
-0.86261510849 1.5433044434 -0.93483483791
-0.4522716403 1.2021446228 -1.530321002
0.10712502897 -0.80565047264 1.8272850513
-0.16764114797 -0.73035746813 1.8541027308
0.026737518609 -0.50595164299 1.9345566034
0.38592997193 -0.50745922327 1.8952190876
0.18767049909 -0.23034776747 1.977175951
-1.9458935261 -0.4254925251 0.17861515284
-1.8572348356 -0.5580201149 0.48888847232
-1.8556694984 -0.72266966105 0.18412169814
-0.19411918521 1.726047039 0.99093431234
-0.34775131941 1.8583385944 0.65206420422
-0.56966710091 1.720885396 0.84484946728
-0.67935997248 1.8017905951 0.54049646854
-0.53415846825 1.5611641407 1.1301025152
-1.6355452538 -0.27691239119 -1.1174008846
-1.4219880104 -0.34578216076 -1.3635959625
[...]
CELL_DATA 730
SCALARS cell_data_0 double
LOOKUP_TABLE default
3.0177760298e-08
4.3679221284e-08
6.11443176098e-08
7.08929454035e-08
5.71105295684e-08
1.11178158306e-08
7.1747729379e-08
3.51191995485e-08
6.57216674363e-08
2.27725105954e-08
7.96275834979e-08
7.75293592262e-09
4.04041056724e-08
2.54024692495e-08
1.78660525813e-08
2.97322352771e-08
1.72907312471e-08
5.18508756233e-09
9.5361058799e-09
2.35756510682e-08
5.92519666292e-09
3.47026488567e-08
6.58642074747e-08
4.89228273463e-08
5.62138593646e-08
3.31438054475e-08
7.52946903769e-08
1.16309742082e-07
4.34751830256e-08
7.08820782636e-08
8.43510691655e-08
3.03790893599e-08
4.66736838517e-09
2.94177447589e-08
6.45183998042e-08
8.8390382307e-08
3.47449146769e-08
1.00616216325e-08
6.33896716321e-09
8.99870527859e-09
2.81876496006e-08
8.1734442766e-08
6.58983495985e-08
1.20558188336e-07
6.46683746023e-08
2.99782338801e-08
2.92072150348e-08
3.71760832508e-08
9.26129553771e-08
6.52987289696e-08
4.78523354723e-08
1.38170043948e-08
1.57174279294e-08
8.50886175745e-08
3.71045138821e-08
3.64756901538e-09
2.21685136746e-08
2.33065488014e-08
6.04185620251e-09
1.35645118344e-08
2.67408745629e-08
3.96225286386e-09
7.83125125831e-09
3.2701931559e-08
2.89655945655e-08
5.27521707594e-08
3.82485468963e-08
1.21426450474e-07
8.82882502891e-08
1.12159392866e-07
1.04600161143e-07
3.21007862123e-08
4.17884243131e-08
2.40774119348e-08
3.51003900419e-08
4.86089256157e-09
4.45807561796e-08
1.13262903941e-08
2.49855870096e-08
6.36594902076e-09
2.12396059924e-08
2.31837071435e-08
9.69374077436e-08
4.68502684998e-08
2.37488913524e-08
5.5284215624e-09
7.14618204989e-08
2.211395855e-08
1.10383867635e-09
1.63436929478e-08
5.13458158576e-08
3.25222237022e-08
5.55727736207e-08
1.48564773916e-09
2.17721971673e-08
1.22271503361e-08
7.89414012747e-08
4.35737870651e-08
4.25514433984e-08
2.7805733626e-08
5.04313672608e-08
2.50944080694e-08
1.35874485631e-08
3.4478484417e-08
2.7953983155e-08
4.54749881612e-08
1.12539918489e-08
2.33782406505e-08
1.75670085815e-08
2.65394599192e-08
2.20285741281e-08
3.60780702677e-08
2.44093671394e-08
1.3064383332e-08
2.0271692541e-08
2.97320990726e-08
2.10123399747e-08
2.87172614963e-08
2.81985128853e-08
4.66192965945e-08
9.11528191784e-10
1.28545172996e-08
3.86201386132e-09
4.07018778392e-08
2.17935179485e-08
2.8409092682e-08
1.73696518409e-08
2.1260068652e-08
1.27300751645e-08
5.02668247202e-08
2.00573239791e-08
8.08706582982e-08
1.0989354317e-08
1.68958506396e-08
1.44714993244e-08
4.30886396681e-08
4.41246172292e-08
1.74731200384e-08
1.97345448293e-08
7.62594511107e-09
8.45217349583e-08
7.34690253779e-09
6.10466853511e-08
3.47930128659e-09
8.02899244891e-08
4.95539592128e-08
4.15047374634e-08
6.79709334598e-09
1.02812410678e-08
2.54812997994e-08
1.83060316245e-08
8.19488186658e-09
6.18967954451e-08
3.72993836518e-08
3.27992602363e-08
4.02014079351e-08
4.27740669544e-09
3.80466110809e-09
3.43086219665e-08
2.57112698632e-08
2.54401050708e-08
4.87199149951e-08
7.26090290565e-09
2.63744524966e-08
1.65304254287e-08
1.78059266994e-08
8.08970864997e-08
3.73658414645e-09
7.45641934754e-09
9.29027242106e-08
9.19161514674e-08
1.70664903373e-08
3.0496716601e-09
3.56442593208e-08
5.05414869563e-09
3.75088806728e-08
4.03880225915e-08
3.09242519003e-08
1.53743262182e-09
2.02749993354e-08
2.01571336671e-08
6.99849312592e-08
1.36727310118e-08
3.99666866505e-08
1.5279180906e-08
3.94392974496e-09
2.99147082945e-08
5.44802678557e-08
1.70732616545e-08
1.99449593373e-08
1.92201942708e-08
3.39859976412e-08
1.2999852614e-08
8.69830635447e-08
2.5993698747e-08
2.00875407247e-08
3.17499993014e-08
1.15659078711e-08
1.5240086966e-08
2.76831263669e-08
5.767981087e-08
5.47417629849e-09
4.70976868106e-09
2.50361757277e-08
1.96783199446e-08
1.37815146333e-08
9.7679106377e-09
1.14963234083e-08
2.36628529051e-10
6.15310152544e-08
5.81365092376e-08
4.07926942059e-09
1.19004451597e-08
7.88344244155e-09
5.93569183299e-09
2.23613360247e-08
3.51441272788e-08
1.16188751412e-08
1.06360157748e-08
2.0792490706e-08
2.24767380867e-08
9.48365000695e-10
1.00266360514e-08
3.97546508931e-08
5.05420014134e-08
4.63605926993e-08
2.03791957271e-08
2.13064418323e-08
3.92534813971e-08
5.57915131687e-09
2.0305933291e-08
5.08656670091e-10
1.54993621335e-08
5.49657051932e-08
1.22306003185e-09
8.56133269044e-08
2.31544557115e-08
3.42573133829e-08
9.33539909919e-09
3.33726050283e-08
1.40714982997e-08
1.51251424077e-08
4.22131404984e-08
2.44900451313e-09
4.40822162153e-08
6.07846631485e-10
3.05754837722e-08
5.39143697808e-09
3.12173323484e-08
2.37028313459e-08
9.23708615439e-09
5.17969867879e-09
2.15049565703e-08
2.41728644501e-08
4.26086210742e-09
1.77614808747e-08
5.73338567239e-09
2.79974178874e-10
3.27949192725e-08
1.47033327989e-08
2.30525125918e-08
6.74080324687e-10
2.31500889853e-08
5.08888035809e-09
2.17554609871e-08
5.40937831059e-08
2.86172891975e-08
4.38319023668e-08
1.5792324868e-08
3.2141763504e-09
1.78552146627e-09
2.36199038446e-08
1.73459125977e-08
5.16715266947e-08
3.66742059942e-08
3.00895554903e-08
3.37124173235e-08
3.74420819754e-08
2.78872742419e-08
1.43577557499e-08
5.14578098293e-09
6.32400207391e-09
2.51401641694e-09
1.9131557681e-08
1.10912839058e-08
1.34339696184e-09
3.8038557932e-09
9.47528040695e-09
5.76429542287e-09
3.37258433336e-08
1.71507426323e-08
1.16386255354e-08
2.84194299179e-08
1.33530185357e-08
2.70914270953e-08
1.14054954165e-08
2.61984155398e-08
8.26556917779e-08
2.47535937314e-08
3.85400243238e-08
1.00203374843e-07
3.85113302056e-08
1.20107050026e-08
3.93354577426e-08
2.72295999662e-08
3.68110377212e-09
7.56272493084e-09
1.44092919399e-08
1.1906370144e-08
1.43661380719e-08
7.04116009408e-09
2.17418382274e-08
1.89447467377e-08
1.99602687879e-08
4.59362545691e-09
4.04219744105e-09
2.36263952349e-08
3.16452771236e-09
1.85181013877e-09
8.06188723981e-09
3.10154080247e-08
4.24877167003e-08
7.37417404676e-09
2.56956572454e-08
7.99583193264e-09
1.89457717399e-08
1.74781737367e-08
1.78182912342e-08
1.28612970271e-08
7.0935293185e-09
1.22618598158e-08
1.69025982541e-08
1.41412280636e-08
3.50282356613e-08
2.82055900575e-08
1.59564908463e-08
1.79932596756e-08
3.18560502993e-08
8.5492269543e-08
9.80943446419e-09
2.46919547113e-08
1.72584107511e-08
2.78075214528e-08
1.68945729202e-08
2.97742940911e-08
1.81600133893e-08
8.31164995315e-09
2.88501295634e-08
2.43921859521e-08
3.97748777542e-08
1.83472621421e-08
3.00876921405e-08
5.78267368702e-08
1.97720815713e-08
1.37317584579e-08
9.30786634527e-09
2.19700836477e-08
1.00488641943e-08
9.88086352506e-09
3.07398206363e-09
1.77716658081e-08
1.0353856841e-08
1.59645481012e-08
2.50355655896e-08
4.00504145138e-09
1.92805194605e-09
1.62933244833e-08
3.01771863437e-08
1.18786069829e-09
1.58539355165e-08
4.0930097381e-09
4.09122636115e-08
2.32732575614e-08
1.85741814273e-08
4.29835436655e-09
2.81024653992e-08
1.60737200179e-08
7.45858573951e-09
2.04675092683e-09
1.60877384373e-08
3.82687491971e-09
1.12008940004e-08
2.99804566426e-08
1.30891327534e-08
2.6579511397e-09
2.52904217853e-09
4.57761519312e-09
1.06838819979e-08
5.73601228977e-09
1.64656837551e-08
1.80874473711e-08
2.160667758e-08
1.50249137172e-08
4.51199427267e-09
2.57629866195e-08
2.90043914355e-08
2.49011059049e-08
6.90023741026e-09
2.93733735892e-08
5.06440537073e-08
2.16526472193e-08
3.57313745629e-08
6.81618989047e-09
1.27771527369e-09
4.80659650374e-09
8.322488393e-09
1.17455461135e-08
3.04869200615e-08
6.78973588751e-09
2.78040238785e-08
1.41321333063e-08
1.31774251291e-08
9.00669954034e-09
2.87957485013e-08
1.4117209345e-08
1.37016964794e-08
2.60061887695e-09
1.6849439933e-08
1.73890178994e-08
1.53698077041e-08
3.00595701005e-10
9.64249848565e-09
2.10180284552e-08
1.26481372873e-08
2.25319478882e-08
6.15278312322e-10
4.09910903446e-09
1.52296611115e-08
8.92987747404e-09
2.8241239313e-09
3.23001737076e-09
3.52014379095e-09
9.49733963744e-09
5.22994450149e-09
1.85896426723e-09
1.82930190748e-09
2.65427334546e-09
2.52866872187e-08
1.26712810301e-09
1.65631108871e-08
1.44436035653e-08
3.27473065343e-08
9.38329074193e-10
6.94541418305e-09
2.10902109446e-08
2.50151258782e-08
6.33888247936e-09
1.73146314539e-09
5.81961105354e-09
1.13229553836e-08
6.25509102028e-09
1.32045058041e-08
3.10423175584e-09
2.81053242141e-08
5.19567885187e-09
2.50031491044e-09
1.86396574085e-08
1.04965636149e-08
2.41154897679e-08
4.10837430644e-08
1.20790448252e-08
1.3826484041e-08
2.19264552461e-08
1.62301813776e-09
2.62707430288e-08
2.68990213457e-08
2.00036781052e-08
9.38304745272e-10
1.61281351304e-08
4.08007617296e-09
1.37669962857e-08
6.32604830854e-09
3.82904716671e-09
2.15889110518e-08
3.31175993752e-08
4.24924743673e-08
7.79383959272e-10
5.93291668912e-09
1.46994632341e-08
1.20406821627e-08
2.89960696246e-08
7.04865913965e-09
1.46799635176e-08
5.84445999274e-09
1.15778734567e-08
1.55697520389e-09
3.15700922791e-08
1.56944358139e-08
1.47451722417e-08
2.37539158325e-09
5.24484945855e-09
5.75722431405e-10
1.26144730394e-08
9.06266064799e-09
3.91016164639e-09
1.14367914342e-08
1.7415773608e-08
1.01352341656e-08
1.67312497198e-09
1.11287859209e-09
2.61166036421e-08
3.11708976849e-09
4.58791715676e-09
6.12351280985e-09
1.87685500341e-08
4.46501100509e-10
1.22263148741e-08
2.31123891432e-08
2.67072616473e-08
1.44938460124e-08
8.86272386659e-09
1.50187649308e-08
1.46805679518e-08
1.32755531057e-08
3.56880696262e-09
1.73290412511e-08
6.76525216902e-09
2.81694539984e-08
1.1395582664e-08
2.23472152179e-08
2.33006322775e-08
6.34104893577e-09
2.42227175916e-08
2.7285488166e-09
1.02042166369e-08
4.92979459338e-09
2.48454753866e-08
6.96810160897e-09
1.10643990702e-08
5.1954956854e-09
3.57672731086e-08
4.33551372726e-08
8.59492570799e-10
1.09255703981e-08
8.23203238543e-09
1.20919364706e-08
1.28106109182e-08
2.74919910786e-08
1.4735400164e-08
1.50115312442e-09
1.22073343154e-08
2.17312526816e-09
1.58054775901e-08
2.32827709065e-08
3.36497359759e-09
1.03327503695e-09
9.16954024053e-09
1.68624345901e-08
3.20593287833e-09
1.16123859392e-08
2.34277806528e-09
1.11540123945e-09
1.62207240332e-09
1.582250463e-08
2.3009763715e-08
2.53674201075e-09
1.98400493061e-08
5.55750082847e-09
5.96646697127e-09
1.61907374214e-09
1.77448134941e-09
1.38496036155e-08
1.11952212439e-08
4.25581787534e-10
1.17528482619e-09
1.26695999231e-08
1.06466945187e-08
3.95238587879e-09
6.3322928853e-09
2.29111058073e-08
7.17936406392e-09
1.75468749623e-08
2.0777740052e-08
9.6733033636e-09
4.66502229912e-09
3.13031194242e-08
3.20914466471e-08
1.45365391126e-09
4.79073792735e-09
1.73201239537e-09
3.71255913075e-09
3.37644567247e-09
1.73778374968e-08
8.82008391014e-08
2.86959204966e-08
2.50466465971e-08
8.23665118547e-09
7.90796062716e-09
1.67943102927e-08
1.03532954076e-09
5.76596783068e-09
9.42135778985e-09
2.39302048429e-09
8.72912683684e-09
3.8405550134e-08
7.37833569752e-09
2.10373540798e-08
4.62375923526e-08
1.19999661789e-08
1.13426169611e-09
8.51696614524e-09
5.24609403715e-09
1.41482872633e-08
4.02690980144e-09
4.00227360864e-08
8.03949428025e-09
1.72065065524e-08
4.45121902813e-09
7.13186519118e-09
7.96416997002e-09
5.13476156986e-09
6.09444453333e-09
2.33483488627e-09
1.56083922106e-08
4.7919061097e-09
5.67142937466e-09
3.60214387595e-10
9.97303353531e-09
5.39170956151e-09
1.76868717627e-08
2.05210241128e-08
2.2847551886e-09
2.42791620602e-08
3.25568176243e-08
4.65466467183e-08
1.00613937806e-08
7.15573748211e-09
3.75462374851e-09
1.82749270462e-08
1.1686580553e-08
7.57141552715e-09
3.03606623044e-09
5.09089907594e-08
7.11821178375e-09
1.88232755041e-08
2.67422939391e-10
1.12612034486e-08
2.0287404934e-08
1.90793797467e-08
1.37052455058e-09
1.72466682646e-08
1.93680318284e-08
1.16858664084e-08
2.30244200811e-08
1.16582641078e-08
6.58594755639e-10
4.05464272595e-09
3.86114055343e-10
1.74026743548e-09
1.39323345007e-08
1.28917030534e-10
1.62646720544e-08
3.09308311912e-09
1.212194919e-08
3.73433365411e-11
1.14161596664e-08
9.60848186146e-10
1.88234010051e-08
7.89919297512e-09
1.10044353832e-08
1.34374410435e-09
3.67329911854e-10
1.23757662541e-08
7.79461919686e-09
1.87197555596e-08
1.43517571373e-08
1.24728255284e-08
1.34116020656e-09
3.59934648418e-09
2.09237701236e-08
1.20049954406e-08
7.40010204863e-09
1.58619585024e-08
7.20881313996e-09
2.01241866706e-10
2.29370463814e-09
3.0076044472e-08
2.20327077856e-08
4.03165079147e-09
1.8747831526e-09
1.24510857514e-08
2.10681098311e-08
1.01197080473e-08
9.67137151974e-09
1.64708433642e-08
5.42782724667e-09
1.18953877674e-09
7.11629699398e-09
2.21666106579e-10
1.56255609781e-08
2.52851838824e-09
6.07095965953e-09
3.84928591142e-09
8.15756291228e-10
2.36924577204e-09
1.83575159025e-09
3.87694080065e-08
1.32124330245e-10
1.06593839154e-08
1.51967199207e-09
1.80980472581e-08
9.02999046204e-09
4.03836616922e-09
4.45517408508e-09
1.20238116939e-08
1.1590455627e-08
1.08853072334e-08
6.49345471709e-09
4.70294639099e-08
1.2970508693e-08
1.44755307995e-09
1.25922095398e-09
3.18191866514e-09
9.73901236855e-09
1.06830707309e-08
1.43520342414e-09
2.05786765889e-08
1.84311326526e-08
7.20669009428e-09
2.64977911595e-09
3.60361710191e-09
1.62848824843e-08
5.34647723608e-09
1.76735829224e-09
8.12754811996e-09
7.33021613448e-09
7.72353264476e-09
1.35055247432e-08
6.05310163463e-09
7.12218621703e-09

