# vtk DataFile Version 3.0
File Name: Molecule/sphere_cent/sphere_cent_0-s26.vtk
ASCII
DATASET UNSTRUCTURED_GRID
FIELD FieldData 1
TIME 1 1 double
0.0
POINTS 693 double
-0.65472912788 0.946151793 -1.6358817816
-0.99454247952 0.92516630888 -1.4654219151
-0.68794125319 1.2039278746 -1.4410874844
1.3684245348 -0.18456912041 1.4465643167
1.3426815271 0.2068464309 1.4677817822
1.0697635412 -0.00088840909302 1.6879233122
-0.11110656708 0.037705034018 -1.9965113401
-0.47019442916 0.037450227886 -1.9435209036
-0.2719347775 0.42503723502 -1.934240818
0.59679609537 -1.0700773001 -1.5803642273
0.43350785971 -1.3405812979 -1.4194262028
0.1897432059 -1.061139226 -1.6846667528
-0.28110906482 -0.33889749646 -1.9495289326
-0.82672703266 0.62323343754 -1.7109680176
-0.061675108969 -0.0055627664551 1.9989352226
-0.43587881327 0.04733017832 1.9512960911
-0.27252367139 -0.34869578481 1.950463295
-0.99866360426 0.85413771868 1.5076303482
-0.82269501686 0.62898921967 1.7109640837
-0.69719934464 0.97480404377 1.6003834009
0.50412970781 0.91637259722 1.7047246695
0.089658424258 0.95238864422 1.7562828064
0.24241283536 0.63042265177 1.8823773861
1.9067656994 0.57828819752 0.16705064476
1.8033921719 0.71569263935 0.48408579826
1.9153456688 0.35138604045 0.45345386863
1.860429883 0.12367264181 -0.72252100706
1.9464648962 -0.085389956832 -0.45139527321
1.8288815022 -0.25761598349 -0.76401698589
1.9281586409 0.31321457028 -0.42868798971
1.8855215311 -0.4721364677 -0.46953877807
-0.07711096853 -0.78170675039 -1.8372768164
0.2722004056 -0.71175891161 -1.8486242294
-0.26663923264 -1.1311811209 -1.6248552799
0.055157091469 -1.3447492123 -1.4792969227
1.2399944067 1.4237658978 0.65942400694
1.5009820461 1.2411577702 0.45333379507
1.2920414209 1.5001883507 0.27774685621
1.4196554422 1.1383152008 0.82966941595
0.31922650337 -1.8742408752 -0.61730563641
0.54150003195 -1.8929843903 -0.35083425045
0.23212872446 -1.9700336456 -0.25433731079
-0.11756300926 -1.9540672302 -0.40677341819
-0.05944160372 -1.9978899956 -0.063139252365
-1.7625058889 -0.55861502886 -0.76259386539
-1.7551145554 -0.78891283274 -0.54437744617
-1.902646184 -0.45324477553 -0.41781893373
-1.6059592962 -0.84879773855 -0.83660513163
-1.5899015665 -0.58304029703 -1.0640000105
-1.182053566 -1.5334823132 -0.49892374873
-1.4439197779 -1.2655143738 -0.55913251638
-1.2418462038 -1.3276708126 -0.83226954937
-0.6181127429 -0.28052571416 -1.8809982538
1.789203167 0.52509665489 -0.72294485569
1.8492549658 0.6755657196 -0.34605994821
1.6756950617 0.87976020575 -0.64624989033
1.5572359562 0.72778636217 -1.0224137306
1.4512155056 1.0658077002 -0.86805659533
-0.98560780287 1.6345032454 -0.59737992287
-1.2918845415 1.4593266249 -0.44401836395
-1.0183686018 1.7082525492 -0.20983336866
-1.4966756105 -1.192830205 0.57965636253
-1.3288179636 -1.2196756601 0.86276894808
-1.5155884027 -0.93108642101 0.91427922249
-1.7290087938 -0.79492080212 0.61134201288
-1.693743825 -0.59672003984 0.87944614887
-1.7011170387 0.55708158016 -0.89019805193
-1.5384268761 0.82497578859 -0.97587352991
-1.5955103636 0.46178483963 -1.1135618687
-1.313190937 1.0088832378 -1.1194776297
-1.4542840719 1.1113933325 -0.80342769623
-1.1870877743 1.4127823114 -0.77131164074
-1.6865714788 0.85326981544 -0.65342432261
1.370349884 1.4047096968 -0.38471668959
1.2375533581 1.5671727657 -0.11145322025
1.4816354513 1.3424056768 0.050249002874
1.0763798952 1.6076618433 -0.50492274761
1.6178135872 0.35734552145 -1.1180217266
1.4278537035 0.48177960515 -1.3139309883
-1.6861773729 1.0645916462 0.14967471361
-1.8360247612 0.76251333952 0.21662816405
-1.7202410698 0.87353634834 0.52653968334
-1.7518233061 0.58550930023 0.7665938139
-1.5806297064 0.81956863403 0.90987497568
-0.90802872181 1.657505393 0.65441423655
-1.1062489748 1.6221357584 0.37976780534
-1.1811313629 1.4734784365 0.65677005053
-1.2519800663 1.5560998917 0.10342344642
-1.3748246431 1.4183233976 0.30926942825
-1.6216179132 0.47039431334 1.0717855692
1.3815437555 -0.34241324663 -1.4050399065
1.4435499907 -0.046696748585 -1.3834648132
1.6175695658 -0.19203618169 -1.1585777998
0.49756240845 0.051757868379 -1.9351241589
0.25119119883 -0.10103376955 -1.9813008308
0.21248783171 0.22066637874 -1.975274086
-0.54685086012 -0.65499126911 1.80823493
-0.61387270689 -0.27099230886 1.8838385344
-1.9417666197 0.44547718763 -0.17548513412
-1.8537669182 0.72856277227 -0.17380897701
-1.8458654881 0.59773474932 -0.47840386629
-1.7390788794 0.92732840776 -0.33747389913
0.50465023518 0.41921135783 -1.8866426945
0.18936797976 0.64926403761 -1.8803743124
0.5261079073 0.73571866751 -1.7834099531
0.78695493937 0.5889313817 -1.7401435375
0.82077461481 0.87189596891 -1.6014118195
-1.6880712509 0.055584847927 1.071161747
-1.492415905 0.22409805655 1.3115649223
-0.40112215281 -1.8602720499 -0.61492222548
-0.75286716223 -1.7798471451 -0.50858086348
-0.60607242584 -1.7361990213 -0.78554677963
-0.49385645986 -1.9098300934 -0.3287807107
-1.2305468321 -0.48902860284 1.4987130165
-1.3693294525 -0.71804314852 1.2684235573
-1.0999463797 -0.77750229836 1.4783533812
1.9040725231 -0.14132116735 0.59405100346
1.8158028126 -0.44138517976 0.71267694235
1.9186198711 -0.43143638968 0.3633967042
1.7600210905 -0.11139380932 0.94303750992
-1.1237641573 0.52494764328 1.5685843229
-0.53456312418 -1.3279588223 -1.3966540098
-0.64588457346 -1.5100719929 -1.1389914751
-0.87394446135 -1.3058059216 -1.2368835211
-1.2187167406 -0.96465319395 1.2587327957
-1.4296010733 0.69344437122 1.2138471603
1.6851702929 -1.0702725649 -0.12120268494
1.8379071951 -0.74996674061 -0.24421496689
1.8548426628 -0.73817563057 0.087979659438
1.936376214 -0.49306443334 -0.082598946989
0.21979887784 -1.1236088276 1.639847517
0.10741882771 -1.3953176737 1.4275105
0.43885979056 -1.3399869204 1.4179650545
-0.69438385963 1.8106263876 -0.48921212554
-0.59661608934 1.7265876532 -0.81415766478
-0.35252204537 1.8620252609 -0.63916248083
-0.4383020103 1.9272962809 -0.3041895628
-0.19704532623 1.7330783606 -0.9783064723
0.47962138057 -1.9185875654 0.29744815826
0.67619973421 -1.799705267 0.55100345612
0.3637971282 -1.8428491354 0.68649327755
0.62044793367 -1.6827312708 0.88448238373
-0.49834194779 1.5963757038 -1.0968959332
-0.85566997528 1.5415211916 -0.94411432743
1.6951105595 -0.93986737728 -0.49161446095
-0.12181092054 -1.0752719641 1.6805077791
0.10024748743 -0.82889765501 1.8173415661
-0.18544912338 -0.71406024694 1.8588391542
0.03708935529 -0.53254377842 1.9274339676
0.36017265916 -0.54534089565 1.8896976709
0.15476547182 -0.25460270047 1.9775631428
-1.9427139759 -0.44957077503 0.15411956608
-1.8686487675 -0.69318330288 0.16590963304
-1.859939456 -0.54214936495 0.49647018313
-1.9094786644 -0.58404427767 -0.11051495373
-0.23674874008 1.7575532198 0.9243490696
-0.36663204432 1.8606779575 0.63519114256
-0.6003242135 1.7143170834 0.83699369431
-0.65620070696 1.8071960211 0.55090302229
-0.5235118866 1.90944767 0.28280982375
-0.87073421478 1.5092833042 0.98098421097
-0.56755107641 1.5498816967 1.1295814514
-0.79281628132 1.3322579861 1.2626796961
-1.6284275055 -0.26270887256 -1.1310100555
-1.4482018948 -0.36399224401 -1.3285428286
-1.4882764816 -0.089425198734 -1.3328001499
-1.1942744255 -0.56480461359 -1.4992963076
-1.1383776665 -0.90428346395 -1.3721126318
-1.3756289482 -0.67049723864 -1.2876102924
-0.0060258060694 1.9014320374 0.61941361427
-1.767516613 -0.27542102337 -0.893419981
-0.91465514898 -0.71771556139 -1.6271635294
-1.4030680656 -0.90024185181 -1.1046270132
-0.83015835285 1.7896043062 0.32739141583
0.8712553978 1.3707416058 1.1670495272
1.0345745087 1.1166961193 1.2971752882
1.1631420851 1.2741072178 1.0117707253
1.3169142008 0.9814428091 1.1413009167
1.1356201172 0.85443270206 1.4072626829
0.74374431372 1.181068778 1.4323952198
0.87420064211 0.90816950798 1.5527018309
1.1000863314 1.2834976912 -1.0682308674
0.85048347712 1.3319091797 -1.2248643637
0.95496338606 1.5153517723 -0.88962107897
1.2058860064 1.4346034527 -0.69761711359
-0.4937402606 -1.7440465689 0.84470432997
-0.29579871893 -1.8199311495 0.77437263727
-0.19403281808 -1.7133486271 1.0130573511
0.059362024069 -1.8105882406 0.84736073017
0.12421265244 -1.6556617022 1.1137353182
-0.12637262046 -1.5560802221 1.2499833107
-0.39275878668 -1.5564912558 1.1927220821
-0.32479998469 -1.3796044588 1.4106780291
1.5702633858 0.077632822096 1.2361799479
1.7138557434 0.25970759988 0.9974809885
1.5567798615 0.38261020184 1.1958045959
1.643217206 0.58688288927 0.97704255581
1.4619204998 -1.3647633791 -0.0007833102718
1.4339053631 -1.3570303917 -0.31833511591
1.2648442984 -1.5417329073 0.15227267146
1.3630818129 -1.4010000229 0.41945511103
1.1161782742 -1.6175824404 0.37051287293
-0.64043521881 0.35290113091 -1.8615453243
-0.48004558682 0.71093738079 -1.8063288927
-0.77437752485 0.016364153475 -1.8427929878
-0.96042692661 0.30917337537 -1.7251887321
0.82071071863 0.60139143467 1.7215769291
0.7176566124 1.7023451328 0.76620060205
0.91664040089 1.6910699606 0.54564976692
0.55326223373 1.8381501436 0.56098222733
0.13913969696 1.7604646683 0.93868821859
0.19041341543 1.2000207901 1.5883951187
-0.64267390966 0.35702171922 1.8599113226
-0.4907297492 0.73968297243 1.7921866179
-0.33569088578 0.48210638762 1.9116350412
-0.94435942173 0.29337060452 1.73837924
-0.77870559692 0.044881112874 1.8415743113
-1.1163090467 -0.033921469003 1.6588584185
0.11425225437 1.5777579546 1.2236738205
0.37644857168 1.6077656746 1.1284611225
0.28265234828 1.4260405302 1.3735091686
0.45571866632 1.742575407 0.86933559179
0.57513415813 1.4211585522 1.2843300104
0.46085956693 1.2406754494 1.4994037151
0.95695883036 1.5272938013 0.86698973179
0.66817688942 1.5796995163 1.0285952091
1.7981361151 0.45612612367 0.74726450443
1.0311903954 -1.7119742632 0.075680650771
1.2718176842 -1.5377783775 -0.13315422833
1.8459756374 0.14859330654 0.75490444899
-1.1299895048 0.50149708986 -1.570843339
0.37649473548 -1.6929103136 0.99495434761
0.02560425736 -1.9104353189 0.58850717545
0.7360367775 -1.854096055 0.14321650565
[...]
CELL_DATA 1382
SCALARS cell_data_0 double
LOOKUP_TABLE default
1.65984264188e-08
3.25642685888e-08
2.01581391237e-08
2.16638835994e-08
2.57201762508e-08
2.24681751926e-08
1.06122766486e-08
3.13843855408e-09
1.77066113928e-08
1.91719621891e-08
4.63033974989e-09
2.08211342104e-09
1.11845477854e-08
2.22578870811e-08
4.0718459905e-08
1.82699494369e-08
9.29564810844e-09
1.32940727568e-08
5.30412298419e-09
1.79336169749e-08
6.70008992768e-09
1.76303434316e-08
2.7663423297e-08
6.84095004504e-09
1.60879139326e-08
1.64033517094e-08
1.94195442605e-08
1.32023673946e-08
2.49699157256e-08
1.88031877846e-08
1.09381190397e-08
1.8595519789e-08
5.10599686934e-09
6.62561859076e-09
5.63810169479e-09
2.57282956936e-10
1.23553933398e-09
2.17647321295e-08
2.05511278642e-08
8.08966892142e-09
4.19958376081e-08
4.55906824421e-09
9.06867868101e-09
1.26956080895e-08
2.43648184714e-08
1.85158065473e-08
2.66620848316e-09
1.0414378006e-09
3.35880998221e-09
5.62304607448e-09
4.78953731447e-09
2.20247523211e-08
1.19540113667e-08
2.40896959541e-08
1.05833006666e-08
2.80709617721e-08
1.18619246106e-08
2.13160328811e-09
1.00534750528e-08
5.62722289564e-09
3.34574258439e-09
9.19575617081e-09
1.01719965919e-08
1.26397339189e-08
6.1680821137e-09
6.54494177464e-10
7.08383993411e-09
3.40404496223e-08
3.84481785485e-09
7.01258033291e-09
5.55640449602e-09
3.69398034064e-09
2.06687983338e-08
1.52689464797e-08
9.77883599937e-09
6.20587299629e-09
1.25321464659e-08
2.77508257518e-08
1.57213936009e-08
1.09900367654e-08
1.76010062153e-08
4.94712992999e-09
1.16006305807e-08
7.60542916003e-09
2.10922062136e-09
1.55164443732e-08
7.94257267758e-09
4.81913574906e-09
5.09607478015e-09
1.64191838308e-08
1.05799814761e-08
5.85257525955e-09
9.38312965277e-09
4.84799495483e-09
4.4268306023e-09
5.47614074239e-09
1.59406084258e-08
6.06353586631e-09
7.93006870702e-10
1.51575781937e-08
7.15682356984e-09
5.89297913933e-09
1.74441497616e-09
8.48027021038e-09
2.08256061432e-09
5.1239720594e-09
1.93629052216e-08
8.41168903549e-10
1.51416193372e-08
9.0236584214e-09
2.8745287223e-08
1.06208173305e-08
1.58894944983e-08
5.03755720769e-09
5.89590134369e-09
3.7704977159e-09
1.71826769587e-08
1.03387416806e-08
1.30145529186e-08
7.75969026137e-09
3.97721485948e-09
2.82668065323e-09
1.1695557197e-08
5.70666710486e-10
1.83894866858e-09
1.67906505631e-08
1.0546940808e-08
1.6304467318e-08
1.17729740203e-08
8.18642084928e-09
1.06272080067e-08
4.36611311564e-09
9.61483536802e-09
1.07116249897e-08
4.82480439056e-09
1.58606151814e-08
9.07982957531e-09
7.51571097346e-09
7.71559466793e-09
2.61982226965e-08
7.83451866268e-09
1.72738335409e-08
2.01131304881e-08
1.6305910997e-08
1.06457625541e-08
5.83454247596e-09
3.9561280165e-09
1.01528517447e-08
5.19430484977e-09
3.4095465195e-09
9.90606513827e-09
3.13122085999e-09
7.61286126277e-09
1.83456846532e-08
1.55832279133e-08
2.05883137597e-10
2.15154425484e-09
2.59577860445e-09
3.48212259181e-09
1.12462982719e-09
3.95889753247e-09
1.5467546289e-09
2.16499049624e-09
5.08687605338e-09
1.48876149428e-08
1.46634782777e-09
8.62649984541e-09
1.00852216559e-08
2.2508682454e-08
6.51970090406e-09
8.61733686246e-09
1.17506425449e-08
3.2686918324e-09
5.98710426772e-09
2.0077071354e-09
2.94214449129e-08
8.75280203293e-09
2.46126421915e-10
5.01886642809e-09
4.01238701303e-09
6.92001112169e-09
1.60976312063e-09
7.54335826704e-09
1.38478556433e-08
7.41462400715e-09
2.03922241607e-09
4.71177474914e-09
3.24028083456e-09
7.79254435734e-10
8.15689454708e-09
5.3757891282e-09
2.63260721715e-09
9.8350610618e-09
3.23806330795e-08
1.9029748008e-08
4.02740930246e-09
2.61651351625e-09
1.24244500465e-08
1.98260169576e-08
1.66661313056e-08
5.50345027586e-10
9.03959111717e-09
6.21609459922e-09
7.25667569727e-09
1.02041539943e-08
2.73117511151e-08
1.3800383746e-08
1.78068730919e-08
5.10091367463e-09
8.06973334929e-11
2.17835692228e-08
2.30437075014e-09
5.5244807047e-09
2.30361312867e-09
1.14696661128e-09
5.25601841167e-09
1.9266787263e-09
5.83974045228e-09
1.06135961596e-09
7.71690611221e-09
2.72594021092e-09
5.93851808181e-09
2.14601904666e-08
1.07587688345e-08
1.18205694539e-09
5.45648018038e-09
2.30827139178e-09
5.17568711112e-09
6.00172772002e-10
9.72604581091e-09
1.85885172257e-08
3.67713609215e-09
8.97659398285e-09
7.27707709777e-09
6.70102153584e-09
8.34137703542e-09
4.24245656481e-09
1.92228168318e-09
1.20989885671e-09
5.18145263194e-09
6.12660194246e-09
1.56094253884e-09
6.04274485713e-09
4.84836890719e-09
2.39876095452e-09
3.4333540322e-09
8.61752650342e-09
4.02133859075e-09
2.55261504968e-08
2.53442763157e-09
4.20466031262e-09
2.01724084417e-09
5.46713008479e-10
7.34135388715e-09
1.67774199373e-09
8.40856914407e-09
1.94719419199e-09
1.06593900291e-08
1.22621046105e-08
1.70873212832e-08
2.77487891656e-09
1.19090283561e-08
1.86316308053e-08
2.05113236992e-09
4.76212757999e-09
8.34171266953e-10
1.4392858845e-09
1.16082933419e-08
2.8653973903e-08
5.57242530435e-09
6.53469617173e-09
2.45259548801e-09
8.72505197344e-09
1.3157586354e-09
5.79128304811e-09
1.90713565943e-08
9.93758675904e-10
3.74770835512e-09
2.30936932381e-08
4.00399155746e-09
2.00678049282e-09
1.71725063888e-08
4.51492665071e-10
1.03270473164e-09
3.33163164607e-09
2.82507005401e-09
5.68102140249e-09
3.41228468846e-09
3.200269727e-09
2.88643587962e-09
1.29053355841e-08
1.1914325643e-08
6.40176067785e-09
5.43980022246e-09
8.59249559545e-09
7.53773351083e-09
7.41892490903e-09
2.11048722527e-09
4.95046775915e-09
2.1390302732e-09
4.98952506451e-09
6.45961235747e-09
1.55356287943e-08
6.83373716679e-09
1.1586091743e-08
1.89846146286e-09
6.59945535327e-09
3.65292506652e-09
4.37832936038e-09
9.27855698057e-09
8.94024747168e-11
2.5044820563e-09
2.00319523061e-09
1.02535378513e-10
4.57145341249e-10
2.06352139904e-09
6.04410234953e-09
4.74739721421e-09
8.27400098717e-10
1.91000798041e-09
7.33405220443e-09
1.59717233044e-08
8.18448339596e-09
2.47159829628e-10
3.98480370363e-09
1.14203556513e-09
1.56092597612e-08
9.37352891221e-09
2.95975362215e-09
1.01941528865e-08
6.23674594296e-11
2.29845572661e-09
1.00036797637e-08
9.74184701871e-09
1.0787671796e-08
3.49031926602e-10
7.23190966393e-09
8.00718698834e-09
1.68823558848e-08
5.85393145302e-09
6.90092910261e-09
2.89590049114e-09
9.37874712842e-09
1.46458232445e-09
2.19132096095e-08
6.96523531459e-09
1.59926133641e-08
1.89740422401e-08
6.15708365512e-09
5.64680058169e-09
2.58971475105e-10
7.10895866627e-10
1.2877167201e-09
1.63485308154e-08
1.86847356885e-09
6.08957405048e-09
5.15348666262e-09
6.90356459729e-09
1.70453714653e-09
7.69689427905e-11
4.5423641702e-09
1.06591282732e-08
6.38281616413e-09
2.14347979245e-10
1.33655810257e-09
2.89869503108e-09
6.97023288913e-09
2.08407309794e-09
7.31503069332e-10
7.25619841072e-09
3.46376492915e-09
8.32301732484e-09
1.10439003948e-08
3.18682185612e-09
5.14873253615e-09
2.78887224067e-09
1.11030173902e-08
2.60270303698e-09
6.63852597723e-10
2.90078862776e-10
2.0233210593e-09
2.46018893123e-09
1.86805932583e-09
5.3720339448e-09
1.05879505219e-08
1.10814698227e-08
2.30573893439e-09
2.57145042029e-09
1.22793600192e-09
1.00423603517e-08
1.69537796205e-08
9.18928772768e-09
9.64999113214e-11
4.91812515424e-09
1.89465414786e-08
3.89561632218e-09
4.70855459058e-09
1.78592767695e-08
2.15670944185e-09
4.35744838537e-09
6.69744540842e-09
4.77380271226e-09
2.66498359052e-09
6.25020357352e-09
1.49855936136e-08
3.42108782277e-09
4.06911834351e-09
1.09866686969e-08
2.11886021243e-09
6.43790544923e-09
7.83563619607e-09
2.00502544848e-08
1.38392541771e-08
3.54782056209e-09
1.48213510973e-08
1.18093349954e-08
1.11596340911e-09
1.13003666596e-08
8.71703518435e-09
1.20796303564e-08
9.26049353478e-09
1.0650637143e-08
9.31829265132e-09
8.80096535647e-09
5.53480383559e-09
1.56595125763e-09
5.694667032e-10
9.23882558228e-10
2.81485469196e-09
1.68986792622e-08
5.36721930979e-09
4.08010408714e-09
5.29914836002e-10
2.26186327144e-09
9.15520072285e-10
8.45533365971e-10
2.35925929936e-09
9.63245356807e-09
5.63637283848e-09
1.06002666048e-09
7.15754582187e-11
9.75980007111e-09
3.23521088491e-09
7.63813396176e-10
1.5924232678e-10
1.26262317114e-08
1.40543504948e-08
7.1111012015e-09
6.10821846644e-09
3.01481784817e-09
1.08820404969e-08
1.97642170025e-09
7.92022562083e-09
5.27345767305e-09
1.37150274501e-09
9.95853663437e-10
7.12568917205e-09
1.55336433044e-08
7.07994392884e-09
3.40613249998e-09
6.6814267879e-09
1.2440165589e-08
1.02347616601e-10
8.70663230711e-10
2.28691769729e-09
3.59506654332e-09
7.59306447554e-09
2.62800414605e-09
3.29779700586e-09
8.98165578521e-09
5.66559434533e-09
4.59684334899e-09
3.90955771397e-09
2.34543865519e-08
2.18889705e-08
1.13010589404e-08
6.85227612578e-09
4.87310366483e-09
6.87524968621e-09
9.93428374591e-09
1.36886242133e-09
9.35081702449e-09
6.40620167e-09
1.95758347957e-09
1.36682384308e-09
6.78420457348e-10
5.65600992683e-09
1.31001259345e-09
1.39077600867e-08
1.83561774011e-09
6.80253200161e-09
5.97496632801e-09
5.37654939753e-09
1.15584705244e-09
7.78386874339e-09
9.23609642458e-09
1.50213984108e-09
2.65489964138e-09
3.98621330978e-09
2.35776735339e-09
4.42115347344e-09
7.12711247535e-09
3.06430946169e-09
7.96802102701e-09
7.71181716169e-09
2.38770574784e-09
4.39990590789e-09
2.48164768379e-08
2.89281845978e-09
3.02273672466e-09
1.07576211026e-09
4.47531632468e-09
9.3308654038e-10
1.15902106585e-08
9.30696220782e-09
5.94103493595e-09
7.40767352502e-09
3.29846849963e-09
4.24081493632e-09
1.45930970158e-09
4.01330493925e-09
1.07630297156e-08
4.94937856584e-09
6.14471329146e-09
3.68957747892e-09
1.21665253406e-08
3.50215747656e-09
2.03987297449e-08
7.92566956977e-10
5.15320925722e-09
5.40767215781e-11
1.13101419854e-08
3.66163840212e-09
6.792336305e-09
9.12102566672e-09
8.54678766581e-10
1.77733598487e-09
7.72321449608e-09
5.57586423185e-09
8.56977143593e-10
9.00815474174e-09
3.12670236255e-11
5.57218243578e-09
6.66708710215e-09
1.18446670452e-08
7.81471442057e-09
8.90098401223e-09
7.98563773336e-09
9.62231123019e-10
1.4658991844e-08
8.72456990027e-09
9.39818230365e-09
9.77063249311e-10
1.98059412472e-09
3.15550222909e-09
3.7527596728e-09
3.35861228152e-09
6.08935693113e-09
3.98532486082e-09
6.30133878166e-09
2.85801629254e-09
1.03360797971e-08
2.16349812563e-09
1.12003654024e-08
7.11792702656e-09
1.84408894769e-09
1.95705629297e-08
8.55728142787e-09
2.63332385181e-09
6.55498176441e-09
1.87831329172e-08
1.62733021853e-08
7.33659441954e-09
5.99875734394e-10
1.03760565022e-08
7.52262998599e-09
2.44129654392e-10
1.38773787083e-08
5.56704110393e-09
2.98517451613e-09
1.43054372273e-09
8.19844233743e-10
8.81474067517e-10
1.27860699807e-08
5.08226959115e-10
1.02359017098e-09
2.3717346849e-09
4.44967640765e-09
1.54750395304e-08
1.21450292823e-08
8.32676785251e-09
9.17800141474e-09
8.37856309465e-10
2.72806658105e-09
1.44104489872e-09
5.3895053551e-09
8.07761354399e-10
4.25435349118e-09
1.21624276186e-08
5.3539819643e-09
4.25833599629e-09
9.12888126209e-09
8.39795801972e-09
1.34569329744e-08
1.46697177283e-08
2.72306157766e-08
1.88809464421e-09
3.54465978054e-09
2.13531009473e-08
7.9437463271e-09
1.80699160977e-09
2.23052210327e-09
2.55813227741e-09
9.56467944074e-10
1.12434115942e-08
6.52454341559e-09
2.59225370942e-09
1.66037007507e-09
2.36382956715e-09
7.37178234111e-09
9.99616671464e-09
4.49382589824e-09
1.57419759044e-09
1.22590105476e-08
1.66770108491e-09
1.42823238323e-08
1.45877614001e-08
3.15269416633e-09
7.34980719691e-09
3.27600190009e-10
7.77420520388e-09
2.16446637402e-09
8.10480917503e-09
5.13040153737e-09
3.80129246726e-09
1.04282741819e-08
8.7561768942e-09
2.10324626171e-09
1.0224676495e-09
6.15263887224e-09
7.46490688523e-10
4.72090425509e-09
6.10189619478e-10
5.10916850164e-09
2.46392344308e-10
7.87281949482e-09
1.482670965e-08
9.73572213566e-09
3.84767668637e-09
4.36525480625e-09
8.58199756506e-09
1.81846737356e-09
5.3034214957e-09
1.14075186482e-08
7.04910520819e-09
1.54008327108e-08
1.30170645561e-08
6.62150090811e-09
9.7713181278e-09
2.4099522261e-09
4.5783045342e-09
6.31658506432e-09
9.09065359787e-09
4.58381421623e-09
2.17021276574e-09
1.60058300519e-09
4.58477135191e-10
3.46216789343e-09
3.51729983659e-10
9.64125427425e-10
2.65911282634e-10
1.31154439131e-09
6.13873786537e-09
1.07451921453e-08
2.29540493788e-10
5.48819886878e-09
4.56553166068e-09
1.82845144365e-09
2.94354225371e-09
4.34539639831e-09
4.85924271351e-11
8.2929473015e-09
7.97267774398e-10
9.73381387085e-09
1.10537471618e-08
1.20161351712e-09
7.05314220496e-09
2.34038763348e-09
5.13995699079e-09
5.15426879116e-09
3.43738845587e-09
2.82034870145e-09
1.70520955178e-09
8.99923466323e-09
5.53399269985e-09
5.74803627237e-09
1.06255637938e-08
6.46098653226e-09
3.09501645533e-09
1.68253917588e-08
1.81758446926e-08
1.49677008237e-08
9.73646127805e-09
6.33346642016e-09
5.64509571652e-09
1.9882562787e-09
8.00843099869e-09
7.2558265292e-09
5.115413831e-09
8.85884357854e-09
2.24063126009e-09
7.4356090815e-09
1.62373138593e-09
5.38848248066e-09
1.07383460873e-08
2.56608154427e-09
1.81526515598e-09
8.16495843037e-09
6.91379231194e-09
3.66665860558e-09
1.05054032453e-09
5.96497106282e-09
7.27294794343e-09
2.50235574226e-09
4.47254167271e-09
6.18374113126e-09
1.24851384811e-09
4.36264293244e-09
4.4960663521e-10
1.95981855443e-09
4.24535633879e-10
4.26587171163e-09
1.31317541938e-09
7.74863334022e-10
1.10692906171e-09
2.67687266162e-09
1.05876230156e-08
9.56197478041e-10
7.4530325107e-09
3.61456154344e-09
1.08810483852e-08
1.46203309758e-09
3.49367009606e-09
1.51811508869e-09
3.9216864528e-09
5.38870119263e-09
4.70787034655e-09
6.59573693863e-11
2.82447101051e-09
4.31816113891e-09
1.18234183354e-09
6.67696316623e-09
1.04976796176e-08
3.40258496444e-09
2.57881554943e-09
1.25849082335e-09
3.97425088717e-10
3.71863454373e-09
6.013766217e-09
5.09579049689e-09
1.2404774156e-09
3.90466272785e-09
1.16912015771e-08
2.49577494586e-09
3.80341947522e-09
1.96807693605e-08
4.24255249399e-09
7.05061887965e-10
1.87888909132e-09
1.78294150895e-09
1.19107452095e-08
9.34331869678e-09
7.84292542922e-09
4.79072794848e-09
4.1642964553e-09
7.47141910861e-09
1.4076146381e-09
4.05636349065e-09
1.22025772934e-08
1.7146251931e-09
6.07770241722e-10
4.7409885415e-09
2.51396553573e-09
6.35142193182e-09
1.1847629296e-08
8.19422259369e-09
1.56205412187e-09
2.33859725526e-09
6.1245297441e-09
1.08102277532e-08
3.03776925246e-09
1.45038717184e-09
2.69651345904e-09
7.99274041264e-09
5.87978232192e-09
1.35809967163e-08
6.1243189565e-09
3.88915326433e-09
9.22866208239e-10
1.33827889132e-08
5.36742042269e-09
1.36005204618e-09
2.24996367316e-09
5.044507892e-09
5.03262250212e-10
8.28945129218e-09
3.57002311246e-09
7.8193177187e-09
6.01758187778e-09
1.02008316989e-08
5.88987015784e-09
5.01362456885e-09
5.23154472072e-09
9.40604381002e-09
3.06644616454e-09
1.17518069832e-08
1.5988323353e-08
4.82894766885e-09
1.21347642607e-08
2.65364172406e-09
3.45151389628e-10
3.3886790745e-09
1.40037153051e-09
3.55191720397e-09
1.27523409039e-08
7.51724705252e-09
2.72453035706e-09
1.4464441804e-10
1.39136408413e-09
2.26697219768e-09
1.8282465129e-09
4.89325071637e-09
8.77112031279e-10
2.7103122709e-09
1.43778255122e-09
1.75089308272e-08
1.16788216161e-09
3.07604158134e-09
2.82393927068e-10
4.1090841878e-09
1.83405144712e-08
6.08232588805e-09
4.57547804919e-09
9.31025694913e-09
2.49875748022e-09
4.14791451161e-09
6.58110796032e-09
3.34276669647e-09
1.44729779303e-08
6.46195839579e-09
1.17806125658e-08
9.04660710366e-09
1.24316693329e-08
8.85811983867e-09
1.38289190882e-08
1.32479206814e-08
2.93562327177e-09
3.06922261327e-09
3.83385954124e-09
8.34968079079e-09
8.03609428809e-09
3.40917460846e-09
3.54401278442e-11
5.7501105165e-09
1.52413952058e-08
4.90555653045e-10
2.4140836112e-09
9.91783986708e-09
1.95561674739e-08
6.00640305096e-09
6.08081401471e-10
7.35408887843e-10
1.33117732726e-09
2.8736590159e-09
4.51019962033e-09
4.2285289402e-09
1.75069006854e-09
4.65356057504e-09
3.95756948932e-09
6.32431297851e-09
4.33818021618e-09
6.60029980051e-10
1.42182460525e-09
4.14014707574e-09
2.91242645852e-09
8.62138430954e-10
6.12186725817e-09
1.48606881845e-09
5.40905228423e-09
5.80128710817e-09
4.6336516085e-09
6.01594045891e-09
1.16264764745e-09
4.38394217355e-09
3.67621859759e-09
7.14896501321e-09
4.54174817684e-09
6.98960279573e-09
3.07888118452e-09
8.19631375232e-09
3.81754562467e-09
8.3511632667e-09
1.78050913293e-09
3.45985119883e-09
8.58325537846e-09
1.95897381827e-09
1.60382671798e-09
1.33518637465e-09
5.97043638249e-10
3.80294580573e-09
9.85671304869e-11
6.74297309614e-09
2.76560827283e-10
9.46702334841e-09
4.96119174887e-09
6.75574363779e-10
3.82958078927e-09
1.47475588626e-09
3.46735838033e-09
4.82776131502e-09
2.26818728465e-09
2.42978741401e-09
6.59371011544e-10
4.93838080354e-09
2.29615251888e-09
3.47799108663e-09
2.69513696534e-09
3.53334996632e-09
3.32156927256e-09
2.07042775658e-09
3.16229728285e-09
2.16551177874e-09
1.93136392083e-09
1.04262425439e-09
1.44798759442e-09
6.46374394835e-09
6.43548146561e-09
2.24303327542e-09
1.45427255426e-10
9.4479773604e-10
4.17755673847e-10
5.94939678044e-09
1.7500982705e-09
7.90792246118e-09
1.12293410028e-09
9.17188570136e-09
8.57197883983e-09
1.55149673497e-09
2.47184621315e-09
2.65045132189e-09
4.53078559752e-09
1.71161882542e-09
2.37662583108e-09
2.39924009585e-09
5.0296423388e-09
8.79314756808e-09
3.16460947838e-09
2.38634182037e-09
1.51110767697e-08
2.22935703496e-10
1.26519711869e-09
3.72493724454e-10
3.08730926624e-10
2.3603704146e-09
2.35697831871e-10
4.81427826458e-10
3.08906395072e-09
8.15522089099e-12
3.78831070753e-10
1.44649876968e-09
3.58596130796e-09
7.80582154194e-09
8.29549272341e-09
1.10024180395e-08
1.81137038797e-08
7.97571081829e-09
9.69496426737e-10
1.79691918068e-09
5.92762541784e-09
8.32167929394e-10
6.25574752343e-09
1.99529017106e-10
3.27202197876e-10
5.1736582758e-09
2.75867773976e-09
2.22890380341e-09
1.43798896959e-09
2.64600668071e-09
6.49312261746e-09
4.97918431764e-09
9.46658531385e-09
7.4876298391e-09
3.8654783906e-09
1.68632854299e-08
3.49258307773e-09
6.78354090673e-09
1.37819384904e-08
5.25552676069e-09
1.88574237307e-09
3.80706109707e-09
3.37756082099e-09
1.12081682091e-08
5.11638625923e-09
5.28288928376e-09
3.1170228173e-09
1.38416525273e-09
8.07222025839e-10
5.42825452941e-09
1.17128356175e-08
7.12796417128e-09
1.94414443799e-09
2.77016070105e-09
3.9036232324e-09
7.92766477294e-10
2.55597688456e-10
3.73352644049e-09
4.38020834798e-09
2.7518866585e-09
7.6584478713e-10
5.93580933648e-10
1.52762360286e-09
2.95718649812e-10
4.34345435164e-09
4.97881960653e-09
2.70954672089e-09
1.62867027072e-09
7.96154171869e-09
3.00310799464e-09
1.94274393018e-08
7.46411909163e-09
6.8071081182e-09
9.70900412623e-09
9.65699575871e-10
2.83668385254e-09
5.13210110936e-09
7.79213581905e-10
1.98499396167e-09
4.7139777756e-09
1.45153745685e-10
4.82914729086e-10
5.72918062809e-09
6.19102387079e-09
1.21868400037e-09
3.22479478578e-09
1.11943940043e-09
2.05303768468e-09
2.45928207134e-09
1.78401196096e-08
2.13817357383e-09
4.56936195291e-09
7.9491742301e-09
3.8923746607e-09
5.71425924347e-10
2.88896322285e-09
7.39264751142e-10
4.41049503065e-11
5.08887277105e-11
1.78941387755e-09
8.72167629481e-10
2.52741952453e-10
1.56938329014e-09
2.28508614715e-09
6.69581275407e-09
1.35536954456e-08
7.28747132445e-09
1.15307979692e-09
6.21142908266e-09
2.32810090825e-09
3.28303615868e-09
5.97948824906e-09
4.11724255792e-09
2.62386423844e-09
3.83798519937e-09
3.65022561475e-09
2.97465704295e-09
2.52980376216e-09
7.52260490322e-09
4.44357077702e-09
2.99056964551e-09
6.27360282287e-09
2.15914959674e-09
6.68443197682e-09
1.21154954084e-08
3.13413164688e-09
8.26370435034e-09
9.34199535054e-10
7.23394315839e-09
6.52397479351e-10
1.03416993008e-08
3.65388144354e-10
1.25305561468e-09
3.7147762265e-09
1.69221988194e-09
8.15357690164e-11
9.68916950169e-10
1.20906509402e-09
2.60534889252e-09
9.87353818881e-10
2.03114528965e-10
4.5262737298e-09
5.23138603981e-09
2.80629275132e-09
1.96314272423e-09
4.36635298682e-09
5.64164014855e-09
1.16747109971e-08
5.18652763659e-10
5.2864426975e-09
1.69208766698e-09
8.12019634432e-09
6.43990702435e-09
3.01081961383e-10
3.85766393399e-09
7.1400083521e-09