# vtk DataFile Version 3.0
File Name: Molecule/sphere_cent/sphere_cent_0-s23.vtk
ASCII
DATASET UNSTRUCTURED_GRID
FIELD FieldData 1
TIME 1 1 double
0.0
POINTS 506 double
1.554645896 0.72920954227 -1.0253479481
1.2257508039 0.91729903221 -1.2867811918
1.4137595892 1.12185812 -0.8613794446
-0.86972081661 -1.3855797052 1.1488741636
-1.2055901289 -1.0095281601 1.2351597548
-1.2749314308 -1.2536678314 0.89546966553
-1.9037296772 -0.15411522985 -0.59196978807
-1.8785499334 0.23114044964 -0.64371079206
-1.755489707 0.032786417753 -0.95751565695
-1.6954910755 0.49543973804 -0.93787461519
-0.64885133505 0.95942938328 -1.6304451227
-1.0324698687 0.88803428411 -1.4645109177
-0.67413437366 1.2201609612 -1.4335387945
-0.7373649478 -1.037972331 -1.54236269
-0.89602708817 -1.304997921 -1.2222886086
-1.1318939924 -0.93423199654 -1.3578807116
1.3746041059 -0.20382712781 1.4375134706
1.3498630524 0.21099689603 1.4604574442
1.0448366404 -0.011033396237 1.7053409815
-0.11356255412 0.044105920941 -1.9962538481
-0.47886449099 0.041971005499 -1.9411683083
-0.26304376125 0.45805281401 -1.9277994633
0.6227260828 -1.0500465631 -1.5831950903
0.43356895447 -1.3490334749 -1.4112102985
0.18949495256 -1.0702825785 -1.6788963079
-0.27278271317 -0.36651480198 -1.94670403
0.64318341017 0.011305017397 1.8931227922
0.81936281919 -0.41761261225 1.7753502131
-0.81444263458 0.61060190201 -1.720915556
0.48000991344 1.9323108196 -0.18682175875
0.60797947645 1.8902064562 0.23885498941
0.91844135523 1.7765570879 0.012899131514
0.92766922712 1.7054829597 0.47998389602
-0.054721590132 0.013380817138 1.9988765717
-0.44697347283 0.045875862241 1.9487595558
-0.28915384412 -0.35283043981 1.9472277164
-0.63621431589 1.0207605362 1.5976604223
-0.36407068372 1.348253727 1.4308431149
-0.79708975554 1.3015592098 1.2890022993
-1.0254101753 0.88432520628 1.4690806866
-0.81421124935 0.62184965611 1.7170680761
0.50908982754 0.92051738501 1.7009555101
0.079148724675 0.95997220278 1.7523394823
0.2528501451 0.60631471872 1.8882979155
1.9105920792 0.57437455654 0.1286060065
1.7823727131 0.77731728554 0.4649643302
1.9205081463 0.30953142047 0.46299314499
1.7408031225 0.98276269436 0.051298998296
1.6400184631 -0.15417864919 -1.1340034008
1.8176604509 -0.26423314214 -0.79107278585
1.6271117926 -0.61269456148 -0.98746323586
1.8404468298 0.12851116061 -0.77193820477
1.9542768002 -0.11423636228 -0.40894442797
1.9341533184 0.31728434563 -0.39473289251
1.8739081621 -0.49594599009 -0.48908555508
1.9525694847 -0.42355588078 -0.089041270316
-0.10937420279 -0.79322433472 -1.8326693773
0.31251576543 -0.6776201725 -1.8536703587
-0.29268538952 -1.097789526 -1.6459157467
-0.52040296793 -0.72355502844 -1.7904191017
-0.51531749964 -1.3364756107 -1.3953046799
0.039490368217 -1.3520321846 -1.4726409912
-0.63575780392 -0.29654425383 -1.8725281954
-0.91243577003 -0.69264632463 -1.6388163567
1.2425256968 1.4159053564 0.67156910896
1.2539491653 1.5322675705 0.28204551339
1.5418804884 1.2000540495 0.42673689127
1.4351330996 1.1125558615 0.83733874559
-0.12674878538 -1.7590157986 -0.94255226851
0.27800443769 -1.8725436926 -0.64503401518
-0.076210215688 -1.9455760717 -0.45717415214
0.24283057451 -1.9699161053 -0.24495126307
0.56780594587 -1.8833521605 -0.35892423987
-0.10843446106 -1.9948619604 -0.043696213514
-1.7750375271 -0.50868713856 -0.76813447475
-1.7463550568 -0.82534462214 -0.50803846121
-1.9100081921 -0.427477777 -0.41044747829
-1.5862605572 -0.87177282572 -0.84881192446
-1.5879101753 -0.57506549358 -1.0704861879
-1.153234601 -1.5497227907 -0.5177770853
-1.4771838188 -1.242923975 -0.51212900877
-1.228841424 -1.3111538887 -0.87383210659
1.7906022072 0.53560000658 -0.7117356658
1.851134181 0.69666880369 -0.29594522715
1.6721940041 0.8950612545 -0.63366383314
-0.99191689491 1.6335278749 -0.58957225084
-1.3110060692 1.4485869408 -0.42459881306
-0.99453991652 1.7245130539 -0.17665445805
-1.6865218878 -1.0704196692 0.043668970466
-1.5454922915 -1.1471191645 0.543612957
-1.7283570766 -0.84635907412 0.54432785511
-1.5146429539 -0.93288564682 0.91408646107
-1.6736814976 -0.56256735325 0.93863165379
-1.4978798628 0.30996277928 -1.2847914696
-1.3877526522 0.69026964903 -1.2638795376
-1.2871057987 1.0182467699 -1.1420658827
-1.5324460268 0.84764909744 -0.9659255743
-1.4579430819 1.117585659 -0.7896605134
-1.1627504826 0.4944036305 -1.5478978157
-1.2007539272 1.4000375271 -0.77313405275
-1.6086505651 1.1111938953 -0.41998696327
-1.6943430901 0.85020154715 -0.63754528761
-1.6783456802 1.0818730593 0.10602170229
-1.8199195862 0.80373483896 -0.20459282398
1.37966609 1.3884299994 -0.4104296267
1.2364282608 1.56762743 -0.11797210574
1.4805755615 1.343654871 0.049554131925
1.05047822 1.6329511404 -0.47901257873
1.6449561119 0.29567939043 -1.0984095335
1.3896169662 0.48068633676 -1.3536703587
1.4337723255 -0.020846264437 -1.3931511641
-1.8477232456 0.72946387529 0.22305680811
-1.7265847921 0.86418408155 0.52125686407
-1.761831522 0.56462740898 0.75818741322
-1.5693283081 0.86389946938 0.88919591904
-0.90759003162 1.6532990932 0.66523307562
-1.0832796097 1.641089201 0.36101585627
-1.2079125643 1.4423582554 0.6786788702
-1.2752604485 1.5365760326 0.093481272459
-1.3848980665 1.3993942738 0.351816535
-1.274445653 1.1792593002 0.9906950593
-0.903660357 1.5010137558 0.96414655447
-1.617287159 0.48197105527 1.0732035637
-1.5186879635 1.1615775824 0.58659046888
1.3762278557 -0.35911989212 -1.4057321548
0.9471141696 0.12030501664 -1.7568314075
0.64998745918 -0.28384912014 -1.870010972
0.52198624611 0.047783847898 -1.929937005
0.24478128552 -0.13794030249 -1.9795998335
0.1928704381 0.25447124243 -1.9743099213
0.8673967123 0.91454124451 -1.5527709723
0.85124063492 1.2836749554 -1.2752894163
0.50455379486 1.1312735081 -1.5700842142
0.49898529053 0.78189843893 -1.7718106508
1.0943347216 0.57889157534 -1.5709012747
0.8088312149 0.56639695168 -1.7392934561
-0.52581727505 -0.71784305573 1.7910465002
-0.64240449667 -0.28688052297 1.8710614443
-0.16506586969 -1.0836412907 1.6725392342
-0.60119974613 -1.0692337751 1.5774894953
-1.9424908161 0.44697493315 -0.16302263737
-1.85006392 0.5660469532 -0.50653731823
0.55328124762 0.39057710767 -1.8819309473
0.17100377381 0.62413084507 -1.892398715
0.092018768191 0.97844278812 -1.7413976192
-1.1670590639 -0.046805605292 1.6226142645
-1.4552681446 0.21292135119 1.3552772999
-1.4798518419 -0.24452143908 1.3227475882
-1.7017250061 0.035789694637 1.0498265028
-1.3956842422 0.68915468454 1.2528697252
-1.1814103127 0.46775618196 1.5444796085
-0.77969944477 -1.7657413483 -0.52360916138
-0.93710112572 -1.7579028606 -0.15883249044
-0.39324384928 -1.8599200249 -0.62142926455
-0.58992373943 -1.721752882 -0.82911288738
-0.50323730707 -1.9141198397 -0.27584329247
-0.91659194231 -1.5468577147 -0.8755671382
-1.4166710377 -0.67460042238 1.240197897
-1.2312438488 -0.46748885512 1.5050048828
-1.0888160467 -0.77071154118 1.4896665812
-0.59099119902 -1.5557246208 -1.1094796658
1.9950393438 -0.057056061924 0.12549029291
1.9173190594 -0.115326792 0.55710601807
1.9209477901 -0.43835100532 0.34304469824
1.8111293316 -0.44566145539 0.72190707922
1.751639843 -0.11382845789 0.95818430185
1.7619513273 -0.78770494461 0.52348160744
1.6890673637 -1.0648926497 -0.11011311412
1.8383284807 -0.75117397308 -0.23763824999
1.8602596521 -0.72459340096 0.11934978515
0.22508974373 -1.1208792925 1.6407988071
0.082030043006 -1.3803445101 1.4449306726
0.47661975026 -1.373056531 1.3730045557
-0.69040805101 1.8131581545 -0.48543095589
-0.58876335621 1.7256603241 -0.82176196575
-0.34567913413 1.862955451 -0.64011865854
-0.44518187642 1.9310534 -0.26233878732
-0.17505736649 1.7277041674 -0.99128460884
0.48516723514 -1.9189431667 0.28602972627
0.6767885685 -1.804389596 0.53374934196
0.37052476406 -1.8360182047 0.70093512535
0.62347841263 -1.6640281677 0.91551017761
-0.33812457323 -1.3776011467 1.4075376987
-0.50032496452 1.5869380236 -1.1094808578
-0.85957986116 1.5413583517 -0.94078296423
1.6797156334 -0.94410705566 -0.53080320358
0.10093799978 -0.81880819798 1.8217021227
-0.17881308496 -0.72109621763 1.8567894697
0.035343337804 -0.52245044708 1.9301960468
0.38438901305 -0.53690624237 1.8876838684
0.16582249105 -0.24296668172 1.9779865742
-1.9440817833 -0.44142332673 0.16056418419
-1.8525710106 -0.72826355696 0.19338031113
-1.8588277102 -0.54908454418 0.49282985926
-1.8987668753 -0.60708391666 -0.1411550045
-0.22194671631 1.7449702024 0.9500849843
-0.36011564732 1.8594121933 0.64247095585
-0.58786475658 1.7168427706 0.84054416418
-0.66507685184 1.805535078 0.54539763927
-0.5355360508 1.9093238115 0.25802284479
-0.55609297752 1.5523680449 1.1317954063
-1.6358634233 -0.27789449692 -1.1165077686
-1.4304195642 -0.35301211476 -1.3526997566
-1.501971364 -0.053988941014 -1.3196797371
-1.1882631779 -0.070223458111 -1.6065239906
-1.215534091 -0.53316414356 -1.4961125851
-1.3853843212 -0.6737267375 -1.27511549
0.01141777914 1.9064170122 0.60255795717
-1.387668252 -0.9143974185 -1.1123160124
-0.8199877739 1.7989208698 0.30028545856
0.86737823486 1.3728215694 1.167489171
1.0345108509 1.1137264967 1.2997711897
1.165273428 1.2667371035 1.0186145306
1.323985219 0.9694955945 1.1432894468
1.1446090937 0.84697538614 1.4044955969
0.73914265633 1.1864229441 1.4303128719
0.87701457739 0.91170531511 1.5490306616
1.1332709789 1.2822197676 -1.0347803831
1.1994271278 1.4226435423 -0.73294174671
0.94477647543 1.5224477053 -0.88853240013
-0.05477283895 -1.9195991755 0.55859881639
-0.29272836447 -1.8380250931 0.73198884726
-0.54959362745 -1.8925434351 0.33010670543
-0.5615708828 -1.7096576691 0.86982524395
-0.18215680122 -1.7216120958 1.001137495
0.048777095973 -1.8156386614 0.83699983358
0.18676094711 -1.6599936485 1.0960390568
-0.43392196298 -1.5785974264 1.1485081911
-0.12124674022 -1.5617469549 1.2434130907
1.5719465017 0.084059774876 1.2336007357
1.7086720467 0.2642737329 1.0052098036
1.5505529642 0.39766052365 1.1988637447
1.6294168234 0.62642735243 0.97400701046
1.4616696835 -1.3649693727 -0.0082891769707
1.4287952185 -1.3523262739 -0.35363808274
[...]
CELL_DATA 1008
SCALARS cell_data_0 double
LOOKUP_TABLE default
1.67082987375e-08
5.26269297598e-08
1.04868634644e-08
7.78338606261e-09
2.51094661649e-08
2.2243629892e-08
1.37355127234e-08
2.00969859169e-08
8.10316556252e-10
1.47996058845e-08
2.86885205989e-08
6.1177010717e-10
3.7990638937e-08
1.37533392463e-08
6.99358166619e-09
4.46395942591e-08
1.90122929917e-08
3.82913554446e-08
3.72503913236e-08
1.08110969001e-08
2.09198536274e-08
1.39054614487e-08
1.50075675893e-08
1.15641294577e-08
8.09098301361e-09
1.21768549061e-08
1.49912633936e-08
1.40363517899e-08
3.42850896578e-09
1.40854079286e-08
1.11713455471e-08
4.68256284392e-09
8.7909418634e-09
7.29931725391e-09
8.65212512547e-09
1.23117448299e-08
1.97661666816e-08
5.70164342921e-09
1.78542278946e-08
3.56990324069e-08
1.48388607803e-08
1.72080143531e-08
5.05959339425e-08
3.31064788546e-08
1.46303243702e-08
8.57125770516e-09
8.03040317399e-09
4.19885827841e-09
3.52871890797e-08
2.42282357527e-08
4.49857679488e-09
3.96624172741e-08
5.20478516018e-08
8.01704132457e-09
1.01796513297e-08
1.10106293215e-08
3.11821002917e-09
4.09745926004e-08
7.67564238971e-08
1.8771259247e-08
7.98045268388e-09
3.12208939262e-08
3.33372784603e-09
6.26387547711e-08
7.11923049321e-09
2.81306629412e-08
5.20994010356e-09
1.94778666635e-08
3.60859804289e-08
2.57034954895e-08
1.14848027941e-08
4.97877475218e-08
2.36504000901e-08
1.60169992933e-08
2.6925633823e-08
8.00223272368e-09
5.27512391896e-08
2.10631042368e-08
4.28332596979e-09
9.80656628096e-09
2.29246469279e-08
2.13908246919e-08
1.23937937643e-08
2.79001544032e-08
2.18170637819e-10
1.60601754524e-09
6.26060843544e-09
1.75100655056e-08
1.40056067699e-08
2.29920412954e-08
1.34095936709e-08
2.69841238242e-09
1.50348366698e-08
1.0824448739e-08
7.94814957617e-09
4.47855376008e-08
9.77430010711e-09
1.04527331429e-09
4.7311654586e-08
2.92372885535e-08
3.1533692692e-08
2.11473716127e-08
1.81619612653e-08
6.36145438058e-09
2.4428653548e-08
2.13598786407e-09
2.35668952809e-08
4.68050042185e-08
6.70674581588e-09
1.30992393957e-08
5.69909755994e-08
4.27577822465e-08
1.42632376303e-08
9.61734361455e-09
1.87647796704e-08
3.92324067183e-08
4.41792480445e-08
6.68088491246e-08
7.31060073267e-11
3.6771309352e-09
1.59927071503e-08
6.07486714926e-09
7.03342728868e-10
4.6067572527e-08
3.79800301792e-08
7.95125837359e-09
3.65862194981e-09
1.89554241853e-08
2.27872375101e-08
3.32520783835e-08
2.40030530886e-08
1.64744497635e-08
2.8767676966e-09
1.25816544974e-08
9.28829301518e-09
1.52279905822e-09
8.77525898475e-09
1.89546190805e-08
5.85407519656e-08
2.42755346182e-08
3.91570942504e-08
5.16036239903e-08
2.55323348741e-08
5.48911714495e-08
5.47301485155e-10
7.29119855745e-09
1.98833194828e-08
9.34692417631e-09
5.39367409297e-09
5.85860078491e-08
1.05964492106e-08
1.08643196893e-08
4.32948156102e-08
2.63362714086e-08
4.80702934804e-09
3.00331075984e-09
5.0014368796e-11
1.84246356171e-08
3.73947299998e-08
1.14774027747e-08
4.00252262699e-09
2.37520972483e-08
1.0918000852e-08
4.26799181085e-08
4.20187613118e-08
1.46788042504e-08
1.82625868982e-08
7.36373946041e-09
1.52967821937e-08
1.24167714821e-08
2.74979830795e-08
2.65279016693e-09
2.17038507952e-09
1.13894732356e-08
8.687957615e-09
2.99421868229e-08
2.80022361221e-09
9.46247954703e-09
4.57165317013e-09
3.52898966259e-08
1.64649325173e-08
1.17865944574e-08
1.46070452232e-08
1.58993366577e-08
4.37439766352e-08
7.27910394335e-09
1.20692048544e-08
1.73874165326e-08
1.44270116979e-08
6.58990171831e-09
2.10355057976e-08
5.09673626778e-08
7.59870024107e-09
2.25805619293e-09
1.17056823549e-08
7.49377812589e-09
3.5078343085e-09
2.77521668849e-08
1.06648759502e-10
2.72610804822e-10
1.28196703386e-08
1.32432669211e-08
2.05289269968e-08
5.65281277777e-09
1.55053050824e-08
1.20201521286e-08
1.26945603183e-08
1.71078952857e-08
4.14620324913e-09
7.97686242349e-09
1.59532600339e-08
1.80811285214e-09
2.53859055749e-08
3.0950369897e-08
1.60955775226e-08
7.16757088897e-09
5.10657623494e-09
1.17922445564e-09
3.00829785338e-08
5.03648032795e-08
1.93094115667e-08
2.66785075112e-08
1.99860126552e-08
7.18299296388e-08
4.20201177598e-08
5.68822371715e-08
1.25240303281e-08
7.62527369797e-09
3.11218071495e-08
1.78909396505e-08
1.75999708341e-08
9.30718644788e-09
3.48582747089e-09
6.59116980815e-09
9.69058787879e-09
6.83852966396e-09
2.94610053005e-09
6.35420951512e-09
9.86289351861e-09
1.66732667756e-08
6.77839375366e-09
1.57311935796e-08
1.34472695423e-08
4.22554031496e-09
2.07290288929e-09
6.22169753944e-08
1.08919714297e-08
8.33637778588e-10
1.56222168864e-08
2.18462434556e-10
6.53525882355e-08
7.85737741873e-09
5.56923884003e-09
1.41917093864e-09
2.39465313374e-09
8.39026977447e-10
9.94427343847e-09
8.61223715071e-09
5.76200286099e-09
7.68647471128e-09
7.743864107e-09
1.00150823343e-08
2.51045682941e-08
4.15290991881e-08
6.00104320492e-09
3.03998390724e-11
3.24863779335e-08
1.01053495121e-10
2.20602625131e-08
8.04854657827e-10
2.22259230187e-08
2.05695301452e-08
2.65995108155e-08
5.99788258924e-10
2.26194553381e-09
6.11426007299e-09
1.50841822527e-08
7.69981637636e-09
2.58145206766e-09
9.4580677262e-09
7.07563193025e-09
7.57814051499e-09
1.24031357622e-08
1.24241774186e-08
3.17488383089e-10
7.07612154301e-10
1.31703112251e-08
1.98570802957e-08
1.64131540963e-08
1.82882194676e-08
1.16993823631e-08
1.82190319126e-08
6.05434227241e-09
2.46255662492e-08
2.90680766666e-09
1.49544424993e-08
1.37645114976e-08
5.73405649592e-11
1.28808886086e-08
2.2273374807e-08
2.87067566966e-08
1.36429573045e-08
5.06463397051e-10
1.23824128018e-08
2.53894790913e-08
2.34290004511e-10
4.4969703361e-09
3.77070299352e-08
2.52859223986e-09
1.11217113281e-08
5.39086936153e-09
3.9205825126e-08
1.03345719597e-08
1.05320100783e-08
5.5217997735e-09
2.46563966437e-10
1.26230322947e-08
1.13150273792e-08
1.25024027468e-08
4.50236035566e-09
2.06637584563e-09
1.62061416634e-08
9.23393111194e-09
6.38747618202e-08
5.05050907567e-08
3.14021032884e-08
8.38069987761e-09
3.32617449204e-08
6.04570560475e-09
2.14055246645e-08
2.43082373867e-08
1.89914467929e-08
9.26357285312e-09
9.46131578071e-09
2.38642552094e-08
1.53448741115e-08
9.39595575471e-09
1.50957682175e-09
3.24268738105e-08
8.31836183283e-10
3.92623166321e-09
9.1946712979e-09
1.17319696601e-08
8.23706514489e-09
2.28800900002e-08
5.08958749965e-09
1.25474071595e-09
2.01201796687e-08
2.37020666587e-08
9.98780754986e-09
9.59386947235e-09
7.03771473224e-09
7.08318285003e-10
9.70712072221e-09
7.17725641949e-09
9.24245115241e-09
5.23487300194e-09
9.49199998833e-09
6.12702359133e-09
1.67390260707e-09
8.9962338456e-09
1.92049059131e-08
1.11580428635e-08
2.85294471606e-08
3.30693487458e-08
3.38602327101e-09
1.06105788535e-08
2.77899439905e-09
3.54823296047e-09
1.10229825539e-09
3.14637445426e-10
3.60226392964e-08
5.18914337267e-10
3.03229134847e-09
1.84012565747e-09
8.70322613153e-09
3.98945942889e-09
1.78781057444e-09
1.43353534323e-08
9.82622329924e-09
3.19713805269e-10
8.7530461885e-09
6.58622428542e-09
5.8147776496e-09
1.43659864454e-08
4.35941486825e-09
9.65098696341e-09
3.78075893223e-09
1.23221261378e-08
2.24831252252e-08
4.7767404144e-09
2.17594813211e-08
3.82701960787e-09
1.15641593376e-09
5.91263874026e-09
1.83274428439e-08
1.90365729517e-09
7.54332427053e-09
3.93572249692e-09
1.02735127892e-08
1.99817724005e-08
1.05384161395e-08
3.07446126093e-09
5.75987382292e-09
1.39452575809e-10
4.10430320088e-09
5.57374510892e-09
4.1579081257e-08
8.85174775902e-11
1.30079719963e-08
3.07198896229e-09
4.59205455441e-09
3.32259841781e-09
3.72337490697e-09
6.88486904047e-09
3.68275974255e-08
1.59120109923e-08
5.61250401135e-09
1.23509374584e-08
7.91136994293e-09
4.66722111176e-09
1.14620644946e-08
4.96499980073e-09
6.84158903421e-09
2.61538786335e-09
1.7880366875e-08
1.65972327734e-09
1.07129847631e-08
1.65726999924e-08
1.65499282523e-08
1.07460607822e-08
1.20181718847e-08
3.77645373775e-10
7.09991028014e-09
1.09055393152e-08
7.72870876485e-09
3.98062106505e-09
1.66709919452e-08
3.04639950051e-08
1.40130460284e-09
1.42583468021e-08
6.10744699081e-09
3.54602532754e-09
4.05956059646e-09
6.5199753112e-09
1.27282404675e-08
4.80656426549e-09
4.54468903606e-09
1.99864585701e-08
6.70973486546e-10
3.89793713733e-09
3.81528153466e-09
2.36662064349e-08
4.74885033976e-09
2.9097768141e-09
3.97664696147e-09
8.85639660079e-10
3.62815994105e-09
3.02535179173e-08
2.27907296247e-09
6.00053422256e-09
1.01735489797e-08
1.28062525899e-09
1.20675986345e-08
1.64480531843e-08
6.14126554844e-09
1.29085252222e-09
8.29412147797e-10
6.74340599793e-09
9.43332664256e-09
4.56520693336e-10
1.33725032819e-08
8.19352994906e-09
2.27001572757e-09
4.96124143565e-09
5.70415638878e-09
5.75019227709e-09
9.51759976973e-09
6.60928401369e-11
3.79189072188e-09
6.24248724033e-09
2.25218388429e-08
1.03321816649e-08
5.71118507993e-09
8.51796342475e-09
1.42642020826e-08
1.62411421139e-10
6.98075630818e-09
1.03496953013e-09
2.06618412017e-09
1.56652076215e-08
2.4359698149e-09
9.53755055227e-09
2.69883181423e-08
4.54620973156e-10
1.13612022051e-09
9.99726717608e-09
8.24406648522e-09
1.19078229901e-08
1.69390581581e-08
8.79634229353e-09
5.14594448962e-09
1.33016420271e-09
1.65874406964e-08
4.47582378736e-10
7.52549109985e-09
1.2263932334e-08
4.7254417052e-09
9.39867684824e-09
4.39869662198e-09
3.26913352358e-08
6.25539511946e-09
1.37070114596e-08
1.32515281476e-08
1.76462992201e-09
6.94174345691e-10
5.52344780938e-09
1.04731289073e-08
1.20392445272e-08
9.47791104033e-09
7.91825225775e-09
2.18222263766e-09
9.10810764115e-09
8.38954240452e-10
2.09443409484e-08
1.85937329593e-08
1.9352589815e-09
1.17118204699e-08
2.02636735077e-08
1.46146752145e-08
1.34392760546e-08
1.32171964571e-09
1.96510619979e-08
3.92116185328e-09
1.22498410649e-09
8.8585035571e-09
2.68031638001e-09
8.23772539512e-09
1.7356783751e-09
5.98517756888e-09
8.30220072468e-09
3.55478957983e-09
1.13453072704e-08
6.46096207963e-09
4.38494246453e-09
2.70581255159e-09
1.27557859396e-08
1.07423860368e-08
2.85582607752e-09
1.25582613e-09
3.96165306577e-09
1.13778254621e-08
9.43428199338e-09
1.05480115908e-08
2.74129964958e-09
1.33958665544e-08
1.00142307104e-08
2.54069768972e-09
9.2300954747e-09
4.40948002203e-09
4.70934122456e-09
2.61262222927e-08
7.2886676089e-09
3.46463808808e-09
5.48915804597e-09
1.29148727043e-08
7.33917764441e-09
4.91409863633e-09
1.10765495604e-08
2.09065997529e-09
6.87904566475e-09
8.31177800104e-09
1.32265411239e-08
3.53863714565e-09
4.50455892923e-09
4.6492506538e-09
1.06993012979e-08
5.7390802111e-09
3.71715341103e-09
4.36043362184e-10
4.93709063949e-09
1.25563520444e-08
7.40280900692e-09
7.13344778814e-10
1.73699529063e-08
1.8898888477e-08
2.51490170233e-08
1.32780691798e-08
1.73647446983e-08
3.87246819022e-09
9.02119484572e-09
1.58444360773e-10
1.06442575816e-08
9.36923748928e-09
3.68565862461e-09
2.37650484027e-09
1.34148911325e-08
4.70270677588e-09
2.19622286412e-08
4.93951558296e-09
4.00148998863e-09
2.26154752613e-09
6.94303431866e-09
1.57835386601e-08
9.43839550285e-09
1.1097668519e-08
7.21704809375e-10
6.45905905737e-09
5.09729181516e-09
1.13649762186e-09
7.24306779458e-10
8.05470964984e-09
1.72383746521e-08
1.22298720051e-08
1.53778337593e-09
2.48204742984e-09
7.60558030651e-09
9.95714311128e-10
3.3169544055e-09
8.15290456255e-09
5.57114732782e-09
1.0256648508e-08
1.09000613713e-08
7.33960073013e-09
6.44553355925e-09
5.24137527968e-09
7.17439597474e-09
1.73704989048e-08
2.26367458289e-08
4.44222074828e-09
5.77268208841e-09
7.68052166196e-09
2.94083967964e-10
2.64511298408e-09
7.73721329992e-09
5.35445324667e-09
7.08034321415e-09
2.99283587051e-09
6.25262778028e-09
7.58047842646e-09
1.08468484006e-08
3.54865652064e-09
3.35200748292e-09
7.33946853626e-10
5.59117883613e-09
3.72496932135e-09
1.44039672075e-08
1.48519875973e-09
1.25424469746e-08
4.2184341364e-09
6.82383796536e-09
9.66439962635e-09
2.87583530679e-08
2.08838332347e-08
2.19352086995e-08
1.34285958477e-08
2.17606126743e-09
9.44190130449e-09
3.42829916302e-09
2.82651557157e-10
2.7372000336e-11
5.49461195143e-09
9.396101819e-09
1.95880861522e-09
1.58107519213e-09
2.49868619585e-09
3.14744108523e-09
3.61236821428e-09
1.39547579788e-08
6.31214936103e-09
1.2868360127e-08
8.23967327278e-09
8.33145801389e-09
1.18666526489e-08
3.42759616886e-09
1.72004564661e-08
1.37657161639e-08
1.46555591187e-08
1.47205204444e-08
1.36035206525e-08
4.9718914237e-09
2.93018679695e-09
5.18237557396e-09
1.96450798083e-08
3.37367497374e-09
1.51896648314e-09
9.26276832034e-10
7.00132397011e-09
8.98830358299e-09
3.39523876944e-08
3.57622830102e-09
9.58383528662e-09
1.38936889214e-08
1.09897765947e-08
4.39624743176e-09
9.17495333065e-09
9.0833219049e-09
1.77338065327e-08
6.23236806689e-09
3.25719220006e-09
7.45921417093e-09
6.9303163983e-09
5.9806342049e-09
1.65131042504e-08
2.01695123802e-08
6.88868329572e-10
3.0582709417e-09
1.11585462638e-09
4.43701480205e-09
1.27742778769e-08
1.15987698275e-08
2.12851959268e-08
5.04503973818e-09
4.92498672942e-11
2.03287395335e-09
1.27713864302e-08
7.33858083314e-09
3.98822895196e-09
1.09722952871e-08
6.35986659836e-09
4.04655660971e-09
5.3192754408e-09
6.82320353788e-09
6.97003703732e-09
1.85143143971e-09
2.11713136724e-09
9.07374890382e-09
5.30532206442e-09
7.95924976087e-09
6.04140249015e-09
6.22624433072e-09
1.38283681885e-09
2.34814603734e-11
5.41971723447e-09
1.41029360735e-08
7.21274194297e-09
1.19900514369e-09
2.90657347709e-08
7.67242052043e-09
3.12486412767e-10
8.33904972527e-09
1.41315454491e-08
1.03011997796e-08
3.80602202474e-09
5.34614856983e-09
1.18515043166e-08
9.08703368748e-09
1.31411833667e-09
5.38183369069e-09
1.44643513053e-08
8.77714730221e-09
1.39856420907e-09
9.72634018724e-09
7.53525450061e-09
2.34918863151e-10
4.58500613016e-10
4.03217373024e-08
1.93945351309e-08
7.80775061897e-09
1.9543869171e-08
8.1965818053e-09
8.50476207278e-09
2.4656205632e-08
9.28654482797e-09
1.50870253878e-08
1.17756143869e-08
1.20888898405e-08
7.4621262092e-09
2.54458120966e-09
6.43398893562e-09
1.9681201033e-08
8.25287361272e-10
2.99904717091e-09
7.15575234308e-10
6.01380286597e-09
1.88050204011e-09
8.71676766973e-10
4.62799051419e-09
2.70800023934e-09
5.76648402488e-09
5.06885675013e-09
1.4348300465e-08
3.40898895191e-09
2.22863166609e-08
4.34249409785e-10
9.21560010236e-09
1.42222963059e-08
6.67383011975e-09
2.24256493106e-09
6.10448502013e-09
1.79059164151e-08
1.55351323235e-08
8.30525317357e-09
1.05745018945e-09
4.60092204044e-09
7.13160374232e-09
2.52298350198e-09
1.97810403337e-08
2.58723396984e-09
3.1722454754e-08
1.74135591962e-08
4.25000498618e-08
8.64437053903e-10
5.31409394661e-09
3.99228271007e-09
1.29198422134e-08
4.91958308181e-09
3.02108599486e-09
2.55465939999e-09
3.54064194327e-09
9.99624017433e-10
2.76166982854e-09
1.07221595456e-08
4.38220680779e-09
8.90320149171e-09
2.27292346745e-09
9.55409505152e-10
2.71482399406e-09
6.42530792032e-09
1.02907916115e-08
9.97031985582e-09
1.59893955338e-09
3.93854961957e-09
1.6913993586e-08
8.86268662027e-09
5.19827634385e-09
7.3986979185e-09
1.16427092051e-08
8.82543243184e-10
1.41500332402e-09
3.13307558305e-09
1.30743024492e-08
1.5984704675e-08
4.18276709861e-09
4.68521463287e-09
1.70797711569e-08
8.76110489162e-09
1.74427121488e-10
7.7598190485e-09
1.40943039807e-09
5.82679940349e-09
6.26222130399e-09
1.01437504913e-08
4.86482413078e-09
7.01293776512e-10
4.12783037656e-09
8.88833809142e-09
1.85666047703e-09
9.07314885728e-09
1.19260862624e-10
8.02423861894e-09
6.78770121707e-09
9.16001800001e-09
1.34799663222e-10
7.79091342426e-09
5.15718610244e-09
2.31972232091e-09
2.34558565e-09
4.01542619266e-09
1.58012138609e-10
2.70399093273e-10
7.75935486935e-10
8.60122086769e-09
6.00546237975e-09
4.8364411824e-09
4.87565609555e-09
6.23153312155e-09
3.26481676521e-09
1.11535685359e-08
2.68073821688e-08
3.07194554518e-09
2.21568827804e-09
4.62825364644e-09
3.70162044722e-09
4.39025699146e-09
2.12494361142e-09
1.90128825945e-09
5.12067806656e-09
4.40999167731e-10
5.7792845416e-09
4.54900030184e-09
1.47061572248e-09
8.76981318238e-09
4.15342084716e-09
5.57064102938e-09
1.50755994162e-09
8.83616201798e-09
3.55565218296e-09
1.26710623582e-08
2.82386935275e-09
1.55640705154e-08
3.19794997467e-09
1.40387729174e-08
7.66182447929e-08
5.47720033802e-09
4.5145565511e-08
9.5946268503e-09
1.9194961358e-10
5.25009877558e-09
1.21294095563e-08
7.46685692194e-09
5.05856197564e-10
5.68631174743e-09
7.82133374928e-09
2.39381102411e-09
5.00441274798e-09
2.16712833291e-09
2.72949574751e-09
4.7970056097e-09
8.14795665112e-09
1.1784439098e-08
1.99761716696e-10
9.59957648285e-09
5.05451312282e-09
1.94494114707e-08
5.64621666011e-09
1.44452321702e-08
8.72021114428e-09
6.21860632886e-09
2.9552307793e-09
5.99472868695e-09
9.61401919957e-09
1.29096894783e-08
5.22957143966e-09
5.22182879004e-09
4.68601494275e-09
5.65989828043e-09
3.3631730103e-09
6.05278332555e-09
2.59490026092e-10
8.66059070698e-09
3.90243440911e-09
1.48047831315e-08
4.74435391698e-09
9.59178841949e-09
6.24136891652e-09
2.20406155177e-10
1.89546106309e-09
5.37822987115e-09
2.91960333771e-10
4.01437928741e-08
9.52370857405e-09
4.1030435521e-09
7.64486218354e-09
6.5486918122e-09
6.54773292437e-09
7.89051416718e-09
1.17060627356e-09
2.14324520457e-09
1.20895973204e-08
5.67474232528e-10
4.76919999628e-09
1.55505847712e-09
3.89696270114e-09
1.38214414231e-09
2.39145629791e-09
1.97281284363e-08
1.73314685314e-08
2.08521936052e-08
1.52144982814e-08
2.04995024504e-09
3.79222063238e-09
3.48623072675e-09
2.78077650934e-09
1.47311474032e-08
1.36283755076e-08
1.39102068007e-08
1.63093368591e-08
2.0557206675e-08
7.58114065543e-09
1.78683581247e-08
8.01533380082e-09
9.67413049135e-09
3.86046025466e-08
6.03069929964e-09
6.77019341186e-09
2.12600068065e-09
1.11231990331e-09
5.37013762175e-09
1.57839850698e-09
1.25641569518e-09
7.56620523904e-09
2.6002901616e-09
7.46378501308e-10
9.11049959103e-10
8.46785095485e-09
2.35235627733e-08
1.14517427256e-08
8.85174716879e-09
1.18648093396e-08
4.65242352249e-09
1.32572235435e-08
5.5013774635e-09
4.4063787397e-11
1.75258269892e-08
9.4480854248e-09
7.88249138475e-09
3.70057928277e-09
1.3351045447e-08
4.01863478276e-09
1.67340411306e-08
4.28537815338e-10
4.24195178371e-09
9.13607573668e-09
4.74839123256e-09
7.6242440007e-09
4.73314992833e-09
6.37425603108e-09

