# vtk DataFile Version 3.0
File Name: Molecule/sphere_cent/sphere_cent_0-s18.vtk
ASCII
DATASET UNSTRUCTURED_GRID
FIELD FieldData 1
TIME 1 1 double
0.0
POINTS 279 double
0.68357372284 -1.017375946 -1.5803971291
0.17078123987 -1.0789254904 -1.6751544476
0.34838333726 -0.62672168016 -1.8669604063
1.5561920404 0.72039437294 -1.0287430286
1.2186024189 0.90008944273 -1.3053424358
1.3594363928 1.1798719168 -0.86680877209
-1.9349666834 0.21066175401 0.45824933052
-1.9111459255 -0.25614705682 0.52624583244
-1.7303854227 0.009706094861 1.0018310547
-1.9993462563 -0.02277139388 -0.031690064818
-1.6690633297 -0.53037571907 0.96307581663
0.044764649123 1.9994645119 0.00078443449456
-0.44375023246 1.933033824 -0.25235632062
-0.49119102955 1.9204357862 0.25885391235
-0.97195196152 1.7439149618 -0.10931476206
-1.2874964476 1.1685560942 0.98674398661
-1.0776460171 0.90182983875 1.4224230051
-0.83563399315 1.3222322464 1.2439725399
-0.5742662549 0.98228383064 1.6447691917
1.0358110666 -1.5856333971 -0.64220380783
1.0238802433 -1.7144247293 0.020346321166
0.66807210445 -1.8532861471 -0.34414941072
0.47302514315 -1.9261212349 0.24720548093
-0.50324958563 -1.918456316 -0.25265958905
-0.58193522692 -1.888822794 0.3059270978
-0.95474874973 -1.7533558607 -0.11339110136
-0.091694153845 -1.9973247051 0.042084183544
-0.97072553635 -1.6065813303 0.68971794844
-0.5149834156 -1.7220914364 0.87185049057
-0.05355508253 -1.9261497259 0.52739912271
-0.86951029301 -1.3705786467 1.1683715582
-1.2778675556 -1.2679663897 0.87071937323
-1.1530716419 -0.93929994106 1.3360748291
-0.67018985748 -1.0454069376 1.5674468279
-0.37310230732 -1.4026989937 1.3731529713
-0.10429263115 -1.0696927309 1.6846942902
-1.9222946167 -0.18694789708 -0.51939821243
-1.9019379616 0.24220363796 -0.56815671921
-1.7338573933 0.011445583776 -0.99449461699
-1.6805140972 0.51178985834 -0.95522475243
-0.58523845673 0.98807686567 -1.63725245
-1.0481851101 0.87049359083 -1.4639687538
-0.84763669968 1.3068922758 -1.2536077499
-0.73685598373 -1.0384371281 -1.5422720909
-0.89417332411 -1.3180490732 -1.2091969252
-1.1834031343 -0.91417813301 -1.3266532421
-1.2778106928 -1.2421585321 -0.9074255228
1.0467134714 0.00048321275972 1.704223752
0.89498221874 -0.50485271215 1.7157284021
1.3725848198 -0.3160572648 1.4199692011
1.1767957211 -0.87388426065 1.3606114388
0.69096893072 -1.0049885511 1.5844078064
1.5629587173 -0.66220456362 1.0576561689
0.92041963339 -1.334658742 1.1707837582
1.371811986 -1.1568491459 0.88305360079
1.0479989052 -1.569858551 0.65912634134
1.7226874828 -0.85683500767 0.54453581572
1.455945611 -1.322389245 0.35178679228
1.7069813013 -1.039622426 -0.040663927794
1.7279317379 -0.10631880909 0.99897426367
1.3643565178 0.27013686299 1.4324429035
0.84808290005 0.49885636568 1.7411720753
0.3772187531 -0.51823830605 1.8933806419
0.5588119626 0.023911150172 1.9201302528
0.55684870481 0.96734052896 1.6571065187
0.28066968918 0.54693800211 1.903138876
-0.0022639150266 0.04604222998 1.9993566275
0.90744149685 -1.3482530117 -1.1656428576
0.41471356153 -1.4236795902 -1.342086792
0.57827705145 -1.6764411926 -0.92479223013
-0.076034918427 -1.7143706083 -1.0269762278
-0.2859198153 0.56667715311 -1.8965361118
-0.0048911143094 1.0192425251 -1.7208348513
0.18852731586 0.61491698027 -1.8934758902
-0.086583860219 0.047159392387 -1.996833086
-0.5173766017 0.088886775076 -1.9281240702
-0.79531651735 0.5417971015 -1.7518149614
0.52880901098 1.0803291798 -1.5968444347
0.26829952002 1.4350717068 -1.3666149378
-0.27708142996 1.365690589 -1.4345469475
-0.10793420672 1.7212098837 -1.0124762058
-0.25313267112 -0.3718623817 -1.9485436678
1.1811401844 0.80748319626 1.3926304579
0.82098889351 1.3657823801 -1.2050157785
0.47805342078 1.7432113886 -0.85575824976
0.98005825281 1.6573257446 -0.53636091948
0.54135364294 1.9043740034 -0.28347724676
0.92152005434 1.7747820616 0.025973659009
0.52315419912 1.9102592468 0.27735128999
0.91895902157 1.6975876093 0.51882755756
0.082284785807 1.9299446344 -0.51800054312
0.076598502696 1.9294434786 0.52067661285
0.44315436482 1.7562307119 0.8426810503
-0.26843246818 1.3617298603 1.4399983883
0.0017962529091 1.0084438324 1.7271437645
0.24615010619 1.4199120998 1.3838818073
-0.78458398581 0.54229933023 1.7559748888
-0.27670177817 0.55683749914 1.9008721113
-0.50560510159 0.08004835248 1.9310078621
-0.29445835948 -0.40898409486 1.9338076115
1.9964495897 -0.034774921834 0.10754971206
1.9270896912 0.52303391695 0.11288016289
1.8994162083 0.31350630522 0.53485029936
1.7645472288 0.7926325202 0.50803399086
1.7203943729 1.019323349 -0.022794326767
1.0097692013 0.046909309924 -1.72567904
1.3307760954 -0.42043170333 -1.4325950146
0.92757284641 -0.56212770939 -1.6805030107
1.1712504625 -0.90892577171 -1.342384696
1.5793675184 -0.67523884773 -1.0243462324
1.6569030285 -0.96119743586 -0.57488709688
1.3379614353 -1.188980341 -0.8922020793
1.4343203306 -1.345572114 -0.35691055655
1.8689558506 -0.51504307985 -0.4883440733
1.6369199753 -0.12868028879 -1.1413232088
1.8160457611 -0.24510166049 -0.80074256659
1.8337239027 0.14210247993 -0.78536850214
1.9490561485 -0.090724982321 -0.43570023775
1.9384815693 0.33555886149 -0.35721033812
1.9470202923 -0.44885918498 -0.070656836033
1.634221077 0.60595417023 0.97477203608
1.4286623001 1.0747939348 0.8907520771
-0.12188361585 -0.79216378927 -1.8322685957
-0.29914605618 -1.0944191217 -1.647036314
-0.52385139465 -0.72786808014 -1.7876148224
-0.42913660407 -1.3750413656 -1.387599349
-0.029883055016 -1.3924738169 -1.4354794025
-0.70027124882 -0.31337869167 -1.8470880985
-0.90570759773 -0.61336785555 -1.6743806601
-1.1535238028 -0.078474320471 -1.6312701702
1.2299517393 1.4169155359 0.69238525629
1.2678846121 1.5190585852 0.28974553943
1.5402437449 1.1975432634 0.43992009759
0.27834433317 -1.8712275028 -0.64956742525
-0.064154446125 -1.9428993464 -0.47077941895
0.26422283053 -1.9704159498 -0.21839277446
-1.3630697727 -1.4612135887 -0.084918946028
-1.1139849424 -1.5675154924 -0.54761427641
-1.512776494 -1.2208231688 -0.46997702122
-1.6880556345 -1.0724546909 0.0086218314245
-1.3638002872 -1.4167891741 0.36395290494
-1.0684450865 -1.6693474054 0.26680237055
-1.7787573338 -0.51561808586 -0.75510650873
-1.9053788185 -0.57735294104 -0.18882542849
-1.7375911474 -0.85978055 -0.49115166068
-1.551369071 -0.89582914114 -0.8893096447
-1.5825389624 -0.54938983917 -1.0918605328
1.7902480364 0.53896981478 -0.71038877964
1.8481224775 0.70652145147 -0.29180705547
1.6619127989 0.95703583956 -0.56735128164
1.4339495897 1.3399789333 -0.38404563069
-0.97975951433 1.6356385946 -0.60304361582
-1.3440762758 1.4367539883 -0.35834622383
-1.5626308918 -1.1340250969 0.52185946703
-1.7396087646 -0.83796036243 0.51995193958
-1.5198822021 -0.93446338177 0.90353012085
-1.4602925777 0.31018176675 -1.3306713104
-1.246186614 1.0730037689 -1.1382544041
-1.216057539 1.3799048662 -0.78502756357
-1.3935552835 0.70403403044 -1.2499159575
-1.5376138687 0.86436218023 -0.94185441732
-1.4299714565 1.1273696423 -0.82604122162
-1.1804618835 0.46089345217 -1.5475012064
-1.5850967169 1.1316708326 -0.45372143388
-1.6740098 1.0925064087 0.039277382195
-1.7047395706 0.85248690844 -0.60485327244
-1.8258738518 0.79190766811 -0.19524979591
1.485041976 1.3385854959 0.052259735763
1.2376116514 1.5662814379 -0.12225621939
1.6440577507 0.29816570878 -1.0990900993
1.3814660311 0.40804409981 -1.3872691393
1.4033255577 0.016045134515 -1.424992919
-1.6059989929 0.5240085721 1.0694656372
-1.7897497416 0.50478631258 0.73585385084
-1.9468508959 0.43802475929 -0.1264642477
-1.8743864298 0.65402859449 0.24276484549
-1.7297215462 0.85394370556 0.52738672495
-1.5635699034 0.87743288279 0.88642579317
-1.0606809855 1.6645448208 0.32235193253
-0.8911370039 1.6570928097 0.67773294449
-1.20355165 1.4417846203 0.68773281574
-1.3512576818 1.4735622406 0.024614952505
-1.3867672682 1.3991013765 0.34524977207
-0.87540513277 1.5273221731 0.94815462828
-1.3880523443 0.71876549721 1.2474199533
-1.5353585482 1.1579707861 0.54772728682
0.6608980298 -0.26325422525 -1.869304657
0.51303422451 0.043397735804 -1.9325505495
0.2217772752 -0.21006570756 -1.9766123295
0.19396731257 0.27569931746 -1.971424222
0.88427859545 0.90932130814 -1.5463306904
0.48321190476 0.76226258278 -1.7846645117
1.0969922543 0.54068255424 -1.5824685097
0.81358551979 0.56407892704 -1.7377382517
-0.51596522331 -0.72260946035 1.7920430899
-0.89868795872 -0.59161698818 1.6857879162
-0.70246011019 -0.30524620414 1.84765172
-1.1174179316 -0.048176106066 1.6570745707
-1.8460043669 0.58071380854 -0.50504684448
0.58599829674 0.36648115516 -1.8770569563
-1.4438092709 0.2324218899 1.3638782501
-1.4536952972 -0.26689526439 1.3460999727
-1.1759738922 0.44976845384 1.5541901588
-0.77192288637 -1.7737058401 -0.50763273239
-0.37114959955 -1.8549697399 -0.64971679449
-0.59577125311 -1.7177503109 -0.83302146196
-0.92692315578 -1.5316975117 -0.89114576578
-1.4253001213 -0.68143767118 1.2264190912
-1.2189775705 -0.49326053262 1.5068309307
-0.56133687496 -1.566757679 -1.1095639467
1.8013025522 -0.45131295919 0.74257212877
1.9135222435 -0.12538984418 0.56793153286
1.9148736 -0.45658117533 0.35286349058
1.8390269279 -0.75053089857 -0.23307043314
1.8586627245 -0.72648173571 0.1328714937
0.3072066009 -1.0808292627 1.654548645
0.4719260335 -1.3889197111 1.3592891693
0.09894631058 -1.3774321079 1.4464857578
0.19616656005 -1.6597537994 1.0980802774
-0.69981396198 1.8079322577 -0.49156701565
-0.58075481653 1.724501133 -0.82984191179
-0.32857489586 1.861882329 -0.65234655142
0.74514651299 -1.784820199 0.50913763046
0.37916687131 -1.8309864998 0.70941233635
0.63479566574 -1.6510879993 0.93275845051
-0.51883405447 1.5673303604 -1.1287853718
-0.86887216568 1.5416035652 -0.93220698833
0.11946059018 -0.80288624763 1.8277580738
-0.15590628982 -0.74310213327 1.8499898911
0.022496236488 -0.50247877836 1.9356571436
-1.9430141449 -0.43906629086 0.1758300066
-1.8549175262 -0.5650396347 0.49015820026
-1.8575922251 -0.71888703108 0.17951016128
-0.16704289615 1.723307848 0.99929815531
-0.33889839053 1.8578022718 0.6584777832
-0.55481344461 1.723801136 0.84864270687
-0.68130910397 1.803563118 0.5327501893
-0.51564770937 1.5683215857 1.1288946867
-1.6404471397 -0.27931669354 -1.1100760698
-1.4140120745 -0.3347709775 -1.3747315407
-1.4796309471 -0.054743975401 -1.3444145918
-1.2172652483 -0.50544285774 -1.5042626858
-1.4028156996 -0.6851170063 -1.2504577637
0.86521810293 1.3781437874 1.1626003981
1.0305908918 1.1214510202 1.2960406542
1.1539225578 1.2535655499 1.0469325781
1.323112011 0.95714950562 1.1526981592
0.73078149557 1.1996068954 1.4235978127
0.88400989771 0.93269073963 1.5323996544
1.5224362612 0.44736859202 1.2140375376
1.1079369783 1.3071066141 -1.0315749645
1.180565238 1.4400556087 -0.72977256775
0.92860937119 1.5351496935 -0.88340270519
-0.27030140162 -1.8434990644 0.72709536552
-0.15814712644 -1.7226777077 1.0035458803
0.052071839571 -1.8175655603 0.83290463686
-0.42309376597 -1.5913348198 1.1352363825
-0.10214412212 -1.5668568611 1.2387491465
1.5808278322 0.10072537512 1.220711112
1.7106330395 0.25214770436 1.0048081875
1.4574199915 -1.3695932627 -0.0034988361876
1.2698956728 -1.5350649357 0.1751229912
-0.67989689112 0.30573633313 -1.8562422991
-0.84778797626 0.019634153694 -1.811650157
-0.98001414537 0.23068402708 -1.7284523249
0.6975030899 1.7344942093 0.71055662632
0.15981587768 1.753614068 0.94822871685
0.06512697041 1.594904542 1.2049450874
0.42998114228 1.2225041389 1.5233209133
-0.66868686676 0.3023763895 1.8606239557
-0.95314061642 0.24698489904 1.7409992218
-0.82268494368 0.033022280782 1.8227922916
0.37224623561 1.605670929 1.1328146458
0.57215029001 1.4195477962 1.2873463631
0.91175860167 1.5540009737 0.86682587862
0.6660900116 1.5828094482 1.0249717236
1.7891703844 0.43918976188 0.77850610018
1.2614270449 -1.5437612534 -0.16082395613
1.8337402344 0.12783402205 0.78823506832

CELLS 554 2216
3 0 1 2
3 3 4 5
3 6 7 8
3 6 9 7
3 8 7 10
3 11 12 13
3 12 14 13
3 15 16 17
3 17 16 18
3 19 20 21
3 20 22 21
3 23 24 25
3 23 26 24
3 27 24 28
3 24 26 29
3 27 30 31
3 30 32 31
3 30 33 32
3 27 28 30
3 30 34 33
3 33 34 35
3 22 29 26
3 36 37 38
3 36 9 37
3 38 37 39
3 40 41 42
3 43 44 45
3 44 46 45
3 47 48 49
3 48 50 49
3 48 51 50
3 49 50 52
3 51 53 50
3 53 54 50
3 53 55 54
3 50 54 52
3 52 54 56
3 54 57 56
3 54 55 57
3 56 57 58
3 52 59 49
3 49 60 47
3 47 60 61
3 51 48 62
3 62 48 63
3 64 65 61
3 65 63 61
3 65 66 63
3 61 63 47
3 0 67 68
3 67 69 68
3 67 19 69
3 68 69 70
3 71 72 73
3 71 40 72
3 74 75 71
3 71 76 40
3 77 72 78
3 72 79 78
3 72 40 79
3 78 79 80
3 0 68 1
3 81 75 74
3 82 61 60
3 77 78 83
3 83 78 84
3 47 63 48
3 62 63 66
3 21 69 19
3 42 79 40
3 40 76 41
3 85 86 87
3 86 88 87
3 86 11 88
3 87 88 89
3 85 84 86
3 84 90 86
3 84 80 90
3 86 90 11
3 88 91 92
3 88 11 91
3 93 94 95
3 93 18 94
3 18 96 97
3 97 98 66
3 80 84 78
3 66 98 99
3 13 91 11
3 11 90 12
3 18 93 17
3 16 96 18
3 18 97 94
3 65 97 66
3 64 94 65
3 65 94 97
3 100 101 102
3 101 103 102
3 101 104 103
3 105 106 107
3 106 108 107
3 106 109 108
3 107 108 0
3 109 110 111
3 110 112 111
3 110 58 112
3 111 112 19
3 113 110 109
3 114 115 109
3 109 115 113
3 114 116 115
3 116 117 115
3 116 118 117
3 115 117 113
3 113 117 119
3 117 118 100
3 109 106 114
3 118 101 100
3 2 107 0
3 120 103 121
3 109 111 108
3 67 111 19
3 0 108 67
3 67 108 111
3 1 122 2
3 122 81 2
3 1 123 122
3 123 124 122
3 123 43 124
3 122 124 81
3 43 123 125
3 123 126 125
3 123 1 126
3 125 126 70
3 81 124 127
3 124 128 127
3 124 43 128
3 127 128 129
3 89 130 131
3 130 132 131
3 130 121 132
3 70 133 134
3 133 135 134
3 133 21 135
3 134 135 26
3 26 135 22
3 22 135 21
3 25 136 137
3 137 136 138
3 139 136 140
3 136 141 140
3 136 25 141
3 140 141 27
3 27 141 24
3 24 141 25
3 23 134 26
3 31 140 27
3 142 36 38
3 36 143 9
3 139 143 144
3 143 142 144
3 143 36 142
3 144 142 145
3 45 128 43
3 46 145 45
3 43 125 44
3 146 145 142
3 145 138 144
3 145 46 138
3 144 138 139
3 139 138 136
3 137 138 46
3 70 126 68
3 68 126 1
3 81 127 75
3 21 133 69
3 69 133 70
3 89 131 87
3 104 132 103
3 103 132 121
3 118 147 148
3 147 149 148
3 147 3 149
3 148 149 104
3 104 149 150
3 5 149 3
3 5 150 149
3 151 152 14
3 139 153 154
3 153 155 154
3 153 31 155
3 154 155 10
3 32 155 31
3 39 156 38
3 41 157 42
3 42 157 158
3 41 159 157
3 159 160 157
3 159 39 160
3 157 160 161
3 161 158 157
3 39 159 156
3 159 162 156
3 159 41 162
3 156 162 129
3 151 158 152
3 158 163 152
3 158 161 163
3 152 163 164
3 163 161 165
3 160 165 161
3 160 39 165
3 164 163 166
3 76 162 41
3 104 150 167
3 150 168 167
3 150 85 168
3 167 168 131
3 3 147 169
3 116 147 118
3 118 148 101
3 101 148 104
3 104 167 132
3 132 167 131
3 31 153 140
3 140 153 139
3 131 168 87
3 87 168 85
3 3 169 170
3 169 171 170
3 169 114 171
3 170 171 105
3 3 170 4
3 172 173 8
3 173 6 8
3 9 6 174
3 164 175 176
3 175 173 176
3 175 6 173
3 176 173 177
3 14 178 13
3 179 178 180
3 178 181 182
3 178 14 181
3 182 181 164
3 180 15 183
3 16 15 184
3 172 177 173
3 177 185 176
3 177 15 185
3 176 185 164
3 164 185 182
3 185 180 182
3 185 15 180
3 182 180 178
3 114 169 116
3 116 169 147
3 105 171 106
3 106 171 114
3 164 181 152
3 152 181 14
3 105 186 187
3 186 188 187
3 186 2 188
3 187 188 189
3 74 188 81
3 81 188 2
3 4 190 83
3 190 77 83
3 77 190 191
3 190 192 193
3 190 4 192
3 193 192 105
3 33 194 195
3 194 196 195
3 194 99 196
3 195 196 197
3 35 194 33
3 33 195 32
3 37 174 198
3 174 166 198
3 174 175 166
3 198 166 165
3 74 189 188
3 189 199 187
3 189 73 199
3 187 199 105
3 105 199 193
3 199 191 193
3 199 73 191
3 193 191 190
3 73 189 71
3 71 189 74
3 77 191 72
3 72 191 73
3 98 196 99
3 2 186 107
3 107 186 105
3 165 166 163
3 164 166 175
3 37 198 39
3 198 165 39
3 105 192 170
3 170 192 4
3 175 174 6
3 9 174 37
3 197 200 201
3 8 200 172
3 10 201 8
3 8 201 200
3 16 184 202
3 184 200 202
3 184 172 200
3 202 200 197
3 137 203 25
3 203 23 25
3 70 204 205
3 204 203 205
3 204 23 203
3 205 203 206
3 10 207 201
3 207 208 201
3 207 32 208
3 201 208 197
3 44 206 46
3 206 137 46
3 137 206 203
3 206 209 205
3 206 44 209
3 205 209 70
3 56 210 52
3 52 210 59
3 100 211 212
3 211 210 212
3 211 59 210
3 212 210 56
3 16 202 96
3 102 211 100
3 23 204 134
3 134 204 70
3 70 209 125
3 125 209 44
3 32 207 155
3 155 207 10
3 172 184 177
3 177 184 15
3 197 208 195
3 195 208 32
3 58 213 214
3 213 119 214
3 213 113 119
3 214 119 212
3 215 51 62
3 51 215 216
3 215 217 216
3 215 35 217
3 216 217 218
3 12 219 14
3 219 151 14
3 151 219 220
3 219 221 220
3 219 12 221
3 220 221 80
3 55 222 20
3 20 222 22
3 22 222 223
3 222 224 223
3 222 55 224
3 223 224 218
3 34 217 35
3 22 223 29
3 80 225 220
3 225 226 220
3 225 42 226
3 220 226 151
3 218 224 216
3 53 224 55
3 51 216 53
3 53 216 224
3 42 225 79
3 79 225 80
3 80 221 90
3 90 221 12
3 113 213 110
3 110 213 58
3 151 226 158
3 158 226 42
3 212 119 100
3 100 119 117
3 58 214 56
3 56 214 212
3 35 227 228
3 227 229 228
3 227 62 229
3 228 229 99
3 99 229 66
3 229 62 66
3 7 230 231
3 230 232 231
3 230 143 232
3 231 232 154
3 233 234 235
3 234 236 235
3 234 13 236
3 235 236 179
3 179 183 235
3 183 237 235
3 183 17 237
3 235 237 233
3 146 238 239
3 238 240 239
3 238 38 240
3 239 240 129
3 129 241 239
3 241 242 239
3 241 45 242
3 239 242 146
3 13 234 91
3 91 234 233
3 233 237 93
3 93 237 17
3 38 238 142
3 142 238 146
3 143 230 9
3 9 230 7
3 45 241 128
3 128 241 129
3 146 242 145
3 145 242 45
3 154 232 139
3 139 232 143
3 7 231 10
3 231 154 10
3 129 240 156
3 156 240 38
3 179 236 178
3 178 236 13
3 17 183 15
3 180 183 179
3 35 228 194
3 194 228 99
3 62 227 215
3 215 227 35
3 243 244 245
3 244 246 245
3 244 82 246
3 245 246 121
3 243 247 244
3 247 248 244
3 247 64 248
3 244 248 82
3 121 246 120
3 120 246 249
3 83 250 4
3 4 250 5
3 5 250 251
3 250 252 251
3 250 83 252
3 251 252 85
3 29 253 24
3 24 253 28
3 28 253 254
3 253 255 254
3 253 29 255
3 254 255 218
3 28 256 30
3 256 34 30
3 28 254 256
3 254 257 256
3 254 218 257
3 256 257 34
3 59 258 49
3 258 60 49
3 59 259 258
3 259 249 258
3 259 120 249
3 258 249 60
3 60 249 82
3 82 249 246
3 57 260 58
3 58 260 112
3 20 261 55
3 261 57 55
3 75 262 71
3 262 76 71
3 75 263 262
3 263 264 262
3 263 129 264
3 262 264 76
3 82 248 61
3 61 248 64
3 92 265 88
3 88 265 89
3 233 266 91
3 91 266 92
3 95 267 93
3 93 267 233
3 64 268 94
3 94 268 95
3 96 269 97
3 269 98 97
3 96 270 269
3 270 271 269
3 270 197 271
3 269 271 98
3 233 267 266
3 267 272 266
3 267 95 272
3 266 272 92
3 243 273 247
3 273 268 247
3 273 95 268
3 247 268 64
3 89 265 274
3 265 275 274
3 265 92 275
3 274 275 243
3 243 275 273
3 275 272 273
3 275 92 272
3 273 272 95
3 85 252 84
3 84 252 83
3 120 276 103
3 103 276 102
3 112 277 19
3 19 277 20
3 20 277 261
3 277 260 261
3 277 112 260
3 261 260 57
3 59 278 259
3 278 276 259
3 278 102 276
3 259 276 120
3 243 245 274
3 130 245 121
3 89 274 130
3 130 274 245
3 129 263 127
3 127 263 75
3 5 251 150
3 150 251 85
3 76 264 162
3 162 264 129
3 98 271 196
3 196 271 197
3 197 270 202
3 202 270 96
3 102 278 211
3 211 278 59
3 34 257 217
3 217 257 218
3 218 255 223
3 223 255 29

CELL_TYPES 554
5
5
5
5
5
5
5
5
5
5
5
5
5
5
5
5
5
5
5
5
5
5
5
5
5
5
5
5
5
5
5
5
5
5
5
5
5
5
5
5
5
5
5
5
5
5
5
5
5
5
5
5
5
5
5
5
5
5
5
5
5
5
5
5
5
5
5
5
5
5
5
5
5
5
5
5
5
5
5
5
5
5
5
5
5
5
5
5
5
5
5
5
5
5
5
5
5
5
5
5
5
5
5
5
5
5
5
5
5
5
5
5
5
5
5
5
5
5
5
5
5
5
5
5
5
5
5
5
5
5
5
5
5
5
5
5
5
5
5
5
5
5
5
5
5
5
5
5
5
5
5
5
5
5
5
5
5
5
5
5
5
5
5
5
5
5
5
5
5
5
5
5
5
5
5
5
5
5
5
5
5
5
5
5
5
5
5
5
5
5
5
5
5
5
5
5
5
5
5
5
5
5
5
5
5
5
5
5
5
5
5
5
5
5
5
5
5
5
5
5
5
5
5
5
5
5
5
5
5
5
5
5
5
5
5
5
5
5
5
5
5
5
5
5
5
5
5
5
5
5
5
5
5
5
5
5
5
5
5
5
5
5
5
5
5
5
5
5
5
5
5
5
5
5
5
5
5
5
5
5
5
5
5
5
5
5
5
5
5
5
5
5
5
5
5
5
5
5
5
5
5
5
5
5
5
5
5
5
5
5
5
5
5
5
5
5
5
5
5
5
5
5
5
5
5
5
5
5
5
5
5
5
5
5
5
5
5
5
5
5
5
5
5
5
5
5
5
5
5
5
5
5
5
5
5
5
5
5
5
5
5
5
5
5
5
5
5
5
5
5
5
5
5
5
5
5
5
5
5
5
5
5
5
5
5
5
5
5
5
5
5
5
5
5
5
5
5
5
5
5
5
5
5
5
5
5
5
5
5
5
5
5
5
5
5
5
5
5
5
5
5
5
5
5
5
5
5
5
5
5
5
5
5
5
5
5
5
5
5
5
5
5
5
5
5
5
5
5
5
5
5
5
5
5
5
5
5
5
5
5
5
5
5
5
5
5
5
5
5
5
5
5
5
5
5
5
5
5
5
5
5
5
5
5
5
5
5
5
5
5
5
5
5
5
5
5
5
5
5
5
5
5
5
5
5
5
5
5
5
5
5
5
5
5
5
5
5
5
5
5
5
5
5
5
5
5
5
5
5
5
5
5
5
5
5
5
5
5
5
5
5
5
5
5
5
5
5
5
5
5
5
5
5
5

CELL_DATA 554
SCALARS cell_data_0 double
LOOKUP_TABLE default
3.89221099891e-09
1.86866139926e-08
7.23628978742e-09
2.44269533993e-09
3.81088668919e-08
4.16429830267e-08
1.57630147531e-08
2.35469523195e-09
7.3087704277e-09
7.89766890701e-08
9.68938346e-08
2.44676037593e-08
2.63754314204e-08
4.5813880613e-08
5.81414678178e-08
4.49593516074e-09
7.14435391381e-08
4.78647456332e-08
2.65331911366e-08
4.57464804387e-08
4.54894061097e-08
1.15339592395e-07
5.54869900103e-08
2.81886027149e-08
2.71364717594e-08
2.14539056256e-09
5.85960113946e-08
4.25556196492e-08
2.01060485549e-10
1.00800121477e-07
4.24953503822e-08
1.15981603181e-08
5.16353693166e-08
4.92703178401e-08
2.90957598892e-08
2.33064200426e-08
3.50185481414e-08
3.09250439669e-08
3.12466219236e-08
9.23521003941e-08
4.88362200756e-08
2.1014398912e-08
3.88007841872e-08
6.73976790127e-08
6.92650284187e-08
6.49508453261e-08
6.67473179463e-08
1.4292503738e-08
8.58280277724e-09
2.7015960705e-09
4.41526426401e-08
4.63001224077e-08
1.29644248147e-07
2.60321252042e-08
6.54738505897e-08
2.27559959106e-08
3.4165641866e-08
1.39407066361e-08
1.96905793651e-08
5.68358010087e-09
2.51342812024e-08
1.8599046397e-08
4.46183676912e-08
1.56415776822e-07
6.39745353677e-09
1.30776456997e-07
5.06387736017e-08
7.72723247239e-08
3.48254569042e-08
6.27483807752e-08
1.94755402704e-08
8.59971988647e-09
4.28866584118e-08
4.05873149934e-08
4.98858282516e-08
1.01995225656e-07
2.43173565572e-08
4.36177316422e-08
7.721905874e-09
8.99878960149e-08
8.00071573817e-09
1.06198756334e-07
2.90209529285e-08
3.09497482254e-08
4.83025238937e-09
8.04238245405e-08
1.30650252453e-08
8.55810618537e-08
6.40142499545e-09
8.40795114171e-08
3.31787209003e-08
4.61567383818e-08
1.6548146454e-08
6.71851466315e-08
1.89140815111e-08
4.8951033764e-08
5.14191302099e-08
7.94568267442e-08
1.39841842321e-07
3.80836588e-08
4.52288213393e-08
4.17620053811e-08
8.84767023292e-09
1.22451142519e-08
4.65791484161e-08
7.69947204148e-08
4.53781740051e-08
6.98265600908e-09
2.63790095746e-08
2.29876706985e-08
1.6228496155e-08
1.76373640679e-09
4.00271217584e-08
3.05517012051e-09
3.04655987209e-08
5.1958939311e-08
6.34379107009e-08
8.22184429394e-08
7.63619686894e-08
5.36659280693e-08
4.23087444989e-08
5.3101242394e-08
1.86995203782e-08
2.48751458036e-08
5.91303379854e-08
1.44823114785e-08
1.82294542601e-08
4.87670241544e-09
2.60135729134e-08
1.97559376265e-08
4.10345989502e-08
6.00817981352e-09
1.3828646366e-08
3.25612298136e-08
6.78170170919e-08
3.64179724623e-08
1.59469703371e-08
2.25420840437e-08
2.33173617472e-08
1.90390130418e-08
3.82971778953e-08
1.87529819487e-08
2.136702152e-08
3.69508647239e-09
4.26845393589e-08
2.01317839644e-08
2.34944364405e-08
4.11053060128e-08
6.53031379101e-08
1.092317824e-09
2.50127483884e-08
2.35614957195e-08
1.27630378494e-08
3.64647990504e-08
2.27567762542e-08
6.85589784205e-08
1.15234516532e-09
3.97104624905e-08
3.77056865709e-08
5.06732607379e-09
9.08347963004e-09
2.28499730801e-08
7.16927982142e-09
1.38649201124e-08
3.1133316384e-08
2.99889572552e-08
5.02141236967e-10
5.89273125418e-09
7.36984643766e-09
1.11480478418e-08
1.73139926862e-08
1.18014139965e-08
5.44797867726e-08
4.09557376167e-08
7.50894759404e-09
5.52590675632e-08
3.60556816479e-08
1.65304050952e-08
9.86346497071e-09
2.49832755891e-08
9.2222708215e-09
5.22045749922e-09
3.02435939902e-08
4.67035540721e-08
1.1877111616e-08
5.01538668435e-09
2.29811350994e-08
4.00999542803e-08
6.03665511656e-09
1.09351359574e-09
2.62303434894e-08
6.54935112408e-08
4.43222070408e-09
3.49547926932e-08
7.82249189468e-08
2.44185201761e-08
1.10000199888e-08
8.39310506356e-09
3.85589313003e-08
4.70774099234e-08
5.79463034695e-09
2.14856866756e-08
1.55313911272e-08
4.96639570564e-08
2.71263292177e-08
3.62767452017e-08
2.29645271028e-08
4.07227412393e-08
7.6932077331e-08
5.06025665773e-08
2.89718419641e-08
1.50707853149e-08
2.22341302345e-08
1.42822376483e-08
2.75504747454e-08
2.14524530487e-08
2.58658387503e-08
2.50174282156e-08
8.46987133312e-09
2.20592155636e-08
2.00741689817e-08
4.25123203802e-08
3.61059165838e-08
3.36477906477e-08
6.03547014192e-08
4.36392563684e-08
1.75046793232e-08
3.93799506531e-08
3.07398522412e-08
1.40457366956e-08
6.37124912528e-09
1.85504705993e-08
2.32029823382e-08
2.93577448526e-08
4.66606259044e-08
4.9334784508e-09
3.85523219483e-09
7.14124344089e-09
6.60773888551e-09
7.06574132044e-08
1.31072054002e-08
1.83828312907e-09
1.10729476501e-08
5.50628736132e-09
3.11572483293e-08
4.61212492544e-09
4.01596425832e-08
2.99021441212e-08
4.30608099235e-09
4.30119059404e-09
8.67086833463e-09
1.04543789811e-08
1.67178579639e-08
2.64418548883e-08
1.23998107626e-08
1.61525251384e-08
2.81527371502e-08
2.83148437052e-08
5.33295970441e-08
7.12240329179e-09
7.39222370982e-09
1.48767475909e-08
1.72725360587e-08
1.60346800626e-09
2.04146999374e-08
7.47991901028e-08
6.00982133427e-08
2.1492890679e-08
3.41514485623e-08
3.05031947136e-08
2.87191777172e-08
2.6475939042e-09
4.61677575747e-09
1.88721252197e-09
1.10310939358e-08
7.11978864739e-08
3.54379633098e-08
9.44955736005e-08
4.58119021653e-08
2.36651744905e-08
3.12783157825e-09
5.55668801998e-08
4.57200839312e-08
3.15059817007e-08
2.77079192825e-08
3.88365497572e-08
3.3887228295e-08
1.85799488253e-08
1.44488238818e-09
1.01283558132e-08
4.09830672325e-08
1.75971811247e-08
2.792499814e-09
1.75499346253e-08
1.74904407851e-09
2.02559145415e-08
2.28565607241e-08
3.38704659549e-08
2.11322314427e-09
4.43913798212e-08
4.29577843244e-08
2.04533856792e-08
2.65094780545e-08
6.34278308135e-08
2.22850209372e-08
2.95653022155e-08
4.26949828179e-08
2.4073246736e-09
2.86458599015e-09
2.41492839266e-08
1.1502939911e-08
4.26759902765e-08
1.48389630026e-08
2.03265543028e-08
5.75023660827e-08
1.86025143587e-08
1.14989261815e-08
2.84386782849e-08
2.55913707128e-08
4.00954677024e-09
9.97611878885e-09
3.62840031129e-09
5.94520470396e-09
3.95019373705e-08
1.37987247323e-08
6.59497987597e-09
1.08872337747e-08
1.76118576616e-08
2.47675943864e-08
1.03720258042e-08
1.47203961573e-08
4.73755506301e-09
1.55906593566e-09
6.29600002424e-09
3.71291277404e-09
4.7947014573e-08
4.57205808658e-08
5.8154765052e-08
2.64216782163e-08
2.87587409889e-08
4.17729585833e-08
2.31159643289e-08
2.8763286266e-08
4.97796374604e-08
3.18475749935e-09
4.26721403077e-08
3.26554954978e-08
3.67924818537e-08
1.56622769555e-08
3.46629470815e-08
2.27927944331e-08
8.76928230146e-08
2.89003447769e-08
2.50014736967e-09
9.23053291325e-09
1.06117155797e-08
4.64610090375e-08
8.23711582372e-08
3.4252697289e-08
6.64637332385e-09
4.01934406506e-08
9.27910601084e-09
6.90222135836e-08
5.39906604023e-08
4.30391392264e-08
1.39488734898e-09
1.33254525392e-08
1.09112611664e-08
3.33791896983e-08
7.28225581179e-08
2.04762707514e-09
1.15796684225e-08
2.11043130497e-09
1.21961691709e-08
2.85800320207e-08
3.61788221989e-08
1.47249932821e-08
2.78863653813e-08
1.40266674007e-08
1.11990645346e-08
2.10596739055e-08
1.05613623269e-08
3.17535253386e-08
3.33216059214e-09
3.70521432336e-08
5.24079931812e-08
2.00590378915e-08
1.23430254453e-08
1.53540755703e-09
1.5051327112e-08
2.17060489872e-08
4.42552352726e-09
3.80953189971e-08
2.83662000885e-08
2.06917568558e-08
4.21389958513e-08
2.66365758968e-08
1.42689414207e-08
3.23922127503e-08
3.0179167282e-08
3.47128296327e-09
1.91408892935e-09
3.42842171067e-08
2.40285884791e-08
2.18600630421e-08
1.3024959023e-08
2.15011549434e-08
2.89506788595e-09
1.73417421629e-08
7.20090896836e-09
2.80339767216e-08
8.35461598108e-09
3.77947000309e-09
5.44789040023e-09
3.23273600547e-08
1.93284368326e-08
3.2184887459e-08
5.08659797377e-08
5.4242005468e-08
3.39973412029e-08
5.37571733291e-09
4.02729988526e-08
3.1394215296e-08
2.71521579627e-08
1.54290983378e-08
1.47894835736e-08
2.94845919099e-08
1.86141419693e-09
8.85127676391e-09
1.45772088441e-08
3.91592605738e-09
2.46403449917e-08
1.12865572531e-08
1.23442671438e-08
2.15153248993e-08
3.90678923799e-08
1.25643721052e-08
3.08702989834e-08
1.13462504826e-09
2.67671319631e-08
2.50264035873e-08
2.0840082197e-08
2.52832320311e-08
3.18145252659e-09
2.39032974806e-08
3.50807200287e-08
1.37294434764e-08
7.47200866663e-09
6.92510593293e-09
1.01615799307e-08
2.45980088631e-08
4.54210838685e-08
8.65292969379e-09
2.23739980421e-08
3.93514197912e-08
7.2157595933e-09
4.16729797677e-08
2.69173317962e-08
3.43667875591e-08
9.47523693084e-09
1.3542611714e-08
8.66502954267e-09
5.28807399729e-09
1.4290047742e-08
1.8649379569e-08
1.72953704886e-08
1.33037693964e-08
9.1631112138e-09
1.49662138509e-08
1.17357492329e-08
6.41190296095e-09
3.16985757401e-08
2.05568744754e-08
1.82358218269e-08
7.93386487704e-09
1.35332526085e-08
4.20900467905e-08
5.67973012151e-08
7.29146070372e-09
1.09296606599e-08
6.18394331284e-08
2.90248129514e-09
2.39406960245e-08
9.7962629908e-09
2.45788122308e-08
8.64156347541e-09
2.0200735983e-08
1.21783942411e-08
2.97294984366e-10
6.94634873275e-09
2.62334685911e-08
1.98210418691e-08
4.77102336821e-08
1.6085443788e-08
1.64998565779e-08
4.99211675255e-08
1.4508201685e-08
3.43841010989e-08
4.50874541739e-09
1.03557847496e-08
3.66380390919e-09
1.00593749888e-08
1.33975431241e-08
1.41434813571e-08
2.05008098288e-08
6.51167821396e-09
7.44525785464e-09
7.3286608009e-09
1.87697768129e-08
4.15586577963e-09
1.16318444328e-08
1.74659875302e-08
3.0258992657e-08
9.99389448649e-10
9.36890268152e-09
2.69084589633e-08
1.78497270654e-08
6.35235161619e-09
3.11682967602e-09
2.56466086664e-09
2.20441588727e-08
3.1501235227e-08
8.11605412523e-10
2.2864187134e-08
3.19657542653e-08
8.13309311545e-08
3.2512014188e-08
9.20822367777e-09
8.73654702135e-09
2.26385456389e-08
1.16025343056e-08
7.86655680518e-09
2.70451640068e-09
1.23579489461e-08
1.52767854524e-08
1.23678052685e-08
1.17442417786e-08
1.6811935259e-08
1.55152187945e-08
4.99842310616e-08
4.72272733438e-09
1.52985545705e-08
1.03732429215e-08
5.88238900919e-09
9.24808955427e-09
9.1926195038e-09
1.12029080323e-08
4.15564439658e-09
1.34255278951e-08
5.54878240232e-09
7.07698183218e-09
5.10781948053e-09
2.4117610845e-08
7.28918255643e-10

