# vtk DataFile Version 3.0
File Name: Molecule/sphere_cent/sphere_cent_0-s8.vtk
ASCII
DATASET UNSTRUCTURED_GRID
FIELD FieldData 1
TIME 1 1 double
0.0
POINTS 109 double
1.7008723021 1.051715374 0.0010635971557
0.95012277365 1.6875082254 -0.49679341912
0.94425576925 1.6927000284 0.48869121075
0.12283160537 1.9955646992 -5.08700723e-05
-0.00052408262854 1.7116178274 -1.0291752815
0.0014555387897 1.7007861137 1.051845789
-0.51503229141 0.95609408617 1.6773947477
0.48604783416 0.97229874134 1.6749842167
-1.0513892174 -0.00088884076104 1.7012531757
-0.029670249671 0.12393149734 1.9923439026
1.9920594692 -0.0068300422281 0.16365721822
1.688347578 0.52893590927 0.92855167389
1.0502461195 -0.00048779399367 -1.7018512487
1.5304586887 -0.74667078257 -1.0463895798
0.73821973801 -1.0254844427 -1.5448607206
1.7014757395 -1.0446749926 -0.0611682944
1.0488885641 -1.5531406403 -0.68735718727
1.9012037516 -0.33748701215 -0.51979148388
1.7002265453 -0.021752629429 -1.0525815487
1.908561945 0.31492951512 -0.50741153955
1.6114324331 0.62811028957 -1.0037696362
0.33370774984 -0.52112859488 -1.9017072916
0.0010580029339 0.12072239816 -1.9950262308
0.0068097109906 -1.0578788519 -1.6972568035
-0.32800990343 -0.51632553339 -1.9041318893
-0.67284703255 -1.0200244188 -1.5827952623
-0.021897625178 -1.7018671036 -1.0441454649
-1.0636030436 -0.014852838591 -1.6898077726
1.3804050684 1.1772001982 0.84134787321
0.84147518873 1.382145524 1.1750222445
1.1747338772 0.84486764669 1.3805673122
1.3562510014 1.2010103464 -0.84715825319
1.1512526274 0.86752223969 -1.3862223625
0.83794939518 1.3844035864 -1.1743444204
0.52882856131 0.96301925182 -1.6697707176
-0.6531444788 -0.99191683531 1.6087478399
-0.32160896063 -0.51576894522 1.9054362774
0.00025697576348 -1.0577219725 1.6972783804
0.32778170705 -0.52316617966 1.9022644758
0.67673587799 -1.0335911512 1.5716195107
0.11419706792 -1.6760737896 1.0794545412
-1.610180974 0.62997716665 1.0045042038
-1.7047317028 -0.0044814008288 1.046126008
-1.6039425135 -0.64254456758 1.0064541101
-1.9049671888 0.31778782606 0.52003788948
-1.9037330151 -0.32199284434 0.52184474468
-1.9987705946 0.00092559616314 -0.056099608541
-1.7016966343 1.0508145094 -0.00017294194549
-1.7021986246 -1.050000906 0.00085522164591
-0.51340198517 1.9072449207 0.31403586268
-0.99765092134 1.6198751926 0.61604696512
-0.51838767529 1.9043885469 -0.32266694307
-1.0457091331 1.7050251961 -0.0090364711359
-1.0124902725 1.5981550217 -0.64765149355
-0.84375143051 1.3691997528 1.1883995533
-1.3612133265 1.1842091084 0.86339539289
-1.1534365416 0.86545622349 1.3854846954
0.53475445509 -1.8986741304 -0.33017960191
-0.018534533679 -1.9991580248 -0.023364905268
1.0561367273 -1.698231101 -5.7884244598e-05
0.5244513154 -1.9018921852 0.32805892825
1.0112524033 -1.5890481472 0.6706533432
-1.0090169907 -1.608751893 -0.62662732601
-1.0486329794 -1.7031280994 -0.0050277323462
-1.0126340389 -1.6154397726 0.60271596909
-0.54700905085 -1.896926403 -0.32048717141
-0.55306655169 -1.8978141546 0.3041215241
-0.50452417135 -1.7277312279 0.87169748545
-0.052360411733 -1.9243216515 0.54263544083
-1.3572118282 -1.1920615435 0.85837298632
-0.88304567337 -1.3735080957 1.1548814774
-1.1769145727 -0.88254821301 1.3549562693
-0.37375122309 -1.4208528996 1.3570972681
-1.6206905842 -0.61463177204 -0.99728024006
-1.702624321 7.4956100434e-05 -1.0494581461
-1.6157932281 0.61721295118 -1.0035961866
-1.8926683664 -0.31486994028 -0.56492495537
-1.8918073177 0.31689205766 -0.56655609608
-0.85855144262 1.3522270918 -1.1975650787
-0.58039343357 0.98474091291 -1.6411815882
-1.1707139015 0.85172170401 -1.3796770573
-1.3761509657 1.1572784185 -0.87589609623
-1.2091362476 -0.86573457718 -1.3374466896
-0.8975045681 -1.3684213161 -1.149889946
-1.3800172806 -1.1657786369 -0.85811781883
1.0282039642 0.020490199327 1.7152554989
0.91826421022 -0.53289091587 1.6946042776
1.3827702999 -0.31883099675 1.4092903137
1.207067132 -0.8659209609 1.338901639
1.5922335386 -0.63896042109 1.0261042118
0.90719854832 -1.3474715948 1.1667884588
1.3796868324 -1.1485408545 0.88159781694
1.7394906282 -0.83174145222 0.52561610937
1.4242880344 -1.3533847332 0.37213784456
1.73280406 -0.078237041831 0.99354630709
1.4193656445 0.26194831729 1.3841668367
0.79780578613 0.50754141808 1.7615865469
0.53082847595 0.067693091929 1.9264690876
0.2537727654 0.55748140812 1.9038668871
0.90835529566 -1.3514038324 -1.1614304781
0.38819691539 -1.4283053875 -1.3457934856
0.54235059023 -1.6925210953 -0.91816157103
0.25979915261 0.57173025608 -1.8988162279
-0.30146458745 0.58182090521 -1.8896683455
-0.031409695745 1.0116593838 -1.7250634432
-0.54622024298 0.083043418825 -1.9224277735
-0.83283138275 0.51037883759 -1.7455271482
0.25870576501 1.3793662786 -1.4249066114
-0.29080802202 1.3873839378 -1.4109745026

CELLS 214 856
3 0 1 2
3 1 3 2
3 1 4 3
3 2 3 5
3 5 6 7
3 6 8 9
3 10 0 11
3 12 13 14
3 13 15 16
3 13 17 15
3 15 17 10
3 13 18 17
3 18 19 17
3 18 20 19
3 17 19 10
3 20 18 12
3 12 18 13
3 10 19 0
3 19 20 0
3 14 21 12
3 12 21 22
3 14 23 21
3 23 24 21
3 23 25 24
3 21 24 22
3 25 23 26
3 24 25 27
3 2 28 0
3 0 28 11
3 2 29 28
3 29 30 28
3 29 7 30
3 28 30 11
3 7 29 5
3 5 29 2
3 20 31 0
3 0 31 1
3 20 32 31
3 32 33 31
3 32 34 33
3 31 33 1
3 34 32 12
3 12 32 20
3 1 33 4
3 35 36 8
3 8 36 9
3 35 37 36
3 37 38 36
3 37 39 38
3 36 38 9
3 39 37 40
3 41 42 8
3 8 42 43
3 41 44 42
3 44 45 42
3 44 46 45
3 42 45 43
3 46 44 47
3 47 44 41
3 43 45 48
3 45 46 48
3 3 49 5
3 5 49 50
3 3 51 49
3 51 52 49
3 51 53 52
3 49 52 50
3 53 51 4
3 4 51 3
3 50 52 47
3 52 53 47
3 50 54 5
3 5 54 6
3 50 55 54
3 55 56 54
3 55 41 56
3 54 56 6
3 41 55 47
3 47 55 50
3 6 56 8
3 56 41 8
3 26 57 58
3 16 59 57
3 59 60 57
3 59 61 60
3 57 60 58
3 15 59 16
3 60 61 40
3 62 63 48
3 48 63 64
3 62 65 63
3 65 66 63
3 65 58 66
3 63 66 64
3 58 65 26
3 26 65 62
3 64 66 67
3 66 68 67
3 66 58 68
3 67 68 40
3 64 69 48
3 48 69 43
3 64 70 69
3 70 71 69
3 70 35 71
3 69 71 43
3 64 67 70
3 67 72 70
3 67 40 72
3 70 72 35
3 43 71 8
3 71 35 8
3 35 72 37
3 37 72 40
3 40 68 60
3 60 68 58
3 73 74 27
3 27 74 75
3 73 76 74
3 76 77 74
3 76 46 77
3 74 77 75
3 46 76 48
3 48 76 73
3 75 77 47
3 77 46 47
3 4 78 53
3 79 80 78
3 80 81 78
3 80 75 81
3 78 81 53
3 75 80 27
3 53 81 47
3 81 75 47
3 25 82 27
3 27 82 73
3 25 83 82
3 83 84 82
3 83 62 84
3 82 84 73
3 62 83 26
3 26 83 25
3 73 84 48
3 84 62 48
3 85 86 87
3 86 88 87
3 86 39 88
3 87 88 89
3 39 90 88
3 90 91 88
3 90 61 91
3 88 91 89
3 61 90 40
3 40 90 39
3 89 91 92
3 91 93 92
3 91 61 93
3 92 93 15
3 89 92 94
3 10 92 15
3 11 94 10
3 10 94 92
3 89 94 87
3 94 95 87
3 94 11 95
3 87 95 85
3 85 95 96
3 30 95 11
3 39 86 38
3 38 86 97
3 15 93 59
3 59 93 61
3 9 98 6
3 6 98 7
3 7 98 96
3 98 97 96
3 98 9 97
3 96 97 85
3 16 99 13
3 13 99 14
3 14 99 100
3 99 101 100
3 99 16 101
3 100 101 26
3 22 102 12
3 12 102 34
3 22 103 102
3 103 104 102
3 103 79 104
3 102 104 34
3 22 105 103
3 105 106 103
3 105 27 106
3 103 106 79
3 34 104 107
3 104 108 107
3 104 79 108
3 107 108 4
3 14 100 23
3 23 100 26
3 27 105 24
3 24 105 22
3 7 96 30
3 30 96 95
3 34 107 33
3 33 107 4
3 85 97 86
3 38 97 9
3 26 101 57
3 57 101 16
3 4 108 78
3 78 108 79
3 79 106 80
3 80 106 27

CELL_TYPES 214
5
5
5
5
5
5
5
5
5
5
5
5
5
5
5
5
5
5
5
5
5
5
5
5
5
5
5
5
5
5
5
5
5
5
5
5
5
5
5
5
5
5
5
5
5
5
5
5
5
5
5
5
5
5
5
5
5
5
5
5
5
5
5
5
5
5
5
5
5
5
5
5
5
5
5
5
5
5
5
5
5
5
5
5
5
5
5
5
5
5
5
5
5
5
5
5
5
5
5
5
5
5
5
5
5
5
5
5
5
5
5
5
5
5
5
5
5
5
5
5
5
5
5
5
5
5
5
5
5
5
5
5
5
5
5
5
5
5
5
5
5
5
5
5
5
5
5
5
5
5
5
5
5
5
5
5
5
5
5
5
5
5
5
5
5
5
5
5
5
5
5
5
5
5
5
5
5
5
5
5
5
5
5
5
5
5
5
5
5
5
5
5
5
5
5
5
5
5
5
5
5
5
5
5
5
5
5
5
5
5
5
5
5
5

CELL_DATA 214
SCALARS cell_data_0 double
LOOKUP_TABLE default
1.01288884798e-06
1.00870819043e-06
1.34404511658e-06
1.99819719778e-06
1.95644843866e-06
1.74706444581e-06
9.61966267321e-07
1.272985845e-06
8.2438782407e-07
4.75518172132e-08
3.63668284017e-07
5.68486910104e-07
1.2054133195e-07
4.33509437693e-07
2.70553393223e-07
5.73828563767e-08
2.48902863614e-07
8.78286983855e-08
4.43592800319e-09
6.58998161156e-07
7.44703108978e-07
1.72781312867e-08
5.38097982615e-07
6.14134187772e-07
3.24547288681e-07
4.87914212369e-07
5.4371969332e-08
2.83736188961e-07
4.4194762129e-07
3.53627258757e-07
5.19543464527e-07
2.72257697364e-08
5.08390992316e-07
5.25024950583e-07
5.95317315348e-07
1.60485003353e-08
1.24558208839e-07
2.85593293716e-07
1.36454798696e-07
3.49785101144e-07
5.10273545585e-07
3.76425772804e-07
2.86341432098e-07
7.43301610388e-08
6.06086232745e-08
3.31138553305e-07
1.4234044195e-07
8.98348223465e-08
2.66716687539e-07
1.67038503312e-07
2.47574925239e-07
1.35489042749e-07
7.24509419228e-08
3.35883253075e-07
1.2608895155e-07
2.99155728582e-07
3.92815602061e-07
3.55176470092e-07
2.73912813282e-07
4.11486734444e-08
3.46906042299e-07
4.8049203839e-07
4.28204250818e-07
1.53611703426e-07
2.55741392535e-07
4.88954222605e-07
2.76667862301e-07
1.65243490595e-07
3.71161286371e-07
3.69910640934e-07
1.62791740301e-07
4.5940554315e-07
4.52658228671e-07
2.1512943474e-07
1.09922546924e-07
3.35761654527e-07
9.35227068603e-08
2.87233339037e-07
4.58075181904e-07
2.66072648287e-07
1.40638617402e-07
5.50699493053e-07
2.40652290407e-08
1.92912984159e-07
1.47287659302e-07
1.25968667376e-08
5.94924193533e-07
4.06349962375e-07
3.90888007927e-07
4.23578310008e-07
1.37141362195e-07
2.85001915795e-08
9.17534216992e-08
7.18287580602e-08
3.99558797388e-07
5.02697404703e-07
3.80346587111e-08
1.1522132235e-07
2.43417797545e-07
4.06376826507e-07
4.5187836216e-07
1.09279290153e-07
2.04216392946e-07
1.39940190507e-07
3.49969298989e-07
3.53845126563e-07
8.26913377792e-08
1.0494411689e-07
2.48855153006e-07
3.03012994782e-07
3.0841483282e-09
5.68010123323e-08
1.67117212865e-07
1.84545720995e-07
2.84572628468e-07
1.76661270581e-07
3.73505670606e-07
2.4396671454e-07
1.95119749376e-07
5.69106109944e-08
2.45785671724e-07
2.94851002817e-07
3.49156623409e-07
4.26047452408e-07
3.96979467069e-07
4.51181089853e-07
4.72421215843e-07
5.25421973601e-08
4.82683012198e-08
2.27766522955e-07
2.3946025611e-07
4.40253655554e-07
3.92333065078e-07
4.34434387961e-07
5.04946744324e-07
4.24497351727e-07
1.26181320593e-07
1.81410616948e-08
2.07751515319e-07
1.75912270465e-07
4.35156236279e-07
5.49068216571e-07
4.25813972118e-07
3.78720931248e-07
2.55195624207e-07
5.84849762695e-08
2.72272442336e-07
2.54412476379e-07
3.50682877213e-07
2.00564977584e-08
6.55892591154e-08
2.51213113182e-07
4.83092766065e-08
4.16420302373e-07
3.80747941019e-07
3.75016508807e-08
4.9991406237e-08
2.25216061946e-07
3.16095859684e-07
1.57215918803e-07
5.08553238364e-09
3.51010644669e-07
3.51338715633e-07
9.15107184558e-09
1.23434415543e-07
2.69058373668e-07
1.94925136045e-07
8.66203243551e-08
2.49409427258e-07
2.69211713082e-07
1.6002261107e-07
1.02717759075e-07
4.12536160672e-07
4.0064765238e-07
1.05186689544e-07
4.12377945398e-08
6.40196789748e-08
2.487214875e-07
1.29286630212e-07
8.71532260293e-09
6.92201874336e-09
1.29212741887e-07
8.68481881906e-08
1.42276389154e-07
5.5053312906e-07
2.5856482753e-07
1.05397946821e-07
3.48731538031e-09
2.6628231841e-09
2.60200782494e-07
4.00897641396e-08
1.04420689989e-07
2.01990511175e-07
1.38066870973e-08
1.11990991604e-07
1.03891987554e-07
1.5152547799e-08
1.8238695851e-07
1.0289703794e-08
1.36934566763e-07
4.0384867267e-07
2.45063520129e-07
5.2976607471e-08
2.92656611044e-08
2.43048204134e-07
1.59616309253e-07
1.31197260059e-07
1.54474510035e-07
7.19909097407e-08
3.89359862601e-08
2.84334240656e-08
1.42474847462e-08
2.43021569986e-08
2.92242512909e-08

