# vtk DataFile Version 3.0
File Name: Molecule/sphere_dip_sim/sphere_dip_sim_0-s2.vtk
ASCII
DATASET UNSTRUCTURED_GRID
FIELD FieldData 1
TIME 1 1 double
0.0
POINTS 59 double
0.850650808352 -0.525731112119 0.0
0.809016994375 -0.309016994375 -0.5
1.0 0.0 0.0
0.809016994375 0.309016994375 -0.5
0.525731112119 0.0 -0.850650808352
0.850650808352 0.525731112119 0.0
0.5 0.809016994375 -0.309016994375
0.309016994375 0.5 -0.809016994375
0.0 0.850650808352 -0.525731112119
0.5 0.809016994375 0.309016994375
0.0 1.0 0.0
-0.309016994375 0.5 0.809016994375
0.0 0.0 1.0
0.309016994375 0.5 0.809016994375
-0.525731112119 0.0 0.850650808352
0.525731112119 0.0 0.850650808352
-0.309016994375 -0.5 0.809016994375
0.309016994375 -0.5 0.809016994375
0.0 -0.850650808352 0.525731112119
0.309016994375 -0.5 -0.809016994375
0.0 0.0 -1.0
-0.309016994375 -0.5 -0.809016994375
0.0 -0.850650808352 -0.525731112119
-0.525731112119 0.0 -0.850650808352
0.809016994375 0.309016994375 0.5
0.809016994375 -0.309016994375 0.5
0.0 0.850650808352 0.525731112119
-0.809016994375 -0.309016994375 -0.5
-0.809016994375 0.309016994375 -0.5
-1.0 0.0 0.0
-0.850650808352 -0.525731112119 0.0
-0.850650808352 0.525731112119 0.0
-0.309016994375 0.5 -0.809016994375
-0.5 0.809016994375 -0.309016994375
-0.5 -0.809016994375 -0.309016994375
-0.5 -0.809016994375 0.309016994375
0.0 -1.0 0.0
-0.809016994375 -0.309016994375 0.5
-0.809016994375 0.309016994375 0.5
0.5 -0.809016994375 -0.309016994375
0.5 -0.809016994375 0.309016994375
0.0 0.925325404176 0.26286555606
-0.25 0.829833901363 0.417374053247
-0.25 0.904508497187 0.154508497188
-0.5 0.809016994375 0.309016994375
-0.25 0.904508497187 -0.154508497188
-0.5 0.809016994375 0.0
-0.675325404176 0.667374053247 0.154508497188
-0.675325404176 0.667374053247 -0.154508497188
-0.154508497188 0.675325404176 0.667374053247
-0.404508497188 0.654508497187 0.559016994375
-0.654508497187 0.559016994375 0.404508497188
-0.559016994375 0.404508497188 0.654508497187
-0.829833901363 0.417374053247 0.25
0.559016994375 -0.404508497188 0.654508497187
0.404508497188 -0.654508497187 0.559016994375
0.654508497187 -0.559016994375 0.404508497188
0.829833901363 -0.417374053247 0.25
0.675325404176 -0.667374053247 0.154508497188

CELLS 114 456
3 0 1 2
3 1 3 2
3 1 4 3
3 2 3 5
3 5 3 6
3 3 7 6
3 3 4 7
3 6 7 8
3 5 6 9
3 6 10 9
3 6 8 10
3 11 12 13
3 11 14 12
3 13 12 15
3 14 16 12
3 16 17 12
3 16 18 17
3 12 17 15
3 4 19 20
3 19 21 20
3 19 22 21
3 20 21 23
3 2 24 25
3 2 5 24
3 25 24 15
3 5 9 24
3 9 13 24
3 9 26 13
3 24 13 15
3 23 27 28
3 27 29 28
3 27 30 29
3 28 29 31
3 8 32 33
3 32 28 33
3 32 23 28
3 30 34 35
3 34 36 35
3 34 22 36
3 35 36 18
3 30 35 37
3 35 16 37
3 35 18 16
3 37 16 14
3 14 38 37
3 38 29 37
3 37 29 30
3 23 21 27
3 21 34 27
3 21 22 34
3 27 34 30
3 22 39 36
3 39 40 36
3 36 40 18
3 4 1 19
3 1 39 19
3 1 0 39
3 19 39 22
3 4 20 7
3 20 32 7
3 20 23 32
3 7 32 8
3 10 41 9
3 9 41 26
3 26 41 42
3 41 43 42
3 41 10 43
3 42 43 44
3 10 45 43
3 45 46 43
3 45 33 46
3 43 46 44
3 33 45 8
3 10 45 8
3 44 46 47
3 46 48 47
3 46 33 48
3 47 48 31
3 26 42 49
3 42 50 49
3 42 44 50
3 49 50 11
3 44 51 50
3 51 52 50
3 51 38 52
3 50 52 11
3 44 47 51
3 47 53 51
3 47 31 53
3 51 53 38
3 11 52 14
3 52 38 14
3 26 49 13
3 49 11 13
3 17 54 15
3 15 54 25
3 17 55 54
3 55 56 54
3 55 40 56
3 54 56 25
3 40 55 18
3 17 55 18
3 25 56 57
3 56 58 57
3 56 40 58
3 57 58 0
3 25 57 2
3 0 57 2
3 31 48 28
3 33 48 28
3 38 53 29
3 53 31 29
3 0 58 39
3 39 58 40

CELL_TYPES 114
5
5
5
5
5
5
5
5
5
5
5
5
5
5
5
5
5
5
5
5
5
5
5
5
5
5
5
5
5
5
5
5
5
5
5
5
5
5
5
5
5
5
5
5
5
5
5
5
5
5
5
5
5
5
5
5
5
5
5
5
5
5
5
5
5
5
5
5
5
5
5
5
5
5
5
5
5
5
5
5
5
5
5
5
5
5
5
5
5
5
5
5
5
5
5
5
5
5
5
5
5
5
5
5
5
5
5
5
5
5
5
5
5
5

CELL_DATA 114
SCALARS cell_data_0 double
LOOKUP_TABLE default
0.00076413701569
0.000901307229698
0.000574471007758
0.000212670022122
0.000215620358937
0.000258109187272
8.58497858449e-05
9.44206687532e-05
0.000223588616199
0.000259611320068
6.64740610785e-05
0.000259155166218
0.000225744854269
0.000204675204696
0.000206481000369
0.000247844142329
9.88459180796e-05
0.000217951049128
0.000225745519759
0.000228407983409
9.04859005912e-05
0.000190062100225
0.000192894404738
0.000198696601973
8.2012415805e-05
0.000189796452403
0.000246142422377
0.00011864442267
0.00010011884704
5.72342165335e-05
1.82161148102e-05
9.65936324169e-07
7.58304590299e-07
0.00026950683772
0.000294471288339
9.39582714473e-05
2.14364614463e-05
2.20857793771e-05
1.4032049873e-05
7.78259603781e-07
3.07057780063e-08
4.79564726512e-05
3.08233917985e-05
9.27584485355e-05
5.86915747062e-05
1.27512913974e-05
1.49947052243e-06
8.77362673735e-05
5.29554185491e-05
3.69079122836e-05
4.66460182001e-06
6.68835194288e-06
1.8850816026e-05
2.87555670053e-06
0.000253365148267
0.000323474566996
0.000583768295948
4.0985576995e-05
0.000223363983728
0.000279519893239
0.000199633860619
7.06744877494e-05
5.05836258407e-05
4.31340915975e-05
6.34529738976e-07
2.60847151625e-06
6.08609430348e-06
1.57278115613e-05
2.69766803377e-06
1.16631753639e-06
0.000129053298674
2.05669915066e-05
0.000197465228494
1.64120573706e-05
1.9103661932e-05
1.96795718895e-07
9.55870263448e-05
4.91721188525e-06
6.85865196506e-07
4.13171513971e-06
1.76642347568e-05
7.68408308481e-06
2.43386724863e-05
3.25679571199e-06
3.11219826089e-06
6.30969786291e-06
2.01670708679e-05
1.3702262166e-06
2.03948281326e-06
2.09355520589e-06
3.75196370501e-05
3.03175871964e-05
8.07382149763e-06
7.45496573046e-06
2.78889575551e-05
4.86968443361e-06
2.03901653286e-05
1.42998208732e-06
8.52607181286e-06
1.55884106234e-06
8.34788943417e-06
6.68057937311e-06
3.51256383359e-06
7.03452383248e-07
3.89098564549e-06
1.07190602862e-05
4.91942342972e-05
0.000109639828656
6.30722486049e-06
0.000207018333713
2.90185829925e-06
4.22665675696e-06
4.04320231468e-05
8.48102517571e-06

