# vtk DataFile Version 3.0
File Name: Molecule/sphere_dip_sim/sphere_dip_sim_0-s3.vtk
ASCII
DATASET UNSTRUCTURED_GRID
FIELD FieldData 1
TIME 1 1 double
0.0
POINTS 30 double
0.525731112119 0.0 0.850650808352
0.0 -0.850650808352 0.525731112119
0.850650808352 -0.525731112119 0.0
0.850650808352 0.525731112119 0.0
0.0 0.850650808352 0.525731112119
0.525731112119 0.0 -0.850650808352
-0.525731112119 0.0 -0.850650808352
0.0 0.850650808352 -0.525731112119
-0.26286555606 -0.425325404176 -0.688190960236
-0.688190960236 -0.26286555606 -0.425325404176
-0.688190960236 0.26286555606 -0.425325404176
-0.850650808352 0.0 0.0
-0.850650808352 -0.525731112119 0.0
-0.850650808352 0.525731112119 0.0
-0.425325404176 -0.688190960236 -0.26286555606
0.0 -0.850650808352 -0.525731112119
0.688190960236 -0.26286555606 -0.425325404176
0.850650808352 0.0 0.0
0.688190960236 0.26286555606 -0.425325404176
0.425325404176 -0.688190960236 -0.26286555606
0.26286555606 -0.425325404176 -0.688190960236
0.0 0.850650808352 0.0
-0.425325404176 0.688190960236 0.26286555606
-0.425325404176 0.688190960236 -0.26286555606
-0.26286555606 0.425325404176 0.688190960236
-0.688190960236 0.26286555606 0.425325404176
-0.525731112119 0.0 0.850650808352
-0.26286555606 -0.425325404176 0.688190960236
-0.425325404176 -0.688190960236 0.26286555606
-0.688190960236 -0.26286555606 0.425325404176

CELLS 56 224
3 0 1 2
3 3 4 0
3 5 6 7
3 5 8 6
3 6 9 10
3 9 11 10
3 9 12 11
3 10 11 13
3 6 10 7
3 14 15 1
3 6 8 9
3 8 14 9
3 8 15 14
3 9 14 12
3 2 16 17
3 16 18 17
3 16 5 18
3 17 18 3
3 3 18 7
3 18 5 7
3 2 17 0
3 17 3 0
3 15 19 1
3 19 2 1
3 5 16 20
3 16 19 20
3 16 2 19
3 20 19 15
3 5 20 8
3 15 20 8
3 7 21 3
3 3 21 4
3 4 21 22
3 21 23 22
3 21 7 23
3 22 23 13
3 4 22 24
3 22 25 24
3 22 13 25
3 24 25 26
3 4 24 0
3 24 26 0
3 26 27 0
3 27 1 0
3 12 28 29
3 28 27 29
3 28 1 27
3 29 27 26
3 13 23 10
3 7 23 10
3 1 28 14
3 12 28 14
3 26 25 11
3 13 25 11
3 12 29 11
3 26 29 11

CELL_TYPES 56
5
5
5
5
5
5
5
5
5
5
5
5
5
5
5
5
5
5
5
5
5
5
5
5
5
5
5
5
5
5
5
5
5
5
5
5
5
5
5
5
5
5
5
5
5
5
5
5
5
5
5
5
5
5
5
5

CELL_DATA 56
SCALARS cell_data_0 double
LOOKUP_TABLE default
0.000404710197649
0.000399014114078
0.000957498578976
0.00081453051268
8.44755729489e-05
4.31186248588e-05
6.1229497323e-06
5.9999496026e-05
3.70975354724e-05
0.000362264370319
3.06749610025e-05
7.87831969028e-05
9.15385789984e-05
3.66973329977e-05
3.01811108986e-05
3.22195680532e-05
4.35679914957e-05
0.000339096653147
0.000339820816614
0.000149616726772
6.11973823163e-06
0.000403834132052
0.000696199067784
0.000898633854982
8.29506229551e-05
3.158004672e-05
0.000117901107349
3.21340532288e-05
0.00028284232234
8.33734091116e-05
0.000348016984946
0.000432218610825
1.6369709665e-05
0.000242779162803
0.000173765743043
0.000309470615612
4.9301076945e-06
3.11909799658e-06
7.47964980606e-05
0.000214262692287
0.000177111191666
0.000628736486679
0.000655497951216
7.28134706049e-05
3.47861064835e-05
7.30521348035e-05
0.000491982230199
0.000283477356198
0.000280887972021
0.00015577360416
0.000193188757772
6.82592390267e-05
0.00031559921007
0.000134183154246
2.16601971301e-05
0.000149521038529

