# vtk DataFile Version 3.0
File Name: Molecule/sphere_cent/sphere_cent_0-s5.vtk
ASCII
DATASET UNSTRUCTURED_GRID
FIELD FieldData 1
TIME 1 1 double
0.0
POINTS 1349 double
0.386187385588 0.891006524188 0.238676930319
0.264082750659 0.916244175191 0.301258879093
0.383613732685 0.843911474622 0.375038567478
0.26286555606 0.951056516295 0.162459848116
0.259891913008 0.862668480416 0.433888564553
0.132792476828 0.966392597402 0.220117027473
0.131655371352 0.924304600611 0.358228793487
-0.133071104141 0.987688340595 -0.0822424652791
-0.26286555606 0.951056516295 -0.162459848116
-0.266404701135 0.963861263467 0.0
-0.133071104141 0.987688340595 0.0822424652791
-0.26286555606 0.951056516295 0.162459848116
0.0 0.990438881957 -0.137952242128
-0.132792476828 0.966392597402 -0.220117027473
0.16062203564 -0.702046444776 -0.69378047756
0.0810862934433 -0.78384304242 -0.615642020874
0.0 -0.711281734962 -0.702907030488
-0.0810862934433 -0.78384304242 -0.615642020874
-0.16062203564 -0.702046444776 -0.69378047756
0.987688340595 0.0822424652791 0.133071104141
0.963861263467 0.0 0.266404701135
0.987688340595 -0.0822424652791 0.133071104141
0.951056516295 -0.162459848116 0.26286555606
0.951056516295 0.162459848116 0.26286555606
0.912982492932 0.0823235800317 0.399607051702
0.912982492932 -0.0823235800317 0.399607051702
0.850650808352 0.0 0.525731112119
0.891006524188 0.238676930319 0.386187385588
0.840177885327 0.15643446504 0.519258489728
0.840177885327 -0.15643446504 0.519258489728
0.891006524188 -0.238676930319 0.386187385588
0.809016994375 -0.309016994375 0.5
0.346153014789 0.783451698363 0.516121620051
0.468429850867 0.757935420048 0.453990499739
0.425325404176 0.688190960236 0.587785252292
0.213022865649 0.792649229259 0.571251659136
0.296004592578 0.702309846744 0.647411893882
0.131200378813 0.864929335863 0.484441642061
-0.213022865649 -0.792649229259 -0.571251659136
0.213022865649 -0.792649229259 -0.571251659136
0.51337544123 0.564254211766 -0.646577791798
0.564254211766 0.646577791798 -0.51337544123
0.646577791798 0.51337544123 -0.564254211766
0.688190960236 0.587785252292 -0.425325404176
-0.399607051702 0.912982492932 0.0823235800317
-0.386187385588 0.891006524188 0.238676930319
-0.601500955008 0.707106781186 0.37174803446
-0.688190960236 0.587785252292 0.425325404176
-0.564254211766 0.646577791798 0.51337544123
-0.646577791798 0.51337544123 0.564254211766
-0.51337544123 0.564254211766 0.646577791798
0.0 0.266404701135 0.963861263467
0.0823235800317 0.399607051702 0.912982492932
-0.0823235800317 0.399607051702 0.912982492932
0.0 -0.525731112119 -0.850650808352
-0.0823235800317 -0.399607051702 -0.912982492932
0.0823235800317 -0.399607051702 -0.912982492932
0.0 -0.266404701135 -0.963861263467
0.162459848116 -0.26286555606 -0.951056516295
-0.15643446504 -0.519258489728 -0.840177885327
-0.238676930319 -0.386187385588 -0.891006524188
-0.162459848116 -0.26286555606 -0.951056516295
0.237086325351 -0.606825149272 -0.758652300163
0.08114185162 -0.620239582613 -0.78020437071
-0.08114185162 -0.620239582613 -0.78020437071
-0.237086325351 -0.606825149272 -0.758652300163
-0.309016994375 -0.5 -0.809016994375
-0.924304600611 -0.358228793487 -0.131655371352
-0.966392597402 -0.220117027473 -0.132792476828
-0.916244175191 -0.301258879093 -0.264082750659
-0.961938357784 -0.273266528913 0.0
-0.237086325351 0.606825149272 -0.758652300163
-0.37174803446 0.601500955008 -0.707106781186
-0.296004592578 0.702309846744 -0.647411893882
-0.453990499739 0.468429850867 -0.757935420048
-0.587785252292 0.425325404176 -0.688190960236
-0.51337544123 0.564254211766 -0.646577791798
-0.425325404176 0.688190960236 -0.587785252292
-0.646577791798 0.51337544123 -0.564254211766
-0.564254211766 0.646577791798 -0.51337544123
-0.620239582613 -0.78020437071 0.08114185162
-0.519258489728 -0.840177885327 0.15643446504
-0.606825149272 -0.758652300163 0.237086325351
-0.5 -0.809016994375 0.309016994375
-0.266404701135 -0.963861263467 0.0
-0.399607051702 -0.912982492932 0.0823235800317
-0.399607051702 -0.912982492932 -0.0823235800317
-0.26286555606 -0.951056516295 0.162459848116
-0.133071104141 -0.987688340595 0.0822424652791
-0.525731112119 -0.850650808352 0.0
-0.386187385588 -0.891006524188 0.238676930319
-0.702309846744 -0.647411893882 0.296004592578
-0.783451698363 -0.516121620051 0.346153014789
-0.792649229259 -0.571251659136 0.213022865649
-0.688190960236 -0.587785252292 0.425325404176
-0.963861263467 0.0 0.266404701135
-0.912982492932 -0.0823235800317 0.399607051702
-0.912982492932 0.0823235800317 0.399607051702
-0.850650808352 0.0 0.525731112119
-0.375038567478 -0.383613732685 -0.843911474622
-0.453990499739 -0.468429850867 -0.757935420048
-0.516121620051 -0.346153014789 -0.783451698363
-0.37174803446 -0.601500955008 -0.707106781186
-0.296004592578 -0.702309846744 -0.647411893882
0.37174803446 -0.601500955008 -0.707106781186
0.425325404176 -0.688190960236 -0.587785252292
0.296004592578 -0.702309846744 -0.647411893882
-0.0822424652791 0.133071104141 -0.987688340595
0.0 0.266404701135 -0.963861263467
0.0822424652791 0.133071104141 -0.987688340595
-0.162459848116 0.26286555606 -0.951056516295
0.162459848116 0.26286555606 -0.951056516295
-0.0823235800317 0.399607051702 -0.912982492932
0.0823235800317 0.399607051702 -0.912982492932
0.0 0.525731112119 -0.850650808352
-0.238676930319 0.386187385588 -0.891006524188
-0.15643446504 0.519258489728 -0.840177885327
-0.309016994375 0.5 -0.809016994375
-0.220117027473 0.132792476828 -0.966392597402
-0.273266528913 0.0 -0.961938357784
-0.358228793487 0.131655371352 -0.924304600611
-0.301258879093 0.264082750659 -0.916244175191
-0.433888564553 0.259891913008 -0.862668480416
-0.375038567478 0.383613732685 -0.843911474622
-0.08114185162 0.620239582613 -0.78020437071
-0.16062203564 0.702046444776 -0.69378047756
-0.484441642061 -0.131200378813 0.864929335863
-0.433888564553 -0.259891913008 0.862668480416
-0.358228793487 -0.131655371352 0.924304600611
-0.403355348617 0.0 0.915043421233
-0.273266528913 0.0 0.961938357784
-0.301258879093 -0.264082750659 0.916244175191
-0.220117027473 -0.132792476828 0.966392597402
-0.162459848116 -0.26286555606 0.951056516295
-0.375038567478 -0.383613732685 0.843911474622
-0.238676930319 -0.386187385588 0.891006524188
-0.309016994375 -0.5 0.809016994375
-0.0822424652791 -0.133071104141 0.987688340595
-0.15643446504 -0.519258489728 0.840177885327
-0.0823235800317 -0.399607051702 0.912982492932
0.0 -0.525731112119 0.850650808352
0.0823235800317 -0.399607051702 0.912982492932
0.0 -0.266404701135 0.963861263467
0.162459848116 -0.26286555606 0.951056516295
0.15643446504 -0.519258489728 0.840177885327
0.238676930319 -0.386187385588 0.891006524188
0.0822424652791 -0.133071104141 0.987688340595
-0.237086325351 -0.606825149272 0.758652300163
-0.08114185162 -0.620239582613 0.78020437071
-0.16062203564 -0.702046444776 0.69378047756
0.0 -0.711281734962 0.702907030488
0.08114185162 -0.620239582613 0.78020437071
0.16062203564 -0.702046444776 0.69378047756
-0.0810862934433 -0.78384304242 0.615642020874
0.0810862934433 -0.78384304242 0.615642020874
0.0 -0.850650808352 0.525731112119
0.237086325351 -0.606825149272 0.758652300163
0.220117027473 -0.132792476828 0.966392597402
0.137952242128 0.0 0.990438881957
0.273266528913 0.0 0.961938357784
0.301258879093 -0.264082750659 0.916244175191
0.358228793487 -0.131655371352 0.924304600611
0.433888564553 -0.259891913008 0.862668480416
0.375038567478 -0.383613732685 0.843911474622
0.309016994375 -0.5 0.809016994375
0.484441642061 -0.131200378813 0.864929335863
0.403355348617 0.0 0.915043421233
0.525731112119 0.0 0.850650808352
0.615642020874 -0.0810862934433 0.78384304242
0.571251659136 -0.213022865649 0.792649229259
0.69378047756 -0.16062203564 0.702046444776
0.516121620051 -0.346153014789 0.783451698363
0.647411893882 -0.296004592578 0.702309846744
0.587785252292 -0.425325404176 0.688190960236
0.453990499739 -0.468429850867 0.757935420048
0.758652300163 -0.237086325351 0.606825149272
0.707106781186 -0.37174803446 0.601500955008
0.37174803446 -0.601500955008 0.707106781186
0.51337544123 -0.564254211766 0.646577791798
0.296004592578 -0.702309846744 0.647411893882
0.425325404176 -0.688190960236 0.587785252292
0.213022865649 -0.792649229259 0.571251659136
0.346153014789 -0.783451698363 0.516121620051
0.259891913008 -0.862668480416 0.433888564553
0.131200378813 -0.864929335863 0.484441642061
0.383613732685 -0.843911474622 0.375038567478
0.468429850867 -0.757935420048 0.453990499739
0.5 -0.809016994375 0.309016994375
0.757935420048 -0.453990499739 0.468429850867
0.843911474622 -0.375038567478 0.383613732685
0.783451698363 -0.516121620051 0.346153014789
0.688190960236 -0.587785252292 0.425325404176
0.862668480416 -0.433888564553 0.259891913008
0.702309846744 -0.647411893882 0.296004592578
0.792649229259 -0.571251659136 0.213022865649
0.702046444776 -0.69378047756 0.16062203564
0.601500955008 -0.707106781186 0.37174803446
0.606825149272 -0.758652300163 0.237086325351
0.864929335863 -0.484441642061 0.131200378813
0.78384304242 -0.615642020874 0.0810862934433
-0.383613732685 -0.843911474622 0.375038567478
-0.468429850867 -0.757935420048 0.453990499739
-0.346153014789 -0.783451698363 0.516121620051
-0.259891913008 -0.862668480416 0.433888564553
-0.425325404176 -0.688190960236 0.587785252292
-0.213022865649 -0.792649229259 0.571251659136
-0.296004592578 -0.702309846744 0.647411893882
-0.131200378813 -0.864929335863 0.484441642061
-0.37174803446 -0.601500955008 0.707106781186
-0.809016994375 -0.309016994375 0.5
-0.707106781186 -0.37174803446 0.601500955008
-0.758652300163 -0.237086325351 0.606825149272
-0.647411893882 -0.296004592578 0.702309846744
-0.587785252292 -0.425325404176 0.688190960236
-0.69378047756 -0.16062203564 0.702046444776
-0.516121620051 -0.346153014789 0.783451698363
-0.571251659136 -0.213022865649 0.792649229259
-0.453990499739 -0.468429850867 0.757935420048
-0.615642020874 -0.0810862934433 0.78384304242
0.897062138447 -0.395006973741 -0.198113630173
[...]
CELL_DATA 2694
SCALARS cell_data_0 double
LOOKUP_TABLE default
9.34231624748e-09
4.77024303169e-11
3.20096012987e-09
7.95889074949e-09
1.07302958567e-08
2.26927279606e-08
2.17737508506e-08
1.29513297227e-08
3.91691940247e-09
1.4118131578e-08
9.3750152101e-09
1.87358486198e-08
7.66293886017e-09
2.51040353594e-08
1.56756326904e-08
1.97240310282e-08
2.21854080664e-08
3.03255111996e-08
2.08025619345e-08
3.4887877212e-08
2.71974792494e-08
1.2049881413e-08
2.3963206897e-09
1.50699506586e-08
1.184766948e-08
2.94737360843e-08
1.53250338613e-08
1.07567893823e-08
1.09575101754e-08
5.4565077653e-08
3.62567327157e-08
4.89785472562e-08
1.01687424036e-08
2.47557783969e-08
9.00985701177e-08
4.89054333168e-08
6.10883477249e-08
4.63772644196e-08
4.6633408499e-08
6.01926882112e-08
5.55176699611e-08
2.47338867307e-08
1.4993580389e-08
3.3109998315e-09
1.5894763901e-08
2.08018051232e-08
1.51844816571e-09
1.10091469696e-08
1.47970674294e-08
3.18942726996e-08
1.76231186444e-08
3.89797240618e-08
3.35456001769e-08
1.78627837338e-08
5.32179277708e-08
3.16162658785e-08
3.65139415386e-08
4.09216137325e-08
2.6787958149e-08
1.75591255114e-08
2.79771554418e-08
6.24503710769e-08
4.11721023078e-08
6.45059592267e-08
4.10694199183e-08
6.1479571389e-08
7.19458407878e-08
1.85162938098e-08
7.32127893872e-09
8.2431177161e-10
1.40181896609e-08
4.16613021153e-08
2.97188599687e-08
2.74031554196e-08
3.07569255287e-08
3.26166169931e-08
3.44968841133e-08
3.54649474111e-08
2.53368975437e-08
2.37977776205e-08
2.96882305821e-08
1.99023078088e-08
1.08992645954e-08
1.69666509648e-09
6.32295017648e-09
5.31168482229e-09
6.58216299242e-09
2.65846688334e-09
1.37410162637e-08
1.1412693748e-08
5.24468366246e-09
6.55822682725e-10
4.73771887485e-09
8.90854399762e-09
2.38173170974e-08
2.69676468306e-08
1.88790164055e-08
3.62616768148e-08
3.29445014373e-08
2.59286211839e-08
2.22151164265e-08
3.42446487013e-08
1.41362460013e-08
2.10097897977e-08
2.38079960716e-08
3.09035306553e-08
3.8014687004e-08
2.44771406116e-08
3.27870849642e-08
2.65308647926e-08
4.93278357226e-08
3.52276551899e-08
4.63444716471e-08
1.35939642838e-09
4.56805878361e-09
8.42790336204e-10
4.14961274983e-08
2.86631700645e-08
8.86145227999e-09
2.43557202749e-08
8.65895460179e-09
8.24393176235e-09
9.44580630992e-09
3.21077431005e-08
3.62618403935e-08
2.48057401582e-08
2.12172887128e-08
2.08686176496e-08
1.70755235855e-08
4.89838210242e-09
1.01060140127e-08
4.01217581224e-09
1.50489987928e-08
4.629285416e-10
1.55467964807e-08
1.81959752366e-08
1.77677173333e-08
2.49340829738e-08
1.5991834975e-08
1.97358606533e-08
3.46530034876e-09
1.01797679478e-08
1.93385900745e-10
1.50130562849e-08
2.0076348636e-08
6.69877498649e-09
1.68896049924e-08
1.88384716244e-08
1.67188704895e-08
5.59418381331e-09
1.42390495891e-08
7.09001417938e-09
1.3640652584e-08
1.27416948226e-08
9.64953766486e-09
7.38734456345e-09
1.5533205296e-08
7.69265001575e-09
5.88949527277e-09
1.41177672093e-09
1.24627231269e-08
1.18620087289e-08
8.42187075309e-09
2.87588453753e-08
3.41815729698e-08
3.3321748241e-08
1.50810699259e-08
7.3857959439e-09
9.40264669773e-09
4.15832128798e-09
1.1495316786e-08
1.09820096735e-08
9.37511524056e-10
5.7166935648e-09
5.66826767847e-09
1.64991226544e-08
1.23504681949e-08
1.6005339278e-08
2.38478098764e-08
8.97545834358e-09
1.61470048283e-08
1.41802779569e-08
1.25494850435e-09
1.76384449769e-08
2.5094202054e-08
1.82798654985e-08
1.74207083812e-08
1.14723060506e-08
2.21672616717e-08
1.23846760244e-08
2.00100618582e-08
1.35444754811e-08
3.17637566626e-08
1.61699173992e-08
1.92388197003e-08
8.51816036643e-09
1.16996839081e-08
9.25280208153e-09
1.38907586244e-08
1.30095873776e-08
6.90160458217e-09
8.25245722014e-09
8.68112377082e-09
9.72773439051e-09
9.58627851986e-09
3.90475083023e-09
1.62028008551e-08
1.60653397611e-08
1.89744559242e-08
3.44648726766e-08
3.41488654055e-08
1.76330257866e-08
2.36103789486e-08
1.13680714689e-08
1.60941520037e-08
8.64784993292e-09
1.16893632886e-08
3.89114159867e-09
1.72107090471e-08
1.29665099589e-08
1.28376672702e-08
2.07182946059e-08
3.85059598856e-08
1.83267367006e-08
6.21451279779e-10
8.91236624862e-09
1.32957656087e-08
7.82104552665e-09
7.88106890137e-09
5.42618859646e-09
1.1816166649e-09
5.55891887965e-09
2.58148437126e-09
1.94516646032e-09
6.32897298576e-09
2.4222213373e-09
1.84899731161e-09
6.11213365497e-09
6.45067793835e-09
6.15253747692e-09
1.68742815002e-08
2.88485719232e-08
5.06957928312e-08
1.5438101344e-08
1.86579685337e-08
2.12466909794e-08
8.75815104822e-09
4.32263656922e-09
8.19787098355e-09
1.25964053306e-08
4.97347892792e-09
1.02224225713e-08
9.17673384139e-09
7.89487464247e-09
1.09478739511e-08
9.65353129279e-09
8.49421135792e-09
1.27687716351e-08
6.03614670455e-09
1.09148619966e-08
9.69257902168e-09
7.60739063654e-09
1.7821572799e-09
2.43284087091e-09
2.91986779481e-09
1.28631248635e-08
7.55522263282e-09
1.44499954887e-08
6.3265116448e-09
4.68679224932e-09
5.40411513942e-09
6.46530189746e-09
1.24293349479e-08
1.49051612977e-08
4.1389301096e-09
7.79635503717e-09
5.81561266045e-09
6.74056703043e-09
7.83489532319e-09
1.52665791991e-09
8.1145816009e-09
7.05531641912e-09
1.24865642947e-08
9.99891099773e-09
2.39219932525e-09
9.16147396408e-09
1.2447129162e-08
7.42976870311e-09
7.06602598919e-09
3.65554687183e-09
2.05860776066e-10
4.07642053747e-09
2.73010312709e-09
2.35596693644e-09
1.01407363053e-11
7.67099738683e-10
6.31864419435e-09
1.01128415727e-08
1.13132649741e-08
1.00555221202e-08
1.02160393009e-08
5.13007105279e-08
5.31051527333e-08
1.13981511216e-08
1.3212365705e-08
9.63921862147e-09
8.91763486725e-09
1.30576847107e-08
9.77732526546e-09
1.25085191936e-08
9.8881630994e-09
6.47922672568e-09
3.30286069726e-09
7.78026195035e-09
1.2136011802e-08
8.62581473185e-09
8.78645465894e-09
9.26765259465e-09
7.76887746227e-09
6.88072475786e-09
1.02946936021e-08
6.87999009484e-10
7.47336285945e-09
2.55349088636e-09
1.41688057724e-08
5.12188853941e-09
8.07478958065e-09
8.70603249478e-09
7.57625418283e-09
1.19485531337e-08
3.76675517615e-09
5.385458943e-09
7.52400669684e-09
1.49483228166e-08
9.68568053233e-09
1.85382425802e-08
8.52631173236e-09
9.00882705244e-09
8.19068530152e-09
7.36769815741e-09
8.60554124328e-09
3.12053631274e-09
2.27943095076e-08
1.3790157344e-08
9.33282642648e-09
7.78694260287e-09
1.0507360651e-08
7.29729081509e-09
7.6457219591e-09
4.98056293428e-09
3.82203807327e-09
1.04974484679e-08
5.23265259405e-09
1.11387885405e-08
1.24474216422e-09
5.49724383268e-09
5.10506495658e-09
8.50227815193e-09
8.32907891528e-09
4.85750173334e-09
1.2397752962e-08
6.91906058132e-09
2.74184265856e-09
6.23308519607e-09
8.17840287041e-09
8.08422399796e-09
1.17014882233e-08
8.04084236919e-09
1.02036778257e-08
1.15049211707e-08
8.07729086717e-09
9.19061168941e-09
1.42091454966e-08
8.26173975828e-09
1.45557717415e-08
8.73351862243e-09
8.16642191982e-09
7.77131092282e-09
7.10322960278e-09
9.58541452523e-09
8.45174725918e-09
6.24729154579e-09
1.11419387555e-08
1.12380150609e-08
8.08849070584e-09
1.1158615521e-08
8.7281888158e-09
3.58822784284e-08
8.353111692e-09
3.77983780209e-09
2.29960094579e-09
1.59870955665e-08
9.94290651894e-09
1.58883251983e-08
1.4063576578e-08
1.40214615216e-08
1.4230150312e-08
9.05139699981e-09
1.43213708094e-08
1.49359024634e-08
1.30154266924e-08
8.03215492768e-09
1.18430648202e-08
1.39197090556e-08
1.92361673835e-08
6.46183559052e-09
5.96302779611e-09
4.92693918826e-08
1.55872280398e-11
1.03802916455e-08
6.56969914054e-09
1.16361378369e-08
1.02699022656e-08
1.2470660515e-08
9.83801422336e-09
5.83362939169e-09
5.92861645466e-09
5.84624268919e-09
8.73573887243e-09
4.86557568786e-09
5.73325623688e-09
5.50847697259e-09
7.83944516154e-09
3.83816523359e-09
7.80086355448e-09
8.62843770335e-09
4.44362013125e-10
3.05724772304e-09
1.40402160571e-08
3.88091526507e-08
4.87718052602e-08
1.1529088287e-08
1.27192919675e-08
1.31256257192e-08
8.85209223504e-09
6.60082986084e-09
5.97671237868e-09
1.74546027922e-09
2.70015479269e-09
1.79464925726e-09
8.21695431441e-09
1.20463490922e-08
7.69872107543e-09
1.00508941941e-08
8.50814501257e-09
8.65128795768e-09
5.12046500262e-09
8.66055938756e-09
5.34168656012e-09
1.66542164339e-08
1.38156080537e-09
3.9213035706e-08
9.10643778137e-09
2.28145835181e-10
8.92653818555e-10
2.09556125454e-08
8.90952443783e-09
8.92251698816e-08
7.11863975889e-09
4.70877206564e-09
5.18777198665e-09
8.40594170307e-09
2.65258167898e-09
2.62266426444e-09
4.67658583991e-09
7.91974764897e-09
2.94605407084e-09
1.85721262332e-08
5.4250275952e-09
8.18479595485e-09
9.56443031561e-10
8.73102978352e-10
4.64995988176e-09
1.7237901053e-08
2.47259609188e-09
2.74320977408e-09
1.03889841694e-08
1.20583549468e-09
5.47184960022e-10
3.21210411135e-10
2.26144858987e-09
2.8396284508e-09
8.57792054471e-09
1.74227971872e-09
4.80908892025e-09
4.24646770589e-09
1.75386699867e-09
5.12832307159e-09
3.79930796846e-09
5.70190193383e-09
5.34661925481e-09
6.76744917574e-09
4.59458254935e-09
2.1553122551e-10
4.93265089677e-09
8.26763915843e-09
9.8521215532e-12
2.58850281414e-09
7.21939536915e-09
7.30725073534e-09
5.86725862848e-09
8.29841899191e-09
3.30978387075e-09
1.4740615222e-08
2.06485668925e-08
6.2336151063e-09
8.0835795283e-09
8.49255819917e-09
1.82523961895e-08
9.42498044722e-09
1.02625585418e-08
5.23546479951e-10
1.51787973344e-08
7.40187530941e-09
5.0188105114e-09
4.24572012287e-08
1.04112637117e-07
3.08266222866e-10
5.32970384702e-11
1.88292465815e-08
1.09448134785e-08
1.43473613594e-09
5.62472443944e-09
1.33067527906e-08
2.24802949903e-08
5.17913910786e-09
4.45859470555e-09
2.13442473166e-08
5.75830607224e-09
1.34373732694e-09
1.27899704054e-09
2.00305823111e-08
4.83298713023e-09
1.42361289449e-08
9.72314683242e-09
1.04834066735e-08
4.61999078009e-10
1.73121587867e-08
3.20209096501e-10
1.18026666934e-08
1.24940996208e-09
1.09488798669e-09
6.94917874401e-09
4.87559142333e-09
7.46388847413e-09
7.97561065987e-09
7.61901600167e-09
1.14973940764e-08
3.09456531182e-09
1.36889757618e-08
8.52514321764e-09
5.46249011251e-09
4.56873851926e-09
9.13855272284e-09
6.88567495422e-09
9.60120628199e-11
9.52489286215e-09
6.81865735878e-09
1.27573218411e-08
3.9856865616e-09
3.64552503351e-09
1.93274445096e-08
1.79996763158e-08
8.22981201754e-09
3.56468385022e-09
1.53929277602e-09
7.05765882037e-09
1.61421867981e-08
3.96434843888e-09
4.40315373679e-09
1.81539462223e-08
7.01077809669e-09
6.20434220123e-09
1.08321297652e-08
4.67369427578e-09
6.45126356226e-09
9.55701586963e-09
1.90943429878e-08
2.69546379691e-08
6.9030321522e-09
6.54994129496e-09
5.00690612899e-09
6.56733018896e-09
7.88331336869e-09
2.1891954069e-08
3.17768858948e-08
2.03382970342e-08
1.81869492304e-08
1.39885018036e-08
2.87938595025e-08
1.85251867656e-08
1.27668292897e-08
2.514733852e-08
3.19074709627e-08
4.00739650495e-08
1.86970728781e-08
9.70101400974e-09
4.32161829809e-08
2.83630997669e-08
3.34138991024e-08
1.27898582598e-08
2.54230846705e-08
9.98731539624e-09
9.30738916242e-09
3.54717524014e-08
4.31485178046e-08
2.27428544988e-08
1.98301400072e-08
1.97968720363e-08
2.73577288393e-08
1.79228731245e-08
3.31460878625e-08
3.16545403308e-08
3.44084672522e-08
1.97352349495e-08
1.3993278979e-08
5.99835405765e-08
6.28481641716e-08
5.74355834481e-08
5.3041578588e-08
1.89703329811e-08
3.26094089249e-08
1.83883605293e-08
2.33064067132e-08
2.81097930935e-08
4.92770593264e-08
3.50909033729e-08
4.25402393696e-08
2.0851696161e-08
3.43155126218e-08
2.19463459923e-08
1.85911293029e-08
3.60300622812e-08
3.73685286846e-08
2.32493946436e-08
2.72299137628e-08
2.24196679914e-08
3.11484817213e-08
2.54110882786e-08
1.56127001245e-08
1.86502728131e-08
2.54542731095e-08
1.05720434594e-08
2.43824061874e-08
2.7673514899e-08
3.56943751663e-08
2.71988799472e-08
3.30055494094e-08
2.98770772201e-08
3.76365097957e-08
2.84324292842e-08
1.61504505367e-08
2.27285781158e-08
3.45337054513e-08
3.48197914604e-08
3.15431258582e-08
2.32870644418e-08
3.04843259741e-08
1.95497145902e-08
1.73557024926e-08
4.21100796186e-08
4.31229372593e-08
4.93152226966e-08
2.65957258545e-08
2.06791518308e-08
2.77690740615e-08
1.20024099109e-08
2.00176976798e-08
2.26938828311e-08
4.56522558302e-08
3.28844802992e-08
2.47922058719e-08
1.49316862356e-08
3.57770776534e-08
1.63100275874e-08
2.45197411528e-08
2.69617353772e-08
3.80033180344e-08
2.29906473487e-08
2.47927313767e-08
1.68188984466e-08
2.52835089995e-08
1.25368746765e-08
1.50166266507e-08
1.98780378928e-08
2.52698040844e-09
1.06062849551e-08
7.71667779809e-09
5.20612607485e-08
6.33510185081e-08
5.2606257403e-08
4.84894025075e-08
1.83366996338e-08
2.67659021324e-08
5.19464055969e-08
1.5994603612e-08
2.96770820153e-08
4.04646187573e-08
2.84738031911e-08
2.49746522993e-08
2.50346298893e-08
3.96453949958e-08
2.93283524315e-08
3.21803267723e-08
1.37158865256e-08
3.74555193563e-08
2.59893964317e-08
2.30068355398e-08
2.26896907088e-08
3.81777346778e-08
3.24667454678e-08
2.30980759085e-08
4.21972427927e-08
3.01363518215e-08
1.81507249925e-08
3.32711607498e-08
2.66779346578e-08
3.9013787224e-08
2.61997942458e-08
2.12398694192e-08
1.93074140684e-08
1.79314369815e-08
1.13446351933e-08
2.23301566472e-08
2.17209208924e-08
3.63475148804e-08
3.05344200842e-08
2.80698063958e-08
2.78268199548e-09
2.48775030871e-09
4.61751171357e-09
6.90188360732e-09
1.64223786745e-08
2.65675595756e-09
9.12583255152e-10
7.11233890928e-09
6.19030041855e-10
1.43565129358e-09
2.58940482667e-09
1.01146788308e-08
1.32160357178e-08
1.80871489795e-09
7.70673470613e-09
4.87576573418e-09
2.95227690943e-09
9.79008580007e-10
6.05292092909e-09
3.26745611774e-09
8.65656206921e-09
2.3853644219e-09
1.42531241734e-08
6.08376527823e-09
8.50445499584e-09
1.19353838623e-08
7.96848477606e-09
4.25759729937e-09
1.10940830729e-09
8.78069322038e-09
7.80048657051e-09
5.73307664786e-09
8.44863115763e-09
3.16770869559e-09
8.08482731194e-09
5.17313455963e-09
7.66811330779e-09
1.98402699278e-09
8.10133228289e-09
5.0723350976e-09
7.27883485885e-09
5.05017247458e-09
1.0885675887e-08
6.28306360118e-09
1.00575601823e-08
4.41654771483e-09
6.77916098457e-09
9.18624480336e-09
7.79112231156e-09
1.58906120055e-09
7.50125085183e-09
7.8367801461e-09
4.90420413595e-09
4.78582523255e-09
4.63933965382e-09
2.2137414639e-09
4.22741834043e-09
7.86344199682e-09
7.76255124599e-09
6.94665053349e-09
9.21032776806e-09
1.22276670922e-08
9.41480553455e-09
5.46302481128e-09
9.60874434153e-09
4.74876612093e-09
3.46438871856e-09
4.8803776995e-10
3.91932449247e-09
9.7155980373e-09
7.23314453323e-09
6.55825491324e-09
6.34296145976e-09
1.24477867334e-08
1.58530845673e-08
7.93667983556e-09
6.89047456214e-09
4.61771046724e-10
3.50254670863e-09
7.10059722178e-09
7.61437697689e-09
3.57357680058e-09
6.44589308817e-09
4.62014548151e-09
8.66336790041e-09
4.0835857621e-09
8.51184731176e-09
7.39070728466e-09
6.11864162676e-09
3.5465275081e-10
3.30875191197e-09
5.16092638844e-09
5.13816151506e-09
2.9967592628e-10
4.34690419251e-09
5.38879582645e-09
8.70737288213e-09
4.55209378173e-09
5.29924869965e-09
8.15760062264e-09
3.10865516579e-09
4.59024328258e-10
5.92262677746e-09
6.60519720857e-09
4.01156586883e-11
3.64752047624e-09
4.4980260417e-09
4.66547791125e-09
7.00148711496e-09
4.41257448674e-09
3.17496934819e-09
4.30329377498e-09
4.83637824215e-09
3.61709311674e-10
4.01954340823e-09
6.71663707231e-09
2.88413205752e-10
1.00787675947e-08
5.3750992794e-09
3.49894607565e-10
1.85246746707e-09
6.04609570356e-09
3.76476198667e-09
1.08813372218e-10
4.17749491114e-09
1.96938654442e-09
1.81334780314e-09
6.19109232321e-10
4.04838022853e-09
5.23606225762e-09
2.77781751736e-09
3.45869635762e-09
6.39241812468e-09
1.79494279108e-09
5.13949730655e-09
5.89149993025e-09
6.19271630361e-09
3.01975121219e-09
6.3994136338e-09
5.56238174128e-09
5.76258298279e-09
1.98726962099e-09
4.46647655153e-09
3.73442043476e-09
2.02444327797e-09
2.68209950106e-09
1.08540589496e-09
5.24013458605e-10
1.58490858376e-09
1.28572041599e-09
5.92216797761e-09
2.73548278881e-09
4.75256132409e-09
4.41163908128e-09
6.90447521998e-09
5.40417730517e-09
8.21920695582e-09
5.40891271404e-09
7.77394044205e-09
8.42345511333e-09
7.06589323121e-09
4.14107031764e-09
6.68901209477e-09
6.68655669431e-09
1.01017871277e-08
5.98209312635e-09
8.63921120843e-09
6.26164413589e-09
7.56824409508e-09
8.96620621595e-09
6.79692656502e-09
5.81277689887e-09
8.64571676104e-09
1.13940207653e-08
7.30002020539e-09
5.34873573674e-09
7.13500202285e-09
7.21689789039e-09
6.95756984789e-09
3.51919060968e-09
8.00996271962e-09
7.51788334931e-09
3.18337173059e-09
1.40114636718e-09
1.83070423181e-09
4.88673174227e-09
9.06640070111e-10
4.85677255787e-09
2.47102806931e-09
8.48495909673e-09
7.58646559519e-09
5.84563776338e-09
6.15324698425e-09
8.16021938459e-10
1.30166674372e-08
5.4483468571e-09
4.14575552936e-09
4.09820655107e-09
1.08449084473e-08
6.95580060776e-09
7.44598692242e-09
4.17052630731e-09
9.80401488013e-09
7.80317048053e-09
1.20899027941e-08
1.64451490558e-08
1.83792024461e-09
6.48419819994e-09
7.82252776828e-09
2.53012179325e-09
3.918451624e-09
6.23952162096e-09
4.81938590886e-09
7.42030676629e-10
9.79061991452e-10
8.94598022437e-10
2.52854387864e-09
4.76308560519e-09
5.22084145077e-09
3.3287720376e-09
6.87087131926e-09
6.59283393705e-09
6.28716792302e-09
5.86920509785e-09
9.81713621207e-09
9.75198094379e-09
7.03066936215e-09
4.11424645372e-09
8.76210889029e-09
8.56728845071e-09
2.14417398705e-09
1.26182455983e-09
3.22062904573e-09
6.59455794259e-09
5.24697377472e-09
2.55874291662e-09
1.90015607593e-09
9.9795869517e-10
7.63272520585e-10
8.88381688527e-09
7.08543620903e-09
4.35794740599e-09
7.54405866544e-09
1.15148079954e-08
8.61443938328e-09
4.9063174094e-10
4.03523876874e-09
7.16281760486e-10
6.08704893515e-09
9.62171742876e-10
3.35867426879e-09
2.71687288713e-09
4.3495280634e-09
3.49412719016e-09
2.00051018389e-09
5.18132622412e-10
3.48378196336e-09
2.1115281512e-09
4.88802546314e-09
1.90655043118e-09
5.67042202157e-09
6.26697255187e-09
6.20794815645e-09
2.367226747e-09
4.83866559328e-09
4.70971965873e-09
6.35697049292e-09
4.26391820187e-09
9.8792448175e-09
8.74096768994e-09
6.76014436102e-09
4.17484104798e-09
8.86543594746e-09
1.20555337849e-08
1.37781842737e-09
7.13426170625e-11
1.09709436327e-09
1.22612117144e-09
6.11749447478e-09
1.34412156018e-09
3.51932327735e-10
2.16125626779e-09
4.18874030018e-09
7.89707446238e-09
6.96729265602e-09
5.15229548959e-09
1.07912587324e-09
8.56891311686e-10
4.55171285685e-09
6.24797720182e-11
2.36422182876e-09
5.17000223064e-09
6.25237450886e-09
2.04590248603e-09
8.38323445172e-09
7.85677936055e-09
1.20277986805e-08
3.02672964119e-09
3.99179762186e-09
6.66644989666e-09
1.04678727038e-09
9.31089891754e-09
1.0225884808e-08
7.08001312239e-09
1.04265601366e-08
7.56046093417e-09
1.00875755123e-08
5.25781881186e-09
1.05257626902e-09
3.33755918227e-10
5.57810791865e-09
5.84034216601e-09
2.31883067273e-09
3.07008702763e-09
3.12286520507e-09
4.49742284101e-09
1.04355168632e-08
3.47019098853e-09
1.1061484348e-08
4.94243213269e-09
1.6938347642e-10
9.41683749446e-09
1.26592441241e-08
4.42524851009e-09
1.7397911852e-09
6.37936838865e-09
9.96166808418e-10
7.95936976056e-09
6.82945860706e-09
3.53561411672e-09
7.37019234248e-09
3.99701944339e-09
5.39508137144e-09
9.021461204e-09
2.8999729374e-10
4.97951580693e-09
2.12622674591e-09
4.07873397983e-09
3.10302512465e-09
4.15475665013e-09
1.93040975767e-09
8.8872991713e-10
4.33325538619e-09
6.2326104142e-09
6.52453067864e-09
3.83053314714e-09
7.29288675577e-09
5.18666032136e-09
6.94466740845e-09
3.01331650144e-09
4.03053625534e-09
1.16394034183e-08
4.79231707361e-09
1.31392900416e-08
2.05813014907e-08
7.95444986544e-09
8.39456473555e-09
7.11965256137e-09
2.32868618292e-09
1.84610303657e-09
8.44959255135e-09
2.35025653811e-09
1.13952119246e-09
1.22089909351e-08
3.11618578642e-09
1.0358652863e-08
1.03662321742e-08
2.10342153725e-09
7.31883263765e-09
5.81242650153e-09
3.16591020224e-09
2.21558410254e-09
6.91371094263e-09
1.37721775226e-09
9.71586889288e-09
6.70176771222e-10
1.25343862332e-08
2.58986448774e-09
8.07473355521e-09
1.09971083151e-09
1.59415955931e-08
5.84625780372e-09
7.99478594789e-09
8.95079952557e-09
9.52432913729e-09