# vtk DataFile Version 3.0
File Name: Molecule/sphere_cent/sphere_cent_0-s4.vtk
ASCII
DATASET UNSTRUCTURED_GRID
FIELD FieldData 1
TIME 1 1 double
0.0
POINTS 230 double
0.58810967207 0.42929688096 -0.68520200253
0.43207457662 0.68385756016 -0.58791363239
0.67777347565 0.5860118866 -0.44021347165
0.31485086679 0.50404310226 -0.80305057764
0.16842135787 0.69277894497 -0.69978374243
0.25910657644 0.9499912858 0.16920560598
-0.00037295476068 0.96001088619 0.27999162674
0.25451797247 0.8629950285 0.43650579453
7.8847129771e-05 0.85061323643 0.52579259872
-0.25354930758 0.86301988363 0.43685796857
-0.26735785604 0.950745821 0.15695102513
-0.018632505089 0.99847555161 0.011619545519
-0.49999794364 0.80899232626 0.30904623866
-0.26667192578 0.95103347301 -0.15646250546
-0.51982420683 0.85420113802 7.4146708357e-05
-0.49999818206 0.8090083003 -0.30901131034
-0.27196839452 0.86111438274 -0.42804291844
-0.70638608932 0.69025683403 0.15663377941
-0.70644569397 0.69018751383 -0.15659752488
-0.85065859556 0.52571851015 6.1331520556e-05
-0.15672121942 0.70625370741 0.69048416615
-0.4315956831 0.68389219046 0.58816689253
-0.30447149277 0.50660938025 0.80582916737
-0.68447035551 0.5872644186 0.43190562725
-0.5867485404 0.44073775411 0.67700958252
-0.86313575506 0.43660977483 0.2539293766
-0.81128627062 0.31316500902 0.492490381
0.15689970553 0.70625144243 0.69043046236
4.5141059672e-05 0.51901060343 0.85466426611
0.30473223329 0.50614082813 0.80596983433
-0.14468462765 0.2526165247 0.95511204004
0.1449085474 0.25231099129 0.95519042015
0.00031883743941 -0.012334860861 0.99991834164
0.00026740663452 -0.51922023296 -0.85459679365
-0.15590701997 -0.2664206028 -0.95112520456
0.1475713253 -0.27166119218 -0.94992852211
-0.3089941442 -0.49998605251 -0.80902004242
0.30402085185 -0.50752902031 -0.80555981398
0.15675643086 -0.70632427931 -0.69035130739
-0.15653543174 -0.70638549328 -0.69027459621
0.00014592206571 -0.85071086884 -0.52563357353
-0.0097275543958 -2.3977898309e-05 -0.99937427044
-0.27981179953 -0.00023431658337 -0.96004897356
-0.43643718958 -0.25349962711 -0.86326414347
-0.52566289902 -1.8865212041e-06 -0.85069292784
0.43195131421 0.68391370773 0.58784133196
0.60340625048 0.42696553469 0.67097395658
0.67962771654 0.58434998989 0.44022572041
0.49745959044 0.80752164125 0.31488066912
-0.69016164541 -0.15652275085 -0.70649051666
-0.69003796577 0.1567427516 -0.70656251907
-0.85436588526 2.2740958229e-05 -0.51967000961
-0.80901348591 -0.30899694562 -0.49999517202
-0.80901497602 0.30900278687 -0.49998942018
-0.95108163357 -0.15623468161 -0.26651999354
-0.95103597641 0.15644794703 -0.26655641198
-0.99998807907 -1.625646064e-06 4.7323919716e-05
-0.86329036951 -0.43637615442 -0.25348767638
-0.95999914408 -0.27990213037 -2.0718638552e-05
-0.85062551498 -0.5257717967 0.00017995353846
-0.86334449053 0.43631097674 -0.25341579318
-0.96000736952 0.27993419766 -0.00011579398415
-0.16801051795 0.69291740656 -0.70006847382
-0.30899861455 0.50000089407 -0.8090108037
-0.43158447742 0.68431538343 -0.5877674818
-0.58793497086 0.43121302128 -0.68434613943
-0.68466323614 0.58770114183 -0.43102791905
-0.43675717711 0.25352969766 -0.8630926013
-0.70644927025 -0.69022357464 -0.15643537045
-0.7055247426 -0.69082570076 0.15799492598
-0.51911079884 -0.85470110178 0.0011048706947
-0.49996829033 -0.80906242132 -0.3089106977
-0.4922324121 -0.81032001972 0.31786245108
-0.26599007845 -0.95140457153 -0.1551387459
-0.26496988535 -0.9510461092 0.15907153487
0.0040448303334 -0.99990290403 0.011196980253
-0.25339150429 -0.8634314537 -0.43615153432
0.00018245464889 -0.96052199602 -0.2781445384
-0.86287844181 -0.43635907769 0.25493752956
-0.68348193169 -0.58793359995 0.43263697624
-0.80397337675 -0.30802091956 0.50860452652
-0.95089262724 0.1560536325 0.26708179712
-0.95077955723 -0.15705913305 0.2670391202
-0.85456562042 -0.016478030011 0.51660966873
-0.5877661109 -0.43136170506 -0.68443965912
-0.43125674129 -0.68462324142 -0.58762967587
-0.68460518122 -0.5877840519 -0.43107256293
0.25494471192 -0.86318212748 -0.4358265996
0.26734161377 -0.95106244087 -0.15488837659
0.50658392906 -0.80807667971 -0.30042138696
0.67703920603 -0.60340255499 -0.41811406612
0.43264746666 -0.68407320976 -0.5871694684
-0.15613467991 0.26642459631 -0.95106804371
0.00056626886362 0.51942956448 -0.85447722673
0.14734831452 0.27081865072 -0.94983434677
-0.53000426292 0.016200728714 0.84796690941
-0.43563961983 -0.25452852249 0.86320513487
-0.2709620893 -0.020611003041 0.96235156059
-0.15714626014 -0.27385765314 0.94881886244
-0.30928978324 -0.50042188168 0.80864077806
6.4243664383e-05 -0.52211034298 0.85287290812
0.15778513253 -0.27321922779 0.94889998436
0.30922234058 -0.50042152405 0.80866414309
-0.15678858757 -0.70523327589 0.69137620926
0.15758246183 -0.70556366444 0.69086050987
-0.00020085711731 -0.8507977128 0.52548587322
0.26943165064 -0.021194305271 0.96271759272
0.43600043654 -0.25513425469 0.86289012432
0.52164983749 0.01469192747 0.8531139493
0.69071120024 -0.1575306803 0.70560824871
0.58771950006 -0.42999011278 0.68532973528
0.80860167742 -0.30959254503 0.50032424927
0.42990651727 -0.68555194139 0.58752518892
0.68529224396 -0.58792203665 0.42976811528
0.49995490909 -0.8090711236 0.3089196384
0.25523680449 -0.86257266998 0.43676695228
0.86279785633 -0.43626439571 0.25510689616
0.70601272583 -0.69016975164 0.15797944367
0.85331588984 -0.52133762836 -0.013610836118
0.96204715967 -0.27117851377 0.024417068809
0.94866168499 -0.15786087513 0.27382662892
0.99946975708 -0.007226944901 0.016292160377
0.94938379526 0.14072191715 0.2764416337
0.85504215956 -0.0066705681384 0.51842868328
0.70608210564 0.14505110681 0.69304651022
0.81059682369 0.2932036221 0.5060595274
-0.2498319298 -0.86249387264 0.44004032016
-0.42443931103 -0.68489801884 0.59223586321
-0.58327704668 -0.42920294404 0.68955546618
-0.6837605238 -0.17220750451 0.7090741396
0.6980085969 -0.70098561049 -0.14557154477
0.52335864305 -0.85203689337 0.0064515159465
0.26776582003 -0.94932639599 0.16448901594
0.0022287692409 -0.95867931843 0.28438958526
0.80910748243 -0.30891761184 -0.499864012
0.89133733511 -0.24582828581 -0.38071599603
0.86120969057 -0.42734995484 -0.27387493849
0.92843753099 -0.34143617749 -0.1439447999
0.9512616992 -0.16777177155 -0.25790593028
0.83517765999 -0.15665595233 -0.52704668045
0.91379988194 -0.081769578159 -0.39785894752
0.85254985094 7.410573744e-05 -0.52261346579
0.91379666328 0.080733254552 -0.39805921912
0.96409720182 -0.00035981708788 -0.26554623246
0.95163279772 0.15931417048 -0.2626491785
0.8353484273 0.15583391488 -0.5267803669
0.89079451561 0.24680542946 -0.3813098073
0.80350697041 0.30770227313 -0.50880879164
0.98810869455 -0.090033769608 -0.12278293818
0.98843610287 0.090961277485 -0.12086272985
0.68701571226 0.17023001611 -0.705701828
0.71414530277 0.0016489892732 -0.6998463273
0.52602702379 0.00051423878176 -0.85043400526
0.69710326195 -0.16423361003 -0.69775533676
0.96332907677 0.26829889417 0.0060904384591
0.92808407545 0.34504657984 -0.13926488161
0.8507438302 0.52557891607 0.00010532382294
0.86221259832 0.43150487542 -0.26536262035
0.76337051392 0.45192843676 -0.46119108796
0.78707313538 0.5724748373 -0.22942090034
0.69909149408 0.6961800456 -0.1637314409
0.59840279818 0.70986115932 -0.37037459016
0.50644534826 0.80587983131 -0.3065443635
0.3924946785 0.8362416029 -0.38111263514
0.44348350167 0.26201382279 -0.85630995035
0.25525298715 0.86152970791 -0.4386600554
0.21183645725 0.79172700644 -0.57277965546
0.12623010576 0.86424618959 -0.48687386513
0.079030886292 0.78600370884 -0.61313581467
0.00011865068518 0.85063898563 -0.52575057745
0.52967888117 0.83371585608 -0.15464548767
0.69986355305 0.71415525675 -0.00079803843983
0.52309018373 0.85226434469 -1.1557401194e-05
0.6993278265 0.69598954916 0.16312928498
0.52934336662 0.83385783434 0.15470480919
0.39248973131 0.88944321871 -0.23394650221
0.40073975921 0.91273897886 -0.079454451799
0.26710453629 0.95092183352 -0.1561165005
0.26964533329 0.96295011044 0.00095545960357
0.40013578534 0.91293030977 0.080307945609
0.13463182747 0.98788756132 -0.076844543219
0.13261596859 0.98790901899 0.079775854945
0.39062008262 0.88993149996 0.23542641103
0.26411998272 0.91645151377 -0.30055946112
0.13062213361 0.92357158661 -0.36051332951
0.13437737525 0.96603506804 -0.22070114315
-0.0025092596188 0.9598056674 -0.28025373816
2.3866799893e-05 0.91250932217 -0.40892234445
-0.00047944305697 0.99007308483 -0.14037115872
-0.13241878152 0.92330753803 -0.36028069258
-0.1270955354 0.86478239298 -0.48577588797
-0.70563185215 0.36578986049 0.60691964626
-0.45587953925 0.46114048362 0.76130288839
-0.43308734894 0.27222251892 0.85910415649
-0.57440024614 0.23949550092 0.78229957819
-0.69698321819 0.17157457769 0.69605076313
-0.2429664433 0.37847331166 0.89322721958
0.24279920757 0.3779310286 0.89348167181
-0.3491153121 0.14798475802 0.92529755831
0.42876243591 0.27170416713 0.86127758026
0.34380614758 0.14706678689 0.92726886272
0.24932853878 -0.3814047277 -0.88999211788
0.45250383019 -0.45972037315 -0.7641723752
0.34417435527 -0.14286747575 -0.92781192064
0.43326768279 -0.26153609157 -0.86259734631
0.27152079344 -0.00066833622986 -0.96255296469
0.091056354344 -0.12606558204 -0.98771166801
0.090477578342 0.12559787929 -0.98782801628
0.60788953304 0.70470070839 0.36616179347
0.78703725338 0.57285434008 0.22928264737
0.8650225997 0.42874762416 0.2612618804
0.76878619194 0.44642663002 0.45738628507
0.89198684692 0.24033734202 0.3824442327
0.45888870955 0.46092423797 0.75961399078
0.57026582956 0.23342545331 0.78722715378
-0.078396253288 0.78619974852 -0.61296361685
-0.21271321177 0.79272478819 -0.57111006975
-0.8365008831 0.15256136656 0.52626723051
-0.714671731 0.0095883943141 0.69933182001
0.70721238852 -0.36373338103 -0.60604918003
0.5736041069 -0.2283192873 -0.78639036417
0.58757287264 -0.42904853821 -0.6858651638
0.76084125042 -0.45605826378 -0.46133217216
0.64585202932 -0.51582032442 -0.56275016069
0.7878702879 -0.5697658658 -0.2327170372
0.34512934089 0.14243605733 -0.92778086662
0.24448955059 0.3799187541 -0.89217787981
0.00021057296544 0.71134495735 -0.70262742043
0.98659098148 0.086403600872 0.13849236071
0.92899906635 0.3409935832 0.14425157011

CELLS 456 1824
3 0 1 2
3 0 3 1
3 1 3 4
3 5 6 7
3 7 6 8
3 8 6 9
3 6 10 9
3 6 11 10
3 9 10 12
3 11 13 10
3 13 14 10
3 13 15 14
3 10 14 12
3 13 16 15
3 12 14 17
3 14 18 17
3 14 15 18
3 17 18 19
3 8 9 20
3 9 21 20
3 9 12 21
3 20 21 22
3 12 23 21
3 23 24 21
3 12 17 23
3 17 25 23
3 17 19 25
3 23 25 26
3 8 20 27
3 20 28 27
3 20 22 28
3 27 28 29
3 30 31 28
3 30 32 31
3 33 34 35
3 33 36 34
3 37 38 33
3 38 39 33
3 38 40 39
3 33 39 36
3 41 34 42
3 34 43 42
3 34 36 43
3 42 43 44
3 45 46 47
3 48 7 45
3 7 27 45
3 7 8 27
3 45 27 29
3 44 49 50
3 49 51 50
3 49 52 51
3 50 51 53
3 52 54 51
3 54 55 51
3 54 56 55
3 51 55 53
3 52 57 54
3 57 58 54
3 57 59 58
3 54 58 56
3 53 55 60
3 55 61 60
3 55 56 61
3 60 61 19
3 62 63 64
3 16 64 15
3 63 65 64
3 65 66 64
3 65 53 66
3 64 66 15
3 63 67 65
3 67 50 65
3 67 44 50
3 65 50 53
3 15 66 18
3 66 60 18
3 66 53 60
3 18 60 19
3 59 68 69
3 68 70 69
3 68 71 70
3 69 70 72
3 71 73 70
3 73 74 70
3 73 75 74
3 70 74 72
3 71 76 73
3 76 77 73
3 76 40 77
3 73 77 75
3 59 69 78
3 69 79 78
3 69 72 79
3 78 79 80
3 81 82 83
3 81 56 82
3 83 82 80
3 26 25 81
3 25 61 81
3 25 19 61
3 81 61 56
3 80 82 78
3 82 58 78
3 82 56 58
3 78 58 59
3 44 43 49
3 43 84 49
3 43 36 84
3 49 84 52
3 36 85 84
3 85 86 84
3 85 71 86
3 84 86 52
3 36 39 85
3 39 76 85
3 39 40 76
3 85 76 71
3 52 86 57
3 86 68 57
3 86 71 68
3 57 68 59
3 40 87 77
3 87 88 77
3 87 89 88
3 77 88 75
3 90 89 91
3 37 91 38
3 91 87 38
3 91 89 87
3 38 87 40
3 92 93 94
3 92 63 93
3 41 42 92
3 42 67 92
3 42 44 67
3 92 67 63
3 3 93 4
3 93 63 62
3 95 96 97
3 96 98 97
3 96 99 98
3 97 98 32
3 99 100 98
3 100 101 98
3 100 102 101
3 98 101 32
3 99 103 100
3 103 104 100
3 103 105 104
3 100 104 102
3 32 101 106
3 101 107 106
3 101 102 107
3 106 107 108
3 108 107 109
3 107 110 109
3 107 102 110
3 109 110 111
3 102 112 110
3 112 113 110
3 112 114 113
3 110 113 111
3 102 104 112
3 104 115 112
3 104 105 115
3 112 115 114
3 111 113 116
3 113 117 116
3 113 114 117
3 116 117 118
3 118 119 116
3 119 120 116
3 119 121 120
3 116 120 111
3 122 123 120
3 120 123 111
3 111 123 109
3 123 124 109
3 123 125 124
3 109 124 108
3 72 126 127
3 126 103 127
3 126 105 103
3 127 103 99
3 80 128 129
3 128 96 129
3 128 99 96
3 129 96 95
3 89 130 131
3 130 117 131
3 130 118 117
3 131 117 114
3 75 132 133
3 132 115 133
3 132 114 115
3 133 115 105
3 30 97 32
3 32 106 31
3 46 124 125
3 105 126 133
3 74 126 72
3 75 133 74
3 74 133 126
3 99 128 127
3 79 128 80
3 72 127 79
3 79 127 128
3 80 129 83
3 114 132 131
3 88 132 75
3 89 131 88
3 88 131 132
3 90 130 89
3 134 135 136
3 135 137 136
3 135 138 137
3 136 137 118
3 134 139 135
3 139 140 135
3 139 141 140
3 135 140 138
3 141 142 140
3 142 143 140
3 142 144 143
3 140 143 138
3 141 145 142
3 145 146 142
3 145 147 146
3 142 146 144
3 138 143 148
3 143 149 148
3 143 144 149
3 148 149 121
3 147 145 150
3 145 151 150
3 145 141 151
3 150 151 152
3 152 151 153
3 151 139 153
3 151 141 139
3 153 139 134
3 121 149 154
3 149 155 154
3 149 144 155
3 154 155 156
3 144 146 155
3 146 157 155
3 157 146 158
3 155 157 156
3 147 158 146
3 158 159 157
3 158 2 159
3 157 159 156
3 156 159 160
3 159 161 160
3 159 2 161
3 160 161 162
3 2 158 0
3 0 158 147
3 162 161 163
3 1 161 2
3 152 164 150
3 0 164 3
3 147 150 0
3 0 150 164
3 165 163 1
3 1 163 161
3 4 166 1
3 1 166 165
3 165 166 167
3 166 168 167
3 166 4 168
3 167 168 169
3 162 170 160
3 170 171 160
3 170 172 171
3 160 171 156
3 156 171 173
3 171 174 173
3 171 172 174
3 173 174 48
3 162 175 170
3 175 176 170
3 175 177 176
3 170 176 172
3 177 178 176
3 178 179 176
3 178 5 179
3 176 179 172
3 177 180 178
3 180 181 178
3 180 11 181
3 178 181 5
3 172 179 174
3 179 182 174
3 179 5 182
3 174 182 48
3 162 163 175
3 163 183 175
3 163 165 183
3 175 183 177
3 165 184 183
3 184 185 183
3 184 186 185
3 183 185 177
3 165 167 184
3 167 187 184
3 167 169 187
3 184 187 186
3 177 185 180
3 185 188 180
3 185 186 188
3 180 188 11
3 48 182 7
3 182 5 7
3 5 181 6
3 181 11 6
3 11 188 13
3 188 186 13
3 186 189 13
3 189 16 13
3 186 187 189
3 187 190 189
3 187 169 190
3 189 190 16
3 26 191 23
3 23 191 24
3 24 192 21
3 21 192 22
3 22 192 193
3 192 194 193
3 192 24 194
3 193 194 95
3 24 191 194
3 191 195 194
3 191 26 195
3 194 195 95
3 22 196 28
3 196 30 28
3 31 197 28
3 28 197 29
3 95 198 193
3 198 196 193
3 198 30 196
3 193 196 22
3 29 197 199
3 197 200 199
3 197 31 200
3 199 200 108
3 37 201 202
3 201 203 204
3 201 35 203
3 204 203 152
3 152 203 205
3 203 206 205
3 203 35 206
3 205 206 207
3 35 201 33
3 33 201 37
3 41 206 34
3 34 206 35
3 48 208 173
3 208 209 173
3 208 47 209
3 173 209 156
3 156 209 210
3 209 211 210
3 209 47 211
3 210 211 212
3 47 208 45
3 45 208 48
3 29 213 45
3 45 213 46
3 125 211 46
3 46 211 47
3 46 213 214
3 213 199 214
3 213 29 199
3 214 199 108
3 169 215 190
3 215 216 190
3 215 62 216
3 190 216 16
3 16 216 64
3 64 216 62
3 26 217 195
3 217 218 195
3 217 83 218
3 195 218 95
3 83 217 81
3 81 217 26
3 134 219 153
3 219 220 153
3 219 221 220
3 153 220 152
3 152 220 204
3 220 202 204
3 220 221 202
3 204 202 201
3 134 222 219
3 222 223 219
3 222 90 223
3 219 223 221
3 221 223 91
3 91 223 90
3 37 202 91
3 91 202 221
3 118 224 136
3 224 222 136
3 224 90 222
3 136 222 134
3 41 207 206
3 207 225 205
3 207 94 225
3 205 225 152
3 152 225 164
3 225 226 164
3 225 94 226
3 164 226 3
3 94 207 92
3 92 207 41
3 3 226 93
3 93 226 94
3 62 227 93
3 93 227 4
3 4 227 168
3 227 215 168
3 227 62 215
3 168 215 169
3 121 228 120
3 228 122 120
3 122 212 123
3 212 125 123
3 125 212 211
3 212 229 210
3 212 122 229
3 210 229 156
3 156 229 154
3 229 228 154
3 229 122 228
3 154 228 121
3 138 148 137
3 119 148 121
3 118 137 119
3 119 137 148
3 30 198 97
3 97 198 95
3 108 200 106
3 106 200 31
3 46 214 124
3 124 214 108
3 95 218 129
3 129 218 83
3 90 224 130
3 130 224 118

CELL_TYPES 456
5
5
5
5
5
5
5
5
5
5
5
5
5
5
5
5
5
5
5
5
5
5
5
5
5
5
5
5
5
5
5
5
5
5
5
5
5
5
5
5
5
5
5
5
5
5
5
5
5
5
5
5
5
5
5
5
5
5
5
5
5
5
5
5
5
5
5
5
5
5
5
5
5
5
5
5
5
5
5
5
5
5
5
5
5
5
5
5
5
5
5
5
5
5
5
5
5
5
5
5
5
5
5
5
5
5
5
5
5
5
5
5
5
5
5
5
5
5
5
5
5
5
5
5
5
5
5
5
5
5
5
5
5
5
5
5
5
5
5
5
5
5
5
5
5
5
5
5
5
5
5
5
5
5
5
5
5
5
5
5
5
5
5
5
5
5
5
5
5
5
5
5
5
5
5
5
5
5
5
5
5
5
5
5
5
5
5
5
5
5
5
5
5
5
5
5
5
5
5
5
5
5
5
5
5
5
5
5
5
5
5
5
5
5
5
5
5
5
5
5
5
5
5
5
5
5
5
5
5
5
5
5
5
5
5
5
5
5
5
5
5
5
5
5
5
5
5
5
5
5
5
5
5
5
5
5
5
5
5
5
5
5
5
5
5
5
5
5
5
5
5
5
5
5
5
5
5
5
5
5
5
5
5
5
5
5
5
5
5
5
5
5
5
5
5
5
5
5
5
5
5
5
5
5
5
5
5
5
5
5
5
5
5
5
5
5
5
5
5
5
5
5
5
5
5
5
5
5
5
5
5
5
5
5
5
5
5
5
5
5
5
5
5
5
5
5
5
5
5
5
5
5
5
5
5
5
5
5
5
5
5
5
5
5
5
5
5
5
5
5
5
5
5
5
5
5
5
5
5
5
5
5
5
5
5
5
5
5
5
5
5
5
5
5
5
5
5
5
5
5
5
5
5
5
5
5
5
5
5
5
5
5
5
5
5
5
5
5
5
5
5
5
5
5
5
5
5
5
5
5
5
5
5
5
5
5
5
5
5
5
5
5
5
5
5
5
5
5
5
5
5
5
5
5
5
5

CELL_DATA 456
SCALARS cell_data_0 double
LOOKUP_TABLE default
1.264208257e-07
1.52163747136e-07
9.02811729161e-08
6.3228754133e-08
1.35150575223e-07
1.16938692038e-07
2.41701490714e-08
1.37329817779e-10
4.36702773361e-08
1.6046906835e-07
1.77372342712e-07
1.99878596123e-07
2.53356597173e-07
1.41860759958e-08
1.00799114148e-07
1.59622927801e-07
9.24174719956e-08
2.31929185258e-09
1.12708527919e-07
1.05831590221e-08
1.15774897732e-08
5.84427098721e-08
1.26120295006e-07
8.82422759216e-08
3.09107727044e-08
3.0546160528e-08
4.99736625642e-08
2.59098561397e-08
1.0358919843e-07
4.44030712307e-08
1.14589348225e-08
1.29035480152e-08
2.38757419343e-07
7.71419170894e-08
1.00617589269e-07
1.51275575354e-08
6.82770971808e-09
1.0282241156e-08
8.65056986831e-08
8.08347783117e-08
4.82453267552e-08
2.14494231225e-08
7.9788992607e-08
6.89006833627e-08
1.96834508157e-07
5.03945124172e-08
1.9415692251e-08
1.04802578747e-07
2.34278875488e-09
1.29589063233e-07
5.21338306992e-08
1.07297252319e-07
1.08920812552e-07
2.5837956436e-08
2.1666891636e-09
8.64886605354e-08
2.6086415416e-08
7.11879559356e-08
2.00765616901e-08
1.18578664521e-07
6.07403199058e-08
9.03634293367e-08
1.3596539297e-08
3.24397127893e-08
8.18333763118e-08
7.23599630684e-08
1.83372627327e-08
4.38501746983e-08
2.41874108367e-08
4.59364830492e-08
1.04493659799e-07
4.07783118254e-08
8.88194898017e-09
7.80191560764e-08
1.25934538609e-07
4.12971903354e-08
9.14564222847e-08
5.6867355733e-08
1.8546371909e-08
5.92437227341e-08
4.09441896605e-08
8.177948526e-09
2.68820204643e-08
1.54943682287e-07
4.15828402012e-08
1.27956546574e-07
8.24749972443e-08
1.41438960821e-08
2.06635733219e-08
9.82161063184e-08
3.62793025745e-08
4.77136648766e-08
8.53930777968e-08
3.77218713422e-08
7.79496748547e-08
2.63845297129e-07
1.88757098067e-07
2.22589980268e-07
8.38815374452e-08
7.40537885921e-08
6.56479640611e-08
3.75764176686e-08
9.0820499043e-08
1.17664997003e-08
2.97893309147e-08
1.08543276376e-07
9.59400084354e-08
4.3001886844e-08
3.30559771809e-08
5.16836113983e-08
9.95851365168e-08
8.46433038029e-08
1.33625790143e-07
8.43403719636e-08
6.05059449414e-08
2.64117713934e-08
9.35749282847e-08
1.0095142358e-09
7.47831557456e-08
1.71516019121e-08
5.61911361801e-09
8.27252697887e-08
7.57375913143e-08
9.6814495437e-09
1.1216382887e-08
1.43181787943e-08
2.34498427294e-07
6.09688685081e-08
5.16924737659e-08
8.16477917536e-08
9.06677692275e-08
2.26802230896e-07
1.64861733325e-07
2.17917498998e-08
7.82488514597e-08
4.51246146517e-08
1.29068008154e-08
1.89096516972e-07
8.16018648542e-09
7.13414851148e-08
4.03393640335e-08
6.38611377054e-08
4.18377165595e-08
1.82801498584e-07
1.57195005812e-07
1.42134017334e-07
1.82506890548e-07
2.06860899699e-08
1.15077920197e-07
2.68862047744e-08
7.09877756246e-08
7.51733082218e-08
3.97132655971e-08
3.58842654004e-08
3.36589713976e-08
6.60414277145e-09
2.37109037087e-08
1.92401489644e-08
6.44558612511e-09
2.55942142027e-07
1.80225851539e-07
1.11414341952e-07
1.46681744305e-07
8.99875545563e-08
9.61197832905e-08
7.09137180545e-08
4.08474729929e-08
3.25015093997e-08
1.35482602468e-07
3.33520523218e-08
1.39595803067e-07
1.56801502501e-07
1.92032480058e-07
1.61566457375e-07
6.81013412754e-08
4.42803462651e-07
2.81880142906e-07
7.99566593223e-08
1.98218759214e-07
1.63552797154e-07
1.34659468687e-07
2.50069712865e-07
3.43111595693e-07
7.5591798604e-08
9.53656180435e-08
2.97433652516e-07
3.32272486975e-07
1.71139198685e-07
2.50658372698e-07
2.16716568409e-07
3.47463796032e-07
2.4314324762e-07
1.79535661632e-07
1.50465414953e-07
1.82850503544e-07
2.84338165755e-09
5.6838460482e-08
1.15208820832e-08
7.75560266446e-08
1.70362003607e-07
1.10152206418e-07
1.11011918184e-07
2.44401273535e-08
2.89660099737e-07
4.40988886626e-07
4.11048025259e-07
2.77670949378e-07
5.02087056723e-07
2.90509501898e-07
3.4132977294e-07
2.37622482363e-07
3.16643725507e-07
4.02415469497e-07
1.66140527712e-07
2.73762423754e-09
6.698371665e-09
5.87610040045e-08
4.52825276753e-08
9.99462632119e-08
4.65675549958e-08
1.14983090384e-07
1.03165071459e-07
1.10017298333e-07
8.2092156421e-08
7.83716587341e-08
1.07222696704e-07
1.13202479205e-07
8.14168485627e-08
1.44720629698e-07
1.12844472688e-07
1.05009536514e-07
4.51209274767e-08
8.30300948773e-08
1.30006320408e-07
5.8999351564e-08
1.45678040531e-09
3.60474067943e-08
6.84566889572e-08
3.67292019943e-08
1.34249167424e-08
2.34767694158e-08
2.97310526091e-08
7.69429174983e-09
2.45129476627e-08
7.51236970217e-09
4.51248861219e-08
2.41510138911e-08
7.88776760785e-08
1.73502402343e-08
3.05358042253e-08
1.04156785986e-07
1.47621907098e-08
1.09009057553e-09
1.18113778916e-08
9.62040962313e-08
1.46590341571e-07
6.75248569567e-08
3.91437088219e-08
7.21202022545e-08
6.90529585005e-08
4.61504101155e-08
1.12317776794e-09
3.05031102546e-07
2.15500335895e-07
6.26361346089e-08
1.98351213073e-07
1.62303775184e-09
1.9683781154e-07
6.89852601027e-08
2.92142006524e-08
7.94789413508e-08
5.091866375e-08
1.03484599261e-07
6.64651287763e-08
1.69524128797e-08
8.06443209732e-08
2.71432061348e-08
1.02862128793e-07
9.46335310041e-08
8.62795867946e-08
4.01718131678e-08
5.76339907258e-08
7.30015301632e-08
9.16817754588e-09
4.15066457337e-08
6.34231904079e-08
3.36297584261e-08
3.29121567841e-08
1.14819986642e-08
2.62885006061e-08
2.48733471227e-08
2.59666579067e-08
2.39466949102e-08
4.14167506184e-08
5.24862309863e-08
2.35093826189e-08
4.28075281838e-08
7.37366292606e-08
7.49396314515e-08
2.59397117397e-09
5.49811893126e-08
4.92198874563e-08
4.44780051378e-08
4.29507484461e-09
5.33580597994e-08
3.9546232835e-08
5.48383223369e-08
1.85578000466e-08
4.74646438008e-08
5.86637477117e-08
3.45395407622e-08
1.64897738735e-08
5.71109697487e-08
3.97249253014e-08
6.39962618655e-08
5.92396342807e-08
5.94529204596e-08
5.3454968318e-08
1.56905008577e-08
6.26064001052e-09
2.99508920916e-09
1.09761898167e-08
5.43382383414e-08
7.74276843593e-10
4.40031404376e-08
5.47432853002e-08
8.00801136322e-09
4.56252574979e-08
8.83069380225e-08
8.89694408921e-08
6.6187731091e-08
2.08098656825e-08
6.69747505354e-08
5.84743553743e-09
3.58220578905e-08
2.52720885661e-08
8.85069085176e-09
1.35372907735e-08
2.48118214747e-08
3.38602396117e-09
1.83339288972e-08
1.88778481365e-08
2.31342627707e-08
1.59408771731e-09
6.42926249413e-08
2.89583447299e-08
4.91130284594e-09
5.06806825602e-08
2.98620893906e-08
2.78708838572e-08
9.31431491116e-08
1.21079916397e-08
3.93568795664e-08
2.63388380056e-08
3.20209644839e-08
9.08128977641e-09
2.98810813966e-08
1.07967528262e-07
6.26728474577e-08
1.77860601947e-08
5.23911930401e-08
5.16463077828e-08
3.32077079755e-09
4.68663560394e-08
2.38091060302e-08
6.83122828827e-08
3.46181076664e-08
3.05811194097e-09
2.30380678666e-08
8.01505593084e-08
6.50603377318e-08
2.78800747588e-08
5.54196056197e-08
2.41166077996e-08
4.49198553567e-08
7.98398605965e-08
5.56792977786e-08
2.93385788066e-08
2.3193470236e-08
2.45034825649e-08
5.07262060022e-08
1.87566166322e-08
8.09915505932e-08
6.60193058609e-08
5.23539428239e-08
8.09320057032e-08
3.74307280699e-08
9.53845060649e-08
5.33914225763e-08
5.85315003855e-08
9.0356246956e-08
5.00826503419e-08
6.98334858641e-09
4.21970956019e-08
1.34453399213e-08
2.78127207245e-09
4.58530189297e-09
3.69148103912e-08
2.52857153193e-08
8.22199870083e-08
1.01546154683e-07
4.24617609677e-08
1.2797351978e-07
1.28670270714e-07
2.92384607897e-08
2.28427328023e-08
2.59771236705e-08
5.02822423511e-09
2.15605022962e-08
2.66548693698e-08
3.76364073902e-10
1.70541137876e-08
9.35455527561e-08
3.99363715566e-08
3.37187318021e-08
1.04540969919e-08
4.35233080099e-10
6.9790487279e-08
1.05102734365e-08
1.44600544508e-08
6.92962102929e-09
4.99895872549e-09
4.539006942e-08
1.63646298361e-08
3.74837899839e-08
1.33853465317e-08
7.6831051021e-08
3.03363252246e-08
7.77108367956e-08
6.71555501827e-08
2.6799701562e-08
1.01482629877e-07
1.07360881592e-07
5.79999848792e-08
1.01261124569e-07
9.19756209264e-10
4.0653166215e-08
1.54760123017e-08
4.57762890865e-08
6.24767655329e-08
6.54523356844e-08
1.3233479762e-08
8.01654053357e-08
5.03580078388e-08
8.22664784856e-08
1.06648026778e-08
1.09656505709e-07
1.23606463888e-07
8.46422209486e-08
4.58548670782e-08
3.34346887538e-09
2.82403636967e-08
5.07633759527e-08
1.13039406755e-07
1.79525731274e-08
1.89855701843e-08

