# vtk DataFile Version 3.0
File Name: Molecule/arg/arg_5.0-3.vtk
ASCII
DATASET UNSTRUCTURED_GRID
FIELD FieldData 1
TIME 1 1 double
0.0
POINTS 902 double
-3.403 0.327 1.604
-3.45 0.103 1.078
-3.138 0.005 1.702
-3.183 -0.208 1.2
-2.981 -0.361 1.858
-3.028 -0.584 1.332
-3.298 -0.003 0.536
-3.038 -0.309 0.683
-2.876 -0.691 0.79
-2.971 0.024 0.066
-2.725 -0.284 0.235
-2.549 -0.664 0.32
-2.984 0.046 0.042
-2.617 -0.045 -0.207
-2.63 -0.024 -0.229
-2.351 -0.22 -0.527
-2.365 -0.198 -0.55
-2.2 -0.483 -0.862
-2.216 -0.458 -0.889
-3.25 0.578 -0.258
-2.686 0.062 -0.328
-2.904 0.498 -0.574
-2.48 -0.047 -0.742
-2.684 0.361 -0.973
-2.39 -0.269 -1.153
-2.617 0.185 -1.409
-3.173 1.207 -0.458
-2.84 1.014 -0.738
-2.625 0.846 -1.127
-2.55 0.723 -1.58
-2.776 1.74 -0.497
-2.515 1.451 -0.77
-2.319 1.256 -1.157
-2.211 1.177 -1.613
-2.622 1.932 -0.429
-2.434 1.563 -0.734
-2.291 1.743 -0.67
-2.16 1.459 -1.077
-2.01 1.647 -1.011
-1.982 1.439 -1.492
-1.81 1.654 -1.416
-2.666 2.281 -0.134
-2.046 2.135 -0.548
-2.085 2.448 -0.283
-1.615 2.438 -0.879
-1.659 2.787 -0.585
-2.622 2.533 0.247
-2.045 2.674 0.059
-1.614 3.039 -0.203
-2.495 2.657 0.67
-1.932 2.785 0.438
-1.488 3.163 0.22
-2.925 2.572 1.071
-2.251 2.77 1.005
-2.634 2.694 1.361
-2.033 3.002 1.293
-2.411 2.928 1.645
-1.863 3.333 1.507
-2.279 3.251 1.894
-3.186 2.284 1.521
-2.865 2.437 1.761
-2.64 2.674 2.039
-2.53 2.972 2.328
-3.419 1.801 1.788
-2.888 2.359 1.917
-3.122 1.876 2.185
-2.717 2.558 2.345
-2.979 2.017 2.644
-3.567 1.179 1.827
-3.202 1.735 2.161
-3.333 1.184 2.196
-3.094 1.732 2.585
-3.223 1.188 2.619
-3.107 1.793 3.017
-3.25 1.192 3.055
-3.408 0.559 1.798
-3.191 0.635 2.17
-3.084 0.647 2.593
-3.095 0.593 3.027
-3.105 0.348 2.085
-3.1 0.088 1.867
-2.97 0.105 2.152
-3.02 0.504 2.546
-2.901 0.29 2.606
-2.978 0.383 3.085
-2.865 -0.346 2.113
-2.52 -0.7 2.425
-2.789 -0.06 2.411
-2.48 -0.378 2.69
-2.828 0.19 2.745
-2.523 -0.123 3.02
-2.645 0.041 3.387
-2.46 -1.117 2.184
-2.148 -0.9 2.844
-2.09 -1.3 2.613
-2.003 -1.142 3.367
-1.937 -1.6 3.103
-2.268 -1.45 1.888
-1.906 -1.62 2.328
-1.726 -1.965 2.777
-1.967 -1.659 1.57
-1.617 -1.821 2.023
-1.396 -2.195 2.428
-1.592 -1.721 1.268
-1.257 -1.88 1.733
-0.984 -2.263 2.097
-2.026 -1.588 0.931
-1.351 -1.766 0.91
-1.757 -1.641 0.594
-1.133 -1.941 0.578
-1.555 -1.812 0.25
-0.96 -2.23 0.303
-1.437 -2.084 -0.068
-2.342 -1.257 0.596
-2.053 -1.332 0.28
-1.861 -1.491 -0.075
-1.784 -1.721 -0.435
-2.487 -0.785 0.321
-2.189 -0.889 0.022
-2.002 -1.032 -0.342
-1.943 -1.202 -0.738
-2.264 -0.668 -0.026
-2.322 -0.554 -0.027
-2.141 -0.611 -0.433
-2.203 -0.492 -0.433
-2.131 -0.618 -0.861
-2.114 -0.682 -1.181
-1.927 -1.264 -1.052
-2.312 -0.441 -1.376
-2.121 -0.506 -1.916
-2.042 -0.816 -1.214
-1.838 -0.886 -1.79
-1.682 -1.348 -1.746
-1.975 -0.256 -2.322
-1.864 -0.768 -1.888
-1.672 -0.441 -2.421
-1.897 0.192 -2.527
-1.57 0.147 -2.691
-1.996 0.646 -2.441
-1.495 0.306 -2.776
-1.602 0.798 -2.682
-1.198 0.386 -3.152
-1.328 0.981 -3.039
-2.011 1.039 -2.18
-1.619 1.224 -2.399
-1.348 1.496 -2.696
-1.72 1.257 -2.235
-1.479 1.817 -1.75
-1.107 2.057 -2.211
-1.346 2.153 -1.415
-1.642 2.007 -1.116
-1.319 2.584 -1.178
-0.816 3.013 -1.267
-1.111 2.259 -1.642
-0.623 2.675 -1.729
-0.543 2.537 -2.312
0.466 3.148 -0.891
-0.416 2.926 -1.599
0.331 3.005 -1.38
-0.131 2.956 -2.042
0.328 3.005 -1.907
-0.002 3.1 -2.533
0.456 3.148 -2.398
-0.048 3.337 -3.001
0.699 3.415 -2.782
0.833 2.913 -0.61
0.619 2.806 -1.364
0.976 2.577 -1.092
0.892 2.689 -1.891
1.303 2.425 -1.576
1.057 2.557 -0.305
1.192 2.232 -0.796
1.553 2.026 -1.234
0.979 2.767 0.195
1.24 2.204 -0.113
1.167 2.404 0.362
1.539 1.918 0.039
1.462 2.128 0.539
0.737 2.845 0.68
0.936 2.478 0.823
1.22 2.206 1.024
0.406 3.093 0.833
0.71 2.572 1.142
0.419 2.789 1.277
0.841 2.425 1.643
0.539 2.651 1.783
1.112 2.426 2.108
0.748 2.699 2.276
0.011 3.456 0.651
0.142 3.058 1.218
-0.201 3.373 1.06
-0.01 3.117 1.656
-0.348 3.428 1.5
-0.034 3.266 2.099
-0.415 3.616 1.924
-0.504 3.599 0.465
-0.648 3.497 0.898
-0.789 3.55 1.341
-0.913 3.754 1.744
-1.038 3.495 0.311
-1.112 3.406 0.765
-1.247 3.461 1.209
-1.429 3.653 1.595
-1.502 3.118 0.685
-1.632 3.177 1.131
-0.05 3.403 2.531
0.304 2.919 2.221
0.288 3.057 2.654
0.729 2.855 2.766
-0.175 3.437 2.964
0.162 3.091 3.09
0.587 2.894 3.259
-0.395 3.364 3.353
-0.059 3.019 3.48
0.337 2.812 3.701
-0.687 3.194 3.654
-0.352 2.847 3.783
0.006 2.617 4.044
-1.13 3.18 3.766
-0.58 2.815 3.881
-1.094 2.799 4.011
-1.584 3.151 3.721
-1.62 2.766 3.959
-1.995 3.111 3.523
-2.096 2.719 3.73
-2.312 3.063 3.198
-2.464 2.664 3.352
-2.498 3.015 2.783
-2.679 2.608 2.871
-0.832 2.373 4.277
-0.242 2.183 4.431
-1.061 1.806 4.483
-0.466 1.628 4.634
-1.364 2.231 4.354
-1.452 1.611 4.604
-1.713 1.977 4.492
-1.735 2.528 4.103
-2.033 2.233 4.276
-2.128 2.66 3.763
-2.373 2.347 3.982
-2.496 2.611 3.374
-2.69 2.305 3.646
-2.791 2.388 2.985
-2.945 2.113 3.311
-1.464 1.095 4.666
-0.956 1.592 4.533
-0.968 1.074 4.596
-0.48 1.041 4.705
-1.655 0.731 4.634
-1.079 0.886 4.596
-1.26 0.541 4.565
-0.689 0.687 4.666
-0.881 0.322 4.633
-0.333 0.517 4.869
-0.555 0.096 4.831
-2.027 0.463 4.516
-1.383 0.368 4.531
-1.728 0.119 4.423
-1.114 -0.009 4.584
-1.476 -0.27 4.469
-0.878 -0.357 4.785
-1.3 -0.661 4.651
-2.342 0.241 4.242
-2.019 -0.087 4.169
-1.783 -0.487 4.202
-1.658 -0.914 4.34
-2.557 0.093 3.848
-2.219 -0.224 3.803
-1.993 -0.631 3.818
-1.903 -1.082 3.892
-2.301 -0.273 3.375
-2.078 -0.682 3.368
-0.557 -0.612 4.999
-0.228 -0.165 5.05
-0.202 -0.89 5.102
0.134 -0.447 5.155
0.164 -1.171 5.088
0.507 -0.734 5.141
0.37 -1.612 4.973
0.615 -0.976 5.092
0.811 -1.395 4.983
1.043 -0.806 5.264
1.249 -1.247 5.15
0.578 -1.993 4.725
1.008 -1.757 4.747
1.457 -1.629 4.901
0.77 -2.282 4.364
1.191 -2.031 4.405
1.649 -1.918 4.541
0.93 -2.454 3.923
1.343 -2.194 3.985
1.809 -2.089 4.099
1.044 -2.494 3.437
1.451 -2.232 3.524
1.923 -2.129 3.613
1.103 -2.399 2.949
1.506 -2.141 3.061
1.981 -2.034 3.126
1.1 -2.176 2.501
1.504 -1.93 2.635
1.979 -1.811 2.678
1.037 -1.846 2.131
1.444 -1.616 2.284
1.916 -1.481 2.307
0.647 -2.269 2.118
0.836 -1.714 1.711
0.512 -2.064 1.7
0.77 -1.662 1.233
0.47 -1.987 1.224
0.848 -1.697 0.757
0.525 -2.047 0.746
1.061 -1.813 0.337
0.67 -2.236 0.324
0.119 -2.499 2.107
0.075 -2.255 1.691
0.064 -2.164 1.215
0.088 -2.237 0.737
0.142 -2.466 0.313
-0.457 -2.497 2.099
-0.401 -2.253 1.685
-0.378 -2.162 1.209
-0.389 -2.235 0.73
-0.434 -2.464 0.306
-0.837 -2.059 1.682
-0.782 -1.983 1.207
-0.825 -2.042 0.728
1.48 -1.078 0.031
1.032 -1.487 0.709
1.333 -0.958 0.489
1.12 -1.273 1.146
1.358 -0.854 0.972
1.315 -1.197 1.595
1.553 -0.779 1.421
1.893 -0.741 1.779
2.335 -0.746 2.002
1.639 -0.712 -0.547
1.476 -0.549 0.311
1.615 -0.229 -0.195
1.697 -0.118 0.66
1.842 0.216 0.134
2.201 -0.141 -1.444
1.856 -0.818 -1.29
2.256 -0.562 -1.683
0.186 -1.352 -2.841
-0.548 -1.409 -2.576
-0.152 -1.05 -2.884
-0.822 -1.287 -2.506
-0.408 -0.948 -2.806
-0.669 -0.831 -2.739
-0.336 -0.591 -3.197
-0.616 -0.466 -3.125
-1.31 -1.347 -2.194
-0.988 -0.705 -2.664
-1.485 -0.767 -2.346
-1.322 -0.31 -2.728
-0.95 -0.071 -3.189
0.104 -0.811 -3.39
-0.311 -0.212 -3.619
0.128 -0.454 -3.788
-0.16 0.24 -3.931
0.27 -0.03 -4.081
0.101 0.716 -4.098
0.516 0.418 -4.238
-0.411 1.252 -3.909
0.377 1.347 -4.4
0.11 1.626 -4.301
-0.398 1.946 -3.588
0.117 1.987 -4.134
-0.712 2.237 -2.975
-0.106 2.463 -3.53
-0.314 2.656 -3.124
0.028 3.029 -3.665
-0.135 3.18 -3.347
-0.202 2.855 -2.684
0.9 3.106 -3.671
0.173 2.486 -3.833
0.85 2.546 -3.838
0.989 2.064 -4.14
1.267 2.733 -3.406
0.819 3.383 -2.845
1.204 2.948 -2.765
0.902 2.914 -2.485
0.749 2.956 -2.405
1.123 2.627 -2.01
1.688 2.19 -1.733
1.668 2.681 -2.526
1.962 2.454 -2.382
2.133 1.624 -1.992
2.194 2.159 -2.516
2.141 1.301 -1.585
2.428 1.273 -2.257
2.435 0.969 -1.874
2.042 0.907 -1.262
2.342 0.599 -1.57
1.911 1.516 -1.257
1.884 0.909 -0.851
1.768 1.444 -0.847
1.861 0.913 -0.411
1.75 1.425 -0.407
1.976 0.918 0.014
1.858 1.462 0.018
1.454 1.892 -0.826
1.449 1.855 -0.388
1.867 0.812 -0.4
1.753 0.215 -0.299
1.896 0.717 -0.83
1.788 0.151 -0.734
2.06 0.644 -1.234
1.942 0.027 -1.129
2.566 1.229 -2.871
2.241 1.687 -2.422
2.339 1.656 -2.857
2.27 2.135 -2.856
2.341 1.264 -3.459
2.179 1.681 -3.275
2.146 2.154 -3.181
1.83 1.363 -3.817
1.817 1.751 -3.528
1.863 2.209 -3.379
1.605 0.935 -4.222
1.413 1.57 -3.947
1.254 1.267 -4.234
1.103 1.869 -4.167
0.979 1.632 -4.39
1.11 0.579 -4.381
0.902 1.014 -4.346
0.705 1.435 -4.478
0.482 0.901 -4.245
1.404 2.01 -3.684
1.315 2.161 -3.664
1.749 2.404 -3.353
2.007 0.383 0.735
1.733 -0.159 1.085
2.004 0.279 1.15
1.861 -0.287 1.473
2.124 0.139 1.536
2.068 -0.489 1.788
2.355 -0.024 1.857
2.675 -0.196 2.083
2.074 0.941 0.928
2.063 0.767 1.319
2.181 0.613 1.7
2.417 0.492 2.036
2.749 0.417 2.295
1.884 1.434 1.198
1.897 1.199 1.555
2.02 1.032 1.93
2.241 0.95 2.287
2.541 0.959 2.592
1.624 1.884 1.117
1.755 1.469 1.75
1.503 1.904 1.671
1.842 1.579 2.299
1.557 2.073 2.21
1.11 2.216 1.58
1.886 1.845 2.759
2.132 1.224 2.493
2.174 1.477 2.929
2.585 1.225 3.051
1.814 2.002 3.263
2.105 1.625 3.407
2.513 1.382 3.555
1.633 2.033 3.763
1.933 1.655 3.881
2.331 1.413 4.055
1.359 1.937 4.21
1.674 1.563 4.305
2.058 1.316 4.502
1.021 1.721 4.561
1.354 1.359 4.638
1.72 1.101 4.853
0.651 1.408 4.781
1.002 1.062 4.847
1.35 0.788 5.074
0.073 1.245 4.841
0.82 0.891 4.947
0.23 0.725 5.008
0.672 0.387 5.179
1.205 0.294 5.301
0.564 -0.173 5.245
1.099 -0.256 5.367
-1.834 2.927 0.971
1.592 -1.27 1.999
1.396 -0.602 0.696
1.678 -0.195 -0.741
1.805 -0.426 -1.067
-2.913 1.955 -0.341
-3.327 1.641 -0.268
-3.327 2.032 -0.008
-2.913 2.297 -0.026
-3.327 2.292 0.383
-2.913 2.519 0.384
-3.327 2.384 0.843
-3.656 1.544 0.048
-3.656 1.916 0.37
-3.656 2.055 0.843
-3.656 1.916 1.316
-3.867 1.641 0.843
-3.867 1.411 1.241
-3.656 0.342 1.089
-3.656 0.609 1.504
-3.867 0.951 1.241
-3.867 0.721 0.843
-3.656 0.342 0.597
-3.867 0.951 0.445
-3.656 0.609 0.182
-3.656 1.057 -0.022
-3.867 1.411 0.445
-3.94 1.181 0.843
-2.457 -1.44 1.367
-2.786 -1.076 1.613
-2.786 -1.076 1.121
-2.457 -1.348 0.907
-2.786 -0.809 2.028
-2.215 0.2 -2.35
-2.215 -0.241 -2.149
-2.52 0.083 -1.912
-2.52 0.561 -1.912
[...]
CELL_DATA 1800
SCALARS cell_data_0 double
LOOKUP_TABLE default
1.92069578644e-06
3.58830453463e-06
1.86547940736e-06
1.94724457683e-06
4.11149240778e-06
4.02934133291e-06
3.71085107643e-06
2.60930826622e-06
2.19122959643e-06
1.32451914895e-06
1.96986215813e-06
4.3599174275e-07
2.5087312111e-08
2.96168892439e-08
1.34412937932e-07
3.45944549055e-08
5.60167237644e-08
1.45214630977e-07
3.91613171055e-06
5.57084855307e-06
3.93811283643e-06
4.33643461837e-06
1.09396387713e-06
1.22068543168e-06
1.0064979293e-05
8.07275727465e-06
6.5718233555e-06
6.43881342741e-06
4.40654050371e-06
4.88852980526e-06
7.34480628432e-06
5.98284843815e-06
8.79166771613e-06
5.66701807562e-06
4.18105891061e-06
8.27887276499e-07
6.77836240099e-07
5.25204713844e-07
3.34765119959e-07
3.7434805286e-07
1.00468964934e-07
5.93103903104e-07
7.61999801661e-06
6.87147984312e-06
2.03837525194e-06
2.01270152869e-06
7.85555529686e-06
4.23259168592e-06
4.25868255707e-06
7.3059635623e-06
6.58019568915e-06
6.28767295434e-06
7.23058786973e-06
7.10258412135e-06
2.662834392e-05
2.17237820215e-05
2.37185426731e-05
2.29252960411e-05
2.54511319516e-05
7.90943664186e-06
1.8682014176e-05
5.50215205224e-06
8.7750016483e-06
1.34131340133e-05
9.25397410414e-06
1.04568670045e-05
3.21480764271e-06
6.81428291072e-06
5.28496368647e-06
4.92705642702e-06
7.87903195784e-06
5.52602286844e-06
4.29020642731e-06
1.91490488643e-06
2.2765559123e-06
2.75657269654e-06
3.90988705618e-06
2.15836049878e-06
1.69597267779e-06
1.51150196723e-06
1.76864571159e-06
3.17953717801e-06
4.89416897179e-07
2.80610897173e-08
4.4812843758e-07
4.49324593844e-07
9.17062772624e-07
8.98374705762e-07
7.03454480998e-07
1.67566547165e-07
6.50944022771e-07
4.06837479564e-08
8.29462893602e-08
7.72594424825e-08
1.90863621917e-07
1.64676983207e-07
6.1383476933e-07
1.84655670227e-06
3.65304609039e-06
3.21995283794e-06
7.21854357585e-07
1.37742108538e-06
1.94919458131e-06
1.7956795533e-06
7.30253336207e-07
1.20769437127e-06
1.41335001293e-06
1.15264077096e-06
8.85777616762e-07
1.14443357902e-06
1.06936240162e-06
7.86559078186e-08
8.34290730391e-07
8.4002465508e-07
1.20088791593e-06
1.16494858728e-06
1.22014318942e-06
1.06191186025e-06
6.05917561002e-07
7.96460879596e-07
9.3756996123e-07
1.01844038297e-06
1.0217618944e-06
7.97136873309e-07
1.1738728402e-07
3.50151275526e-07
7.85069972406e-07
9.33233438656e-07
6.95008337707e-07
3.78409379481e-07
1.20082943399e-07
3.00440018095e-07
3.09513353014e-07
3.88893833979e-07
3.49739829961e-07
4.43222817425e-07
3.32278547818e-07
1.31529539326e-06
6.42997444984e-07
5.77871782355e-07
1.14970213954e-06
1.47256114343e-06
1.04936716762e-06
1.87740548789e-07
8.51808217966e-07
1.17212624132e-06
9.61033264179e-07
1.27262342892e-06
1.26734925402e-06
1.36640783951e-06
1.41483846955e-06
2.50932784468e-06
1.92031662345e-06
2.50735335912e-06
2.45047297438e-06
3.23083808194e-06
1.9936526415e-06
2.70641246383e-06
5.40162417919e-06
5.30324590352e-06
2.59519394389e-06
2.3906515277e-06
2.42831561895e-06
1.85984203929e-06
4.6231117208e-06
5.59577533948e-06
5.79895374691e-06
6.59312792835e-06
6.96607016867e-06
3.33821233612e-06
4.54626541302e-06
8.49617803856e-07
2.36288282365e-06
1.65225498097e-06
4.53303496646e-06
8.08227111739e-06
1.25445322551e-06
1.45062576612e-06
1.80196550009e-06
5.0199009042e-06
3.22847649476e-06
3.92226918181e-06
3.96061914437e-06
5.22969503527e-06
2.4869244644e-06
2.13932936168e-06
2.15126891902e-06
2.22586675926e-06
1.89649933217e-06
1.80483254924e-06
2.02899433924e-06
1.90139568843e-06
1.58422790657e-06
1.40344011152e-06
1.48160210532e-06
1.10969277617e-06
1.32316575889e-06
1.75241545659e-06
9.72636610825e-07
5.74600509409e-07
3.51714396105e-07
4.05003153485e-07
4.73440615353e-07
4.51193104785e-07
6.22191948257e-07
4.9808669218e-07
5.10212371867e-07
4.2796270228e-07
3.18568094576e-07
2.59724296619e-07
5.4588993882e-07
4.70042244873e-07
4.24336595552e-07
2.85470952896e-07
2.67519357325e-07
1.05590124092e-07
4.91631390067e-07
2.6354043339e-07
3.12912830059e-07
1.58134746457e-07
2.02842576931e-07
1.1008003719e-06
5.74546942358e-07
5.40744935109e-07
1.22960624343e-06
1.60351946861e-06
1.14754598883e-07
1.76549064172e-07
4.3458938597e-07
4.26836311506e-07
1.28558483289e-06
2.40774015328e-06
1.96902437218e-06
6.64895903256e-06
2.29331952891e-06
7.00620328384e-07
4.52592552649e-06
3.2730906217e-06
2.69473197915e-07
9.89540502016e-08
3.65866928739e-08
1.04893607525e-07
3.05968453888e-08
3.57105392944e-08
9.73445755249e-08
1.3535597883e-07
1.61126751619e-09
2.62442895197e-08
1.34697827042e-06
2.74882539724e-06
1.78095269847e-06
2.78575983218e-06
2.9500492296e-06
1.7715976924e-06
1.10983852334e-06
4.268118017e-06
7.52968349439e-06
1.10609002237e-05
1.92260837173e-05
1.80010886967e-05
2.73111885305e-05
2.00106208143e-05
2.26200508801e-05
1.5710025828e-05
9.32776725042e-06
6.60317978674e-06
2.76239447175e-06
4.50613753246e-06
4.36631769312e-06
1.9264357811e-06
2.00727845354e-06
2.00236568662e-06
2.15894210564e-06
9.17398697714e-07
8.78883435296e-07
6.05242461606e-07
2.74050519863e-07
2.30161238528e-07
1.12146507608e-07
4.04622168883e-07
8.90642469256e-07
1.01556756879e-06
1.0969265116e-06
1.93412130921e-06
8.36574853598e-07
4.10377416379e-06
3.41745489025e-06
7.28595853887e-06
5.37022176862e-06
4.67155028053e-06
4.97397842632e-06
3.08510204603e-06
4.20184568523e-06
1.37517486848e-06
3.60147281927e-06
9.37603329573e-07
5.91689444654e-07
5.63618219458e-07
5.50694335499e-07
1.33993758013e-06
2.48902484923e-06
1.96123845958e-06
2.32914985905e-06
1.14704950454e-06
1.95978237419e-06
2.14387902001e-06
3.82271672326e-06
3.6734781567e-06
2.82768183586e-06
2.28891233173e-06
3.00142593358e-06
3.23980429611e-06
3.12954420835e-06
6.26177300498e-06
3.2352164023e-06
2.08095934191e-06
3.7224452766e-06
1.96909590033e-06
1.19286209743e-06
1.37782240399e-06
9.43788717039e-07
1.83072607511e-06
1.38621169022e-06
1.63913197456e-06
2.18267262316e-06
3.11549022186e-06
1.85053153985e-06
1.02736311632e-06
1.37027770943e-06
1.01162431983e-06
1.25619988095e-07
6.89798732691e-08
5.24147168863e-07
1.92901882878e-07
6.20797479237e-08
8.12352441365e-07
4.38877610869e-07
1.50698696317e-07
8.87080383969e-07
5.86828848121e-07
1.47465419624e-06
1.5447037766e-06
2.31756899962e-06
2.66732426965e-06
2.94010979911e-06
2.55572324509e-06
7.64842872494e-07
1.11232114671e-06
2.19231165322e-07
1.05781018284e-07
1.04544987598e-06
8.47043541578e-07
1.78478433328e-06
1.36849836497e-06
1.17466394941e-06
1.08205907479e-07
7.8158452265e-08
3.3324516288e-07
1.83978650083e-07
9.5166546621e-07
3.90703714995e-07
9.81895084927e-08
4.68521054277e-07
2.68475172842e-07
1.77475084026e-07
4.05305009497e-07
9.90934561307e-08
5.25230539598e-06
3.72870413401e-06
7.43084360187e-06
3.05150160337e-06
7.1255099986e-06
1.39321437417e-05
6.86401432759e-06
2.89554345559e-05
5.38720590857e-05
8.53614769095e-06
8.62023548015e-07
1.83922716786e-05
1.87769543822e-05
1.25704587888e-05
4.17066869046e-05
7.77037086597e-06
2.22161857972e-06
2.35952529014e-07
3.25729981795e-06
4.35087795149e-06
1.27464557592e-06
2.01923726167e-06
1.47784417601e-06
1.77992366833e-06
8.5830012377e-07
1.86165121556e-06
1.18882599116e-05
3.93616826984e-06
3.8611116462e-06
8.88543004174e-07
1.46569879731e-06
8.40222224553e-06
2.86422763662e-06
3.25666664095e-06
3.18439789778e-06
1.16519397431e-05
7.94825219663e-06
1.4212608421e-05
9.86601090661e-06
1.3319381039e-05
1.01469255827e-05
1.01581940273e-05
3.21046667906e-06
4.01558700441e-05
1.97096710514e-05
2.01874489063e-05
6.1775959003e-06
2.15299562439e-05
9.16849457796e-07
2.25499833486e-06
2.47344262543e-06
5.17239467477e-06
1.87869299917e-05
1.1097850538e-05
8.74146927919e-06
8.51623789341e-06
4.08755081857e-06
5.04855802892e-06
5.13470254487e-06
4.94015428551e-07
7.01571305812e-07
4.948025569e-06
1.13041543798e-05
1.8821141942e-05
1.13556633157e-05
1.77172091046e-05
2.65544524881e-07
9.64339199672e-07
7.09983469096e-06
2.14354187679e-06
1.54304217383e-05
5.25827059809e-06
8.51334016929e-07
8.35973202449e-07
5.54741738947e-07
4.89682019543e-07
4.10609086312e-07
1.92320483252e-07
2.04199415712e-07
8.06758975896e-07
1.5418594766e-08
5.84684656037e-07
2.93152833042e-06
2.46620300709e-06
5.29508654515e-07
4.19927183492e-07
1.00182189837e-06
1.32466330812e-06
1.73646913227e-07
1.29244954529e-06
1.70186727099e-06
2.74366811326e-06
6.59124625245e-07
5.1122597543e-07
3.16609598819e-06
2.72046322651e-06
1.88368394684e-06
1.69444894079e-07
1.2711205852e-06
2.57899234717e-06
2.90317857224e-06
8.10510139606e-08
1.74238130295e-06
3.53525491542e-06
5.1305983221e-06
3.90895354664e-06
4.11179921104e-06
4.14120922329e-06
1.90320454005e-06
8.18713786624e-06
1.01364337188e-05
1.31525582829e-05
1.40110601524e-05
1.26773552867e-05
8.07595672767e-06
7.28229880975e-06
8.24367428703e-06
4.59980726312e-06
8.09804573829e-06
2.72060769899e-06
4.57114552533e-06
1.14681987098e-06
4.48995298119e-06
2.52715763145e-06
6.81171045213e-07
2.38418837012e-07
2.97966740078e-07
7.80808529477e-07
7.3174389234e-07
1.00904537202e-06
9.08200534154e-07
1.25993690314e-06
6.88295870542e-07
6.6467021446e-07
1.4968703622e-06
2.99005069151e-06
1.22051605945e-06
1.73074360539e-06
2.10784809663e-06
2.85816899852e-06
1.96376714175e-06
2.67234007137e-07
7.42980868659e-07
2.41122095653e-06
1.227329192e-06
2.37368226857e-06
3.18205942013e-06
5.51707367112e-06
3.59360923301e-06
3.05184977252e-06
3.96103197136e-06
3.912331917e-06
1.84063875713e-06
1.25374628782e-06
1.36310560488e-06
1.38823518876e-06
7.29542059956e-07
6.61397850651e-07
7.69590118603e-07
6.79166887907e-07
6.23941943824e-07
4.88807423963e-07
3.72849008977e-07
8.19772914003e-07
4.56204817317e-06
1.43716071545e-06
1.77015259988e-08
2.72281911427e-07
4.23225468386e-06
1.56638075169e-06
3.56887704089e-08
2.28226272334e-07
6.92762086398e-07
1.43814759434e-06
3.02642924476e-07
2.16601455701e-07
1.70573551475e-07
7.75233985882e-07
8.93459713403e-08
8.466555174e-07
1.01645355739e-06
6.4914868988e-07
7.55607090431e-07
1.30811083893e-08
1.38357429836e-06
7.51076241131e-07
3.92829017945e-07
6.91877301832e-07
2.10454645838e-07
1.50180834705e-06
8.36873287815e-07
9.88514986333e-07
1.53240168062e-06
3.49174455103e-07
7.15216013319e-07
2.3780617429e-06
1.59211280095e-06
2.2639894483e-06
4.7420407487e-07
1.22935914637e-07
6.92369205953e-06
1.37142846978e-05
1.28508046012e-05
2.84016833506e-06
6.57058510704e-06
4.37359484878e-06
3.27206102981e-06
3.62988886935e-06
1.94562262529e-06
9.85511001404e-07
1.76285418365e-06
1.89803775634e-06
2.4748251093e-06
7.30241174337e-07
3.01730552191e-07
2.95300096309e-07
6.38166190415e-07
1.19793511202e-07
1.17895560575e-07
3.58419610719e-07
7.91182195854e-07
4.83034450011e-08
1.58905571758e-07
5.22578956169e-07
2.60486431311e-06
3.3103184885e-06
7.86671119943e-07
6.48141202644e-08
2.64931048687e-07
3.99791096319e-07
5.12375429528e-08
7.74146281087e-06
9.05350836925e-07
1.79090425108e-06
1.64966105634e-07
7.616933592e-07
8.17649221472e-07
3.78532384496e-07
2.30230637651e-07
1.88832351421e-08
9.7391579419e-08
4.1582231133e-08
6.09104129009e-08
3.82127375207e-07
3.03658512555e-07
7.08112356937e-07
7.3473250115e-07
4.08459737758e-06
2.27393515874e-06
2.20345382522e-06
7.22364441439e-06
4.33184583076e-06
4.65776205017e-06
5.54468549055e-06
2.88514180736e-06
2.46980569654e-06
5.35999536357e-06
3.54639698166e-06
7.28999040708e-06
3.23846061301e-07
8.5679076104e-07
4.04224657254e-07
2.18671228686e-06
1.72306108164e-06
2.93411929857e-06
1.53669836474e-06
3.05800835466e-06
2.17811177005e-06
1.32266527733e-06
1.34066588649e-06
1.31051572122e-06
1.33037326885e-06
1.22217068899e-06
8.43980664778e-07
5.86901473974e-07
8.14096856793e-07
4.1472014331e-07
7.88586723273e-07
2.015948111e-08
3.28721693646e-08
1.12655723476e-06
1.01394280136e-06
7.25295977611e-07
1.41165221258e-06
1.63801541309e-06
1.50752942835e-06
8.499878298e-07
5.32052633989e-07
4.08936187287e-07
2.62533488682e-07
3.08803499178e-07
1.65397167394e-06
1.55058453886e-06
1.05970708113e-06
1.1804330583e-06
3.59454462983e-05
1.88895498176e-05
2.79289173308e-05
2.57211841153e-07
6.19891400452e-06
2.6498610315e-08
5.01275480335e-07
7.48374084324e-06
1.09741969293e-05
2.56563917911e-05
3.40318651808e-05
1.08973694715e-06
1.20185242236e-06
4.94100804885e-07
5.61388846539e-07
2.72178282487e-06
8.22534774365e-07
7.04353841769e-06
6.23655849519e-06
3.84802427602e-07
2.31625780436e-07
4.90305799722e-07
1.47795176925e-06
5.6522573532e-07
6.91516429098e-06
2.96762623858e-06
1.34803529197e-06
1.70310079965e-07
5.47700050053e-07
1.99657334507e-06
1.12931929226e-05
1.02858943304e-05
1.30616289667e-05
1.95070776816e-06
8.70670646226e-06
1.16647740524e-05
5.77743852077e-06
5.72989757724e-06
8.878612131e-06
2.92727206429e-06
1.23427454289e-06
1.97277885404e-07
8.39209506196e-08
2.47981148417e-08
4.30573957897e-08
9.38592237457e-07
7.22951327138e-07
6.97917729147e-06
5.01893204268e-06
7.46836284489e-06
1.47827939565e-06
7.3681883299e-07
3.47116558233e-07
1.19673591309e-06
1.23408944718e-06
3.26698427945e-07
4.22541968166e-07
1.62255190905e-06
1.56853786821e-06
9.19165605734e-08
3.45222081734e-08
4.47406910935e-07
1.16295404261e-07
1.63038539391e-07
4.55131306378e-07
1.05566982102e-06
9.21445041072e-07
9.67148980659e-07
4.72803090312e-07
8.75468650123e-07
9.22693431184e-07
1.8990919707e-06
1.64204390659e-06
2.46396156409e-06
1.4006146859e-06
2.3839930707e-06
2.35066668856e-06
1.61615242969e-06
1.8498829804e-06
8.24450451822e-07
8.02369136613e-07
8.18757090302e-07
5.84835200777e-07
5.10812458568e-07
4.98243935742e-07
4.69084886001e-07
4.53988124754e-07
5.586726141e-07
2.36519174011e-06
2.08085015594e-06
5.83890404289e-06
2.7644680949e-06
2.47376180018e-06
7.09734852433e-07
4.86951666758e-07
1.82260901607e-05
1.74856144825e-05
2.21714146774e-05
1.52699864024e-06
4.76864654918e-07
2.48996645069e-06
1.23625897298e-06
1.81693223764e-06
4.44966252564e-08
1.40544269396e-07
2.41372076712e-06
4.38725797733e-06
1.1361744789e-06
1.19717518709e-05
6.4865955388e-06
5.33232120222e-06
4.33360636993e-06
3.94184506617e-06
3.9705400308e-06
2.26713312033e-06
1.41489318015e-06
1.20870577175e-06
6.64246668354e-07
3.09232173906e-06
3.38139687295e-08
1.09121213033e-07
3.39964281995e-08
3.94524759493e-08
2.51229604454e-07
2.25004206171e-07
5.15610337299e-07
3.94598527386e-07
7.11294378515e-08
1.20390707656e-07
5.74071667295e-07
1.64357786085e-06
1.22641720504e-06
1.46323590593e-06
1.9593547891e-07
9.33117452681e-07
1.65138986604e-07
9.88865022923e-07
3.12713808398e-07
6.86193592039e-07
2.61670435365e-07
6.44330477082e-07
2.01127774232e-07
2.50791442498e-08
8.18137861136e-07
1.15830429973e-06
2.09549631636e-06
1.07395804769e-06
1.01916517427e-06
6.6186569521e-07
4.59457360927e-07
5.70148990407e-07
1.76441145152e-06
1.20544233397e-06
9.98864282772e-07
4.88413441226e-07
7.19959959899e-07
3.02104722015e-06
2.67695318193e-06
5.35034027009e-07
1.16839449652e-06
5.55185197698e-06
9.23287017103e-07
7.55265123394e-07
6.28796354874e-07
8.94862168513e-07
7.8812835731e-07
6.59050142682e-07
8.53870379991e-07
8.23782798265e-07
8.20144072834e-07
7.85136395891e-07
1.07709421709e-06
9.14657667607e-07
8.6483114036e-07
7.62468629182e-07
5.53755083721e-07
2.08077122619e-06
4.08499528483e-08
5.9293418201e-07
6.82591185365e-07
7.53653731578e-07
8.50265154491e-07
6.75366414594e-07
4.36920179038e-07
4.34573845864e-07
1.10852292827e-06
1.16891332682e-06
2.04270668574e-06
1.50791205831e-06
1.9812663675e-06
2.11654205011e-06
1.58025184524e-06
1.39451327777e-06
1.06053814692e-06
4.04771958732e-06
1.1726963786e-06
9.05198933287e-07
4.86826878701e-06
1.24541044645e-06
2.24050214479e-06
7.79655127468e-07
4.75296753119e-07
2.55940755519e-06
8.59934663313e-08
2.14909839723e-07
8.15893425321e-08
3.12097692662e-07
2.01215727874e-07
7.396477708e-08
2.45405356663e-08
4.80040600294e-08
2.01184759523e-07
1.51300724076e-07
1.20284959322e-07
5.92444851879e-08
2.01718679318e-08
6.98744606731e-08
2.06695296664e-07
2.49230277047e-08
8.62069504267e-08
6.43445395325e-08
8.86077254343e-06
8.9645449199e-06
7.71715504847e-08
2.82490428816e-06
6.33809538655e-06
1.76442045229e-06
7.97393744628e-06
6.53213729849e-06
9.30328299095e-06
1.68602026993e-07
2.11699860739e-07
2.8135220062e-07
2.17374738727e-07
1.4504011204e-07
1.92535336978e-07
1.11776194861e-06
8.66877601938e-07
5.92061206842e-07
1.89068830726e-07
1.01790172699e-07
3.58647107693e-07
4.737258515e-07
2.04726619649e-07
1.37483963904e-07
8.06787548534e-08
8.81107582905e-08
2.26810186776e-06
5.99349411472e-06
3.23967872953e-07
2.38474930586e-06
1.8297941151e-06
2.84082656041e-06
3.59725075204e-07
5.93644103246e-07
1.71618370907e-06
1.26784651563e-06
2.92710295556e-06
1.14930619086e-06
6.82928177927e-06
1.46311094217e-06
4.33607607704e-06
7.49334841802e-07
2.20900444219e-05
2.90616139563e-05
1.18438341149e-05
1.64536828189e-05
6.9957242128e-06
3.62721403712e-06
5.73614680479e-06
5.74261953114e-06
5.82862413918e-06
4.4860537943e-06
6.19133030263e-06
1.00443397981e-05
4.72981070888e-06
8.66292951555e-06
1.297356276e-05
8.27127878388e-06
1.44728676867e-05
1.39961109048e-05
6.9238657253e-06
5.29787868535e-06
2.0430433102e-06
4.81482183414e-07
2.64734884321e-06
9.99000749705e-07
1.07493637709e-05
1.01586597012e-05
1.13059613156e-05
1.54868444733e-05
2.11843807887e-05
6.26193862847e-06
2.25897720978e-06
6.39854512427e-06
4.73791561994e-06
5.04560409529e-06
2.01737964191e-05
1.07254177729e-05
1.64559029157e-05
2.9261867143e-05
2.13609773425e-05
2.85276429759e-05
1.03964945533e-05
1.15841664978e-05
9.60225107536e-06
1.0505499348e-05
1.11025542862e-05
9.12680389948e-06
5.32731312009e-06
2.30642015035e-06
1.15396534615e-07
2.58645095185e-06
1.79727262174e-07
7.95937509823e-07
1.65670738312e-08
1.8581066539e-07
1.28705004779e-07
6.69359553167e-07
8.66184987592e-07
2.27714213783e-06
2.11582441807e-06
3.76871635668e-06
2.42521467811e-06
2.94772872805e-06
1.31907237728e-06
1.04822740268e-06
1.92964189654e-07
3.61774467951e-07
8.20227224232e-09
1.85838883526e-08
6.77120452939e-08
1.54764867385e-08
1.92337847615e-08
2.6203733392e-07
3.33905382079e-07
8.81764834549e-07
7.97128964486e-07
1.05917138149e-06
7.34164564461e-07
7.19259166634e-07
3.56119824099e-07
3.91012654108e-07
1.10895917327e-07
1.45245140008e-06
5.35423473631e-07
1.07254823383e-06
5.22461146377e-07
5.18346579612e-07
6.55276248446e-07
1.01704946665e-07
4.67935791655e-07
1.93318659e-08
2.47566759821e-07
2.38710612797e-07
1.42130513543e-07
4.01097601221e-08
2.07470849503e-07
1.40667744893e-07
1.2601797494e-06
1.5117649376e-06
1.47881595632e-06
1.50338441118e-06
1.12600676632e-06
9.80839793865e-07
6.38197267985e-07
5.51098013205e-08
1.89324677246e-07
5.20662844283e-07
7.88680226821e-07
9.55374661902e-07
1.56577761047e-06
6.58243447493e-07
1.79390363912e-07
2.64148812842e-07
2.76294388783e-07
1.34679742665e-06
5.0115477089e-07
1.13571109708e-06
7.13862433824e-07
8.91159815288e-07
7.61845472511e-07
2.69063792689e-07
1.10019274685e-06
1.35358047203e-06
1.59372930887e-07
1.79242015297e-08
7.89641123446e-08
2.60256305789e-07
6.01580171191e-07
1.56033954934e-07
1.81107439488e-07
1.01927119096e-06
9.70983960874e-07
1.39677252689e-06
1.13476584569e-07
3.489233385e-06
7.41266913824e-06
5.21219796186e-06
2.77060797072e-06
2.26692914961e-07
9.10464973639e-08
9.82540016319e-07
4.40174816453e-07
5.97120269493e-07
1.11128512704e-06
4.79406959164e-07
6.93337591153e-08
1.88460806206e-06
3.13721439942e-06
4.74035447047e-06
1.78789575957e-06
4.51739727489e-06
7.22936670219e-06
1.82534908721e-06
3.07096889726e-06
1.99580210506e-06
2.98445086479e-07
5.57061924985e-07
1.88330727235e-06
3.53103748114e-07
7.54034717362e-07
5.89980063169e-07
9.11522080314e-08
7.38316774153e-07
4.32972099828e-07
7.33115947571e-08
3.34040523694e-07
1.94643874269e-07
3.9081486767e-07
5.65808663843e-07
6.48829952007e-07
2.62941514308e-07
2.70485913594e-07
9.89903149924e-09
9.68318495988e-08
2.84339596902e-07
2.61041959131e-07
1.14359790617e-07
5.96207463757e-08
6.50320006078e-08
1.30469567785e-07
4.3793009167e-07
5.15218765708e-07
7.70089673762e-07
6.84010067448e-07
7.77279715382e-07
6.16424153924e-07
2.70237927676e-07
2.06009321565e-07
4.95596316445e-07
1.70983113114e-06
1.51787130617e-06