# vtk DataFile Version 3.0
File Name: Molecule/arg/arg_6.25-0.vtk
ASCII
DATASET UNSTRUCTURED_GRID
FIELD FieldData 1
TIME 1 1 double
0.0
POINTS 1071 double
-3.403 0.327 1.604
-3.458 0.149 1.214
-3.138 0.005 1.702
-3.19 -0.164 1.33
-2.981 -0.361 1.858
-3.036 -0.538 1.468
-3.398 0.034 0.803
-3.133 -0.274 0.938
-2.976 -0.654 1.057
-3.231 -0.009 0.408
-2.974 -0.315 0.561
-2.809 -0.697 0.662
-2.971 0.024 0.066
-2.725 -0.284 0.235
-2.549 -0.664 0.32
-2.984 0.046 0.042
-2.617 -0.045 -0.207
-2.63 -0.024 -0.229
-2.351 -0.22 -0.527
-2.365 -0.198 -0.55
-2.2 -0.483 -0.862
-2.216 -0.458 -0.889
-3.215 0.428 -0.189
-2.686 0.062 -0.328
-2.875 0.375 -0.517
-2.48 -0.047 -0.742
-2.657 0.246 -0.92
-2.39 -0.269 -1.153
-2.586 0.057 -1.35
-3.255 0.893 -0.375
-2.908 0.756 -0.67
-2.688 0.604 -1.063
-2.621 0.454 -1.509
-3.1 1.357 -0.484
-2.781 1.137 -0.759
-2.569 0.961 -1.147
-2.488 0.85 -1.602
-2.776 1.74 -0.497
-2.515 1.451 -0.77
-2.319 1.256 -1.157
-2.211 1.177 -1.613
-2.622 1.932 -0.429
-2.434 1.563 -0.734
-2.291 1.743 -0.67
-2.16 1.459 -1.077
-2.01 1.647 -1.011
-1.982 1.439 -1.492
-1.81 1.654 -1.416
-2.666 2.281 -0.134
-2.227 2.054 -0.482
-2.267 2.371 -0.214
-1.881 2.228 -0.637
-1.921 2.545 -0.369
-1.615 2.438 -0.879
-1.659 2.787 -0.585
-2.622 2.533 0.247
-2.227 2.6 0.132
-1.881 2.773 -0.023
-1.614 3.039 -0.203
-2.495 2.657 0.67
-2.111 2.713 0.516
-1.765 2.886 0.361
-1.488 3.163 0.22
-2.925 2.572 1.071
-2.251 2.77 1.005
-2.634 2.694 1.361
-2.033 3.002 1.293
-2.411 2.928 1.645
-1.863 3.333 1.507
-2.279 3.251 1.894
-3.186 2.284 1.521
-2.865 2.437 1.761
-2.64 2.674 2.039
-2.53 2.972 2.328
-3.419 1.801 1.788
-2.888 2.359 1.917
-3.122 1.876 2.185
-2.717 2.558 2.345
-2.979 2.017 2.644
-3.552 1.393 1.822
-3.202 1.735 2.161
-3.319 1.374 2.191
-3.094 1.732 2.585
-3.21 1.376 2.614
-3.107 1.793 3.017
-3.235 1.399 3.05
-3.548 0.964 1.825
-3.316 0.994 2.194
-3.206 1.001 2.617
-3.231 0.984 3.053
-3.408 0.559 1.798
-3.191 0.635 2.17
-3.084 0.647 2.593
-3.095 0.593 3.027
-3.105 0.348 2.085
-3.1 0.088 1.867
-2.97 0.105 2.152
-3.02 0.504 2.546
-2.901 0.29 2.606
-2.978 0.383 3.085
-2.865 -0.346 2.113
-2.52 -0.7 2.425
-2.789 -0.06 2.411
-2.48 -0.378 2.69
-2.828 0.19 2.745
-2.523 -0.123 3.02
-2.645 0.041 3.387
-2.483 -1.039 2.238
-2.249 -0.827 2.688
-2.214 -1.15 2.51
-2.072 -0.978 3.011
-2.036 -1.312 2.826
-2.003 -1.142 3.367
-1.962 -1.514 3.162
-2.359 -1.33 2.011
-2.096 -1.427 2.294
-1.914 -1.599 2.602
-1.826 -1.833 2.912
-2.159 -1.55 1.761
-1.905 -1.637 2.055
-1.716 -1.817 2.356
-1.606 -2.075 2.638
-1.897 -1.684 1.507
-1.655 -1.765 1.813
-1.457 -1.949 2.105
-1.318 -2.222 2.359
-1.592 -1.721 1.268
-1.365 -1.8 1.585
-1.156 -1.986 1.869
-0.984 -2.263 2.097
-1.926 -1.641 1.017
-1.351 -1.766 0.91
-1.664 -1.691 0.675
-1.133 -1.941 0.578
-1.457 -1.864 0.334
-0.96 -2.23 0.303
-1.327 -2.142 0.027
-2.203 -1.444 0.759
-1.923 -1.507 0.433
-1.726 -1.673 0.084
-1.631 -1.926 -0.256
-2.396 -1.15 0.52
-2.103 -1.231 0.209
-1.913 -1.387 -0.149
-1.843 -1.603 -0.519
-2.487 -0.785 0.321
-2.189 -0.889 0.022
-2.002 -1.032 -0.342
-1.943 -1.202 -0.738
-2.264 -0.668 -0.026
-2.322 -0.554 -0.027
-2.141 -0.611 -0.433
-2.203 -0.492 -0.433
-2.131 -0.618 -0.861
-2.114 -0.682 -1.181
-1.927 -1.264 -1.052
-2.312 -0.441 -1.376
-2.121 -0.506 -1.916
-2.042 -0.816 -1.214
-1.838 -0.886 -1.79
-1.682 -1.348 -1.746
-1.975 -0.256 -2.322
-1.864 -0.768 -1.888
-1.672 -0.441 -2.421
-1.897 0.192 -2.527
-1.57 0.147 -2.691
-1.996 0.646 -2.441
-1.495 0.306 -2.776
-1.602 0.798 -2.682
-1.198 0.386 -3.152
-1.328 0.981 -3.039
-2.011 1.039 -2.18
-1.619 1.224 -2.399
-1.348 1.496 -2.696
-1.72 1.257 -2.235
-1.631 1.561 -2.005
-1.259 1.801 -2.466
-1.479 1.817 -1.75
-1.107 2.057 -2.211
-1.346 2.153 -1.415
-1.642 2.007 -1.116
-1.319 2.584 -1.178
-0.816 3.013 -1.267
-1.159 2.356 -1.471
-0.676 2.767 -1.557
-1.087 2.175 -1.825
-0.583 2.604 -1.915
-0.543 2.537 -2.312
-0.229 3.384 -1.004
-0.488 2.934 -1.522
-0.105 3.176 -1.351
-0.228 2.93 -1.855
0.02 3.086 -1.745
-0.059 3.001 -2.236
0.134 3.123 -2.15
0.003 3.141 -2.63
0.229 3.284 -2.529
-0.048 3.337 -3.001
0.294 3.553 -2.848
0.466 3.148 -0.891
0.348 3.022 -1.277
0.313 2.987 -1.697
0.364 3.045 -2.112
0.497 3.193 -2.485
0.699 3.415 -2.782
0.833 2.913 -0.61
0.553 2.897 -1.196
0.905 2.671 -0.926
0.699 2.74 -1.539
1.067 2.504 -1.257
0.892 2.689 -1.891
1.303 2.425 -1.576
1.057 2.557 -0.305
1.12 2.33 -0.634
1.29 2.148 -0.952
1.553 2.026 -1.234
0.979 2.767 0.195
1.24 2.204 -0.113
1.167 2.404 0.362
1.539 1.918 0.039
1.462 2.128 0.539
0.737 2.845 0.68
0.936 2.478 0.823
1.22 2.206 1.024
0.406 3.093 0.833
0.701 2.629 1.02
0.405 2.851 1.157
0.756 2.48 1.392
0.466 2.698 1.526
0.897 2.411 1.765
0.584 2.646 1.91
1.112 2.426 2.108
0.748 2.699 2.276
0.102 3.399 0.689
0.142 3.058 1.218
-0.121 3.323 1.093
-0.01 3.117 1.656
-0.27 3.379 1.533
-0.034 3.266 2.099
-0.327 3.561 1.96
-0.29 3.571 0.538
-0.462 3.472 0.961
-0.606 3.526 1.403
-0.705 3.727 1.814
-0.721 3.587 0.398
-0.837 3.486 0.84
-0.976 3.54 1.283
-1.123 3.742 1.679
-1.138 3.445 0.287
-1.199 3.363 0.744
-1.333 3.418 1.189
-1.525 3.605 1.572
-1.502 3.118 0.685
-1.632 3.177 1.131
-0.05 3.403 2.531
0.304 2.919 2.221
0.288 3.057 2.654
0.729 2.855 2.766
-0.175 3.437 2.964
0.162 3.091 3.09
0.587 2.894 3.259
-0.395 3.364 3.353
-0.059 3.019 3.48
0.337 2.812 3.701
-0.687 3.194 3.654
-0.352 2.847 3.783
0.006 2.617 4.044
-1.13 3.18 3.766
-0.58 2.815 3.881
-1.094 2.799 4.011
-1.584 3.151 3.721
-1.62 2.766 3.959
-1.995 3.111 3.523
-2.096 2.719 3.73
-2.312 3.063 3.198
-2.464 2.664 3.352
-2.498 3.015 2.783
-2.679 2.608 2.871
-0.749 2.537 4.164
-0.16 2.345 4.321
-0.912 2.194 4.368
-0.321 2.009 4.521
-1.061 1.806 4.483
-0.466 1.628 4.634
-1.364 2.231 4.354
-1.452 1.611 4.604
-1.713 1.977 4.492
-1.735 2.528 4.103
-2.033 2.233 4.276
-2.128 2.66 3.763
-2.373 2.347 3.982
-2.496 2.611 3.374
-2.69 2.305 3.646
-2.791 2.388 2.985
-2.945 2.113 3.311
-1.464 1.095 4.666
-0.956 1.592 4.533
-0.968 1.074 4.596
-0.48 1.041 4.705
-1.655 0.731 4.634
-1.079 0.886 4.596
-1.26 0.541 4.565
-0.689 0.687 4.666
-0.881 0.322 4.633
-0.333 0.517 4.869
-0.555 0.096 4.831
-2.027 0.463 4.516
-1.383 0.368 4.531
-1.728 0.119 4.423
-1.114 -0.009 4.584
-1.476 -0.27 4.469
-0.878 -0.357 4.785
-1.3 -0.661 4.651
-2.342 0.241 4.242
-2.019 -0.087 4.169
-1.783 -0.487 4.202
-1.658 -0.914 4.34
-2.557 0.093 3.848
-2.219 -0.224 3.803
-1.993 -0.631 3.818
-1.903 -1.082 3.892
-2.301 -0.273 3.375
-2.078 -0.682 3.368
-0.557 -0.612 4.999
-0.228 -0.165 5.05
-0.202 -0.89 5.102
0.134 -0.447 5.155
0.164 -1.171 5.088
0.507 -0.734 5.141
0.347 -1.566 4.993
0.615 -0.976 5.092
0.789 -1.35 5.001
1.043 -0.806 5.264
1.226 -1.201 5.169
0.533 -1.916 4.791
0.965 -1.683 4.809
1.412 -1.551 4.967
0.709 -2.198 4.495
1.133 -1.951 4.529
1.588 -1.833 4.672
0.864 -2.393 4.127
1.28 -2.136 4.179
1.743 -2.029 4.303
0.987 -2.488 3.71
1.397 -2.227 3.783
1.866 -2.124 3.886
1.07 -2.477 3.273
1.475 -2.216 3.368
1.949 -2.112 3.449
1.107 -2.36 2.845
1.511 -2.104 2.962
1.986 -1.995 3.021
1.096 -2.144 2.456
1.5 -1.9 2.592
1.975 -1.78 2.632
1.037 -1.846 2.131
1.444 -1.616 2.284
1.916 -1.481 2.307
0.738 -2.198 2.121
0.836 -1.714 1.711
0.588 -2.005 1.702
0.77 -1.662 1.233
0.54 -1.933 1.225
0.848 -1.697 0.757
0.6 -1.988 0.748
1.061 -1.813 0.337
0.762 -2.165 0.327
0.341 -2.433 2.111
0.259 -2.2 1.694
0.235 -2.113 1.218
0.272 -2.183 0.74
0.364 -2.4 0.317
-0.112 -2.527 2.103
-0.115 -2.278 1.688
-0.112 -2.185 1.212
-0.103 -2.26 0.734
-0.088 -2.494 0.31
-0.57 -2.468 2.098
-0.494 -2.229 1.684
-0.464 -2.14 1.209
-0.482 -2.211 0.73
-0.546 -2.435 0.305
-0.837 -2.059 1.682
-0.782 -1.983 1.207
-0.825 -2.042 0.728
1.48 -1.078 0.031
1.028 -1.535 0.641
1.346 -0.978 0.409
1.078 -1.33 0.996
1.331 -0.887 0.812
1.205 -1.217 1.373
1.436 -0.812 1.205
1.4 -1.205 1.737
1.652 -0.762 1.553
1.644 -1.296 2.058
1.961 -0.739 1.826
2.335 -0.746 2.002
1.639 -0.712 -0.547
1.451 -0.719 0.207
1.594 -0.39 -0.313
1.526 -0.39 0.423
1.664 -0.072 -0.079
1.697 -0.118 0.66
1.842 0.216 0.134
1.696 -1.103 -0.765
1.721 -0.524 -0.905
1.774 -0.881 -1.103
1.914 -0.328 -1.213
1.966 -0.68 -1.408
2.201 -0.141 -1.444
2.257 -0.517 -1.652
1.645 -1.46 -1.037
1.727 -1.206 -1.352
1.92 -1.0 -1.653
2.207 -0.859 -1.914
1.488 -1.753 -1.343
1.584 -1.473 -1.631
1.779 -1.262 -1.928
2.057 -1.14 -2.207
1.239 -1.959 -1.658
1.357 -1.661 -1.918
1.555 -1.448 -2.211
1.818 -1.338 -2.51
0.916 -2.062 -1.958
1.063 -1.755 -2.191
1.266 -1.54 -2.479
1.509 -1.437 -2.797
0.547 -2.053 -2.217
0.726 -1.747 -2.428
0.934 -1.532 -2.712
1.154 -1.428 -3.046
0.159 -1.934 -2.416
0.372 -1.638 -2.609
0.586 -1.425 -2.891
0.782 -1.314 -3.237
-0.216 -1.714 -2.539
0.031 -1.437 -2.721
0.25 -1.227 -3.001
0.423 -1.103 -3.355
-0.548 -1.409 -2.576
-0.272 -1.16 -2.755
-0.048 -0.954 -3.034
0.104 -0.811 -3.39
-0.822 -1.287 -2.506
-0.408 -0.948 -2.806
-0.669 -0.831 -2.739
-0.336 -0.591 -3.197
-0.616 -0.466 -3.125
-1.158 -1.334 -2.315
-0.988 -0.705 -2.664
-1.33 -0.753 -2.469
-1.449 -1.354 -2.058
-1.627 -0.774 -2.207
-1.322 -0.31 -2.728
-0.95 -0.071 -3.189
-0.33 -0.315 -3.523
0.111 -0.551 -3.697
-0.251 0.008 -3.791
0.185 -0.248 -3.95
-0.104 0.358 -3.987
0.323 0.082 -4.134
0.101 0.716 -4.098
0.516 0.418 -4.238
-0.411 1.252 -3.909
0.252 1.048 -4.202
-0.118 1.435 -4.065
0.377 1.347 -4.4
0.11 1.626 -4.301
-0.398 1.946 -3.588
-0.108 1.937 -3.833
0.117 1.987 -4.134
-0.712 2.237 -2.975
-0.187 2.28 -3.528
-0.425 2.5 -3.065
-0.042 2.651 -3.554
-0.227 2.824 -3.192
0.028 3.029 -3.665
-0.135 3.18 -3.347
-0.298 2.727 -2.563
-0.128 3.001 -2.799
0.9 3.106 -3.671
0.147 2.667 -3.761
0.845 2.729 -3.765
0.177 2.31 -3.921
0.876 2.372 -3.926
0.989 2.064 -4.14
0.819 3.383 -2.845
1.128 2.855 -3.473
1.063 3.077 -2.811
1.418 2.615 -3.364
1.354 2.837 -2.702
1.749 2.404 -3.353
1.668 2.681 -2.526
0.858 3.054 -2.621
0.721 3.091 -2.55
0.962 2.795 -2.335
0.787 2.842 -2.245
1.123 2.627 -2.01
1.688 2.19 -1.733
1.386 2.606 -2.284
1.794 2.29 -2.083
1.962 2.454 -2.382
2.133 1.624 -1.992
2.116 1.881 -2.27
2.194 2.159 -2.516
2.141 1.301 -1.585
2.428 1.273 -2.257
2.435 0.969 -1.874
2.042 0.907 -1.262
2.342 0.599 -1.57
1.981 1.32 -1.261
1.884 0.909 -0.851
1.83 1.271 -0.85
[...]
CELL_DATA 2138
SCALARS cell_data_0 double
LOOKUP_TABLE default
1.2699346313e-09
6.37560606085e-10
5.32337672038e-10
5.49447010649e-11
8.83666696487e-10
1.39814868014e-09
4.30001833587e-10
1.02474788445e-09
1.34702022773e-09
6.86270516126e-10
6.3143594141e-10
1.24101187191e-09
2.33421314741e-10
2.02402251972e-10
3.42991773087e-10
2.7185441953e-10
7.69750425289e-11
2.94277761629e-11
7.90191737557e-11
3.13271409942e-11
1.98765279157e-11
7.958843603e-11
4.92503501879e-10
7.10245619796e-10
4.70584442241e-10
1.9331570172e-09
1.71104450153e-09
1.63259215118e-09
1.97947183652e-09
4.23726671219e-10
2.11986044277e-09
3.17471684528e-09
3.48458164784e-09
6.26048872093e-09
3.74395171106e-09
1.99574827919e-08
1.74181716257e-08
1.41919519896e-08
3.56596724911e-09
2.17385917837e-08
2.51207911945e-08
1.88594763723e-08
1.60990556719e-08
4.17488646929e-09
1.05877552898e-08
1.50725780631e-08
3.79007192004e-09
9.08917810559e-09
9.66051342373e-10
2.63089376924e-10
6.50170101754e-09
8.33772878873e-09
1.19656336006e-09
2.76782350725e-09
5.97649943794e-09
9.56513875843e-09
1.26162827306e-09
7.13728090965e-09
2.93161526637e-09
5.53561895653e-10
2.81100464299e-09
9.00042021767e-10
1.85083666676e-09
2.87436088747e-09
2.37231032321e-08
2.08902967876e-08
3.5329374376e-09
6.07000793094e-09
4.19383870022e-09
2.41831102553e-09
3.53949966003e-08
9.53462694412e-09
5.73901577181e-10
1.63709512377e-10
5.76732056059e-08
5.75318970789e-08
1.18489671776e-08
1.20251120865e-08
7.48683424467e-09
4.56723497371e-09
4.6580896447e-09
4.98790380487e-08
1.82239779549e-08
3.11464287098e-09
3.05411581046e-08
4.3960413969e-08
3.87020690642e-10
4.58461686309e-10
2.98899630023e-09
5.98267192551e-09
2.53008850552e-09
2.50501576461e-09
1.09765853086e-09
1.79318447401e-09
4.36103143992e-09
6.14301013445e-09
7.31028456083e-09
5.94783701031e-09
7.52938341717e-10
4.65148578412e-10
3.94633135227e-09
2.54803524804e-09
2.936057794e-09
7.04126159624e-10
9.2249607201e-11
9.00827659031e-10
6.87009841002e-09
1.29644661282e-08
1.16985873124e-08
4.87827618841e-09
1.05472841723e-09
5.27228028789e-10
2.43874639818e-08
2.20707751825e-08
1.31333497851e-08
9.10435340606e-09
5.73536025471e-09
1.06737176951e-09
2.47617902856e-10
9.90038711525e-08
9.88093162137e-08
9.61052707737e-08
3.35917002089e-09
5.7296544348e-09
1.00018345857e-07
9.67115592119e-08
9.44356971024e-08
3.47526007053e-09
4.37120730617e-09
9.66737337346e-09
7.49400065417e-09
8.54327445375e-09
4.29743445573e-09
2.42789978965e-09
5.44901881493e-09
5.47082197173e-09
8.26498003326e-09
2.05795869391e-09
7.87020703833e-10
3.32953054528e-10
1.4534668407e-09
6.23264865952e-10
1.08006731565e-09
1.0298314586e-10
5.53728456963e-10
1.35931962118e-09
3.40023989026e-10
2.0971186284e-10
4.41490127495e-10
5.72905054096e-10
1.24413684656e-09
2.46831823874e-09
2.88867184804e-09
2.11771658278e-09
8.82600815168e-10
2.57865865002e-11
2.52488487882e-09
2.6703696663e-09
1.5018612959e-09
2.67365587192e-10
9.37036950127e-10
9.77960420185e-10
8.47461169369e-11
8.34492204604e-11
1.16357714851e-09
1.6258221337e-09
1.863106964e-09
1.22090452485e-09
3.3305566799e-10
6.07006739211e-10
5.32775686664e-10
1.35768729327e-09
3.54601404616e-10
1.84139899433e-10
6.37499067418e-10
4.02248132124e-10
5.0471252351e-11
5.69544560151e-10
1.59989285478e-09
2.13143575048e-10
1.38146377791e-09
4.32346772681e-10
4.66427698845e-09
5.08467973733e-10
1.17748146117e-09
5.35229307009e-09
3.43206432274e-09
1.97213481069e-09
1.81434177238e-09
4.18565611482e-10
1.91333223641e-09
2.34534961521e-10
2.10625426741e-11
4.39743950961e-10
3.90963341019e-10
1.16340992411e-09
1.23473969231e-09
1.53777694549e-09
1.43732542156e-10
5.4314378682e-10
2.57213642323e-09
9.94645913283e-10
1.30075867919e-09
5.02937852369e-10
1.1542803522e-08
9.77638687597e-09
2.74503602053e-11
8.32343275945e-09
1.88075466692e-09
1.79232697937e-09
6.94926112107e-10
1.03431657754e-09
1.56676555003e-13
3.09053279482e-10
8.97690492833e-10
1.46526357694e-10
7.06240974795e-10
7.58110986007e-10
1.07371981364e-09
1.84995357244e-10
4.44340577861e-10
4.63006982601e-10
6.25624892394e-11
1.64535230488e-10
7.07424853507e-10
7.10765569805e-10
8.35566466263e-10
3.53722154855e-10
5.42415843915e-10
7.10768512993e-10
4.7181623503e-10
9.14962064464e-11
2.9634686558e-11
3.8227013971e-10
4.68706443729e-10
2.61942704682e-09
2.91149730042e-09
9.14032369603e-10
1.42654532303e-09
7.77836728774e-10
9.15477922097e-10
2.00550338937e-09
1.60393020668e-09
8.5260233842e-10
9.55818929744e-10
3.87072320812e-10
1.67798699833e-11
4.00633983003e-10
5.55123613628e-10
6.14596928998e-10
1.27442441238e-09
5.77058123898e-10
1.31507812353e-10
1.39525974877e-09
1.20953396308e-09
2.10412789002e-10
3.13437597593e-10
1.1242717547e-09
1.83273281536e-09
1.07876159548e-09
1.11481038986e-09
2.90822010778e-09
2.19597040483e-10
5.13732290635e-10
2.4398955884e-10
3.31565035494e-10
5.62256968591e-10
9.19888986842e-10
1.31413025038e-09
2.85155726708e-10
2.47815990924e-10
3.49446091184e-10
5.14083576486e-10
2.06717114119e-09
2.00530390209e-10
2.51004121096e-10
7.46684637204e-10
5.53620577772e-10
1.52374552201e-09
1.20933608903e-09
1.96144267862e-11
7.98629399957e-10
8.72830938639e-10
5.59238694348e-10
2.06784122039e-10
1.30722626372e-09
2.20146760503e-09
2.42663908957e-09
5.17880758673e-11
5.08087585843e-10
9.68782144108e-10
3.48190605123e-08
1.45662826534e-09
1.20668170231e-09
6.67522856759e-10
1.19934255909e-09
3.75383749825e-10
1.90668479228e-10
8.04730670427e-10
1.27816657635e-09
7.11093314985e-11
9.35986500155e-10
2.90802734991e-10
9.71024163064e-10
1.71136147194e-09
2.60854652044e-10
1.19345622557e-11
2.04716018044e-09
2.02039084891e-09
2.54763832444e-09
2.05211174802e-09
2.72610660266e-10
2.18253200631e-10
3.23260409058e-10
4.1225655192e-11
2.9843449149e-10
2.2645924472e-10
3.8032223884e-10
2.66780375942e-08
5.63099667488e-08
7.12411120103e-12
6.28471513766e-10
1.47781585787e-10
7.59984199134e-10
1.36533397801e-09
3.31658841107e-10
3.83253213119e-09
6.36717810621e-09
5.05593554401e-09
6.48754959781e-10
1.05113192523e-09
5.82281728532e-09
6.2628073274e-09
3.84366291306e-09
4.49467878835e-09
7.07990414355e-09
2.12314658212e-08
1.05044311266e-08
1.60009839937e-09
4.16033304767e-09
1.40898297725e-09
4.56696304926e-10
1.79328583962e-09
7.08255206971e-10
8.86515060231e-10
2.24877426781e-09
3.40183370301e-09
2.61302345324e-09
2.02963818951e-09
1.95786636405e-09
1.14989211696e-09
9.23065443016e-10
5.0128667945e-10
1.4910651545e-09
3.28562656157e-09
4.06582330389e-09
7.73096819514e-10
2.36983927265e-09
1.47350969494e-09
1.94579470467e-09
4.27281554456e-09
4.42862001147e-09
2.97007465443e-09
2.07863473255e-09
3.79885570723e-09
2.68534035744e-09
4.35131937975e-09
3.5448732145e-09
2.87585548519e-09
6.56740215941e-10
1.38313853571e-09
3.7062397834e-09
6.77983635299e-10
6.39351808853e-10
9.47245613212e-11
2.26417586812e-09
1.14849829689e-09
2.61278674521e-10
5.21233415612e-10
1.05581954483e-09
8.67861601524e-10
9.03688954055e-10
3.04522777922e-09
2.51175579132e-09
7.04492434544e-10
8.82605909446e-10
2.14130637848e-09
7.87992773263e-11
1.12855365478e-09
1.10905170165e-09
1.31550340118e-09
3.19894557807e-09
1.90990373364e-09
7.49711239741e-10
4.77092490271e-09
3.74605351796e-09
6.34954263376e-09
7.64899568117e-09
1.82730307932e-09
8.21403523028e-09
1.10845083938e-08
2.45055254182e-09
1.87527056939e-11
4.33730475499e-09
3.87059195669e-09
7.78567182592e-10
5.59744576321e-10
4.76168842119e-10
2.13749725282e-09
1.84374826265e-10
6.07975999073e-10
1.7390051139e-09
2.94245379975e-09
3.21860326671e-09
1.54902282409e-09
1.79139655818e-09
2.28251443408e-09
5.33130895862e-10
1.71014990978e-09
1.69368351203e-09
3.79254271364e-10
1.66233303521e-09
1.56952834239e-09
1.16637995167e-09
9.27363223234e-10
1.30520203163e-10
2.11235870787e-10
3.67081659782e-10
4.5358989874e-10
1.11174651624e-10
1.8071274433e-09
8.73722763557e-10
1.8587631931e-09
2.01765971469e-10
1.68098315207e-09
1.2544836769e-09
4.6673647689e-10
1.14970653483e-09
1.20292048797e-09
9.63990462357e-10
9.07129247388e-10
1.51401314653e-09
6.66796093535e-10
1.23418583221e-10
3.33555152432e-10
1.1924891902e-09
3.3451453605e-10
1.31936999584e-10
1.50297710132e-10
1.0518238714e-10
6.88907859149e-10
2.25877157216e-10
3.85988407045e-10
8.08227195448e-10
5.45635724191e-10
1.90896912229e-09
8.64316813617e-10
2.07323312077e-10
9.66256786013e-10
2.60692719813e-10
5.21475305726e-10
5.5887832744e-10
1.49521502951e-10
1.18508003158e-09
8.31839916956e-10
2.45300934149e-10
2.13691002731e-10
1.66406295805e-10
1.21137911989e-09
1.0549408363e-09
9.51601760347e-10
5.73812052845e-11
1.80539400087e-10
3.07344447076e-11
5.75369500663e-10
1.03501621469e-09
1.85077275624e-09
1.15733619598e-09
7.57019406579e-10
6.90562091634e-10
1.8273353251e-09
2.8743445915e-09
1.25292973139e-09
6.85120944703e-10
2.21776549826e-09
3.27025667382e-09
3.03344365515e-09
8.96279486382e-10
9.6199742741e-10
2.65602258941e-09
6.5034577596e-09
5.67214597378e-09
5.92155737354e-10
7.27685874421e-10
5.00279543901e-10
8.47115761003e-10
5.17171747439e-09
8.69904568826e-11
4.91621506217e-10
4.00334474807e-10
1.77234979742e-09
2.8983954321e-09
1.4342633726e-09
1.61489037622e-10
1.39886437975e-09
4.07253755029e-09
3.90936187676e-09
1.01172190215e-08
3.51662590882e-09
1.45883250067e-08
6.08003792058e-09
1.88061365975e-09
1.4613153141e-08
7.41698438402e-08
1.55203462849e-08
4.41084823013e-08
4.64661077697e-08
1.62333740166e-08
4.90844672532e-09
1.62945935891e-08
5.82068297212e-08
5.52357410087e-08
2.3490182637e-08
8.56727677608e-08
8.60570187426e-08
2.66595349804e-09
2.81173110392e-08
3.96570540152e-08
3.99004581182e-08
8.40471038789e-09
2.80241486376e-08
1.27854638647e-08
1.79984976609e-08
5.56944518728e-08
5.32098796969e-09
2.4591765658e-09
1.21575865369e-07
1.56299410318e-07
1.67891468719e-07
1.85796032568e-08
3.25286351905e-08
2.89815910006e-08
2.80357059071e-08
6.77101371083e-08
2.4877339957e-07
1.32769318359e-07
8.51262997134e-08
6.36478648262e-08
2.53015177148e-08
5.08366259575e-08
3.30972484729e-08
7.91868746887e-08
6.11674982965e-08
6.95945040651e-08
1.58491156878e-07
8.26815925527e-08
9.8539797778e-08
1.02968436997e-07
9.90311501013e-08
9.50749221782e-09
5.83198090526e-09
6.69295058703e-10
1.12967824589e-08
5.55356525937e-08
7.11405941437e-08
3.97659531664e-08
1.68012426726e-09
2.70218283559e-09
6.82915289887e-08
5.78997929569e-08
7.33908685895e-08
1.17151861404e-08
1.72840034569e-08
1.52435303851e-08
6.31102127207e-09
5.66900908594e-09
2.57265418087e-09
2.64784573003e-09
4.78181019878e-09
3.62857971221e-09
1.106030661e-09
4.56388436633e-10
5.21846252486e-10
6.3533263611e-11
2.19813398059e-09
2.79887118237e-09
6.27594692685e-09
7.51100396328e-09
1.08986044295e-08
1.36789782986e-09
7.4522089356e-09
2.63362057883e-09
6.75057938613e-09
5.16858699096e-09
4.45677697681e-09
2.1100661816e-09
2.76590810058e-09
1.11400611897e-09
6.59143700701e-10
4.72183149784e-09
3.60727152484e-09
4.20015269408e-10
4.71645543347e-09
2.8109577939e-09
5.03105156474e-09
3.4842865762e-09
8.85852892858e-10
3.15588940572e-09
2.12408884856e-09
4.2698049082e-10
1.5953535981e-09
3.60085771344e-09
2.90852390806e-09
2.19129865267e-09
5.34138839323e-10
9.60328523345e-10
8.016145028e-09
5.01100285665e-08
5.89092949903e-08
5.23901424517e-08
1.14457110391e-08
1.87235495563e-08
3.42415209317e-09
8.73921098965e-09
6.84772953935e-08
4.77508341732e-08
5.42734652759e-08
5.20545125038e-09
3.31831538046e-08
7.90883483406e-08
4.07041865777e-08
3.21658792623e-08
1.03348650142e-07
3.69537199624e-08
4.06656240857e-08
8.4889427944e-10
2.99509197917e-08
5.9234642887e-08
3.82100919907e-08
7.21702583886e-08
5.69852425788e-08
1.07595938785e-07
1.92688547907e-07
1.04101233041e-07
8.08879985854e-08
6.65448419307e-08
6.88265856548e-08
1.09842962932e-09
1.15814619649e-09
3.53059048685e-10
8.4920740016e-11
1.10379094007e-10
2.98678224971e-10
4.54907880707e-10
8.13955358194e-10
2.36326844176e-10
1.19533684121e-10
6.78765042841e-10
3.07034839801e-10
8.13648501135e-10
2.00390181648e-09
2.12945509818e-09
1.02453464012e-09
1.20919222284e-09
8.13924068286e-10
9.29698008083e-11
1.05047001362e-09
2.46263561323e-09
1.87672917547e-09
5.88429502868e-10
8.95835148365e-10
7.01545681356e-10
1.92585215359e-09
2.56737901069e-09
1.79000299966e-09
1.09216065351e-09
2.39403301577e-10
2.22972682977e-10
2.31770783901e-09
1.62458632017e-09
9.55745251449e-10
7.51726920085e-10
1.62192578382e-09
9.54754980517e-10
2.40543436586e-10
4.76605327188e-10
3.38153667883e-09
2.85629815991e-09
3.39367146109e-09
6.86780251694e-10
3.47808947378e-09
5.4902651209e-09
1.9704700223e-09
1.2704532304e-09
4.86299081875e-10
7.47968249911e-09
4.76554584894e-09
1.18252055404e-09
6.94162840676e-09
1.0433298811e-08
7.57970863282e-09
6.41989551139e-09
9.64820528118e-10
4.86163231382e-09
1.2644408125e-08
1.08292154844e-08
3.45582335224e-09
2.40885125799e-09
3.446690963e-09
3.28801772036e-09
2.84460566214e-09
5.1387559315e-10
5.67384045613e-11
1.94945060151e-09
8.76518481163e-10
3.26532675199e-10
8.5325671744e-11
8.39110309612e-11
3.03165914258e-11
1.08227268714e-09
1.329705315e-09
9.12732787865e-10
6.09556001779e-10
5.09822939623e-10
1.33393799263e-09
3.74026849564e-10
2.02015398313e-10
2.33819468114e-10
2.04324859424e-09
7.10373661282e-10
4.54323719332e-10
4.73236803575e-10
1.34946177352e-10
4.42855601043e-10
4.51641396127e-10
3.15638765372e-10
5.33626536186e-10
4.96536407733e-10
7.1604836405e-10
1.60953389096e-09
3.8182339905e-10
4.60108032676e-10
1.19827097491e-09
4.94966905922e-10
7.11188493325e-10
1.19722062307e-09
1.07584806095e-09
1.75216802847e-10
1.26948504114e-10
2.54347320041e-09
4.15937389643e-09
6.45493477133e-09
4.32487172856e-09
9.61734168989e-10
1.24404455957e-08
1.78692867003e-09
7.4652607946e-09
1.09351085987e-09
3.83302934489e-09
4.89208337923e-09
9.65650553016e-09
4.2568982648e-09
2.75891726838e-09
3.21309703471e-09
5.5467680527e-09
6.6712479342e-10
2.42194040447e-09
3.88949108879e-08
2.29325048346e-08
3.81403276364e-08
1.47461483062e-08
1.18372737326e-09
4.89091203176e-09
3.75906674802e-09
5.66274554517e-09
8.56674201414e-10
8.26463835707e-10
2.13509154287e-09
2.82824704859e-09
7.01460404023e-09
3.34938268466e-10
6.4684764657e-09
6.62763526874e-10
6.71637034255e-09
1.26745039866e-08
1.65059971096e-10
1.03588353232e-09
2.29680647146e-09
6.75524659564e-09
4.40162251453e-09
7.71847231451e-09
5.72722267811e-09
1.70926786779e-09
2.59506367292e-09
6.17144465915e-10
1.21567604294e-10
7.52519532915e-10
7.32703064122e-11
5.47337442474e-11
3.00228435896e-11
3.5603478284e-10
3.78237841675e-10
5.42017647693e-10
1.20186224834e-09
3.62891150606e-09
6.14219160432e-10
1.81100082176e-09
1.17835878104e-09
1.05069117159e-09
5.51217337618e-10
5.0120909749e-10
5.35874330442e-10
1.17725486535e-10
3.49599558933e-10
2.48510846758e-10
4.0796700442e-10
5.52466261773e-10
5.0102830547e-11
9.35350821695e-10
5.93212647049e-10
1.37545487179e-10
3.16353959164e-08
3.0054523734e-08
1.66731817828e-08
1.22262904522e-09
1.52618556181e-09
5.64401536615e-10
6.24029466887e-10
3.12339325692e-10
5.80539891417e-10
3.71070909211e-10
4.35806548057e-10
1.96894700249e-09
1.5049396191e-09
2.5628136473e-10
6.45077771269e-10
4.5870643698e-10
4.78551681657e-10
1.0303270748e-09
1.8992591622e-09
2.19185711058e-09
2.45956403089e-09
7.29675476015e-10
5.64376307947e-10
7.11063956946e-10
2.51335901825e-10
3.02614753466e-10
3.89443706607e-09
1.21633036254e-09
2.12522268269e-10
1.42700095453e-09
1.29130322176e-10
3.25010930686e-10
1.75063258227e-09
8.81167891217e-10
4.35403644487e-09
1.27455824227e-09
3.04145082632e-09
9.62400804533e-10
6.84043410921e-11
6.62649303139e-10
6.48771514557e-10
6.47800507321e-11
8.64206506207e-10
2.46007687054e-09
2.13670394535e-09
8.79003861702e-10
1.20596265386e-09
2.76262356735e-09
2.38227801346e-09
3.16397918101e-10
5.54088066827e-10
1.18514112153e-09
1.55299953388e-10
2.22813274847e-10
9.60417421813e-10
1.1216230783e-09
2.01516166996e-10
9.25114762029e-10
4.02329844324e-10
4.95648586789e-10
1.6440032275e-09
8.89357256673e-10
1.36408800013e-10
7.66376499607e-10
1.90105984425e-09
4.34295704357e-10
5.8153961522e-10
1.29328293045e-09
5.31223637982e-10
2.22860600955e-10
3.98356495294e-10
6.67696729841e-10
2.30435352896e-10
1.51270436002e-10
2.32638240829e-09
1.4036075403e-09
1.52822452722e-09
2.18976193589e-09
9.34736985516e-10
1.16796988828e-09
4.88078634413e-10
2.13488547084e-09
1.76239354272e-10
1.69845958679e-08
8.41642514851e-09
2.04909999135e-08
8.21239454684e-09
1.46598613382e-08
8.38009557752e-09
5.16314825573e-09
1.64495080971e-09
4.98377150262e-10
5.5714701513e-10
1.49279855381e-09
4.77092148034e-10
5.73635034909e-09
3.0633262438e-08
2.25259329152e-08
2.46965858876e-08
9.91178111116e-09
9.8371738569e-09
3.3883170617e-10
3.07964765386e-09
1.51060069169e-09
2.06173161063e-08
4.73853121738e-08
7.40911526517e-08
2.75439939364e-08
2.14536039684e-08
2.54801721101e-08
4.84502968551e-09
2.07356012899e-08
9.94014995091e-09
1.07232615798e-08
1.87737086051e-09
8.81176074473e-09
6.45062194942e-09
3.34965049997e-09
1.53605579975e-08
2.72440627906e-08
2.13890753516e-08
5.48185071851e-09
2.08839237358e-08
2.02050647625e-08
1.77060089337e-09
1.70255996029e-08
1.94434824014e-08
2.96418682531e-08
2.81175395843e-08
4.78901546135e-08
1.783956866e-09
1.32505446968e-09
1.82971410655e-09
3.79459252813e-09
1.60776607262e-09
1.90479691983e-09
4.01638792654e-09
2.58714043368e-09
1.86461991318e-09
2.37928841991e-09
1.20642333742e-09
1.93977964743e-09
1.02985968296e-09
3.00354753679e-10
2.85986753275e-09
2.63179322913e-09
1.73695895036e-09
1.84652276318e-09
7.32734235622e-10
1.19625877643e-09
6.02075969845e-10
1.05982741023e-09
8.95420781959e-10
3.62990524997e-10
1.6254972187e-09
1.41073454708e-09
1.29429037218e-10
1.36481405248e-10
4.66427716634e-10
5.12951232816e-10
5.20799188556e-10
1.92200693381e-09
1.26619985301e-09
1.19375251456e-09
8.17145236363e-10
6.35046254862e-10
1.97472932001e-09
1.36534182999e-09
2.0167508568e-10
4.34561120083e-10
2.74908495259e-10
7.56762333791e-10
7.50366652545e-11
5.32686038062e-10
1.06753331871e-11
1.29302030774e-10
2.70732984338e-10
1.14936121852e-10
4.5335385633e-10
8.50728673388e-10
9.86786510248e-10
9.18405129657e-10
3.22667861185e-10
1.7982324518e-10
3.4217671415e-10
3.98301131116e-10
5.12003565035e-10
4.85453333879e-10
9.75959664593e-10
6.60922720338e-10
3.84269753603e-10
7.18155235358e-10
3.12402195182e-09
2.04604436862e-09
8.51735580318e-10
6.21548814295e-10
4.24568982995e-10
1.57020415216e-09
1.2487869615e-09
2.41865768356e-10
3.33460935968e-11
7.55302142197e-10
1.05765918599e-10
2.24935717805e-10
1.85204979532e-10
1.76498005879e-10
3.04558539843e-10
1.59892524971e-10
6.68517080255e-10
5.96892027907e-11
2.41903306587e-10
9.83903790354e-10
1.62934770749e-09
9.59996205157e-10
1.19474744864e-08
1.18370243422e-08
1.99958081161e-09
1.32171380116e-10
1.87432232146e-08
2.13058496094e-08
2.51424733092e-08
2.6865136524e-09
4.33049839862e-09
8.35147778897e-10
4.50274417295e-09
3.37193956754e-09
2.11953770719e-09
3.44967012129e-09
3.55300542454e-10
3.38705762254e-10
4.12769777677e-11
1.09496763006e-10
9.68393405113e-10
2.7946522704e-10
9.71787599014e-10
1.10538602901e-09
8.60413639191e-10
1.0829125628e-09
3.47285577015e-11
1.06053877738e-09
1.51038327959e-09
1.58362091162e-09
1.38519379018e-09
4.91917180206e-09
4.33157805644e-09
4.68082356524e-09
1.1283415536e-09
6.34327614273e-11
2.38601029108e-10
3.87309276636e-10
1.21639329223e-09
9.19703890314e-10
1.34943919088e-09
8.623756583e-12
2.27335968894e-10
9.59277349539e-11
7.4157267302e-10
2.1726174023e-09
1.94966011185e-09
3.20129851862e-09
4.17385953437e-10
2.17909790736e-10
9.4800698343e-12
5.75156437046e-10
1.70611327441e-09
2.04799660367e-09
8.08250664134e-10
2.54432531868e-09
7.97541419606e-09
6.92850511563e-09
1.90130608159e-10
1.97479220892e-09
1.80121944293e-09
1.90882017417e-10
1.1888081637e-10
5.24755355637e-10
3.01786706953e-09
1.95785209051e-09
2.14728035609e-09
2.27267974811e-09
4.01827524256e-09
1.36450085016e-09
1.24951080575e-08
1.00046316127e-08
1.68294597253e-08
8.34761938917e-10
1.13489593964e-08
1.03129553217e-08
3.30904990897e-09
2.93674194144e-09
1.1033196509e-09
5.34405141795e-10
1.63183924491e-09