# vtk DataFile Version 3.0
File Name: Molecule/arg/arg_13.5-2.vtk
ASCII
DATASET UNSTRUCTURED_GRID
FIELD FieldData 1
TIME 1 1 double
0.0
POINTS 2491 double
-3.403 0.327 1.604
-3.452 0.202 1.348
-3.215 0.119 1.662
-3.262 -0.0 1.417
-3.073 -0.113 1.748
-3.12 -0.233 1.503
-2.981 -0.361 1.858
-3.03 -0.485 1.602
-3.45 0.103 1.078
-3.261 -0.095 1.158
-3.118 -0.328 1.244
-3.028 -0.584 1.332
-3.398 0.034 0.803
-3.211 -0.162 0.894
-3.068 -0.394 0.98
-2.976 -0.654 1.057
-3.298 -0.003 0.536
-3.114 -0.197 0.638
-2.972 -0.43 0.724
-2.876 -0.691 0.79
-3.153 -0.007 0.286
-2.976 -0.201 0.399
-2.833 -0.433 0.485
-2.731 -0.694 0.541
-2.971 0.024 0.066
-2.801 -0.171 0.187
-2.658 -0.404 0.273
-2.549 -0.664 0.32
-2.984 0.046 0.042
-2.75 -0.004 -0.09
-2.763 0.017 -0.113
-2.556 -0.072 -0.268
-2.569 -0.051 -0.29
-2.396 -0.177 -0.461
-2.409 -0.155 -0.484
-2.276 -0.316 -0.661
-2.29 -0.293 -0.686
-2.2 -0.483 -0.862
-2.216 -0.458 -0.889
-3.158 0.288 -0.115
-2.796 0.071 -0.172
-2.948 0.283 -0.31
-2.637 0.05 -0.409
-2.775 0.243 -0.534
-2.512 -0.016 -0.658
-2.645 0.17 -0.779
-2.429 -0.124 -0.909
-2.565 0.066 -1.033
-2.39 -0.269 -1.153
-2.537 -0.063 -1.287
-3.25 0.578 -0.258
-3.029 0.537 -0.435
-2.849 0.475 -0.648
-2.717 0.393 -0.888
-2.638 0.295 -1.145
-2.617 0.185 -1.409
-3.255 0.893 -0.375
-3.034 0.813 -0.538
-2.853 0.726 -0.742
-2.721 0.635 -0.979
-2.642 0.542 -1.238
-2.621 0.454 -1.509
-3.173 1.207 -0.458
-2.961 1.09 -0.611
-2.787 0.978 -0.808
-2.657 0.877 -1.042
-2.577 0.79 -1.303
-2.55 0.723 -1.58
-3.008 1.498 -0.5
-2.817 1.344 -0.647
-2.656 1.21 -0.842
-2.531 1.1 -1.074
-2.448 1.019 -1.336
-2.41 0.97 -1.615
-2.776 1.74 -0.497
-2.613 1.557 -0.645
-2.47 1.404 -0.839
-2.352 1.286 -1.072
-2.264 1.21 -1.334
-2.211 1.177 -1.613
-2.622 1.932 -0.429
-2.565 1.626 -0.624
-2.419 1.808 -0.56
-2.373 1.536 -0.795
-2.23 1.716 -0.731
-2.208 1.473 -1.002
-2.061 1.658 -0.936
-2.076 1.44 -1.237
-1.919 1.637 -1.168
-1.982 1.439 -1.492
-1.81 1.654 -1.416
-2.663 2.202 -0.218
-2.323 2.018 -0.459
-2.36 2.267 -0.264
-2.046 2.135 -0.548
-2.083 2.377 -0.358
-1.806 2.278 -0.69
-1.844 2.526 -0.495
-1.615 2.438 -0.879
-1.656 2.708 -0.668
-2.655 2.421 0.048
-2.352 2.47 -0.019
-2.075 2.574 -0.12
-1.836 2.729 -0.25
-1.647 2.927 -0.402
-2.597 2.577 0.351
-2.3 2.613 0.261
-2.024 2.713 0.152
-1.783 2.872 0.03
-1.59 3.083 -0.1
-2.495 2.657 0.67
-2.205 2.687 0.555
-1.932 2.785 0.438
-1.689 2.947 0.324
-1.488 3.163 0.22
-2.727 2.643 0.859
-2.31 2.73 0.924
-2.521 2.716 1.096
-2.137 2.872 1.156
-2.339 2.859 1.321
-1.986 3.077 1.354
-2.192 3.064 1.522
-1.863 3.333 1.507
-2.087 3.319 1.689
-2.925 2.572 1.071
-2.701 2.653 1.288
-2.512 2.798 1.506
-2.369 3.001 1.711
-2.279 3.251 1.894
-3.081 2.451 1.295
-2.843 2.542 1.492
-2.648 2.692 1.701
-2.508 2.893 1.911
-2.43 3.133 2.111
-3.186 2.284 1.521
-2.937 2.39 1.697
-2.739 2.546 1.897
-2.601 2.744 2.112
-2.53 2.972 2.328
-3.324 2.06 1.667
-2.975 2.319 1.779
-3.111 2.099 1.924
-2.815 2.412 2.059
-2.958 2.183 2.21
-2.717 2.558 2.345
-2.872 2.307 2.509
-3.419 1.801 1.788
-3.205 1.843 2.043
-3.055 1.917 2.334
-2.979 2.017 2.644
-3.531 1.499 1.816
-3.277 1.754 2.004
-3.38 1.477 2.029
-3.171 1.729 2.243
-3.269 1.465 2.268
-3.106 1.727 2.498
-3.203 1.466 2.522
-3.084 1.749 2.759
-3.185 1.478 2.784
-3.107 1.793 3.017
-3.215 1.501 3.044
-3.567 1.179 1.827
-3.413 1.182 2.04
-3.3 1.185 2.277
-3.235 1.188 2.532
-3.217 1.19 2.794
-3.25 1.192 3.055
-3.525 0.859 1.821
-3.374 0.888 2.034
-3.264 0.905 2.272
-3.198 0.91 2.527
-3.18 0.902 2.789
-3.209 0.883 3.049
-3.408 0.559 1.798
-3.266 0.612 2.013
-3.161 0.643 2.252
-3.096 0.65 2.507
-3.074 0.633 2.768
-3.095 0.593 3.027
-3.105 0.348 2.085
-3.1 0.088 1.867
-2.97 0.105 2.152
-3.031 0.459 2.387
-2.908 0.238 2.449
-3.027 0.542 2.707
-2.911 0.332 2.766
-2.978 0.383 3.085
-2.865 -0.346 2.113
-2.719 -0.541 2.278
-2.797 -0.13 2.332
-2.664 -0.308 2.482
-2.794 0.071 2.575
-2.666 -0.1 2.72
-2.855 0.244 2.83
-2.724 0.07 2.978
-2.837 0.195 3.245
-2.52 -0.7 2.425
-2.482 -0.453 2.616
-2.491 -0.24 2.849
-2.546 -0.073 3.11
-2.645 0.041 3.387
-2.502 -0.946 2.296
-2.309 -0.792 2.616
-2.292 -1.028 2.493
-2.148 -0.9 2.844
-2.131 -1.136 2.72
-2.044 -1.018 3.098
-2.027 -1.266 2.968
-2.003 -1.142 3.367
-1.984 -1.412 3.226
-2.44 -1.171 2.145
-2.233 -1.243 2.347
-2.072 -1.352 2.575
-1.964 -1.493 2.815
-1.915 -1.659 3.059
-2.335 -1.366 1.976
-2.132 -1.43 2.186
-1.971 -1.539 2.413
-1.858 -1.689 2.646
-1.8 -1.873 2.874
-2.192 -1.524 1.797
-1.995 -1.581 2.015
-1.833 -1.691 2.241
-1.714 -1.848 2.466
-1.642 -2.046 2.678
-2.015 -1.638 1.615
-1.826 -1.69 1.841
-1.664 -1.801 2.066
-1.536 -1.964 2.282
-1.449 -2.172 2.478
-1.813 -1.704 1.437
-1.632 -1.754 1.669
-1.469 -1.865 1.895
-1.332 -2.031 2.102
-1.226 -2.245 2.282
-1.592 -1.721 1.268
-1.42 -1.77 1.508
-1.257 -1.88 1.733
-1.109 -2.047 1.932
-0.984 -2.263 2.097
-1.82 -1.681 1.103
-1.41 -1.742 0.999
-1.625 -1.705 0.842
-1.237 -1.838 0.739
-1.452 -1.801 0.583
-1.085 -2.004 0.503
-1.311 -1.964 0.338
-0.96 -2.23 0.303
-1.211 -2.186 0.121
-2.026 -1.588 0.931
-1.819 -1.616 0.68
-1.646 -1.713 0.421
-1.517 -1.871 0.167
-1.437 -2.084 -0.068
-2.203 -1.444 0.759
-1.986 -1.481 0.518
-1.813 -1.578 0.259
-1.692 -1.729 -0.004
-1.631 -1.926 -0.256
-2.342 -1.257 0.596
-2.117 -1.305 0.364
-1.944 -1.402 0.106
-1.83 -1.543 -0.166
-1.784 -1.721 -0.435
-2.438 -1.034 0.448
-2.208 -1.094 0.224
-2.034 -1.191 -0.034
-1.926 -1.321 -0.313
-1.889 -1.476 -0.598
-2.487 -0.785 0.321
-2.254 -0.858 0.104
-2.08 -0.956 -0.154
-1.974 -1.073 -0.44
-1.943 -1.202 -0.738
-2.311 -0.692 0.068
-2.37 -0.577 0.067
-2.189 -0.632 -0.224
-2.248 -0.516 -0.225
-2.128 -0.607 -0.539
-2.191 -0.484 -0.54
-2.131 -0.618 -0.861
-2.114 -0.682 -1.181
-2.003 -0.9 -0.803
-1.987 -0.962 -1.114
-1.927 -1.264 -1.052
-2.312 -0.441 -1.376
-2.242 -0.501 -1.651
-2.116 -0.68 -1.269
-2.044 -0.743 -1.552
-1.985 -0.96 -1.159
-1.906 -1.028 -1.469
-1.837 -1.343 -1.406
-2.121 -0.506 -1.916
-1.92 -0.747 -1.824
-1.77 -1.033 -1.766
-1.682 -1.348 -1.746
-2.018 -0.367 -2.203
-1.864 -0.768 -1.888
-1.729 -0.586 -2.265
-1.939 -0.122 -2.418
-1.625 -0.265 -2.547
-1.897 0.192 -2.527
-1.57 0.147 -2.691
-1.956 0.421 -2.508
-1.62 0.271 -2.677
-1.681 0.509 -2.657
-1.383 0.337 -2.889
-1.45 0.6 -2.867
-1.198 0.386 -3.152
-1.276 0.687 -3.126
-1.996 0.646 -2.441
-1.722 0.743 -2.587
-1.496 0.856 -2.79
-1.328 0.981 -3.039
-2.015 0.855 -2.33
-1.742 0.96 -2.472
-1.517 1.096 -2.663
-1.352 1.255 -2.893
-2.011 1.039 -2.18
-1.739 1.151 -2.316
-1.514 1.306 -2.491
-1.348 1.496 -2.696
-2.106 1.164 -1.908
-1.72 1.257 -2.235
-1.844 1.421 -1.879
-1.668 1.465 -2.085
-1.505 1.361 -2.45
-1.453 1.565 -2.303
-1.296 1.704 -2.546
-1.587 1.653 -1.922
-1.374 1.749 -2.143
-1.215 1.892 -2.383
-1.479 1.817 -1.75
-1.268 1.91 -1.974
-1.107 2.057 -2.211
-1.379 2.028 -1.517
-1.683 1.878 -1.211
-1.325 2.288 -1.323
-1.617 2.145 -1.029
-1.319 2.584 -1.178
-1.091 2.821 -1.245
-1.192 2.409 -1.391
-0.972 2.637 -1.456
-1.111 2.259 -1.642
-0.89 2.489 -1.707
-1.083 2.139 -1.92
-0.849 2.382 -1.989
-0.852 2.322 -2.287
-0.816 3.013 -1.267
-0.707 2.822 -1.477
-0.623 2.675 -1.729
-0.568 2.578 -2.012
-0.543 2.537 -2.312
-0.463 3.323 -1.084
-0.576 2.949 -1.44
-0.315 3.179 -1.304
-0.367 2.923 -1.657
-0.177 3.089 -1.559
-0.198 2.935 -1.908
-0.057 3.059 -1.834
-0.077 2.986 -2.18
0.041 3.09 -2.119
-0.01 3.073 -2.462
0.111 3.18 -2.399
-0.0 3.192 -2.74
0.151 3.324 -2.662
-0.048 3.337 -3.001
0.158 3.517 -2.895
0.018 3.374 -0.943
0.042 3.216 -1.2
0.081 3.117 -1.483
0.136 3.08 -1.778
0.202 3.107 -2.072
0.276 3.197 -2.351
0.356 3.346 -2.601
0.438 3.547 -2.812
0.466 3.148 -0.891
0.373 3.049 -1.162
0.322 2.995 -1.455
0.315 2.989 -1.757
0.352 3.031 -2.055
0.43 3.12 -2.333
0.548 3.25 -2.579
0.699 3.415 -2.782
0.725 3.006 -0.709
0.525 2.952 -1.115
0.774 2.816 -0.939
0.619 2.806 -1.364
0.87 2.668 -1.187
0.743 2.717 -1.627
1.008 2.572 -1.44
0.892 2.689 -1.891
1.182 2.53 -1.686
0.926 2.805 -0.509
0.968 2.622 -0.748
1.065 2.473 -0.994
1.214 2.366 -1.236
1.407 2.305 -1.463
1.057 2.557 -0.305
1.094 2.383 -0.551
1.192 2.232 -0.796
1.348 2.112 -1.027
1.553 2.026 -1.234
1.04 2.677 -0.058
1.165 2.316 -0.174
1.149 2.431 0.062
1.328 2.1 -0.057
1.312 2.215 0.179
1.539 1.918 0.039
1.523 2.038 0.286
0.979 2.767 0.195
1.091 2.517 0.304
1.254 2.301 0.421
1.462 2.128 0.539
0.877 2.824 0.444
0.993 2.571 0.542
1.156 2.355 0.659
1.36 2.185 0.788
0.737 2.845 0.68
0.859 2.592 0.768
1.023 2.375 0.884
1.22 2.206 1.024
0.406 3.093 0.833
0.703 2.695 0.902
0.398 2.923 1.043
0.71 2.572 1.142
0.419 2.789 1.277
0.756 2.48 1.392
0.466 2.698 1.526
0.841 2.425 1.643
0.539 2.651 1.783
0.961 2.407 1.884
0.634 2.652 2.036
1.112 2.426 2.108
0.748 2.699 2.276
0.2 3.324 0.732
0.235 3.06 1.055
0.049 3.27 0.963
0.102 3.062 1.303
-0.074 3.26 1.216
0.01 3.098 1.567
-0.164 3.294 1.481
-0.036 3.167 1.836
-0.218 3.371 1.746
-0.034 3.266 2.099
-0.232 3.489 2.002
-0.057 3.491 0.624
-0.185 3.421 0.865
-0.295 3.402 1.124
-0.383 3.436 1.389
-0.446 3.519 1.65
-0.481 3.65 1.897
-0.35 3.583 0.516
-0.45 3.505 0.768
-0.545 3.481 1.032
-0.632 3.514 1.298
-0.705 3.601 1.555
-0.764 3.739 1.794
-0.659 3.595 0.416
-0.731 3.515 0.677
-0.81 3.491 0.946
-0.894 3.523 1.213
-0.979 3.611 1.466
-1.063 3.75 1.697
-0.965 3.525 0.33
-1.008 3.452 0.598
-1.072 3.431 0.872
-1.154 3.464 1.139
-1.25 3.549 1.39
-1.358 3.682 1.613
-1.247 3.378 0.263
-1.264 3.318 0.538
-1.313 3.305 0.815
-1.393 3.339 1.082
-1.5 3.418 1.331
-1.631 3.54 1.549
-1.482 3.124 0.498
-1.519 3.122 0.778
-1.598 3.157 1.046
-1.714 3.228 1.292
-0.032 3.368 2.384
0.177 3.023 2.187
0.179 3.124 2.469
0.443 2.83 2.247
0.444 2.936 2.542
0.75 2.815 2.6
-0.08 3.426 2.677
0.131 3.181 2.758
0.395 2.996 2.845
0.695 2.881 2.933
-0.175 3.437 2.964
0.038 3.192 3.042
0.296 3.007 3.142
0.587 2.894 3.259
-0.313 3.4 3.231
-0.099 3.156 3.306
0.154 2.97 3.419
0.431 2.852 3.563
-0.486 3.318 3.465
-0.27 3.074 3.537
-0.025 2.884 3.661
0.234 2.758 3.828
-0.687 3.194 3.654
-0.468 2.951 3.724
-0.233 2.756 3.857
0.006 2.617 4.044
-0.948 3.187 3.74
-0.58 2.815 3.881
-0.883 2.808 3.981
-1.222 3.175 3.77
-1.2 2.794 4.016
-1.495 3.158 3.743
-1.517 2.774 3.984
[...]
CELL_DATA 4978
SCALARS cell_data_0 double
LOOKUP_TABLE default
7.34583622426e-08
1.27665016271e-07
1.59360104309e-07
1.77446223078e-07
1.80180524559e-07
1.73065228748e-07
1.0733732634e-07
1.43918509389e-07
1.61577208543e-07
1.87461564327e-07
1.82859678577e-07
2.00314516537e-07
1.22972790342e-07
1.6962424426e-07
1.99252421029e-07
2.33319875947e-07
2.23285990979e-07
2.37404208169e-07
1.48442240069e-07
1.99846442464e-07
2.45522177884e-07
2.70911666478e-07
2.64618814437e-07
2.73224574952e-07
2.29545670698e-07
2.94592657256e-07
2.96486859697e-07
3.30036574847e-07
3.1424829428e-07
3.30574867701e-07
2.72392894552e-07
3.38888720606e-07
3.89997059558e-07
4.6498223774e-07
4.1213313892e-07
4.21720128347e-07
2.82548472822e-08
4.97453683019e-08
5.9418789094e-08
7.23243305791e-08
7.78066820633e-08
9.12006695052e-08
9.32742290899e-08
1.13933286328e-07
1.15750404992e-07
1.07877416438e-07
3.31099717635e-07
3.78984138099e-07
5.19032696948e-07
4.68801056823e-07
5.71722642148e-07
5.52854747003e-07
5.75543143872e-07
5.84721825302e-07
5.4856282522e-07
5.50926484088e-07
2.6521119213e-07
2.61252011687e-07
3.52335208502e-07
3.54972935213e-07
4.52988923767e-07
4.6866465653e-07
5.37891358579e-07
5.56459000866e-07
5.3086670263e-07
5.10280636693e-07
1.72804934459e-07
1.84916222954e-07
2.75440296243e-07
2.98610201038e-07
3.85989391229e-07
4.25116970155e-07
4.86621946543e-07
5.16935157227e-07
4.88773550126e-07
5.17427366661e-07
6.74077696714e-08
7.16651322121e-08
1.9275910943e-07
2.32499391488e-07
3.54613122194e-07
3.81387199697e-07
4.53100619606e-07
5.17009173641e-07
5.35158256922e-07
5.88714028109e-07
3.89188650534e-08
8.22530388328e-08
1.28811918325e-07
1.50966829783e-07
2.45709187648e-07
2.73051421658e-07
4.45690876373e-07
4.8214236863e-07
5.45316207084e-07
5.79058229291e-07
1.11390050603e-07
8.39797508333e-08
6.22990746477e-08
2.06008467855e-07
2.91494621516e-07
4.50208658913e-07
4.35259895986e-07
5.91842206839e-07
6.15589547446e-07
7.48130594295e-07
3.35635850427e-08
9.13840047562e-08
7.91265147787e-09
1.24721833485e-07
1.24382905505e-07
1.11565820638e-07
3.54337916487e-07
3.78829724388e-07
7.02934296844e-07
7.76149675583e-07
4.06947571491e-06
7.07490229917e-06
5.06209015626e-06
4.1293887035e-06
4.87651296359e-06
3.25965958248e-06
1.08142443313e-06
7.12374142426e-08
7.23188978721e-06
5.56878500368e-06
5.19502603477e-06
3.82841864647e-06
1.71451029675e-06
6.81923554823e-07
3.41914624009e-07
6.52526755177e-07
5.05528657659e-06
4.33856166772e-06
4.03815947319e-06
2.45677518093e-06
1.21893931179e-06
5.55734191706e-07
4.35841844997e-07
7.20485466979e-07
2.0959143202e-06
1.52336861277e-06
2.34096051465e-06
1.70517377516e-06
1.09956895995e-06
8.58347695025e-07
6.01479565607e-07
4.7103135796e-07
5.83789371572e-07
7.9072699626e-07
6.25909945996e-07
6.63665889879e-07
9.35441064148e-07
1.00967160882e-06
7.98028772789e-07
8.64578806653e-07
1.1533766191e-06
6.22412108202e-07
5.08298931403e-07
6.04894479574e-07
8.54797229151e-07
1.12502525325e-06
1.25750990888e-06
1.52425462982e-06
8.18052018085e-07
4.23299108005e-07
4.85442410438e-07
5.6946769327e-07
9.65777960094e-07
1.13212474901e-06
1.40100719084e-06
1.45689242077e-06
4.95191564538e-07
7.29336762887e-07
8.66238094086e-07
1.22127097006e-06
1.07921257482e-06
1.63535437837e-06
1.58792047571e-06
1.27726614918e-06
1.20798679046e-06
1.29957469109e-06
1.393913673e-06
1.17438832883e-06
9.47944838737e-07
9.16805481032e-07
9.31310435406e-07
9.20772298666e-07
1.06275003059e-06
1.25744782748e-06
1.19935820335e-06
1.05088119989e-06
6.73807791608e-07
5.93273110777e-07
5.29898707701e-07
5.97280459765e-07
7.46203094149e-07
8.20133693767e-07
9.34653454e-07
1.057553542e-06
8.53146100975e-07
8.75944593903e-07
6.75351581477e-07
5.76815967908e-07
6.53845830512e-07
7.9662410969e-07
8.48173419229e-07
9.87998449246e-07
1.02575434128e-06
1.05701643351e-06
9.73662423035e-07
8.95470149988e-07
8.51961607728e-07
1.05433987683e-06
1.03449954417e-06
1.21132327586e-06
1.15264248181e-06
1.20555595725e-06
1.01441510019e-06
1.02973150681e-06
8.54149542338e-07
1.02738832209e-06
1.00252547635e-06
1.00549860423e-06
1.38201948379e-06
1.27718572171e-06
1.22244261993e-06
1.27928386282e-06
1.21413805343e-06
1.45819989096e-06
1.28564842151e-06
1.0613645173e-06
4.79747980408e-07
1.80760157523e-07
6.48582474881e-07
8.62559215153e-07
1.58941795781e-06
1.34106113359e-06
9.57752435342e-07
5.98826684654e-07
1.26085187181e-07
2.93734389058e-08
5.47035221058e-07
6.77489013196e-07
6.3503555481e-07
7.55475504499e-07
8.41557377917e-07
8.28576157043e-07
7.30744179284e-07
6.53265162888e-07
5.87369033882e-07
2.49197169862e-07
4.84754994182e-07
3.95776663647e-07
5.82528165052e-07
5.43015602511e-07
5.65636237535e-07
4.89289130146e-07
1.16276805088e-07
1.83325447237e-07
6.51069354315e-07
6.91783674332e-07
1.30399476251e-06
1.30689060447e-06
1.43163659104e-06
9.07211530427e-07
4.63753339035e-07
4.95583689923e-07
8.15870236078e-09
7.82008115958e-09
5.63737334894e-07
4.60253867725e-07
5.71644552529e-07
1.55327917682e-07
1.05173676249e-06
9.97998032992e-07
6.92561121394e-07
3.76393125106e-07
3.38511229825e-08
1.08385955112e-07
3.05925203453e-07
9.68812057256e-07
1.41132665742e-06
1.12790785384e-06
6.13317729349e-07
6.01866840733e-07
5.34669786019e-07
1.01543805883e-06
1.09894484809e-06
1.79235332444e-06
1.31017319479e-06
1.21215935462e-06
1.18977382397e-06
1.58765350551e-06
1.48464006416e-06
1.86303031999e-06
1.80805607205e-06
1.87917295983e-06
1.79804780164e-06
1.72332495252e-06
1.68762310165e-06
1.59038638806e-06
1.79200434999e-06
2.01883317476e-06
1.87478086169e-06
2.45485065385e-06
1.23863815471e-06
1.11365488265e-06
1.58611249434e-06
1.61939919132e-06
1.75775627917e-06
2.23534526998e-06
2.77337893883e-06
2.25236340174e-06
1.95302520371e-06
2.35532915801e-06
1.78671577656e-06
1.26112344592e-06
1.51712534334e-06
1.30721245406e-06
1.18140289874e-06
6.97190537951e-07
1.73933308386e-06
6.53658400214e-07
8.27523617751e-07
5.9281222931e-07
7.84578429003e-07
7.70598361182e-07
6.64064537021e-07
1.24143408994e-06
8.1391353094e-07
1.6349147295e-06
1.26698530265e-06
2.24302856099e-06
1.3578037672e-06
2.17687522676e-06
1.93589228367e-06
1.92927395355e-06
2.28377512706e-06
2.14044443516e-06
2.78208588773e-06
2.75180267199e-06
3.10482340795e-06
3.75758084289e-06
2.32369054428e-06
1.32431585114e-06
1.42351340996e-06
9.82322275916e-07
1.75420927377e-06
1.37623574702e-06
2.74270618578e-06
1.74656709084e-06
1.25407650081e-06
6.85077065391e-07
8.10526628729e-07
7.18766617361e-07
6.55960436888e-07
1.04428218341e-06
9.45712338306e-07
8.92741106367e-07
8.69153406096e-07
1.22991822199e-06
4.92528120586e-07
1.12043466119e-06
1.65048377128e-06
3.32829145042e-06
3.46703806828e-06
6.04730059456e-06
3.10027835468e-06
1.15084881387e-06
2.55716748269e-07
1.63795729113e-07
1.04105740882e-07
4.15401062825e-08
8.1826364047e-07
6.8150017105e-07
2.42116488714e-07
8.80874700432e-07
7.44794076164e-07
2.96500934629e-06
1.68477175152e-06
6.92489783803e-06
6.79998081543e-07
3.01744510124e-07
2.24778438417e-06
1.98432734134e-06
7.40747229071e-06
4.77518279277e-06
1.82171354855e-07
1.18930906642e-06
1.66319655038e-06
3.20786713616e-06
1.96340423318e-06
7.33571876133e-07
1.33668896778e-06
1.33141222729e-06
4.9715516225e-06
2.44601976472e-06
2.07008253637e-06
3.18573323952e-08
1.97102193264e-07
7.10886293334e-07
4.06837206603e-07
7.81173230517e-07
4.41627683422e-07
1.75076819651e-06
1.5366710661e-06
8.32176700626e-07
5.10454156508e-07
9.73020877457e-08
9.09386624811e-07
6.44593326012e-07
1.35958304161e-07
3.12421741007e-07
1.74753617766e-07
1.25930927432e-07
3.77564693262e-08
3.73308728186e-07
9.04350169351e-07
9.26733429181e-07
5.59801543548e-07
1.21738620139e-06
6.33276015659e-07
8.3757834889e-08
6.21704027404e-07
8.36866554423e-07
2.00165341973e-07
6.23321660126e-07
6.95808347709e-07
7.24192684252e-07
7.42140853642e-07
8.55163391133e-07
7.98380635526e-07
9.2328637506e-07
1.37889707388e-06
9.67132040497e-07
7.57759357652e-07
6.03575329674e-07
6.0126225307e-07
6.64896119218e-07
4.07890927176e-07
4.32461357803e-07
5.7694834819e-07
6.41373476723e-07
7.58228416479e-07
8.74472919056e-07
1.06003234185e-06
1.22889502044e-06
4.34078155227e-07
6.04912458912e-07
5.65477033815e-07
7.12525563853e-07
7.70540479929e-07
9.88944771789e-07
1.08477270083e-06
1.83835992892e-06
5.263618207e-07
3.16790078431e-07
5.52786188035e-07
4.03813171281e-07
5.41092897187e-07
4.09246297273e-07
4.80329620523e-07
5.71549575326e-07
6.24309956481e-07
8.23702621408e-07
7.33564565335e-07
1.04596912564e-06
9.20546067685e-07
1.29731526423e-06
2.80910254446e-07
3.87386166787e-07
3.84416819966e-07
4.23136281291e-07
4.20025874645e-07
4.09988874179e-07
5.68560266242e-07
5.92338579447e-07
7.17053503083e-07
7.04662538359e-07
7.06898843087e-07
8.37996837598e-07
9.03001223012e-07
1.43822562063e-06
6.40007186881e-07
6.80881727721e-07
6.47698677111e-07
5.4682178334e-07
5.4531973198e-07
4.91516232824e-07
5.11933181889e-07
4.7406238014e-07
4.94342066803e-07
5.97102994901e-07
6.34266164598e-07
9.79768227954e-07
1.04815678188e-06
1.65400494644e-06
6.64836905527e-07
6.87393615904e-07
7.81312380045e-07
8.95996041888e-07
1.01097832543e-06
1.210095349e-06
1.64997884791e-06
1.77380277851e-06
5.78700798059e-07
6.53742915739e-07
7.88295893535e-07
8.92342370487e-07
1.02328164314e-06
1.17202316815e-06
1.19417068029e-06
1.33816329851e-06
7.23732069614e-07
8.17765467289e-07
7.0964895456e-07
8.152044547e-07
9.53309547803e-07
1.08429945261e-06
1.1629452111e-06
1.71517366352e-06
5.53942612803e-07
4.12990667029e-07
4.46129265148e-07
4.02282637977e-07
4.06996861495e-07
3.47301502854e-07
3.52352912723e-07
3.46257895686e-07
3.49289868468e-07
3.93847401714e-07
3.60838838028e-07
3.63051587181e-07
3.25884341089e-07
3.4310833346e-07
3.94228432881e-07
4.13318573389e-07
3.89502609388e-07
3.27985578451e-07
2.15369196627e-07
1.85315305057e-07
2.91470878637e-07
2.42901765279e-07
2.69341105769e-07
2.13345123894e-07
1.54684107928e-07
1.11157569356e-07
1.00472130366e-07
4.57448740022e-09
1.33118359006e-07
7.5123578651e-08
3.21561316937e-07
3.29374652675e-07
3.08284112824e-07
3.26587552205e-07
3.86604908157e-07
3.05979274399e-07
2.94046401887e-07
9.89194520456e-08
2.07967359675e-07
1.97296100572e-07
1.75419710525e-07
1.22390196334e-07
1.14101860939e-07
9.69527513401e-08
7.53577060966e-08
9.84954993449e-08
1.86580905592e-07
1.43690770122e-07
1.37090133663e-07
8.16889584917e-08
8.91770086116e-08
1.17326381976e-07
1.28808637329e-07
1.43804777308e-07
1.25034918793e-07
1.51138378797e-07
1.72487905091e-07
1.89523611917e-07
1.08297307543e-07
1.80180192151e-07
1.82766193352e-07
2.63924714048e-07
1.96274880815e-07
2.05609645467e-07
1.65648851408e-07
2.08650406611e-07
3.2181629952e-07
3.2804358802e-07
3.19988701495e-07
3.20236252208e-07
2.8733655845e-07
2.85450961554e-07
2.69448480654e-07
2.64402138954e-07
2.3386925561e-07
2.12816460754e-07
3.78752137303e-07
3.39556969612e-07
3.45941577044e-07
2.89492580645e-07
2.92194351523e-07
2.51723827561e-07
2.44786953471e-07
1.67261146316e-07
1.65297922171e-07
8.72435190261e-08
2.22477651719e-07
9.29731006539e-08
1.96410893159e-07
1.12343632607e-07
2.05859054807e-07
1.06691433719e-07
1.00992884352e-07
6.103701421e-09
3.90333392807e-08
3.41605967185e-08
4.94650030252e-08
4.85509983124e-08
1.10908969171e-08
2.20833420475e-08
1.02424892123e-08
8.53766909655e-09
2.30929836007e-08
2.51174535085e-08
2.29703998288e-08
4.64271342417e-08
1.31344480319e-07
2.26116183685e-07
2.12542200586e-07
5.00023627767e-07
4.90578727657e-07
7.25928318733e-07
3.39825265222e-07
3.96542122639e-07
4.52837394798e-07
5.63016361525e-07
6.618889329e-07
8.67413165257e-07
3.31251558834e-07
3.81836262277e-07
4.55379253524e-07
5.55678793385e-07
6.99703367312e-07
8.44453529153e-07
2.7405241511e-07
2.98039556402e-07
3.88200949923e-07
4.30262733675e-07
5.75077518414e-07
6.44985972348e-07
1.48732089004e-07
1.63971350302e-07
2.44946866547e-07
2.37818130573e-07
3.37808421213e-07
3.07852656143e-07
2.1812646785e-07
1.46878245294e-07
1.0673524641e-07
6.35652523968e-08
7.36290881544e-08
4.94399842644e-08
6.8250884336e-07
2.77051396591e-07
1.35573262996e-08
1.56570428523e-08
5.82409525933e-08
1.14791095538e-08
3.43506585305e-08
8.80199998612e-08
1.90678686388e-07
1.8711796176e-07
2.11263471868e-07
1.61143964095e-07
1.96417985471e-07
1.70474035296e-07
2.13658221599e-07
2.02183152878e-07
1.83123300056e-07
9.75707703597e-08
2.09820308854e-07
2.81140680026e-07
4.89527104575e-07
1.46973500212e-07
2.67877730324e-07
3.04973283054e-07
2.20675506305e-07
2.39306572081e-07
2.31862350775e-07
1.83979041066e-07
2.00422775179e-07
9.04101375056e-08
9.99641094282e-08
1.79678036355e-08
5.70276413941e-07
5.88841477634e-07
3.22753762365e-08
5.88610906445e-07
1.40259373386e-06
4.77403537696e-07
5.0563301991e-07
4.170849706e-07
2.31781060069e-07
1.35795140509e-07
2.14131438488e-07
4.67391339664e-07
7.63748177403e-07
7.56549662298e-07
5.66385450384e-07
3.38032895157e-07
3.3707998024e-07
5.97866903666e-07
1.05336566513e-06
1.24161470374e-06
1.14577110416e-06
6.67991232757e-07
4.83693651298e-07
5.15832928306e-07
8.66180793095e-07
1.4151904909e-06
1.16008026084e-06
1.57079928968e-06
1.61238823595e-06
1.44554152693e-06
1.73164898019e-06
1.27757812133e-06
1.34401258256e-06
1.17500151429e-06
1.04655701649e-06
9.13866818998e-07
2.96040250107e-06
3.28708994794e-06
3.75403416467e-06
4.55294044587e-06
4.95630813893e-06
6.96203152615e-06
4.88956597005e-06
2.73928995199e-06
6.96486714433e-07
1.3461903282e-06
4.6089391742e-07
3.09279883205e-08
3.85569582194e-08
3.34331731401e-08
3.40725166047e-08
2.72870076655e-08
2.66666198562e-08
1.5133332653e-08
5.08741986306e-08
8.09034703404e-08
2.72336100868e-08
4.05678099198e-08
3.87282842495e-08
1.77743254094e-08
3.07422252908e-09
1.97544975121e-08
4.28442960496e-08
3.6969036969e-08
1.66967532123e-08
6.94818524124e-10
3.02464986423e-08
3.80689871286e-08
3.87603336011e-08
3.89996497243e-08
3.15486677601e-08
4.86356947405e-08
5.0557265559e-08
3.52891363984e-08
2.65506456998e-08
7.96536801087e-09
2.12571884345e-08
2.10915073279e-08
4.11432356545e-08
4.99165880797e-08
6.36230641751e-08
7.74510536111e-08
6.41957888852e-08
5.80746665321e-08
3.4060334322e-08
6.23589501969e-08
6.81811708077e-08
9.62090083606e-08
3.50853473369e-09
1.23981420969e-07
1.17223020336e-08
7.58341297902e-08
3.8060107894e-08
7.98273173923e-08
8.24856708307e-08
2.85257212146e-07
7.96368639073e-07
9.89956864606e-07
4.82023104014e-07
6.93081295187e-07
3.94843344303e-07
5.52085561225e-07
2.92200214555e-07
9.18976670621e-07
7.3703588809e-07
1.22949484291e-06
1.14395852308e-06
8.68953459115e-07
1.08993087343e-06
1.6968286281e-06
1.42012861343e-06
2.03228248662e-06
1.70849202847e-06
1.27259458309e-06
7.66845984696e-07
2.73068286751e-07
4.26332694762e-06
7.84725435229e-06
5.00128938582e-06
5.02493685141e-06
8.13269741283e-06
7.941448909e-06
7.62747070127e-06
6.82281630276e-06
6.03982188783e-06
5.53841539217e-06
6.48760939347e-06
5.60040647016e-06
3.60379037188e-06
3.10447390576e-06
4.02502379198e-06
3.66212572543e-06
2.12879406602e-06
2.07700941695e-06
2.64704824692e-06
1.96609371482e-06
1.39412098432e-06
1.6114400644e-06
1.62794753726e-06
1.22540859543e-06
1.06765478343e-06
9.22844202691e-07
1.15141816286e-06
8.18122213175e-07
8.79377528251e-07
4.45605201348e-07
4.81884145962e-07
3.88110849875e-07
3.43986213281e-07
1.70034850101e-07
1.80035655001e-07
6.75174144882e-08
1.0297215928e-07
1.15715090718e-07
4.75117780877e-09
2.81306944053e-08
3.78466964812e-08
2.70977832086e-08
3.11518283846e-08
2.5954215078e-08
1.12064762794e-07
9.54233437427e-08
9.24079356738e-08
9.71039544555e-08
1.1940462088e-07
1.376272976e-07
3.46280443293e-07
3.63474733969e-07
1.94485173294e-07
2.36270040357e-07
3.08051601633e-07
3.84009775486e-07
8.95673307238e-07
6.0131328266e-07
2.56991683322e-07
3.74814128194e-07
5.50721008731e-07
1.10235032976e-06
1.38686193188e-06
1.12020320516e-06
7.74370473974e-07
7.18399873675e-07
1.11766831682e-06
1.07146111446e-06
1.05359778943e-06
6.87609566696e-07
4.94566583268e-07
6.6998423122e-07
7.49934098646e-07
1.17674851472e-06
8.42736368928e-07
6.09514147351e-07
5.22757443646e-07
4.1478671611e-07
6.59368327524e-07
5.98769081906e-07
4.26654173719e-07
2.58144141512e-07
2.34944576976e-07
1.55867019098e-07
2.77816372763e-07
1.24245942305e-07
2.12156920656e-08
4.28142137652e-08
1.60826865829e-08
4.07506650868e-08
1.48848370712e-07
3.19040547073e-08
2.92883556614e-08
4.25938461196e-08
1.84839427517e-08
2.37292675959e-07
9.49727450677e-08
5.65432149004e-07
3.62148895765e-07
4.52867579234e-07
5.43528435868e-07
2.73244274811e-07
4.85723404735e-07
3.90740610036e-07
2.00540207176e-07
2.1322935949e-09
4.51912233689e-08
5.88578528012e-08
9.6874844923e-08
1.22285263993e-07
2.11721887928e-07
2.55579960763e-07
4.43497795008e-07
4.89165431427e-07
7.17930296127e-07
7.07432190124e-07
6.49732160782e-07
4.5035919562e-07
1.34303645302e-07
4.55013413519e-08
1.81540453243e-08
1.13495543797e-08
4.33059886603e-08
4.48731682193e-08
1.17087456381e-07
1.35525120332e-07
2.65485988388e-07
3.07282038931e-07
4.45183608125e-07
4.56222527768e-07
4.50244773291e-07
1.47351847061e-07
9.10436445864e-07
1.4160164289e-06
5.17733412711e-07
1.17222448618e-06
5.24519325705e-07
8.90611770381e-07
3.08138588179e-07
4.63237244627e-07
7.20826852494e-08
1.1916547859e-07
1.53378920183e-07
1.13140785499e-07
8.77741540796e-08
1.04673224215e-07
1.96136062232e-06
8.47466341116e-07
1.50426667754e-06
6.54862590555e-07
1.00495117147e-06
2.87553339846e-07
4.63374573317e-07
2.51610191007e-08
8.95718034426e-08
1.51997593734e-07
1.26762025637e-07
2.14127438295e-07
1.5261528163e-07
1.41704877188e-07
1.88810280843e-07
3.40141460927e-07
4.82195316659e-07
8.55601194112e-07
4.13420871037e-07
7.20415534321e-07
1.55617110408e-07
2.82122912978e-07
7.11082156527e-08
4.5640256097e-08
1.66290428294e-07
1.62754122925e-07
1.59835437499e-07
1.30659992143e-07
3.0591912303e-07
2.5643737932e-07
7.67030429191e-07
2.02626744452e-07
5.99267231955e-07
3.3805280145e-07
7.30591887465e-07
6.84294365153e-07
4.15955014243e-07
5.54566994015e-07
1.4103772613e-07
3.34090889871e-07
1.51871534143e-08
2.36090371954e-07
1.756488431e-07
2.1037869812e-07
3.4430834019e-08
2.1023256338e-08
9.41234472586e-08
7.33945575697e-08
3.60553486365e-07
1.90915563342e-08
2.55519226323e-07
1.09188165733e-07
5.85737587203e-08
1.4658002232e-07
2.40183555338e-07
2.56170993505e-07
4.19226496134e-07
4.5617733206e-07
5.05606029794e-07
4.15167756153e-07
2.86462495415e-07
1.4766409342e-07
4.29782043558e-08
4.87814472368e-08
3.73828148236e-08
2.41268070678e-08
6.63192758356e-08
1.31494715067e-08
1.4658277875e-07
6.23903254313e-08
1.31720836696e-07
7.4628773417e-08
2.08741303645e-07
1.10106627737e-07
5.75074044785e-07
3.3857160921e-07
5.74576632876e-07
9.34329164783e-08
2.99826173005e-07
1.58300603757e-07
1.08711505722e-07
1.03346321164e-07
2.2660852992e-07
3.02972166234e-07
2.05583970497e-07
2.2664067454e-07
1.55947388891e-07
6.49271258052e-08
5.40308875843e-08
2.74740545823e-07
9.2123771298e-08
6.68322268196e-08
2.37871758878e-07
5.1571559335e-07
1.01306513773e-07
1.29179032001e-07
5.31682471317e-07
4.62847997284e-07
1.75390121148e-07
2.53140637779e-07
1.07929325916e-07
8.51415283894e-08
3.03861123078e-07
3.24698059041e-07
7.5051979102e-08
4.75983801031e-08
3.75626720231e-07
5.30941214141e-07
2.65173635648e-07
2.0087890108e-07
1.99919799631e-08
1.36530422875e-06
8.54298118365e-07
8.57242020589e-07
9.19175689228e-08
4.7853365089e-08
8.20172626472e-07
7.41070018028e-07
1.6425607717e-07
1.37992297145e-07
1.46077901344e-06
1.40673995305e-06
8.91982710026e-07
8.82580726264e-07
9.53966853846e-09
8.32547076182e-08
1.36524970683e-07
6.67225239199e-07
1.28798486416e-08
3.98964456662e-08
2.91663070917e-07
1.7890894097e-07
4.35535438221e-08
1.53547532948e-07
1.56824646834e-06
1.6291280281e-06
7.71498721129e-07
2.79276518324e-08
1.70370752821e-07
2.61914991755e-08
6.61645085681e-10
4.04229667067e-08
1.27029719006e-06
1.30581456021e-06
6.07759977113e-07
4.96018018991e-08
5.7013874248e-09
1.561307462e-07
1.31293369287e-07
1.44061127921e-07
9.53457496865e-07
9.78998944205e-07
4.4447522974e-07
7.03899996935e-08
1.98205836309e-07
3.7410890349e-07