# vtk DataFile Version 3.0
File Name: Molecule/arg/arg_4.0-2.vtk
ASCII
DATASET UNSTRUCTURED_GRID
FIELD FieldData 1
TIME 1 1 double
0.0
POINTS 713 double
-3.403 0.327 1.604
-3.45 0.103 1.078
-2.981 -0.361 1.858
-3.028 -0.584 1.332
-3.298 -0.003 0.536
-2.876 -0.691 0.79
-2.971 0.024 0.066
-2.549 -0.664 0.32
-2.984 0.046 0.042
-2.471 -0.12 -0.363
-2.484 -0.099 -0.385
-2.2 -0.483 -0.862
-2.216 -0.458 -0.889
-3.25 0.578 -0.258
-2.57 0.022 -0.532
-2.716 0.926 -0.921
-2.776 1.74 -0.497
-2.407 1.34 -0.951
-2.55 0.723 -1.58
-2.211 1.177 -1.613
-2.622 1.932 -0.429
-2.287 1.501 -0.894
-2.142 1.682 -0.83
-1.982 1.439 -1.492
-1.81 1.654 -1.416
-2.655 2.421 0.048
-2.046 2.135 -0.548
-2.075 2.574 -0.12
-1.615 2.438 -0.879
-1.647 2.927 -0.402
-2.495 2.657 0.67
-1.932 2.785 0.438
-1.488 3.163 0.22
-2.925 2.572 1.071
-2.137 2.872 1.156
-2.512 2.798 1.506
-1.863 3.333 1.507
-2.279 3.251 1.894
-3.186 2.284 1.521
-2.739 2.546 1.897
-2.53 2.972 2.328
-3.419 1.801 1.788
-2.888 2.359 1.917
-3.122 1.876 2.185
-2.717 2.558 2.345
-2.979 2.017 2.644
-3.567 1.179 1.827
-3.133 1.725 2.369
-3.262 1.186 2.403
-3.107 1.793 3.017
-3.25 1.192 3.055
-3.408 0.559 1.798
-3.123 0.649 2.378
-3.095 0.593 3.027
-3.105 0.348 2.085
-3.1 0.088 1.867
-2.97 0.105 2.152
-3.02 0.504 2.546
-2.901 0.29 2.606
-2.978 0.383 3.085
-2.865 -0.346 2.113
-2.52 -0.7 2.425
-2.794 0.071 2.575
-2.491 -0.24 2.849
-2.645 0.041 3.387
-2.46 -1.117 2.184
-2.148 -0.9 2.844
-2.09 -1.3 2.613
-2.003 -1.142 3.367
-1.937 -1.6 3.103
-2.268 -1.45 1.888
-1.906 -1.62 2.328
-1.726 -1.965 2.777
-1.967 -1.659 1.57
-1.617 -1.821 2.023
-1.396 -2.195 2.428
-1.592 -1.721 1.268
-1.257 -1.88 1.733
-0.984 -2.263 2.097
-2.026 -1.588 0.931
-1.237 -1.838 0.739
-1.646 -1.713 0.421
-0.96 -2.23 0.303
-1.437 -2.084 -0.068
-2.342 -1.257 0.596
-1.944 -1.402 0.106
-1.784 -1.721 -0.435
-2.487 -0.785 0.321
-2.08 -0.956 -0.154
-1.943 -1.202 -0.738
-2.189 -0.632 -0.224
-2.248 -0.516 -0.225
-2.131 -0.618 -0.861
-2.114 -0.682 -1.181
-1.927 -1.264 -1.052
-2.312 -0.441 -1.376
-2.39 -0.269 -1.153
-2.121 -0.506 -1.916
-2.042 -0.816 -1.214
-1.838 -0.886 -1.79
-1.682 -1.348 -1.746
-1.975 -0.256 -2.322
-1.864 -0.768 -1.888
-1.672 -0.441 -2.421
-1.897 0.192 -2.527
-1.57 0.147 -2.691
-1.996 0.646 -2.441
-1.495 0.306 -2.776
-1.602 0.798 -2.682
-1.198 0.386 -3.152
-1.328 0.981 -3.039
-2.011 1.039 -2.18
-1.619 1.224 -2.399
-1.348 1.496 -2.696
-1.72 1.257 -2.235
-1.479 1.817 -1.75
-1.107 2.057 -2.211
-1.346 2.153 -1.415
-1.642 2.007 -1.116
-1.319 2.584 -1.178
-0.816 3.013 -1.267
-1.111 2.259 -1.642
-0.623 2.675 -1.729
-0.543 2.537 -2.312
0.466 3.148 -0.891
-0.416 2.926 -1.599
0.331 3.005 -1.38
-0.131 2.956 -2.042
0.328 3.005 -1.907
-0.002 3.1 -2.533
0.456 3.148 -2.398
-0.048 3.337 -3.001
0.699 3.415 -2.782
0.833 2.913 -0.61
0.619 2.806 -1.364
0.976 2.577 -1.092
0.892 2.689 -1.891
1.303 2.425 -1.576
1.057 2.557 -0.305
1.192 2.232 -0.796
1.553 2.026 -1.234
0.979 2.767 0.195
1.539 1.918 0.039
1.462 2.128 0.539
0.737 2.845 0.68
1.22 2.206 1.024
0.406 3.093 0.833
0.71 2.572 1.142
0.419 2.789 1.277
0.841 2.425 1.643
0.539 2.651 1.783
1.112 2.426 2.108
0.748 2.699 2.276
0.011 3.456 0.651
0.05 3.076 1.433
-0.284 3.383 1.279
-0.034 3.266 2.099
-0.415 3.616 1.924
-0.504 3.599 0.465
-0.72 3.504 1.122
-0.913 3.754 1.744
-1.038 3.495 0.311
-1.173 3.416 0.991
-1.429 3.653 1.595
-1.554 3.135 0.914
-0.08 3.426 2.677
0.304 2.919 2.221
0.258 3.08 2.801
0.695 2.881 2.933
-0.313 3.4 3.231
0.024 3.055 3.358
0.431 2.852 3.563
-0.687 3.194 3.654
-0.352 2.847 3.783
0.006 2.617 4.044
-1.222 3.175 3.77
-0.58 2.815 3.881
-1.2 2.794 4.016
-1.756 3.136 3.659
-1.82 2.748 3.887
-2.199 3.083 3.341
-2.333 2.687 3.518
-2.473 3.025 2.87
-2.65 2.619 2.973
-0.832 2.373 4.277
-0.242 2.183 4.431
-1.061 1.806 4.483
-0.466 1.628 4.634
-1.434 2.302 4.313
-1.452 1.611 4.604
-1.773 2.038 4.456
-1.892 2.602 3.976
-2.169 2.297 4.166
-2.355 2.652 3.532
-2.568 2.341 3.783
-2.74 2.445 3.06
-2.9 2.162 3.376
-1.464 1.095 4.666
-0.956 1.592 4.533
-0.968 1.074 4.596
-0.48 1.041 4.705
-1.655 0.731 4.634
-0.882 0.784 4.614
-1.066 0.434 4.582
-0.333 0.517 4.869
-0.555 0.096 4.831
-2.14 0.383 4.441
-1.246 0.178 4.538
-1.7 -0.148 4.358
-0.878 -0.357 4.785
-1.429 -0.753 4.566
-2.498 0.133 3.99
-2.035 -0.382 3.936
-1.836 -1.037 4.053
-2.172 -0.468 3.371
-0.383 -0.749 5.065
-0.05 -0.304 5.117
0.164 -1.171 5.088
0.507 -0.734 5.141
0.4 -1.671 4.946
0.615 -0.976 5.092
0.839 -1.451 4.956
1.043 -0.806 5.264
1.279 -1.306 5.122
0.636 -2.087 4.632
1.063 -1.845 4.659
1.514 -1.722 4.808
0.844 -2.371 4.183
1.26 -2.115 4.232
1.723 -2.007 4.359
1.002 -2.493 3.648
1.411 -2.231 3.724
1.881 -2.129 3.824
1.092 -2.439 3.086
1.496 -2.18 3.191
1.971 -2.075 3.263
1.104 -2.215 2.561
1.508 -1.967 2.692
1.983 -1.85 2.738
1.037 -1.846 2.131
1.444 -1.616 2.284
1.916 -1.481 2.307
0.647 -2.269 2.118
0.798 -1.688 1.555
0.487 -2.024 1.545
0.806 -1.676 0.912
0.496 -2.012 0.902
1.061 -1.813 0.337
0.67 -2.236 0.324
0.119 -2.499 2.107
0.068 -2.206 1.536
0.076 -2.194 0.893
0.142 -2.466 0.313
-0.457 -2.497 2.099
-0.39 -2.205 1.53
-0.381 -2.193 0.887
-0.434 -2.464 0.306
-0.808 -2.019 1.528
-0.8 -2.007 0.885
1.48 -1.078 0.031
1.043 -1.422 0.814
1.323 -0.93 0.61
1.205 -1.217 1.373
1.436 -0.812 1.205
1.517 -1.238 1.905
1.797 -0.747 1.701
2.335 -0.746 2.002
1.639 -0.712 -0.547
1.476 -0.549 0.311
1.615 -0.229 -0.195
1.697 -0.118 0.66
1.842 0.216 0.134
0.995 -1.392 -3.136
0.238 -1.387 -2.827
0.523 -1.172 -3.329
-0.152 -1.05 -2.884
0.104 -0.811 -3.39
-0.548 -1.409 -2.576
-0.822 -1.287 -2.506
-0.408 -0.948 -2.806
-0.669 -0.831 -2.739
-0.336 -0.591 -3.197
-0.616 -0.466 -3.125
-1.31 -1.347 -2.194
-0.988 -0.705 -2.664
-1.485 -0.767 -2.346
-1.322 -0.31 -2.728
-0.95 -0.071 -3.189
-0.311 -0.212 -3.619
0.128 -0.454 -3.788
-0.16 0.24 -3.931
0.27 -0.03 -4.081
0.101 0.716 -4.098
0.516 0.418 -4.238
-0.411 1.252 -3.909
0.377 1.347 -4.4
0.11 1.626 -4.301
-0.398 1.946 -3.588
0.117 1.987 -4.134
-0.106 2.463 -3.53
-0.202 2.855 -2.684
0.028 3.029 -3.665
0.173 2.486 -3.833
0.9 3.106 -3.671
0.85 2.546 -3.838
0.989 2.064 -4.14
1.267 2.733 -3.406
0.819 3.383 -2.845
1.204 2.948 -2.765
1.749 2.404 -3.353
1.668 2.681 -2.526
0.902 2.914 -2.485
0.749 2.956 -2.405
1.123 2.627 -2.01
1.688 2.19 -1.733
1.962 2.454 -2.382
2.133 1.624 -1.992
2.194 2.159 -2.516
2.141 1.301 -1.585
2.428 1.273 -2.257
2.435 0.969 -1.874
2.042 0.907 -1.262
2.342 0.599 -1.57
1.911 1.516 -1.257
1.855 0.911 -0.632
1.743 1.428 -0.628
1.976 0.918 0.014
1.858 1.462 0.018
1.44 1.861 -0.608
1.861 0.778 -0.544
1.751 0.201 -0.446
1.991 0.665 -1.105
1.878 0.074 -1.004
2.201 -0.141 -1.444
2.497 1.237 -3.182
2.241 1.687 -2.422
2.29 1.662 -3.078
2.232 2.14 -3.028
1.83 1.363 -3.817
1.817 1.751 -3.528
1.863 2.209 -3.379
1.382 0.739 -4.338
1.413 1.57 -3.947
1.095 1.128 -4.316
1.103 1.869 -4.167
0.855 1.524 -4.455
0.482 0.901 -4.245
1.404 2.01 -3.684
1.315 2.161 -3.664
2.007 0.383 0.735
1.766 -0.192 1.22
2.031 0.236 1.284
1.991 -0.414 1.693
2.267 0.032 1.759
2.675 -0.196 2.083
2.074 0.941 0.928
2.088 0.713 1.449
2.326 0.528 1.931
2.749 0.417 2.295
1.884 1.434 1.198
1.926 1.135 1.68
2.158 0.967 2.172
2.541 0.959 2.592
1.624 1.884 1.117
1.755 1.469 1.75
1.503 1.904 1.671
1.842 1.579 2.299
1.557 2.073 2.21
1.11 2.216 1.58
1.886 1.845 2.759
2.132 1.224 2.493
2.174 1.477 2.929
2.585 1.225 3.051
1.814 2.002 3.263
2.105 1.625 3.407
2.513 1.382 3.555
1.633 2.033 3.763
1.933 1.655 3.881
2.331 1.413 4.055
1.359 1.937 4.21
1.674 1.563 4.305
2.058 1.316 4.502
1.021 1.721 4.561
1.354 1.359 4.638
1.72 1.101 4.853
0.651 1.408 4.781
1.002 1.062 4.847
1.35 0.788 5.074
0.073 1.245 4.841
0.82 0.891 4.947
0.23 0.725 5.008
0.672 0.387 5.179
1.205 0.294 5.301
0.564 -0.173 5.245
1.099 -0.256 5.367
-1.999 2.782 0.776
-1.065 -1.824 1.176
1.419 -0.545 0.696
1.7 -0.166 -0.791
1.805 -0.426 -1.067
-3.196 2.043 -0.114
-3.592 1.578 -0.026
-3.592 1.985 0.326
-3.196 2.357 0.319
-3.592 2.137 0.843
-3.196 2.469 0.843
-3.592 1.985 1.36
-3.85 1.69 0.843
-3.85 1.435 1.283
-3.592 0.264 0.574
-3.85 0.672 0.843
-3.85 0.927 0.403
-3.592 0.555 0.121
-3.592 1.045 -0.103
-3.85 1.435 0.403
-3.94 1.181 0.843
-3.85 0.927 1.283
-3.592 0.555 1.565
-3.173 1.207 -0.458
-2.722 -1.154 1.098
-2.722 -1.154 1.636
-2.722 -0.863 2.089
-2.326 -1.497 1.099
-2.482 0.597 -1.975
-2.617 0.185 -1.409
-2.482 0.047 -1.975
0.763 3.18 -0.086
0.367 3.4 -0.61
0.367 3.512 -0.086
0.367 3.4 0.438
-0.118 3.59 -0.615
-0.118 3.688 -0.086
-0.634 3.59 -0.615
-0.634 3.688 -0.086
-1.119 3.512 -0.086
-1.119 3.4 -0.61
-1.119 3.086 -1.043
-0.667 3.796 3.018
-0.667 3.906 2.497
-1.198 3.918 2.998
-1.198 3.65 3.431
-1.198 3.918 1.996
-1.198 4.012 2.497
-1.729 3.906 2.497
-1.729 3.796 3.018
-1.729 3.482 3.449
-1.729 3.796 1.976
-2.179 3.606 2.497
-2.179 3.474 2.987
-1.895 1.335 4.734
-2.426 1.603 4.572
-2.426 1.073 4.627
-2.426 2.064 4.305
-2.876 2.056 3.843
-2.876 1.697 4.202
-2.876 1.207 4.334
-2.876 0.717 4.202
-2.426 0.566 4.463
-3.176 1.738 3.353
-3.176 1.472 3.813
-3.176 0.942 3.813
-2.876 0.358 3.843
-3.176 0.676 3.353
-3.282 1.207 3.353
0.578 -2.491 4.272
0.08 -2.472 4.525
0.08 -2.776 4.08
0.578 -2.727 3.81
0.08 -2.934 3.566
0.578 -2.808 3.297
0.08 -2.934 3.028
0.578 -2.727 2.784
0.08 -2.776 2.514
0.08 -2.052 4.861
-0.44 -2.052 4.861
-0.44 -2.472 4.525
-0.44 -2.776 4.08
-0.44 -2.934 3.566
-0.44 -2.934 3.028
-0.44 -2.776 2.514
-0.44 -1.551 5.057
-0.938 -1.149 4.956
-0.938 -1.662 4.875
-0.938 -2.124 4.639
-0.938 -2.491 4.272
-0.938 -2.727 3.81
-0.938 -2.808 3.297
-0.938 -2.727 2.784
-0.938 -2.491 2.322
-1.374 -1.149 4.675
-1.374 -1.677 4.571
-1.374 -2.124 4.272
-1.374 -2.423 3.825
-1.374 -2.527 3.297
-1.374 -2.423 2.769
-1.714 -1.289 4.273
-1.714 -1.795 4.042
-1.714 -2.095 3.575
-1.93 -1.406 3.742
1.624 -1.33 -0.389
1.408 -1.719 -0.089
1.408 -2.019 -0.556
1.068 -2.347 -0.306
1.068 -2.451 -0.834
1.408 -2.019 -1.112
1.068 -2.347 -1.362
0.632 -2.651 -0.321
0.632 -2.732 -0.834
0.632 -2.651 -1.347
0.632 -2.415 -1.809
0.134 -2.7 -0.051
0.134 -2.858 -0.565
0.134 -2.858 -1.103
0.134 -2.7 -1.617
0.134 -2.396 -2.062
-0.386 -2.7 -0.051
-0.386 -2.858 -0.565
-0.386 -2.858 -1.103
[...]
CELL_DATA 1422
SCALARS cell_data_0 double
LOOKUP_TABLE default
2.15203723423e-06
5.8156395299e-06
1.27394559162e-05
1.16307796203e-05
6.15001401235e-06
1.16501282098e-06
3.55309814052e-08
1.08719200819e-06
1.24918166953e-06
5.80588244703e-07
2.38763448325e-05
8.13248522397e-06
6.74917643026e-06
1.17764115619e-06
1.29981695998e-06
4.34351055638e-07
5.53449036244e-07
7.82578660206e-07
6.81553106577e-07
9.93206488695e-07
5.83920409437e-07
7.41466446086e-07
1.24531537375e-06
4.42883261327e-07
7.30671439423e-07
9.71558890725e-07
1.56502716633e-06
1.58782149927e-06
2.18788054609e-06
2.39390136918e-06
5.0770636761e-06
5.21841416884e-06
2.11587786569e-06
4.24589694661e-06
6.43529233841e-06
2.84116744903e-06
1.43089964937e-06
1.70479124225e-06
2.97078679437e-06
9.94623017906e-07
3.99635997547e-06
4.09645938324e-06
7.49160920908e-07
3.17008335616e-07
3.59518943031e-07
2.8521014512e-06
2.70911852533e-07
2.59700467486e-07
4.33854422533e-07
2.65467876423e-08
5.1500397594e-07
7.44480740613e-07
2.39055286016e-07
7.46841324782e-08
6.51248572479e-07
1.0421024239e-06
5.29627729023e-07
4.06142868005e-07
1.96596710995e-06
2.35570727436e-06
3.27505060174e-06
2.84105461812e-06
1.01779179147e-06
1.72369183671e-06
2.51869949102e-06
2.30460975885e-06
6.76589983259e-07
1.31432426832e-06
1.94637382031e-06
1.80674214831e-06
1.20223735937e-06
1.48780406028e-06
1.38791916659e-06
1.16156915729e-06
1.7326670922e-06
1.27129637152e-06
1.49728860264e-06
2.27638367848e-06
1.86609223502e-06
2.13152778811e-06
2.09238152958e-06
2.88535492929e-06
2.38526797721e-06
2.89509615144e-06
3.11290482647e-06
3.37870588652e-06
5.02977854039e-07
6.76272970043e-07
7.85462288762e-07
8.44434389799e-07
1.73695730041e-06
1.54699648039e-06
1.14420146269e-06
7.15222607921e-07
1.84684867196e-06
9.41248376687e-07
8.87109710174e-07
1.65627880036e-06
1.50187176667e-06
8.73209355414e-07
3.51766177114e-07
1.32734274417e-06
2.08633626803e-06
2.6994856828e-06
3.04484170965e-06
3.96347965452e-06
2.6948275914e-06
3.38079132332e-06
3.32062005834e-06
4.2538767888e-06
2.8587734745e-06
3.62935220337e-06
7.56895320256e-06
7.63590081572e-06
4.26187919755e-06
3.63233944282e-06
2.68160691912e-06
1.90371197937e-06
4.66134063321e-06
5.75884098102e-06
6.09569079448e-06
7.56866658265e-06
6.69183132805e-06
2.8819490516e-06
1.81566250401e-06
1.3400389704e-06
2.18717536307e-06
2.73558867681e-06
3.97496840504e-06
1.1431642994e-05
3.24360283912e-06
3.4883322706e-06
4.54530665495e-06
5.78003270348e-06
3.08917660456e-06
3.70185437695e-06
4.05055874387e-06
5.31634862595e-06
3.23467630708e-06
2.73502023178e-06
1.69431876011e-06
1.37725423696e-06
3.50878023435e-07
5.35178134787e-07
9.41503063909e-07
9.55567166799e-07
8.93295662615e-07
1.56446529565e-06
4.9370916692e-06
4.18215034592e-07
8.58595934882e-06
4.87784494654e-06
3.29999241299e-07
4.54345914814e-07
3.01315426884e-07
1.72293768543e-07
2.64180097961e-07
1.29166805298e-07
2.05435845015e-07
1.39499735113e-07
6.96062287397e-08
7.66124258139e-07
4.02099481698e-07
2.63645257922e-06
8.91514725705e-06
6.01102165156e-06
9.72523020404e-06
1.25207894781e-05
1.49707799481e-05
2.50369191041e-05
1.59538122428e-05
1.33451962434e-05
1.88092793815e-05
2.52180825385e-05
2.73317510206e-05
2.52235595729e-05
8.02227000657e-06
1.07747661452e-05
9.914837953e-06
6.90217633281e-06
5.18238163265e-06
2.49127582546e-06
1.2165847931e-06
8.73488169691e-07
1.75980020201e-06
2.2385759039e-06
1.27789908979e-05
6.81804327126e-06
7.5788400362e-07
4.62670390858e-06
4.21879453747e-06
3.12010151789e-06
5.92681748672e-06
8.25356981148e-06
1.57221546826e-05
1.23726222514e-05
8.43999813539e-06
2.98077904634e-06
1.367188866e-06
4.18941588893e-06
6.24865850969e-06
6.57868640536e-06
7.94065646734e-06
6.39176651227e-06
1.60643090814e-06
6.92318693264e-07
1.44117662978e-06
2.03236425366e-06
7.11515590016e-06
6.41180415737e-06
6.90547027261e-06
9.75940486116e-06
8.55942931025e-06
1.04207067357e-05
9.46910455594e-06
1.60164516319e-05
8.29897098211e-06
2.37247853271e-06
5.98618876176e-06
1.54735989659e-06
5.31663536492e-06
2.93815661578e-06
6.03564792008e-06
5.72017028605e-06
1.55493523076e-06
1.33727244597e-06
3.06443790743e-06
5.86124594212e-06
1.88573721289e-06
2.51469083705e-06
3.87024698113e-06
2.74732905943e-06
1.93406984129e-07
5.68387082681e-07
9.35901974056e-07
4.49073297011e-08
4.46895051687e-07
1.06798219732e-06
2.59176332811e-06
1.21791308081e-06
2.23781200107e-06
2.32099839927e-06
2.66734101196e-06
4.62083048853e-06
2.60143811977e-06
1.75772295445e-06
2.11543869096e-06
1.22467990449e-06
3.54436259158e-07
5.69042194095e-07
2.20838883091e-07
3.67986593535e-07
1.47534561747e-06
3.03996011261e-07
9.72870253086e-07
1.57268858498e-06
2.27846940174e-06
2.08469149689e-06
4.14270598639e-08
5.62130806346e-09
4.66305266498e-07
3.01812352715e-07
3.36966893382e-07
2.49523685579e-07
9.87639523842e-06
2.6128502913e-05
7.88176368802e-06
1.06727121391e-05
2.98374697482e-06
4.26851392831e-05
2.55792075953e-05
1.41081715006e-05
2.35092299046e-05
1.37145116848e-05
3.78982102066e-05
3.13264742736e-05
7.84315472316e-06
1.63143556983e-05
2.1144240647e-05
3.41260036813e-05
3.14625624392e-05
4.66743782775e-05
6.57452478923e-06
6.6235804634e-06
7.5919910323e-06
1.28174572267e-05
1.20009331631e-05
4.08143074911e-06
6.31382175921e-06
5.06333772056e-06
7.99802376808e-06
1.30563643204e-06
1.11646723325e-06
1.30780090742e-06
1.28263800548e-06
1.99195586641e-06
3.11550894826e-07
8.7212407916e-07
2.62555119517e-06
6.62406843213e-07
4.35590819386e-07
1.2981939322e-06
1.30016204979e-06
8.7195369124e-06
9.4700348153e-06
3.92999287261e-05
2.89622425228e-05
2.12556677812e-05
1.14632024396e-06
8.05203525175e-06
4.09999601457e-06
8.93006869798e-06
1.04288182087e-05
1.12122951001e-05
1.0333849418e-05
1.64847389403e-05
2.21988380217e-05
1.70875206631e-05
1.89351726755e-05
3.41053332865e-05
2.66611599267e-05
2.77183768236e-05
3.01791396281e-05
2.93432431444e-06
3.06996008302e-06
1.85129041898e-06
3.79228733839e-06
1.62952460811e-05
6.93355317725e-06
8.9730536158e-06
6.48657810987e-06
2.53534351569e-06
1.84709856462e-06
1.38673630141e-06
5.34332103419e-06
3.06818867429e-07
4.46753179474e-07
1.08995939651e-06
2.12901846187e-06
1.88381199263e-06
2.3861139506e-06
1.17425445599e-06
1.52449075989e-06
3.26237470527e-06
6.00597203498e-07
6.08295479247e-07
9.68492342465e-08
3.44337864795e-06
1.005685515e-05
3.76603412069e-06
3.63536519308e-07
4.65458106546e-06
2.75856862513e-06
1.79624216459e-06
1.21129244211e-06
2.70587139428e-06
5.06633558601e-06
2.32300479645e-06
2.45839440299e-06
6.07286611222e-06
4.40410019698e-06
8.91168730925e-06
3.93356583698e-06
1.47102362319e-06
4.56084959912e-06
5.16269396412e-06
5.94332715831e-06
5.14468471374e-06
6.69440425884e-06
5.788304235e-06
7.41540720396e-06
1.26267301919e-05
1.61734393844e-05
1.41761133138e-05
6.7479130948e-06
6.15577146995e-06
1.75858238138e-06
4.94694190335e-06
2.36228972285e-06
3.4999383401e-06
3.28026525139e-07
2.62060058312e-06
8.17502272186e-07
8.58282898943e-07
1.0661622609e-06
1.0389302404e-06
9.02913068162e-07
1.34522001689e-07
5.22235187049e-07
7.92350796117e-07
1.35567606784e-06
7.44889136941e-07
1.51613862105e-06
1.59248589101e-06
2.16245907636e-06
1.45566919023e-06
1.15635381237e-06
1.88799277123e-06
1.05228622569e-06
2.26069825901e-06
4.28262424655e-06
2.56110758712e-06
3.94628740761e-06
5.27475685158e-06
3.64340235504e-06
3.59877974347e-06
3.81134766373e-06
2.66263738489e-06
1.57377942758e-06
1.79243495684e-06
1.42472937573e-06
8.41432310037e-07
7.75872003585e-07
8.08187516902e-07
6.97919280606e-07
2.44985257872e-07
2.13772072043e-07
4.30694701961e-07
3.32610693057e-06
3.4919308717e-06
1.89816402581e-06
7.2334811747e-07
2.47521577235e-06
9.26588488381e-06
5.37004383985e-06
1.03452559124e-07
3.11845435023e-07
1.35279462774e-06
2.82237231483e-06
1.43209524576e-07
6.86459199571e-08
4.52739908853e-07
1.62468323086e-06
6.73331966097e-06
1.49748840418e-05
1.79132946791e-05
2.48291109784e-07
1.49053838547e-06
2.22332145798e-06
2.68253474075e-06
1.60040272656e-06
1.4652185531e-06
3.16061612737e-07
1.61804147256e-06
8.32525704986e-08
4.18958375325e-07
3.46937531258e-06
7.3005860527e-08
6.48878690677e-08
2.25722090707e-06
9.25488240195e-07
2.14017464897e-06
3.14045096237e-06
5.41367967089e-07
7.13076661271e-07
5.64130708839e-07
1.1767539644e-07
3.45004123575e-07
6.71898510548e-08
5.73803390188e-08
1.80770095305e-07
9.59017709125e-07
3.05145636904e-06
3.93134563646e-06
2.53712134177e-06
1.52901920162e-06
5.71263813575e-07
3.92409844898e-06
5.54582468149e-08
3.78498715085e-07
1.25474848368e-06
1.47959257346e-06
3.38913379988e-06
2.09872184103e-06
1.87098676745e-06
3.13848566069e-07
2.24822293665e-07
1.4443942868e-07
1.81570999136e-07
8.59506746943e-07
6.9190174212e-07
8.74462807094e-07
8.65012334659e-07
4.98836874535e-06
2.83724627581e-06
2.34718365223e-06
7.96232783832e-06
4.06004548282e-06
5.08858251747e-06
4.93064122812e-06
1.8828291919e-06
2.26501054881e-06
3.7749573743e-06
3.21441718596e-06
7.00576000324e-06
5.64172873402e-06
1.38647467491e-06
1.46658950429e-06
2.85197313486e-06
2.48014619569e-06
3.33808972391e-06
1.6790383182e-06
9.10479629359e-07
8.71356611049e-07
1.05376347219e-06
2.98416658383e-06
2.60644915835e-06
1.17068676185e-05
1.1342681656e-06
4.77175526501e-06
9.69655180559e-06
6.88098111882e-06
2.56439813415e-06
2.4395364828e-06
2.08820633331e-06
1.54121579522e-06
1.78746266989e-06
5.7253228919e-06
1.69743925792e-06
2.09252733812e-06
1.40952812641e-06
1.76910541736e-06
2.86704186135e-06
3.26529502598e-06
5.09959055928e-06
3.1367992535e-06
9.67094561836e-07
6.95782989905e-06
3.51805751775e-06
1.10809107964e-05
1.32351245104e-05
4.42657016512e-05
1.93598786451e-05
7.71327111044e-07
1.44939247118e-06
3.78851142814e-06
1.09597959161e-05
1.57040376353e-05
2.40291064402e-06
5.46291241629e-07
4.50238615253e-07
1.03734813285e-05
1.6297119685e-05
1.65061987725e-06
6.26694220102e-06
2.32156354235e-06
1.87849742368e-06
7.87314176674e-07
1.04437913899e-06
3.99464015099e-07
1.99412097648e-06
3.75344911185e-06
2.81592917644e-06
9.15016948343e-06
1.38169453194e-05
1.05988697233e-05
1.73285991264e-05
1.05009334345e-05
1.36857449335e-05
7.65646892222e-06
7.94249979451e-06
1.92109726611e-06
1.46004727629e-06
2.5486752364e-06
3.17365584194e-07
1.67082364271e-07
3.87623790074e-07
6.95533038935e-06
5.73117365647e-06
6.91014613346e-06
1.01389137106e-06
9.47314123991e-07
1.00221114918e-06
8.56731315996e-07
4.88046026187e-07
1.58988335206e-07
3.54326720993e-06
1.18108026861e-06
7.75428892402e-07
7.92434559375e-07
1.45990715045e-06
1.39224971364e-06
1.62891535005e-06
1.31904622245e-06
1.90414532985e-06
3.15294646005e-06
1.65311601134e-06
7.2427541131e-07
8.48349177498e-07
7.46778958038e-07
8.02146253757e-07
1.28667311376e-06
7.72343273072e-07
7.15054186534e-07
5.98249925408e-07
5.49858389889e-07
5.56236423304e-07
6.66146074431e-07
4.03731659161e-06
5.63585847915e-06
1.71317262075e-06
1.99859797753e-06
9.20745490565e-07
2.99734412498e-06
2.8208102194e-06
4.7470908684e-06
4.37122769362e-06
4.82046752306e-06
2.71276898546e-06
7.67049535387e-07
1.14148652997e-06
1.37916918826e-06
1.05080632304e-06
4.42519143828e-07
3.38738693097e-07
1.10928763629e-05
9.72475827538e-06
7.41005068013e-06
2.05501565975e-06
2.41228677382e-06
6.55892792825e-06
4.57573001974e-06
5.08260667824e-06
1.13175511832e-08
9.52282383034e-07
3.18544651713e-07
1.79901594651e-06
8.86659683312e-08
2.93966467337e-10
1.34353810444e-07
2.83202346288e-06
7.89441827501e-07
8.3721411824e-07
9.34731372033e-07
2.65354641513e-07
5.58037164259e-07
6.10362028814e-07
6.05706839772e-07
6.3607350153e-07
3.20083334638e-07
2.24131805563e-07
3.8012409529e-07
1.20887692516e-06
6.17304501635e-07
6.72664140928e-07
3.91878043022e-07
5.33108016965e-07
2.37385025224e-08
3.75062916661e-06
9.20634500735e-07
7.9056809341e-08
8.20845423417e-07
2.04470030488e-06
2.76054978949e-06
1.95167441473e-06
1.8973523264e-06
2.96161267462e-06
2.41997044924e-06
2.72676745546e-06
1.58892815257e-06
7.9217982739e-06
1.2846441943e-06
1.08916998684e-06
1.30160480161e-06
1.03603178781e-06
9.75957297858e-07
9.33607370508e-07
1.10868284682e-06
1.00274897112e-06
9.29344672979e-07
3.89833421452e-08
1.45145293516e-07
4.54924614728e-07
4.43718304172e-07
6.6016321171e-07
2.15493951256e-07
3.35742206402e-07
9.72273635971e-07
2.83756916593e-07
2.92476658099e-07
1.81146288047e-06
1.38842281926e-06
1.78144849904e-06
2.08112175799e-06
2.32048965689e-06
1.71475137961e-06
1.16990467867e-06
7.46211633404e-06
2.61311917936e-06
1.98275065216e-06
1.33485986926e-06
1.27463278833e-06
1.2622464341e-06
1.45781660383e-06
1.73756474377e-06
1.80721267927e-07
1.63307193539e-09
2.3852598278e-07
1.38684471789e-07
4.08566752872e-08
5.94917112065e-08
1.62680232174e-07
3.57993839062e-07
1.26357809294e-08
1.39936945619e-07
9.31189070253e-08
6.28625339894e-06
6.8431391012e-06
1.05533639583e-07
7.52775511599e-07
2.57563511909e-06
2.29333044006e-06
7.1587503169e-06
8.2391974192e-06
9.61299103452e-06
3.66704744971e-06
6.84048161522e-06
4.2156349703e-06
5.14281269593e-06
8.50515644882e-07
7.21202404102e-06
7.84208550343e-06
7.98903661202e-07
7.47607841885e-07
2.54255891381e-07
2.25008997505e-07
7.06833928664e-08
4.67328417338e-08
9.19843148222e-07
1.84779532057e-06
7.77909764426e-06
1.70656830756e-06
2.19702819244e-06
9.66008150385e-06
2.88577257705e-06
2.62922762658e-06
1.00576956694e-06
5.48177449349e-07
2.12877749173e-06
2.34553337885e-07
1.83443114641e-06
5.71018285602e-06
4.25663684634e-05
2.2472427758e-05
4.07863882142e-05
2.62430856058e-05
3.70194935441e-05
1.24964094945e-05
2.6145946636e-05
9.65971306674e-06
1.1899736975e-05
7.73428303905e-06
8.40686454911e-06
4.27921689018e-06
2.40270592015e-06
3.57341113138e-06
3.36498571731e-06
5.41499749678e-06
3.73636791578e-06
7.88511949765e-07
2.38651479312e-06
1.0647415557e-06
8.85554059554e-07
3.81649062076e-08
1.63876374941e-06
2.33298280041e-06
1.82932198207e-05
1.31976390575e-05
1.00572346014e-05
3.85972547679e-05
2.23141425075e-05
3.90727263655e-06
6.11098717355e-06
6.72155407104e-06
3.74203128749e-05
4.28183916195e-05
1.17783795943e-05
1.50607471924e-05
1.93185619205e-05
6.14804483008e-06
4.78512014032e-06
2.66456086607e-06
2.6982792976e-06
6.9126644257e-07
2.96252402489e-07
1.68823807568e-06
1.6720055068e-07
1.73725258526e-06
2.33066909689e-07
9.41111917615e-07
1.27839282349e-08
3.35225234088e-08
1.88723383989e-07
5.33480253076e-07
8.5330302685e-07
1.6983099019e-06
1.37716261844e-06
2.07240960794e-06
1.19774477535e-06
1.25055308619e-06
6.45130513068e-07
2.78412259058e-07
1.01782949147e-06
5.92822405397e-07
1.84628673538e-06
4.85394764378e-07
1.68360876302e-06
1.1486084533e-07
6.0870590438e-07
5.32687327765e-07
5.64247355047e-08
5.10221933376e-07
3.55331282269e-07
6.38005771786e-07
5.36608322533e-07
1.72933811806e-06
2.43863440805e-06
3.29502923312e-06
2.43271033401e-06
2.60087704385e-06
1.40526878289e-06
1.31270477978e-06
3.70584768759e-08
2.76156098525e-07
1.08964642839e-07
7.51956427493e-08
9.30045590853e-08
1.301466469e-06
1.13913250473e-06
1.09037043416e-06
3.23307690219e-07
1.59781621962e-07
3.70002502705e-07
3.6847217606e-07
8.03350873055e-07
1.94423555919e-06
1.75608248519e-06
1.64032474206e-06
7.3741487047e-07
8.49887230191e-07
5.44555500284e-07
6.55539650712e-07
3.38514053633e-06
5.59119223083e-06
4.21041291028e-06
4.11534583633e-06
9.46429476409e-07
3.06829715695e-07
1.80961789208e-06
2.8150515134e-06
1.66339364227e-06
4.04035833566e-06
5.62493063393e-07
2.20316005427e-06
2.99583480358e-06
2.30873702296e-07
1.66557309226e-06
3.12013559314e-07
5.18380849721e-07
2.14745180914e-08
2.08709962903e-08
1.27118306886e-06
4.82361030257e-06
1.83381132953e-06
6.58572068746e-06
9.02556732682e-06
2.16888875548e-06
2.15578399671e-06
4.35479429102e-06
7.82979464088e-07
7.86363996767e-07
1.94295717629e-06
4.01417082789e-07
1.2380469533e-06
1.42841016259e-06
8.49621880179e-07
6.6960173712e-07
2.45328098874e-08
7.87234274402e-07
4.34370663854e-07
1.62110012682e-07
2.23511902035e-07
5.48062018088e-07
2.17574393905e-07
1.01414933371e-07
3.1823593155e-07
1.46144379169e-07
4.19246201577e-07
3.85696856924e-07
6.06688427331e-07
1.66699999846e-07
5.19812486679e-08
6.57540777946e-07
7.5348724334e-07
4.45824123218e-07
2.94399303651e-07
1.46165154807e-07
4.89174082452e-07
4.50736456991e-07
2.43185128098e-07
3.08223909778e-06
3.23566013049e-06
5.36122349776e-06
1.80024402943e-06
4.14094519115e-06
2.18786364319e-06
4.29341594954e-06
1.62803117957e-06
3.09671619775e-06
6.02653782748e-07
3.15276296352e-06
4.84619356247e-06
9.66390019195e-06
1.36546954771e-05
2.78820513017e-05
1.73659973066e-05
1.86092729229e-06
3.11111111678e-06
7.49214198004e-06
1.24712028959e-05
2.62768176878e-05
2.02275508722e-05
2.02505865176e-05
2.52402572081e-06
1.68071191087e-06
9.56355560357e-07
3.22723060782e-06
3.32746708262e-07
2.41385910667e-06
2.13330543819e-06
2.00789118353e-06
2.24219343435e-05
1.91835852632e-05
7.90756610976e-07
1.25907826266e-06
3.02481934906e-06
2.69156228168e-06
2.89618074221e-06
1.57442701017e-06
1.53685678948e-06
3.83260342745e-07
9.9726052743e-07
2.15920823758e-05
1.75529446256e-05
2.48945263629e-05
6.21763869704e-07
9.01469827874e-07
1.45175321756e-07
1.02193308217e-06
2.86668648407e-07
2.89565304444e-06
2.10349081355e-06
5.47404426081e-07
1.11266147991e-06
1.39774997951e-06
7.51649972855e-07
3.11039121997e-07
3.50766270332e-07
1.18518671595e-06
1.66288230829e-06
5.88109376642e-06
1.94214593776e-05
7.05476380071e-06
2.87396204621e-06
1.67150688708e-06
3.40813961203e-06
1.95248159356e-06
1.77420704692e-06
2.5805152225e-06
4.03292538646e-06
6.08049570214e-07
5.50204618874e-07
1.93387804102e-06
3.61379291235e-06
3.55678040359e-05
3.92775422111e-05
2.47185839991e-05
2.7205793146e-05
7.50346369354e-06
1.26061797215e-08
3.60994051225e-07
3.66168118353e-06
2.01946290938e-06
3.28437873584e-06
5.08887538387e-06
3.56375508954e-06
8.57143347424e-08
5.88054140847e-08
6.00599787694e-07
8.56574834329e-07
1.2427453046e-06
1.35720327645e-06
7.64825612611e-06
1.19458218896e-05
1.3968688763e-05
1.23851471752e-05
3.26114843903e-06
5.95134578196e-06
3.90334554558e-06
3.73268879167e-06
1.53267111482e-06
2.42777118375e-06
7.84383452003e-07
3.52275089501e-07
1.26757887909e-07
9.13348565103e-07
3.99835378446e-07
4.63158584607e-07
7.6011927452e-07
3.97582402133e-07
3.58334570598e-07
5.89636935455e-07
8.5717975082e-07
3.0363556752e-06
3.54999334616e-06
5.08731345478e-06
7.05501638123e-06
6.09562689154e-06
4.16651952052e-06
3.07059721455e-06
6.32469865539e-06
9.18916028554e-07
5.51165340834e-07
9.49114217876e-07
1.39934640385e-07
5.23542779788e-06
2.55879984937e-06
5.794482753e-06
6.89921115501e-07
2.61630325076e-06
2.16331962682e-06
3.17523749148e-06
1.13972919785e-06
1.33202743432e-06
1.14172321388e-06
1.81373169454e-06
2.15237119785e-06
5.46865380557e-07
7.2774781375e-07
3.25477366898e-06
2.41342957763e-06
1.6539367592e-06
3.89668776741e-08
1.08483616991e-07
1.64300710502e-06
5.99881250585e-06
9.77280138453e-06
2.84065957284e-06
2.0485581713e-07
1.45876809359e-07
1.96900700453e-08
7.70687406311e-08
6.63832908868e-07
2.71935182106e-06
4.36193815819e-06
6.00084405836e-06
1.08933378053e-05
8.61694204433e-06
4.679336596e-06
1.20472008831e-05
3.76610117025e-06
1.97568901652e-06
1.56821860816e-06
1.04317029894e-06
1.61570047007e-06
3.76012698568e-06
2.70234516013e-07
1.73286833687e-06
1.88648519566e-05
2.40365367976e-05
5.71430650191e-06
9.16120202387e-06
2.09471312835e-06
1.51258455103e-06
6.65328846854e-07
1.62442471705e-07
1.04443073943e-06
7.73880263329e-07
4.79543437451e-07
1.13846137437e-06
1.22205755133e-07
3.82538801162e-06
3.60265142512e-06
1.39282433325e-05
7.8751538632e-06
1.6898019617e-05
4.73133962046e-06
2.76333935798e-07
1.54279496502e-06
2.62524138951e-06
4.10106338601e-06
4.81113291292e-06
2.8594944486e-06
8.6823756438e-07
9.19293677859e-07
2.25489322345e-06
2.09473584024e-05
1.0419325325e-05
2.56516810668e-05
5.19015997827e-06
5.21037764245e-06
9.07302881656e-06
7.87026828087e-07
6.36451659203e-07
7.58046769822e-07
1.71213954519e-06
2.88761978297e-06
3.29446405913e-06
4.4253228828e-06
1.73245701477e-06
6.94810145883e-07
7.23254461008e-07
3.41667536428e-07
1.60037555151e-07