# vtk DataFile Version 3.0
File Name: Molecule/arg/arg_6.0-1.vtk
ASCII
DATASET UNSTRUCTURED_GRID
FIELD FieldData 1
TIME 1 1 double
0.0
POINTS 1076 double
-3.403 0.327 1.604
-3.458 0.149 1.214
-3.138 0.005 1.702
-3.19 -0.164 1.33
-2.981 -0.361 1.858
-3.036 -0.538 1.468
-3.398 0.034 0.803
-3.133 -0.274 0.938
-2.976 -0.654 1.057
-3.231 -0.009 0.408
-2.974 -0.315 0.561
-2.809 -0.697 0.662
-2.971 0.024 0.066
-2.725 -0.284 0.235
-2.549 -0.664 0.32
-2.984 0.046 0.042
-2.617 -0.045 -0.207
-2.63 -0.024 -0.229
-2.351 -0.22 -0.527
-2.365 -0.198 -0.55
-2.2 -0.483 -0.862
-2.216 -0.458 -0.889
-3.215 0.428 -0.189
-2.686 0.062 -0.328
-2.875 0.375 -0.517
-2.48 -0.047 -0.742
-2.657 0.246 -0.92
-2.39 -0.269 -1.153
-2.586 0.057 -1.35
-3.255 0.893 -0.375
-2.908 0.756 -0.67
-2.688 0.604 -1.063
-2.621 0.454 -1.509
-3.1 1.357 -0.484
-2.781 1.137 -0.759
-2.569 0.961 -1.147
-2.488 0.85 -1.602
-2.776 1.74 -0.497
-2.515 1.451 -0.77
-2.319 1.256 -1.157
-2.211 1.177 -1.613
-2.622 1.932 -0.429
-2.434 1.563 -0.734
-2.291 1.743 -0.67
-2.16 1.459 -1.077
-2.01 1.647 -1.011
-1.982 1.439 -1.492
-1.81 1.654 -1.416
-2.666 2.281 -0.134
-2.227 2.054 -0.482
-2.267 2.371 -0.214
-1.881 2.228 -0.637
-1.921 2.545 -0.369
-1.615 2.438 -0.879
-1.659 2.787 -0.585
-2.622 2.533 0.247
-2.227 2.6 0.132
-1.881 2.773 -0.023
-1.614 3.039 -0.203
-2.495 2.657 0.67
-2.111 2.713 0.516
-1.765 2.886 0.361
-1.488 3.163 0.22
-2.925 2.572 1.071
-2.251 2.77 1.005
-2.634 2.694 1.361
-2.033 3.002 1.293
-2.411 2.928 1.645
-1.863 3.333 1.507
-2.279 3.251 1.894
-3.186 2.284 1.521
-2.865 2.437 1.761
-2.64 2.674 2.039
-2.53 2.972 2.328
-3.419 1.801 1.788
-2.888 2.359 1.917
-3.122 1.876 2.185
-2.717 2.558 2.345
-2.979 2.017 2.644
-3.552 1.393 1.822
-3.202 1.735 2.161
-3.319 1.374 2.191
-3.094 1.732 2.585
-3.21 1.376 2.614
-3.107 1.793 3.017
-3.235 1.399 3.05
-3.548 0.964 1.825
-3.316 0.994 2.194
-3.206 1.001 2.617
-3.231 0.984 3.053
-3.408 0.559 1.798
-3.191 0.635 2.17
-3.084 0.647 2.593
-3.095 0.593 3.027
-3.105 0.348 2.085
-3.1 0.088 1.867
-2.97 0.105 2.152
-3.02 0.504 2.546
-2.901 0.29 2.606
-2.978 0.383 3.085
-2.865 -0.346 2.113
-2.52 -0.7 2.425
-2.789 -0.06 2.411
-2.48 -0.378 2.69
-2.828 0.19 2.745
-2.523 -0.123 3.02
-2.645 0.041 3.387
-2.483 -1.039 2.238
-2.249 -0.827 2.688
-2.214 -1.15 2.51
-2.072 -0.978 3.011
-2.036 -1.312 2.826
-2.003 -1.142 3.367
-1.962 -1.514 3.162
-2.359 -1.33 2.011
-2.096 -1.427 2.294
-1.914 -1.599 2.602
-1.826 -1.833 2.912
-2.159 -1.55 1.761
-1.905 -1.637 2.055
-1.716 -1.817 2.356
-1.606 -2.075 2.638
-1.897 -1.684 1.507
-1.655 -1.765 1.813
-1.457 -1.949 2.105
-1.318 -2.222 2.359
-1.592 -1.721 1.268
-1.365 -1.8 1.585
-1.156 -1.986 1.869
-0.984 -2.263 2.097
-1.926 -1.641 1.017
-1.351 -1.766 0.91
-1.664 -1.691 0.675
-1.133 -1.941 0.578
-1.457 -1.864 0.334
-0.96 -2.23 0.303
-1.327 -2.142 0.027
-2.203 -1.444 0.759
-1.923 -1.507 0.433
-1.726 -1.673 0.084
-1.631 -1.926 -0.256
-2.396 -1.15 0.52
-2.103 -1.231 0.209
-1.913 -1.387 -0.149
-1.843 -1.603 -0.519
-2.487 -0.785 0.321
-2.189 -0.889 0.022
-2.002 -1.032 -0.342
-1.943 -1.202 -0.738
-2.264 -0.668 -0.026
-2.322 -0.554 -0.027
-2.141 -0.611 -0.433
-2.203 -0.492 -0.433
-2.131 -0.618 -0.861
-2.114 -0.682 -1.181
-1.927 -1.264 -1.052
-2.312 -0.441 -1.376
-2.121 -0.506 -1.916
-2.042 -0.816 -1.214
-1.838 -0.886 -1.79
-1.682 -1.348 -1.746
-1.975 -0.256 -2.322
-1.864 -0.768 -1.888
-1.672 -0.441 -2.421
-1.897 0.192 -2.527
-1.57 0.147 -2.691
-1.996 0.646 -2.441
-1.495 0.306 -2.776
-1.602 0.798 -2.682
-1.198 0.386 -3.152
-1.328 0.981 -3.039
-2.011 1.039 -2.18
-1.619 1.224 -2.399
-1.348 1.496 -2.696
-1.72 1.257 -2.235
-1.631 1.561 -2.005
-1.259 1.801 -2.466
-1.479 1.817 -1.75
-1.107 2.057 -2.211
-1.346 2.153 -1.415
-1.642 2.007 -1.116
-1.319 2.584 -1.178
-0.816 3.013 -1.267
-1.159 2.356 -1.471
-0.676 2.767 -1.557
-1.087 2.175 -1.825
-0.583 2.604 -1.915
-0.543 2.537 -2.312
-0.229 3.384 -1.004
-0.488 2.934 -1.522
-0.105 3.176 -1.351
-0.228 2.93 -1.855
0.02 3.086 -1.745
-0.059 3.001 -2.236
0.134 3.123 -2.15
0.003 3.141 -2.63
0.229 3.284 -2.529
-0.048 3.337 -3.001
0.294 3.553 -2.848
0.466 3.148 -0.891
0.348 3.022 -1.277
0.313 2.987 -1.697
0.364 3.045 -2.112
0.497 3.193 -2.485
0.699 3.415 -2.782
0.833 2.913 -0.61
0.553 2.897 -1.196
0.905 2.671 -0.926
0.699 2.74 -1.539
1.067 2.504 -1.257
0.892 2.689 -1.891
1.303 2.425 -1.576
1.057 2.557 -0.305
1.12 2.33 -0.634
1.29 2.148 -0.952
1.553 2.026 -1.234
0.979 2.767 0.195
1.24 2.204 -0.113
1.167 2.404 0.362
1.539 1.918 0.039
1.462 2.128 0.539
0.737 2.845 0.68
0.936 2.478 0.823
1.22 2.206 1.024
0.406 3.093 0.833
0.701 2.629 1.02
0.405 2.851 1.157
0.756 2.48 1.392
0.466 2.698 1.526
0.897 2.411 1.765
0.584 2.646 1.91
1.112 2.426 2.108
0.748 2.699 2.276
0.102 3.399 0.689
0.142 3.058 1.218
-0.121 3.323 1.093
-0.01 3.117 1.656
-0.27 3.379 1.533
-0.034 3.266 2.099
-0.327 3.561 1.96
-0.29 3.571 0.538
-0.462 3.472 0.961
-0.606 3.526 1.403
-0.705 3.727 1.814
-0.721 3.587 0.398
-0.837 3.486 0.84
-0.976 3.54 1.283
-1.123 3.742 1.679
-1.138 3.445 0.287
-1.199 3.363 0.744
-1.333 3.418 1.189
-1.525 3.605 1.572
-1.502 3.118 0.685
-1.632 3.177 1.131
-0.05 3.403 2.531
0.304 2.919 2.221
0.288 3.057 2.654
0.729 2.855 2.766
-0.175 3.437 2.964
0.162 3.091 3.09
0.587 2.894 3.259
-0.395 3.364 3.353
-0.059 3.019 3.48
0.337 2.812 3.701
-0.687 3.194 3.654
-0.352 2.847 3.783
0.006 2.617 4.044
-1.13 3.18 3.766
-0.58 2.815 3.881
-1.094 2.799 4.011
-1.584 3.151 3.721
-1.62 2.766 3.959
-1.995 3.111 3.523
-2.096 2.719 3.73
-2.312 3.063 3.198
-2.464 2.664 3.352
-2.498 3.015 2.783
-2.679 2.608 2.871
-0.749 2.537 4.164
-0.16 2.345 4.321
-0.912 2.194 4.368
-0.321 2.009 4.521
-1.061 1.806 4.483
-0.466 1.628 4.634
-1.364 2.231 4.354
-1.452 1.611 4.604
-1.713 1.977 4.492
-1.735 2.528 4.103
-2.033 2.233 4.276
-2.128 2.66 3.763
-2.373 2.347 3.982
-2.496 2.611 3.374
-2.69 2.305 3.646
-2.791 2.388 2.985
-2.945 2.113 3.311
-1.464 1.095 4.666
-0.956 1.592 4.533
-0.968 1.074 4.596
-0.48 1.041 4.705
-1.655 0.731 4.634
-1.079 0.886 4.596
-1.26 0.541 4.565
-0.689 0.687 4.666
-0.881 0.322 4.633
-0.333 0.517 4.869
-0.555 0.096 4.831
-2.027 0.463 4.516
-1.383 0.368 4.531
-1.728 0.119 4.423
-1.114 -0.009 4.584
-1.476 -0.27 4.469
-0.878 -0.357 4.785
-1.3 -0.661 4.651
-2.342 0.241 4.242
-2.019 -0.087 4.169
-1.783 -0.487 4.202
-1.658 -0.914 4.34
-2.557 0.093 3.848
-2.219 -0.224 3.803
-1.993 -0.631 3.818
-1.903 -1.082 3.892
-2.301 -0.273 3.375
-2.078 -0.682 3.368
-0.557 -0.612 4.999
-0.228 -0.165 5.05
-0.202 -0.89 5.102
0.134 -0.447 5.155
0.164 -1.171 5.088
0.507 -0.734 5.141
0.347 -1.566 4.993
0.615 -0.976 5.092
0.789 -1.35 5.001
1.043 -0.806 5.264
1.226 -1.201 5.169
0.533 -1.916 4.791
0.965 -1.683 4.809
1.412 -1.551 4.967
0.709 -2.198 4.495
1.133 -1.951 4.529
1.588 -1.833 4.672
0.864 -2.393 4.127
1.28 -2.136 4.179
1.743 -2.029 4.303
0.987 -2.488 3.71
1.397 -2.227 3.783
1.866 -2.124 3.886
1.07 -2.477 3.273
1.475 -2.216 3.368
1.949 -2.112 3.449
1.107 -2.36 2.845
1.511 -2.104 2.962
1.986 -1.995 3.021
1.096 -2.144 2.456
1.5 -1.9 2.592
1.975 -1.78 2.632
1.037 -1.846 2.131
1.444 -1.616 2.284
1.916 -1.481 2.307
0.647 -2.269 2.118
0.836 -1.714 1.711
0.512 -2.064 1.7
0.77 -1.662 1.233
0.47 -1.987 1.224
0.848 -1.697 0.757
0.525 -2.047 0.746
1.061 -1.813 0.337
0.67 -2.236 0.324
0.119 -2.499 2.107
0.075 -2.255 1.691
0.064 -2.164 1.215
0.088 -2.237 0.737
0.142 -2.466 0.313
-0.457 -2.497 2.099
-0.401 -2.253 1.685
-0.378 -2.162 1.209
-0.389 -2.235 0.73
-0.434 -2.464 0.306
-0.837 -2.059 1.682
-0.782 -1.983 1.207
-0.825 -2.042 0.728
1.48 -1.078 0.031
1.028 -1.535 0.641
1.346 -0.978 0.409
1.078 -1.33 0.996
1.331 -0.887 0.812
1.205 -1.217 1.373
1.436 -0.812 1.205
1.4 -1.205 1.737
1.652 -0.762 1.553
1.644 -1.296 2.058
1.961 -0.739 1.826
2.335 -0.746 2.002
1.639 -0.712 -0.547
1.451 -0.719 0.207
1.594 -0.39 -0.313
1.526 -0.39 0.423
1.664 -0.072 -0.079
1.697 -0.118 0.66
1.842 0.216 0.134
1.696 -1.103 -0.765
1.721 -0.524 -0.905
1.774 -0.881 -1.103
1.914 -0.328 -1.213
1.966 -0.68 -1.408
2.201 -0.141 -1.444
2.257 -0.517 -1.652
1.645 -1.46 -1.037
1.727 -1.206 -1.352
1.92 -1.0 -1.653
2.207 -0.859 -1.914
1.488 -1.753 -1.343
1.584 -1.473 -1.631
1.779 -1.262 -1.928
2.057 -1.14 -2.207
1.239 -1.959 -1.658
1.357 -1.661 -1.918
1.555 -1.448 -2.211
1.818 -1.338 -2.51
0.916 -2.062 -1.958
1.063 -1.755 -2.191
1.266 -1.54 -2.479
1.509 -1.437 -2.797
0.547 -2.053 -2.217
0.726 -1.747 -2.428
0.934 -1.532 -2.712
1.154 -1.428 -3.046
0.159 -1.934 -2.416
0.372 -1.638 -2.609
0.586 -1.425 -2.891
0.782 -1.314 -3.237
0.031 -1.437 -2.721
0.25 -1.227 -3.001
0.423 -1.103 -3.355
-0.548 -1.409 -2.576
-0.272 -1.16 -2.755
-0.048 -0.954 -3.034
0.104 -0.811 -3.39
-0.822 -1.287 -2.506
-0.408 -0.948 -2.806
-0.669 -0.831 -2.739
-0.336 -0.591 -3.197
-0.616 -0.466 -3.125
-1.31 -1.347 -2.194
-0.988 -0.705 -2.664
-1.485 -0.767 -2.346
-0.33 -0.315 -3.523
0.111 -0.551 -3.697
0.323 0.082 -4.134
0.101 0.716 -4.098
0.516 0.418 -4.238
-0.411 1.252 -3.909
0.252 1.048 -4.202
-0.118 1.435 -4.065
0.377 1.347 -4.4
0.11 1.626 -4.301
-0.398 1.946 -3.588
-0.108 1.937 -3.833
0.117 1.987 -4.134
-0.712 2.237 -2.975
-0.187 2.28 -3.528
-0.425 2.5 -3.065
-0.042 2.651 -3.554
-0.227 2.824 -3.192
0.028 3.029 -3.665
-0.135 3.18 -3.347
-0.298 2.727 -2.563
-0.128 3.001 -2.799
0.9 3.106 -3.671
0.147 2.667 -3.761
0.845 2.729 -3.765
0.177 2.31 -3.921
0.876 2.372 -3.926
1.128 2.855 -3.473
0.819 3.383 -2.845
1.063 3.077 -2.811
1.418 2.615 -3.364
1.354 2.837 -2.702
1.749 2.404 -3.353
1.668 2.681 -2.526
0.858 3.054 -2.621
0.721 3.091 -2.55
0.962 2.795 -2.335
0.787 2.842 -2.245
1.123 2.627 -2.01
1.688 2.19 -1.733
1.386 2.606 -2.284
1.794 2.29 -2.083
1.962 2.454 -2.382
2.133 1.624 -1.992
2.116 1.881 -2.27
2.194 2.159 -2.516
2.141 1.301 -1.585
2.428 1.273 -2.257
2.435 0.969 -1.874
2.042 0.907 -1.262
2.342 0.599 -1.57
1.981 1.32 -1.261
1.884 0.909 -0.851
1.83 1.271 -0.85
1.861 0.913 -0.411
1.81 1.26 -0.41
1.976 0.918 0.014
1.921 1.286 0.015
1.815 1.702 -1.251
1.684 1.607 -0.842
1.669 1.581 -0.402
1.772 1.628 0.023
1.454 1.892 -0.826
1.449 1.855 -0.388
1.867 0.812 -0.4
1.753 0.215 -0.299
1.896 0.717 -0.83
1.788 0.151 -0.734
2.06 0.644 -1.234
[...]
CELL_DATA 2148
SCALARS cell_data_0 double
LOOKUP_TABLE default
1.22740555084e-06
1.80538904404e-06
6.50885039814e-07
3.33945533567e-07
1.76598556109e-06
1.53086560587e-06
1.15860332194e-06
1.14927220072e-06
2.28366449002e-06
2.35518400797e-06
1.65104367654e-06
1.61858703389e-06
1.36502266613e-06
4.13275866025e-07
1.14085868355e-06
2.41584999677e-07
2.75700776411e-08
9.47513705047e-08
1.66759725897e-08
1.64562562381e-07
1.11068863479e-07
1.67378011856e-07
2.61097863237e-07
4.36240301053e-07
1.40591062751e-07
1.97403244065e-07
7.71291015106e-07
6.97982095401e-07
2.07465719293e-06
1.41906483597e-06
4.35861438665e-07
3.09850623358e-07
1.3092316765e-08
1.46386376325e-07
3.16229955701e-06
2.30571267424e-06
1.37904206321e-06
1.16709853984e-06
4.63175679004e-07
4.28929391829e-07
2.08698882394e-06
6.27461252269e-07
1.2117233687e-06
3.41474543029e-07
3.10715900356e-07
1.07635388047e-06
2.50513916771e-07
3.42203654774e-07
2.62717477028e-07
3.0103649405e-07
8.43671971565e-07
1.06172320058e-06
1.71263770757e-06
2.51364591953e-06
1.69359839272e-06
2.30455777714e-06
7.83045220225e-07
1.42955764788e-06
4.68798448371e-06
5.0324337565e-06
4.13039771882e-06
4.31574043312e-06
3.22036202033e-06
4.18732009592e-06
4.88261101037e-06
3.67259962387e-06
4.65748635861e-06
4.88083563845e-06
5.32039502361e-06
3.79283130416e-06
7.52346963011e-06
1.02028359128e-05
1.04590495375e-05
1.05475224813e-05
7.09819694889e-06
9.16656753928e-06
1.00803473604e-05
8.08894285404e-06
9.63471046202e-06
7.46823372392e-06
9.72601930679e-06
8.88640862632e-06
3.58438683848e-06
2.06222925162e-06
4.95628350588e-06
8.16773621127e-06
4.99595144879e-06
8.16526662176e-06
6.12471169028e-06
8.58869153629e-06
5.54425040502e-06
4.88428094937e-06
8.52471226336e-06
4.62044095945e-06
7.6353111193e-06
6.00406974092e-06
5.55922261856e-06
3.03879986067e-06
3.21735998006e-06
3.62968118529e-06
4.08250727053e-06
4.24746512401e-06
3.14204173662e-06
2.01514771246e-06
1.05189395927e-06
3.2902706693e-07
3.55227748322e-06
4.68621491112e-06
3.99998694485e-06
2.50102163305e-06
2.19439499248e-07
1.66813870591e-07
8.60088884458e-06
8.57414658367e-06
2.43165837705e-05
1.09497857262e-05
1.38283176375e-05
2.26703022943e-06
2.74902090921e-06
8.94422070268e-06
5.227378385e-06
3.5050854309e-06
1.44257982441e-06
1.17373578701e-06
1.00039420021e-05
7.50362795118e-06
5.20201740978e-06
9.20680404755e-07
1.23311869529e-07
3.174337514e-06
4.06503544228e-06
2.92585313498e-06
1.88649712271e-06
9.4159242564e-07
3.18262963207e-06
4.48014753494e-06
3.08338791134e-06
8.59964364899e-07
3.11862824704e-07
3.85400337078e-07
1.62519143612e-06
1.53732728547e-06
6.5086013397e-07
1.89459430934e-07
1.04834962124e-07
1.14382893664e-07
2.26002202978e-07
1.02026658664e-08
2.44816988634e-07
2.63701442895e-07
4.58938801533e-07
3.93257573008e-07
3.8820056241e-07
2.25398433597e-07
4.75671496822e-08
1.16273201564e-07
2.08637769568e-07
1.31231575303e-07
1.6491584923e-07
6.18397742639e-08
4.30306759678e-07
3.45426902362e-07
1.537357918e-08
1.91938529059e-07
2.16091384748e-07
2.74469432345e-07
3.39264483304e-07
3.43860286617e-07
4.09148741622e-07
6.41688943623e-07
5.40122197742e-07
4.91224512248e-07
1.67517344996e-07
2.59607301077e-07
2.6657110187e-07
3.05661727105e-07
3.14471301279e-07
3.78778029946e-07
5.71592688464e-08
1.02226881387e-06
7.17617118562e-07
5.92291638451e-07
1.12709284433e-06
1.44189636434e-06
1.26953047731e-06
4.64084892602e-07
6.71786898426e-07
1.1723217009e-06
7.53930002681e-07
7.51409352706e-07
1.7606927166e-06
2.01332073607e-06
2.41038996109e-06
2.8224191688e-06
1.84953561465e-06
2.40663081992e-06
2.19914901091e-06
2.5828685168e-06
1.7578092958e-06
2.53792993983e-06
2.28397425986e-06
2.48312682207e-06
2.61945212067e-06
2.99644689404e-06
2.24548214341e-06
2.03128083654e-06
1.66413377426e-06
1.08971810215e-06
1.54373748904e-06
1.64659612087e-06
1.87781969886e-06
3.29738755652e-06
4.04658261992e-06
5.04711508936e-06
1.46171883872e-06
1.11142076373e-06
1.38169236778e-06
1.04935243148e-06
1.75201704656e-06
1.46509098485e-06
1.60032212758e-06
6.53285488453e-07
1.30480929565e-06
2.22371409692e-06
1.36584702261e-06
1.31096074335e-06
1.62392147965e-06
1.24595314678e-06
1.14303675113e-06
1.09534867772e-06
5.65661718527e-07
1.41836658067e-06
1.35643188499e-06
3.76591121395e-06
1.90550498857e-06
2.65313590527e-06
3.31107938114e-06
3.66835944261e-06
3.73118160795e-06
4.14994977707e-06
2.27829031918e-06
1.9312492118e-06
2.2073608291e-06
1.02611853526e-06
2.04671363561e-06
2.47948133581e-06
5.88485284801e-07
1.26139811369e-07
9.61424722793e-07
4.09148968811e-07
5.344796387e-07
1.23844411224e-06
3.86327930184e-07
5.93061425147e-07
8.95041521703e-07
9.24618006809e-07
1.03539829593e-06
1.11593882582e-06
1.17515103167e-06
1.3165570369e-06
1.26656430704e-06
1.45956641318e-06
1.10578174781e-06
1.01311387773e-06
1.05980546059e-06
8.15914992181e-07
6.80679408054e-07
4.19843876103e-07
7.07763253081e-07
3.07160784657e-07
4.47085839458e-07
3.28329624081e-07
3.81683865552e-07
2.68301048348e-07
2.28034755934e-07
2.16628912153e-07
2.32769833352e-07
2.66854945537e-07
2.44083906233e-07
1.31054496245e-07
3.77876761998e-07
3.56411419961e-07
3.04296558358e-07
2.81947545493e-07
1.69730781312e-07
3.79785796372e-08
2.75078670579e-07
2.52960207877e-07
3.9486997453e-07
3.19170361852e-07
1.56519954511e-07
5.32035100427e-07
2.30967841313e-07
2.84228834146e-07
6.93445690953e-07
1.47863541637e-06
1.70907575468e-07
2.55516792877e-07
6.96381371922e-07
1.01025700678e-06
7.23067137865e-07
1.4815255208e-06
3.75362400008e-07
1.13698982592e-06
1.87345483496e-06
2.44238370234e-06
3.66855047194e-06
1.96963400358e-06
4.1057714554e-06
4.29877647399e-06
3.77130296663e-06
7.78360092156e-08
4.56000382468e-08
1.18353364699e-07
2.29982742683e-08
5.69731561521e-08
5.31774241294e-08
4.76053337197e-08
1.20361557578e-06
3.81408369127e-06
1.4432423254e-07
8.57667405884e-08
4.48568010069e-07
1.24977966157e-06
1.46056970438e-06
1.08708132562e-06
7.7559483122e-07
2.75333351993e-06
5.33201632555e-06
7.28226625899e-06
1.23860386744e-05
1.21510180856e-05
2.03586610431e-05
2.00144655679e-05
2.28072208827e-05
2.07965930807e-05
1.57404988359e-05
1.1032650277e-05
4.43577450108e-06
7.59159272071e-06
7.96181487618e-06
2.7133578198e-06
2.66101936651e-06
3.41734359807e-06
5.59820695521e-06
3.35222455199e-06
2.31764291943e-06
1.06733686243e-06
6.08263765518e-07
4.85204159406e-07
5.19650184504e-07
4.64736525212e-07
6.54670078485e-07
4.66544151551e-07
1.87205572989e-07
1.18461883302e-08
2.42492474903e-07
2.83400729416e-07
5.34105273519e-08
1.32830287261e-06
8.24016911172e-07
3.44593172013e-06
2.34339711053e-06
3.87803733625e-06
2.63367428711e-06
5.67732145334e-06
3.4615116794e-06
2.93711969379e-06
4.49918362846e-06
1.39978080529e-07
6.75964798958e-07
1.38182872187e-06
6.32007386425e-07
1.44886244694e-06
4.49328038715e-06
6.89094360846e-06
5.16160652925e-06
1.85908881733e-06
3.97877273009e-07
7.50582322816e-07
7.42864483199e-07
2.44933224867e-06
1.62232793457e-06
1.51106572631e-06
2.24813489431e-06
2.43094531613e-06
1.08041555749e-06
1.15947031509e-06
1.34483406864e-06
3.05509419157e-06
2.70186754267e-07
3.00827102155e-07
1.56207019185e-06
1.42323818967e-07
1.9693281927e-06
1.50257575518e-06
1.31478323226e-06
2.24658860181e-06
1.83595507665e-06
1.18144209308e-06
1.28044596112e-06
1.15085372999e-06
3.3235364067e-07
5.80793222763e-07
9.21905216222e-07
7.45489234186e-07
1.35885790827e-07
1.12849168924e-06
1.28003777852e-06
2.18929665624e-06
2.68230211259e-07
1.04988236964e-07
1.60388020662e-06
2.58698826997e-07
8.33964873696e-07
2.9145187736e-07
6.00433646997e-07
6.65301908248e-07
1.58486043149e-06
2.42852989989e-07
1.22351223938e-06
2.12675245658e-06
6.79630968161e-07
7.31695738329e-07
3.31961937574e-07
2.13905959573e-08
1.63423231956e-06
3.40030802546e-06
4.50993040251e-06
2.25034601151e-06
1.13984442986e-06
4.39712717496e-07
3.64591362109e-07
2.77022134659e-06
4.2281296939e-06
2.66813802512e-06
5.02689722672e-07
2.6326257842e-06
2.24019886172e-07
6.69845389765e-07
3.25786675166e-06
4.71659867758e-06
2.77992749932e-06
2.11903984012e-07
2.3530075369e-06
2.21807071348e-06
4.06701469708e-06
1.54319318407e-06
9.33946418853e-07
4.14686411052e-06
5.837859343e-06
2.87836881161e-06
6.01987469987e-08
1.98514169435e-06
1.64789603027e-06
8.61499778509e-07
7.86219300099e-07
7.64511803069e-07
4.98945791661e-07
7.23157538386e-07
8.23657881833e-07
4.69652266226e-07
5.02500423307e-07
1.45037841359e-07
9.28147897947e-07
2.5356806952e-07
2.42470584959e-07
1.75505770872e-07
7.77430238331e-07
1.71870341024e-06
2.35677771657e-08
3.73227662914e-07
2.59744552102e-07
1.84407320604e-06
2.59262063191e-06
3.52547599802e-06
2.15428410386e-06
2.37765024501e-06
2.39100835067e-06
2.91377732656e-06
2.85850252666e-06
1.33300897345e-06
1.58890834214e-06
1.8015978907e-06
3.39807341496e-06
1.91041368493e-06
3.92719002243e-08
1.86745401151e-06
6.03784250673e-06
1.5924461723e-05
7.68589564553e-06
2.04473800574e-05
1.68267324938e-05
4.15847545923e-05
2.20153852933e-05
2.39040421229e-05
3.64055811279e-05
4.66202577596e-05
5.46877868252e-05
4.32669571722e-05
2.34334959521e-05
3.26534356107e-05
2.5825584957e-05
2.62424209683e-05
1.58824034218e-05
1.88267773154e-05
1.44201790761e-05
2.19433601909e-05
2.15530336315e-05
3.1873044007e-05
2.83779228248e-05
2.09993174937e-05
1.50225138576e-05
2.93119581543e-06
8.11294772223e-06
8.23310147957e-06
3.06308719978e-06
5.60098915258e-06
1.09077088092e-05
1.20640579813e-05
3.62896365087e-06
4.98824436606e-06
1.59756124148e-05
4.47227293369e-06
3.48784246396e-06
5.3151746481e-06
1.95926165042e-06
2.80128653405e-06
1.21981594487e-06
3.35507481773e-06
1.76098322222e-06
5.80341807617e-06
6.61486418535e-06
2.57391259255e-06
1.45628566907e-06
1.06247656571e-06
9.22059323003e-06
8.83968808514e-06
6.09239948386e-06
4.79328651096e-06
5.59348966842e-06
5.12528873432e-06
7.50596516316e-06
2.02207031841e-06
1.43388763054e-05
1.03282813661e-05
5.53844628935e-06
6.12815886219e-06
6.84906995706e-06
1.23732247489e-05
9.18595035316e-06
7.41284935652e-06
8.79172149136e-06
2.09611153556e-05
1.62910693834e-06
1.76704914531e-06
1.86412278827e-06
2.31964140521e-06
3.98579820147e-06
5.31428465226e-06
1.27555267867e-05
4.85088847359e-06
8.74824806165e-06
6.4902161822e-06
6.4615351868e-06
6.05502013313e-06
5.51485835051e-06
7.17380885896e-06
3.51395254546e-06
3.75897559021e-06
1.62936907023e-06
2.3745691345e-06
4.74885696977e-07
2.17102232913e-07
3.47907575648e-07
3.51071903041e-07
4.43133137302e-07
7.48450524338e-06
1.89108901965e-07
2.34615914242e-07
1.00580731968e-06
5.01270983054e-06
1.22205758139e-05
1.05387904878e-05
1.07437347979e-06
8.75255416528e-07
5.72055812911e-06
1.14982937333e-05
8.33113952547e-06
2.12243371536e-06
9.23049957738e-07
5.14347328232e-06
1.09768512999e-05
2.90189260846e-05
1.36127181801e-05
8.33578960616e-06
1.01250690269e-06
4.20424949068e-07
1.49679589532e-05
6.96891260054e-06
4.47575257175e-06
2.5789258217e-06
2.87090875688e-05
1.54028569983e-05
6.740310179e-06
6.58921769391e-06
2.03184336563e-05
7.3523318453e-06
1.07802186861e-05
2.16545757541e-06
1.44933232801e-07
7.28608286739e-07
3.34307166094e-06
3.05208553979e-06
1.26377729267e-06
3.35005339116e-07
1.01046044514e-06
1.00257239944e-06
2.26914102928e-07
4.33979620087e-07
2.64688345129e-07
1.27005458421e-06
2.82253307684e-06
1.82760842862e-06
1.11258848387e-06
8.6945179394e-07
2.16644502067e-06
2.98546227043e-06
4.66526745855e-07
1.27716265929e-07
1.6577800563e-07
5.30638000115e-08
1.33817257049e-09
2.01196080933e-07
9.0462480674e-08
3.60472110107e-07
8.37729364639e-08
1.87408369562e-07
9.15122515597e-08
5.49088493835e-07
4.76187376514e-07
7.12245477443e-07
4.24092205009e-07
7.47794384636e-07
3.31615999996e-07
6.88047597281e-07
1.20978365214e-06
1.86578600247e-06
1.18038357629e-06
7.50056803371e-07
3.07464323338e-07
2.44176395773e-06
6.65822501037e-07
9.26149473734e-07
1.70528380367e-06
1.79537913273e-06
1.25323580562e-06
2.16081087483e-06
3.35466211831e-06
4.15906746121e-06
7.5798194673e-06
1.62406406201e-05
9.0239733063e-06
7.98085805806e-06
6.09447034735e-06
5.07962420327e-06
1.37963062639e-05
2.8043654307e-06
6.19296716878e-08
4.17778452655e-07
8.11720380273e-07
1.72657358074e-06
3.80964222794e-06
3.23562068068e-06
2.86326262201e-06
4.33834115318e-06
3.97071897004e-06
2.8500471732e-06
3.23738739554e-06
3.08976039332e-06
2.1978827811e-06
1.80329758441e-06
1.89622720535e-06
1.19829487365e-06
9.16499033134e-07
1.01225955052e-06
1.01837052374e-06
1.09255936506e-06
6.21917771833e-07
4.1855281372e-07
5.50753316639e-07
4.15495798001e-07
2.41022295582e-07
2.24568794295e-07
6.11609693408e-08
3.6085533054e-07
1.97876798509e-06
1.99973655823e-07
5.9940797797e-08
9.48978759525e-09
3.21631043874e-06
6.79848067521e-06
7.65641250371e-06
9.16433917373e-06
5.02955761881e-06
4.00366515225e-06
1.32923371393e-06
1.09571155806e-06
1.63393335464e-07
9.75039090822e-08
6.35115232847e-07
7.95117736436e-07
1.07413332713e-06
6.96435837389e-07
8.09953864102e-07
1.72623675909e-07
1.03660216558e-06
7.47615672817e-07
3.98407453393e-07
6.99264806276e-08
4.99354202085e-08
1.35637116238e-06
7.77870839793e-07
3.76306913837e-08
1.07496003527e-07
8.44129604289e-08
1.74890633465e-06
8.19687033003e-07
8.7219762825e-07
1.03195807133e-06
5.04677590569e-07
3.99072616843e-07
6.02526618827e-07
2.09438278155e-07
1.29755821859e-06
2.71281211094e-06
6.08788312217e-06
2.39748120929e-06
4.19391160609e-06
2.41653694453e-06
4.08919503158e-06
3.64637736093e-06
3.03916670794e-06
1.58248443783e-06
1.66281847957e-06
2.94364549793e-06
2.99307526843e-06
1.43560061866e-06
8.6401676368e-07
1.70504733479e-06
2.60991729646e-06
4.60828256027e-06
2.70105555963e-06
6.30158937773e-06
1.13004868929e-05
1.04571767715e-05
6.03686854517e-06
1.28150431566e-06
1.28118674193e-06
3.21003086284e-07
9.59033953353e-07
1.45887017239e-06
7.54815079996e-07
7.07369439375e-07
4.39249566696e-07
7.57205108346e-07
6.81618435544e-08
9.77649889445e-08
4.37873191797e-07
7.36799663993e-07
5.45874329379e-07
1.1580421574e-06
8.88084057967e-07
9.02306938295e-07
2.94065615837e-07
7.96452789254e-08
8.76125558149e-07
9.58299810318e-07
8.48642298219e-07
4.27161809211e-07
3.07887605756e-07
5.02457890366e-08
9.65712242795e-08
6.14128816813e-08
2.05551072274e-08
4.12344271663e-07
3.50492358093e-07
5.72228810624e-07
5.49690437775e-07
2.24820243149e-06
2.1449473959e-06
1.00148742755e-06
8.29606012191e-07
2.24022910517e-06
2.26914824132e-06
3.52277963722e-07
5.39514258979e-07
3.90670873582e-06
2.80931555654e-06
2.44068528201e-06
1.13065150205e-06
6.35305704835e-07
2.76505080738e-06
2.82057759147e-06
3.96423944126e-06
3.85873054877e-06
4.0859436303e-06
3.18930830942e-06
2.39251436761e-06
1.27892574736e-06
8.21685742109e-07
1.35104676286e-06
1.17899061317e-06
2.80456772837e-06
6.03858272532e-07
9.19364439922e-07
1.4227110524e-06
9.47299216266e-07
1.2258317163e-06
7.75432933558e-07
5.83021251467e-07
5.10604783084e-07
1.53078028728e-06
8.56630918236e-07
7.82090079364e-07
7.72669723451e-07
8.30396587105e-07
1.61918889066e-06
6.4909763694e-07
1.77970463963e-06
9.74305603551e-07
7.98826992987e-07
5.40622193403e-07
5.52772155467e-07
2.0636063985e-06
1.82694474078e-06
1.2416426278e-06
2.89903040924e-06
3.72576946658e-06
2.61770464962e-06
6.19749573791e-07
1.30115540735e-06
1.5878155204e-06
1.09916933692e-06
4.49926814395e-07
1.51200638702e-07
1.69686814206e-07
6.02051518492e-07
2.10605572718e-06
1.27021211781e-06
5.10784989211e-06
7.59378466652e-07
1.80353617536e-06
1.23431523739e-06
1.7519990208e-06
8.39180065933e-07
1.38587984203e-06
4.55757619977e-06
9.3448443379e-06
1.57334619815e-06
1.4767510705e-06
7.5711815433e-08
1.56535289175e-07
4.3893552539e-07
6.5919035524e-07
1.36992512171e-07
3.65744192207e-07
1.59002461838e-06
1.39087695246e-06
4.76059317738e-09
1.29770953599e-06
8.55963525483e-07
1.12071404511e-06
1.34436265751e-07
1.5125448384e-06
1.25579923555e-06
1.9108828062e-06
6.60034254859e-07
6.83830567226e-06
8.80883881998e-07
2.18164185809e-06
2.70700970428e-07
7.22007812059e-09
7.54479815669e-07
1.04038539853e-06
7.84628344251e-07
4.77869315651e-07
4.31143841848e-07
5.16327266304e-06
1.15985720457e-05
1.7680448455e-05
1.05921999542e-05
2.83525561445e-06
3.01374191951e-06
7.03995210678e-07
1.60717479676e-08
4.88371861621e-07
4.68108339239e-06
5.33901821524e-06
5.81661136203e-06
3.31861459688e-06
4.26919365105e-06
2.52899094297e-06
4.39957234927e-06
4.99714792504e-06
2.04393042941e-06
2.73661585957e-06
2.90060220329e-06
2.91655686955e-06
3.8777733887e-06
4.09434006169e-06
4.34644040807e-06
4.58543791384e-06
2.54346534853e-06
7.65667383387e-06
3.21125885009e-06
2.73654711996e-06
3.08860231895e-06
1.99221180049e-06
3.74683318221e-06
3.08786296473e-06
1.68133413973e-06
1.3926114486e-06
1.01959443901e-06
1.83319882221e-06
4.55100628266e-07
1.38942206854e-07
4.71610144981e-08
4.95493334738e-08
4.14227694701e-06
2.68450494784e-06
2.76005144274e-06
3.543916408e-06
3.35391542032e-07
3.08487540169e-06
1.05406031314e-06
5.18549608605e-07
3.45156327391e-08
1.47797067757e-06
3.80279643206e-06
2.76588949163e-06
4.72949437073e-07
4.66295337588e-07
4.63368397913e-07
3.96744846262e-08
1.12265617001e-07
6.37603859183e-08
1.06358149752e-07
7.43582957936e-08
9.09467134196e-08
8.88176336975e-08
1.03029122042e-07
7.30900078072e-08
9.14020037623e-08
1.74845017731e-08
2.94896748128e-08
1.13607364708e-08
2.37854321063e-08
3.2159247323e-09
5.99588878543e-09
8.5776141523e-10
9.93186786183e-09
3.15902756151e-07
2.72890767747e-07
2.69148238882e-07
6.59288155136e-07
2.07931421423e-07
1.96071734058e-07
4.33714154389e-07
1.25491374521e-07
4.31259098228e-07
2.18706589154e-07
1.76534806434e-07
4.1548975785e-07
1.4399671871e-07
1.62023390521e-07
1.90237501752e-07
1.09618516052e-08
5.26413355289e-07
8.77031041747e-07
7.18368284692e-07
6.57991623779e-07
6.60873891902e-07
3.98577649665e-07
5.02079586045e-07
9.07184134042e-07
8.29562101654e-07
9.17538118203e-07
1.60265315115e-07
6.76632655102e-07
2.86966268585e-07
5.84054833107e-07
1.54917780308e-07
2.16689798181e-07
8.46983773844e-07
4.99162227787e-07
6.72100269658e-07
5.25284456028e-07
2.02828999747e-06
5.04482267118e-07
2.15516702927e-06
1.41833189531e-06
1.75931029805e-06
1.12929019324e-07
3.06658509208e-07
1.70386867708e-06
4.16166933864e-06
1.57861365612e-06
3.32447204568e-08
1.96043680592e-06
3.20077188576e-07
2.37340705109e-06
1.1404036279e-06
2.6852099621e-06
4.81909692298e-07
9.09116954975e-07
9.66611944297e-09
7.26132012618e-07
8.68792092039e-07
7.78818404497e-07
1.36783049e-06
4.74848794229e-09
1.69956049518e-06
1.60369608442e-06
2.23108600102e-06
1.71110752114e-06
2.50052529189e-06
2.34604620681e-06
8.39035445929e-07
5.5600850168e-07
7.86523696267e-07
2.13376306568e-06
3.45746041193e-06
2.0484154073e-06
2.58674897617e-06
5.29001100799e-06
3.45721609848e-06
2.90072677372e-07
4.38130579602e-08
3.02323030792e-07
1.41934351128e-06
1.75747373071e-06
1.04444913688e-06
1.71648960201e-06
2.2490631735e-06
1.01749139181e-06
8.20103156672e-07
1.7796788796e-07
8.01180917583e-07
5.38256175373e-09
3.3726178853e-07
2.63969034016e-08
4.20024723029e-08
1.84286309263e-07
1.66984373378e-07
3.18790409339e-07
3.077774445e-07
6.48899309433e-07
8.30881644184e-07
5.71749610391e-07
9.05367033879e-07
4.44477883884e-07
6.70100650914e-07
5.7428302028e-07
3.18276446354e-07
3.8585947545e-07
4.95760014236e-07
7.02220348051e-07
8.48971414784e-07
2.27977571647e-07
1.53683833739e-07
4.38841531754e-08
5.23833200241e-07
1.83236332996e-06
1.51885196896e-06
2.36638146166e-06
2.9190530595e-07
1.50842493567e-07
9.08540539901e-08
1.61635431828e-07
5.47743361979e-08
9.41397630374e-08
9.2600242448e-09
9.43904404392e-09
1.20495650596e-10
1.12792507598e-07
3.98734702962e-09
1.71273204548e-07
4.14519419026e-07
3.03079657314e-07
2.90006479954e-07
1.61147203707e-09
5.6303676758e-07
5.08589085752e-07
5.14358328474e-07
4.10438959719e-07
3.07236077052e-07
7.1127428992e-07
2.33057479506e-07
3.33298881233e-07
3.64131463324e-07
6.63102941601e-08
1.1267514945e-07
2.60065815442e-07
8.99679452098e-08
1.66777084805e-07
1.73787742099e-07
2.21820428854e-07
6.09882373922e-07
4.99228258044e-07
4.11906025949e-07
9.80414886068e-08
4.24719176552e-07
1.42688807436e-06