# vtk DataFile Version 3.0
File Name: Molecule/arg/arg_4.0-3.vtk
ASCII
DATASET UNSTRUCTURED_GRID
FIELD FieldData 1
TIME 1 1 double
0.0
POINTS 743 double
-3.403 0.327 1.604
-3.45 0.103 1.078
-2.981 -0.361 1.858
-3.028 -0.584 1.332
-3.298 -0.003 0.536
-2.876 -0.691 0.79
-2.971 0.024 0.066
-2.549 -0.664 0.32
-2.984 0.046 0.042
-2.471 -0.12 -0.363
-2.484 -0.099 -0.385
-2.2 -0.483 -0.862
-2.216 -0.458 -0.889
-3.25 0.578 -0.258
-2.57 0.022 -0.532
-2.716 0.926 -0.921
-2.776 1.74 -0.497
-2.407 1.34 -0.951
-2.55 0.723 -1.58
-2.211 1.177 -1.613
-2.622 1.932 -0.429
-2.287 1.501 -0.894
-2.142 1.682 -0.83
-1.982 1.439 -1.492
-1.81 1.654 -1.416
-2.655 2.421 0.048
-2.046 2.135 -0.548
-2.075 2.574 -0.12
-1.615 2.438 -0.879
-1.647 2.927 -0.402
-2.495 2.657 0.67
-1.932 2.785 0.438
-1.488 3.163 0.22
-2.925 2.572 1.071
-2.137 2.872 1.156
-2.512 2.798 1.506
-1.863 3.333 1.507
-2.279 3.251 1.894
-3.186 2.284 1.521
-2.739 2.546 1.897
-2.53 2.972 2.328
-3.419 1.801 1.788
-2.888 2.359 1.917
-3.122 1.876 2.185
-2.717 2.558 2.345
-2.979 2.017 2.644
-3.567 1.179 1.827
-3.133 1.725 2.369
-3.262 1.186 2.403
-3.107 1.793 3.017
-3.25 1.192 3.055
-3.408 0.559 1.798
-3.123 0.649 2.378
-3.095 0.593 3.027
-3.105 0.348 2.085
-3.1 0.088 1.867
-2.97 0.105 2.152
-3.02 0.504 2.546
-2.901 0.29 2.606
-2.978 0.383 3.085
-2.865 -0.346 2.113
-2.52 -0.7 2.425
-2.794 0.071 2.575
-2.491 -0.24 2.849
-2.645 0.041 3.387
-2.46 -1.117 2.184
-2.148 -0.9 2.844
-2.09 -1.3 2.613
-2.003 -1.142 3.367
-1.937 -1.6 3.103
-2.268 -1.45 1.888
-1.906 -1.62 2.328
-1.726 -1.965 2.777
-1.967 -1.659 1.57
-1.617 -1.821 2.023
-1.396 -2.195 2.428
-1.592 -1.721 1.268
-1.257 -1.88 1.733
-0.984 -2.263 2.097
-2.026 -1.588 0.931
-1.237 -1.838 0.739
-1.646 -1.713 0.421
-0.96 -2.23 0.303
-1.437 -2.084 -0.068
-2.342 -1.257 0.596
-1.944 -1.402 0.106
-1.784 -1.721 -0.435
-2.487 -0.785 0.321
-2.08 -0.956 -0.154
-1.943 -1.202 -0.738
-2.189 -0.632 -0.224
-2.248 -0.516 -0.225
-2.131 -0.618 -0.861
-2.114 -0.682 -1.181
-1.927 -1.264 -1.052
-2.312 -0.441 -1.376
-2.39 -0.269 -1.153
-2.121 -0.506 -1.916
-2.042 -0.816 -1.214
-1.838 -0.886 -1.79
-1.682 -1.348 -1.746
-1.975 -0.256 -2.322
-1.864 -0.768 -1.888
-1.672 -0.441 -2.421
-1.897 0.192 -2.527
-1.57 0.147 -2.691
-1.996 0.646 -2.441
-1.495 0.306 -2.776
-1.602 0.798 -2.682
-1.198 0.386 -3.152
-1.328 0.981 -3.039
-2.011 1.039 -2.18
-1.619 1.224 -2.399
-1.348 1.496 -2.696
-1.72 1.257 -2.235
-1.479 1.817 -1.75
-1.107 2.057 -2.211
-1.346 2.153 -1.415
-1.642 2.007 -1.116
-1.319 2.584 -1.178
-0.816 3.013 -1.267
-1.111 2.259 -1.642
-0.623 2.675 -1.729
-0.543 2.537 -2.312
0.466 3.148 -0.891
-0.416 2.926 -1.599
0.331 3.005 -1.38
-0.131 2.956 -2.042
0.328 3.005 -1.907
-0.002 3.1 -2.533
0.456 3.148 -2.398
-0.048 3.337 -3.001
0.699 3.415 -2.782
0.833 2.913 -0.61
0.619 2.806 -1.364
0.976 2.577 -1.092
0.892 2.689 -1.891
1.303 2.425 -1.576
1.057 2.557 -0.305
1.192 2.232 -0.796
1.553 2.026 -1.234
0.979 2.767 0.195
1.539 1.918 0.039
1.462 2.128 0.539
0.737 2.845 0.68
1.22 2.206 1.024
0.406 3.093 0.833
0.71 2.572 1.142
0.419 2.789 1.277
0.841 2.425 1.643
0.539 2.651 1.783
1.112 2.426 2.108
0.748 2.699 2.276
0.011 3.456 0.651
0.05 3.076 1.433
-0.284 3.383 1.279
-0.034 3.266 2.099
-0.415 3.616 1.924
-0.504 3.599 0.465
-0.72 3.504 1.122
-0.913 3.754 1.744
-1.038 3.495 0.311
-1.173 3.416 0.991
-1.429 3.653 1.595
-1.554 3.135 0.914
-0.08 3.426 2.677
0.304 2.919 2.221
0.258 3.08 2.801
0.695 2.881 2.933
-0.313 3.4 3.231
0.024 3.055 3.358
0.431 2.852 3.563
-0.687 3.194 3.654
-0.352 2.847 3.783
0.006 2.617 4.044
-1.222 3.175 3.77
-0.58 2.815 3.881
-1.2 2.794 4.016
-1.756 3.136 3.659
-1.82 2.748 3.887
-2.199 3.083 3.341
-2.333 2.687 3.518
-2.473 3.025 2.87
-2.65 2.619 2.973
-0.832 2.373 4.277
-0.242 2.183 4.431
-1.061 1.806 4.483
-0.466 1.628 4.634
-1.434 2.302 4.313
-1.452 1.611 4.604
-1.773 2.038 4.456
-1.892 2.602 3.976
-2.169 2.297 4.166
-2.355 2.652 3.532
-2.568 2.341 3.783
-2.74 2.445 3.06
-2.9 2.162 3.376
-1.464 1.095 4.666
-0.956 1.592 4.533
-0.968 1.074 4.596
-0.48 1.041 4.705
-1.655 0.731 4.634
-0.882 0.784 4.614
-1.066 0.434 4.582
-0.333 0.517 4.869
-0.555 0.096 4.831
-2.14 0.383 4.441
-1.246 0.178 4.538
-1.7 -0.148 4.358
-0.878 -0.357 4.785
-1.429 -0.753 4.566
-2.498 0.133 3.99
-2.035 -0.382 3.936
-1.836 -1.037 4.053
-2.172 -0.468 3.371
-0.383 -0.749 5.065
-0.05 -0.304 5.117
0.164 -1.171 5.088
0.507 -0.734 5.141
0.4 -1.671 4.946
0.615 -0.976 5.092
0.839 -1.451 4.956
1.043 -0.806 5.264
1.279 -1.306 5.122
0.636 -2.087 4.632
1.063 -1.845 4.659
1.514 -1.722 4.808
0.844 -2.371 4.183
1.26 -2.115 4.232
1.723 -2.007 4.359
1.002 -2.493 3.648
1.411 -2.231 3.724
1.881 -2.129 3.824
1.092 -2.439 3.086
1.496 -2.18 3.191
1.971 -2.075 3.263
1.104 -2.215 2.561
1.508 -1.967 2.692
1.983 -1.85 2.738
1.037 -1.846 2.131
1.444 -1.616 2.284
1.916 -1.481 2.307
0.647 -2.269 2.118
0.798 -1.688 1.555
0.487 -2.024 1.545
0.806 -1.676 0.912
0.496 -2.012 0.902
1.061 -1.813 0.337
0.67 -2.236 0.324
0.119 -2.499 2.107
0.068 -2.206 1.536
0.076 -2.194 0.893
0.142 -2.466 0.313
-0.457 -2.497 2.099
-0.39 -2.205 1.53
-0.381 -2.193 0.887
-0.808 -2.019 1.528
-0.8 -2.007 0.885
-0.434 -2.464 0.306
1.48 -1.078 0.031
1.043 -1.422 0.814
1.323 -0.93 0.61
1.205 -1.217 1.373
1.436 -0.812 1.205
1.797 -0.747 1.701
2.335 -0.746 2.002
1.639 -0.712 -0.547
1.476 -0.549 0.311
1.615 -0.229 -0.195
1.697 -0.118 0.66
1.842 0.216 0.134
0.995 -1.392 -3.136
0.238 -1.387 -2.827
0.523 -1.172 -3.329
-0.152 -1.05 -2.884
0.104 -0.811 -3.39
-0.548 -1.409 -2.576
-0.822 -1.287 -2.506
-0.408 -0.948 -2.806
-0.669 -0.831 -2.739
-0.336 -0.591 -3.197
-0.616 -0.466 -3.125
-1.31 -1.347 -2.194
-0.988 -0.705 -2.664
-1.485 -0.767 -2.346
-1.322 -0.31 -2.728
-0.95 -0.071 -3.189
-0.311 -0.212 -3.619
-0.16 0.24 -3.931
0.101 0.716 -4.098
0.27 -0.03 -4.081
0.516 0.418 -4.238
-0.411 1.252 -3.909
0.377 1.347 -4.4
0.11 1.626 -4.301
-0.398 1.946 -3.588
0.117 1.987 -4.134
-0.106 2.463 -3.53
-0.202 2.855 -2.684
0.028 3.029 -3.665
0.173 2.486 -3.833
0.9 3.106 -3.671
0.85 2.546 -3.838
0.989 2.064 -4.14
1.267 2.733 -3.406
0.819 3.383 -2.845
1.204 2.948 -2.765
1.749 2.404 -3.353
1.668 2.681 -2.526
0.902 2.914 -2.485
0.749 2.956 -2.405
1.123 2.627 -2.01
1.688 2.19 -1.733
1.962 2.454 -2.382
2.133 1.624 -1.992
2.194 2.159 -2.516
2.141 1.301 -1.585
2.428 1.273 -2.257
2.435 0.969 -1.874
2.042 0.907 -1.262
2.342 0.599 -1.57
1.911 1.516 -1.257
1.855 0.911 -0.632
1.743 1.428 -0.628
1.976 0.918 0.014
1.858 1.462 0.018
1.44 1.861 -0.608
1.861 0.778 -0.544
1.751 0.201 -0.446
1.991 0.665 -1.105
1.878 0.074 -1.004
2.201 -0.141 -1.444
2.497 1.237 -3.182
2.241 1.687 -2.422
2.29 1.662 -3.078
2.232 2.14 -3.028
1.83 1.363 -3.817
1.817 1.751 -3.528
1.863 2.209 -3.379
1.382 0.739 -4.338
1.413 1.57 -3.947
1.095 1.128 -4.316
1.103 1.869 -4.167
0.855 1.524 -4.455
0.482 0.901 -4.245
1.404 2.01 -3.684
1.315 2.161 -3.664
2.007 0.383 0.735
1.766 -0.192 1.22
2.031 0.236 1.284
1.991 -0.414 1.693
2.267 0.032 1.759
2.675 -0.196 2.083
2.074 0.941 0.928
2.088 0.713 1.449
2.326 0.528 1.931
2.749 0.417 2.295
1.884 1.434 1.198
1.926 1.135 1.68
2.158 0.967 2.172
2.541 0.959 2.592
1.624 1.884 1.117
1.755 1.469 1.75
1.503 1.904 1.671
1.842 1.579 2.299
1.557 2.073 2.21
1.11 2.216 1.58
1.886 1.845 2.759
2.132 1.224 2.493
2.174 1.477 2.929
2.585 1.225 3.051
1.814 2.002 3.263
2.105 1.625 3.407
2.513 1.382 3.555
1.633 2.033 3.763
1.933 1.655 3.881
2.331 1.413 4.055
1.359 1.937 4.21
1.674 1.563 4.305
2.058 1.316 4.502
1.021 1.721 4.561
1.354 1.359 4.638
1.72 1.101 4.853
0.651 1.408 4.781
1.002 1.062 4.847
1.35 0.788 5.074
0.073 1.245 4.841
0.82 0.891 4.947
0.23 0.725 5.008
0.672 0.387 5.179
1.205 0.294 5.301
0.564 -0.173 5.245
1.099 -0.256 5.367
-1.999 2.782 0.776
-1.065 -1.824 1.176
1.517 -1.238 1.905
1.419 -0.545 0.696
1.7 -0.166 -0.791
1.805 -0.426 -1.067
-3.196 2.043 -0.114
-3.592 1.578 -0.026
-3.592 1.985 0.326
-3.196 2.357 0.319
-3.592 2.137 0.843
-3.196 2.469 0.843
-3.592 1.985 1.36
-3.85 1.69 0.843
-3.85 1.435 1.283
-3.592 0.264 0.574
-3.85 0.672 0.843
-3.85 0.927 0.403
-3.592 0.555 0.121
-3.592 1.045 -0.103
-3.85 1.435 0.403
-3.94 1.181 0.843
-3.85 0.927 1.283
-3.592 0.555 1.565
-3.173 1.207 -0.458
-2.722 -1.154 1.098
-2.722 -1.154 1.636
-2.722 -0.863 2.089
-2.326 -1.497 1.099
-2.482 0.597 -1.975
-2.617 0.185 -1.409
-2.482 0.047 -1.975
0.763 3.18 -0.086
0.367 3.4 -0.61
0.367 3.512 -0.086
0.367 3.4 0.438
-0.118 3.59 -0.615
-0.118 3.688 -0.086
-0.634 3.59 -0.615
-0.634 3.688 -0.086
-1.119 3.512 -0.086
-1.119 3.4 -0.61
-1.119 3.086 -1.043
-0.667 3.796 3.018
-0.667 3.906 2.497
-1.198 3.918 2.998
-1.198 3.65 3.431
-1.198 3.918 1.996
-1.198 4.012 2.497
-1.729 3.906 2.497
-1.729 3.796 3.018
-1.729 3.482 3.449
-1.729 3.796 1.976
-2.179 3.606 2.497
-2.179 3.474 2.987
-2.426 1.073 4.627
-2.876 1.207 4.334
-2.876 0.717 4.202
-2.426 0.566 4.463
-2.876 2.056 3.843
-3.176 1.738 3.353
-3.176 1.472 3.813
-2.876 1.697 4.202
-3.176 0.942 3.813
-2.876 0.358 3.843
-3.176 0.676 3.353
-3.282 1.207 3.353
-1.895 1.335 4.734
-2.426 2.064 4.305
0.578 -2.491 4.272
0.08 -2.472 4.525
0.08 -2.776 4.08
0.578 -2.727 3.81
0.08 -2.934 3.566
0.578 -2.808 3.297
0.08 -2.934 3.028
0.578 -2.727 2.784
0.08 -2.776 2.514
0.08 -2.052 4.861
-0.44 -2.052 4.861
-0.44 -2.472 4.525
-0.44 -2.776 4.08
-0.44 -2.934 3.566
-0.44 -2.934 3.028
-0.44 -2.776 2.514
-0.44 -1.551 5.057
-0.938 -1.149 4.956
-0.938 -1.662 4.875
-0.938 -2.124 4.639
-0.938 -2.491 4.272
-0.938 -2.727 3.81
-0.938 -2.808 3.297
-0.938 -2.727 2.784
-0.938 -2.491 2.322
-1.374 -1.149 4.675
-1.374 -1.677 4.571
-1.374 -2.124 4.272
-1.374 -2.423 3.825
-1.374 -2.527 3.297
-1.374 -2.423 2.769
-1.714 -1.289 4.273
-1.714 -1.795 4.042
-1.714 -2.095 3.575
-1.93 -1.406 3.742
1.624 -1.33 -0.389
1.408 -1.719 -0.089
1.408 -2.019 -0.556
1.068 -2.347 -0.306
1.068 -2.451 -0.834
1.408 -2.019 -1.112
1.068 -2.347 -1.362
0.632 -2.651 -0.321
0.632 -2.732 -0.834
0.632 -2.651 -1.347
0.632 -2.415 -1.809
0.134 -2.7 -0.051
0.134 -2.858 -0.565
0.134 -2.858 -1.103
0.134 -2.7 -1.617
0.134 -2.396 -2.062
-0.386 -2.7 -0.051
-0.386 -2.858 -0.565
-0.386 -2.858 -1.103
-0.386 -2.7 -1.617
-0.386 -2.396 -2.062
[...]
CELL_DATA 1482
SCALARS cell_data_0 double
LOOKUP_TABLE default
2.17209524159e-06
5.77753942767e-06
1.27669588651e-05
1.19618364173e-05
6.49580159559e-06
1.3324849908e-06
2.36271344055e-08
1.01241552571e-06
1.1883108074e-06
5.38486134343e-07
2.59432061957e-05
8.09955424896e-06
6.75307831997e-06
1.18575937931e-06
1.28930009671e-06
4.32865906895e-07
5.6063090324e-07
7.84026693415e-07
6.80330197604e-07
9.88639114037e-07
5.82687508172e-07
7.42422294431e-07
1.25161702293e-06
4.49845841435e-07
7.28322355579e-07
9.68413521613e-07
1.56938127184e-06
1.581567877e-06
2.19133425118e-06
2.40591574513e-06
5.06785987369e-06
5.20960112724e-06
2.11668975409e-06
4.26095763455e-06
6.46093311623e-06
2.86132099915e-06
1.432290969e-06
1.69667423453e-06
2.98448185243e-06
9.93799144503e-07
3.99576187333e-06
4.09119872219e-06
7.5765787604e-07
3.16393045358e-07
3.52870139779e-07
2.80979053699e-06
2.67358458922e-07
2.54324848154e-07
4.30012661969e-07
2.59280288155e-08
5.12556421975e-07
7.39219763764e-07
2.37922990795e-07
7.53289271072e-08
6.5214125205e-07
1.04497427672e-06
5.34177420459e-07
4.13139727674e-07
1.96930871639e-06
2.35737817448e-06
3.27007718445e-06
2.83227302572e-06
1.02327732401e-06
1.72558347624e-06
2.51352462085e-06
2.29311773655e-06
6.8142432355e-07
1.32132713796e-06
1.94700405833e-06
1.80924327828e-06
1.20979909009e-06
1.49370634337e-06
1.39299754498e-06
1.15785924959e-06
1.74208027798e-06
1.29693663134e-06
1.52239460599e-06
2.28397980274e-06
1.88534792434e-06
2.16098113148e-06
2.10516519423e-06
2.88245489753e-06
2.40071019486e-06
2.91131580035e-06
3.12918701682e-06
3.38832389673e-06
5.02730620027e-07
6.77772188851e-07
7.85867344708e-07
8.43068269122e-07
1.73357477474e-06
1.54968564253e-06
1.14535275694e-06
7.14650251333e-07
1.84369698572e-06
9.30572801069e-07
8.84914594269e-07
1.66099013187e-06
1.50987753714e-06
8.85677685685e-07
3.61508181411e-07
1.33060897084e-06
2.04221535119e-06
2.5856261245e-06
3.00529554478e-06
3.89013934096e-06
2.56690435037e-06
3.3215388356e-06
3.26691776763e-06
4.29060396233e-06
2.8599131636e-06
3.65650939111e-06
7.58395165246e-06
7.64938944911e-06
4.25793766819e-06
3.64846536569e-06
2.68221896829e-06
1.9135335414e-06
4.65656767824e-06
5.76096463517e-06
6.09704756823e-06
7.5122243388e-06
6.85745156813e-06
3.01316271017e-06
1.9385384141e-06
1.36188331509e-06
2.16543887576e-06
2.70606203525e-06
3.95333335002e-06
1.12818338531e-05
3.28267767882e-06
3.49133104906e-06
4.54080654643e-06
5.76345195447e-06
3.08032631287e-06
3.68704765845e-06
4.03096295431e-06
5.32130536831e-06
3.23205772794e-06
2.73358976588e-06
1.7042931179e-06
1.39826501208e-06
3.47725130729e-07
5.31314759443e-07
9.40272583506e-07
9.56374048264e-07
8.929417218e-07
1.56129657357e-06
4.91937964248e-06
4.10105153549e-07
8.57634127737e-06
4.88276668068e-06
3.32459965394e-07
4.54795491918e-07
3.01533317425e-07
1.71463797638e-07
2.60483341652e-07
1.27204351162e-07
2.05587848834e-07
1.37881585437e-07
6.93973499918e-08
7.67215644749e-07
4.05825668115e-07
2.65040117119e-06
8.918167839e-06
5.98226733189e-06
9.69985295498e-06
1.24912871902e-05
1.49276697675e-05
2.49866288507e-05
1.59161205412e-05
1.33360386013e-05
1.88037823412e-05
2.52000910334e-05
2.72980874594e-05
2.51997462673e-05
8.04379689466e-06
1.08110645113e-05
9.94360629149e-06
6.92999750898e-06
5.20175336986e-06
2.50873407395e-06
1.22459931904e-06
8.84144509867e-07
1.77595851829e-06
2.25551828752e-06
1.28024450172e-05
6.83198112574e-06
7.78347261967e-07
4.64111068848e-06
4.2210407386e-06
3.14217677564e-06
5.93131978912e-06
8.24237552414e-06
1.57174285337e-05
1.24350964544e-05
8.49419578778e-06
3.02307872146e-06
1.36761667038e-06
4.19101384396e-06
6.26442711156e-06
6.37769503847e-06
7.69158621115e-06
6.222619448e-06
1.63855884635e-06
7.0586019532e-07
1.46106520747e-06
2.07237349241e-06
5.61823203636e-06
8.12042884515e-06
1.03356414671e-05
1.21279766404e-05
1.02122156448e-05
1.3739007797e-05
1.12862514486e-05
1.42330408051e-05
8.27191200872e-06
2.34512950463e-06
5.95567853012e-06
1.55813650374e-06
5.28919355441e-06
2.75922139409e-06
5.77838242102e-06
5.45044189738e-06
2.86965474198e-06
3.39560014991e-06
2.98046126762e-06
6.49900534845e-06
4.11556337978e-06
2.56269729399e-06
4.23244561968e-06
8.55579227918e-07
1.16048622094e-06
1.61464451575e-07
2.43667344043e-06
3.31118169642e-06
2.79986413108e-06
1.22749762196e-06
1.20718180124e-06
4.82059779034e-06
3.06614839528e-06
4.00642063905e-06
4.24625920379e-06
4.2033447418e-06
2.44064140224e-06
1.32778984774e-06
2.11885938153e-06
1.29134564489e-06
1.69891327184e-07
1.63105234475e-07
4.34405895105e-07
9.06009678107e-07
5.503707611e-07
1.31493272189e-07
5.24844232316e-07
1.07766905984e-06
2.37630926846e-06
1.99387245269e-06
2.60409164367e-07
1.00821586767e-06
1.8131122543e-06
1.03908483374e-05
2.7534071758e-06
1.6233700842e-05
6.84840570353e-06
3.90864288522e-05
4.45163693463e-05
5.0022595554e-05
3.67954626947e-05
3.73284167177e-05
5.48277922549e-05
2.01278619766e-05
2.60954895938e-06
2.2718107749e-07
5.65601687122e-06
1.56723624565e-05
2.10586054462e-05
6.54449433227e-06
2.78991849849e-05
6.7476617271e-05
6.57921856708e-05
2.42697187633e-05
9.57830150822e-06
8.41685276611e-06
8.46998023486e-06
1.11148803625e-06
4.84985076832e-07
6.55491768376e-07
7.78203105471e-07
4.09821049573e-07
4.37074677477e-07
1.02278858095e-06
1.07710198864e-06
3.00882413068e-06
3.09619353399e-06
6.27380556017e-07
3.01584688336e-06
3.36013390383e-05
1.14939227233e-05
8.12662642653e-06
4.80159689329e-06
4.82308254057e-06
1.0387186354e-05
1.19068362556e-05
2.27214975926e-05
1.58807975581e-05
2.3135882625e-05
2.35368168631e-05
2.56408131117e-05
2.78404054624e-05
2.93330417626e-05
1.20980662224e-05
1.32372004584e-05
2.6018934533e-05
2.24260716885e-06
2.48417470815e-06
2.84938315649e-06
4.31379412846e-06
1.62316532468e-05
6.14334744576e-06
8.22755923547e-06
6.22050962606e-06
2.20157847348e-06
1.10961327975e-06
7.80786203152e-07
4.31295797105e-06
6.1996623594e-08
1.03136994539e-06
1.24265771103e-06
1.77355698125e-06
2.66058387828e-06
2.34332246923e-06
1.03990703706e-06
1.50827642779e-06
4.01432144901e-06
5.17674491019e-08
1.83821073797e-09
3.67986771155e-07
3.36761398516e-06
9.25184486542e-06
2.91587606463e-06
8.76165719351e-08
4.47880191507e-06
4.49842536492e-06
3.1083805626e-06
1.30514266133e-06
3.95812563425e-06
5.75100179646e-06
7.7151157528e-06
4.308126253e-06
5.20160041842e-06
4.27895033943e-06
6.84260756572e-06
6.22152485426e-06
7.82670331398e-07
6.38098579919e-06
3.82725448285e-06
5.23068405859e-06
4.48241941996e-06
6.86338737885e-06
6.60827764592e-06
6.75583154813e-06
5.28177448577e-06
2.50155848436e-06
2.4313233748e-06
2.48496426225e-06
2.19134592363e-06
6.42124876449e-07
1.84219264303e-07
3.42359917458e-07
6.28189636382e-07
1.70683956961e-07
5.54240315599e-07
6.98671138693e-08
1.02598926965e-06
7.58797552394e-07
4.95349203397e-07
5.68672255079e-07
3.36513649711e-07
1.46914753264e-06
1.03971539676e-06
2.05264270363e-06
1.70765137392e-06
1.30189599301e-06
1.19015475668e-06
9.69268640267e-07
1.35694022508e-06
1.66034412114e-06
2.05792945615e-06
2.36234922116e-06
2.04403792716e-06
3.50833029953e-06
3.84314238224e-06
4.93560288393e-06
3.56599094567e-06
3.12111713729e-06
4.13189854727e-06
4.09612374602e-06
1.92453555303e-06
1.30181334238e-06
1.40558972057e-06
1.41805781211e-06
8.37872465906e-07
7.54654366313e-07
8.36180336624e-07
7.78096375085e-07
2.48772338336e-07
1.71098912861e-07
4.81686595928e-07
3.27618088929e-06
3.81607611588e-06
1.99800099145e-06
7.92447150439e-07
2.2754095702e-06
9.21739671327e-06
5.61397875155e-06
1.67879024552e-07
2.89300483891e-07
1.13418973982e-06
2.59552408771e-06
1.43369701568e-07
1.65333658142e-07
5.27299340432e-07
1.40064259774e-06
7.43140054958e-06
1.52931646122e-05
1.83047292625e-05
2.58681522482e-07
1.50271124997e-06
2.21694166992e-06
2.70432531922e-06
1.62649367259e-06
1.48913894257e-06
3.14186111963e-07
1.62439620677e-06
6.42995174252e-08
3.89361395333e-07
3.48651816241e-06
5.63857335385e-08
7.48907371573e-08
2.26175810915e-06
9.26348421606e-07
2.14166836934e-06
3.13100845233e-06
5.37478627276e-07
7.17525534869e-07
5.59463163042e-07
1.14008916297e-07
3.39118537134e-07
7.00063878325e-08
5.96287847755e-08
1.79686675515e-07
9.7133573317e-07
3.05200732823e-06
3.92235409494e-06
2.54126738923e-06
4.89141962604e-06
2.86481263066e-06
4.25272448257e-06
9.86651901179e-07
1.39450171454e-06
1.27845502898e-06
1.4935207869e-06
3.39341857343e-06
2.10397988874e-06
1.87572456716e-06
3.13980243828e-07
2.23917149757e-07
1.4524429779e-07
1.80488845007e-07
8.67286961061e-07
6.975337055e-07
8.78569327611e-07
8.6828402671e-07
4.99712274648e-06
2.8447736337e-06
2.34245050811e-06
7.99126715875e-06
4.42492113963e-06
5.4727062536e-06
4.88463578784e-06
1.91788213816e-06
2.29768502111e-06
3.20565670686e-06
2.72786648905e-06
6.53872375164e-06
5.65535811691e-06
1.40988622148e-06
1.50258469902e-06
2.99877026705e-06
2.55907245855e-06
3.3493847549e-06
8.75223349791e-07
2.93324345956e-07
3.65327030562e-07
1.06227292666e-06
2.98023696439e-06
2.59081887645e-06
1.17030400403e-05
1.12421329062e-06
4.75540463446e-06
9.69579399068e-06
6.88238442334e-06
2.54038157499e-06
2.41888777366e-06
2.09814958838e-06
1.46610957215e-06
1.73785765628e-06
5.90102240438e-06
1.82157549278e-06
2.23943267183e-06
8.77992687402e-07
1.17999357016e-06
1.81960302106e-05
1.87908799729e-05
3.71583306548e-05
4.52142872151e-05
7.22304077741e-06
5.83788305722e-06
2.63261511969e-07
3.98019070351e-06
6.10506174625e-07
9.22831717565e-06
1.13689830542e-05
2.63983321855e-05
5.77948784489e-06
1.86325948071e-05
1.36182365736e-05
2.87992560279e-07
5.3303710511e-07
1.54898622535e-06
1.73730229103e-05
5.28217605268e-06
1.65250852235e-06
1.2538184003e-06
2.89091590238e-07
5.12473571695e-07
2.70788561466e-06
1.90954544683e-06
1.19517017324e-05
1.01714963018e-05
1.4778983057e-05
1.63377099376e-05
1.5770284159e-05
1.40024785473e-05
9.9072388651e-06
1.41687591801e-05
5.45716302459e-06
5.66627008833e-06
1.79112107011e-06
1.02380564572e-06
2.75764885613e-06
5.20116596534e-07
1.23583511382e-07
5.53599796978e-07
4.74026814018e-06
4.77945916932e-06
6.06873367315e-06
6.02120199305e-07
6.4674276922e-07
7.60725360226e-07
8.47972291909e-07
5.30320662273e-07
2.82127724643e-07
3.56985363128e-06
1.20870895826e-06
8.62317163915e-07
1.1449636324e-06
1.51572153122e-06
1.45715488842e-06
2.58952772461e-06
2.33989369513e-06
1.58443551996e-06
1.83071097131e-06
7.55161605596e-07
7.64393176766e-07
7.64682618743e-07
7.17624245927e-07
9.28214565149e-07
1.19098175575e-06
9.38419374158e-07
8.11903847905e-07
7.35742448153e-07
7.19119084547e-07
8.1981293026e-07
9.59440690851e-07
3.55798361916e-06
5.91985044556e-06
1.89308540987e-06
2.33734705534e-06
8.01163513762e-07
2.75292054902e-06
3.8871829043e-06
6.11377817773e-06
5.53051621373e-06
4.58418587922e-06
2.72203283021e-06
7.44622177935e-07
1.39525938805e-06
1.68210546119e-06
1.47004289057e-06
5.93980307959e-07
3.88578319433e-07
1.15235971529e-05
9.78533963732e-06
7.12569698665e-06
1.0766046544e-06
1.3975455061e-06
4.8020442028e-06
3.25316073825e-06
4.84938962423e-06
9.72007051797e-09
1.09068548697e-06
3.65203605509e-07
1.96319898106e-06
1.08230968984e-07
8.20947426067e-08
2.33579230566e-07
2.94985675251e-06
5.93405836581e-07
6.73081456043e-07
9.70793971735e-07
2.50386516375e-07
5.38608414957e-07
5.97742182505e-07
6.70884627725e-07
7.43633445387e-07
1.06938518958e-06
5.92834594661e-07
6.77129907694e-07
1.21419832654e-06
9.40101458803e-07
1.11800591435e-06
8.93623366494e-07
5.31254935748e-07
2.34084576577e-08
3.85248631633e-06
1.00854900378e-06
2.20137864566e-08
7.55377159389e-07
1.86573443218e-06
2.64350381745e-06
1.88137053585e-06
1.84810271274e-06
2.77969300849e-06
2.26630631249e-06
2.66792635569e-06
1.59680094678e-06
7.986401301e-06
1.27612781101e-06
1.19627847674e-06
1.25319905869e-06
1.16340595711e-06
1.13787405382e-06
9.94555117497e-07
1.10470974304e-06
9.45766833953e-07
7.86340155948e-07
1.59815307082e-07
8.75962158159e-08
3.71237951344e-07
3.8575217093e-07
6.5851966824e-07
2.58616150206e-07
3.89211994511e-07
1.08091142304e-06
2.93670690336e-07
3.04161835227e-07
1.92017902724e-06
1.46002966119e-06
1.85950070819e-06
2.16108377571e-06
2.25414864945e-06
1.61604575764e-06
1.10766833961e-06
7.65692509261e-06
2.80776337019e-06
2.07674482561e-06
1.41423782282e-06
1.19664215627e-06
1.12906636762e-06
1.42521365877e-06
1.7270059812e-06
9.29089919429e-08
1.32745724671e-07
1.18213395279e-07
1.13752963641e-07
7.85107202016e-09
1.27435945709e-07
2.36617798276e-07
2.39456082752e-07
6.04864132758e-06
1.47001577784e-09
2.44321252598e-06
1.24828567557e-05
7.18863376631e-06
1.09426730568e-05
1.96611583432e-05
7.44237374035e-06
7.18669585332e-06
1.41764652404e-05
9.8671533412e-06
1.04295033438e-05
3.26850006473e-06
6.25312200451e-06
3.92703407419e-06
5.43554505253e-06
1.14921486055e-06
7.40176173739e-06
8.0387096612e-06
1.0182942151e-06
8.72968676097e-07
2.27757872561e-07
8.33546215552e-08
1.54446997533e-08
4.94107801919e-06
7.52705379177e-06
1.19726735722e-05
7.77754638179e-06
1.71595309969e-06
2.22907082141e-06
9.70176901804e-06
2.9050419026e-06
2.64104315136e-06
1.00610047531e-06
5.47364771434e-07
2.12809466725e-06
2.40134498196e-07
1.82334356797e-06
5.74643532572e-06
4.69104220871e-06
9.33243930052e-06
6.41720284437e-06
2.83891008603e-06
1.66643362114e-06
1.67651580391e-06
1.09640283614e-06
3.34081607444e-06
1.85699409969e-06
2.64355685661e-06
7.63661289817e-07
1.2186604109e-07
2.47467774709e-08
1.05391521218e-06
4.91196486898e-07
1.3311650159e-06
1.75631770234e-06
3.88827712831e-06
5.3529260776e-06
8.96312546258e-06
5.50954310147e-06
3.28919285403e-06
1.20777707392e-05
1.44412835185e-05
1.74834283043e-05
1.59494539557e-05
1.51039955352e-05
3.42918422576e-06
3.70377392678e-06
4.14363077964e-06
4.2550084709e-06
9.3595742085e-07
2.92050786915e-07
7.55368645097e-07
3.77910522217e-07
5.56525861338e-07
9.36637949936e-07
2.44651111911e-07
1.44598072297e-06
5.13201367256e-07
4.36996468659e-08
2.41513229776e-07
7.07240747292e-07
1.15616386568e-06
1.3378396091e-06
9.83708116383e-07
8.16602817651e-07
2.45136228713e-08
7.16593963958e-07
6.03489154508e-07
3.01397014071e-06
1.45766397346e-06
2.36318355789e-06
6.47694045626e-07
1.08315348491e-06
9.98211205316e-08
1.41728824385e-07
9.75193830866e-07
7.51706889099e-07
8.02888965876e-07
6.16281169527e-07
4.44594856676e-07
8.29958939601e-08
3.62775169015e-06
2.38239865352e-06
2.70384705619e-06
1.14836286505e-06
1.30649146209e-06
1.25538850036e-06
1.12845755384e-06
7.633201188e-07
2.11413208587e-08
3.14976968666e-07
4.29022415051e-07
4.66600963812e-07
5.93600027237e-07
1.06113766463e-07
2.1323598964e-07
5.47197333428e-07
9.56621242907e-07
1.1454910921e-06
4.51167619171e-07
1.35682941577e-07
1.14159553123e-06
1.41622017847e-06
6.00063683129e-07
8.67077191753e-07
1.00019114487e-06
6.78515383773e-07
5.84987915414e-07
1.59774899462e-06
3.71802194423e-06
2.36704950864e-06
1.86115239127e-06
2.86901959206e-07
9.73174289743e-07
2.15824930256e-06
3.56019875973e-06
4.11563882889e-06
3.17848810293e-06
9.75794983266e-10
1.13947490503e-07
2.33086631643e-07
7.63745662893e-07
1.0151761845e-06
2.436125611e-07
1.41929783574e-06
2.07864285771e-06
3.33443952889e-07
4.99616035001e-06
5.81210070902e-06
4.51177297443e-06
9.30468681045e-06
1.04798140914e-05
2.82898427854e-06
1.42949738971e-06
3.15678800958e-06
8.15216057062e-07
5.13855057358e-07
1.93512790279e-06
1.08291538948e-07
1.72619758505e-06
1.33926598751e-06
5.07573922367e-07
5.7959461661e-07
8.49886455056e-08
4.46272555594e-07
3.91500390049e-07
2.18795846509e-07
3.00374216485e-07
8.52973727678e-07
6.14361917755e-07
4.11457207427e-07
1.51429433191e-08
3.75647106338e-07
9.61029319287e-07
1.40303975736e-06
1.50743757623e-06
7.30585682211e-07
7.01674404991e-07
4.61902782014e-07
6.17789419278e-09
2.85707652828e-07
8.55291187172e-07
1.49012740812e-06
1.70118280359e-06
4.60852584201e-06
6.57497120395e-07
3.12441641319e-06
1.52010126063e-06
3.72964203721e-06
1.48534385255e-06
2.08008203425e-06
2.55500590775e-06
2.98421801859e-06
4.37163316172e-06
3.32869224712e-06
2.21376874259e-05
1.62378884115e-05
1.66238309556e-05
1.72359845529e-05
1.19564810567e-06
1.37115982585e-06
2.05831172259e-06
2.252777615e-05
1.29024096126e-05
1.15991824072e-05
1.04769865659e-06
2.42487159561e-06
1.97385004637e-08
7.7597670868e-07
9.17801607748e-08
1.47039832205e-07
5.60184371419e-07
3.43401253117e-06
1.82242252895e-06
2.68047752657e-06
8.85496031069e-07
8.45868167662e-06
3.71415047669e-06
4.08959030002e-06
1.40938032679e-06
1.79759463819e-06
3.25473501468e-06
2.45904597497e-06
1.71015424564e-06
8.37781668377e-07
1.11316239192e-06
3.38092674389e-06
5.48850661462e-06
4.38156041235e-06
5.41745792247e-06
6.39538828298e-06
2.49248605215e-07
3.53784530931e-06
8.170044405e-07
5.48449981732e-08
2.80106145942e-06
1.25997384243e-06
1.40629830031e-06
1.06746159434e-07
1.39880302632e-06
7.10635968153e-07
1.89966427332e-07
1.69642738226e-06
2.69102022025e-07
3.3564059487e-06
1.13281147385e-05
1.46458545943e-05
1.14469272758e-06
2.55449136747e-06
3.1976606353e-06
5.01341529531e-06
3.94958356446e-06
6.0104118669e-06
4.22210151569e-06
1.84858917777e-06
2.66509366935e-05
1.64883957647e-05
2.70563060303e-05
1.05166055346e-05
4.80075892278e-08
3.76591954687e-07
4.3213618823e-06
3.05534922474e-06
3.22155282468e-06
5.07262022344e-06
3.59530215092e-06
4.84179797804e-08
6.5515904522e-07
1.05930489283e-06
9.9033903508e-07
1.35609428683e-06
9.38017726989e-07
2.32673100192e-06
3.00915068711e-06
9.33697801622e-06
1.10312745241e-05
2.6498144502e-06
8.03192891459e-07
6.45027577814e-07
4.67469390776e-06
2.92801477692e-06
4.01249960773e-06
1.13879898605e-06
3.8279893722e-07
5.38663292479e-07
5.37061598561e-08
4.77305851705e-07
2.16152731501e-07
1.01002353657e-06
5.35710623473e-07
2.00223209052e-07
4.38903666166e-07
7.64616693256e-07
2.69285177417e-06
2.43894391817e-06
2.59074041395e-06
2.79458040266e-06
1.91436287561e-06
3.50322158451e-07
1.68135119831e-06
5.76304595437e-06
1.30270127227e-06
6.55514985265e-07
3.23506663373e-06
1.42724552065e-06
5.02532453173e-06
3.25833826464e-06
7.4808466967e-06
5.46490682939e-07
1.59617510252e-06
1.57234183627e-06
3.54065939028e-06
9.9605246035e-07
1.14527569742e-06
6.27437558458e-07
1.78837705871e-06
1.92394265675e-06
4.04075985291e-07
4.20090509859e-07
2.77719053737e-06
2.28407736935e-06
1.5092148966e-06
7.44177935909e-07
5.1417023637e-06
9.92247186185e-06
5.55161073777e-06
3.10459516002e-07
9.1511794889e-08
1.57031085626e-07
5.1910525385e-07
5.234877048e-06
1.20856455626e-05
1.14866945793e-05
8.29595176298e-06
1.40230213997e-05
5.04949681726e-06
6.93149751817e-06
5.79440689667e-07
5.12886730787e-07
4.60999845375e-07
1.82545657303e-08
4.71397332691e-08
3.99905456353e-07
1.14905116924e-06
8.03662859626e-07
2.76949313327e-06
8.06400552793e-06
2.97158330373e-06
7.99235891711e-06
2.33148781014e-06
3.42149242154e-06
1.88493448482e-06
4.10155603887e-06
5.37097829066e-07
2.86907347976e-07
3.05767162766e-07
1.26117823151e-06
4.42042265956e-07
4.4246127934e-07
1.57391955122e-06
1.26000877007e-05
1.9744415958e-05
6.2916482163e-06
9.04539895994e-06
1.28516067822e-06
1.33816385706e-06
1.10620059193e-07
2.73139998063e-07
5.83783756219e-07
1.41732092893e-06
4.7258094816e-06
4.28397242537e-06
5.57789242146e-06
2.33511602271e-06
7.66409222104e-06
1.30691238003e-06
5.58079648134e-06
5.77856802494e-07
1.39742578454e-06
3.07000026323e-07
2.49323945532e-06
1.70526003621e-06
9.25406979902e-06
4.27470342724e-06
1.35853931417e-06
5.35352960299e-07
1.08110618619e-06
1.4518401124e-06
8.97726118714e-07
1.45999720407e-06
1.52048832823e-06
3.24982318616e-07
7.57529025216e-06
3.51193154203e-06
1.67061502548e-05
3.176990273e-06
7.11657027774e-06
1.85251980977e-06
2.70416812051e-06
1.19566415548e-06
2.04140198638e-06
5.29327011838e-07
1.20924387564e-06
1.4238361218e-06
1.00520876992e-06
8.80689623469e-06
2.99708193632e-06
7.35096925249e-07
5.19620949495e-06
4.62063763747e-06
3.81729972945e-06
4.01851652702e-06
3.94174666875e-06
4.32409013918e-06
3.77689822613e-06
4.3889012068e-06
2.82448555921e-06
3.32632050535e-06
8.34532298164e-06
8.52572196425e-06
3.21444512854e-06
1.35561336789e-06