# vtk DataFile Version 3.0
File Name: Molecule/sphere_cent/sphere_cent_0-s2.vtk
ASCII
DATASET UNSTRUCTURED_GRID
FIELD FieldData 1
TIME 1 1 double
0.0
POINTS 51 double
0.85076069832 0.52562022209 0.00011022548279
0.79957824945 0.32155770063 -0.50414532423
0.49980542064 0.80909353495 -0.30889043212
0.30877164006 0.49999761581 -0.80902034044
0.52579915524 -0.00017859411309 -0.8506500721
-2.7613602072e-08 0.85065078735 -0.52573114634
0.49415174127 0.81579530239 0.29507768154
-0.00019794979016 0.99992316961 -0.00013235304505
0.00028761909925 0.8506000042 0.52581012249
-0.4999358952 0.80893659592 0.30899301171
-0.4999473691 0.80892777443 -0.30898851156
-0.85065078735 0.52573114634 -4.0769148058e-09
-0.30897438526 0.49995625019 0.80893701315
-0.80892944336 0.3089825511 0.49994665384
-0.52573108673 -2.456071968e-08 0.85065078735
0.29481598735 0.49391630292 0.8159724474
-0.00013663212303 -0.00019869151583 0.9999230504
0.52581006289 0.00028981873766 0.85059905052
-0.30898693204 -0.49994766712 0.80892765522
0.30899459124 -0.49993574619 0.80893647671
9.9585006907e-09 -0.85065078735 0.52573102713
0.80881476402 -0.30908998847 0.50014579296
0.49996107817 -0.80892854929 0.30897524953
0.85077863932 -0.52551859617 -0.00018017771072
0.99765384197 -2.6332754715e-06 0.017326293513
0.81567692757 0.29432359338 0.49374178052
-0.52552229166 -0.00017822963127 -0.85077792406
-0.80909603834 -0.30890083313 -0.49978968501
-0.80892771482 0.3089773953 -0.49995997548
-0.9998922348 3.3120517173e-07 3.9723859118e-06
-0.85065078735 -0.52573108673 1.863833532e-08
-0.3090852499 0.50012874603 -0.8088157773
-0.50001215935 -0.80901134014 -0.3087630868
-0.49994692206 -0.80892831087 0.30898657441
1.7831592913e-06 -0.99989581108 -1.5913537936e-05
2.0601146389e-07 -0.8504884243 -0.52598905563
-0.80892914534 -0.30898344517 0.49994572997
-0.32207643986 -0.50429958105 -0.79914629459
0.49984893203 -0.8091853261 -0.30867227912
0.79843497276 -0.32230979204 -0.50420755148
0.32210129499 -0.50434851646 -0.79851031303
0.00017234317784 0.016458027065 -0.99825066328
0.9510756135 -0.16188833117 -0.26322764158
0.85100454092 -6.0060585383e-05 -0.52523082495
0.95111370087 0.16191914678 -0.26313409209
0.16196164489 -0.26324874163 -0.95107680559
7.9855926742e-06 -0.52516585588 -0.85102063417
-0.16188961267 -0.2632420063 -0.95106506348
0.68791496754 0.58776593208 0.42589062452
0.42591533065 0.68781983852 0.58781778812
0.58781057596 0.42588806152 0.6878464222

CELLS 98 392
3 0 1 2
3 1 3 2
3 1 4 3
3 2 3 5
3 0 2 6
3 2 7 6
3 2 5 7
3 6 7 8
3 8 7 9
3 7 10 9
3 7 5 10
3 9 10 11
3 8 9 12
3 9 13 12
3 9 11 13
3 12 13 14
3 8 12 15
3 12 16 15
3 12 14 16
3 15 16 17
3 14 18 16
3 18 19 16
3 18 20 19
3 16 19 17
3 17 19 21
3 19 22 21
3 19 20 22
3 21 22 23
3 23 24 21
3 24 25 21
3 24 0 25
3 21 25 17
3 26 27 28
3 27 29 28
3 27 30 29
3 28 29 11
3 5 31 10
3 31 28 10
3 31 26 28
3 10 28 11
3 30 32 33
3 32 34 33
3 32 35 34
3 33 34 20
3 30 33 36
3 33 18 36
3 33 20 18
3 36 18 14
3 14 13 36
3 13 29 36
3 13 11 29
3 36 29 30
3 26 37 27
3 37 32 27
3 37 35 32
3 27 32 30
3 35 38 34
3 38 22 34
3 38 23 22
3 34 22 20
3 4 39 40
3 39 38 40
3 39 23 38
3 40 38 35
3 4 41 3
3 41 31 3
3 41 26 31
3 3 31 5
3 39 42 23
3 23 42 24
3 39 43 42
3 43 44 42
3 43 1 44
3 42 44 24
3 1 43 4
3 4 43 39
3 24 44 0
3 44 1 0
3 40 45 4
3 4 45 41
3 40 46 45
3 46 47 45
3 46 37 47
3 45 47 41
3 37 46 35
3 35 46 40
3 41 47 26
3 47 37 26
3 6 48 0
3 0 48 25
3 6 49 48
3 49 50 48
3 49 15 50
3 48 50 25
3 15 49 8
3 8 49 6
3 25 50 17
3 50 15 17

CELL_TYPES 98
5
5
5
5
5
5
5
5
5
5
5
5
5
5
5
5
5
5
5
5
5
5
5
5
5
5
5
5
5
5
5
5
5
5
5
5
5
5
5
5
5
5
5
5
5
5
5
5
5
5
5
5
5
5
5
5
5
5
5
5
5
5
5
5
5
5
5
5
5
5
5
5
5
5
5
5
5
5
5
5
5
5
5
5
5
5
5
5
5
5
5
5
5
5
5
5
5
5

CELL_DATA 98
SCALARS cell_data_0 double
LOOKUP_TABLE default
1.49204222473e-06
2.72235920241e-06
9.62225773187e-08
1.34835017642e-06
1.36474488415e-06
2.62036757003e-06
1.30742057744e-06
3.40865633374e-07
1.14636271253e-06
2.56387768e-06
4.86522145193e-07
3.44191142054e-07
1.22191544148e-06
1.09482123024e-06
1.57565232478e-06
3.93199403277e-07
2.64580623927e-07
2.43605729834e-06
8.22764205523e-08
1.18500725338e-06
3.26613527005e-07
3.25311765671e-06
8.29074897111e-07
8.21182279385e-07
4.36756599101e-07
2.40669697584e-06
5.18101802725e-07
4.04969096495e-07
2.88075633064e-08
5.28027364462e-07
2.70677824599e-07
3.22063747408e-07
1.16514933923e-06
2.46816685207e-06
5.05966951722e-07
4.37787237703e-07
4.95719223611e-07
2.55305569979e-06
1.17442958397e-06
3.4368169068e-07
1.30667441845e-06
1.97331838066e-06
9.6540885713e-07
3.65837961745e-07
1.38913999825e-06
1.8880176235e-06
3.60163707552e-07
3.43695785512e-07
1.93334779632e-08
2.88794663302e-06
4.45857161624e-07
1.57369295624e-07
8.68653345163e-07
1.2877240824e-06
9.82197046025e-07
1.22489731586e-06
9.51734249648e-07
2.1130894326e-06
7.79710253913e-08
2.61094817935e-07
8.83594746407e-07
1.09679458756e-06
4.12839597972e-07
8.76431095524e-07
1.06249284715e-07
2.19187536334e-06
4.37625698587e-07
1.79723470617e-06
4.09191574106e-07
3.88323095472e-07
7.59716997991e-07
5.28599192714e-07
3.50606811242e-07
7.46732925993e-07
3.93073192934e-07
1.12356770332e-06
4.73633119764e-07
2.1040102778e-07
1.0972889607e-06
3.85590933028e-07
7.44188800575e-07
5.2316380089e-07
7.84628501249e-07
3.53799333183e-07
1.15471009895e-06
1.10760056537e-06
1.8035586086e-07
8.82760687439e-07
1.4865247641e-07
4.91935657573e-07
3.99645590031e-07
5.22734955554e-07
4.04120127556e-07
7.58085492601e-07
2.35042952627e-07
2.42015669763e-07
5.49905334431e-07
5.14858930625e-08

