# vtk DataFile Version 3.0
File Name: Molecule/sphere_cent/sphere_cent_0-s4.vtk
ASCII
DATASET UNSTRUCTURED_GRID
FIELD FieldData 1
TIME 1 1 double
0.0
POINTS 69 double
0.8507592082 0.52549880743 -2.4972858228e-05
0.48896840215 0.82344430685 -0.28203392029
0.48469784856 0.82929909229 0.27254456282
0.015938416123 0.99792921543 0.00013864263019
0.00043820438441 0.85068678856 -0.5256998539
0.00057604548056 0.85054159164 0.52589285374
-0.29522052407 0.49381184578 0.81595802307
0.27107849717 0.48468542099 0.82973927259
-0.0012074101251 0.031234707683 0.99759495258
-0.52592259645 -0.00014286025544 0.85053884983
0.52551746368 0.00062389223604 0.85075676441
0.33439129591 -0.50846946239 0.79134899378
0.80846554041 -0.30986052752 0.50026285648
0.50465995073 -0.79863262177 0.32150888443
0.00017114897491 -0.85043400526 0.52611202002
0.8509594202 -0.52522808313 -0.00063609692734
0.99809259176 7.90975173e-06 0.044938735664
0.82891321182 0.27211257815 0.48636350036
-0.52494907379 -0.00066187459743 -0.85108947754
-0.80960142612 -0.30854412913 -0.49919322133
-0.80889952183 0.30886912346 -0.50017869473
-0.99861037731 0.00055911322124 -0.031652450562
-0.85093826056 -0.52521967888 0.00044578069355
-0.8507090807 0.52556568384 0.0006463289028
-0.31008225679 0.50057816505 -0.80820697546
-0.50468617678 0.79981070757 -0.32137310505
-0.50021517277 -0.80929088593 -0.30773231387
-0.49993908405 -0.80928111076 0.30827048421
-0.016342218965 -0.99826323986 3.5026481783e-05
0.00014824673417 -0.85021358728 -0.52643603086
-0.79174751043 -0.3343886137 0.50877827406
-0.3341191113 -0.50896596909 0.79137188196
-0.3448099494 -0.51301252842 -0.78483623266
0.52590531111 -0.00012942227477 -0.85050791502
0.78450644016 -0.34480041265 -0.51297390461
0.34401142597 -0.51344615221 -0.78422474861
0.50363409519 -0.79903280735 -0.32114636898
-0.00027982454048 0.044392149895 -0.99776613712
0.28276395798 0.48943465948 -0.8234692812
0.95100015402 -0.16272446513 -0.26267960668
0.85106992722 -0.0025175772607 -0.52505230904
0.95183253288 0.16052101552 -0.26127520204
0.80311286449 0.31815928221 -0.50339442492
0.16265013814 -0.26283916831 -0.95095849037
-2.1150059183e-05 -0.52591758966 -0.85047721863
-0.16270974278 -0.26279819012 -0.9510127902
0.68825054169 0.5876943469 0.42519921064
0.42512053251 0.68816673756 0.58783435822
0.58764314651 0.4251435101 0.68834859133
0.68082511425 0.59496206045 -0.42726102471
0.58061134815 0.43276074529 -0.68968820572
0.4247521162 0.68852621317 -0.58773177862
-0.16217003763 -0.26326045394 0.95098215342
-1.129199336e-05 -0.52528816462 0.85091382265
0.1619836092 -0.26316744089 0.95104575157
-0.80178958178 0.32023239136 0.5042783618
-0.85111635923 -0.00092752923956 0.52502661943
-0.95137351751 0.16127127409 0.26263493299
-0.95105224848 -0.16208216548 0.2631021142
-0.26298505068 0.95134204626 0.16107198596
-0.49967718124 0.8091263175 0.30872750282
-0.26352989674 0.95099502802 -0.16200678051
-0.52500861883 0.85121017694 -0.00081039348152
-0.4256105125 0.6874666214 0.58851325512
-0.68159425259 0.59341108799 0.42827448249
-0.58143204451 0.43228557706 0.68934416771
0.2630417645 -0.95121335983 -0.16149581969
0.5249992609 -0.8511505723 0.00030980151496
0.26325750351 -0.95108747482 0.16186714172

CELLS 134 536
3 0 1 2
3 1 3 2
3 1 4 3
3 2 3 5
3 5 6 7
3 6 8 7
3 6 9 8
3 7 8 10
3 10 11 12
3 11 13 12
3 11 14 13
3 12 13 15
3 15 16 12
3 16 17 12
3 16 0 17
3 12 17 10
3 18 19 20
3 19 21 20
3 19 22 21
3 20 21 23
3 4 24 25
3 24 20 25
3 24 18 20
3 25 20 23
3 22 26 27
3 26 28 27
3 26 29 28
3 27 28 14
3 22 27 30
3 27 31 30
3 27 14 31
3 30 31 9
3 18 32 19
3 32 26 19
3 32 29 26
3 19 26 22
3 33 34 35
3 34 36 35
3 34 15 36
3 35 36 29
3 33 37 38
3 37 24 38
3 37 18 24
3 38 24 4
3 34 39 15
3 15 39 16
3 34 40 39
3 40 41 39
3 40 42 41
3 39 41 16
3 42 40 33
3 33 40 34
3 16 41 0
3 41 42 0
3 35 43 33
3 33 43 37
3 35 44 43
3 44 45 43
3 44 32 45
3 43 45 37
3 32 44 29
3 29 44 35
3 37 45 18
3 45 32 18
3 2 46 0
3 0 46 17
3 2 47 46
3 47 48 46
3 47 7 48
3 46 48 17
3 7 47 5
3 5 47 2
3 17 48 10
3 48 7 10
3 42 49 0
3 0 49 1
3 42 50 49
3 50 51 49
3 50 38 51
3 49 51 1
3 38 50 33
3 33 50 42
3 1 51 4
3 51 38 4
3 31 52 9
3 9 52 8
3 31 53 52
3 53 54 52
3 53 11 54
3 52 54 8
3 11 53 14
3 14 53 31
3 8 54 10
3 54 11 10
3 55 56 9
3 9 56 30
3 55 57 56
3 57 58 56
3 57 21 58
3 56 58 30
3 21 57 23
3 23 57 55
3 30 58 22
3 58 21 22
3 3 59 5
3 5 59 60
3 3 61 59
3 61 62 59
3 61 25 62
3 59 62 60
3 25 61 4
3 4 61 3
3 60 62 23
3 62 25 23
3 60 63 5
3 5 63 6
3 60 64 63
3 64 65 63
3 64 55 65
3 63 65 6
3 55 64 23
3 23 64 60
3 6 65 9
3 65 55 9
3 36 66 29
3 29 66 28
3 36 67 66
3 67 68 66
3 67 13 68
3 66 68 28
3 13 67 15
3 15 67 36
3 28 68 14
3 68 13 14

CELL_TYPES 134
5
5
5
5
5
5
5
5
5
5
5
5
5
5
5
5
5
5
5
5
5
5
5
5
5
5
5
5
5
5
5
5
5
5
5
5
5
5
5
5
5
5
5
5
5
5
5
5
5
5
5
5
5
5
5
5
5
5
5
5
5
5
5
5
5
5
5
5
5
5
5
5
5
5
5
5
5
5
5
5
5
5
5
5
5
5
5
5
5
5
5
5
5
5
5
5
5
5
5
5
5
5
5
5
5
5
5
5
5
5
5
5
5
5
5
5
5
5
5
5
5
5
5
5
5
5
5
5
5
5
5
5
5
5

CELL_DATA 134
SCALARS cell_data_0 double
LOOKUP_TABLE default
8.34448215978e-07
1.90607146145e-06
1.59153769141e-06
1.25665524398e-06
9.58500016416e-07
7.00845202339e-07
5.2050298555e-07
3.97455850188e-07
5.56048404095e-07
5.90921368278e-07
2.57726176876e-07
2.52475187382e-07
7.09858579787e-07
1.02513915552e-07
1.50727921933e-07
4.09031106371e-08
5.28752169587e-07
2.71162291622e-06
8.45847365307e-07
6.83335595831e-07
2.44212434964e-07
2.08535174568e-06
1.28199690896e-07
2.36513251222e-07
6.85672134799e-07
5.82609322014e-06
3.03707261185e-06
3.26580345749e-06
3.00923277859e-06
4.02991599535e-06
5.9254486681e-07
2.90173533968e-06
3.08486395563e-07
2.30162116596e-06
1.39844770528e-07
9.04370467547e-07
6.23261187871e-08
2.63914530825e-06
2.27839764637e-06
3.06497521654e-06
6.60824452908e-07
1.32529013388e-06
7.68416582697e-08
4.87083410639e-07
1.73955432925e-06
1.4749709223e-06
1.36183829199e-06
8.86631239085e-08
5.6158514511e-07
1.24748972672e-06
9.38785173732e-08
7.57504311109e-07
6.14447038616e-07
1.44729449398e-07
2.3840870355e-07
4.43022740828e-07
5.13462599527e-07
3.36862109297e-07
6.27676070924e-07
6.22000958925e-07
5.37864375617e-07
3.87272099064e-07
4.76977735387e-07
5.05289925475e-07
3.9578305328e-07
4.00352017708e-07
6.07787021471e-07
2.79297039787e-07
5.89093255333e-07
6.27566564857e-07
3.70961985773e-07
4.48204924378e-07
2.68829306112e-07
1.96772369192e-07
8.00712102031e-08
2.63192755041e-07
5.25144711523e-07
4.22360600817e-07
5.67268196771e-07
5.05893575374e-07
3.1129343912e-07
5.71534167298e-08
2.96116307636e-07
3.19238780974e-07
3.70233824982e-07
6.82942079148e-07
1.18414394044e-06
1.12970168033e-07
1.43849428885e-06
8.80077621283e-07
1.58862700294e-06
1.25056413154e-06
7.25182855997e-07
6.99345317966e-07
1.37061903134e-08
8.14336680806e-07
5.39674510499e-07
3.19830002482e-07
6.57155387118e-07
4.78399072599e-08
2.99397938275e-07
1.1965604669e-07
9.04356157918e-07
3.53920961549e-07
1.06061936292e-06
1.42186307638e-06
9.27841558415e-07
9.45507834307e-09
8.60347457664e-07
1.39946520872e-06
7.15489084001e-07
1.3155248518e-07
5.58994431437e-07
8.14234852659e-07
6.22668109893e-07
4.93305755268e-07
1.01103398682e-06
2.44051274328e-07
6.81346290921e-07
6.89154268947e-07
1.67339144972e-07
7.01778355315e-07
3.81286465202e-07
4.15007722275e-08
7.48601366669e-07
8.35396148102e-07
1.75070494714e-07
5.21612188691e-07
6.2184555003e-07
2.08826004517e-07
5.43065101824e-07
7.691554107e-07
9.91397858694e-07
4.19474665448e-07

