# vtk DataFile Version 3.0
File Name: Molecule/sphere_cent/sphere_cent_0-s5.vtk
ASCII
DATASET UNSTRUCTURED_GRID
FIELD FieldData 1
TIME 1 1 double
0.0
POINTS 83 double
0.850650808352 0.525731112119 0.0
0.809016994375 0.309016994375 -0.5
0.5 0.809016994375 -0.309016994375
0.309016994375 0.5 -0.809016994375
0.525731112119 0.0 -0.850650808352
0.0 0.850650808352 -0.525731112119
0.0 0.850650808352 0.525731112119
-0.309016994375 0.5 0.809016994375
0.309016994375 0.5 0.809016994375
0.0 0.0 1.0
-0.525731112119 0.0 0.850650808352
0.525731112119 0.0 0.850650808352
-0.309016994375 -0.5 0.809016994375
0.309016994375 -0.5 0.809016994375
0.0 -0.850650808352 0.525731112119
0.809016994375 -0.309016994375 0.5
0.5 -0.809016994375 0.309016994375
0.850650808352 -0.525731112119 0.0
-0.850650808352 -0.525731112119 0.0
-0.5 -0.809016994375 -0.309016994375
-0.5 -0.809016994375 0.309016994375
0.0 -1.0 0.0
-0.525731112119 0.0 -0.850650808352
-0.309016994375 -0.5 -0.809016994375
-0.809016994375 -0.309016994375 -0.5
0.0 -0.850650808352 -0.525731112119
0.5 -0.809016994375 -0.309016994375
0.809016994375 -0.309016994375 -0.5
0.309016994375 -0.5 -0.809016994375
0.154508497188 -0.25 -0.904508497187
0.0 0.0 -1.0
0.0 -0.5 -0.809016994375
-0.154508497188 -0.25 -0.904508497187
0.5 0.809016994375 0.309016994375
0.654508497187 0.559016994375 0.404508497188
0.809016994375 0.309016994375 0.5
0.404508497188 0.654508497187 0.559016994375
0.559016994375 0.404508497188 0.654508497187
0.154508497188 0.25 -0.904508497187
-0.154508497188 0.25 -0.904508497187
0.0 0.5 -0.809016994375
-0.309016994375 0.5 -0.809016994375
0.5 0.809016994375 0.0
0.25 0.904508497187 -0.154508497188
0.25 0.904508497187 0.154508497188
0.0 1.0 0.0
-0.404508497188 0.654508497187 -0.559016994375
-0.5 0.809016994375 -0.309016994375
-0.559016994375 0.404508497188 -0.654508497187
-0.654508497187 0.559016994375 -0.404508497188
-0.809016994375 0.309016994375 -0.5
-0.850650808352 0.525731112119 0.0
0.0 -0.925325404176 -0.26286555606
0.25 -0.829833901363 -0.417374053247
0.25 -0.904508497187 -0.154508497188
0.404508497188 -0.654508497187 -0.559016994375
0.154508497188 -0.675325404176 -0.667374053247
-0.5 0.809016994375 0.309016994375
-0.404508497188 0.654508497187 0.559016994375
-0.654508497187 0.559016994375 0.404508497188
-0.559016994375 0.404508497188 0.654508497187
-0.809016994375 0.309016994375 0.5
-0.654508497187 -0.559016994375 0.404508497188
-0.809016994375 -0.309016994375 0.5
-0.404508497188 -0.654508497187 0.559016994375
-0.559016994375 -0.404508497188 0.654508497187
-0.809016994375 0.0 0.5
-0.904508497187 0.154508497188 0.25
-0.904508497187 -0.154508497188 0.25
-1.0 0.0 0.0
0.904508497187 -0.154508497188 -0.25
1.0 0.0 0.0
0.809016994375 0.0 -0.5
0.904508497187 0.154508497188 -0.25
-0.25 0.904508497187 0.154508497188
-0.25 0.904508497187 -0.154508497188
-0.5 0.809016994375 0.0
0.904508497187 -0.154508497188 0.25
0.904508497187 0.154508497188 0.25
0.809016994375 0.0 0.5
-0.809016994375 0.0 -0.5
-0.904508497187 -0.154508497188 -0.25
-0.904508497187 0.154508497188 -0.25

CELLS 162 648
3 0 1 2
3 1 3 2
3 1 4 3
3 2 3 5
3 6 7 8
3 7 9 8
3 7 10 9
3 8 9 11
3 10 12 9
3 12 13 9
3 12 14 13
3 9 13 11
3 11 13 15
3 13 16 15
3 13 14 16
3 15 16 17
3 18 19 20
3 19 21 20
3 20 21 14
3 22 23 24
3 23 19 24
3 23 25 19
3 24 19 18
3 26 17 16
3 21 16 14
3 4 27 28
3 27 17 26
3 28 29 4
3 4 29 30
3 28 31 29
3 31 32 29
3 31 23 32
3 29 32 30
3 23 31 25
3 30 32 22
3 32 23 22
3 33 34 0
3 0 34 35
3 33 36 34
3 36 37 34
3 36 8 37
3 34 37 35
3 8 36 6
3 6 36 33
3 35 37 11
3 37 8 11
3 30 38 4
3 4 38 3
3 30 39 38
3 39 40 38
3 39 41 40
3 38 40 3
3 41 39 22
3 22 39 30
3 3 40 5
3 40 41 5
3 2 42 0
3 0 42 33
3 2 43 42
3 43 44 42
3 43 45 44
3 42 44 33
3 45 43 5
3 5 43 2
3 33 44 6
3 44 45 6
3 41 46 5
3 5 46 47
3 41 48 46
3 48 49 46
3 48 50 49
3 46 49 47
3 50 48 22
3 22 48 41
3 47 49 51
3 49 50 51
3 25 52 19
3 19 52 21
3 25 53 52
3 53 54 52
3 53 26 54
3 52 54 21
3 21 54 16
3 16 54 26
3 26 55 27
3 27 55 28
3 28 55 56
3 55 53 56
3 55 26 53
3 56 53 25
3 28 56 31
3 31 56 25
3 57 58 6
3 6 58 7
3 57 59 58
3 59 60 58
3 59 61 60
3 58 60 7
3 61 59 51
3 51 59 57
3 7 60 10
3 60 61 10
3 20 62 18
3 18 62 63
3 20 64 62
3 64 65 62
3 64 12 65
3 62 65 63
3 12 64 14
3 14 64 20
3 63 65 10
3 65 12 10
3 61 66 10
3 10 66 63
3 61 67 66
3 67 68 66
3 67 69 68
3 66 68 63
3 69 67 51
3 51 67 61
3 63 68 18
3 68 69 18
3 27 70 17
3 17 70 71
3 27 72 70
3 72 73 70
3 72 1 73
3 70 73 71
3 1 72 4
3 4 72 27
3 71 73 0
3 73 1 0
3 45 74 6
3 6 74 57
3 45 75 74
3 75 76 74
3 75 47 76
3 74 76 57
3 47 75 5
3 5 75 45
3 57 76 51
3 76 47 51
3 71 77 17
3 17 77 15
3 71 78 77
3 78 79 77
3 78 35 79
3 77 79 15
3 35 78 0
3 0 78 71
3 15 79 11
3 79 35 11
3 24 80 22
3 22 80 50
3 24 81 80
3 81 82 80
3 81 69 82
3 80 82 50
3 69 81 18
3 18 81 24
3 50 82 51
3 82 69 51

CELL_TYPES 162
5
5
5
5
5
5
5
5
5
5
5
5
5
5
5
5
5
5
5
5
5
5
5
5
5
5
5
5
5
5
5
5
5
5
5
5
5
5
5
5
5
5
5
5
5
5
5
5
5
5
5
5
5
5
5
5
5
5
5
5
5
5
5
5
5
5
5
5
5
5
5
5
5
5
5
5
5
5
5
5
5
5
5
5
5
5
5
5
5
5
5
5
5
5
5
5
5
5
5
5
5
5
5
5
5
5
5
5
5
5
5
5
5
5
5
5
5
5
5
5
5
5
5
5
5
5
5
5
5
5
5
5
5
5
5
5
5
5
5
5
5
5
5
5
5
5
5
5
5
5
5
5
5
5
5
5
5
5
5
5
5
5

CELL_DATA 162
SCALARS cell_data_0 double
LOOKUP_TABLE default
7.83349024814e-07
3.19446293288e-06
1.20955962949e-08
4.70597501405e-07
2.71220962897e-07
2.98403109242e-06
5.3964407606e-07
4.33197047889e-07
1.87521211335e-06
5.15895894963e-06
2.35212258734e-06
1.06476069409e-06
9.19880545368e-07
4.76770382808e-06
2.15788037957e-06
1.71789704688e-06
3.23819113833e-06
4.76783483938e-06
3.99084237911e-06
8.23072912735e-07
1.2728314016e-06
3.70943471e-06
6.33342514153e-07
3.52749808145e-06
8.61409746586e-07
2.02092931737e-06
2.78116477367e-06
2.09071864154e-06
1.74213285646e-07
1.69969602825e-06
6.32462620096e-07
1.74933779961e-06
5.57038532467e-07
1.80929039047e-06
2.5782384222e-09
1.9009314323e-06
1.20217553714e-06
1.69752960306e-07
1.529075148e-07
2.70870181471e-06
3.7119941884e-08
7.74353629197e-07
1.30790994684e-06
1.08572221616e-06
3.72877321389e-07
1.19644221964e-06
9.8032907778e-08
1.45658992524e-06
6.78480237111e-07
1.64751404594e-06
4.70639610589e-07
1.19071743367e-07
1.92548823893e-06
7.87143432411e-08
7.14034503188e-07
1.37858678219e-07
3.9452654904e-07
4.44564310593e-07
1.9448314804e-07
2.3707958519e-06
2.46555212639e-07
4.16642167151e-07
7.69386229181e-08
1.15859668068e-07
2.4223379887e-07
3.72486761244e-07
2.113861281e-06
1.06652906792e-06
2.06469526609e-06
9.60421477879e-07
1.59371797002e-06
4.85369274453e-07
2.64715805529e-06
2.21332117451e-06
3.78472593294e-07
1.80082397525e-06
1.23259027986e-07
9.37485710318e-07
5.21709495744e-07
7.30011910648e-07
9.82800952408e-07
1.23601610262e-06
8.20161585125e-07
1.88286258753e-06
1.7647893163e-06
7.80972288172e-07
9.36649999404e-07
8.71752017997e-07
8.00562157265e-07
5.97767782077e-07
7.77488713105e-07
4.60453270522e-07
1.57819482992e-06
1.08567723869e-06
1.38972432446e-07
1.95539551692e-06
4.49518706138e-07
9.2519090347e-07
8.15857948082e-07
1.27048757683e-07
4.42938229814e-07
1.73315167649e-07
1.66886237366e-06
1.71184265482e-06
1.86309857032e-06
4.4545849157e-07
8.85107771545e-07
1.85733828721e-06
1.7364204416e-07
1.83531730718e-06
1.90212942393e-06
2.0016027577e-07
6.95516100752e-07
1.9510547914e-06
1.90487296503e-07
1.741225585e-06
7.13986363046e-07
1.83426869896e-06
1.4980253139e-06
8.43268611134e-07
1.63313995247e-06
3.36693173966e-07
1.39119750146e-06
9.43105517485e-07
4.08251534458e-07
1.99590716482e-06
6.80810206857e-07
7.53779609969e-08
2.65299926368e-07
3.95948906369e-07
1.34143246357e-06
6.70349777936e-07
9.186883375e-07
1.77401618502e-06
1.13912480759e-06
3.33742390326e-07
1.3133601747e-06
1.66508480132e-06
1.19744581486e-06
9.29882976176e-07
2.19615098672e-06
1.60345056646e-06
8.9353611083e-07
5.18375035968e-07
1.43790357687e-06
6.07242305449e-07
1.8958798291e-06
1.01255877372e-06
2.27757942626e-06
1.64088976192e-06
7.49319646278e-07
1.7586220609e-06
3.29976415376e-07
2.06717924663e-06
3.88626685407e-07
5.94385543223e-07
5.84536415875e-07
2.1116071913e-06
3.58723152439e-07
3.63435180452e-07
3.23622916385e-06
6.69358512034e-07

