# vtk DataFile Version 3.0
File Name: Molecule/sphere_cent/sphere_cent_0-s3.vtk
ASCII
DATASET UNSTRUCTURED_GRID
FIELD FieldData 1
TIME 1 1 double
0.0
POINTS 62 double
0.850650808352 -0.525731112119 0.0
0.809016994375 -0.309016994375 -0.5
1.0 0.0 0.0
0.809016994375 0.309016994375 -0.5
0.525731112119 0.0 -0.850650808352
0.850650808352 0.525731112119 0.0
0.5 0.809016994375 -0.309016994375
0.309016994375 0.5 -0.809016994375
0.0 0.850650808352 -0.525731112119
0.0 0.850650808352 0.525731112119
0.0 1.0 0.0
-0.5 0.809016994375 0.309016994375
-0.5 0.809016994375 -0.309016994375
-0.850650808352 0.525731112119 0.0
-0.309016994375 0.5 0.809016994375
-0.809016994375 0.309016994375 0.5
-0.525731112119 0.0 0.850650808352
0.309016994375 0.5 0.809016994375
0.0 0.0 1.0
0.525731112119 0.0 0.850650808352
-0.309016994375 -0.5 0.809016994375
0.309016994375 -0.5 0.809016994375
0.0 -0.850650808352 0.525731112119
0.809016994375 -0.309016994375 0.5
0.5 -0.809016994375 0.309016994375
0.809016994375 0.309016994375 0.5
-0.525731112119 0.0 -0.850650808352
-0.809016994375 -0.309016994375 -0.5
-0.809016994375 0.309016994375 -0.5
-1.0 0.0 0.0
-0.850650808352 -0.525731112119 0.0
-0.5 -0.809016994375 -0.309016994375
-0.5 -0.809016994375 0.309016994375
0.0 -1.0 0.0
-0.809016994375 -0.309016994375 0.5
-0.309016994375 -0.5 -0.809016994375
0.0 -0.850650808352 -0.525731112119
0.5 -0.809016994375 -0.309016994375
0.309016994375 -0.5 -0.809016994375
0.154508497188 -0.25 -0.904508497187
0.0 0.0 -1.0
0.0 -0.5 -0.809016994375
-0.154508497188 -0.25 -0.904508497187
0.5 0.809016994375 0.309016994375
0.654508497187 0.559016994375 0.404508497188
0.404508497188 0.654508497187 0.559016994375
0.559016994375 0.404508497188 0.654508497187
0.154508497188 0.25 -0.904508497187
-0.154508497188 0.25 -0.904508497187
0.0 0.5 -0.809016994375
-0.309016994375 0.5 -0.809016994375
0.5 0.809016994375 0.0
0.25 0.904508497187 -0.154508497188
0.25 0.904508497187 0.154508497188
-0.404508497188 0.654508497187 -0.559016994375
-0.559016994375 0.404508497188 -0.654508497187
-0.654508497187 0.559016994375 -0.404508497188
0.0 -0.925325404176 -0.26286555606
0.25 -0.829833901363 -0.417374053247
0.25 -0.904508497187 -0.154508497188
0.404508497188 -0.654508497187 -0.559016994375
0.154508497188 -0.675325404176 -0.667374053247

CELLS 120 480
3 0 1 2
3 1 3 2
3 1 4 3
3 2 3 5
3 5 3 6
3 3 7 6
3 3 4 7
3 6 7 8
3 9 10 11
3 10 12 11
3 10 8 12
3 11 12 13
3 9 11 14
3 11 15 14
3 11 13 15
3 14 15 16
3 9 14 17
3 14 18 17
3 14 16 18
3 17 18 19
3 16 20 18
3 20 21 18
3 20 22 21
3 18 21 19
3 19 21 23
3 21 24 23
3 21 22 24
3 23 24 0
3 0 2 23
3 2 25 23
3 2 5 25
3 23 25 19
3 26 27 28
3 27 29 28
3 27 30 29
3 28 29 13
3 30 31 32
3 31 33 32
3 32 33 22
3 30 32 34
3 32 20 34
3 32 22 20
3 34 20 16
3 16 15 34
3 15 29 34
3 15 13 29
3 34 29 30
3 26 35 27
3 35 31 27
3 35 36 31
3 27 31 30
3 37 0 24
3 33 24 22
3 4 1 38
3 1 0 37
3 38 39 4
3 4 39 40
3 38 41 39
3 41 42 39
3 41 35 42
3 39 42 40
3 35 41 36
3 40 42 26
3 42 35 26
3 43 44 5
3 5 44 25
3 43 45 44
3 45 46 44
3 45 17 46
3 44 46 25
3 17 45 9
3 9 45 43
3 25 46 19
3 46 17 19
3 40 47 4
3 4 47 7
3 40 48 47
3 48 49 47
3 48 50 49
3 47 49 7
3 50 48 26
3 26 48 40
3 7 49 8
3 49 50 8
3 6 51 5
3 5 51 43
3 6 52 51
3 52 53 51
3 52 10 53
3 51 53 43
3 10 52 8
3 8 52 6
3 43 53 9
3 53 10 9
3 50 54 8
3 8 54 12
3 50 55 54
3 55 56 54
3 55 28 56
3 54 56 12
3 28 55 26
3 26 55 50
3 12 56 13
3 56 28 13
3 36 57 31
3 31 57 33
3 36 58 57
3 58 59 57
3 58 37 59
3 57 59 33
3 33 59 24
3 24 59 37
3 37 60 1
3 1 60 38
3 38 60 61
3 60 58 61
3 60 37 58
3 61 58 36
3 38 61 41
3 41 61 36

CELL_TYPES 120
5
5
5
5
5
5
5
5
5
5
5
5
5
5
5
5
5
5
5
5
5
5
5
5
5
5
5
5
5
5
5
5
5
5
5
5
5
5
5
5
5
5
5
5
5
5
5
5
5
5
5
5
5
5
5
5
5
5
5
5
5
5
5
5
5
5
5
5
5
5
5
5
5
5
5
5
5
5
5
5
5
5
5
5
5
5
5
5
5
5
5
5
5
5
5
5
5
5
5
5
5
5
5
5
5
5
5
5
5
5
5
5
5
5
5
5
5
5
5
5

CELL_DATA 120
SCALARS cell_data_0 double
LOOKUP_TABLE default
6.94386232326e-08
3.0212971833e-06
5.65359227092e-07
5.6541982076e-07
5.52312973675e-07
2.57844496942e-06
1.38387964019e-07
3.16451007081e-07
6.49191796713e-07
2.4121453332e-06
1.76204974689e-06
8.04962015307e-07
4.49168993062e-07
3.75655994831e-06
1.78635626326e-06
7.14565917155e-07
1.74971171158e-06
1.11486961688e-06
3.38756376836e-07
6.9869393409e-07
2.50167738165e-07
3.17086965167e-06
1.15289065432e-06
5.16594194946e-07
2.93842969168e-07
2.99852602991e-06
1.21710994421e-06
1.3186992107e-06
8.25399642057e-07
2.18052526386e-06
5.55512411401e-07
9.36993652008e-07
4.93660356089e-07
2.57406667931e-06
1.92511597976e-07
2.20693605584e-07
1.83186380183e-06
2.47448643883e-06
5.56439775303e-07
3.0092355336e-06
6.36273724148e-06
1.80653627885e-06
2.56436870805e-06
2.94884162418e-06
5.67241492906e-06
1.28274194851e-06
1.96214178845e-06
6.70742729045e-07
2.95847169148e-06
7.75328480299e-07
7.0429046186e-07
2.21728945691e-06
1.72722075751e-06
6.16070222931e-07
2.41181146036e-06
1.2642615687e-06
4.84309832568e-07
3.27754803112e-08
1.78672299144e-06
1.15224274507e-07
8.01375485438e-07
2.08295358722e-07
5.65025875246e-07
1.39534804195e-06
6.37168444613e-07
1.04997950765e-06
8.55817510733e-07
9.11870934446e-07
1.03827858116e-06
1.25421480478e-06
1.3094883578e-06
8.98766857741e-07
9.57945792069e-07
9.55434679225e-07
7.94997725946e-07
8.61588407171e-07
9.38730977106e-07
1.70572978443e-06
5.27414621428e-07
1.66969334554e-07
2.53084326411e-07
4.75955789009e-07
1.03391066206e-06
1.27751157362e-06
9.30143277524e-07
6.17320113973e-07
1.01609176847e-06
8.91027028064e-07
1.09221159011e-06
1.0408078058e-06
1.25747378381e-06
1.14177568403e-06
1.22496526318e-06
1.6739601097e-06
5.99271204295e-07
1.52806764825e-06
6.84784695668e-07
8.5759518793e-07
1.09774525809e-06
1.05021024867e-06
1.3172667467e-06
3.66875875387e-07
5.53050729426e-07
5.88461213933e-07
4.96556760685e-07
8.7453960679e-07
8.40793240192e-07
6.62127097519e-07
1.35802796343e-06
1.85851684234e-06
1.11845378064e-06
6.46692649887e-07
1.0417728315e-06
4.3103796044e-07
1.32502597698e-06
6.48634588004e-07
1.48434411309e-06
8.00748993355e-07
1.16331134385e-08
6.55087571337e-07

