# vtk DataFile Version 3.0
File Name: Molecule/sphere_cent/sphere_cent_0-s4.vtk
ASCII
DATASET UNSTRUCTURED_GRID
FIELD FieldData 1
TIME 1 1 double
0.0
POINTS 71 double
0.850650808352 -0.525731112119 0.0
0.809016994375 -0.309016994375 -0.5
1.0 0.0 0.0
0.809016994375 0.309016994375 -0.5
0.525731112119 0.0 -0.850650808352
0.850650808352 0.525731112119 0.0
0.5 0.809016994375 -0.309016994375
0.309016994375 0.5 -0.809016994375
0.0 0.850650808352 -0.525731112119
0.0 0.850650808352 0.525731112119
0.0 1.0 0.0
-0.5 0.809016994375 0.309016994375
-0.5 0.809016994375 -0.309016994375
-0.850650808352 0.525731112119 0.0
-0.309016994375 0.5 0.809016994375
0.309016994375 0.5 0.809016994375
0.0 0.0 1.0
-0.525731112119 0.0 0.850650808352
0.525731112119 0.0 0.850650808352
-0.309016994375 -0.5 0.809016994375
0.309016994375 -0.5 0.809016994375
0.0 -0.850650808352 0.525731112119
0.809016994375 -0.309016994375 0.5
0.5 -0.809016994375 0.309016994375
0.809016994375 0.309016994375 0.5
-0.525731112119 0.0 -0.850650808352
-0.809016994375 -0.309016994375 -0.5
-0.809016994375 0.309016994375 -0.5
-1.0 0.0 0.0
-0.850650808352 -0.525731112119 0.0
-0.5 -0.809016994375 -0.309016994375
-0.5 -0.809016994375 0.309016994375
0.0 -1.0 0.0
-0.309016994375 -0.5 -0.809016994375
0.0 -0.850650808352 -0.525731112119
0.5 -0.809016994375 -0.309016994375
0.309016994375 -0.5 -0.809016994375
0.154508497188 -0.25 -0.904508497187
0.0 0.0 -1.0
0.0 -0.5 -0.809016994375
-0.154508497188 -0.25 -0.904508497187
0.5 0.809016994375 0.309016994375
0.654508497187 0.559016994375 0.404508497188
0.404508497188 0.654508497187 0.559016994375
0.559016994375 0.404508497188 0.654508497187
0.154508497188 0.25 -0.904508497187
-0.154508497188 0.25 -0.904508497187
0.0 0.5 -0.809016994375
-0.309016994375 0.5 -0.809016994375
0.5 0.809016994375 0.0
0.25 0.904508497187 -0.154508497188
0.25 0.904508497187 0.154508497188
-0.404508497188 0.654508497187 -0.559016994375
-0.559016994375 0.404508497188 -0.654508497187
-0.654508497187 0.559016994375 -0.404508497188
0.0 -0.925325404176 -0.26286555606
0.25 -0.829833901363 -0.417374053247
0.25 -0.904508497187 -0.154508497188
0.404508497188 -0.654508497187 -0.559016994375
0.154508497188 -0.675325404176 -0.667374053247
-0.404508497188 0.654508497187 0.559016994375
-0.654508497187 0.559016994375 0.404508497188
-0.559016994375 0.404508497188 0.654508497187
-0.809016994375 0.309016994375 0.5
-0.654508497187 -0.559016994375 0.404508497188
-0.809016994375 -0.309016994375 0.5
-0.404508497188 -0.654508497187 0.559016994375
-0.559016994375 -0.404508497188 0.654508497187
-0.809016994375 0.0 0.5
-0.904508497187 0.154508497188 0.25
-0.904508497187 -0.154508497188 0.25

CELLS 138 552
3 0 1 2
3 1 3 2
3 1 4 3
3 2 3 5
3 5 3 6
3 3 7 6
3 3 4 7
3 6 7 8
3 9 10 11
3 10 12 11
3 10 8 12
3 11 12 13
3 9 14 15
3 14 16 15
3 14 17 16
3 15 16 18
3 17 19 16
3 19 20 16
3 19 21 20
3 16 20 18
3 18 20 22
3 20 23 22
3 20 21 23
3 22 23 0
3 0 2 22
3 2 24 22
3 2 5 24
3 22 24 18
3 25 26 27
3 26 28 27
3 26 29 28
3 27 28 13
3 29 30 31
3 30 32 31
3 31 32 21
3 25 33 26
3 33 30 26
3 33 34 30
3 26 30 29
3 35 0 23
3 32 23 21
3 4 1 36
3 1 0 35
3 36 37 4
3 4 37 38
3 36 39 37
3 39 40 37
3 39 33 40
3 37 40 38
3 33 39 34
3 38 40 25
3 40 33 25
3 41 42 5
3 5 42 24
3 41 43 42
3 43 44 42
3 43 15 44
3 42 44 24
3 15 43 9
3 9 43 41
3 24 44 18
3 44 15 18
3 38 45 4
3 4 45 7
3 38 46 45
3 46 47 45
3 46 48 47
3 45 47 7
3 48 46 25
3 25 46 38
3 7 47 8
3 47 48 8
3 6 49 5
3 5 49 41
3 6 50 49
3 50 51 49
3 50 10 51
3 49 51 41
3 10 50 8
3 8 50 6
3 41 51 9
3 51 10 9
3 48 52 8
3 8 52 12
3 48 53 52
3 53 54 52
3 53 27 54
3 52 54 12
3 27 53 25
3 25 53 48
3 12 54 13
3 54 27 13
3 34 55 30
3 30 55 32
3 34 56 55
3 56 57 55
3 56 35 57
3 55 57 32
3 32 57 23
3 23 57 35
3 35 58 1
3 1 58 36
3 36 58 59
3 58 56 59
3 58 35 56
3 59 56 34
3 36 59 39
3 39 59 34
3 11 60 9
3 9 60 14
3 11 61 60
3 61 62 60
3 61 63 62
3 60 62 14
3 63 61 13
3 13 61 11
3 14 62 17
3 62 63 17
3 31 64 29
3 29 64 65
3 31 66 64
3 66 67 64
3 66 19 67
3 64 67 65
3 19 66 21
3 21 66 31
3 65 67 17
3 67 19 17
3 63 68 17
3 17 68 65
3 63 69 68
3 69 70 68
3 69 28 70
3 68 70 65
3 28 69 13
3 13 69 63
3 65 70 29
3 70 28 29

CELL_TYPES 138
5
5
5
5
5
5
5
5
5
5
5
5
5
5
5
5
5
5
5
5
5
5
5
5
5
5
5
5
5
5
5
5
5
5
5
5
5
5
5
5
5
5
5
5
5
5
5
5
5
5
5
5
5
5
5
5
5
5
5
5
5
5
5
5
5
5
5
5
5
5
5
5
5
5
5
5
5
5
5
5
5
5
5
5
5
5
5
5
5
5
5
5
5
5
5
5
5
5
5
5
5
5
5
5
5
5
5
5
5
5
5
5
5
5
5
5
5
5
5
5
5
5
5
5
5
5
5
5
5
5
5
5
5
5
5
5
5
5

CELL_DATA 138
SCALARS cell_data_0 double
LOOKUP_TABLE default
3.15538232273e-07
3.50111769752e-06
4.64297952651e-08
1.15083450118e-06
6.06335546266e-07
2.0345184754e-06
8.18643263394e-07
1.46611320098e-06
3.28772080668e-07
3.39702319784e-06
4.28042796377e-07
2.17778280303e-07
5.87588681865e-07
3.12776573933e-06
1.19845219249e-06
7.81480298524e-08
1.33165524448e-06
2.86483022845e-06
2.63637439003e-07
2.84848714434e-07
3.63697168587e-07
2.08037200837e-06
3.32829572493e-07
8.5898966396e-08
4.50466602152e-07
3.54391955936e-06
1.04904289205e-06
3.82776266375e-07
1.30119645404e-06
5.12256102835e-06
6.02498860922e-07
2.32934069734e-06
5.0843367308e-07
6.63994863765e-07
8.02355085217e-07
1.36913149346e-07
4.92080200316e-07
3.11332819559e-06
2.42383233106e-06
1.66266930111e-06
1.13611173546e-06
6.36019010431e-07
1.52050274789e-06
5.69946413037e-07
1.40002837431e-06
8.08192177299e-07
8.5596601667e-07
8.71563977549e-07
1.16265568999e-06
1.36548380997e-06
1.10566353356e-06
6.56336454804e-07
2.24248009136e-07
5.96664938927e-07
9.86276865468e-07
6.3267439048e-07
1.38838827492e-06
9.99794949351e-07
1.86568584048e-06
1.25547161273e-06
6.89601611631e-07
8.93584842937e-07
6.1271019171e-07
5.71998659269e-07
1.10462135297e-07
1.97096912563e-06
4.40408405521e-07
6.27984973237e-08
3.2089847487e-07
1.44294496734e-06
1.368554715e-06
2.17069533846e-07
6.34105245237e-07
3.11469030296e-07
1.06838089799e-06
7.04499479984e-07
8.58535841858e-07
8.6486448746e-07
8.71877174783e-07
1.25282503223e-06
9.62342172203e-07
9.2239892414e-07
2.22093698507e-07
1.2081074753e-06
1.72055651549e-08
1.92796281728e-06
4.16092428981e-07
3.63781766989e-07
4.18710207107e-07
4.34880949692e-07
1.50974486242e-07
1.02483096862e-06
3.0881234964e-06
3.09585352411e-06
2.1739698213e-06
3.75462327677e-08
6.21188280747e-07
1.50362014449e-06
5.49617609365e-07
2.44642721013e-06
1.72909319592e-06
1.13986163046e-06
1.05649515199e-06
2.28526856144e-07
9.34615271288e-07
2.16584432172e-06
1.10875122899e-06
8.0258969238e-07
1.1938952962e-06
1.05217610618e-06
1.63985209385e-07
1.77818830049e-06
7.39206496506e-08
9.62900321339e-07
9.43938503743e-07
1.31818893798e-06
4.02877187247e-07
9.86279105629e-07
1.74307106421e-06
5.05363013685e-08
8.1066501609e-07
1.9404200544e-06
7.03043842853e-07
4.85590202185e-07
6.87467558214e-08
5.78953067922e-07
1.72753525084e-06
3.39874367606e-07
1.24231284575e-06
1.98836915595e-06
1.41031119396e-06
6.21278483905e-07
7.95885663972e-07
1.9008526094e-06
2.52112964142e-07
8.96838664286e-07
2.06279497878e-06
6.54761411222e-07

