# vtk DataFile Version 3.0
File Name: Molecule/sphere_dip_12/sphere_dip_12_0-s3.vtk
ASCII
DATASET UNSTRUCTURED_GRID
FIELD FieldData 1
TIME 1 1 double
0.0
POINTS 86 double
0.809016994375 -0.309016994375 -0.5
0.809016994375 0.309016994375 -0.5
1.0 0.0 0.0
0.525731112119 0.0 -0.850650808352
0.850650808352 0.525731112119 0.0
0.5 0.809016994375 -0.309016994375
0.309016994375 0.5 -0.809016994375
0.0 0.850650808352 -0.525731112119
0.5 0.809016994375 0.309016994375
0.0 1.0 0.0
-0.5 0.809016994375 0.309016994375
-0.850650808352 0.525731112119 0.0
-0.809016994375 0.309016994375 0.5
0.809016994375 0.309016994375 0.5
-0.525731112119 0.0 -0.850650808352
-0.809016994375 -0.309016994375 -0.5
-0.809016994375 0.309016994375 -0.5
-1.0 0.0 0.0
-0.850650808352 -0.525731112119 0.0
-0.309016994375 0.5 -0.809016994375
-0.5 0.809016994375 -0.309016994375
-0.5 -0.809016994375 -0.309016994375
-0.5 -0.809016994375 0.309016994375
0.0 -1.0 0.0
0.0 -0.850650808352 -0.525731112119
0.0 -0.850650808352 0.525731112119
-0.809016994375 -0.309016994375 0.5
-0.309016994375 -0.5 0.809016994375
-0.525731112119 0.0 0.850650808352
-0.309016994375 -0.5 -0.809016994375
0.5 -0.809016994375 -0.309016994375
0.5 -0.809016994375 0.309016994375
0.309016994375 -0.5 -0.809016994375
0.850650808352 -0.525731112119 0.0
0.925325404176 -0.26286555606 0.0
0.525731112119 0.0 0.850650808352
0.417374053247 -0.25 0.829833901363
0.667374053247 -0.154508497188 0.675325404176
0.559016994375 -0.404508497188 0.654508497187
0.309016994375 -0.5 0.809016994375
0.809016994375 -0.309016994375 0.5
0.404508497188 -0.654508497187 0.559016994375
0.654508497187 -0.559016994375 0.404508497188
0.829833901363 -0.417374053247 0.25
0.675325404176 -0.667374053247 0.154508497188
0.904508497187 -0.154508497188 0.25
0.904508497187 0.154508497188 0.25
0.809016994375 0.0 0.5
0.667374053247 0.154508497188 0.675325404176
0.309016994375 0.5 0.809016994375
0.154508497188 0.25 -0.904508497187
0.0 0.0 -1.0
-0.154508497188 0.25 -0.904508497187
0.0 0.5 -0.809016994375
0.25 0.904508497187 0.154508497188
0.25 0.829833901363 0.417374053247
0.0 0.925325404176 0.26286555606
0.0 0.850650808352 0.525731112119
-0.25 0.829833901363 0.417374053247
-0.25 0.904508497187 0.154508497188
-0.25 0.904508497187 -0.154508497188
-0.5 0.809016994375 0.0
-0.154508497188 0.675325404176 0.667374053247
-0.404508497188 0.654508497187 0.559016994375
-0.309016994375 0.5 0.809016994375
-0.417374053247 0.25 0.829833901363
0.154508497188 0.675325404176 0.667374053247
0.0 0.5 0.809016994375
-0.154508497188 0.25 0.904508497187
0.154508497188 0.25 0.904508497187
0.0 0.0 1.0
-0.26286555606 0.0 0.925325404176
0.417374053247 0.25 0.829833901363
0.26286555606 0.0 0.925325404176
-0.417374053247 -0.25 0.829833901363
-0.154508497188 -0.25 0.904508497187
0.0 -0.5 0.809016994375
0.154508497188 -0.25 0.904508497187
0.417374053247 -0.25 -0.829833901363
0.26286555606 0.0 -0.925325404176
0.154508497188 -0.25 -0.904508497187
0.0 -0.5 -0.809016994375
-0.154508497188 -0.25 -0.904508497187
-0.26286555606 0.0 -0.925325404176
-0.417374053247 -0.25 -0.829833901363
0.404508497188 0.654508497187 0.559016994375

CELLS 168 672
3 0 1 2
3 0 3 1
3 2 1 4
3 4 1 5
3 1 6 5
3 1 3 6
3 5 6 7
3 4 5 8
3 5 7 9
3 10 11 12
3 4 8 13
3 14 15 16
3 15 17 16
3 15 18 17
3 16 17 11
3 7 19 20
3 19 16 20
3 19 14 16
3 20 16 11
3 18 21 22
3 21 23 22
3 21 24 23
3 22 23 25
3 18 22 26
3 22 27 26
3 22 25 27
3 28 12 26
3 12 17 26
3 12 11 17
3 26 17 18
3 29 21 15
3 29 24 21
3 15 21 18
3 24 30 23
3 30 31 23
3 23 31 25
3 0 30 32
3 0 33 30
3 32 30 24
3 2 34 0
3 0 34 33
3 35 36 37
3 36 38 37
3 36 39 38
3 37 38 40
3 39 41 38
3 41 42 38
3 41 31 42
3 38 42 40
3 31 41 25
3 25 41 39
3 40 42 43
3 42 44 43
3 42 31 44
3 43 44 33
3 33 34 43
3 34 45 43
3 34 2 45
3 43 45 40
3 2 46 45
3 46 47 45
3 46 13 47
3 45 47 40
3 13 46 4
3 4 46 2
3 40 47 37
3 47 48 37
3 47 13 48
3 37 48 35
3 49 48 13
3 33 44 30
3 30 44 31
3 3 50 6
3 51 52 50
3 52 53 50
3 52 19 53
3 50 53 6
3 19 52 14
3 6 53 7
3 53 19 7
3 9 54 5
3 5 54 8
3 8 54 55
3 54 56 55
3 54 9 56
3 55 56 57
3 57 56 58
3 56 59 58
3 56 9 59
3 58 59 10
3 9 60 59
3 60 61 59
3 60 20 61
3 59 61 10
3 20 60 7
3 7 60 9
3 10 61 11
3 61 20 11
3 57 58 62
3 58 63 62
3 58 10 63
3 62 63 64
3 64 63 12
3 12 63 10
3 28 65 12
3 12 65 64
3 57 62 66
3 62 67 66
3 62 64 67
3 66 67 49
3 64 68 67
3 68 69 67
3 68 70 69
3 67 69 49
3 64 65 68
3 65 71 68
3 65 28 71
3 68 71 70
3 49 69 72
3 69 73 72
3 69 70 73
3 72 73 35
3 28 74 71
3 74 75 71
3 74 27 75
3 71 75 70
3 27 76 75
3 76 77 75
3 76 39 77
3 75 77 70
3 39 76 25
3 25 76 27
3 3 78 79
3 78 80 79
3 78 32 80
3 79 80 51
3 32 81 80
3 81 82 80
3 81 29 82
3 80 82 51
3 29 81 24
3 24 81 32
3 51 82 83
3 82 84 83
3 82 29 84
3 83 84 14
3 8 85 13
3 85 49 13
3 8 55 85
3 55 66 85
3 55 57 66
3 85 66 49
3 27 74 26
3 26 74 28
3 14 84 15
3 84 29 15
3 32 78 0
3 0 78 3
3 70 77 36
3 36 77 39
3 35 73 36
3 36 73 70
3 49 72 48
3 48 72 35
3 3 79 50
3 50 79 51
3 51 83 52
3 52 83 14

CELL_TYPES 168
5
5
5
5
5
5
5
5
5
5
5
5
5
5
5
5
5
5
5
5
5
5
5
5
5
5
5
5
5
5
5
5
5
5
5
5
5
5
5
5
5
5
5
5
5
5
5
5
5
5
5
5
5
5
5
5
5
5
5
5
5
5
5
5
5
5
5
5
5
5
5
5
5
5
5
5
5
5
5
5
5
5
5
5
5
5
5
5
5
5
5
5
5
5
5
5
5
5
5
5
5
5
5
5
5
5
5
5
5
5
5
5
5
5
5
5
5
5
5
5
5
5
5
5
5
5
5
5
5
5
5
5
5
5
5
5
5
5
5
5
5
5
5
5
5
5
5
5
5
5
5
5
5
5
5
5
5
5
5
5
5
5
5
5
5
5
5
5

CELL_DATA 168
SCALARS cell_data_0 double
LOOKUP_TABLE default
0.000184930194513
5.07983313696e-05
0.000248956120228
0.000305416226102
0.000151192435662
0.000192466056691
0.000137401677404
4.07905292779e-05
2.42507645187e-05
0.000280641722401
0.000248757857906
0.000145652630588
0.00010273087454
3.19836206378e-05
2.204944981e-05
0.000187791302349
0.000243332538974
0.00033225482359
4.94800086364e-05
3.59016193508e-05
7.88873157135e-05
0.000303579707515
0.000155057323354
1.75768820718e-05
2.24524506744e-05
7.67031987616e-05
2.96530350841e-05
5.23729161102e-06
2.0299461063e-05
8.56928002584e-06
0.000267103967294
2.08775793905e-05
6.44750374791e-05
0.000292922668984
8.8926003655e-05
0.000171141658853
0.000111343618244
6.4838841228e-05
0.000289035504774
2.23640520832e-05
2.08948022135e-05
2.56563026447e-05
2.89156889408e-05
2.46665042379e-05
6.83028553111e-08
1.79212522184e-05
1.33818919296e-05
1.63836657865e-05
8.81555526233e-06
6.10216313918e-05
1.09340410532e-05
2.78228191104e-05
1.97120369393e-05
2.95413013374e-05
2.24822776726e-05
1.24132729342e-05
0.000318898819059
0.000295744521376
0.00036483138824
0.000843060636604
0.0016328057402
0.00109914425709
0.00100439595826
0.000719371726433
0.000440696397686
0.000303470843362
0.000450667310546
0.000683217628638
6.78596154809e-05
0.000350232873248
1.65925017388e-05
5.28319036316e-05
0.000341117719124
0.000268326559339
0.000243332571719
0.000223262894929
0.000192206602385
0.000404228749814
0.000180195408276
0.000217952116049
1.27970302664e-05
2.14364335396e-05
1.01553136054e-06
4.03889771621e-06
4.16704038144e-07
2.16746496554e-05
2.88687234819e-05
6.08690084904e-06
4.71789485108e-06
9.32491591913e-05
5.42716033901e-06
4.75649167054e-06
8.76713891719e-06
0.00011034084584
2.75669219949e-05
2.50702214035e-05
0.000166392489108
7.57667261869e-06
3.07831678077e-05
2.42792117909e-05
0.000127817184186
2.18583940677e-05
2.58641828871e-05
0.000246329816558
2.85750483952e-05
2.64299830378e-05
4.59339867054e-05
5.30202295049e-05
3.56776905051e-05
4.35792777661e-05
4.97710743329e-05
2.60350802178e-05
3.64885621519e-05
2.79252976094e-05
4.74554418566e-06
2.6666973262e-05
1.32606809516e-05
2.28705088027e-05
9.5000148387e-07
5.92389028872e-06
2.13130707508e-05
6.4421709004e-06
2.24945681213e-06
7.6120225356e-06
1.29955194971e-06
2.31667562178e-05
5.33560482752e-06
9.88726561349e-06
8.91135688599e-07
3.29883493877e-05
2.96040817945e-05
2.70141394608e-05
5.27865859786e-05
1.87975955598e-05
4.92943117142e-05
0.000249456236697
4.6469942271e-05
2.96487794189e-05
8.77049469292e-05
0.000324026100505
4.48787304348e-06
0.00018982593106
0.000249446834514
1.87837016916e-05
6.42311782305e-05
2.00995451704e-05
0.000167936319453
0.000130378735641
6.82719639274e-06
1.62125651903e-05
4.36581262882e-05
1.18571556816e-05
2.17562260329e-05
7.77655727048e-06
4.43089914894e-05
0.000143380664793
4.20167356075e-05
0.000126643618075
5.4789325408e-05
2.08921121343e-05
2.79940872487e-05
5.35791020191e-05
8.28865559835e-05
8.7325310376e-05
0.000246504944762
0.000333967579095
0.000328350023303
0.000218749093882

