# vtk DataFile Version 3.0
File Name: Molecule/sphere_cent/sphere_cent_0-s2.vtk
ASCII
DATASET UNSTRUCTURED_GRID
FIELD FieldData 1
TIME 1 1 double
0.0
POINTS 72 double
0.00025026491494 0.85069477558 0.52566367388
-0.50379121304 0.79962098598 0.32183167338
-0.32171303034 0.50456660986 0.79909658432
-0.80915981531 0.30869376659 0.49984622002
-0.85064971447 0.52579909563 -0.00018181692576
-0.52552050352 0.0001786526409 0.85077941418
-0.30907741189 -0.50012564659 0.80881983042
0.00051572819939 -0.016441635787 0.99868404865
0.30910426378 -0.50011497736 0.80882620811
1.0197608091e-08 -0.85065078735 0.52573102713
0.52558678389 0.00044712077943 0.85069793463
0.80884051323 -0.30908530951 0.50011265278
0.49996772408 -0.80893701315 0.30896639824
0.85069662333 -0.52558887005 -0.00044686824549
0.99866890907 4.4238269766e-05 0.016096424311
0.81591808796 0.29561972618 0.49453285336
0.8505396843 0.52591437101 -0.0001555064373
0.00025315201492 0.85069578886 -0.52566307783
-0.32157874107 0.5042616725 -0.79945975542
-0.50360769033 0.79887741804 -0.32237449288
-0.79806679487 0.32197991014 -0.50433981419
-0.52561342716 -3.7446147871e-07 -0.85076206923
-0.85077804327 -0.52552139759 -0.00017868704163
-0.49984535575 -0.80917578936 -0.30869916081
-0.49995979667 -0.80893021822 0.30897811055
1.1052979971e-05 -0.99990302324 -2.2423264454e-05
0.00027689136914 -0.8504204154 -0.5260361433
-0.80881285667 -0.30908328295 0.5001283884
-0.99820280075 0.00016288257029 0.016706064343
-0.32184904814 -0.50441604853 -0.79969334602
-0.79885566235 -0.32199168205 -0.50403118134
0.49458613992 -0.81635117531 -0.29571917653
0.80887049437 -0.30894845724 -0.49994236231
0.95138597488 -0.1611135751 -0.26274600625
0.85138207674 1.8162771084e-05 -0.52480995655
0.95141106844 0.16136865318 -0.26267409325
0.80888175964 0.30897507071 -0.49993273616
0.52573108673 6.6520411401e-09 -0.85065078735
0.68756639957 0.58787882328 -0.42647343874
0.49992129207 0.80889028311 -0.30896797776
0.58784687519 0.42638745904 -0.68768328428
0.4264536202 0.68761861324 -0.58782655001
0.30898237228 0.49991869926 -0.80888772011
0.52467852831 0.85143518448 -2.9967864975e-05
0.49991840124 0.80889320374 0.30895727873
0.26357367635 0.95116007328 -0.16139304638
0.26357659698 0.95115029812 0.16142486036
2.4461451176e-05 0.99983751774 8.1420825637e-10
-0.26399305463 0.95091348886 0.16215412319
-0.26405116916 0.95089012384 -0.16220027208
-0.52524858713 0.85099935532 -5.5237320339e-05
-0.00082869321341 0.52506792545 0.85119009018
0.30896091461 0.49993675947 0.8088619709
-0.16185775399 0.26324015856 0.95107644796
0.16117194295 0.26272544265 0.95137494802
0.30898109078 -0.49988898635 -0.80889099836
0.16148717701 -0.26351967454 -0.95118677616
1.8290464141e-05 -8.1508765959e-08 -0.99983751774
-0.00091359741054 -0.52486795187 -0.85125821829
-0.16212651134 -0.2640658021 -0.95086181164
0.68820750713 0.58720159531 0.42637696862
0.42645922303 0.6876000762 0.58784228563
0.58852577209 0.42595046759 0.6872599721
-0.85098999739 2.0767411115e-05 -0.52529376745
-0.95107358694 -0.16187500954 -0.26323056221
-0.95107579231 0.16199105978 -0.2632342577
0.58786654472 -0.42638367414 -0.68766868114
0.68724393845 -0.58852410316 -0.42597928643
0.42647600174 -0.68812280893 -0.58713322878
0.16148759425 0.26351597905 -0.95118772984
-0.16210645437 0.26412031054 -0.95085448027
-0.00084308820078 0.5250800848 -0.85118377209

CELLS 140 560
3 0 1 2
3 1 3 2
3 1 4 3
3 2 3 5
3 5 6 7
3 6 8 7
3 6 9 8
3 7 8 10
3 10 8 11
3 8 12 11
3 8 9 12
3 11 12 13
3 13 14 11
3 14 15 11
3 14 16 15
3 11 15 10
3 17 18 19
3 18 20 19
3 18 21 20
3 19 20 4
3 22 23 24
3 23 25 24
3 23 26 25
3 24 25 9
3 22 24 27
3 24 6 27
3 24 9 6
3 27 6 5
3 5 3 27
3 3 28 27
3 3 4 28
3 27 28 22
3 21 29 30
3 29 23 30
3 29 26 23
3 30 23 22
3 26 31 25
3 31 12 25
3 31 13 12
3 25 12 9
3 32 33 13
3 13 33 14
3 32 34 33
3 34 35 33
3 34 36 35
3 33 35 14
3 36 34 37
3 37 34 32
3 14 35 16
3 35 36 16
3 36 38 16
3 16 38 39
3 36 40 38
3 40 41 38
3 40 42 41
3 38 41 39
3 42 40 37
3 37 40 36
3 39 41 17
3 41 42 17
3 39 43 16
3 16 43 44
3 39 45 43
3 45 46 43
3 45 47 46
3 43 46 44
3 47 45 17
3 17 45 39
3 44 46 0
3 46 47 0
3 47 48 0
3 0 48 1
3 47 49 48
3 49 50 48
3 49 19 50
3 48 50 1
3 19 49 17
3 17 49 47
3 1 50 4
3 50 19 4
3 2 51 0
3 0 51 52
3 2 53 51
3 53 54 51
3 53 7 54
3 51 54 52
3 7 53 5
3 5 53 2
3 52 54 10
3 54 7 10
3 55 56 37
3 37 56 57
3 55 58 56
3 58 59 56
3 58 29 59
3 56 59 57
3 29 58 26
3 26 58 55
3 57 59 21
3 59 29 21
3 44 60 16
3 16 60 15
3 44 61 60
3 61 62 60
3 61 52 62
3 60 62 15
3 52 61 0
3 0 61 44
3 15 62 10
3 62 52 10
3 30 63 21
3 21 63 20
3 30 64 63
3 64 65 63
3 64 28 65
3 63 65 20
3 28 64 22
3 22 64 30
3 20 65 4
3 65 28 4
3 32 66 37
3 37 66 55
3 32 67 66
3 67 68 66
3 67 31 68
3 66 68 55
3 31 67 13
3 13 67 32
3 55 68 26
3 68 31 26
3 57 69 37
3 37 69 42
3 57 70 69
3 70 71 69
3 70 18 71
3 69 71 42
3 18 70 21
3 21 70 57
3 42 71 17
3 71 18 17

CELL_TYPES 140
5
5
5
5
5
5
5
5
5
5
5
5
5
5
5
5
5
5
5
5
5
5
5
5
5
5
5
5
5
5
5
5
5
5
5
5
5
5
5
5
5
5
5
5
5
5
5
5
5
5
5
5
5
5
5
5
5
5
5
5
5
5
5
5
5
5
5
5
5
5
5
5
5
5
5
5
5
5
5
5
5
5
5
5
5
5
5
5
5
5
5
5
5
5
5
5
5
5
5
5
5
5
5
5
5
5
5
5
5
5
5
5
5
5
5
5
5
5
5
5
5
5
5
5
5
5
5
5
5
5
5
5
5
5
5
5
5
5
5
5

CELL_DATA 140
SCALARS cell_data_0 double
LOOKUP_TABLE default
8.12241084724e-07
3.14170048646e-06
1.40650443417e-06
1.80490327235e-06
1.66557453257e-07
1.91976833912e-06
7.52423128665e-08
7.44974314959e-07
3.39865217713e-07
2.81810334169e-06
5.71488389607e-07
1.25927240573e-06
3.16039810714e-07
3.60431707636e-06
1.89649685281e-06
1.55038340506e-06
1.74444296007e-06
5.59303878915e-06
3.6743797523e-06
3.37682018706e-06
2.8160605173e-06
7.3387277066e-06
8.01865727272e-07
3.79803481141e-06
4.80337081158e-06
7.44295693194e-06
1.92502751767e-06
2.2684687175e-06
3.32812469337e-06
8.35296177972e-06
3.97024578177e-06
5.34042028538e-06
2.6935383989e-06
5.30484945388e-06
1.5984554936e-07
3.40136418981e-06
3.22505819272e-06
6.57998025614e-06
1.93357574233e-06
1.52500946227e-06
1.73809338471e-06
1.43674787843e-06
1.4575516777e-06
5.7546470124e-07
1.31965350724e-06
1.53810030696e-06
5.75075857572e-07
8.26813843272e-07
1.43229219878e-06
1.41888360766e-06
8.47287654841e-07
8.40678074479e-07
9.55255998753e-07
2.29511896127e-07
1.24750252163e-06
1.31945769603e-06
4.48166635387e-07
5.65977835707e-07
1.22691616703e-06
1.11189797879e-06
7.16203105937e-07
5.90645548562e-07
7.94444976469e-07
4.31211816397e-07
6.99074723597e-07
6.16960681893e-07
5.29501072719e-07
4.97045950638e-07
1.8896811641e-07
3.52712434228e-07
4.97806074505e-07
8.16968018242e-07
1.27057275462e-06
4.79869028946e-09
1.2476237225e-06
7.39217687452e-07
1.66544601515e-06
1.29258939206e-06
1.89868065377e-07
2.66832782053e-07
5.60827298474e-07
7.82005166665e-07
1.14669961861e-06
2.04549258771e-07
1.5163325243e-06
1.05942567872e-06
1.34789893309e-06
8.73825372028e-07
6.41416464662e-07
8.24605326371e-07
1.16697493315e-06
1.24869654433e-06
1.22930563102e-06
5.58219906282e-08
7.45572982999e-07
1.2693070421e-06
9.78008291653e-07
7.96540760135e-07
8.01015827034e-07
9.52817504473e-07
5.17044540279e-07
2.25943515196e-07
7.93517511936e-07
2.74219164608e-07
1.03792758849e-06
3.45246883418e-07
9.41560027763e-07
5.31568068073e-07
2.81212863096e-07
4.63675428035e-07
5.77726855793e-07
4.30503944442e-07
2.27250429113e-07
5.47397007925e-07
2.21203156713e-07
1.54284547041e-07
1.06780875526e-06
1.05262958338e-06
1.03928577407e-06
1.2350065672e-06
8.44300472995e-07
5.92510853567e-07
1.02127250506e-06
2.6141302701e-07
4.01261666225e-08
8.77961694125e-07
2.61925727394e-07
1.00369754875e-06
7.96376897518e-07
2.22035942639e-07
6.91798183076e-07
4.97338145323e-07
9.32909290743e-07
2.72993636833e-07
3.20259776056e-07
8.1366110998e-07
2.48733286536e-07
8.0576511235e-07
3.42425069836e-07
2.15070348022e-08

