# vtk DataFile Version 3.0
File Name: Molecule/methanol/methanol_5.0-3.vtk
ASCII
DATASET UNSTRUCTURED_GRID
FIELD FieldData 1
TIME 1 1 double
0.0
POINTS 256 double
1.341 -0.432 -0.927
1.345 -0.911 -0.332
1.16 -0.83 -0.909
1.032 -1.273 -0.301
0.876 -1.16 -0.88
0.631 -1.532 -0.261
0.51 -1.396 -0.844
0.173 -1.667 -0.216
0.093 -1.519 -0.802
-0.304 -1.667 -0.168
-0.341 -1.519 -0.759
-0.762 -1.532 -0.123
-0.758 -1.396 -0.718
-1.163 -1.273 -0.083
-1.124 -1.16 -0.681
-1.475 -0.911 -0.051
-1.408 -0.83 -0.653
-1.674 -0.475 -0.032
-1.589 -0.432 -0.635
-1.742 -0.0 -0.025
-1.651 -0.0 -0.629
-1.674 0.475 -0.032
-1.589 0.432 -0.635
-1.475 0.911 -0.051
-1.408 0.83 -0.653
-1.163 1.273 -0.083
-1.124 1.16 -0.681
-0.762 1.532 -0.123
-0.758 1.396 -0.718
-0.304 1.667 -0.168
-0.341 1.519 -0.759
0.173 1.667 -0.216
0.093 1.519 -0.802
0.631 1.532 -0.261
0.51 1.396 -0.844
1.032 1.273 -0.301
0.876 1.16 -0.88
1.345 0.911 -0.332
1.16 0.83 -0.909
1.543 0.475 -0.352
1.341 0.432 -0.927
1.907 0.0 0.656
1.852 0.452 0.656
1.852 0.226 1.047
1.852 -0.226 1.047
1.852 -0.452 0.656
1.852 -0.226 0.264
1.852 0.226 0.264
1.69 0.76 1.094
1.69 0.439 1.415
1.69 -0.0 1.533
1.69 -0.439 1.415
1.69 -0.76 1.094
1.69 -0.877 0.656
1.69 -0.76 0.217
1.69 -0.439 -0.104
1.69 0.439 -0.104
1.69 0.76 0.217
1.69 0.877 0.656
1.432 1.167 1.108
1.432 0.925 1.499
1.432 0.558 1.776
1.432 0.115 1.902
1.432 -0.343 1.859
1.432 -0.754 1.654
1.432 -1.064 1.315
1.432 -1.23 0.886
1.432 -1.23 0.426
1.432 -1.064 -0.003
1.432 1.167 0.203
1.432 1.252 0.656
1.091 1.484 1.113
1.091 1.283 1.531
1.091 0.969 1.87
1.091 0.568 2.102
1.091 0.116 2.205
1.091 -0.346 2.17
1.091 -0.777 2.001
1.091 -1.139 1.712
1.091 -1.4 1.33
1.091 -1.536 0.887
1.091 -1.536 0.424
1.091 -1.4 -0.018
1.091 1.484 0.198
1.091 1.553 0.656
0.688 1.705 1.112
0.688 1.528 1.538
0.688 1.248 1.904
0.688 0.882 2.184
0.688 0.457 2.36
0.688 0.0 2.42
0.688 -0.457 2.36
0.688 -0.882 2.184
0.688 -1.248 1.904
0.688 -1.528 1.538
0.688 -1.705 1.112
0.688 -1.765 0.656
0.688 -1.705 0.199
0.688 1.705 0.199
0.688 1.765 0.656
0.247 1.815 1.122
0.247 1.642 1.558
0.247 1.366 1.938
0.247 1.004 2.238
0.247 0.579 2.438
0.247 0.118 2.526
0.247 -0.351 2.496
0.247 -0.798 2.351
0.247 -1.194 2.099
0.247 -1.516 1.757
0.247 -1.742 1.345
0.247 -1.859 0.89
0.247 -1.859 0.421
0.247 1.815 0.19
0.247 1.874 0.656
-0.209 1.815 1.122
-0.209 1.642 1.558
-0.209 1.366 1.938
-0.209 1.004 2.238
-0.209 0.579 2.438
-0.209 0.118 2.526
-0.209 -0.351 2.496
-0.209 -0.798 2.351
-0.209 -1.194 2.099
-0.209 -1.516 1.757
-0.209 -1.742 1.345
-0.209 -1.859 0.89
-0.209 -1.859 0.421
-0.209 1.815 0.19
-0.209 1.874 0.656
-0.65 1.765 0.656
-0.65 1.705 1.112
-0.65 1.528 1.538
-0.65 1.248 1.904
-0.65 0.882 2.184
-0.65 0.457 2.36
-0.65 0.0 2.42
-0.65 -0.457 2.36
-0.65 -0.882 2.184
-0.65 -1.248 1.904
-0.65 -1.528 1.538
-0.65 -1.705 1.112
-0.65 -1.765 0.656
-0.65 -1.705 0.199
-0.65 1.705 0.199
-1.053 1.553 0.656
-1.053 1.484 1.113
-1.053 1.283 1.531
-1.053 0.969 1.87
-1.053 0.568 2.102
-1.053 0.116 2.205
-1.053 -0.346 2.17
-1.053 -0.777 2.001
-1.053 -1.139 1.712
-1.053 -1.4 1.33
-1.053 -1.536 0.887
-1.053 -1.536 0.424
-1.053 1.484 0.198
-1.394 1.252 0.656
-1.394 1.167 1.108
-1.394 0.925 1.499
-1.394 0.558 1.776
-1.394 0.115 1.902
-1.394 -0.343 1.859
-1.394 -0.754 1.654
-1.394 -1.064 1.315
-1.394 -1.23 0.886
-1.394 -1.23 0.426
-1.394 1.167 0.203
-1.652 0.877 0.656
-1.652 0.76 1.094
-1.652 0.439 1.415
-1.652 -0.0 1.533
-1.652 -0.439 1.415
-1.652 -0.76 1.094
-1.652 -0.877 0.656
-1.652 -0.76 0.217
-1.652 0.76 0.217
-1.814 0.452 0.656
-1.814 0.226 1.047
-1.814 -0.226 1.047
-1.814 -0.452 0.656
-1.814 -0.226 0.264
-1.814 0.226 0.264
-1.868 -0.0 0.656
1.543 -0.475 -0.352
1.611 0.0 -0.359
1.122 -0.781 -1.188
0.783 -1.147 -1.212
0.783 -0.878 -1.615
1.122 -0.451 -1.519
0.783 -0.475 -1.885
1.122 0.781 -1.188
0.783 0.878 -1.615
0.783 1.147 -1.212
0.355 -1.284 -1.432
0.355 -0.989 -1.811
0.355 -0.586 -2.074
0.355 -0.121 -2.192
0.783 0.0 -1.979
0.355 0.358 -2.152
0.783 0.475 -1.885
0.355 0.798 -1.959
0.355 1.152 -1.634
0.355 1.381 -1.211
-0.12 -1.383 -1.403
-0.12 -1.125 -1.781
-0.12 -0.767 -2.067
-0.12 -0.342 -2.234
-0.12 0.115 -2.268
-0.12 0.561 -2.166
-0.12 0.957 -1.937
-0.12 1.268 -1.602
-0.12 1.467 -1.19
-0.594 -1.44 -0.977
-0.594 -1.284 -1.432
-0.594 -0.989 -1.811
-0.594 -0.586 -2.074
-0.594 -0.121 -2.192
-0.594 0.358 -2.152
-0.594 0.798 -1.959
-0.594 1.152 -1.634
-0.594 1.381 -1.211
-1.022 -1.147 -1.212
-1.022 -0.878 -1.615
-1.022 -0.475 -1.885
-1.022 0.0 -1.979
-1.022 0.475 -1.885
-1.022 0.878 -1.615
-1.022 1.147 -1.212
-1.362 -0.781 -1.188
-1.362 -0.451 -1.519
-1.362 -0.0 -1.639
-1.362 0.451 -1.519
-1.362 0.781 -1.188
-1.58 -0.237 -1.148
-1.58 0.237 -1.148
1.122 0.451 -1.519
1.403 0.0 -0.933
1.122 -0.0 -1.639
0.9525 -0.2375 -1.762
0.9525 0.0 -1.809
0.783 -0.2375 -1.932
0.9525 0.2375 -1.762
0.783 0.2375 -1.932
1.476 0.216 -0.643
1.372 0.216 -0.93
1.507 0.0 -0.646
0.9525 0.463 -1.702
0.9525 0.6645 -1.567
0.783 0.6765 -1.75
1.473 -0.2375 -0.6425
1.372 -0.216 -0.93
1.442 -0.4535 -0.6395
1.455 0.0 -0.7895
1.525 -0.2375 -0.499

CELLS 508 2032
3 0 1 2
3 1 3 2
3 2 3 4
3 3 5 4
3 4 5 6
3 5 7 6
3 6 7 8
3 7 9 8
3 8 9 10
3 9 11 10
3 10 11 12
3 11 13 12
3 12 13 14
3 13 15 14
3 14 15 16
3 15 17 16
3 16 17 18
3 17 19 18
3 18 19 20
3 19 21 20
3 20 21 22
3 21 23 22
3 22 23 24
3 23 25 24
3 24 25 26
3 25 27 26
3 26 27 28
3 27 29 28
3 28 29 30
3 29 31 30
3 30 31 32
3 31 33 32
3 32 33 34
3 33 35 34
3 34 35 36
3 35 37 36
3 36 37 38
3 37 39 38
3 38 39 40
3 41 42 43
3 41 43 44
3 41 44 45
3 41 45 46
3 41 46 47
3 41 47 42
3 43 42 48
3 43 48 49
3 43 49 50
3 44 43 50
3 44 50 51
3 44 51 52
3 45 44 52
3 45 52 53
3 45 53 54
3 46 45 54
3 46 54 55
3 47 56 57
3 42 47 57
3 42 57 58
3 42 58 48
3 48 58 59
3 48 59 60
3 49 48 60
3 49 60 61
3 49 61 62
3 50 49 62
3 50 62 63
3 51 50 63
3 51 63 64
3 52 51 64
3 52 64 65
3 52 65 66
3 53 52 66
3 53 66 67
3 54 53 67
3 54 67 68
3 58 57 69
3 58 69 70
3 58 70 59
3 59 70 71
3 59 71 72
3 60 59 72
3 60 72 73
3 61 60 73
3 61 73 74
3 62 61 74
3 62 74 75
3 62 75 76
3 63 62 76
3 63 76 77
3 64 63 77
3 64 77 78
3 65 64 78
3 65 78 79
3 66 65 79
3 66 79 80
3 66 80 81
3 67 66 81
3 67 81 82
3 68 67 82
3 70 69 83
3 70 83 84
3 70 84 71
3 71 84 85
3 71 85 86
3 72 71 86
3 72 86 87
3 73 72 87
3 73 87 88
3 74 73 88
3 74 88 89
3 75 74 89
3 75 89 90
3 76 75 90
3 76 90 91
3 77 76 91
3 77 91 92
3 77 92 93
3 78 77 93
3 78 93 94
3 79 78 94
3 79 94 95
3 80 79 95
3 80 95 96
3 81 80 96
3 81 96 97
3 82 81 97
3 84 83 98
3 84 98 99
3 84 99 85
3 85 99 100
3 85 100 101
3 86 85 101
3 86 101 102
3 87 86 102
3 87 102 103
3 88 87 103
3 88 103 104
3 89 88 104
3 89 104 105
3 90 89 105
3 90 105 106
3 91 90 106
3 91 106 107
3 92 91 107
3 92 107 108
3 93 92 108
3 93 108 109
3 94 93 109
3 94 109 110
3 95 94 110
3 95 110 111
3 96 95 111
3 96 111 112
3 97 96 112
3 99 98 113
3 99 113 114
3 99 114 100
3 100 114 115
3 100 115 116
3 101 100 116
3 101 116 117
3 102 101 117
3 102 117 118
3 103 102 118
3 103 118 119
3 104 103 119
3 104 119 120
3 105 104 120
3 105 120 121
3 106 105 121
3 106 121 122
3 107 106 122
3 107 122 123
3 108 107 123
3 108 123 124
3 109 108 124
3 109 124 125
3 110 109 125
3 110 125 126
3 111 110 126
3 111 126 127
3 112 111 127
3 114 113 128
3 114 128 129
3 114 129 115
3 115 129 130
3 115 130 131
3 116 115 131
3 116 131 132
3 117 116 132
3 117 132 133
3 118 117 133
3 118 133 134
3 119 118 134
3 119 134 135
3 120 119 135
3 120 135 136
3 121 120 136
3 121 136 137
3 122 121 137
3 122 137 138
3 123 122 138
3 123 138 139
3 124 123 139
3 124 139 140
3 125 124 140
3 125 140 141
3 126 125 141
3 126 141 142
3 127 126 142
3 127 142 143
3 130 128 144
3 129 128 130
3 131 130 145
3 131 145 146
3 132 131 146
3 132 146 147
3 133 132 147
3 133 147 148
3 134 133 148
3 134 148 149
3 135 134 149
3 135 149 150
3 136 135 150
3 136 150 151
3 137 136 151
3 137 151 152
3 138 137 152
3 139 138 152
3 139 152 153
3 140 139 153
3 140 153 154
3 141 140 154
3 141 154 155
3 142 141 155
3 142 155 156
3 143 142 156
3 145 144 157
3 130 144 145
3 146 145 158
3 146 158 159
3 147 146 159
3 147 159 160
3 148 147 160
3 148 160 161
3 149 148 161
3 149 161 162
3 150 149 162
3 151 150 162
3 151 162 163
3 152 151 163
3 152 163 164
3 153 152 164
3 153 164 165
3 154 153 165
3 154 165 166
3 155 154 166
3 155 166 167
3 156 155 167
3 158 157 168
3 145 157 158
3 159 158 169
3 159 169 170
3 160 159 170
3 160 170 171
3 161 160 171
3 162 161 171
3 162 171 172
3 163 162 172
3 163 172 173
3 164 163 173
3 164 173 174
3 165 164 174
3 166 165 174
3 166 174 175
3 167 166 175
3 167 175 176
3 169 168 177
3 158 168 169
3 170 169 178
3 170 178 179
3 171 170 179
3 172 171 179
3 172 179 180
3 173 172 180
3 174 173 180
3 174 180 181
3 175 174 181
3 176 175 181
3 176 181 182
3 178 177 183
3 169 177 178
3 179 178 184
3 180 179 184
3 181 180 184
3 182 181 184
3 183 182 184
3 178 183 184
3 183 177 21
3 183 21 19
3 183 19 182
3 182 19 17
3 182 17 176
3 176 17 15
3 176 15 167
3 167 15 13
3 167 13 156
3 156 13 11
3 156 11 143
3 143 11 9
3 143 9 127
3 127 9 7
3 127 7 112
3 112 7 97
3 97 7 5
3 97 5 82
3 82 5 3
3 82 3 68
3 68 3 1
3 68 1 55
3 68 55 54
3 55 1 185
3 55 185 186
3 55 186 46
3 46 186 47
3 47 186 56
3 56 186 39
3 56 39 37
3 56 37 57
3 57 37 69
3 69 37 35
3 69 35 83
3 83 35 33
3 83 33 98
3 98 33 113
3 113 33 31
3 113 31 128
3 128 31 29
3 128 29 144
3 144 29 27
3 144 27 157
3 157 27 25
3 157 25 168
3 168 25 23
3 168 23 177
3 177 23 21
3 187 188 189
3 190 187 189
3 190 189 191
3 192 193 194
3 189 188 195
3 189 195 196
3 191 189 196
3 191 196 197
3 191 197 198
3 199 198 200
3 201 200 202
3 193 202 203
3 194 193 203
3 194 203 204
3 195 205 206
3 196 195 206
3 196 206 207
3 197 196 207
3 197 207 208
3 198 197 208
3 198 208 209
3 200 198 209
3 200 209 210
3 202 200 210
3 202 210 211
3 203 202 211
3 203 211 212
3 204 203 212
3 204 212 213
3 205 214 215
3 206 205 215
3 206 215 216
3 207 206 216
3 207 216 217
3 208 207 217
3 208 217 218
3 209 208 218
3 209 218 219
3 210 209 219
3 210 219 220
3 211 210 220
3 211 220 221
3 212 211 221
3 212 221 222
3 213 212 222
3 215 214 223
3 215 223 224
3 216 215 224
3 216 224 225
3 217 216 225
3 218 217 225
3 218 225 226
3 219 218 226
3 219 226 227
3 220 219 227
3 220 227 228
3 221 220 228
3 221 228 229
3 222 221 229
3 224 223 230
3 224 230 231
3 225 224 231
3 225 231 232
3 226 225 232
3 227 226 232
3 227 232 233
3 228 227 233
3 228 233 234
3 229 228 234
3 231 230 235
3 232 231 235
3 232 235 236
3 233 232 236
3 234 233 236
3 234 236 22
3 234 22 24
3 234 24 26
3 234 26 229
3 229 26 28
3 229 28 222
3 222 28 30
3 222 30 213
3 213 30 32
3 213 32 204
3 204 32 34
3 204 34 194
3 194 34 36
3 194 36 192
3 192 36 38
3 192 38 40
3 192 40 237
3 237 238 239
3 239 238 190
3 190 0 187
3 187 0 2
3 187 2 4
3 187 4 188
3 188 4 6
3 188 6 195
3 195 6 8
3 195 8 205
3 205 8 10
3 205 10 214
3 214 10 12
3 214 12 223
3 223 12 14
3 223 14 230
3 230 14 16
3 230 16 18
3 230 18 235
3 235 18 20
3 235 20 236
3 236 20 22
3 191 240 190
3 190 240 239
3 239 240 241
3 240 242 241
3 240 191 242
3 241 242 199
3 239 241 243
3 241 244 243
3 241 199 244
3 243 244 201
3 239 243 237
3 199 242 198
3 242 191 198
3 201 244 200
3 244 199 200
3 186 245 39
3 39 245 40
3 40 245 246
3 245 247 246
3 245 186 247
3 237 248 249
3 248 250 249
3 248 201 250
3 249 250 193
3 237 249 192
3 192 249 193
3 193 250 202
3 250 201 202
3 40 246 237
3 237 246 238
3 201 248 243
3 243 248 237
3 238 251 252
3 251 253 252
3 251 185 253
3 252 253 0
3 0 253 1
3 1 253 185
3 238 252 190
3 190 252 0
3 238 254 251
3 254 255 251
3 254 247 255
3 251 255 185
3 185 255 186
3 255 247 186
3 247 254 246
3 246 254 238

CELL_TYPES 508
5
5
5
5
5
5
5
5
5
5
5
5
5
5
5
5
5
5
5
5
5
5
5
5
5
5
5
5
5
5
5
5
5
5
5
5
5
5
5
5
5
5
5
5
5
5
5
5
5
5
5
5
5
5
5
5
5
5
5
5
5
5
5
5
5
5
5
5
5
5
5
5
5
5
5
5
5
5
5
5
5
5
5
5
5
5
5
5
5
5
5
5
5
5
5
5
5
5
5
5
5
5
5
5
5
5
5
5
5
5
5
5
5
5
5
5
5
5
5
5
5
5
5
5
5
5
5
5
5
5
5
5
5
5
5
5
5
5
5
5
5
5
5
5
5
5
5
5
5
5
5
5
5
5
5
5
5
5
5
5
5
5
5
5
5
5
5
5
5
5
5
5
5
5
5
5
5
5
5
5
5
5
5
5
5
5
5
5
5
5
5
5
5
5
5
5
5
5
5
5
5
5
5
5
5
5
5
5
5
5
5
5
5
5
5
5
5
5
5
5
5
5
5
5
5
5
5
5
5
5
5
5
5
5
5
5
5
5
5
5
5
5
5
5
5
5
5
5
5
5
5
5
5
5
5
5
5
5
5
5
5
5
5
5
5
5
5
5
5
5
5
5
5
5
5
5
5
5
5
5
5
5
5
5
5
5
5
5
5
5
5
5
5
5
5
5
5
5
5
5
5
5
5
5
5
5
5
5
5
5
5
5
5
5
5
5
5
5
5
5
5
5
5
5
5
5
5
5
5
5
5
5
5
5
5
5
5
5
5
5
5
5
5
5
5
5
5
5
5
5
5
5
5
5
5
5
5
5
5
5
5
5
5
5
5
5
5
5
5
5
5
5
5
5
5
5
5
5
5
5
5
5
5
5
5
5
5
5
5
5
5
5
5
5
5
5
5
5
5
5
5
5
5
5
5
5
5
5
5
5
5
5
5
5
5
5
5
5
5
5
5
5
5
5
5
5
5
5
5
5
5
5
5
5
5
5
5
5
5
5
5
5
5
5
5
5
5
5
5
5
5
5
5
5
5
5
5
5
5
5
5
5
5
5
5
5
5
5
5
5
5
5
5
5
5
5
5
5
5
5
5
5
5
5
5
5
5
5
5
5
5
5
5
5
5
5
5
5
5
5
5
5
5
5
5
5
5
5

CELL_DATA 508
SCALARS cell_data_0 double
LOOKUP_TABLE default
8.72925718882e-07
8.67024082418e-08
1.54244508513e-07
1.97671102488e-08
4.99130910652e-09
3.03980014062e-08
6.25196676082e-08
1.79321179132e-08
8.17282823699e-08
3.76604838845e-09
9.52054800853e-08
1.81045854303e-08
1.00987559136e-07
2.56809006969e-08
9.41405812127e-08
3.30498798417e-08
1.00028181637e-07
4.05293309975e-08
9.30425594092e-08
4.90555116216e-08
9.61737745299e-08
5.53734667688e-08
7.78223181305e-08
6.2644721208e-08
7.45020621524e-08
7.27905595741e-08
5.86277368559e-08
8.06291651262e-08
3.97922756127e-08
8.76044766596e-08
1.07117395257e-08
9.28745944402e-08
3.42429634323e-08
7.93776686928e-08
7.8095231613e-08
2.34720189709e-08
2.91322858126e-08
5.44201428594e-08
5.98440590457e-07
6.28823082873e-10
1.25440570219e-10
5.35409333824e-10
1.31918485241e-11
6.09532546324e-10
8.66496178282e-11
6.25585560982e-10
2.72446991241e-10
2.93066272252e-10
8.99361531968e-10
1.65630536427e-10
4.42475946734e-10
9.00495000522e-10
3.38648689453e-10
1.07710795208e-09
1.04623684312e-09
5.59954601906e-10
7.54500249607e-10
2.51769967839e-09
9.85411070775e-10
6.1698950141e-10
6.96344108191e-11
3.99755611969e-10
1.75447186842e-10
3.30809150515e-10
2.35442714437e-10
2.6766848449e-10
6.32479060891e-10
3.72792437858e-10
2.71483343435e-10
4.25688083266e-10
4.5476666825e-10
4.82133439392e-10
4.72884008516e-10
5.16877741196e-11
2.48290870959e-09
1.74969651978e-09
7.71809242882e-10
9.13420409569e-10
3.28017615179e-10
1.86603360937e-11
1.38885395073e-10
1.24345594574e-10
1.4508846264e-10
2.29006858182e-10
1.57514433945e-10
3.28187299796e-11
1.76969627116e-10
4.64989844285e-11
2.7796492308e-10
3.02342465019e-10
1.58880425314e-10
3.60632607487e-10
1.81231569428e-10
9.52521107334e-12
3.3683655687e-10
1.12890867735e-10
7.69649766222e-10
3.12115806005e-09
1.25027298188e-09
1.63782807456e-09
5.67390872048e-10
7.6033688632e-10
8.97545377211e-10
1.4813359847e-10
1.00621511461e-10
6.7953208177e-11
1.40271386066e-11
6.29141464894e-11
2.49318582468e-10
4.60960021173e-11
2.14448280741e-10
8.30859486212e-11
1.25136093319e-10
7.41339733632e-11
1.22462412055e-10
1.92355440063e-10
2.8236427348e-10
1.31286025458e-11
2.22211850319e-10
4.99942930533e-11
5.70546580862e-10
9.4280936702e-11
2.77897139223e-10
5.40738801523e-10
1.58511073534e-09
1.05507833465e-10
1.7740984275e-09
1.15931630769e-09
5.79442183621e-10
1.05434391058e-09
1.3120884742e-10
1.89933726423e-10
1.06360516105e-10
1.45913687621e-10
1.12061067718e-10
2.56378856556e-10
1.19686906453e-10
1.96409856628e-10
1.60753526698e-10
2.62831298345e-10
3.86045732296e-12
2.1910037641e-10
1.74936924346e-11
4.15218802985e-10
1.3252315626e-10
1.56258999551e-10
1.70620544566e-10
1.45732293614e-10
8.21966540089e-11
1.59440292498e-10
3.43954434778e-11
7.07178943334e-10
1.07539597726e-09
9.91644047404e-10
6.99379410553e-10
3.53160178241e-09
3.27722227334e-10
1.41312452579e-09
8.63462143064e-11
5.232491859e-10
1.07269061729e-10
1.95815853871e-10
2.83628727585e-11
1.34996974785e-11
2.77404010155e-11
2.92343253988e-11
9.78390834417e-11
1.21173818046e-11
7.69785437088e-11
1.74977475723e-11
5.02923126038e-11
1.06557662071e-11
2.55377332138e-10
9.31062600582e-11
3.68382267239e-10
8.68992577499e-11
5.63624886554e-10
9.43463730449e-12
7.14144689278e-10
1.83464411544e-13
1.98581823525e-09
1.74483825411e-10
2.45223774129e-09
5.8003371778e-09
3.85001667388e-10
1.84332268711e-09
3.41202132887e-09
2.0483981837e-10
1.35503862417e-09
1.41989912163e-10
5.98851703148e-10
1.09464109594e-10
3.45626979668e-10
9.22424162595e-11
2.30563362955e-10
7.83069493843e-11
1.94365198474e-10
1.7323327261e-10
1.95695424471e-10
1.36061738339e-10
1.93100480847e-10
1.73447861574e-10
2.05148038554e-11
1.71476133207e-10
5.77680173866e-11
9.00316286989e-11
1.66519463893e-10
3.62473507642e-10
4.82183590573e-11
2.03509963866e-09
1.6704859691e-09
2.64994923594e-09
3.90469040759e-09
1.88154928681e-10
3.6414414948e-09
6.04000066688e-10
1.31494149884e-09
1.15676269017e-10
5.58096363188e-10
2.83321998994e-11
3.69383109363e-10
1.41088223678e-10
1.74611986607e-10
1.55207480993e-10
6.58288542385e-11
2.99796032156e-10
7.35419631177e-11
2.95120811645e-10
3.07089118536e-10
1.29455503843e-10
1.0287544493e-10
1.57297542649e-10
3.53144195069e-10
2.93716151523e-11
1.31166600942e-09
3.21736791147e-10
2.34945427442e-09
1.6950172391e-09
6.11883060719e-09
6.45451752348e-11
4.2084994712e-09
7.92443404853e-10
1.38770800492e-09
8.77090529365e-11
5.72892258768e-10
2.3707596321e-10
2.23081731965e-10
3.21056982937e-10
5.55843074678e-11
1.68687407554e-10
3.32838478914e-10
1.86300924407e-10
3.80069131037e-10
3.94631264671e-10
4.99886199117e-11
7.32471674707e-10
2.74572221467e-10
1.74148510434e-09
1.50481717803e-09
4.45776711592e-09
8.17145034004e-09
7.15795214646e-10
4.42293340253e-09
7.3059729298e-10
1.35779116618e-09
1.46110689907e-10
4.36211924229e-10
3.08257737481e-11
1.19539780474e-09
4.51218757087e-10
7.87608209271e-10
6.77183414949e-10
9.46951213433e-10
1.7668323467e-09
3.9239531812e-10
2.9217056984e-09
9.79286844591e-11
7.72416276797e-09
1.04862281147e-08
1.99910893352e-09
4.12143858856e-09
7.71050710328e-10
1.04878235244e-09
2.05115898372e-10
3.04804404069e-09
1.52359556319e-09
1.22268989745e-09
5.81446601134e-10
2.17780528403e-09
1.04769019062e-08
5.02916818333e-09
1.17920539122e-08
2.79888076424e-09
3.2044790636e-09
1.59203830212e-09
1.68024135861e-09
8.16280199675e-09
4.12611787874e-09
2.39849224167e-09
4.4184929278e-09
2.8413739307e-08
2.79915564683e-09
2.84596139732e-08
4.96498492979e-09
2.19984265647e-08
2.6826733757e-08
5.9672911884e-08
2.20516478047e-08
6.07641707082e-08
9.74743346722e-10
1.99432827264e-08
3.40871636202e-08
4.43058061673e-08
2.79699097168e-08
2.69551063386e-08
2.85745261154e-08
1.84994386197e-08
2.70097119771e-09
8.29441518449e-09
2.91580109368e-10
2.7806478172e-08
2.16948606744e-09
1.85649168962e-08
2.33589788532e-08
3.18598853072e-09
5.89247039704e-09
1.12392441094e-08
5.01105990115e-09
1.48019688616e-09
1.17049198204e-08
3.86743911309e-09
1.02629158875e-08
4.41186870049e-09
7.55434694891e-09
3.63800872773e-09
7.54388203452e-09
8.52559219875e-09
5.98135874491e-09
1.80157889015e-08
3.73446275779e-09
2.31009809577e-08
2.52958528267e-09
2.35380749139e-08
7.33116345746e-10
2.36699338405e-08
6.93779543804e-10
2.37344917856e-08
2.6041616297e-07
1.1845408567e-06
1.43154209969e-06
1.88113059521e-07
9.43081424667e-09
1.2504541499e-07
1.52124991135e-07
3.55408501622e-07
2.81826931852e-07
4.49624470102e-07
3.43703951551e-07
1.73078930012e-07
1.81037960779e-07
5.60055878037e-08
2.84321197546e-08
8.94337826707e-09
4.69404311372e-08
2.88691213606e-09
7.60634778064e-08
2.76042420789e-08
9.17757247956e-08
6.21239849069e-08
7.9406848581e-08
6.92563383132e-08
5.12982223387e-08
5.1269283679e-08
3.00009032858e-08
3.25405114424e-08
1.40685996545e-08
1.38017165318e-08
7.22940950125e-09
1.2340517663e-08
2.78804427563e-09
1.76188673962e-08
1.08294042289e-09
2.23045215761e-08
9.53342241895e-09
2.48896169931e-08
1.55380576356e-08
2.0398648298e-08
1.56078832755e-08
1.46954494205e-08
1.07291537103e-08
8.76086710991e-09
5.13034083525e-09
4.36895775922e-09
3.27739282117e-09
5.92017621459e-09
3.0533196747e-10
5.48616465728e-10
1.99896258656e-09
5.46576382606e-09
4.33069996992e-10
4.06259165077e-09
1.4644915744e-09
3.02086406024e-09
2.06189511746e-09
2.10864591253e-09
2.93505941911e-09
1.56861569717e-08
3.50088483573e-09
8.83157505345e-09
3.69687386325e-09
6.13518020159e-09
5.95790406858e-11
3.36674258682e-09
5.16219119029e-09
2.78309842121e-09
1.46211381719e-08
1.97057373671e-08
6.39589657562e-09
5.19586006555e-09
8.95185907047e-09
1.92519644889e-08
9.5503473219e-09
2.41073031394e-08
2.82158445131e-08
8.80601214436e-09
3.64493299405e-08
6.02637995821e-09
2.79202225258e-08
2.87412775297e-09
2.10242057109e-08
6.56297491393e-09
1.66669676373e-08
3.17394554973e-08
1.00262841382e-08
1.65219104373e-07
1.90058251272e-08
2.33625428864e-07
6.51273350858e-07
1.28047542676e-06
1.59942736917e-07
3.38268135836e-07
2.95512346305e-07
2.95452249686e-08
3.0443315749e-07
2.6224541803e-09
1.02368632283e-07
1.62241676941e-08
6.11378770053e-08
2.65764725878e-08
2.16041807275e-09
8.16677914577e-09
6.41346511938e-09
3.52804917897e-08
1.57058201665e-08
2.69604953582e-08
2.42178077789e-08
8.97606979745e-09
3.03299586813e-08
1.66925556004e-08
3.05866965326e-08
3.21188061338e-07
7.60633225672e-08
2.12296929048e-07
1.42166703218e-07
8.89249596224e-08
7.74955453578e-08
2.07921899394e-07
1.26113817787e-07
7.52892968657e-08
7.54967630779e-08
7.23693279733e-07
2.09133085824e-07
5.17349262872e-09
2.26447106974e-07
1.10855357613e-07
7.59840888894e-08
2.4397657637e-07
1.95231039923e-07
2.47035155963e-08
3.69840931452e-08
1.4589047996e-07
1.56808850001e-08
5.90548458206e-08
2.86656676091e-08
4.52022915899e-07
9.2243984715e-08
1.23123417059e-07
1.37199593941e-07
2.1773662004e-08
8.49263233537e-08
3.25583195335e-08
9.03813247052e-08
3.38498210751e-07
1.89925588855e-07
4.29402631693e-08
7.30151274168e-08
4.53559090015e-07
4.49743666023e-08
1.67670445645e-07
1.88160999069e-07
2.99516070086e-07
1.09026787405e-07
1.07130816508e-07
1.88164070242e-08
2.12579130214e-08
1.39936081307e-08
1.26202944546e-07
1.88851339376e-08

