# vtk DataFile Version 3.0
File Name: Molecule/methanol/methanol_12.5-4.vtk
ASCII
DATASET UNSTRUCTURED_GRID
FIELD FieldData 1
TIME 1 1 double
0.0
POINTS 664 double
1.611 0.0 -0.359
1.582 -0.31 -0.356
1.475 0.0 -0.634
1.448 -0.29 -0.632
1.498 -0.608 -0.348
1.36 -0.887 -0.334
1.369 -0.57 -0.624
1.173 -1.135 -0.315
1.24 -0.83 -0.611
1.066 -1.062 -0.594
1.174 -0.808 -0.91
1.004 -1.034 -0.893
0.945 -1.344 -0.292
0.852 -1.258 -0.572
0.796 -1.224 -0.872
0.682 -1.508 -0.266
0.605 -1.411 -0.548
0.557 -1.374 -0.849
0.393 -1.62 -0.238
0.335 -1.517 -0.521
0.294 -1.476 -0.822
0.089 -1.677 -0.207
0.051 -1.57 -0.493
0.017 -1.528 -0.795
-0.22 -1.677 -0.176
-0.239 -1.57 -0.464
-0.265 -1.528 -0.767
-0.524 -1.62 -0.146
-0.523 -1.517 -0.435
-0.542 -1.476 -0.739
-0.813 -1.508 -0.117
-0.793 -1.411 -0.408
-0.805 -1.374 -0.713
-1.075 -1.344 -0.091
-1.039 -1.258 -0.384
-1.044 -1.224 -0.689
-1.304 -1.135 -0.069
-1.253 -1.062 -0.363
-1.252 -1.034 -0.668
-1.49 -0.887 -0.05
-1.428 -0.83 -0.345
-1.422 -0.808 -0.651
-1.628 -0.608 -0.036
-1.557 -0.57 -0.332
-1.548 -0.554 -0.639
-1.713 -0.31 -0.028
-1.636 -0.29 -0.324
-1.625 -0.282 -0.631
-1.742 0.0 -0.025
-1.663 0.0 -0.322
-1.651 0.0 -0.629
-1.713 0.31 -0.028
-1.636 0.29 -0.324
-1.625 0.282 -0.631
-1.628 0.608 -0.036
-1.557 0.57 -0.332
-1.548 0.554 -0.639
-1.49 0.887 -0.05
-1.428 0.83 -0.345
-1.422 0.808 -0.651
-1.304 1.135 -0.069
-1.253 1.062 -0.363
-1.252 1.034 -0.668
-1.075 1.344 -0.091
-1.039 1.258 -0.384
-1.044 1.224 -0.689
-0.813 1.508 -0.117
-0.793 1.411 -0.408
-0.805 1.374 -0.713
-0.524 1.62 -0.146
-0.523 1.517 -0.435
-0.542 1.476 -0.739
-0.22 1.677 -0.176
-0.239 1.57 -0.464
-0.265 1.528 -0.767
0.089 1.677 -0.207
0.051 1.57 -0.493
0.017 1.528 -0.795
0.393 1.62 -0.238
0.335 1.517 -0.521
0.294 1.476 -0.822
0.682 1.508 -0.266
0.605 1.411 -0.548
0.557 1.374 -0.849
0.945 1.344 -0.292
0.852 1.258 -0.572
0.796 1.224 -0.872
1.173 1.135 -0.315
1.066 1.062 -0.594
1.004 1.034 -0.893
1.36 0.887 -0.334
1.24 0.83 -0.611
1.174 0.808 -0.91
1.498 0.608 -0.348
1.369 0.57 -0.624
1.3 0.554 -0.923
1.582 0.31 -0.356
1.448 0.29 -0.632
1.907 0.0 0.656
1.883 0.295 0.656
1.883 0.148 0.911
1.883 -0.148 0.911
1.883 -0.295 0.656
1.883 -0.148 0.4
1.883 0.148 0.4
1.814 0.505 0.947
1.814 0.292 1.161
1.814 -0.0 1.239
1.814 -0.292 1.161
1.814 -0.505 0.947
1.814 -0.583 0.656
1.814 -0.505 0.364
1.814 -0.292 0.15
1.814 -0.0 0.072
1.814 0.292 0.15
1.814 0.505 0.364
1.814 0.583 0.656
1.701 0.805 0.949
1.701 0.656 1.206
1.701 0.428 1.398
1.701 0.149 1.499
1.701 -0.149 1.499
1.701 -0.428 1.398
1.701 -0.656 1.206
1.701 -0.805 0.949
1.701 -0.857 0.656
1.701 -0.805 0.363
1.701 -0.656 0.105
1.701 -0.428 -0.087
1.701 -0.149 -0.188
1.701 0.149 -0.188
1.701 0.428 -0.087
1.701 0.656 0.105
1.701 0.805 0.363
1.701 0.857 0.656
1.546 1.072 0.943
1.546 0.961 1.21
1.546 0.784 1.44
1.546 0.555 1.616
1.546 0.287 1.727
1.546 0.0 1.765
1.546 -0.287 1.727
1.546 -0.555 1.616
1.546 -0.784 1.44
1.546 -0.961 1.21
1.546 -1.072 0.943
1.546 -1.109 0.656
1.546 -1.072 0.368
1.546 -0.961 0.101
1.546 -0.784 -0.129
1.546 0.784 -0.129
1.546 0.961 0.101
1.546 1.072 0.368
1.546 1.109 0.656
1.354 1.301 0.953
1.354 1.202 1.235
1.354 1.043 1.488
1.354 0.832 1.699
1.354 0.579 1.858
1.354 0.297 1.957
1.354 0.0 1.99
1.354 -0.297 1.957
1.354 -0.579 1.858
1.354 -0.832 1.699
1.354 -1.043 1.488
1.354 -1.202 1.235
1.354 -1.301 0.953
1.354 -1.335 0.656
1.354 -1.301 0.359
1.354 -1.202 0.077
1.354 -1.043 -0.177
1.354 1.043 -0.177
1.354 1.202 0.077
1.354 1.301 0.359
1.354 1.335 0.656
1.128 1.499 0.945
1.128 1.418 1.223
1.128 1.285 1.481
1.128 1.105 1.709
1.128 0.886 1.899
1.128 0.634 2.045
1.128 0.36 2.14
1.128 0.073 2.181
1.128 -0.217 2.167
1.128 -0.499 2.099
1.128 -0.764 1.978
1.128 -1.0 1.81
1.128 -1.2 1.6
1.128 -1.357 1.355
1.128 -1.465 1.086
1.128 -1.52 0.801
1.128 -1.52 0.51
1.128 -1.465 0.225
1.128 -1.357 -0.044
1.128 1.285 -0.17
1.128 1.418 0.088
1.128 1.499 0.367
1.128 1.527 0.656
0.876 1.656 0.948
0.876 1.58 1.231
0.876 1.456 1.496
0.876 1.288 1.737
0.876 1.081 1.944
0.876 0.841 2.112
0.876 0.575 2.236
0.876 0.292 2.312
0.876 0.0 2.337
0.876 -0.292 2.312
0.876 -0.575 2.236
0.876 -0.841 2.112
0.876 -1.081 1.944
0.876 -1.288 1.737
0.876 -1.456 1.496
0.876 -1.58 1.231
0.876 -1.656 0.948
0.876 -1.682 0.656
0.876 -1.656 0.364
0.876 -1.58 0.08
0.876 1.58 0.08
0.876 1.656 0.364
0.876 1.682 0.656
0.602 1.771 0.951
0.602 1.698 1.238
0.602 1.579 1.51
0.602 1.417 1.758
0.602 1.216 1.976
0.602 0.982 2.158
0.602 0.721 2.3
0.602 0.441 2.396
0.602 0.148 2.445
0.602 -0.148 2.445
0.602 -0.441 2.396
0.602 -0.721 2.3
0.602 -0.982 2.158
0.602 -1.216 1.976
0.602 -1.417 1.758
0.602 -1.579 1.51
0.602 -1.698 1.238
0.602 -1.771 0.951
0.602 -1.795 0.656
0.602 -1.771 0.36
0.602 -1.698 0.073
0.602 1.698 0.073
0.602 1.771 0.36
0.602 1.795 0.656
0.314 1.841 0.947
0.314 1.773 1.232
0.314 1.661 1.502
0.314 1.508 1.751
0.314 1.318 1.974
0.314 1.096 2.164
0.314 0.846 2.317
0.314 0.576 2.429
0.314 0.292 2.497
0.314 -0.0 2.52
0.314 -0.292 2.497
0.314 -0.576 2.429
0.314 -0.846 2.317
0.314 -1.096 2.164
0.314 -1.318 1.974
0.314 -1.508 1.751
0.314 -1.661 1.502
0.314 -1.773 1.232
0.314 -1.841 0.947
0.314 -1.864 0.656
0.314 -1.841 0.364
0.314 -1.773 0.08
0.314 1.773 0.08
0.314 1.841 0.364
0.314 1.864 0.656
0.019 1.865 0.944
0.019 1.8 1.225
0.019 1.692 1.493
0.019 1.544 1.742
0.019 1.36 1.964
0.019 1.144 2.157
0.019 0.902 2.314
0.019 0.638 2.432
0.019 0.359 2.509
0.019 0.072 2.542
0.019 -0.216 2.531
0.019 -0.5 2.476
0.019 -0.772 2.378
0.019 -1.026 2.24
0.019 -1.256 2.065
0.019 -1.456 1.857
0.019 -1.622 1.62
0.019 -1.751 1.361
0.019 -1.838 1.086
0.019 -1.882 0.8
0.019 -1.882 0.511
0.019 -1.838 0.226
0.019 -1.751 -0.05
0.019 1.8 0.086
0.019 1.865 0.367
0.019 1.888 0.656
-0.276 1.864 0.656
-0.276 1.841 0.947
-0.276 1.773 1.232
-0.276 1.661 1.502
-0.276 1.508 1.751
-0.276 1.318 1.974
-0.276 1.096 2.164
-0.276 0.846 2.317
-0.276 0.576 2.429
-0.276 0.292 2.497
-0.276 -0.0 2.52
-0.276 -0.292 2.497
-0.276 -0.576 2.429
-0.276 -0.846 2.317
-0.276 -1.096 2.164
-0.276 -1.318 1.974
-0.276 -1.508 1.751
-0.276 -1.661 1.502
-0.276 -1.773 1.232
-0.276 -1.841 0.947
-0.276 -1.864 0.656
-0.276 -1.841 0.364
-0.276 -1.773 0.08
-0.276 1.773 0.08
-0.276 1.841 0.364
-0.564 1.795 0.656
-0.564 1.771 0.951
-0.564 1.698 1.238
-0.564 1.579 1.51
-0.564 1.417 1.758
-0.564 1.216 1.976
-0.564 0.982 2.158
-0.564 0.721 2.3
-0.564 0.441 2.396
-0.564 0.148 2.445
-0.564 -0.148 2.445
-0.564 -0.441 2.396
-0.564 -0.721 2.3
-0.564 -0.982 2.158
-0.564 -1.216 1.976
-0.564 -1.417 1.758
-0.564 -1.579 1.51
-0.564 -1.698 1.238
-0.564 -1.771 0.951
-0.564 -1.795 0.656
-0.564 -1.771 0.36
-0.564 -1.698 0.073
-0.564 1.698 0.073
-0.564 1.771 0.36
-0.838 1.682 0.656
-0.838 1.656 0.948
-0.838 1.58 1.231
-0.838 1.456 1.496
-0.838 1.288 1.737
-0.838 1.081 1.944
-0.838 0.841 2.112
-0.838 0.575 2.236
-0.838 0.292 2.312
-0.838 0.0 2.337
-0.838 -0.292 2.312
-0.838 -0.575 2.236
-0.838 -0.841 2.112
-0.838 -1.081 1.944
-0.838 -1.288 1.737
-0.838 -1.456 1.496
-0.838 -1.58 1.231
-0.838 -1.656 0.948
-0.838 -1.682 0.656
-0.838 -1.656 0.364
-0.838 -1.58 0.08
-0.838 1.58 0.08
-0.838 1.656 0.364
-1.09 1.527 0.656
-1.09 1.499 0.945
-1.09 1.418 1.223
-1.09 1.285 1.481
-1.09 1.105 1.709
-1.09 0.886 1.899
-1.09 0.634 2.045
-1.09 0.36 2.14
-1.09 0.073 2.181
-1.09 -0.217 2.167
-1.09 -0.499 2.099
-1.09 -0.764 1.978
-1.09 -1.0 1.81
-1.09 -1.2 1.6
-1.09 -1.357 1.355
-1.09 -1.465 1.086
-1.09 -1.52 0.801
-1.09 -1.52 0.51
-1.09 -1.465 0.225
-1.09 1.418 0.088
-1.09 1.499 0.367
-1.316 1.335 0.656
-1.316 1.301 0.953
-1.316 1.202 1.235
-1.316 1.043 1.488
-1.316 0.832 1.699
-1.316 0.579 1.858
-1.316 0.297 1.957
-1.316 0.0 1.99
-1.316 -0.297 1.957
-1.316 -0.579 1.858
-1.316 -0.832 1.699
-1.316 -1.043 1.488
-1.316 -1.202 1.235
-1.316 -1.301 0.953
-1.316 -1.335 0.656
-1.316 -1.301 0.359
-1.316 -1.202 0.077
-1.316 1.202 0.077
-1.316 1.301 0.359
-1.508 1.109 0.656
-1.508 1.072 0.943
-1.508 0.961 1.21
-1.508 0.784 1.44
-1.508 0.555 1.616
-1.508 0.287 1.727
-1.508 0.0 1.765
-1.508 -0.287 1.727
-1.508 -0.555 1.616
-1.508 -0.784 1.44
-1.508 -0.961 1.21
-1.508 -1.072 0.943
-1.508 -1.109 0.656
-1.508 -1.072 0.368
-1.508 -0.961 0.101
-1.508 0.961 0.101
-1.508 1.072 0.368
-1.663 0.857 0.656
-1.663 0.805 0.949
-1.663 0.656 1.206
-1.663 0.428 1.398
-1.663 0.149 1.499
-1.663 -0.149 1.499
-1.663 -0.428 1.398
-1.663 -0.656 1.206
-1.663 -0.805 0.949
-1.663 -0.857 0.656
-1.663 -0.805 0.363
-1.663 0.805 0.363
-1.776 0.583 0.656
-1.776 0.505 0.947
-1.776 0.292 1.161
-1.776 -0.0 1.239
-1.776 -0.292 1.161
-1.776 -0.505 0.947
-1.776 -0.583 0.656
-1.776 -0.505 0.364
-1.776 0.505 0.364
-1.845 0.295 0.656
-1.845 0.148 0.911
-1.845 -0.148 0.911
-1.845 -0.295 0.656
-1.845 -0.148 0.4
-1.776 -0.292 0.15
-1.776 0.292 0.15
-1.845 0.148 0.4
-1.868 -0.0 0.656
1.312 -0.277 -1.217
1.185 -0.487 -1.382
1.185 -0.221 -1.514
1.312 -0.0 -1.292
1.185 0.075 -1.542
1.015 -0.87 -1.296
0.805 -1.151 -1.156
0.805 -1.023 -1.41
0.805 -0.841 -1.628
1.015 -0.677 -1.519
0.805 -0.612 -1.798
1.015 -0.43 -1.678
1.015 0.87 -1.296
1.015 0.677 -1.519
0.805 0.938 -1.525
0.805 1.095 -1.287
0.565 -1.344 -1.023
0.565 -1.255 -1.296
0.565 -1.112 -1.545
0.565 -0.919 -1.758
0.565 -0.687 -1.927
0.565 -0.425 -2.044
0.805 -0.351 -1.911
0.565 -0.144 -2.104
0.805 -0.071 -1.96
0.565 0.144 -2.104
0.805 0.213 -1.944
0.565 0.425 -2.044
0.805 0.485 -1.862
0.565 0.687 -1.927
0.805 0.731 -1.72
0.565 0.919 -1.758
0.565 1.112 -1.545
0.565 1.255 -1.296
0.805 1.192 -1.02
0.565 1.344 -1.023
0.3 -1.448 -1.025
0.3 -1.364 -1.302
0.3 -1.228 -1.557
0.3 -1.044 -1.781
0.3 -0.82 -1.965
0.3 -0.565 -2.101
0.3 -0.288 -2.185
0.3 0.0 -2.214
0.3 0.288 -2.185
0.3 0.565 -2.101
0.3 0.82 -1.965
0.3 1.044 -1.781
0.3 1.228 -1.557
0.3 1.364 -1.302
0.3 1.448 -1.025
0.022 -1.467 -1.168
0.022 -1.359 -1.438
0.022 -1.201 -1.682
0.022 -1.001 -1.892
0.022 -0.764 -2.061
0.022 -0.5 -2.182
0.022 -0.218 -2.25
0.022 0.073 -2.264
0.022 0.36 -2.223
0.022 0.635 -2.128
0.022 0.887 -1.982
0.022 1.106 -1.792
0.022 1.286 -1.564
0.022 1.419 -1.305
0.022 1.501 -1.026
-0.261 -1.467 -1.168
-0.261 -1.359 -1.438
[...]
CELL_DATA 1324
SCALARS cell_data_0 double
LOOKUP_TABLE default
1.91048105389e-08
2.26334244411e-09
2.10642393714e-08
1.6524622818e-08
5.78473696736e-09
1.38095148755e-08
5.71638710731e-08
5.67979896236e-08
2.45041744593e-09
2.41750287836e-09
1.59234721296e-08
1.98458646444e-08
5.16302290675e-09
3.98465495136e-09
4.01461094204e-09
7.44111772756e-09
5.81073687631e-09
8.23942115036e-09
6.47028716372e-10
1.18127483005e-09
4.75218876946e-09
1.00538630479e-08
1.30128917748e-10
2.1538460439e-09
3.99808567217e-09
1.17114724021e-08
1.83400276929e-09
1.95635877868e-09
2.41827724302e-09
1.22003808562e-08
3.40325435962e-09
3.0511715414e-09
1.36751665162e-09
1.28750336285e-08
4.80122682447e-09
3.0187384489e-09
7.20734238356e-10
1.30416879417e-08
5.75080174192e-09
4.20974229479e-09
6.87244103614e-10
1.24503571863e-08
7.37985258629e-09
4.44746003814e-09
1.44974603554e-09
1.24434743457e-08
7.48313677488e-09
3.68331252521e-09
2.30193319232e-09
1.249447111e-08
8.80327309256e-09
4.23651361666e-09
4.19689210809e-09
1.19893009663e-08
9.42249270089e-09
2.06755639581e-09
4.19348286816e-09
1.21138896681e-08
1.01021873212e-08
2.65740687397e-09
6.02253667615e-09
1.15381556989e-08
1.08078247213e-08
2.74566874214e-09
5.212551092e-09
1.07522616871e-08
1.08318229217e-08
1.39993711049e-09
7.13575128727e-09
1.02505883184e-08
1.11396387611e-08
1.01447539241e-09
6.37702614236e-09
9.41294508532e-09
1.16433810507e-08
3.28297114232e-10
7.19911560246e-09
8.33743069044e-09
1.16125018296e-08
5.91682022999e-10
8.36598324976e-09
6.98145406509e-09
1.13237078034e-08
2.70761463562e-11
9.8104586351e-09
5.25028236672e-09
1.10706615443e-08
1.2488035874e-10
1.08469849514e-08
3.49730513546e-09
1.05574691343e-08
7.78346500756e-10
1.20975541621e-08
9.92575171184e-10
1.03000642573e-08
1.83996013823e-09
1.25287745531e-08
1.8546156953e-09
9.64224798272e-09
3.67092804318e-09
1.27016959608e-08
4.73973248648e-09
8.44880336093e-09
6.22552180314e-09
1.18449417833e-08
7.80275065662e-09
6.01465279617e-09
8.53303848659e-09
8.09656137377e-09
8.32117240732e-09
1.57695320951e-09
9.71253750343e-09
1.81310739035e-09
3.25634184202e-09
8.96672352227e-09
1.58398236072e-09
6.91637396901e-09
9.93465205709e-09
2.40265207384e-08
4.74041047835e-08
1.11033069391e-08
3.09184819059e-08
1.86116483167e-09
3.58994229332e-08
1.47856624789e-10
8.20153370823e-11
1.02573288937e-10
2.10794878279e-10
7.66694712426e-11
6.28638528405e-11
2.12770145393e-10
1.22435815626e-10
1.10932378925e-10
1.452006872e-10
6.76841803539e-11
1.25767223098e-10
2.85432347593e-10
4.02253143582e-11
1.31681697777e-10
9.09638760043e-11
1.43368548612e-11
2.71071628739e-10
4.03951626803e-10
2.1069687804e-10
1.5695311637e-10
3.65692892416e-10
1.15883653446e-10
1.26140316279e-10
1.19329131201e-10
1.23797980562e-10
1.06867971982e-10
8.81166346494e-11
7.68390209101e-12
1.61423101521e-10
1.58664198806e-10
1.7523874232e-10
2.40019850628e-10
4.74862160681e-11
1.8821036317e-10
9.43953349397e-11
2.71675175061e-10
7.56262739266e-11
7.56223869448e-13
7.63680206926e-11
1.61626980278e-10
1.26927894502e-10
3.53387692675e-10
1.48697361332e-09
1.00966005955e-10
2.26194470226e-09
6.99419012087e-11
1.14676764236e-09
9.82902547201e-11
5.01543002124e-11
1.50725925604e-11
2.4008822885e-10
6.25045635846e-11
7.12895530321e-12
8.98409755355e-11
7.8936829125e-11
6.897978192e-11
7.21549129473e-11
4.85221731656e-11
2.17825987976e-11
1.34904168045e-12
1.17809528295e-10
9.59158521024e-11
1.10384520172e-10
1.0304190661e-10
2.46547759694e-11
4.82845965881e-11
1.64850338792e-10
1.68173867037e-10
2.81523464327e-11
1.91478549357e-10
9.77399213352e-11
1.67468071303e-10
3.19931388051e-14
1.23846274587e-10
1.9326258476e-10
1.00653534277e-10
2.6786796245e-11
3.00155264957e-10
1.58189395678e-09
8.45587387371e-11
2.47053263012e-10
3.53296066163e-10
1.97186488041e-10
1.22888089795e-10
9.84193603588e-11
2.89400667823e-11
5.96547392215e-12
3.50715114434e-11
8.97696961664e-12
1.05475736127e-11
4.51519882079e-11
6.51393842953e-11
8.59444383202e-13
3.4195874335e-11
4.16422659657e-11
7.82936918331e-11
2.2722775087e-11
2.14075694038e-11
2.16648914308e-11
7.28468432142e-11
2.22328482783e-11
5.49608569803e-11
1.36877198312e-11
5.68632804529e-11
1.45034419855e-10
1.19893761406e-10
5.25150764431e-12
1.10565691716e-10
4.62686596253e-11
1.26721404364e-10
1.0904538257e-10
1.9769958212e-10
3.02752481608e-10
4.42496763524e-10
2.96081995659e-10
7.44123706307e-10
6.99175199093e-10
6.56293009567e-10
6.94744183541e-10
2.67718214049e-10
3.19828164309e-10
2.99637061117e-11
2.39872266785e-10
3.55532170191e-11
1.19054544891e-11
4.6598556952e-12
8.07045948384e-11
5.83481788028e-11
6.16463549455e-11
4.77798698311e-11
1.65236730259e-11
5.27877210298e-11
4.16347694679e-11
1.13833997246e-11
1.66146156748e-11
4.30871301511e-11
4.02063220171e-11
2.24268826976e-12
6.35119930006e-11
2.2802383912e-11
8.23938908363e-11
6.32079868746e-12
1.38635374129e-10
2.99328463472e-11
2.74888796521e-11
8.77163794997e-11
1.9710206783e-11
7.01166207672e-11
1.17157261162e-10
4.25509147943e-11
1.16673793663e-10
7.9583602924e-12
1.37925204559e-10
1.35007965683e-11
1.89429974341e-10
5.41399994281e-11
4.80883476489e-10
4.41639962251e-10
6.00503473993e-10
7.27494012215e-10
6.39700773523e-10
8.28533866407e-11
3.36581957309e-10
1.07768553315e-10
1.22471171934e-10
6.20522721723e-11
3.42948579963e-11
3.4958870319e-11
1.74493959147e-11
6.99810950909e-12
5.8408414914e-11
3.22699184268e-11
1.00917642329e-10
3.11080696822e-11
1.04201092919e-11
1.95568260642e-11
1.40953423823e-11
7.08028277938e-11
4.48009670067e-11
2.41304849343e-11
6.27322751026e-12
3.57362848386e-11
3.35625750504e-11
2.47399725321e-11
6.42105105024e-11
1.45403725138e-12
5.45250971407e-11
3.83149988625e-11
3.18129145607e-12
4.46771808535e-11
5.37659715977e-11
1.77431716324e-11
5.14381249377e-11
8.71723878105e-11
2.39076196202e-11
8.51106009489e-11
1.49102842925e-12
1.21454248199e-10
9.42788920682e-12
1.86592530013e-10
6.58921313181e-11
4.52377425015e-10
1.20888944433e-10
6.84004883403e-10
2.63413729149e-10
2.96343351408e-10
2.18414401233e-10
1.18418068816e-10
7.30763987256e-11
2.4536458758e-11
6.96310486567e-11
1.39798751249e-11
9.65812375727e-13
4.67081532648e-12
1.86810783238e-11
6.21910662269e-12
1.90233665109e-11
4.69839711885e-11
2.55603038064e-12
6.36358958914e-11
2.07305459371e-11
9.20037376241e-11
3.47839908653e-11
6.18985506995e-11
2.06758402589e-11
2.81110458517e-11
4.06656893493e-11
5.45974441818e-11
2.19783597256e-11
1.09001945596e-11
1.20744911514e-11
2.40190915246e-11
9.86253593446e-11
8.23298438254e-11
2.64122570088e-11
1.94664880712e-11
2.6230467443e-11
8.8726229404e-12
1.55093705796e-11
1.02033792647e-10
9.48012156215e-11
3.93006850906e-11
7.21902926002e-11
2.83709717929e-11
1.50278627626e-10
8.24017520286e-11
7.29814278595e-10
2.51921052628e-10
1.25506246461e-09
6.21743002168e-10
2.87710174655e-10
4.12734474088e-10
1.01942925112e-10
1.16838568049e-10
5.93962595085e-11
7.13191470505e-11
7.03818398591e-11
4.12071288902e-11
6.47210947304e-11
7.57549812829e-12
1.15916261761e-11
5.14115760786e-11
1.9040664935e-11
4.6845526131e-11
5.05484263962e-12
5.47423868514e-11
3.11975099131e-11
3.78791698234e-11
1.68429597274e-11
2.29745044495e-11
7.46851867203e-12
1.34373001192e-11
8.62049724404e-11
9.0897273675e-11
3.16893597448e-11
5.07577901111e-11
6.27677942725e-12
8.36981853913e-12
9.69749684951e-12
5.70450069173e-11
3.20314865495e-11
2.56714799643e-11
6.41599870358e-11
3.04117087821e-11
2.31687255343e-11
4.34107438117e-11
9.03528086108e-11
1.36931678059e-10
2.57759257646e-11
1.35159473131e-10
1.72737554631e-11
2.25568073897e-10
8.70364526973e-11
8.25155096639e-10
1.51635428008e-10
1.38505887545e-09
1.0264336875e-09
4.77435916254e-11
6.48944673359e-10
5.90105858436e-11
2.06335665278e-10
5.28792177833e-11
1.20026174758e-10
7.24439571658e-13
4.48829541516e-11
8.79042173467e-11
4.76570670738e-12
9.4713035535e-12
3.00582876926e-11
2.21488912007e-11
4.25074967628e-11
2.20676497647e-11
6.71693829343e-11
2.08282456927e-11
5.36170739062e-11
3.66970384338e-11
1.30623217798e-11
1.99423408902e-11
1.86606952172e-11
1.13487922964e-10
7.86558406898e-11
1.16200954102e-11
7.11047045786e-12
2.97207380752e-11
3.34232699062e-11
3.67828377015e-11
2.23515684043e-11
4.7350955893e-11
8.8445333358e-12
3.09482691837e-11
3.22744653671e-11
2.95190820696e-11
4.31215823261e-12
5.59654143476e-11
5.43739700332e-11
1.76999096759e-11
6.42286203986e-11
7.20107998027e-11
1.00434744793e-10
1.26533527467e-10
2.38816054766e-10
1.98266150301e-10
5.03349118816e-10
4.02822142652e-10
9.12715939189e-10
1.44824390052e-09
3.58580454613e-11
7.30845713776e-10
4.73053068982e-11
2.73253327972e-10
5.12900371745e-10
3.80287237363e-12
2.38497385253e-10
1.40730641245e-11
1.58791025196e-10
7.42379333414e-12
6.28594339483e-11
3.87292025969e-11
1.48891854233e-12
1.09712543901e-11
2.24174025955e-11
3.53509026058e-12
5.06116448297e-11
2.57307487644e-11
1.93296890502e-11
4.33069259054e-11
8.33331991713e-11
7.57537730408e-11
5.98470144704e-12
1.33506259278e-11
8.08172281081e-11
2.80637399259e-11
3.13229412538e-11
1.66596043879e-11
2.41763890042e-11
1.07650742807e-12
1.17833969535e-11
3.7277485981e-11
1.23987597851e-11
3.12624831093e-11
8.37110501581e-11
5.34368060247e-11
3.88526470181e-11
7.32087297765e-11
4.90146584436e-11
8.12473504613e-11
1.08335620837e-11
1.7901130073e-10
8.35532223776e-11
2.53836276307e-10
9.19726482281e-11
5.10694355922e-10
1.43402464466e-10
1.00506241102e-09
3.26468046797e-10
1.32192031328e-09
3.05138145669e-10
4.15643008358e-10
8.97765694176e-11
5.50529652084e-10
8.66987900584e-11
3.18125108077e-10
2.22066578343e-11
1.93855189932e-10
6.52457063417e-12
1.22841034208e-10
4.77494429077e-12
7.37953058041e-11
1.29892119009e-11
5.94437020501e-11
8.91318774404e-12
5.4195126969e-11
6.4689612652e-12
6.86042524837e-12
5.25852989611e-11
6.48026459953e-11
1.97121587453e-11
3.41941878441e-11
3.22456151989e-11
1.56946284173e-11
1.33430905327e-11
1.89859869033e-11
2.77428026138e-11
1.6678356931e-11
2.47697892908e-11
4.02080981139e-11
5.53215229982e-11
4.10055118612e-11
7.30606707223e-12
3.76705730074e-11
7.75199679653e-12
1.20041714858e-10
3.34388103303e-11
1.54946521789e-10
9.59699820896e-12
2.60268764742e-10
1.26605485202e-10
5.30785313311e-10
5.59383422102e-10
7.95287306809e-10
1.30768737193e-09
1.8428081655e-09
1.78298403041e-09
3.6743502315e-10
5.87649450887e-10
1.18952761775e-10
6.89217288149e-10
5.53554214682e-11
3.61081553883e-10
2.88805933652e-11
2.06015705786e-10
8.98611619353e-12
1.06592650468e-10
1.34984997306e-11
9.52237488459e-11
2.95938016125e-11
5.23170040547e-11
4.98760136533e-11
4.83203645265e-11
1.31076324933e-12
6.9073845847e-11
1.43359018641e-10
9.40738546379e-11
4.99644310704e-11
3.93014792379e-11
1.60404506441e-11
6.75163507717e-11
3.42162149941e-11
8.88860895489e-11
9.76831561255e-11
5.8899427774e-11
5.9455928241e-11
3.23790886569e-11
5.83670551118e-11
2.81797765825e-11
7.48643286478e-11
9.24737783955e-11
4.20042102485e-12
1.7369189506e-10
5.88489764131e-11
3.58210331984e-10
1.46907761218e-11
6.87280147706e-10
7.70557609207e-10
8.01672768135e-10
2.07583818802e-09
1.90588218658e-09
1.98411891393e-09
2.68720603693e-10
7.16188552494e-10
7.55657999538e-11
7.2492931133e-10
1.34228823282e-10
3.78292891386e-10
3.63250625665e-11
2.04059033903e-10
2.55823277317e-11
1.38771040182e-10
2.37328798528e-11
1.00202981507e-10
5.92688602867e-11
1.08224120306e-10
4.13368676005e-11
4.46919586173e-11
7.33518943059e-11
7.54209469578e-11
9.92502577296e-11
9.1118932749e-12
1.72787839126e-11
6.73077809134e-11
5.85463683607e-11
9.8997727738e-11
9.07395852205e-11
8.73130555649e-11
4.17982070462e-11
4.55613460327e-11
5.57568272131e-11
5.30046158118e-12
2.37086457958e-11
4.37965118249e-11
2.60274503093e-11
1.35324989035e-10
1.07178184394e-11
2.9033178336e-10
2.5909748545e-11
5.71192462434e-10
2.04435210199e-10
1.08990227705e-09
1.03215898528e-09
2.2259791841e-09
3.87799659103e-11
9.03225799603e-10
1.77078179077e-11
7.84488337755e-10
1.41962473693e-10
3.64434870926e-10
9.93970675019e-11
1.81434473347e-10
1.44104286607e-11
1.40387847545e-10
4.03724650592e-11
3.00689537198e-11
2.09990617905e-11
1.38678401171e-11
6.09043178871e-11
2.55097503198e-11
3.40576207261e-11
6.32200480098e-11
3.70078351683e-11
9.13383105137e-11
5.0016816623e-11
3.63016037321e-11
8.43228815253e-11
1.35454788054e-10
7.96189252393e-11
4.43830575881e-11
1.51071658701e-10
4.17323214569e-12
1.2217177944e-10
3.40795425315e-11
2.51749511333e-10
7.28524293988e-11
4.63453786287e-10
1.84749191424e-10
1.11340847477e-09
2.67164489672e-10
1.88183544292e-09
2.6742727766e-09
1.85318299408e-10
1.11779591216e-09
1.09230656256e-11
9.30416998231e-10
1.39946542287e-10
4.46512967331e-10
3.72201318286e-11
2.1608647412e-10
6.52614106979e-13
1.18791393865e-10
6.81864614814e-11
4.9478890232e-11
6.66353538932e-11
9.50366072529e-11
1.58160170159e-10
8.59942189406e-11
6.2584708171e-11
1.11979187631e-10
1.13905379477e-10
2.18242216424e-11
6.589728032e-11
9.28514239488e-11
1.695563381e-10
6.55718528803e-11
2.21129499467e-10
2.1335807011e-11
2.92813698595e-10
1.80427486095e-10
5.26424850656e-10
1.42345780919e-09
9.45758452934e-10
3.45447581526e-09
2.14849662925e-09
2.07797695682e-09
4.33329255545e-10
1.23816125898e-09
1.76310896209e-10
8.69214661116e-10
2.71507882038e-10
3.59849960807e-10
9.86594197604e-11
1.82117606013e-10
1.36319710641e-11
6.50713743304e-11
6.38051015197e-11
2.45601877761e-10
6.90546285782e-11
1.83485675725e-10
8.09562081971e-11
2.28729946955e-10
2.00069115341e-10
1.27806314304e-10
5.57978772003e-12
1.13919304663e-10
9.78199881861e-11
2.69229262804e-10
2.44808873433e-10
6.33327836026e-10
1.39633570106e-09
1.05253542305e-09
4.55080555574e-09
4.67596821232e-10
1.3250483536e-09
1.73205112948e-10
9.7701321186e-10
3.0799411956e-10
3.56045117466e-10
1.35888988685e-11
1.43705248666e-10
5.75551752563e-12
3.5343590532e-10
1.05737178506e-10
3.36235335831e-10
2.4822037219e-10
1.66982063579e-10
3.51796005093e-11
2.56574253971e-10
2.77621306653e-10
5.54149863485e-10
1.39326993354e-09
6.15408493639e-10
1.95458483563e-09
3.07374569139e-10
1.04833102182e-09
1.43995601962e-10
2.87208368309e-10
5.70303508037e-11
8.02775650026e-10
4.33750289638e-10
3.10966372734e-10
1.3622462636e-10
4.91831254871e-10
1.65414924108e-09
4.9033102189e-10
4.06977722537e-09
8.54344422989e-11
1.38294404149e-09
4.72782838373e-10
7.71226974773e-10
3.26888186103e-10
2.81071747972e-10
1.03404656725e-09
1.42576205625e-10
2.20685368351e-10
5.3151678736e-09
6.73935290855e-09
5.20422934002e-09
3.01923962257e-09
2.22081579603e-09
1.08787265468e-08
7.75495916098e-09
7.35856406917e-09
1.13407543735e-09
3.31522371042e-09
8.41144649639e-10
1.77785989081e-09
7.15727530452e-09
2.36666693536e-10
3.37860768348e-09
1.83837303705e-09
4.21783123626e-09
2.65424357965e-09
5.43807990467e-09
6.59715146255e-10
1.56378389334e-09
3.05723990667e-09
4.92229820961e-09
4.06955078066e-09
3.18563553457e-09
4.03771859847e-09
1.30666857635e-09
2.68194165257e-09
8.99118411876e-10
1.10536641633e-09
3.6181111713e-10
1.04441831578e-10
1.18521665723e-09
8.10903991659e-10
1.92394121768e-09
8.0138503242e-10
9.48798587898e-10
2.59722460279e-10
8.06626112364e-10
1.22419348511e-10
7.96078883537e-10
1.71420997585e-10
1.62926501647e-09
5.91310604912e-10
1.09877140227e-09
7.44463071377e-10
5.80226960753e-10
6.79349996973e-10
1.59156856816e-09
1.124440204e-09
1.44045189974e-09
3.19791891302e-09
9.99040701519e-10
4.77727317448e-09
8.95494989342e-10
5.41839141442e-09
7.88429709268e-10
5.08198153806e-09
6.01500093268e-10
4.42798791186e-09
4.3622375596e-10
1.18267241484e-10
2.75317913532e-09
5.5048250385e-10
2.32443503867e-09
3.46703884744e-10
3.27414945534e-09
1.61687551904e-09
1.36659006582e-08
5.22916260299e-09
5.6005747701e-09
1.93639564808e-09
3.00895129909e-09
8.35602240536e-08
2.56601981253e-08
4.17796804847e-08
4.85541048975e-08
1.30954683764e-08
3.64727205337e-08
4.56494061285e-08
5.35417973337e-08
8.37996439575e-08
3.03634044158e-08
1.09670069028e-08
8.9295286124e-09
1.99970725283e-08
1.47956458498e-08
4.00341610926e-08
1.66717411015e-08
6.36166128741e-08
3.97916769959e-08
3.06814285332e-09
6.90679439551e-08
8.68772999672e-08
8.88904197609e-08
7.69284347558e-08
6.2944612686e-08
3.59857215554e-08
4.01226470518e-08
2.00723588102e-08
2.32451025255e-08
1.05686497172e-08
1.38134210093e-08
5.94914193068e-09
2.49534715554e-09
1.94287664222e-09
4.63162704676e-09
3.05452841184e-09
7.40678773443e-09
3.38550583539e-09
1.15930218861e-08
4.57083090927e-09
2.00440447554e-08
4.42920958369e-10
3.00194222004e-08
8.72600308407e-09
3.51313611323e-08
1.77937552358e-08
3.4106702884e-08
2.30359369046e-08
2.8425959578e-08
2.28768140176e-08
2.05864989984e-08
1.92947462209e-08
1.3302173779e-08
1.38535430393e-08
7.76796697132e-09
8.91544531277e-09
4.52129499127e-09
5.5867223486e-09
2.29550148129e-09
1.29540600379e-09
3.32549411069e-09
1.08682927417e-09
4.71569512736e-09
8.80979573126e-10
6.70419945839e-09
4.29865751429e-10
9.59128144586e-09
1.45419991358e-09
1.14011498425e-08
3.05895538776e-09
1.32171872398e-08
5.74940497529e-09
1.41829111176e-08
8.34847204475e-09
1.29274523099e-08
9.401958594e-09
1.03341865932e-08
8.6558801895e-09
7.25925184312e-09
6.88582881478e-09
5.01739309277e-09
5.14684586968e-09
3.15536014885e-09
3.52483166083e-09
2.26142179842e-09
2.08082155103e-09
7.50493071238e-10
1.58140520936e-09
2.05267541636e-10
3.33481646845e-10
5.19119462299e-10
1.64804695245e-09
9.79022787135e-11
8.96637331427e-10
4.86280467761e-09
3.1961558559e-09
1.58868502554e-10
4.24900055969e-09
1.57396305806e-09
5.10459527385e-09
2.69519625864e-09
5.3892760754e-09
3.67596099511e-09
5.64005789303e-09
4.12214080068e-09
5.1294172212e-09
4.47348935625e-09
3.96075980611e-09
3.3871197643e-09
2.89832172852e-09
2.79627582713e-09
2.34290264619e-09
1.98775425244e-09
1.81630311558e-09
1.80362361801e-09
2.77190795139e-09
1.0046228279e-09
1.20234459216e-09
5.72250147716e-10
1.02851894032e-09
1.18189356215e-09
9.6162772994e-10
5.76830182825e-10
1.55176679287e-09
2.37256969713e-11
1.99426578894e-09
2.50733752384e-10
1.85178940194e-09
7.72219221697e-10
2.38470857799e-09
8.50057009665e-10
2.13318741346e-09
1.33941975057e-09
1.64375617692e-09
1.29658576839e-09
1.40899048812e-09
7.6447882013e-10
1.31517878151e-09
8.15561000237e-10
1.1851257708e-09
6.33725782482e-10
4.74067820901e-10
1.18070968686e-09
6.47154997928e-10
1.69508763682e-10
2.90918485136e-10
7.99072081766e-11
3.3827778925e-10
7.00330520216e-10
9.87188812666e-11
1.20587912389e-09
1.70159886863e-10
1.38860803989e-09
1.0217736728e-11
1.30567281661e-09
4.61689662142e-10
1.53463175822e-09
4.25842023276e-10
8.00591337376e-10
3.94532385466e-10
6.84644724702e-10
2.86609885391e-10
5.71805877618e-10
4.08982764694e-10
2.75766115411e-10
2.54331662666e-10
7.5798902969e-11
2.990928589e-10
1.22927064154e-10
3.0007216553e-10
1.10655159511e-10
1.24869805431e-09
2.65233648421e-10
4.98052407329e-10
2.26129734512e-10
6.8955053198e-10
3.04522830705e-10
2.28188942811e-10
2.89517753558e-10
3.67517899823e-10
3.38328441936e-10
2.25589727938e-10
1.67620270831e-10
4.44962589095e-10
2.89249176986e-10
6.41469799306e-10
7.11499121891e-11
1.89751677671e-10
5.51654360885e-10
1.81485218813e-10
3.51887320256e-10
2.27391000742e-10
3.99378219717e-10
9.5259779586e-10
1.59825557407e-09
3.17089137924e-09
1.88489952728e-10
7.25511929831e-10
2.07399851472e-10
5.63227292559e-10
1.95231571036e-09
9.38192287474e-10
2.02041070686e-09
1.11969263386e-09
1.31578184911e-09
7.91403232613e-10
1.34415189082e-09
1.74347849928e-10
6.88531309617e-10
5.42457900623e-10
6.66184465038e-10
1.28745609853e-09
1.2337958599e-09
1.53136950422e-09
1.13092600953e-09
3.42175057442e-09
3.86655713359e-10
1.35476229753e-09
1.14749299771e-10
7.54495432388e-10
1.52121394909e-09
1.38525945333e-09
1.49634724675e-09
1.18342291291e-09
1.71897651363e-09
3.90867408542e-10
1.50749005614e-10
1.82489409752e-09
1.32396110578e-09
1.39465145475e-09
1.97092635247e-09
4.44984482189e-09
4.26785765062e-09
7.12566223642e-10
1.46712397173e-09
1.66893152608e-09
1.67485026432e-09
2.61614734885e-09
1.85349034396e-09
7.42507010521e-10
1.55756272711e-09
1.6624178718e-09
5.3884245842e-09
5.40259649156e-09
1.07703795412e-09