# vtk DataFile Version 3.0
File Name: Molecule/methanol/methanol_2.0-5.vtk
ASCII
DATASET UNSTRUCTURED_GRID
FIELD FieldData 1
TIME 1 1 double
0.0
POINTS 121 double
0.98 -1.317 -0.296
0.308 -1.642 -0.229
0.828 -1.2 -0.876
-0.438 -1.642 -0.155
0.216 -1.496 -0.815
-0.464 -1.496 -0.747
-1.11 -1.317 -0.088
-1.076 -1.2 -0.686
-1.576 -0.731 -0.042
-1.5 -0.666 -0.644
-1.742 0.0 -0.025
-1.651 0.0 -0.629
-1.576 0.731 -0.042
-1.5 0.666 -0.644
-1.11 1.317 -0.088
-1.076 1.2 -0.686
-0.438 1.642 -0.155
-0.464 1.496 -0.747
0.308 1.642 -0.229
0.216 1.496 -0.815
0.98 1.317 -0.296
0.828 1.2 -0.876
1.445 0.731 -0.342
1.252 0.666 -0.918
1.907 0.0 0.656
1.763 0.722 0.656
1.763 0.361 1.281
1.763 -0.361 1.281
1.763 -0.722 0.656
1.763 -0.361 0.03
1.763 0.361 0.03
1.354 1.123 1.377
1.354 0.554 1.87
1.354 -0.19 1.977
1.354 -0.874 1.664
1.354 -1.281 1.032
1.354 -1.281 0.28
1.354 1.335 0.656
0.741 1.571 1.412
0.741 1.087 2.019
0.741 0.388 2.356
0.741 -0.388 2.356
0.741 -1.087 2.019
0.741 -1.571 1.412
0.741 -1.744 0.656
0.741 1.744 0.656
0.019 1.744 1.378
0.019 1.335 1.99
0.019 0.722 2.399
0.019 -0.0 2.543
0.019 -0.722 2.399
0.019 -1.335 1.99
0.019 -1.744 1.378
0.019 -1.888 0.656
0.019 1.888 0.656
-0.703 1.744 0.656
-0.703 1.571 1.412
-0.703 1.087 2.019
-0.703 0.388 2.356
-0.703 -0.388 2.356
-0.703 -1.087 2.019
-0.703 -1.571 1.412
-0.703 -1.744 0.656
-1.316 1.335 0.656
-1.316 1.123 1.377
-1.316 0.554 1.87
-1.316 -0.19 1.977
-1.316 -0.874 1.664
-1.316 -1.281 1.032
-1.725 0.722 0.656
-1.725 0.361 1.281
-1.725 -0.361 1.281
-1.725 -0.722 0.656
-1.868 0.0 0.656
1.445 -0.731 -0.342
1.611 0.0 -0.359
0.648 -0.189 -2.053
-0.12 -0.544 -2.172
-0.12 0.185 -2.261
0.648 0.552 -1.946
-0.12 0.872 -2.0
0.648 1.118 -1.456
-0.12 1.359 -1.451
-0.12 -1.149 -1.755
-0.887 -1.276 -1.112
-0.887 -0.871 -1.742
-0.887 -0.189 -2.053
-0.887 0.552 -1.946
-0.887 1.118 -1.456
-1.449 -0.384 -1.402
-1.449 0.384 -1.402
1.21 0.384 -1.402
1.403 0.0 -0.933
1.21 -0.384 -1.402
0.929 0.0975 -1.7275
0.929 0.468 -1.674
0.648 0.1815 -1.9995
0.929 -0.6275 -1.572
0.929 -0.2865 -1.7275
0.648 -0.53 -1.8975
0.648 -0.871 -1.742
1.252 -0.666 -0.918
1.424 -0.3655 -0.6375
1.3275 -0.333 -0.9255
1.3485 -0.6985 -0.63
0.95 0.892 -1.187
0.929 0.751 -1.429
1.231 0.525 -1.16
1.4315 0.333 -0.6385
1.3275 0.333 -0.9255
1.507 0.0 -0.646
0.7885 0.1395 -1.8635
0.7885 -0.04575 -1.89025
0.648 -0.00375 -2.02625
1.04 -0.933 -0.897
0.522 -1.348 -0.8455
0.264 -1.01 -1.7485
0.95 -0.7685 -1.33
0.738 -1.0355 -1.309
0.432 -1.1835 -1.2785
0.048 -1.3225 -1.285

CELLS 238 952
3 0 1 2
3 1 3 4
3 4 3 5
3 3 6 5
3 5 6 7
3 6 8 7
3 7 8 9
3 8 10 9
3 9 10 11
3 10 12 11
3 11 12 13
3 12 14 13
3 13 14 15
3 14 16 15
3 15 16 17
3 16 18 17
3 17 18 19
3 18 20 19
3 19 20 21
3 20 22 21
3 21 22 23
3 24 25 26
3 24 26 27
3 24 27 28
3 24 28 29
3 24 29 30
3 24 30 25
3 26 25 31
3 26 31 32
3 26 32 33
3 27 26 33
3 27 33 34
3 27 34 35
3 28 27 35
3 28 35 36
3 29 28 36
3 25 37 31
3 31 37 38
3 31 38 39
3 32 31 39
3 32 39 40
3 33 32 40
3 33 40 41
3 34 33 41
3 34 41 42
3 34 42 43
3 35 34 43
3 35 43 44
3 36 35 44
3 37 45 38
3 38 45 46
3 38 46 47
3 39 38 47
3 39 47 48
3 40 39 48
3 40 48 49
3 41 40 49
3 41 49 50
3 42 41 50
3 42 50 51
3 43 42 51
3 43 51 52
3 44 43 52
3 44 52 53
3 45 54 46
3 46 54 55
3 46 55 56
3 47 46 56
3 47 56 57
3 48 47 57
3 48 57 58
3 49 48 58
3 49 58 59
3 50 49 59
3 50 59 60
3 51 50 60
3 51 60 61
3 52 51 61
3 52 61 62
3 53 52 62
3 56 55 63
3 56 63 64
3 57 56 64
3 57 64 65
3 58 57 65
3 58 65 66
3 59 58 66
3 59 66 67
3 60 59 67
3 61 60 67
3 61 67 68
3 62 61 68
3 64 63 69
3 64 69 70
3 65 64 70
3 66 65 70
3 66 70 71
3 67 66 71
3 68 67 71
3 68 71 72
3 70 69 73
3 71 70 73
3 72 71 73
3 72 73 10
3 72 10 8
3 72 8 6
3 72 6 68
3 68 6 62
3 62 6 3
3 62 3 53
3 53 3 1
3 53 1 44
3 44 1 0
3 44 0 36
3 36 0 74
3 36 74 29
3 29 74 75
3 29 75 30
3 30 75 22
3 30 22 25
3 25 22 37
3 37 22 20
3 37 20 45
3 45 20 18
3 45 18 54
3 54 18 16
3 54 16 55
3 55 16 14
3 55 14 63
3 63 14 12
3 63 12 69
3 69 12 10
3 69 10 73
3 76 77 78
3 79 78 80
3 81 79 80
3 81 80 82
3 83 84 85
3 77 83 85
3 77 85 86
3 78 77 86
3 78 86 87
3 80 78 87
3 80 87 88
3 82 80 88
3 85 84 89
3 86 85 89
3 86 89 90
3 87 86 90
3 88 87 90
3 88 90 13
3 88 13 15
3 88 15 17
3 88 17 82
3 82 17 19
3 82 19 81
3 81 19 21
3 91 92 93
3 83 5 84
3 84 5 7
3 84 7 9
3 84 9 89
3 89 9 11
3 89 11 90
3 90 11 13
3 93 94 91
3 91 94 95
3 95 96 79
3 95 79 81
3 79 96 78
3 93 97 98
3 97 99 98
3 97 100 99
3 98 99 76
3 76 99 77
3 99 100 77
3 101 97 93
3 93 98 94
3 74 102 75
3 92 102 103
3 102 104 103
3 102 74 104
3 103 104 101
3 101 104 0
3 0 104 74
3 23 105 21
3 21 105 81
3 81 105 106
3 105 107 106
3 105 23 107
3 106 107 91
3 91 107 92
3 92 103 93
3 93 103 101
3 81 106 95
3 95 106 91
3 75 108 22
3 22 108 23
3 23 108 109
3 108 110 109
3 108 75 110
3 109 110 92
3 94 111 95
3 111 96 95
3 94 112 111
3 112 113 111
3 112 76 113
3 111 113 96
3 96 113 78
3 113 76 78
3 76 112 98
3 98 112 94
3 92 110 102
3 102 110 75
3 23 109 107
3 107 109 92
3 2 114 0
3 0 114 101
3 4 115 1
3 1 115 2
3 100 116 77
3 116 83 77
3 100 117 118
3 117 114 118
3 117 101 114
3 118 114 2
3 100 118 119
3 118 115 119
3 118 2 115
3 119 115 4
3 100 119 116
3 119 120 116
3 119 4 120
3 116 120 83
3 83 120 5
3 120 4 5
3 101 117 97
3 97 117 100

CELL_TYPES 238
5
5
5
5
5
5
5
5
5
5
5
5
5
5
5
5
5
5
5
5
5
5
5
5
5
5
5
5
5
5
5
5
5
5
5
5
5
5
5
5
5
5
5
5
5
5
5
5
5
5
5
5
5
5
5
5
5
5
5
5
5
5
5
5
5
5
5
5
5
5
5
5
5
5
5
5
5
5
5
5
5
5
5
5
5
5
5
5
5
5
5
5
5
5
5
5
5
5
5
5
5
5
5
5
5
5
5
5
5
5
5
5
5
5
5
5
5
5
5
5
5
5
5
5
5
5
5
5
5
5
5
5
5
5
5
5
5
5
5
5
5
5
5
5
5
5
5
5
5
5
5
5
5
5
5
5
5
5
5
5
5
5
5
5
5
5
5
5
5
5
5
5
5
5
5
5
5
5
5
5
5
5
5
5
5
5
5
5
5
5
5
5
5
5
5
5
5
5
5
5
5
5
5
5
5
5
5
5
5
5
5
5
5
5
5
5
5
5
5
5
5
5
5
5
5
5
5
5
5
5
5
5
5
5
5
5
5
5

CELL_DATA 238
SCALARS cell_data_0 double
LOOKUP_TABLE default
6.58754846753e-08
4.80383738342e-08
1.32015195911e-07
8.65865636204e-09
1.61549707408e-07
5.89186105693e-08
1.43322628383e-07
9.6491806745e-08
1.20371021258e-07
1.45643883027e-07
1.30098556783e-07
1.72740208689e-07
3.7724656344e-08
1.97155575934e-07
3.67867764692e-08
2.39390790894e-07
5.22714377834e-08
2.64086178997e-07
2.44614576612e-07
1.09305651618e-07
1.19555165422e-07
3.84033742162e-09
9.01041261498e-10
2.25511134938e-09
2.00349990705e-09
1.01867008921e-08
8.57385117092e-10
2.14448202556e-09
6.79195224072e-10
7.44401910347e-10
3.1040147607e-09
4.07622107282e-09
1.69831304037e-09
6.83149778856e-09
4.77893490631e-09
1.02291844429e-08
3.88761888378e-09
1.69948689291e-11
1.72699817536e-09
1.22121754053e-09
1.55655652691e-09
2.57026188904e-10
1.40235935627e-09
5.91270006131e-10
4.56252550639e-10
9.38973029078e-10
3.11042194247e-09
8.85051821202e-10
4.58564089707e-10
1.0374710195e-09
5.69767934509e-10
3.51809912709e-09
1.98051717463e-10
1.76824931735e-09
6.73404214604e-10
9.87818670784e-10
1.47052019606e-10
1.10935874679e-09
9.94261910124e-10
1.54750104759e-09
9.257491567e-10
4.52843106032e-09
3.27535973091e-09
1.96067812088e-09
3.81228763221e-10
4.14263339963e-09
2.24100833331e-09
5.26625668336e-09
8.92297175978e-11
1.92151615006e-09
3.70901190742e-11
7.79925867437e-10
4.20087333272e-10
3.99724063136e-10
9.73420027709e-11
1.15888413216e-09
1.02840899985e-09
6.53558468675e-09
5.84036787204e-10
1.7761547488e-09
1.25359284297e-08
3.56004035328e-10
5.60414017185e-09
1.92340038499e-09
1.41603990847e-09
2.1545861891e-09
1.25604795475e-09
3.01968090292e-09
3.39150341726e-09
1.12264970946e-09
1.98791594483e-09
1.46393701103e-09
1.34236430939e-08
1.10819526194e-09
3.7535874841e-09
5.71489281157e-10
1.3072341672e-08
8.15587765842e-09
5.89868581632e-09
1.80711280807e-09
1.08417623161e-08
7.99347057572e-09
9.26126738597e-09
4.94466335433e-08
2.17635371928e-07
1.61534431082e-07
2.321632184e-07
9.03177343092e-08
2.07601272141e-07
1.16736266235e-07
1.73421796225e-07
1.10940030605e-07
8.85714494717e-08
5.53473864488e-08
5.65736705893e-08
1.05676705384e-08
2.64264885865e-08
7.80868939857e-10
1.8756351256e-08
1.30068005819e-08
9.4056284146e-09
5.40753187177e-08
1.51972513005e-08
5.72527611086e-08
7.06640258373e-09
1.66447072277e-07
1.76956437464e-08
2.02659842331e-07
2.86482451097e-08
1.93120788925e-07
3.83946714472e-08
1.81124676014e-07
5.04440818735e-08
1.14302766614e-06
9.98588033995e-07
9.68098800858e-07
3.08603319254e-07
1.18739295226e-07
1.20586526717e-08
7.41299392103e-08
3.25950357961e-08
8.85109139414e-08
3.30852305672e-08
6.10743653107e-08
2.91479494917e-08
7.04597160584e-08
5.65518856616e-08
4.48666442025e-10
3.75779678221e-09
6.60053024477e-08
2.14538520999e-08
3.85247587637e-08
1.09624501267e-08
2.11283783594e-08
5.32169747783e-08
1.22926877857e-07
7.3716534116e-08
1.19756910381e-09
2.7749886255e-08
5.56670280229e-08
4.1755975645e-09
8.24368290844e-08
1.0626385518e-08
5.46630167348e-08
9.85908807899e-09
6.57841305584e-08
8.54617624239e-09
2.29976737467e-07
7.28524112824e-07
6.16692878237e-07
5.63175327272e-07
6.4133309512e-07
2.41873010586e-07
6.66575049513e-07
3.71399571471e-07
2.18995578646e-08
3.56885899935e-07
1.83656152842e-07
1.98033255292e-08
1.75966037027e-07
3.08096739796e-07
5.46354525476e-08
3.43855679597e-07
1.81056171652e-07
5.44514571155e-08
3.06989979404e-08
5.83482471602e-08
2.28427298099e-07
9.39886586209e-08
1.01943639653e-07
4.42346051498e-07
3.51438137081e-07
3.26864490581e-07
7.7741028e-07
4.1446733392e-07
8.96347420771e-07
1.03634467282e-07
3.08366820413e-07
2.21978858519e-07
2.17795615063e-07
5.48040729848e-09
2.33538849711e-07
3.1112217095e-07
1.46027114249e-07
2.89002520164e-07
5.87400740568e-08
2.41578882704e-08
3.33459750776e-08
2.12987782332e-07
1.52869230258e-07
1.39803841591e-07
4.8744971459e-07
8.30370133374e-07
2.84642283927e-08
2.38482097768e-07
3.35796077754e-07
9.09739195593e-09
1.49323310671e-07
1.74818996612e-08
4.54845721738e-08
1.58578600064e-07
2.56706422569e-08
1.59154533146e-07
2.71262793055e-07
1.58289772973e-08
5.8480703664e-08
3.85417568333e-08
8.67277777635e-08
2.31550852885e-08
1.34620634942e-08
1.13036125848e-07
8.99084684918e-08
1.27615625478e-08
8.09781059729e-08
2.36767965859e-08
4.29429492532e-08
1.71264283023e-07
1.29845889558e-07

