# vtk DataFile Version 3.0
File Name: Molecule/methanol/methanol_2.0-0.vtk
ASCII
DATASET UNSTRUCTURED_GRID
FIELD FieldData 1
TIME 1 1 double
0.0
POINTS 96 double
1.611 0.0 -0.359
1.445 -0.731 -0.342
1.403 0.0 -0.933
1.252 -0.666 -0.918
0.98 -1.317 -0.296
0.828 -1.2 -0.876
0.308 -1.642 -0.229
0.216 -1.496 -0.815
-0.438 -1.642 -0.155
-0.464 -1.496 -0.747
-1.11 -1.317 -0.088
-1.076 -1.2 -0.686
-1.576 -0.731 -0.042
-1.5 -0.666 -0.644
-1.742 0.0 -0.025
-1.651 0.0 -0.629
-1.576 0.731 -0.042
-1.5 0.666 -0.644
-1.11 1.317 -0.088
-1.076 1.2 -0.686
-0.438 1.642 -0.155
-0.464 1.496 -0.747
0.308 1.642 -0.229
0.216 1.496 -0.815
0.98 1.317 -0.296
0.828 1.2 -0.876
1.445 0.731 -0.342
1.252 0.666 -0.918
1.907 0.0 0.656
1.763 0.722 0.656
1.763 0.361 1.281
1.763 -0.361 1.281
1.763 -0.722 0.656
1.763 -0.361 0.03
1.763 0.361 0.03
1.354 1.123 1.377
1.354 0.554 1.87
1.354 -0.19 1.977
1.354 -0.874 1.664
1.354 -1.281 1.032
1.354 -1.281 0.28
1.354 1.335 0.656
0.741 1.571 1.412
0.741 1.087 2.019
0.741 0.388 2.356
0.741 -0.388 2.356
0.741 -1.087 2.019
0.741 -1.571 1.412
0.741 -1.744 0.656
0.741 1.744 0.656
0.019 1.744 1.378
0.019 1.335 1.99
0.019 0.722 2.399
0.019 -0.0 2.543
0.019 -0.722 2.399
0.019 -1.335 1.99
0.019 -1.744 1.378
0.019 -1.888 0.656
0.019 1.888 0.656
-0.703 1.744 0.656
-0.703 1.571 1.412
-0.703 1.087 2.019
-0.703 0.388 2.356
-0.703 -0.388 2.356
-0.703 -1.087 2.019
-0.703 -1.571 1.412
-0.703 -1.744 0.656
-1.316 1.335 0.656
-1.316 1.123 1.377
-1.316 0.554 1.87
-1.316 -0.19 1.977
-1.316 -0.874 1.664
-1.316 -1.281 1.032
-1.725 0.722 0.656
-1.725 0.361 1.281
-1.725 -0.361 1.281
-1.725 -0.722 0.656
-1.868 0.0 0.656
1.21 -0.384 -1.402
0.648 -0.871 -1.742
0.648 -0.189 -2.053
1.21 0.384 -1.402
0.648 0.552 -1.946
0.648 1.118 -1.456
-0.12 -1.149 -1.755
-0.12 -0.544 -2.172
-0.12 0.185 -2.261
-0.12 0.872 -2.0
-0.12 1.359 -1.451
-0.887 -1.276 -1.112
-0.887 -0.871 -1.742
-0.887 -0.189 -2.053
-0.887 0.552 -1.946
-0.887 1.118 -1.456
-1.449 -0.384 -1.402
-1.449 0.384 -1.402

CELLS 188 752
3 0 1 2
3 2 1 3
3 1 4 3
3 3 4 5
3 4 6 5
3 5 6 7
3 6 8 7
3 7 8 9
3 8 10 9
3 9 10 11
3 10 12 11
3 11 12 13
3 12 14 13
3 13 14 15
3 14 16 15
3 15 16 17
3 16 18 17
3 17 18 19
3 18 20 19
3 19 20 21
3 20 22 21
3 21 22 23
3 22 24 23
3 23 24 25
3 24 26 25
3 25 26 27
3 26 0 27
3 27 0 2
3 28 29 30
3 28 30 31
3 28 31 32
3 28 32 33
3 28 33 34
3 28 34 29
3 30 29 35
3 30 35 36
3 30 36 37
3 31 30 37
3 31 37 38
3 31 38 39
3 32 31 39
3 32 39 40
3 33 32 40
3 29 41 35
3 35 41 42
3 35 42 43
3 36 35 43
3 36 43 44
3 37 36 44
3 37 44 45
3 38 37 45
3 38 45 46
3 38 46 47
3 39 38 47
3 39 47 48
3 40 39 48
3 41 49 42
3 42 49 50
3 42 50 51
3 43 42 51
3 43 51 52
3 44 43 52
3 44 52 53
3 45 44 53
3 45 53 54
3 46 45 54
3 46 54 55
3 47 46 55
3 47 55 56
3 48 47 56
3 48 56 57
3 49 58 50
3 50 58 59
3 50 59 60
3 51 50 60
3 51 60 61
3 52 51 61
3 52 61 62
3 53 52 62
3 53 62 63
3 54 53 63
3 54 63 64
3 55 54 64
3 55 64 65
3 56 55 65
3 56 65 66
3 57 56 66
3 60 59 67
3 60 67 68
3 61 60 68
3 61 68 69
3 62 61 69
3 62 69 70
3 63 62 70
3 63 70 71
3 64 63 71
3 65 64 71
3 65 71 72
3 66 65 72
3 68 67 73
3 68 73 74
3 69 68 74
3 70 69 74
3 70 74 75
3 71 70 75
3 72 71 75
3 72 75 76
3 74 73 77
3 75 74 77
3 76 75 77
3 76 77 14
3 76 14 12
3 76 12 10
3 76 10 72
3 72 10 66
3 66 10 8
3 66 8 57
3 57 8 6
3 57 6 48
3 48 6 4
3 48 4 40
3 40 4 1
3 40 1 33
3 33 1 0
3 33 0 34
3 34 0 26
3 34 26 29
3 29 26 41
3 41 26 24
3 41 24 49
3 49 24 22
3 49 22 58
3 58 22 20
3 58 20 59
3 59 20 18
3 59 18 67
3 67 18 16
3 67 16 73
3 73 16 14
3 73 14 77
3 78 79 80
3 81 78 80
3 81 80 82
3 81 82 83
3 79 84 85
3 80 79 85
3 80 85 86
3 82 80 86
3 82 86 87
3 83 82 87
3 83 87 88
3 84 89 90
3 85 84 90
3 85 90 91
3 86 85 91
3 86 91 92
3 87 86 92
3 87 92 93
3 88 87 93
3 90 89 94
3 91 90 94
3 91 94 95
3 92 91 95
3 93 92 95
3 93 95 17
3 93 17 19
3 93 19 21
3 93 21 88
3 88 21 23
3 88 23 83
3 83 23 25
3 83 25 27
3 83 27 81
3 81 27 2
3 81 2 78
3 78 2 3
3 78 3 79
3 79 3 5
3 79 5 7
3 79 7 84
3 84 7 9
3 84 9 89
3 89 9 11
3 89 11 13
3 89 13 94
3 94 13 15
3 94 15 95
3 95 15 17

CELL_TYPES 188
5
5
5
5
5
5
5
5
5
5
5
5
5
5
5
5
5
5
5
5
5
5
5
5
5
5
5
5
5
5
5
5
5
5
5
5
5
5
5
5
5
5
5
5
5
5
5
5
5
5
5
5
5
5
5
5
5
5
5
5
5
5
5
5
5
5
5
5
5
5
5
5
5
5
5
5
5
5
5
5
5
5
5
5
5
5
5
5
5
5
5
5
5
5
5
5
5
5
5
5
5
5
5
5
5
5
5
5
5
5
5
5
5
5
5
5
5
5
5
5
5
5
5
5
5
5
5
5
5
5
5
5
5
5
5
5
5
5
5
5
5
5
5
5
5
5
5
5
5
5
5
5
5
5
5
5
5
5
5
5
5
5
5
5
5
5
5
5
5
5
5
5
5
5
5
5
5
5
5
5
5
5
5
5
5
5
5
5

CELL_DATA 188
SCALARS cell_data_0 double
LOOKUP_TABLE default
1.97926394189e-06
2.90167960342e-06
5.35547861882e-07
7.65390143188e-07
2.35847163502e-08
6.36837966684e-09
7.55250884336e-08
1.34266971328e-07
2.32971448498e-09
1.56199850175e-07
5.9055853893e-08
1.43325414145e-07
9.68815045604e-08
1.20950416372e-07
1.45384537619e-07
1.26830709357e-07
1.68366115209e-07
3.46459920405e-08
1.99682316919e-07
5.37908206172e-08
2.42804597238e-07
8.5782849753e-08
2.18691812025e-07
2.32170605723e-07
3.36959499503e-08
5.94157802511e-08
5.82310059879e-08
2.67433400939e-06
1.96700222477e-09
5.90848423051e-10
4.74297037118e-09
1.53506318594e-09
2.65538171148e-08
2.27593592099e-09
1.96205113591e-09
2.3088472827e-09
5.43682120819e-10
4.08439276653e-10
5.83437403114e-09
3.77995239827e-10
1.4058898672e-08
1.10168816363e-09
3.9440481355e-08
6.0880950063e-11
1.27314949626e-10
1.62414661489e-09
1.10775020968e-09
1.3834080462e-09
1.19308464918e-09
8.58789813925e-10
1.23601961934e-09
4.99323193438e-10
1.27885823938e-09
3.4045571409e-09
1.98008311029e-09
6.06168553566e-09
2.72582108664e-09
5.57403201355e-10
4.32287794754e-09
8.69856603307e-11
2.01819161695e-09
5.32449748077e-10
1.07445474438e-09
9.93136569684e-11
1.36867888084e-09
7.32921927076e-10
1.22218687816e-09
7.30755939951e-10
3.60451689948e-09
2.70169314615e-09
1.97584081715e-10
1.42841890347e-09
4.26535260198e-09
2.69385931059e-09
5.81556798327e-09
5.4307107231e-10
1.78972624839e-09
2.12674658101e-10
6.23060789787e-10
3.0066436021e-10
5.34258208607e-10
4.28906834616e-11
7.60326375795e-10
7.46479932071e-10
5.92903773503e-09
7.07301689834e-10
3.61913058141e-09
1.21642504462e-08
5.18887995551e-12
5.46600180949e-09
1.69209405593e-09
1.47621819914e-09
2.12471871025e-09
1.26494806604e-09
2.99844627899e-09
3.7355742146e-09
1.29887878647e-09
1.52976024318e-09
2.32617929697e-09
1.29336150132e-08
1.40405318701e-09
3.9497838743e-09
6.06874390327e-10
1.30906387966e-08
8.33487253593e-09
6.2080659012e-09
2.07816204405e-09
1.12417862437e-08
8.20148870463e-09
9.57307235026e-09
4.85186576292e-08
2.17695734426e-07
1.64191563188e-07
2.36229176233e-07
8.570921636e-08
1.91698949023e-07
1.07769852503e-07
1.66047145956e-07
1.07231225608e-07
8.98343410172e-08
5.88533696669e-08
2.65723396613e-08
9.18989680586e-08
9.88836374909e-08
1.15583755691e-09
1.64004791427e-09
1.79770087675e-08
2.4938083206e-09
9.11979856797e-08
1.34030780443e-08
8.22663773059e-08
9.11053489414e-10
1.65985397277e-07
1.94129367812e-08
2.02018130986e-07
2.90439082316e-08
1.96454030274e-07
3.8323601954e-08
1.80588321421e-07
4.98942834782e-08
1.1610322609e-05
6.33782124921e-06
1.18752463435e-05
1.18007602247e-05
4.8175395318e-07
4.65859669858e-07
1.40217377039e-06
1.23938575345e-06
6.78345934904e-07
6.82235983768e-07
6.00258049304e-08
1.10513637076e-07
1.71849727414e-09
6.8265632088e-08
3.52148751168e-08
1.18873339434e-07
6.50896451748e-08
1.18148139494e-07
1.39648859606e-07
7.27307130175e-08
5.82408795994e-08
3.91159616453e-09
1.67671722284e-08
1.01305850886e-07
1.81498178715e-08
3.46633106912e-08
1.84108903583e-08
1.56366697308e-08
1.02653031541e-07
1.27115014805e-08
2.22084310831e-07
2.65801417099e-07
2.73854700918e-06
5.27586396875e-07
1.80711244034e-06
2.13611175876e-07
4.92903266693e-06
1.20638902775e-06
9.88808353366e-08
9.2643174952e-07
8.94068696871e-08
3.61703439703e-08
5.80979166196e-08
4.00091179913e-09
7.94062375735e-08
1.57773983288e-08
5.02423708579e-08
1.88972526693e-08

