# vtk DataFile Version 3.0
File Name: Molecule/methanol/methanol_0.5-2.vtk
ASCII
DATASET UNSTRUCTURED_GRID
FIELD FieldData 1
TIME 1 1 double
0.0
POINTS 32 double
1.4104382992 0.002447625855 -0.91319316626
1.6117500067 0.015658192337 -0.3240852952
1.2132931948 -0.74439078569 -0.90480685234
0.83355921507 -1.4158952236 -0.23735110462
-0.93257433176 -1.425614953 -0.065551653504
0.64790028334 -1.2902165651 -0.90861946344
-0.94155836105 -1.2828570604 -0.726341784
-1.7327910662 -0.012943238951 0.030895890668
-1.6393514872 0.0028201632667 -0.67771828175
-0.95502245426 1.4225305319 -0.068855807185
-0.91583281755 1.2852163315 -0.75292825699
0.80838561058 1.426658988 -0.26560860872
0.68095046282 1.2983160019 -0.87181961536
1.2067524195 0.74152648449 -0.92625403404
1.9044902325 -0.010688140057 0.67641270161
1.3842481375 1.3013988733 0.68226927519
1.380611062 0.43793544173 1.8870928288
1.3732000589 -1.0227832794 1.477410078
0.11741964519 1.3414541483 1.9766542912
0.093948088586 0.033485509455 2.53617239
0.095323622227 -1.2964565754 2.0237514973
0.09551987797 -1.8821957111 0.76108926535
0.090659171343 1.8817338943 0.67898952961
-1.3414924145 0.45525887609 1.8478627205
-1.3379241228 -1.0217562914 1.4766479731
0.61190629005 0.40469419956 -2.0037896633
-0.85772532225 -1.0099869967 -1.5952275991
-0.88513857126 0.4533906281 -1.979793787
1.0988554955 -0.60947954655 -1.4206314087
0.73941719532 0.98251777887 -1.5134171247
1.1122092009 0.2926748395 -1.6002018452
1.2961597443 0.15621250868 -1.3184280396

CELLS 60 240
3 0 1 2
3 3 4 5
3 5 4 6
3 4 7 6
3 6 7 8
3 7 9 8
3 8 9 10
3 9 11 10
3 10 11 12
3 12 11 13
3 14 15 16
3 14 16 17
3 16 15 18
3 16 18 19
3 17 16 19
3 17 19 20
3 17 20 21
3 15 22 18
3 19 18 23
3 19 23 24
3 20 19 24
3 21 20 24
3 21 24 4
3 21 4 3
3 21 3 17
3 17 3 14
3 14 3 1
3 14 1 15
3 15 1 11
3 15 11 22
3 22 11 9
3 22 9 23
3 22 23 18
3 23 9 7
3 23 7 24
3 24 7 4
3 25 26 27
3 5 26 28
3 26 5 6
3 26 6 8
3 26 8 27
3 27 8 10
3 27 10 29
3 0 13 1
3 1 13 11
3 12 29 10
3 27 29 25
3 25 29 30
3 29 13 30
3 29 12 13
3 5 2 3
3 3 2 1
3 0 31 13
3 13 31 30
3 30 28 25
3 25 28 26
3 30 31 28
3 2 28 0
3 31 0 28
3 28 2 5

CELL_TYPES 60
5
5
5
5
5
5
5
5
5
5
5
5
5
5
5
5
5
5
5
5
5
5
5
5
5
5
5
5
5
5
5
5
5
5
5
5
5
5
5
5
5
5
5
5
5
5
5
5
5
5
5
5
5
5
5
5
5
5
5
5

CELL_DATA 60
SCALARS cell_data_0 double
LOOKUP_TABLE default
2.83989319313e-06
2.74897960718e-06
4.81721072355e-07
3.26985245409e-07
9.03605658508e-07
8.48640534522e-07
6.16344863349e-07
1.9754832318e-06
3.25871369329e-06
3.06190202289e-07
1.19259171655e-08
2.77789888129e-08
1.07014741654e-08
3.05263073436e-08
5.27941599907e-09
1.20348094874e-08
9.33245159516e-08
4.58547665555e-08
7.89911786479e-08
3.76730356487e-08
1.00350065251e-07
1.12121624737e-07
7.87116937694e-07
2.31010726883e-07
3.57885492802e-07
1.57513988368e-07
1.26148912715e-07
1.24725306619e-08
7.39916527307e-07
1.42213326679e-07
7.09819139425e-07
1.37633770915e-06
1.20558582619e-07
3.32990596139e-06
4.75433899136e-07
2.4498797987e-06
1.35620146134e-05
4.08410608148e-05
2.79545544362e-06
1.9672914901e-07
1.85766539035e-06
1.26783568594e-06
3.4863021674e-06
2.83458088603e-06
1.46465929371e-06
1.38521777976e-06
5.13096208825e-06
4.25616232241e-06
1.37358880815e-06
8.97487956668e-07
3.26575761672e-07
6.88103937139e-07
4.18113304869e-06
3.50146188748e-06
3.6433228916e-06
9.90860765903e-05
4.56718029001e-07
3.08996842086e-06
1.17517790978e-06
1.88039649122e-06

