# vtk DataFile Version 3.0
File Name: Molecule/methanol/methanol_4.0-4.vtk
ASCII
DATASET UNSTRUCTURED_GRID
FIELD FieldData 1
TIME 1 1 double
0.0
POINTS 206 double
1.311 -0.525 -0.924
1.219 -1.083 -0.32
1.046 -0.986 -0.897
0.773 -1.459 -0.275
0.639 -1.329 -0.857
0.226 -1.659 -0.221
0.141 -1.511 -0.807
-0.356 -1.659 -0.163
-0.389 -1.511 -0.754
-0.903 -1.459 -0.108
-0.887 -1.329 -0.705
-1.349 -1.083 -0.064
-1.294 -0.986 -0.664
-1.64 -0.576 -0.035
-1.559 -0.525 -0.638
-1.742 -0.0 -0.025
-1.651 -0.0 -0.629
-1.64 0.576 -0.035
-1.559 0.525 -0.638
-1.349 1.083 -0.064
-1.294 0.986 -0.664
-0.903 1.459 -0.108
-0.887 1.329 -0.705
-0.356 1.659 -0.163
-0.389 1.511 -0.754
0.226 1.659 -0.221
0.141 1.511 -0.807
0.773 1.459 -0.275
0.639 1.329 -0.857
1.219 1.083 -0.32
1.046 0.986 -0.897
1.51 0.576 -0.349
1.311 0.525 -0.924
1.907 0.0 0.656
1.83 0.532 0.656
1.83 0.266 1.116
1.83 -0.266 1.116
1.83 -0.532 0.656
1.83 -0.266 0.195
1.83 0.266 0.195
1.607 0.884 1.166
1.607 0.51 1.539
1.607 -0.0 1.676
1.607 -0.51 1.539
1.607 -0.884 1.166
1.607 -1.02 0.656
1.607 -0.884 0.145
1.607 0.884 0.145
1.607 1.02 0.656
1.255 1.33 1.171
1.255 1.054 1.617
1.255 0.636 1.933
1.255 0.132 2.076
1.255 -0.39 2.028
1.255 -0.86 1.794
1.255 -1.213 1.407
1.255 -1.402 0.918
1.255 -1.402 0.393
1.255 1.33 0.14
1.255 1.426 0.656
0.803 1.633 1.186
0.803 1.389 1.665
0.803 1.009 2.045
0.803 0.531 2.288
0.803 -0.0 2.373
0.803 -0.531 2.288
0.803 -1.009 2.045
0.803 -1.389 1.665
0.803 -1.633 1.186
0.803 -1.717 0.656
0.803 -1.633 0.125
0.803 1.633 0.125
0.803 1.717 0.656
0.288 1.793 1.182
0.288 1.572 1.666
0.288 1.223 2.068
0.288 0.776 2.355
0.288 0.266 2.505
0.288 -0.266 2.505
0.288 -0.776 2.355
0.288 -1.223 2.068
0.288 -1.572 1.666
0.288 -1.793 1.182
0.288 -1.868 0.656
0.288 -1.793 0.129
0.288 1.793 0.129
0.288 1.868 0.656
-0.25 1.793 1.182
-0.25 1.572 1.666
-0.25 1.223 2.068
-0.25 0.776 2.355
-0.25 0.266 2.505
-0.25 -0.266 2.505
-0.25 -0.776 2.355
-0.25 -1.223 2.068
-0.25 -1.572 1.666
-0.25 -1.793 1.182
-0.25 -1.868 0.656
-0.25 -1.793 0.129
-0.25 1.793 0.129
-0.25 1.868 0.656
-0.765 1.717 0.656
-0.765 1.633 1.186
-0.765 1.389 1.665
-0.765 1.009 2.045
-0.765 0.531 2.288
-0.765 -0.0 2.373
-0.765 -0.531 2.288
-0.765 -1.009 2.045
-0.765 -1.389 1.665
-0.765 -1.633 1.186
-0.765 -1.717 0.656
-1.217 1.426 0.656
-1.217 1.33 1.171
-1.217 1.054 1.617
-1.217 0.636 1.933
-1.217 0.132 2.076
-1.217 -0.39 2.028
-1.217 -0.86 1.794
-1.217 -1.213 1.407
-1.217 -1.402 0.918
-1.217 -1.402 0.393
-1.569 1.02 0.656
-1.569 0.884 1.166
-1.569 0.51 1.539
-1.569 -0.0 1.676
-1.569 -0.51 1.539
-1.569 -0.884 1.166
-1.569 -1.02 0.656
-1.792 0.532 0.656
-1.792 0.266 1.116
-1.792 -0.266 1.116
-1.792 -0.532 0.656
-1.868 0.0 0.656
1.51 -0.576 -0.349
1.611 0.0 -0.359
1.323 0.263 -1.192
1.323 -0.263 -1.192
1.056 -0.0 -1.724
1.056 -0.854 -1.231
0.648 -1.228 -1.246
0.648 -0.94 -1.677
1.056 0.854 -1.231
0.648 0.94 -1.677
0.648 1.228 -1.246
0.147 -1.421 -1.254
0.147 -1.158 -1.709
0.147 -0.756 -2.046
0.648 -0.509 -1.965
0.147 -0.263 -2.226
0.648 0.0 -2.067
0.147 0.262 -2.226
0.648 0.509 -1.965
0.147 0.756 -2.046
0.147 1.158 -1.709
0.147 1.421 -1.254
-0.386 -1.421 -1.254
-0.386 -1.158 -1.709
-0.386 -0.756 -2.046
-0.386 -0.263 -2.226
-0.386 0.262 -2.226
-0.386 0.756 -2.046
-0.386 1.158 -1.709
-0.386 1.421 -1.254
-0.887 -1.228 -1.246
-0.887 -0.94 -1.677
-0.887 -0.509 -1.965
-0.887 0.0 -2.067
-0.887 0.509 -1.965
-0.887 0.94 -1.677
-0.887 1.228 -1.246
-1.296 -0.854 -1.231
-1.296 -0.493 -1.592
-1.296 -0.0 -1.724
-1.296 0.493 -1.592
-1.296 0.854 -1.231
-1.562 -0.263 -1.192
-1.562 0.263 -1.192
1.403 0.0 -0.933
1.056 -0.493 -1.592
0.852 -0.2545 -1.8445
0.852 0.0 -1.8955
0.648 -0.2545 -2.016
0.852 0.2545 -1.8445
0.648 0.2545 -2.016
1.056 0.493 -1.592
1.1895 -0.5585 -1.2115
1.1895 -0.378 -1.392
1.056 -0.6735 -1.4115
1.1895 0.378 -1.392
1.1895 0.5585 -1.2115
1.056 0.6735 -1.4115
1.461 0.2625 -0.6415
1.357 0.2625 -0.9285
1.507 0.0 -0.646
0.852 -0.7165 -1.6345
0.852 -0.501 -1.7785
0.648 -0.7245 -1.821
1.4565 -0.288 -0.641
1.357 -0.2625 -0.9285
1.4105 -0.5505 -0.6365
0.852 0.501 -1.7785
0.852 0.7165 -1.6345
0.648 0.7245 -1.821
1.455 0.0 -0.7895
1.5085 -0.288 -0.4975

CELLS 408 1632
3 0 1 2
3 1 3 2
3 2 3 4
3 3 5 4
3 4 5 6
3 5 7 6
3 6 7 8
3 7 9 8
3 8 9 10
3 9 11 10
3 10 11 12
3 11 13 12
3 12 13 14
3 13 15 14
3 14 15 16
3 15 17 16
3 16 17 18
3 17 19 18
3 18 19 20
3 19 21 20
3 20 21 22
3 21 23 22
3 22 23 24
3 23 25 24
3 24 25 26
3 25 27 26
3 26 27 28
3 27 29 28
3 28 29 30
3 29 31 30
3 30 31 32
3 33 34 35
3 33 35 36
3 33 36 37
3 33 37 38
3 33 38 39
3 33 39 34
3 35 34 40
3 35 40 41
3 35 41 42
3 36 35 42
3 36 42 43
3 36 43 44
3 37 36 44
3 37 44 45
3 37 45 46
3 38 37 46
3 34 39 47
3 34 47 48
3 34 48 40
3 40 48 49
3 40 49 50
3 41 40 50
3 41 50 51
3 41 51 52
3 42 41 52
3 42 52 53
3 43 42 53
3 43 53 54
3 44 43 54
3 44 54 55
3 44 55 56
3 45 44 56
3 45 56 57
3 46 45 57
3 48 47 58
3 48 58 59
3 48 59 49
3 49 59 60
3 49 60 61
3 50 49 61
3 50 61 62
3 51 50 62
3 51 62 63
3 52 51 63
3 52 63 64
3 53 52 64
3 53 64 65
3 54 53 65
3 54 65 66
3 54 66 67
3 55 54 67
3 55 67 68
3 56 55 68
3 56 68 69
3 57 56 69
3 57 69 70
3 59 58 71
3 59 71 72
3 59 72 60
3 60 72 73
3 60 73 74
3 61 60 74
3 61 74 75
3 62 61 75
3 62 75 76
3 63 62 76
3 63 76 77
3 64 63 77
3 64 77 78
3 65 64 78
3 65 78 79
3 66 65 79
3 66 79 80
3 67 66 80
3 67 80 81
3 68 67 81
3 68 81 82
3 69 68 82
3 69 82 83
3 69 83 84
3 70 69 84
3 72 71 85
3 72 85 86
3 72 86 73
3 73 86 87
3 73 87 88
3 74 73 88
3 74 88 89
3 75 74 89
3 75 89 90
3 76 75 90
3 76 90 91
3 77 76 91
3 77 91 92
3 78 77 92
3 78 92 93
3 79 78 93
3 79 93 94
3 80 79 94
3 80 94 95
3 81 80 95
3 81 95 96
3 82 81 96
3 82 96 97
3 83 82 97
3 83 97 98
3 84 83 98
3 86 85 99
3 86 99 100
3 86 100 87
3 87 100 101
3 87 101 102
3 88 87 102
3 88 102 103
3 89 88 103
3 89 103 104
3 90 89 104
3 90 104 105
3 91 90 105
3 91 105 106
3 92 91 106
3 92 106 107
3 93 92 107
3 93 107 108
3 94 93 108
3 94 108 109
3 95 94 109
3 95 109 110
3 96 95 110
3 96 110 111
3 97 96 111
3 98 97 111
3 100 99 101
3 102 101 112
3 102 112 113
3 103 102 113
3 103 113 114
3 104 103 114
3 104 114 115
3 105 104 115
3 105 115 116
3 106 105 116
3 106 116 117
3 107 106 117
3 107 117 118
3 108 107 118
3 109 108 118
3 109 118 119
3 110 109 119
3 110 119 120
3 111 110 120
3 111 120 121
3 113 112 122
3 113 122 123
3 114 113 123
3 114 123 124
3 115 114 124
3 116 115 124
3 116 124 125
3 117 116 125
3 117 125 126
3 118 117 126
3 118 126 127
3 119 118 127
3 120 119 127
3 120 127 128
3 121 120 128
3 123 122 129
3 123 129 130
3 124 123 130
3 125 124 130
3 125 130 131
3 126 125 131
3 127 126 131
3 127 131 132
3 128 127 132
3 130 129 133
3 131 130 133
3 132 131 133
3 132 133 15
3 132 15 13
3 132 13 128
3 128 13 11
3 128 11 121
3 121 11 9
3 121 9 111
3 111 9 98
3 98 9 7
3 98 7 5
3 98 5 84
3 84 5 70
3 70 5 3
3 70 3 1
3 70 1 57
3 57 1 46
3 46 1 134
3 46 134 38
3 38 134 135
3 38 135 39
3 39 135 31
3 39 31 47
3 47 31 29
3 47 29 58
3 58 29 27
3 58 27 71
3 71 27 25
3 71 25 85
3 85 25 99
3 99 25 23
3 99 23 21
3 99 21 101
3 101 21 112
3 112 21 19
3 112 19 122
3 122 19 17
3 122 17 129
3 129 17 15
3 129 15 133
3 136 137 138
3 139 140 141
3 142 143 144
3 140 145 146
3 141 140 146
3 141 146 147
3 148 147 149
3 150 149 151
3 152 151 153
3 143 153 154
3 144 143 154
3 144 154 155
3 145 156 157
3 146 145 157
3 147 146 157
3 147 157 158
3 147 158 159
3 149 147 159
3 149 159 160
3 151 149 160
3 151 160 161
3 153 151 161
3 153 161 162
3 154 153 162
3 154 162 163
3 155 154 163
3 157 156 164
3 157 164 165
3 158 157 165
3 158 165 166
3 159 158 166
3 159 166 167
3 160 159 167
3 160 167 168
3 161 160 168
3 161 168 169
3 162 161 169
3 162 169 170
3 163 162 170
3 165 164 171
3 165 171 172
3 166 165 172
3 166 172 173
3 167 166 173
3 168 167 173
3 168 173 174
3 169 168 174
3 169 174 175
3 170 169 175
3 172 171 176
3 173 172 176
3 173 176 177
3 174 173 177
3 175 174 177
3 175 177 18
3 175 18 20
3 175 20 170
3 170 20 22
3 170 22 163
3 163 22 24
3 163 24 26
3 163 26 155
3 155 26 28
3 155 28 144
3 144 28 30
3 144 30 142
3 142 30 32
3 136 178 137
3 139 0 2
3 139 2 140
3 140 2 4
3 140 4 145
3 145 4 6
3 145 6 156
3 156 6 8
3 156 8 10
3 156 10 164
3 164 10 12
3 164 12 171
3 171 12 14
3 171 14 176
3 176 14 16
3 176 16 177
3 177 16 18
3 179 180 138
3 138 180 181
3 180 182 181
3 180 148 182
3 181 182 150
3 138 181 183
3 181 184 183
3 181 150 184
3 183 184 152
3 138 183 185
3 150 182 149
3 182 148 149
3 152 184 151
3 184 150 151
3 137 186 187
3 186 188 187
3 186 139 188
3 187 188 179
3 137 187 138
3 187 179 138
3 185 189 138
3 138 189 136
3 136 189 190
3 189 191 190
3 189 185 191
3 190 191 142
3 188 139 141
3 142 191 143
3 136 190 32
3 32 190 142
3 139 186 0
3 0 186 137
3 135 192 31
3 31 192 32
3 32 192 193
3 192 194 193
3 192 135 194
3 179 195 196
3 195 197 196
3 195 141 197
3 196 197 148
3 148 197 147
3 197 141 147
3 32 193 136
3 136 193 178
3 179 196 180
3 180 196 148
3 141 195 188
3 188 195 179
3 178 198 199
3 198 200 199
3 198 134 200
3 199 200 0
3 0 200 1
3 1 200 134
3 185 201 202
3 201 203 202
3 201 152 203
3 202 203 143
3 143 203 153
3 203 152 153
3 178 199 137
3 137 199 0
3 152 201 183
3 183 201 185
3 185 202 191
3 191 202 143
3 178 204 198
3 204 205 198
3 204 194 205
3 198 205 134
3 134 205 135
3 205 194 135
3 194 204 193
3 193 204 178

CELL_TYPES 408
5
5
5
5
5
5
5
5
5
5
5
5
5
5
5
5
5
5
5
5
5
5
5
5
5
5
5
5
5
5
5
5
5
5
5
5
5
5
5
5
5
5
5
5
5
5
5
5
5
5
5
5
5
5
5
5
5
5
5
5
5
5
5
5
5
5
5
5
5
5
5
5
5
5
5
5
5
5
5
5
5
5
5
5
5
5
5
5
5
5
5
5
5
5
5
5
5
5
5
5
5
5
5
5
5
5
5
5
5
5
5
5
5
5
5
5
5
5
5
5
5
5
5
5
5
5
5
5
5
5
5
5
5
5
5
5
5
5
5
5
5
5
5
5
5
5
5
5
5
5
5
5
5
5
5
5
5
5
5
5
5
5
5
5
5
5
5
5
5
5
5
5
5
5
5
5
5
5
5
5
5
5
5
5
5
5
5
5
5
5
5
5
5
5
5
5
5
5
5
5
5
5
5
5
5
5
5
5
5
5
5
5
5
5
5
5
5
5
5
5
5
5
5
5
5
5
5
5
5
5
5
5
5
5
5
5
5
5
5
5
5
5
5
5
5
5
5
5
5
5
5
5
5
5
5
5
5
5
5
5
5
5
5
5
5
5
5
5
5
5
5
5
5
5
5
5
5
5
5
5
5
5
5
5
5
5
5
5
5
5
5
5
5
5
5
5
5
5
5
5
5
5
5
5
5
5
5
5
5
5
5
5
5
5
5
5
5
5
5
5
5
5
5
5
5
5
5
5
5
5
5
5
5
5
5
5
5
5
5
5
5
5
5
5
5
5
5
5
5
5
5
5
5
5
5
5
5
5
5
5
5
5
5
5
5
5
5
5
5
5
5
5
5
5
5
5
5
5
5
5
5
5
5
5
5
5
5
5
5
5
5
5
5
5
5
5
5
5
5
5
5
5
5
5
5
5
5
5

CELL_DATA 408
SCALARS cell_data_0 double
LOOKUP_TABLE default
7.86337684062e-07
4.30845363706e-08
1.18951802912e-07
4.38414343188e-08
5.78070793842e-08
3.8244104396e-08
9.71466817989e-08
6.331568325e-12
1.20965015525e-07
2.66283156245e-08
1.14303768824e-07
5.76490226498e-08
1.18328035555e-07
7.32474546591e-08
1.10087748764e-07
8.9101101839e-08
1.06965292214e-07
1.04917960002e-07
8.64627742993e-08
1.1945489336e-07
6.81210770259e-08
1.14820910087e-07
2.75681339928e-08
1.25600154592e-07
9.20978663887e-09
1.41915448382e-07
8.96431758894e-08
1.04932201133e-07
1.50286451901e-07
7.01833836842e-08
3.37016502587e-07
7.67549689909e-10
4.59234183575e-10
9.84481107741e-10
6.35763871406e-10
2.13621713879e-09
3.65843517388e-10
1.27515946321e-09
7.51327231175e-10
5.18509794167e-10
1.18681609436e-09
2.02039045526e-11
7.32624212585e-10
1.27485906859e-09
5.02930674442e-10
1.76787858178e-09
2.18985690795e-09
7.78163961754e-10
1.70264943499e-09
2.07294614347e-10
2.78066835021e-10
6.31668506718e-10
1.30998751545e-10
3.33659068233e-10
5.26132800433e-10
5.01258494278e-10
9.692506066e-10
7.35631645487e-10
5.35677014434e-10
3.77783744485e-10
2.33208837052e-10
7.29746933473e-10
2.52229795581e-09
1.21587626475e-10
3.45302090414e-10
1.12327977232e-09
1.43088012954e-09
8.93679125412e-10
1.5325977983e-10
1.64233323342e-10
2.27669749555e-11
6.92941825062e-11
2.43192613373e-10
1.09087438454e-10
1.23024450147e-10
1.82447779279e-10
2.86451048651e-10
1.35396357288e-10
2.83531109357e-10
1.60211448355e-10
3.39753354738e-10
3.41210187866e-10
1.47291449817e-10
4.94922903252e-10
8.98276462257e-10
2.16228395102e-09
1.82406115384e-09
2.03749838717e-09
1.66235690717e-09
1.4548526671e-09
3.36883155362e-10
2.55778377032e-10
1.09209196728e-10
1.27657657947e-10
1.28311538891e-10
5.72513039355e-10
1.46211842796e-10
6.89493672284e-10
3.98134223838e-11
4.94766747914e-10
7.35187795717e-11
7.75564800194e-10
1.99450791297e-11
3.0236948656e-10
8.48653291519e-11
1.32428818268e-10
1.13264423051e-10
2.7552614784e-10
4.05419924087e-10
2.84603225687e-09
9.99055882044e-10
9.40477475212e-09
6.19994633425e-09
2.48640129062e-10
1.90529944405e-09
2.80552741839e-10
8.24784860518e-10
2.1078997476e-10
1.93024894016e-10
9.23541563353e-11
1.14204539449e-10
1.61333268701e-10
7.42611039959e-11
1.11207749399e-10
5.9962762008e-11
3.2491538828e-10
8.48073079534e-11
3.70128780319e-10
8.01389946853e-11
3.23371029652e-10
2.18362969607e-10
6.30554434362e-10
1.91044004269e-10
1.56934426957e-09
2.72822604652e-10
5.55826086494e-09
4.7239315848e-10
1.42777064864e-08
1.19529969781e-08
6.68925958324e-10
3.2365490218e-09
5.62229088251e-09
1.04329596765e-09
1.90246916921e-09
4.54805444128e-10
9.92644759451e-10
2.23431216342e-10
5.15959692828e-10
1.03866060359e-10
5.86053230167e-10
2.18147191879e-10
5.34235324221e-10
2.52800039501e-10
3.07488130466e-10
3.08760623917e-10
1.51541291083e-10
2.88834419789e-10
5.95579983217e-10
5.63980772042e-11
1.9872230471e-09
8.93580690232e-11
2.86818913007e-09
9.86669014345e-09
1.30723163092e-09
2.04324262431e-09
5.35134519307e-10
3.08456906195e-09
1.03708913394e-12
8.39310741569e-10
5.15178985303e-10
3.28322591509e-10
5.20403093731e-10
2.36716426371e-10
5.51705209337e-10
3.61258946029e-10
8.8515463766e-10
7.72118198342e-10
1.79095342309e-10
1.73712611154e-10
3.36221879421e-10
2.80564569403e-09
1.95932248627e-09
2.11130465065e-09
7.78621132258e-10
2.87261156214e-10
3.07942156134e-09
1.67685100286e-11
5.35823371947e-10
1.54946213085e-10
1.33665408702e-09
1.20974155793e-10
1.02796533995e-09
5.84042879942e-10
1.34427495763e-09
3.48580348791e-09
7.64016328879e-10
1.76748272142e-09
2.99573776649e-09
1.0526434636e-09
2.22534935885e-10
2.75198443673e-09
6.39238723472e-10
6.42182912453e-09
2.92904016436e-09
2.27122766175e-09
2.66916307894e-10
2.38422078932e-09
1.40495148634e-09
1.36670537236e-09
2.07966327359e-09
3.82214103287e-08
1.34437776179e-07
4.30423928521e-08
1.46565037695e-07
5.06054758746e-09
6.12765049162e-08
7.37799262656e-08
1.97473475321e-08
2.82075953454e-08
1.73980517389e-08
1.33003407965e-08
2.71947321745e-08
2.94078052567e-08
1.93668012397e-08
8.82769528731e-09
2.7278288651e-08
2.85105523917e-08
3.70000756525e-10
1.96056036961e-08
1.17305517738e-09
2.8482123257e-09
5.08803726591e-09
1.85589424517e-08
9.41706170775e-09
6.87503005729e-09
7.19553651718e-09
1.88045303176e-08
4.36009163283e-09
7.9417128528e-09
1.74390750157e-08
2.82426013975e-08
1.10562981848e-07
2.78105095338e-08
1.4117641574e-07
2.52161856662e-08
1.40938975714e-07
3.01392147233e-08
1.37068753347e-07
3.83501069128e-08
4.97858818775e-07
3.42959718789e-07
3.06391821163e-07
5.4574362949e-08
4.76326630753e-08
1.28484879937e-07
2.66176042156e-07
3.87348056556e-07
2.68106257057e-07
1.36950398892e-07
1.41413704995e-07
5.16131633231e-08
1.37314955585e-08
5.3178747411e-09
4.54901446193e-09
5.93510668273e-08
4.32629159884e-08
1.14729310616e-08
6.40640166531e-08
3.84375679194e-08
6.7849018519e-08
5.41711260979e-08
5.65985771144e-08
5.37447786508e-08
3.56686587897e-08
2.97945931153e-08
7.69855080616e-09
1.44501040715e-09
1.0122007251e-08
1.15985427576e-08
2.93638536184e-10
1.44990460959e-08
1.94863661447e-09
1.31739860151e-08
5.46255900515e-09
1.04129954497e-08
2.12694249064e-09
1.39135755851e-09
4.37456086185e-09
1.69803847899e-08
5.67278735043e-09
6.88014452045e-09
2.67122253203e-09
4.14634232964e-09
2.34464650504e-09
2.21822166512e-09
6.40870733366e-09
5.15459745855e-09
1.63826305308e-08
2.19539571287e-08
1.1485846726e-08
1.09620677375e-08
1.43153290381e-08
2.04782185949e-08
8.22721860141e-09
3.50713000636e-08
6.05009700857e-09
4.43631892038e-08
1.65477751306e-09
2.58865041739e-08
3.21586298487e-08
2.20584661594e-08
4.87810014759e-08
2.97292935581e-08
1.06487694473e-07
1.29608427343e-07
3.23206327788e-07
2.40006449668e-07
3.87320154528e-07
1.62525314165e-07
9.79899047628e-08
3.1167755086e-08
4.64924659369e-08
2.96523949104e-08
3.4314685252e-08
2.35782733742e-08
2.54076531028e-08
4.25324823132e-08
1.70853784469e-08
3.56219043063e-08
7.37916786972e-09
3.8430479943e-08
2.83837635725e-08
3.9199056602e-08
3.98888769424e-07
2.92286251939e-07
5.87346460841e-08
1.45866949157e-07
5.59208253579e-08
2.9215064663e-07
1.30709138496e-07
5.58009798629e-08
1.45867308e-07
4.63521626379e-07
1.37332525917e-07
2.13849637128e-08
1.68696383619e-07
1.0261829054e-07
5.73468150478e-08
3.10604905169e-07
1.03206591745e-07
3.23624284294e-07
9.65370889512e-08
1.53496854412e-07
6.2152451049e-07
4.85393753238e-08
4.96653107282e-08
1.00263803019e-07
3.28310949291e-07
9.32556034482e-08
6.84915726821e-08
3.33826503729e-07
4.73786367451e-07
2.37803461222e-07
6.21724076251e-09
1.05856437528e-07
7.40869869619e-08
3.02074020148e-07
2.69516958094e-07
8.80707878942e-08
1.13870457791e-08
4.27118799954e-08
7.07562964076e-08
6.35530403376e-08
9.08743032371e-08
5.55359259e-08
3.67923984863e-09
1.92202780095e-07
5.231905871e-08
2.3035988052e-08
2.70990720846e-08
1.32259901594e-07
9.66613873247e-08
1.79977615874e-07
1.90125697023e-07
3.69959525273e-08
1.10784974206e-07
2.66837241199e-07
4.04212479111e-08
4.11655284763e-08
1.28322338931e-08
9.15850616854e-08
6.23224720465e-08
8.90904861547e-08
1.01782126219e-07
1.99475008015e-07
2.25723079557e-07
1.28914326513e-07
4.29473660357e-08
1.64553591725e-08
6.55262048267e-08
1.00388322461e-07
6.46284291783e-08
3.63817785381e-08
1.4570684278e-08
3.11080754544e-09
1.79817601295e-08
5.1554283969e-08
7.86687619688e-08

