# vtk DataFile Version 3.0
File Name: Molecule/methanol/methanol_1.0-2.vtk
ASCII
DATASET UNSTRUCTURED_GRID
FIELD FieldData 1
TIME 1 1 double
0.0
POINTS 51 double
1.4127345085 0.0048956349492 -0.90578532219
1.6108163595 1.1909753084e-05 -0.33625149727
1.2823041677 -0.60749924183 -0.90945327282
1.0924780369 -1.224729538 -0.27387711406
0.028060555458 -1.686029911 -0.16719043255
0.9156486392 -1.1258491278 -0.87080168724
-0.058697015047 -1.5083287954 -0.83523237705
-1.2054773569 -1.2302918434 -0.058141987771
-1.1753095388 -1.0900087357 -0.70949542522
-1.7285768986 -0.00091348169371 -0.018058415502
-1.6304827929 0.00023107568268 -0.68675601482
-1.1653335094 1.0899000168 -0.72385537624
-1.2073584795 1.2292174101 -0.058329626918
-0.052287556231 1.5129219294 -0.82298588753
0.030016792938 1.6854500771 -0.16132172942
0.90584284067 1.1269416809 -0.87944471836
1.093536973 1.2249191999 -0.27312931418
1.2809334993 0.6088078022 -0.91128104925
1.9060319662 -0.0032891898882 0.6718338728
1.5803102255 1.0592218637 0.65758770704
1.5726488829 0.50440698862 1.598921895
1.5748770237 -0.5841627717 1.5492036343
1.4905533791 -1.1792889833 0.66183638573
0.5803925395 1.4501228333 1.7180645466
0.56845754385 0.55007946491 2.3730490208
0.59084820747 -0.5514010191 2.3634617329
0.57875680923 -1.4517064095 1.7176755667
0.56979686022 -1.8041015863 0.66112101078
0.57185560465 1.8033887148 0.66014540195
-0.54287028313 1.460578084 1.7032402754
-0.53058409691 0.56960713863 2.3672618866
-0.53593051434 -0.55683946609 2.3699531555
-0.54088759422 -1.4615361691 1.7043671608
-0.53948843479 -1.8034491539 0.64476889372
-0.54203385115 1.8027268648 0.64300942421
-1.5411483049 1.0562236309 0.67658168077
-1.5355204344 0.50536197424 1.5979955196
-1.538161397 -0.58231794834 1.5479360819
-1.4519004822 -1.1772713661 0.68332618475
-1.8629860878 -0.0023775394075 0.69593733549
0.88111341 -0.57624149323 -1.7293362617
-0.11064833403 -0.78191447258 -2.0507702827
-0.12028940022 0.30784067512 -2.2381160259
0.88442009687 0.58673930168 -1.7248044014
-0.12451491505 1.1433587074 -1.7580367327
-1.1437836885 -0.61415582895 -1.7009911537
-1.1486297846 0.61057955027 -1.6984263659
0.88780015707 0.96577054262 -1.3617892265
0.99271130562 -0.84072375298 -1.3511558771
1.2801488638 -0.31503325701 -1.2812478542
1.2182391882 0.3754183054 -1.3935725689

CELLS 98 392
3 0 1 2
3 3 4 5
3 5 4 6
3 4 7 6
3 6 7 8
3 7 9 8
3 8 9 10
3 10 9 11
3 12 11 9
3 11 12 13
3 14 13 12
3 13 14 15
3 16 15 14
3 16 1 17
3 18 19 20
3 18 20 21
3 18 21 22
3 20 19 23
3 20 23 24
3 20 24 25
3 21 20 25
3 21 25 26
3 22 21 26
3 22 26 27
3 19 28 23
3 23 28 29
3 23 29 30
3 24 23 30
3 24 30 31
3 25 24 31
3 26 25 31
3 26 31 32
3 26 32 27
3 33 27 32
3 28 34 29
3 29 34 35
3 29 35 36
3 30 29 36
3 30 36 31
3 37 31 36
3 32 31 37
3 32 37 38
3 33 32 38
3 36 35 39
3 37 36 39
3 38 37 39
3 38 39 9
3 38 9 7
3 38 7 33
3 33 7 4
3 33 4 27
3 27 4 3
3 27 3 22
3 22 3 1
3 22 1 18
3 18 1 19
3 19 1 16
3 19 16 28
3 28 16 14
3 28 14 34
3 34 14 12
3 34 12 35
3 35 12 9
3 35 9 39
3 40 41 42
3 43 40 42
3 43 42 44
3 42 41 45
3 42 45 46
3 44 42 46
3 44 46 11
3 44 11 13
3 44 13 47
3 5 6 48
3 41 6 45
3 45 6 8
3 45 8 10
3 45 10 46
3 46 10 11
3 5 2 3
3 3 2 1
3 49 40 50
3 40 49 48
3 49 2 48
3 49 0 2
3 48 2 5
3 40 48 41
3 41 48 6
3 0 17 1
3 16 17 15
3 15 47 13
3 44 47 43
3 43 47 50
3 47 17 50
3 47 15 17
3 50 17 0
3 43 50 40
3 49 50 0

CELL_TYPES 98
5
5
5
5
5
5
5
5
5
5
5
5
5
5
5
5
5
5
5
5
5
5
5
5
5
5
5
5
5
5
5
5
5
5
5
5
5
5
5
5
5
5
5
5
5
5
5
5
5
5
5
5
5
5
5
5
5
5
5
5
5
5
5
5
5
5
5
5
5
5
5
5
5
5
5
5
5
5
5
5
5
5
5
5
5
5
5
5
5
5
5
5
5
5
5
5
5
5

CELL_DATA 98
SCALARS cell_data_0 double
LOOKUP_TABLE default
1.16689542222e-06
1.1041835251e-07
4.38494971393e-08
3.84729799513e-07
2.38502582015e-07
1.01955555728e-07
2.73566978804e-07
2.95178034834e-07
8.69203148193e-08
1.8166870902e-07
2.41998630359e-07
3.70015137882e-07
6.64109626095e-08
7.05399861451e-07
3.75617956889e-09
7.12780789865e-10
2.14318513802e-10
4.10074125454e-09
1.31049490494e-08
7.70891934384e-10
5.15613985759e-09
3.83369701117e-09
7.82585479063e-09
3.00968258461e-09
4.66075591652e-09
4.21719750201e-09
1.14941600225e-09
1.60867918922e-09
9.16672857341e-09
1.27710756214e-08
3.84389809583e-09
5.7358893062e-09
4.23063606359e-10
3.36384311891e-08
1.96586570988e-08
6.5394992535e-08
1.40409889978e-09
1.12158887263e-08
1.22371775456e-08
2.46121447863e-09
2.1139905409e-08
2.01007782969e-08
3.71190681453e-08
4.12706823682e-08
3.13908115462e-08
3.63082713682e-08
9.22939788907e-08
4.37150792537e-07
1.43843182037e-07
3.00016182468e-07
1.65054758618e-07
1.48804329054e-07
1.46605231713e-07
3.95434043493e-07
5.63665749361e-08
1.01284239945e-08
3.23109451164e-07
1.00550411715e-07
9.02194000971e-08
3.77975569352e-08
4.06128505772e-07
4.10410606634e-08
4.42623647091e-07
8.35860474582e-08
1.28394804788e-05
1.47378621603e-05
7.2585400006e-06
5.8457064836e-07
2.9645196311e-08
5.46951593392e-07
2.99236388367e-07
6.93750695563e-08
9.13405286317e-07
1.97351977364e-06
6.83411494849e-07
1.43032023446e-07
2.03389893629e-07
3.37104550107e-08
6.51282599228e-08
4.37825600817e-07
9.19379483357e-07
3.85135503535e-06
1.5773413964e-06
2.62440234982e-06
2.9448253375e-07
7.55697129773e-07
2.83527452495e-07
4.88091060396e-06
1.23365473129e-06
2.3012439237e-07
4.66729009884e-07
1.86452628077e-06
2.84140935059e-06
1.04056637364e-06
6.3115369206e-07
7.1324843427e-07
2.61643195126e-06
8.05517332356e-07

