# vtk DataFile Version 3.0
File Name: Molecule/methanol/methanol_5.0-2.vtk
ASCII
DATASET UNSTRUCTURED_GRID
FIELD FieldData 1
TIME 1 1 double
0.0
POINTS 251 double
1.403 0.0 -0.933
1.543 -0.475 -0.352
1.341 -0.432 -0.927
1.345 -0.911 -0.332
1.16 -0.83 -0.909
1.032 -1.273 -0.301
0.876 -1.16 -0.88
0.631 -1.532 -0.261
0.51 -1.396 -0.844
0.173 -1.667 -0.216
0.093 -1.519 -0.802
-0.304 -1.667 -0.168
-0.341 -1.519 -0.759
-0.762 -1.532 -0.123
-0.758 -1.396 -0.718
-1.163 -1.273 -0.083
-1.124 -1.16 -0.681
-1.475 -0.911 -0.051
-1.408 -0.83 -0.653
-1.674 -0.475 -0.032
-1.589 -0.432 -0.635
-1.742 -0.0 -0.025
-1.651 -0.0 -0.629
-1.674 0.475 -0.032
-1.589 0.432 -0.635
-1.475 0.911 -0.051
-1.408 0.83 -0.653
-1.163 1.273 -0.083
-1.124 1.16 -0.681
-0.762 1.532 -0.123
-0.758 1.396 -0.718
-0.304 1.667 -0.168
-0.341 1.519 -0.759
0.173 1.667 -0.216
0.093 1.519 -0.802
0.631 1.532 -0.261
0.51 1.396 -0.844
1.032 1.273 -0.301
0.876 1.16 -0.88
1.345 0.911 -0.332
1.16 0.83 -0.909
1.543 0.475 -0.352
1.341 0.432 -0.927
1.907 0.0 0.656
1.852 0.452 0.656
1.852 0.226 1.047
1.852 -0.226 1.047
1.852 -0.452 0.656
1.852 -0.226 0.264
1.852 0.226 0.264
1.69 0.76 1.094
1.69 0.439 1.415
1.69 -0.0 1.533
1.69 -0.439 1.415
1.69 -0.76 1.094
1.69 -0.877 0.656
1.69 -0.76 0.217
1.69 -0.439 -0.104
1.69 0.439 -0.104
1.69 0.76 0.217
1.69 0.877 0.656
1.432 1.167 1.108
1.432 0.925 1.499
1.432 0.558 1.776
1.432 0.115 1.902
1.432 -0.343 1.859
1.432 -0.754 1.654
1.432 -1.064 1.315
1.432 -1.23 0.886
1.432 -1.23 0.426
1.432 -1.064 -0.003
1.432 1.167 0.203
1.432 1.252 0.656
1.091 1.484 1.113
1.091 1.283 1.531
1.091 0.969 1.87
1.091 0.568 2.102
1.091 0.116 2.205
1.091 -0.346 2.17
1.091 -0.777 2.001
1.091 -1.139 1.712
1.091 -1.4 1.33
1.091 -1.536 0.887
1.091 -1.536 0.424
1.091 -1.4 -0.018
1.091 1.484 0.198
1.091 1.553 0.656
0.688 1.705 1.112
0.688 1.528 1.538
0.688 1.248 1.904
0.688 0.882 2.184
0.688 0.457 2.36
0.688 0.0 2.42
0.688 -0.457 2.36
0.688 -0.882 2.184
0.688 -1.248 1.904
0.688 -1.528 1.538
0.688 -1.705 1.112
0.688 -1.765 0.656
0.688 -1.705 0.199
0.688 1.705 0.199
0.688 1.765 0.656
0.247 1.815 1.122
0.247 1.642 1.558
0.247 1.366 1.938
0.247 1.004 2.238
0.247 0.579 2.438
0.247 0.118 2.526
0.247 -0.351 2.496
0.247 -0.798 2.351
0.247 -1.194 2.099
0.247 -1.516 1.757
0.247 -1.742 1.345
0.247 -1.859 0.89
0.247 -1.859 0.421
0.247 1.815 0.19
0.247 1.874 0.656
-0.209 1.815 1.122
-0.209 1.642 1.558
-0.209 1.366 1.938
-0.209 1.004 2.238
-0.209 0.579 2.438
-0.209 0.118 2.526
-0.209 -0.351 2.496
-0.209 -0.798 2.351
-0.209 -1.194 2.099
-0.209 -1.516 1.757
-0.209 -1.742 1.345
-0.209 -1.859 0.89
-0.209 -1.859 0.421
-0.209 1.815 0.19
-0.209 1.874 0.656
-0.65 1.765 0.656
-0.65 1.705 1.112
-0.65 1.528 1.538
-0.65 1.248 1.904
-0.65 0.882 2.184
-0.65 0.457 2.36
-0.65 0.0 2.42
-0.65 -0.457 2.36
-0.65 -0.882 2.184
-0.65 -1.248 1.904
-0.65 -1.528 1.538
-0.65 -1.705 1.112
-0.65 -1.765 0.656
-0.65 -1.705 0.199
-0.65 1.705 0.199
-1.053 1.553 0.656
-1.053 1.484 1.113
-1.053 1.283 1.531
-1.053 0.969 1.87
-1.053 0.568 2.102
-1.053 0.116 2.205
-1.053 -0.346 2.17
-1.053 -0.777 2.001
-1.053 -1.139 1.712
-1.053 -1.4 1.33
-1.053 -1.536 0.887
-1.053 -1.536 0.424
-1.053 1.484 0.198
-1.394 1.252 0.656
-1.394 1.167 1.108
-1.394 0.925 1.499
-1.394 0.558 1.776
-1.394 0.115 1.902
-1.394 -0.343 1.859
-1.394 -0.754 1.654
-1.394 -1.064 1.315
-1.394 -1.23 0.886
-1.394 -1.23 0.426
-1.394 1.167 0.203
-1.652 0.877 0.656
-1.652 0.76 1.094
-1.652 0.439 1.415
-1.652 -0.0 1.533
-1.652 -0.439 1.415
-1.652 -0.76 1.094
-1.652 -0.877 0.656
-1.652 -0.76 0.217
-1.652 0.76 0.217
-1.814 0.452 0.656
-1.814 0.226 1.047
-1.814 -0.226 1.047
-1.814 -0.452 0.656
-1.814 -0.226 0.264
-1.814 0.226 0.264
-1.868 -0.0 0.656
1.611 0.0 -0.359
1.122 -0.781 -1.188
0.783 -1.147 -1.212
0.783 -0.878 -1.615
1.122 -0.451 -1.519
0.783 -0.475 -1.885
1.122 0.781 -1.188
0.783 0.878 -1.615
0.783 1.147 -1.212
0.355 -1.284 -1.432
0.355 -0.989 -1.811
0.355 -0.586 -2.074
0.355 -0.121 -2.192
0.783 0.0 -1.979
0.355 0.358 -2.152
0.783 0.475 -1.885
0.355 0.798 -1.959
0.355 1.152 -1.634
0.355 1.381 -1.211
-0.12 -1.383 -1.403
-0.12 -1.125 -1.781
-0.12 -0.767 -2.067
-0.12 -0.342 -2.234
-0.12 0.115 -2.268
-0.12 0.561 -2.166
-0.12 0.957 -1.937
-0.12 1.268 -1.602
-0.12 1.467 -1.19
-0.594 -1.44 -0.977
-0.594 -1.284 -1.432
-0.594 -0.989 -1.811
-0.594 -0.586 -2.074
-0.594 -0.121 -2.192
-0.594 0.358 -2.152
-0.594 0.798 -1.959
-0.594 1.152 -1.634
-0.594 1.381 -1.211
-1.022 -1.147 -1.212
-1.022 -0.878 -1.615
-1.022 -0.475 -1.885
-1.022 0.0 -1.979
-1.022 0.475 -1.885
-1.022 0.878 -1.615
-1.022 1.147 -1.212
-1.362 -0.781 -1.188
-1.362 -0.451 -1.519
-1.362 -0.0 -1.639
-1.362 0.451 -1.519
-1.362 0.781 -1.188
-1.58 -0.237 -1.148
-1.58 0.237 -1.148
1.122 0.451 -1.519
1.122 -0.0 -1.639
0.9525 -0.2375 -1.762
0.9525 0.0 -1.809
0.783 -0.2375 -1.932
0.9525 0.2375 -1.762
0.783 0.2375 -1.932
1.507 0.0 -0.646
1.476 0.216 -0.643
1.372 0.216 -0.93
0.9525 0.463 -1.702
0.9525 0.6645 -1.567
0.783 0.6765 -1.75

CELLS 498 1992
3 0 1 2
3 1 3 2
3 2 3 4
3 3 5 4
3 4 5 6
3 5 7 6
3 6 7 8
3 7 9 8
3 8 9 10
3 9 11 10
3 10 11 12
3 11 13 12
3 12 13 14
3 13 15 14
3 14 15 16
3 15 17 16
3 16 17 18
3 17 19 18
3 18 19 20
3 19 21 20
3 20 21 22
3 21 23 22
3 22 23 24
3 23 25 24
3 24 25 26
3 25 27 26
3 26 27 28
3 27 29 28
3 28 29 30
3 29 31 30
3 30 31 32
3 31 33 32
3 32 33 34
3 33 35 34
3 34 35 36
3 35 37 36
3 36 37 38
3 37 39 38
3 38 39 40
3 39 41 40
3 40 41 42
3 43 44 45
3 43 45 46
3 43 46 47
3 43 47 48
3 43 48 49
3 43 49 44
3 45 44 50
3 45 50 51
3 45 51 52
3 46 45 52
3 46 52 53
3 46 53 54
3 47 46 54
3 47 54 55
3 47 55 56
3 48 47 56
3 48 56 57
3 49 58 59
3 44 49 59
3 44 59 60
3 44 60 50
3 50 60 61
3 50 61 62
3 51 50 62
3 51 62 63
3 51 63 64
3 52 51 64
3 52 64 65
3 53 52 65
3 53 65 66
3 54 53 66
3 54 66 67
3 54 67 68
3 55 54 68
3 55 68 69
3 56 55 69
3 56 69 70
3 60 59 71
3 60 71 72
3 60 72 61
3 61 72 73
3 61 73 74
3 62 61 74
3 62 74 75
3 63 62 75
3 63 75 76
3 64 63 76
3 64 76 77
3 64 77 78
3 65 64 78
3 65 78 79
3 66 65 79
3 66 79 80
3 67 66 80
3 67 80 81
3 68 67 81
3 68 81 82
3 68 82 83
3 69 68 83
3 69 83 84
3 70 69 84
3 72 71 85
3 72 85 86
3 72 86 73
3 73 86 87
3 73 87 88
3 74 73 88
3 74 88 89
3 75 74 89
3 75 89 90
3 76 75 90
3 76 90 91
3 77 76 91
3 77 91 92
3 78 77 92
3 78 92 93
3 79 78 93
3 79 93 94
3 79 94 95
3 80 79 95
3 80 95 96
3 81 80 96
3 81 96 97
3 82 81 97
3 82 97 98
3 83 82 98
3 83 98 99
3 84 83 99
3 86 85 100
3 86 100 101
3 86 101 87
3 87 101 102
3 87 102 103
3 88 87 103
3 88 103 104
3 89 88 104
3 89 104 105
3 90 89 105
3 90 105 106
3 91 90 106
3 91 106 107
3 92 91 107
3 92 107 108
3 93 92 108
3 93 108 109
3 94 93 109
3 94 109 110
3 95 94 110
3 95 110 111
3 96 95 111
3 96 111 112
3 97 96 112
3 97 112 113
3 98 97 113
3 98 113 114
3 99 98 114
3 101 100 115
3 101 115 116
3 101 116 102
3 102 116 117
3 102 117 118
3 103 102 118
3 103 118 119
3 104 103 119
3 104 119 120
3 105 104 120
3 105 120 121
3 106 105 121
3 106 121 122
3 107 106 122
3 107 122 123
3 108 107 123
3 108 123 124
3 109 108 124
3 109 124 125
3 110 109 125
3 110 125 126
3 111 110 126
3 111 126 127
3 112 111 127
3 112 127 128
3 113 112 128
3 113 128 129
3 114 113 129
3 116 115 130
3 116 130 131
3 116 131 117
3 117 131 132
3 117 132 133
3 118 117 133
3 118 133 134
3 119 118 134
3 119 134 135
3 120 119 135
3 120 135 136
3 121 120 136
3 121 136 137
3 122 121 137
3 122 137 138
3 123 122 138
3 123 138 139
3 124 123 139
3 124 139 140
3 125 124 140
3 125 140 141
3 126 125 141
3 126 141 142
3 127 126 142
3 127 142 143
3 128 127 143
3 128 143 144
3 129 128 144
3 129 144 145
3 132 130 146
3 131 130 132
3 133 132 147
3 133 147 148
3 134 133 148
3 134 148 149
3 135 134 149
3 135 149 150
3 136 135 150
3 136 150 151
3 137 136 151
3 137 151 152
3 138 137 152
3 138 152 153
3 139 138 153
3 139 153 154
3 140 139 154
3 141 140 154
3 141 154 155
3 142 141 155
3 142 155 156
3 143 142 156
3 143 156 157
3 144 143 157
3 144 157 158
3 145 144 158
3 147 146 159
3 132 146 147
3 148 147 160
3 148 160 161
3 149 148 161
3 149 161 162
3 150 149 162
3 150 162 163
3 151 150 163
3 151 163 164
3 152 151 164
3 153 152 164
3 153 164 165
3 154 153 165
3 154 165 166
3 155 154 166
3 155 166 167
3 156 155 167
3 156 167 168
3 157 156 168
3 157 168 169
3 158 157 169
3 160 159 170
3 147 159 160
3 161 160 171
3 161 171 172
3 162 161 172
3 162 172 173
3 163 162 173
3 164 163 173
3 164 173 174
3 165 164 174
3 165 174 175
3 166 165 175
3 166 175 176
3 167 166 176
3 168 167 176
3 168 176 177
3 169 168 177
3 169 177 178
3 171 170 179
3 160 170 171
3 172 171 180
3 172 180 181
3 173 172 181
3 174 173 181
3 174 181 182
3 175 174 182
3 176 175 182
3 176 182 183
3 177 176 183
3 178 177 183
3 178 183 184
3 180 179 185
3 171 179 180
3 181 180 186
3 182 181 186
3 183 182 186
3 184 183 186
3 185 184 186
3 180 185 186
3 185 179 23
3 185 23 21
3 185 21 184
3 184 21 19
3 184 19 178
3 178 19 17
3 178 17 169
3 169 17 15
3 169 15 158
3 158 15 13
3 158 13 145
3 145 13 11
3 145 11 129
3 129 11 9
3 129 9 114
3 114 9 99
3 99 9 7
3 99 7 84
3 84 7 5
3 84 5 70
3 70 5 3
3 70 3 57
3 70 57 56
3 57 3 1
3 57 1 187
3 57 187 48
3 48 187 49
3 49 187 58
3 58 187 41
3 58 41 39
3 58 39 59
3 59 39 71
3 71 39 37
3 71 37 85
3 85 37 35
3 85 35 100
3 100 35 115
3 115 35 33
3 115 33 130
3 130 33 31
3 130 31 146
3 146 31 29
3 146 29 159
3 159 29 27
3 159 27 170
3 170 27 25
3 170 25 179
3 179 25 23
3 188 189 190
3 191 188 190
3 191 190 192
3 193 194 195
3 190 189 196
3 190 196 197
3 192 190 197
3 192 197 198
3 192 198 199
3 200 199 201
3 202 201 203
3 194 203 204
3 195 194 204
3 195 204 205
3 196 206 207
3 197 196 207
3 197 207 208
3 198 197 208
3 198 208 209
3 199 198 209
3 199 209 210
3 201 199 210
3 201 210 211
3 203 201 211
3 203 211 212
3 204 203 212
3 204 212 213
3 205 204 213
3 205 213 214
3 206 215 216
3 207 206 216
3 207 216 217
3 208 207 217
3 208 217 218
3 209 208 218
3 209 218 219
3 210 209 219
3 210 219 220
3 211 210 220
3 211 220 221
3 212 211 221
3 212 221 222
3 213 212 222
3 213 222 223
3 214 213 223
3 216 215 224
3 216 224 225
3 217 216 225
3 217 225 226
3 218 217 226
3 219 218 226
3 219 226 227
3 220 219 227
3 220 227 228
3 221 220 228
3 221 228 229
3 222 221 229
3 222 229 230
3 223 222 230
3 225 224 231
3 225 231 232
3 226 225 232
3 226 232 233
3 227 226 233
3 228 227 233
3 228 233 234
3 229 228 234
3 229 234 235
3 230 229 235
3 232 231 236
3 233 232 236
3 233 236 237
3 234 233 237
3 235 234 237
3 235 237 24
3 235 24 26
3 235 26 28
3 235 28 230
3 230 28 30
3 230 30 223
3 223 30 32
3 223 32 214
3 214 32 34
3 214 34 205
3 205 34 36
3 205 36 195
3 195 36 38
3 195 38 193
3 193 38 40
3 193 40 42
3 193 42 238
3 238 0 239
3 239 0 191
3 191 0 2
3 191 2 188
3 188 2 4
3 188 4 6
3 188 6 189
3 189 6 8
3 189 8 196
3 196 8 10
3 196 10 206
3 206 10 12
3 206 12 215
3 215 12 14
3 215 14 224
3 224 14 16
3 224 16 231
3 231 16 18
3 231 18 20
3 231 20 236
3 236 20 22
3 236 22 237
3 237 22 24
3 192 240 191
3 191 240 239
3 239 240 241
3 240 242 241
3 240 192 242
3 241 242 200
3 239 241 243
3 241 244 243
3 241 200 244
3 243 244 202
3 239 243 238
3 200 242 199
3 242 192 199
3 202 244 201
3 244 200 201
3 0 245 1
3 1 245 187
3 187 246 41
3 41 246 42
3 42 246 247
3 246 245 247
3 246 187 245
3 247 245 0
3 238 248 249
3 248 250 249
3 248 202 250
3 249 250 194
3 238 249 193
3 193 249 194
3 194 250 203
3 250 202 203
3 42 247 238
3 238 247 0
3 202 248 243
3 243 248 238

CELL_TYPES 498
5
5
5
5
5
5
5
5
5
5
5
5
5
5
5
5
5
5
5
5
5
5
5
5
5
5
5
5
5
5
5
5
5
5
5
5
5
5
5
5
5
5
5
5
5
5
5
5
5
5
5
5
5
5
5
5
5
5
5
5
5
5
5
5
5
5
5
5
5
5
5
5
5
5
5
5
5
5
5
5
5
5
5
5
5
5
5
5
5
5
5
5
5
5
5
5
5
5
5
5
5
5
5
5
5
5
5
5
5
5
5
5
5
5
5
5
5
5
5
5
5
5
5
5
5
5
5
5
5
5
5
5
5
5
5
5
5
5
5
5
5
5
5
5
5
5
5
5
5
5
5
5
5
5
5
5
5
5
5
5
5
5
5
5
5
5
5
5
5
5
5
5
5
5
5
5
5
5
5
5
5
5
5
5
5
5
5
5
5
5
5
5
5
5
5
5
5
5
5
5
5
5
5
5
5
5
5
5
5
5
5
5
5
5
5
5
5
5
5
5
5
5
5
5
5
5
5
5
5
5
5
5
5
5
5
5
5
5
5
5
5
5
5
5
5
5
5
5
5
5
5
5
5
5
5
5
5
5
5
5
5
5
5
5
5
5
5
5
5
5
5
5
5
5
5
5
5
5
5
5
5
5
5
5
5
5
5
5
5
5
5
5
5
5
5
5
5
5
5
5
5
5
5
5
5
5
5
5
5
5
5
5
5
5
5
5
5
5
5
5
5
5
5
5
5
5
5
5
5
5
5
5
5
5
5
5
5
5
5
5
5
5
5
5
5
5
5
5
5
5
5
5
5
5
5
5
5
5
5
5
5
5
5
5
5
5
5
5
5
5
5
5
5
5
5
5
5
5
5
5
5
5
5
5
5
5
5
5
5
5
5
5
5
5
5
5
5
5
5
5
5
5
5
5
5
5
5
5
5
5
5
5
5
5
5
5
5
5
5
5
5
5
5
5
5
5
5
5
5
5
5
5
5
5
5
5
5
5
5
5
5
5
5
5
5
5
5
5
5
5
5
5
5
5
5
5
5
5
5
5
5
5
5
5
5
5
5
5
5
5
5
5
5
5
5
5
5
5
5
5
5
5
5
5
5
5
5
5
5
5
5
5
5
5
5
5
5
5

CELL_DATA 498
SCALARS cell_data_0 double
LOOKUP_TABLE default
1.85823265185e-06
4.65452097909e-07
5.45371931718e-07
9.84094217776e-08
1.86483771741e-07
1.93212655767e-08
9.55193554337e-10
3.12363841447e-08
6.21848195861e-08
1.79529435512e-08
8.17632267294e-08
3.7837928416e-09
9.53131831265e-08
1.8416458807e-08
1.01225766334e-07
2.56468374445e-08
9.38511962082e-08
3.30015791212e-08
1.00176328252e-07
4.12918980266e-08
9.34065798359e-08
4.95338462293e-08
9.62199024819e-08
5.53309168126e-08
7.7922702704e-08
6.27221915175e-08
7.48880477372e-08
7.26121464106e-08
5.83581936282e-08
8.05703714427e-08
3.98636425308e-08
8.71674365736e-08
1.08243527341e-08
9.27343465611e-08
3.41659790144e-08
7.89996956137e-08
7.74898401013e-08
2.36613006173e-08
3.37122469668e-08
4.6216774041e-08
6.18796664892e-07
2.36150542516e-09
1.27656291606e-09
2.79810052123e-09
3.45089159759e-10
8.25210443332e-09
1.6336717905e-10
7.97286745352e-10
8.28552171683e-11
2.60709980794e-10
1.58034037412e-09
1.12607623333e-10
1.52584879091e-10
8.71071030905e-11
1.64065895367e-09
1.87052377024e-09
8.72818915551e-09
5.08093236569e-10
1.96265175414e-09
2.91156386683e-09
1.52191500896e-09
7.62899957266e-10
3.34623311622e-10
3.84700135328e-10
1.48526166672e-11
1.96111401382e-10
3.00074839203e-10
1.39058763398e-10
6.30678018178e-10
1.09766487194e-10
2.62129116622e-10
4.33207883293e-10
4.62800461132e-10
3.48753455567e-10
6.97573533822e-10
5.04653257641e-10
2.89979408672e-09
2.68095216035e-10
8.76704303727e-10
5.1143738189e-10
5.32724883982e-10
9.89011651441e-11
2.89613486692e-11
2.12338395375e-10
1.72281296366e-10
2.25666735037e-10
8.42987191642e-11
1.41752967556e-11
1.56412754467e-10
3.10249001764e-11
5.0408051393e-10
4.33625678842e-10
2.18504503362e-10
1.9099588635e-10
1.03711296232e-10
1.08123288735e-10
3.33395540583e-10
1.95846651429e-10
4.37272200446e-10
2.85240841528e-09
2.44904241314e-09
1.08407844405e-09
6.98365000949e-10
1.15970386941e-09
7.39455901111e-10
4.55256062898e-11
7.84324916287e-11
4.39852075667e-12
5.54917007375e-11
1.39196194322e-10
1.2912705127e-10
3.37574190396e-11
3.32262127157e-10
8.9433365265e-11
9.06132882411e-11
5.0352236506e-11
3.34563986974e-10
1.31865007483e-10
2.31020184693e-10
3.81402777956e-11
2.72482436962e-10
1.80251484577e-10
3.37133439821e-10
8.78532527674e-11
2.91483989983e-10
3.2172074815e-10
1.6654664746e-09
6.3660476723e-10
1.40452475548e-09
9.78739005288e-10
5.93808030023e-10
1.16787294764e-09
2.22196880221e-10
2.0834266786e-10
8.20364685577e-12
1.05928443922e-10
1.72787060958e-10
1.28635128395e-12
1.91587541465e-10
2.56180822084e-10
1.24050555813e-10
1.994823848e-10
1.13356698226e-10
4.53705488165e-10
7.84623412377e-11
3.01029076624e-10
3.20853620581e-11
2.31180605692e-10
9.94112690337e-11
5.28570107082e-11
1.21621039118e-10
1.41702935183e-10
7.41206416565e-11
7.36514265677e-10
9.96285474639e-10
8.65124206603e-10
6.02742968043e-10
3.54953939942e-09
3.55595581984e-10
1.39245255325e-09
1.12100824529e-10
5.80504374371e-10
1.12705781121e-10
1.03122299165e-10
5.38780756463e-11
3.43664271707e-11
3.79900339669e-11
3.7128684435e-11
2.62591364923e-10
6.37896170443e-11
1.33143836582e-10
1.16516517824e-12
2.38134413286e-10
1.50897559349e-10
1.98769970523e-10
9.01538547546e-11
1.88357646397e-10
4.55781073499e-11
4.63944581507e-10
6.37107010054e-11
6.74262232361e-10
5.0102674521e-11
2.13163154644e-09
1.45327055965e-11
2.59643187525e-09
5.67384072953e-09
3.90781064983e-10
1.79633171825e-09
3.36496405063e-09
3.50139852126e-10
1.34492000979e-09
1.72220998856e-10
6.11906305071e-10
1.03598596015e-10
3.9591902681e-10
1.26267745462e-10
1.53508672598e-10
3.58915666918e-11
2.79689504898e-10
2.37771808463e-10
1.57346206024e-10
1.20795071832e-10
1.53179443227e-10
1.22780589217e-10
4.67849880727e-11
2.02125034902e-10
9.241438953e-11
1.28608173588e-10
1.94128592235e-10
2.8094061071e-10
5.06840330481e-11
2.17047520383e-09
1.55876623284e-09
2.45656799002e-09
3.80469204314e-09
3.08345088611e-10
3.82795062313e-09
6.09817763586e-10
1.19765287785e-09
1.91332107027e-10
6.5145835142e-10
6.33370975315e-12
3.40980563336e-10
1.65996236226e-10
2.59267470599e-10
2.27880015174e-10
2.67017360668e-11
2.87515651149e-10
1.6534515265e-11
3.30811936831e-10
2.96332322513e-10
1.29641266452e-10
5.56168902983e-11
1.776124892e-10
3.13469732688e-10
6.6095053023e-11
1.33693014946e-09
2.90803882452e-10
2.39699727625e-09
1.80119774795e-09
5.84658079571e-09
4.66295105428e-11
4.24019011114e-09
7.96511227763e-10
1.34035331508e-09
5.44358708346e-11
5.79914223742e-10
1.81822851956e-10
3.17114581009e-10
4.30088505622e-10
5.3124755088e-11
1.5323221203e-10
3.70522450861e-10
1.92656794057e-10
3.69370617013e-10
3.40933822396e-10
1.81445454509e-12
8.02978160014e-10
2.31209943474e-10
1.90167080073e-09
1.34659413722e-09
4.45641324991e-09
8.28851389854e-09
7.64859067139e-10
4.36159950003e-09
8.84035625778e-10
1.27555637185e-09
3.94347540348e-11
4.70262190099e-10
2.13056661462e-11
1.09977740759e-09
4.12731128645e-10
8.03401750692e-10
6.60493604969e-10
9.59695249018e-10
1.80311385536e-09
4.60104205804e-10
2.86483771804e-09
1.29779617387e-10
7.62466131307e-09
1.0712263364e-08
1.97627872613e-09
4.09128221758e-09
7.54377305317e-10
1.07945402885e-09
2.79417555823e-10
3.13211801896e-09
1.52705720438e-09
1.26801657571e-09
5.39952159511e-10
2.00409878633e-09
1.06290213191e-08
5.28174570033e-09
1.19922763762e-08
2.96317380347e-09
3.3203446842e-09
1.57383181751e-09
1.79988604442e-09
8.31421652591e-09
3.67801390691e-09
1.95225099687e-09
4.47997974112e-09
2.81561313198e-08
2.79715812564e-09
2.83265396814e-08
4.86499940387e-09
2.20507811583e-08
2.69727058526e-08
5.9518964603e-08
2.1855528444e-08
6.0643009094e-08
1.12477506236e-09
1.98670974306e-08
3.40010938534e-08
4.44235676696e-08
2.8538042745e-08
2.58633018883e-08
2.65113996626e-08
1.85274202183e-08
6.08691965621e-09
1.16193660132e-08
8.0617771341e-09
5.18656710862e-09
9.13700925265e-09
1.04989480598e-08
5.38993283182e-08
5.02261219548e-10
6.88270325148e-09
2.11383827934e-08
8.48183544698e-09
2.59235249765e-09
4.87748567937e-09
5.88242012099e-09
1.1062623942e-08
3.85548129137e-09
7.86993693196e-09
3.80454231248e-09
7.45901801784e-09
8.57725415554e-09
6.13616804544e-09
1.81031298801e-08
3.62473940201e-09
2.31374225378e-08
2.63720142731e-09
2.35159428682e-08
8.89841912051e-10
2.35411996722e-08
6.54822348985e-10
2.36897017729e-08
2.88849262104e-07
1.27334738811e-06
1.54445860863e-06
1.76083228473e-07
4.828639973e-09
1.05888246094e-07
1.64290492585e-07
3.46741892317e-07
2.75249287612e-07
4.44046680188e-07
3.4990994339e-07
1.77161471683e-07
1.84153123018e-07
5.74069617698e-08
2.9463532997e-08
8.64264826038e-09
4.95556359416e-08
6.42002995162e-09
7.69133749254e-08
2.83546741123e-08
9.11927038959e-08
6.20261798639e-08
7.7930240338e-08
6.7892732097e-08
5.03034220177e-08
5.0392374256e-08
2.93049837557e-08
3.17078287254e-08
1.40280854263e-08
1.3810056706e-08
7.58370584099e-09
1.19831341488e-08
3.38273484895e-09
1.71837655423e-08
1.24325277333e-10
2.21365658115e-08
9.6807511941e-09
2.51582744787e-08
1.59675593217e-08
2.0839181439e-08
1.61303037812e-08
1.48731814369e-08
1.10642205676e-08
8.5990712787e-09
5.2863361845e-09
4.40140996194e-09
3.31081584418e-09
5.63554012896e-09
1.29561687816e-10
8.41809448238e-10
2.10462255451e-09
5.46227298766e-09
2.98694128021e-10
4.07740870908e-09
1.88223684774e-09
3.06835542961e-09
2.29167900606e-09
2.03183285479e-09
2.80271378141e-09
1.55516637565e-08
3.33582062779e-09
9.24036908892e-09
3.41042206476e-09
6.0961551444e-09
1.77734419109e-10
3.63755363627e-09
5.03161314556e-09
2.9120471661e-09
1.46684023428e-08
1.97038338446e-08
6.4891223096e-09
5.29862099334e-09
8.84040366376e-09
1.93191624218e-08
9.49089179053e-09
2.41680413118e-08
2.80874469357e-08
8.6725094503e-09
3.64368593865e-08
5.94959396009e-09
2.82143475279e-08
2.95907175173e-09
2.08302675581e-08
6.13415142507e-09
1.67945080289e-08
3.20671755625e-08
9.36310885149e-09
1.64457969676e-07
1.03528955831e-08
2.28324805983e-07
7.03311475164e-07
9.56206075728e-07
2.33627847958e-08
1.00045827997e-06
5.35040157709e-07
2.63967496541e-07
2.864940022e-08
3.21125985347e-07
2.07164484822e-10
1.01921619956e-07
1.64695682117e-08
6.23545895633e-08
2.59153915794e-08
1.95037465935e-09
8.25629953784e-09
6.45423994774e-09
3.53153087537e-08
1.58922699267e-08
2.69739416214e-08
2.45325614411e-08
9.02193817471e-09
3.01776155007e-08
1.74246992704e-08
3.0437003099e-08
2.95175102712e-07
8.14548886968e-08
2.45536211864e-07
1.5908976243e-07
5.75995646336e-08
7.20948289303e-08
2.4304591018e-07
1.2516781032e-07
6.93549045341e-08
4.93737181696e-08
8.11462493103e-07
2.21012534732e-07
1.88506422999e-08
2.32413386424e-07
1.00697532378e-07
1.63436776299e-06
4.9158702844e-08
6.26476315515e-08
2.74187682918e-07
1.7854298564e-07
2.42498119662e-07
3.09852426175e-08
2.06280139825e-07
1.61939219236e-07
1.66130438027e-08
5.74246612423e-08
2.25484889882e-08
4.95565125204e-07
9.1573627615e-08
1.23347407816e-07
1.38851930047e-07
1.2995732857e-07
5.04680928038e-08
1.45756130227e-08
1.06372967542e-07

