# vtk DataFile Version 3.0
File Name: Molecule/methanol/methanol_12.5-2.vtk
ASCII
DATASET UNSTRUCTURED_GRID
FIELD FieldData 1
TIME 1 1 double
0.0
POINTS 631 double
1.611 0.0 -0.359
1.582 -0.31 -0.356
1.475 0.0 -0.634
1.448 -0.29 -0.632
1.403 0.0 -0.933
1.377 -0.282 -0.93
1.498 -0.608 -0.348
1.369 -0.57 -0.624
1.3 -0.554 -0.923
1.36 -0.887 -0.334
1.24 -0.83 -0.611
1.174 -0.808 -0.91
1.173 -1.135 -0.315
1.066 -1.062 -0.594
1.004 -1.034 -0.893
0.945 -1.344 -0.292
0.852 -1.258 -0.572
0.796 -1.224 -0.872
0.682 -1.508 -0.266
0.605 -1.411 -0.548
0.557 -1.374 -0.849
0.393 -1.62 -0.238
0.335 -1.517 -0.521
0.294 -1.476 -0.822
0.089 -1.677 -0.207
0.051 -1.57 -0.493
0.017 -1.528 -0.795
-0.22 -1.677 -0.176
-0.239 -1.57 -0.464
-0.265 -1.528 -0.767
-0.524 -1.62 -0.146
-0.523 -1.517 -0.435
-0.542 -1.476 -0.739
-0.813 -1.508 -0.117
-0.793 -1.411 -0.408
-0.805 -1.374 -0.713
-1.075 -1.344 -0.091
-1.039 -1.258 -0.384
-1.044 -1.224 -0.689
-1.304 -1.135 -0.069
-1.253 -1.062 -0.363
-1.252 -1.034 -0.668
-1.49 -0.887 -0.05
-1.428 -0.83 -0.345
-1.422 -0.808 -0.651
-1.628 -0.608 -0.036
-1.557 -0.57 -0.332
-1.548 -0.554 -0.639
-1.713 -0.31 -0.028
-1.636 -0.29 -0.324
-1.625 -0.282 -0.631
-1.742 0.0 -0.025
-1.663 0.0 -0.322
-1.651 0.0 -0.629
-1.713 0.31 -0.028
-1.636 0.29 -0.324
-1.625 0.282 -0.631
-1.628 0.608 -0.036
-1.557 0.57 -0.332
-1.548 0.554 -0.639
-1.49 0.887 -0.05
-1.428 0.83 -0.345
-1.422 0.808 -0.651
-1.304 1.135 -0.069
-1.253 1.062 -0.363
-1.252 1.034 -0.668
-1.075 1.344 -0.091
-1.039 1.258 -0.384
-1.044 1.224 -0.689
-0.813 1.508 -0.117
-0.793 1.411 -0.408
-0.805 1.374 -0.713
-0.524 1.62 -0.146
-0.523 1.517 -0.435
-0.542 1.476 -0.739
-0.22 1.677 -0.176
-0.239 1.57 -0.464
-0.265 1.528 -0.767
0.089 1.677 -0.207
0.051 1.57 -0.493
0.017 1.528 -0.795
0.393 1.62 -0.238
0.335 1.517 -0.521
0.294 1.476 -0.822
0.682 1.508 -0.266
0.605 1.411 -0.548
0.557 1.374 -0.849
0.945 1.344 -0.292
0.852 1.258 -0.572
0.796 1.224 -0.872
1.173 1.135 -0.315
1.066 1.062 -0.594
1.004 1.034 -0.893
1.36 0.887 -0.334
1.24 0.83 -0.611
1.174 0.808 -0.91
1.498 0.608 -0.348
1.369 0.57 -0.624
1.3 0.554 -0.923
1.582 0.31 -0.356
1.448 0.29 -0.632
1.377 0.282 -0.93
1.907 0.0 0.656
1.883 0.295 0.656
1.883 0.148 0.911
1.883 -0.148 0.911
1.883 -0.295 0.656
1.883 -0.148 0.4
1.883 0.148 0.4
1.814 0.505 0.947
1.814 0.292 1.161
1.814 -0.0 1.239
1.814 -0.292 1.161
1.814 -0.505 0.947
1.814 -0.583 0.656
1.814 -0.505 0.364
1.814 -0.292 0.15
1.814 -0.0 0.072
1.814 0.292 0.15
1.814 0.505 0.364
1.814 0.583 0.656
1.701 0.805 0.949
1.701 0.656 1.206
1.701 0.428 1.398
1.701 0.149 1.499
1.701 -0.149 1.499
1.701 -0.428 1.398
1.701 -0.656 1.206
1.701 -0.805 0.949
1.701 -0.857 0.656
1.701 -0.805 0.363
1.701 -0.656 0.105
1.701 -0.428 -0.087
1.701 -0.149 -0.188
1.701 0.149 -0.188
1.701 0.428 -0.087
1.701 0.656 0.105
1.701 0.805 0.363
1.701 0.857 0.656
1.546 1.072 0.943
1.546 0.961 1.21
1.546 0.784 1.44
1.546 0.555 1.616
1.546 0.287 1.727
1.546 0.0 1.765
1.546 -0.287 1.727
1.546 -0.555 1.616
1.546 -0.784 1.44
1.546 -0.961 1.21
1.546 -1.072 0.943
1.546 -1.109 0.656
1.546 -1.072 0.368
1.546 -0.961 0.101
1.546 -0.784 -0.129
1.546 0.784 -0.129
1.546 0.961 0.101
1.546 1.072 0.368
1.546 1.109 0.656
1.354 1.301 0.953
1.354 1.202 1.235
1.354 1.043 1.488
1.354 0.832 1.699
1.354 0.579 1.858
1.354 0.297 1.957
1.354 0.0 1.99
1.354 -0.297 1.957
1.354 -0.579 1.858
1.354 -0.832 1.699
1.354 -1.043 1.488
1.354 -1.202 1.235
1.354 -1.301 0.953
1.354 -1.335 0.656
1.354 -1.301 0.359
1.354 -1.202 0.077
1.354 -1.043 -0.177
1.354 1.043 -0.177
1.354 1.202 0.077
1.354 1.301 0.359
1.354 1.335 0.656
1.128 1.499 0.945
1.128 1.418 1.223
1.128 1.285 1.481
1.128 1.105 1.709
1.128 0.886 1.899
1.128 0.634 2.045
1.128 0.36 2.14
1.128 0.073 2.181
1.128 -0.217 2.167
1.128 -0.499 2.099
1.128 -0.764 1.978
1.128 -1.0 1.81
1.128 -1.2 1.6
1.128 -1.357 1.355
1.128 -1.465 1.086
1.128 -1.52 0.801
1.128 -1.52 0.51
1.128 -1.465 0.225
1.128 -1.357 -0.044
1.128 1.285 -0.17
1.128 1.418 0.088
1.128 1.499 0.367
1.128 1.527 0.656
0.876 1.656 0.948
0.876 1.58 1.231
0.876 1.456 1.496
0.876 1.288 1.737
0.876 1.081 1.944
0.876 0.841 2.112
0.876 0.575 2.236
0.876 0.292 2.312
0.876 0.0 2.337
0.876 -0.292 2.312
0.876 -0.575 2.236
0.876 -0.841 2.112
0.876 -1.081 1.944
0.876 -1.288 1.737
0.876 -1.456 1.496
0.876 -1.58 1.231
0.876 -1.656 0.948
0.876 -1.682 0.656
0.876 -1.656 0.364
0.876 -1.58 0.08
0.876 1.58 0.08
0.876 1.656 0.364
0.876 1.682 0.656
0.602 1.771 0.951
0.602 1.698 1.238
0.602 1.579 1.51
0.602 1.417 1.758
0.602 1.216 1.976
0.602 0.982 2.158
0.602 0.721 2.3
0.602 0.441 2.396
0.602 0.148 2.445
0.602 -0.148 2.445
0.602 -0.441 2.396
0.602 -0.721 2.3
0.602 -0.982 2.158
0.602 -1.216 1.976
0.602 -1.417 1.758
0.602 -1.579 1.51
0.602 -1.698 1.238
0.602 -1.771 0.951
0.602 -1.795 0.656
0.602 -1.771 0.36
0.602 -1.698 0.073
0.602 1.698 0.073
0.602 1.771 0.36
0.602 1.795 0.656
0.314 1.841 0.947
0.314 1.773 1.232
0.314 1.661 1.502
0.314 1.508 1.751
0.314 1.318 1.974
0.314 1.096 2.164
0.314 0.846 2.317
0.314 0.576 2.429
0.314 0.292 2.497
0.314 -0.0 2.52
0.314 -0.292 2.497
0.314 -0.576 2.429
0.314 -0.846 2.317
0.314 -1.096 2.164
0.314 -1.318 1.974
0.314 -1.508 1.751
0.314 -1.661 1.502
0.314 -1.773 1.232
0.314 -1.841 0.947
0.314 -1.864 0.656
0.314 -1.841 0.364
0.314 -1.773 0.08
0.314 1.773 0.08
0.314 1.841 0.364
0.314 1.864 0.656
0.019 1.865 0.944
0.019 1.8 1.225
0.019 1.692 1.493
0.019 1.544 1.742
0.019 1.36 1.964
0.019 1.144 2.157
0.019 0.902 2.314
0.019 0.638 2.432
0.019 0.359 2.509
0.019 0.072 2.542
0.019 -0.216 2.531
0.019 -0.5 2.476
0.019 -0.772 2.378
0.019 -1.026 2.24
0.019 -1.256 2.065
0.019 -1.456 1.857
0.019 -1.622 1.62
0.019 -1.751 1.361
0.019 -1.838 1.086
0.019 -1.882 0.8
0.019 -1.882 0.511
0.019 -1.838 0.226
0.019 -1.751 -0.05
0.019 1.8 0.086
0.019 1.865 0.367
0.019 1.888 0.656
-0.276 1.864 0.656
-0.276 1.841 0.947
-0.276 1.773 1.232
-0.276 1.661 1.502
-0.276 1.508 1.751
-0.276 1.318 1.974
-0.276 1.096 2.164
-0.276 0.846 2.317
-0.276 0.576 2.429
-0.276 0.292 2.497
-0.276 -0.0 2.52
-0.276 -0.292 2.497
-0.276 -0.576 2.429
-0.276 -0.846 2.317
-0.276 -1.096 2.164
-0.276 -1.318 1.974
-0.276 -1.508 1.751
-0.276 -1.661 1.502
-0.276 -1.773 1.232
-0.276 -1.841 0.947
-0.276 -1.864 0.656
-0.276 -1.841 0.364
-0.276 -1.773 0.08
-0.276 1.773 0.08
-0.276 1.841 0.364
-0.564 1.795 0.656
-0.564 1.771 0.951
-0.564 1.698 1.238
-0.564 1.579 1.51
-0.564 1.417 1.758
-0.564 1.216 1.976
-0.564 0.982 2.158
-0.564 0.721 2.3
-0.564 0.441 2.396
-0.564 0.148 2.445
-0.564 -0.148 2.445
-0.564 -0.441 2.396
-0.564 -0.721 2.3
-0.564 -0.982 2.158
-0.564 -1.216 1.976
-0.564 -1.417 1.758
-0.564 -1.579 1.51
-0.564 -1.698 1.238
-0.564 -1.771 0.951
-0.564 -1.795 0.656
-0.564 -1.771 0.36
-0.564 -1.698 0.073
-0.564 1.698 0.073
-0.564 1.771 0.36
-0.838 1.682 0.656
-0.838 1.656 0.948
-0.838 1.58 1.231
-0.838 1.456 1.496
-0.838 1.288 1.737
-0.838 1.081 1.944
-0.838 0.841 2.112
-0.838 0.575 2.236
-0.838 0.292 2.312
-0.838 0.0 2.337
-0.838 -0.292 2.312
-0.838 -0.575 2.236
-0.838 -0.841 2.112
-0.838 -1.081 1.944
-0.838 -1.288 1.737
-0.838 -1.456 1.496
-0.838 -1.58 1.231
-0.838 -1.656 0.948
-0.838 -1.682 0.656
-0.838 -1.656 0.364
-0.838 -1.58 0.08
-0.838 1.58 0.08
-0.838 1.656 0.364
-1.09 1.527 0.656
-1.09 1.499 0.945
-1.09 1.418 1.223
-1.09 1.285 1.481
-1.09 1.105 1.709
-1.09 0.886 1.899
-1.09 0.634 2.045
-1.09 0.36 2.14
-1.09 0.073 2.181
-1.09 -0.217 2.167
-1.09 -0.499 2.099
-1.09 -0.764 1.978
-1.09 -1.0 1.81
-1.09 -1.2 1.6
-1.09 -1.357 1.355
-1.09 -1.465 1.086
-1.09 -1.52 0.801
-1.09 -1.52 0.51
-1.09 -1.465 0.225
-1.09 1.418 0.088
-1.09 1.499 0.367
-1.316 1.335 0.656
-1.316 1.301 0.953
-1.316 1.202 1.235
-1.316 1.043 1.488
-1.316 0.832 1.699
-1.316 0.579 1.858
-1.316 0.297 1.957
-1.316 0.0 1.99
-1.316 -0.297 1.957
-1.316 -0.579 1.858
-1.316 -0.832 1.699
-1.316 -1.043 1.488
-1.316 -1.202 1.235
-1.316 -1.301 0.953
-1.316 -1.335 0.656
-1.316 -1.301 0.359
-1.316 -1.202 0.077
-1.316 1.202 0.077
-1.316 1.301 0.359
-1.508 1.109 0.656
-1.508 1.072 0.943
-1.508 0.961 1.21
-1.508 0.784 1.44
-1.508 0.555 1.616
-1.508 0.287 1.727
-1.508 0.0 1.765
-1.508 -0.287 1.727
-1.508 -0.555 1.616
-1.508 -0.784 1.44
-1.508 -0.961 1.21
-1.508 -1.072 0.943
-1.508 -1.109 0.656
-1.508 -1.072 0.368
-1.508 -0.961 0.101
-1.508 0.961 0.101
-1.508 1.072 0.368
-1.663 0.857 0.656
-1.663 0.805 0.949
-1.663 0.656 1.206
-1.663 0.428 1.398
-1.663 0.149 1.499
-1.663 -0.149 1.499
-1.663 -0.428 1.398
-1.663 -0.656 1.206
-1.663 -0.805 0.949
-1.663 -0.857 0.656
-1.663 -0.805 0.363
-1.663 0.805 0.363
-1.776 0.583 0.656
-1.776 0.505 0.947
-1.776 0.292 1.161
-1.776 -0.0 1.239
-1.776 -0.292 1.161
-1.776 -0.505 0.947
-1.776 -0.583 0.656
-1.776 -0.505 0.364
-1.776 0.505 0.364
-1.845 0.295 0.656
-1.845 0.148 0.911
-1.845 -0.148 0.911
-1.845 -0.295 0.656
-1.845 -0.148 0.4
-1.776 -0.292 0.15
-1.776 0.292 0.15
-1.845 0.148 0.4
-1.868 -0.0 0.656
1.312 -0.277 -1.217
1.185 -0.487 -1.382
1.185 -0.221 -1.514
1.312 -0.0 -1.292
1.185 0.075 -1.542
1.185 -0.687 -1.163
1.015 -0.87 -1.296
1.015 -0.677 -1.519
1.015 -0.43 -1.678
1.015 -0.147 -1.761
0.805 -1.151 -1.156
0.805 -1.023 -1.41
0.805 -0.841 -1.628
0.805 -0.612 -1.798
0.805 -0.351 -1.911
0.805 -0.071 -1.96
1.015 0.147 -1.761
0.805 0.213 -1.944
1.015 0.43 -1.678
0.805 0.485 -1.862
0.805 0.731 -1.72
1.015 0.677 -1.519
0.805 0.938 -1.525
1.015 0.87 -1.296
0.805 1.095 -1.287
0.565 -1.344 -1.023
0.565 -1.255 -1.296
0.565 -1.112 -1.545
0.565 -0.919 -1.758
0.565 -0.687 -1.927
0.565 -0.425 -2.044
0.565 -0.144 -2.104
0.565 0.144 -2.104
0.565 0.425 -2.044
0.565 0.687 -1.927
0.565 0.919 -1.758
0.565 1.112 -1.545
0.565 1.255 -1.296
0.805 1.192 -1.02
0.565 1.344 -1.023
0.3 -1.448 -1.025
0.3 -1.364 -1.302
0.3 -1.228 -1.557
0.3 -1.044 -1.781
0.3 -0.82 -1.965
0.3 -0.565 -2.101
0.3 -0.288 -2.185
0.3 0.0 -2.214
0.3 0.288 -2.185
0.3 0.565 -2.101
0.3 0.82 -1.965
0.3 1.044 -1.781
0.3 1.228 -1.557
0.3 1.364 -1.302
0.3 1.448 -1.025
0.022 -1.467 -1.168
0.022 -1.359 -1.438
0.022 -1.201 -1.682
0.022 -1.001 -1.892
0.022 -0.764 -2.061
0.022 -0.5 -2.182
0.022 -0.218 -2.25
0.022 0.073 -2.264
0.022 0.36 -2.223
[...]
CELL_DATA 1258
SCALARS cell_data_0 double
LOOKUP_TABLE default
1.58957220554e-08
1.21752305542e-08
1.59530214457e-07
2.88621743622e-08
2.17209461723e-08
2.87092882759e-08
1.79555005437e-07
1.0734234536e-07
1.56917191032e-08
2.70753910118e-08
1.08992017666e-07
8.1846324895e-08
5.4656553685e-09
1.42538937308e-08
4.90680425017e-08
5.38418454559e-08
2.31022516213e-09
2.6800891216e-09
1.6095339827e-08
2.00536522452e-08
5.24553663784e-09
4.01350659194e-09
4.03372410399e-09
7.45649561681e-09
5.77873766374e-09
8.0952067282e-09
4.38584630115e-10
1.21203088092e-09
4.79449292742e-09
1.02215940026e-08
5.67063708247e-10
2.10721799384e-09
4.08882172068e-09
1.15516310252e-08
1.59807263665e-09
1.76309994383e-09
2.47589889469e-09
1.2362266435e-08
3.15960641255e-09
2.82575279304e-09
1.41724856726e-09
1.26592641473e-08
4.91025749765e-09
3.07607601031e-09
1.03847888784e-09
1.30855042343e-08
5.37527511681e-09
4.28336693233e-09
6.53355783125e-10
1.2613158378e-08
7.49029679711e-09
4.65976805607e-09
1.55135789037e-09
1.2721413311e-08
7.73738142665e-09
3.61348826614e-09
2.26581748569e-09
1.25697136619e-08
8.8288482022e-09
4.08648560025e-09
4.07889132478e-09
1.22012401173e-08
9.67459862088e-09
2.64735429829e-09
4.08138909875e-09
1.22931262436e-08
9.59243695626e-09
2.46356901899e-09
5.5142973135e-09
1.10563521329e-08
1.0908651406e-08
2.88417551171e-09
5.10659199779e-09
1.11331407346e-08
1.09236210033e-08
1.2421092562e-09
7.06824155226e-09
1.02064534076e-08
1.1279698134e-08
8.25104637901e-10
6.49071362127e-09
9.23601077875e-09
1.12970922797e-08
4.8984628452e-10
7.20819142711e-09
8.43795586375e-09
1.13131530815e-08
9.42741772329e-10
8.3746673756e-09
7.05194350184e-09
1.12615474281e-08
3.79425544663e-11
9.85456400455e-09
5.00709907193e-09
1.09347468962e-08
3.50050383574e-10
1.06791830919e-08
3.71668059186e-09
1.04204344796e-08
1.06498272549e-09
1.20105088196e-08
9.78861776143e-10
1.07117842669e-08
1.9040853239e-09
1.26321711554e-08
1.70880051363e-09
9.4868434661e-09
3.78482922123e-09
1.26997281102e-08
4.75901738333e-09
8.44343790427e-09
6.23823219228e-09
1.1758952891e-08
7.77214477203e-09
6.04994186518e-09
8.55796648772e-09
8.03256319292e-09
8.20214062409e-09
1.52723785076e-09
9.55159243069e-09
2.02791756909e-09
3.21776668449e-09
9.15225555239e-09
3.66767241937e-09
6.64790884544e-09
1.00905975789e-08
2.7056103106e-08
4.43627029379e-08
1.01928918511e-08
2.5456258814e-08
2.97616871636e-08
1.61194802822e-07
5.9012823602e-10
1.5933750846e-08
4.11550748385e-08
2.27079193952e-07
8.70644376983e-12
6.50570096027e-11
3.03334984541e-11
7.57816591453e-11
7.62589620494e-11
3.09584765155e-12
1.24187333488e-10
1.76130487362e-10
1.28845479781e-10
2.25284178095e-10
4.17075315693e-11
1.18418056305e-10
2.77533555216e-10
6.34479937211e-11
1.01837370761e-10
1.34099183517e-10
8.64225929792e-11
3.46682429776e-12
2.15659240515e-10
9.70659753526e-11
4.12308479786e-11
1.86158778361e-10
1.96985260796e-11
3.68476440859e-11
6.87148866856e-11
1.74335943159e-10
4.6519312637e-11
1.93992451832e-10
7.97805952519e-11
1.51643822958e-10
7.72654720268e-12
1.9966527736e-11
3.06045331806e-11
1.55722898117e-10
1.74092255794e-10
1.34216885116e-10
2.18919475683e-10
3.24593246496e-11
8.16062065486e-11
1.70322576314e-10
2.41830897292e-10
8.11107882027e-11
3.01931502291e-10
8.32162330884e-10
2.65470030698e-10
1.81275016484e-09
3.7616484449e-11
1.17467983881e-09
3.68748220952e-10
2.54631096434e-10
3.76946140259e-10
1.12876231286e-11
2.31037144986e-10
9.1205229975e-11
2.01794624473e-11
1.15468550413e-10
4.08435540683e-11
5.74293874913e-11
1.22436738217e-10
2.81826778777e-11
4.44471959408e-11
1.1810059251e-10
4.80211236708e-11
1.34813856185e-10
1.06002267697e-10
3.26943286779e-11
7.24969048443e-11
1.79317227613e-11
1.63310171516e-10
8.8276188898e-11
7.60413381924e-11
4.13697901937e-11
1.19867344431e-10
6.36220414672e-12
1.05725591395e-10
9.75521023856e-11
2.49388329651e-10
1.58626161502e-10
2.24662642263e-10
1.002111942e-09
2.09310457369e-10
2.03845625624e-10
4.7613776416e-10
3.18388876829e-10
6.95742326858e-11
1.55987905697e-10
4.06868926011e-11
3.60325648692e-11
7.64306416501e-12
1.6924239461e-11
3.81351592953e-11
7.63364498192e-12
4.00556716153e-11
6.20667855783e-11
3.27831770818e-11
9.29594516378e-11
8.49281419088e-12
5.31438556362e-11
8.89608936132e-12
1.14310290984e-11
4.82822378495e-11
2.65858855992e-11
5.57008480052e-11
1.0599712602e-10
8.54671547639e-11
4.97131380531e-12
8.36168813554e-12
9.46427543815e-12
9.87541242884e-11
5.89577438251e-11
1.64460552717e-10
1.3309002048e-10
1.75506069513e-10
3.5531846784e-10
4.32642584834e-10
4.59648546555e-10
8.49002125765e-10
4.38471153432e-10
7.19167004365e-10
6.47146593896e-10
2.69851931036e-10
3.75523355161e-10
8.60658847498e-11
1.37268349304e-10
5.24735649916e-11
2.01661292115e-11
8.75148248998e-12
8.43261667761e-12
6.46667117825e-11
4.24467777548e-11
4.5196333874e-12
6.06695152217e-11
3.00625788848e-11
3.00060187753e-11
5.96146092129e-12
1.62451318403e-11
1.03687653144e-11
5.08758557047e-11
6.21208346303e-11
1.54003402485e-11
1.23438504147e-11
1.03310903563e-10
1.3880762143e-11
1.39440038806e-11
1.24085472778e-10
3.18211520275e-11
9.24007095076e-11
1.09741969168e-10
5.31269194356e-11
3.94627120939e-11
3.56039588773e-11
1.58628487867e-10
4.65736470608e-12
1.99874762745e-10
2.79693870301e-11
2.03674221153e-10
4.16829140841e-11
5.31465085606e-10
4.59545383373e-10
4.31420737248e-10
6.05780102972e-10
7.35453848374e-10
6.37834076287e-11
2.88529855686e-10
8.6398366792e-11
1.58629325768e-10
3.14735899615e-11
4.87243787615e-11
9.18769637613e-12
3.92630272907e-11
2.23217411531e-11
6.31517810373e-11
2.03080636643e-11
1.5635929972e-11
2.49586837516e-11
3.63753990309e-11
6.69081718596e-12
2.85670664434e-11
6.18346049214e-13
1.5296090509e-12
7.26803250131e-11
1.20031202921e-10
1.74451500132e-11
4.09663234391e-11
1.99838625454e-11
5.06650887629e-11
5.21793508682e-11
9.42601852148e-11
1.40777022327e-10
4.02695315281e-11
3.18278441654e-11
6.03969891285e-11
1.17388787838e-10
4.28347098977e-11
5.46654136126e-11
4.11464105815e-11
1.25805185326e-10
1.36072471633e-11
1.1876981864e-10
9.80124950618e-12
1.73429268485e-10
5.69389060455e-11
4.95376843447e-10
1.0787162901e-10
6.82221888834e-10
2.1768896264e-10
3.54739406592e-10
2.02213909402e-10
1.14161589679e-10
7.83889363972e-11
2.11952816877e-11
3.89074057488e-11
5.26634719591e-11
3.17049672536e-11
1.40318842598e-12
1.54554582583e-11
5.45643252919e-12
2.86848697871e-11
1.7604045666e-11
3.36354071381e-11
5.89694050405e-11
3.33713446033e-11
8.69230254975e-11
2.59458613677e-11
2.19966713069e-11
5.51919379952e-11
7.47312444691e-11
1.89485079655e-11
1.55121555249e-11
1.43569092856e-11
4.62037413433e-11
3.29979053068e-11
4.19776224435e-11
3.74226176967e-11
1.40958365395e-11
8.5773784718e-11
9.92612710715e-11
9.61535048149e-11
3.44412345018e-11
8.72679194263e-11
6.00133809488e-12
3.17136826501e-11
9.68042478641e-11
1.03164426378e-10
2.83290741492e-11
1.94622319353e-10
4.88890576067e-11
7.49416829941e-10
2.42801316627e-10
1.16738692269e-09
5.75349544686e-10
2.69033384802e-10
3.97352398186e-10
8.55778372512e-11
1.2478406781e-10
5.24803946562e-11
7.66385827449e-11
1.73063954057e-11
3.23472402016e-11
1.38544577537e-11
4.14631108189e-11
6.77076467167e-12
1.00044160238e-11
2.79866330313e-11
5.28869070513e-11
3.93654587522e-11
5.75642133822e-11
1.90012204091e-11
4.55674131376e-11
1.9777635681e-11
4.18321330952e-11
6.96509077839e-11
3.85966505369e-11
7.29738414308e-11
5.06706290464e-11
4.68655353856e-11
5.99595344116e-11
9.0777201675e-12
1.1976268039e-10
3.25055510098e-11
7.7099839744e-11
3.26030632026e-11
7.35959003213e-11
8.58726972131e-11
1.89994487394e-11
6.84115593104e-11
2.10423438704e-11
3.04954189009e-11
6.55108707921e-11
7.30630121665e-12
1.14891330055e-10
5.71455261117e-11
2.21397324817e-10
8.24581967628e-11
7.92586213921e-10
1.17669380407e-10
1.402944354e-09
1.03385128231e-09
1.50155027126e-10
6.35350378173e-10
6.12403906162e-11
1.88182640465e-10
5.98063883824e-11
1.15698080397e-10
2.22981942713e-11
8.25888291349e-11
1.67827088866e-11
7.22921306757e-11
2.17928218005e-11
1.59175388204e-11
8.63586533639e-12
5.58936098143e-11
4.66146505382e-13
6.35203400338e-11
1.75705643537e-11
6.10784162437e-11
2.01069358699e-11
7.47063955084e-11
1.2952637321e-11
8.9806484098e-11
2.03545406237e-11
2.2182340613e-11
5.86607751085e-11
9.741396571e-11
1.47497441476e-12
5.82859261176e-11
9.78741509248e-11
1.71603185225e-11
6.39999708223e-11
4.09123951605e-12
3.95183789755e-11
2.67378977128e-11
3.26636324159e-11
2.41063467058e-11
1.39605594091e-11
2.90807439667e-11
7.93007306666e-11
7.96284604252e-11
1.07063618194e-10
1.26029355776e-10
1.61001863073e-10
2.16197187874e-10
2.11842438338e-10
4.67659517347e-10
4.09303193931e-10
8.62661295954e-10
1.47170105631e-09
6.70651718831e-11
8.0386620826e-10
5.49430918473e-11
2.83163771934e-10
5.29985083379e-10
9.39173903995e-12
2.24319277814e-10
4.13002518779e-11
1.6463893312e-10
8.85272757296e-12
7.90393694832e-11
4.22388851044e-12
9.44887759533e-11
1.62398792045e-11
8.40506261597e-11
7.02456986436e-11
6.88706601863e-11
9.36857975305e-11
1.09309987518e-10
1.10658263868e-10
2.13766104116e-11
1.09041285973e-11
1.86205278768e-12
2.39965289509e-11
3.69118489968e-11
1.84238970706e-10
3.87047547304e-11
2.67910402677e-12
5.70217512775e-11
6.27601171265e-11
7.17239331434e-11
1.18253677997e-10
2.40083570724e-11
1.17053627015e-11
3.01651062633e-12
1.35212112721e-11
1.34925216167e-11
1.14854924776e-11
1.26636940719e-11
8.35580027857e-11
5.57261410211e-11
1.47483293871e-10
4.29613758045e-11
2.75582724737e-10
6.86740372435e-11
5.21710210736e-10
1.26223768577e-10
9.50276653892e-10
3.79761803943e-10
1.26278723569e-09
2.68084431131e-10
3.93548368251e-10
8.51006217264e-11
5.75961371743e-10
6.38315183687e-11
3.03758827296e-10
3.85555744349e-11
2.02075666433e-10
5.5394778872e-12
1.10070250881e-10
6.85953600171e-11
1.14466406243e-10
5.09840832815e-11
2.30977511976e-11
3.45393203603e-11
2.87501469612e-11
1.83305861416e-12
2.36637336316e-11
2.07198043089e-13
1.91100668526e-11
5.23495981775e-12
1.36863532856e-11
6.20878982138e-11
1.96264125293e-10
1.89278274025e-11
7.98609020944e-12
4.71115566148e-12
6.47975970033e-12
2.06901000059e-12
6.85639879701e-11
9.40215613295e-11
5.06070824927e-11
8.59797890548e-11
3.95653179779e-11
1.4879676501e-11
8.79061811938e-11
2.6519570309e-11
1.80440804625e-10
5.1728794483e-11
3.05080614311e-10
4.06476500169e-11
5.43921759522e-10
5.53766795019e-10
8.33931667925e-10
1.2923580568e-09
2.03536976661e-09
1.89929560645e-09
4.23413950462e-10
5.88065363663e-10
1.1967639261e-10
6.94610645104e-10
6.63738012924e-11
3.61626330764e-10
3.99904817052e-11
1.83790542675e-10
2.82617447055e-11
1.23122266944e-10
7.35938244964e-12
7.60654317624e-11
1.60325665526e-11
5.48395393671e-11
2.8410480285e-11
3.60977331981e-11
3.29286141991e-11
8.01170827182e-12
2.60005721569e-11
3.89976664564e-12
1.98115078943e-11
3.73671072995e-11
1.25050061014e-10
3.61890711384e-12
4.57839977097e-11
1.55833606666e-11
3.64613106983e-11
4.68119711684e-11
6.19031829196e-11
5.95137471337e-11
4.1439711483e-11
1.37196736769e-10
6.36619141648e-11
5.87385924331e-11
1.17364613419e-11
1.38832942124e-10
6.32782393036e-11
3.60569558769e-10
6.47110620246e-11
5.93813800936e-10
8.55558724491e-10
7.82312208263e-10
2.32004926304e-09
1.93370891975e-09
2.13018876931e-09
3.25120872418e-10
7.21845348697e-10
9.61448973897e-11
7.04771077268e-10
1.12372639755e-10
3.92781301786e-10
2.19875707447e-11
2.14924753793e-10
2.57071067774e-11
7.79653263486e-11
1.79750417491e-11
1.05632852952e-10
5.0882610714e-11
4.75147550458e-11
2.05019421243e-11
3.85943722405e-11
1.91409034271e-11
1.73188493966e-11
8.46012165547e-11
3.12342888347e-11
3.00793589776e-11
2.65402112534e-11
3.45910300799e-11
2.38366624723e-11
6.50296744628e-11
6.72303112574e-11
4.03611597338e-11
2.16503483654e-11
5.96773886135e-11
8.74648774172e-12
4.10681544962e-11
7.93100139702e-11
6.07474719998e-11
8.45028267563e-11
1.92973263188e-11
3.08914033962e-10
7.60297483491e-12
6.57023488585e-10
2.99154045948e-10
9.51824766093e-10
1.07450238914e-09
2.16780887742e-09
2.26094547094e-10
8.99315561968e-10
1.42064433561e-11
7.64176430821e-10
2.40920781372e-10
3.45792856857e-10
8.49584067833e-11
2.41172815488e-10
8.54372166834e-12
1.4256041125e-10
1.41878052147e-12
6.15776744534e-11
1.9449979468e-11
2.0991270319e-11
5.24550084824e-11
2.3129901963e-11
6.8987130245e-12
7.31991441626e-11
1.48988035334e-11
1.50663892647e-10
4.64302070025e-12
1.54413834297e-11
3.04565159174e-11
7.66124932369e-11
1.13042113766e-10
3.84061323151e-11
1.44542273488e-10
8.59477062901e-12
1.23062021389e-10
3.34217660978e-11
2.50519091232e-10
2.24282208042e-11
4.78061837273e-10
1.69777240883e-10
1.13917424256e-09
1.1623489226e-10
2.01337027829e-09
3.05706603305e-09
6.05393010313e-11
1.0737546302e-09
1.00991020235e-11
9.43438447463e-10
1.42353746878e-10
3.96948588421e-10
6.55228687477e-11
2.01516824194e-10
1.11131817983e-11
1.46695895832e-10
5.23464297984e-11
4.99982837371e-11
6.88770525716e-11
2.90526401545e-11
1.07017569602e-10
4.51906414879e-11
3.72146105719e-11
1.19309593167e-10
7.54111573896e-11
5.20708690853e-11
9.56869646034e-11
5.4465518388e-11
1.43630306867e-10
4.13337672867e-11
2.13989496713e-10
2.93847012645e-11
3.13761209351e-10
1.91757831085e-10
5.94465762864e-10
1.25659835327e-09
1.05223848119e-09
3.34603688623e-09
1.78173995405e-09
2.08790831232e-09
3.21781089443e-10
1.20863071704e-09
1.96938588595e-10
8.58907053346e-10
2.0071055011e-10
3.86986412865e-10
7.02637323964e-11
1.92056399039e-10
1.98503371729e-11
7.97804810995e-11
1.26946198725e-11
1.98526108182e-10
4.24186814227e-11
2.05319785816e-10
5.82606858287e-11
2.14481241082e-10
1.93642170118e-10
1.1896833946e-10
2.28844258424e-11
1.2622545536e-10
1.02322468683e-10
2.71207956933e-10
2.75117151166e-10
6.43936357315e-10
1.31940989727e-09
1.07634275178e-09
4.58391420066e-09
7.31714755626e-10
1.47405789536e-09
1.19419872514e-10
1.02754186961e-09
2.76540337034e-10
3.58578051597e-10
3.98665883583e-11
1.56060050928e-10
1.60031891515e-11
3.40658007242e-10
9.1232820151e-11
4.34644930226e-10
3.34272481121e-10
2.12853178075e-10
7.17073357275e-11
2.23880541325e-10
3.10844593288e-10
5.99625783369e-10
1.44654860982e-09
5.32268131985e-10
1.96558571812e-09
2.71631985901e-10
1.09709240876e-09
2.04907374749e-10
2.80983135922e-10
1.04304144204e-10
7.57716937122e-10
4.00136751798e-10
2.59285678846e-10
1.54255012988e-10
5.00891321831e-10
1.68936869776e-09
4.55266637968e-10
4.09920959723e-09
1.02739470172e-10
1.29459691476e-09
4.182259965e-10
6.75617163791e-10
4.06197245522e-10
2.78688204915e-10
1.08662798132e-09
4.72884855101e-12
4.59379715603e-10
5.08475128171e-09
6.43143882727e-09
5.11723530022e-09
3.00151409817e-09
2.20668035321e-09
1.08664776029e-08
7.71060810058e-09
7.32363815989e-09
1.23152892867e-09
3.34085052595e-09
7.46141175805e-10
1.84358753095e-09
7.19561985151e-09
4.28940699732e-10
3.32209032537e-09
1.87027320766e-09
4.1498633274e-09
2.90669185452e-09
5.5958213938e-09
7.07677198824e-10
1.50583188601e-09
3.07646968533e-09
4.8552121279e-09
4.0543521191e-09
3.22428486825e-09
4.06717120286e-09
1.29356585207e-09
2.67104479958e-09
8.5332067379e-10
1.11509249478e-09
5.03888502691e-10
2.99365120282e-10
4.8761048827e-10
8.55713203412e-10
1.11876579392e-09
1.45963915432e-09
2.15252304543e-09
2.29624967254e-10
5.25134526721e-10
4.97304977519e-11
1.05121632122e-09
6.3019331588e-11
1.29467767703e-09
5.7807499701e-10
1.22254253412e-09
8.51911826665e-10
6.53668953199e-10
7.25510308642e-10
1.579653354e-09
1.18652776341e-09
1.44124738886e-09
3.19548583152e-09
1.02034741105e-09
4.8018177127e-09
7.55657843137e-10
5.54480180546e-09
8.31843656581e-10
5.11113017498e-09
5.82829340739e-10
4.41535488102e-09
3.07280048258e-10
1.35993599417e-10
2.74608033336e-09
7.06113421978e-10
2.231954924e-09
2.04791934648e-10
3.1924570443e-09
1.48930383696e-09
1.40688359305e-08
5.30256113865e-09
5.66235904417e-09
2.12718695979e-09
3.14007650656e-09
1.04050987995e-07
3.03393567802e-08
5.09066840939e-08
5.03252395454e-09
9.80732841281e-08
5.16736367292e-08
1.73075384047e-07
1.96309643477e-07
4.97296778654e-08
1.43210627045e-08
4.48816823201e-08
5.38028895284e-08
5.95964006977e-08
1.25778814463e-07
8.94533998541e-09
1.82320886186e-07
1.92487164626e-07
1.75206871572e-07
8.03690755438e-08
1.41554000567e-07
1.7624369319e-07
6.90460803336e-08
8.64903762105e-08
3.34595685232e-08
1.06857921719e-08
9.09577527643e-09
1.99207611118e-08
1.35734125961e-08
3.83145227379e-08
1.57477104807e-08
6.13286096126e-08
3.73519131853e-08
7.31728800014e-09
7.40523891252e-08
2.09751276433e-08
9.07143045456e-08
4.89307885961e-08
9.31367703011e-08
6.95505351589e-08
6.28974550051e-08
5.4641388023e-08
3.67993511413e-08
3.76694094846e-08
1.99005857673e-08
2.33486511874e-08
9.99279124026e-09
1.3328412028e-08
5.9316343777e-09
2.56917169091e-09
2.06702019469e-09
4.83420868708e-09
2.98874692766e-09
7.67704698573e-09
3.63391080641e-09
1.21594657812e-08
4.40066284072e-09
2.0453163061e-08
4.38412881311e-11
2.97731255047e-08
9.06092177133e-09
3.47103212369e-08
1.78224572116e-08
3.35279126789e-08
2.32622034398e-08
2.7759849567e-08
2.26235312901e-08
2.06257945651e-08
1.92873628635e-08
1.31830853156e-08
1.36969023088e-08
7.9078060219e-09
9.12814010531e-09
4.70775074936e-09
5.76596647165e-09
2.3157387611e-09
1.05717280255e-09
3.07148075607e-09
1.05583418238e-09
4.28385578374e-09
1.00339207477e-09
6.46698658325e-09
7.02570274197e-10
9.3385487491e-09
1.33837443629e-09
1.12620828024e-08
2.94873474679e-09
1.31431756781e-08
5.62301677424e-09
1.43284503044e-08
8.42940901344e-09
1.28746948808e-08
9.38317044055e-09
1.025487205e-08
8.7064525311e-09
7.47785143201e-09
6.97312625204e-09
5.04064073475e-09
5.16112668287e-09
3.10740869338e-09
3.326999755e-09
2.18608023105e-09
2.15676569246e-09
7.18079278506e-10
1.6815268018e-09
9.09891619597e-11
4.97523763021e-10
4.02922142698e-10
1.00122985455e-09
7.1858276254e-11
1.15043257713e-09
4.71175106705e-09
3.11975966057e-09
3.27104297896e-10
4.61291111038e-09
1.89523794815e-09
5.3218030042e-09
2.68521030794e-09
5.56277072243e-09
3.5415379782e-09
5.41303911514e-09
4.33816236098e-09
4.96049289878e-09
4.15198754384e-09
4.16092717208e-09
3.71359184845e-09
2.87222468216e-09
2.75032074916e-09
2.35341972208e-09
2.06153189137e-09
1.67134750577e-09
1.98640993235e-09
2.36514486596e-09
1.15967131984e-09
1.11618216948e-09
1.14044345164e-09
4.20091203293e-10
7.30666234212e-10
1.27889760003e-09
5.71697215836e-10
2.15060416238e-09
2.40866535803e-10
2.02934911653e-09
1.34524200123e-10
1.80959148309e-09
4.28439266498e-10
2.3537857027e-09
1.00047824095e-09
2.42121875959e-09
1.3372589395e-09
2.03366919897e-09
1.37872873388e-09
1.5474135031e-09
1.20833491616e-09
1.18441151932e-09
6.12502737726e-10
1.00751734503e-09
3.98958761987e-10
4.23299364231e-10
5.19376984459e-10
8.22158182821e-10
1.53602224407e-10
7.86393932403e-11
9.22309299555e-10
2.20308657045e-10
9.84506907934e-10
5.57065164836e-10
1.087172229e-09
5.34620547642e-11
1.09099445372e-09
2.51556575507e-11
1.42545407904e-09
2.49276245333e-10
1.31228789815e-09
7.16996005959e-10
4.76927160274e-10
3.24544763364e-11
7.31936421429e-10
1.47440608655e-10
7.26091261648e-10
4.79878894293e-10
5.50919676903e-10
3.22410956469e-11
2.92114176091e-10
1.0769337466e-11
1.43249679637e-10
3.33202971623e-10
3.51548640708e-11
1.54738342957e-09
4.88999818418e-10
5.11908021314e-10
7.82989714304e-11
6.77494666367e-10
2.40868706068e-10
1.07780135962e-10
7.39007131694e-10
2.44624237884e-10
3.74945963398e-10
2.02186093378e-10
1.53139097773e-10
3.29849883582e-10
1.51460991295e-10
6.27756822073e-10
1.36534119449e-10
3.84645546864e-10
3.57210486154e-10
3.9669333104e-10
4.94124994124e-10
2.61878580679e-10
5.06646069577e-10
9.2698361303e-10
1.72003196585e-09
3.2896423135e-09
4.45303352193e-10
3.8872975934e-10
1.80865435125e-10
5.49468365054e-10
1.97632105558e-09
6.87367314936e-10
2.24034728951e-09
1.09471718801e-09
1.2526008702e-09
1.02669990432e-09
1.41353589421e-09
1.17719418636e-10
7.3967224399e-10
4.85473639656e-10
4.24647784095e-10
1.36530668049e-09
1.2411068806e-09
1.34328669641e-09
1.62193248753e-09
3.25672998894e-09