# vtk DataFile Version 3.0
File Name: Molecule/methanol/methanol_2.0-3.vtk
ASCII
DATASET UNSTRUCTURED_GRID
FIELD FieldData 1
TIME 1 1 double
0.0
POINTS 108 double
1.252 -0.666 -0.918
0.98 -1.317 -0.296
0.828 -1.2 -0.876
0.308 -1.642 -0.229
0.216 -1.496 -0.815
-0.438 -1.642 -0.155
-0.464 -1.496 -0.747
-1.11 -1.317 -0.088
-1.076 -1.2 -0.686
-1.576 -0.731 -0.042
-1.5 -0.666 -0.644
-1.742 0.0 -0.025
-1.651 0.0 -0.629
-1.576 0.731 -0.042
-1.5 0.666 -0.644
-1.11 1.317 -0.088
-1.076 1.2 -0.686
-0.438 1.642 -0.155
-0.464 1.496 -0.747
0.308 1.642 -0.229
0.216 1.496 -0.815
0.98 1.317 -0.296
0.828 1.2 -0.876
1.445 0.731 -0.342
1.252 0.666 -0.918
1.611 0.0 -0.359
1.403 0.0 -0.933
1.907 0.0 0.656
1.763 0.722 0.656
1.763 0.361 1.281
1.763 -0.361 1.281
1.763 -0.722 0.656
1.763 -0.361 0.03
1.763 0.361 0.03
1.354 1.123 1.377
1.354 0.554 1.87
1.354 -0.19 1.977
1.354 -0.874 1.664
1.354 -1.281 1.032
1.354 -1.281 0.28
1.354 1.335 0.656
0.741 1.571 1.412
0.741 1.087 2.019
0.741 0.388 2.356
0.741 -0.388 2.356
0.741 -1.087 2.019
0.741 -1.571 1.412
0.741 -1.744 0.656
0.741 1.744 0.656
0.019 1.744 1.378
0.019 1.335 1.99
0.019 0.722 2.399
0.019 -0.0 2.543
0.019 -0.722 2.399
0.019 -1.335 1.99
0.019 -1.744 1.378
0.019 -1.888 0.656
0.019 1.888 0.656
-0.703 1.744 0.656
-0.703 1.571 1.412
-0.703 1.087 2.019
-0.703 0.388 2.356
-0.703 -0.388 2.356
-0.703 -1.087 2.019
-0.703 -1.571 1.412
-0.703 -1.744 0.656
-1.316 1.335 0.656
-1.316 1.123 1.377
-1.316 0.554 1.87
-1.316 -0.19 1.977
-1.316 -0.874 1.664
-1.316 -1.281 1.032
-1.725 0.722 0.656
-1.725 0.361 1.281
-1.725 -0.361 1.281
-1.725 -0.722 0.656
-1.868 0.0 0.656
1.445 -0.731 -0.342
0.648 -0.871 -1.742
-0.12 -1.149 -1.755
-0.12 -0.544 -2.172
0.648 -0.189 -2.053
-0.12 0.185 -2.261
0.648 0.552 -1.946
-0.12 0.872 -2.0
0.648 1.118 -1.456
-0.12 1.359 -1.451
-0.887 -1.276 -1.112
-0.887 -0.871 -1.742
-0.887 -0.189 -2.053
-0.887 0.552 -1.946
-0.887 1.118 -1.456
-1.449 -0.384 -1.402
-1.449 0.384 -1.402
1.21 0.384 -1.402
1.21 -0.384 -1.402
0.929 0.0975 -1.7275
0.929 0.468 -1.674
0.648 0.1815 -1.9995
0.929 -0.6275 -1.572
0.929 -0.2865 -1.7275
0.648 -0.53 -1.8975
1.424 -0.3655 -0.6375
1.3275 -0.333 -0.9255
1.3485 -0.6985 -0.63
0.95 0.892 -1.187
0.929 0.751 -1.429
1.231 0.525 -1.16

CELLS 212 848
3 0 1 2
3 1 3 2
3 2 3 4
3 3 5 4
3 4 5 6
3 5 7 6
3 6 7 8
3 7 9 8
3 8 9 10
3 9 11 10
3 10 11 12
3 11 13 12
3 12 13 14
3 13 15 14
3 14 15 16
3 15 17 16
3 16 17 18
3 17 19 18
3 18 19 20
3 19 21 20
3 20 21 22
3 21 23 22
3 22 23 24
3 23 25 24
3 24 25 26
3 27 28 29
3 27 29 30
3 27 30 31
3 27 31 32
3 27 32 33
3 27 33 28
3 29 28 34
3 29 34 35
3 29 35 36
3 30 29 36
3 30 36 37
3 30 37 38
3 31 30 38
3 31 38 39
3 32 31 39
3 28 40 34
3 34 40 41
3 34 41 42
3 35 34 42
3 35 42 43
3 36 35 43
3 36 43 44
3 37 36 44
3 37 44 45
3 37 45 46
3 38 37 46
3 38 46 47
3 39 38 47
3 40 48 41
3 41 48 49
3 41 49 50
3 42 41 50
3 42 50 51
3 43 42 51
3 43 51 52
3 44 43 52
3 44 52 53
3 45 44 53
3 45 53 54
3 46 45 54
3 46 54 55
3 47 46 55
3 47 55 56
3 48 57 49
3 49 57 58
3 49 58 59
3 50 49 59
3 50 59 60
3 51 50 60
3 51 60 61
3 52 51 61
3 52 61 62
3 53 52 62
3 53 62 63
3 54 53 63
3 54 63 64
3 55 54 64
3 55 64 65
3 56 55 65
3 59 58 66
3 59 66 67
3 60 59 67
3 60 67 68
3 61 60 68
3 61 68 69
3 62 61 69
3 62 69 70
3 63 62 70
3 64 63 70
3 64 70 71
3 65 64 71
3 67 66 72
3 67 72 73
3 68 67 73
3 69 68 73
3 69 73 74
3 70 69 74
3 71 70 74
3 71 74 75
3 73 72 76
3 74 73 76
3 75 74 76
3 75 76 11
3 75 11 9
3 75 9 7
3 75 7 71
3 71 7 65
3 65 7 5
3 65 5 56
3 56 5 3
3 56 3 47
3 47 3 1
3 47 1 39
3 39 1 77
3 39 77 32
3 32 77 25
3 32 25 33
3 33 25 23
3 33 23 28
3 28 23 40
3 40 23 21
3 40 21 48
3 48 21 19
3 48 19 57
3 57 19 17
3 57 17 58
3 58 17 15
3 58 15 66
3 66 15 13
3 66 13 72
3 72 13 11
3 72 11 76
3 78 79 80
3 81 80 82
3 83 82 84
3 85 83 84
3 85 84 86
3 79 87 88
3 80 79 88
3 80 88 89
3 82 80 89
3 82 89 90
3 84 82 90
3 84 90 91
3 86 84 91
3 88 87 92
3 89 88 92
3 89 92 93
3 90 89 93
3 91 90 93
3 91 93 14
3 91 14 16
3 91 16 18
3 91 18 86
3 86 18 20
3 86 20 85
3 85 20 22
3 94 26 95
3 78 0 2
3 78 2 4
3 78 4 79
3 79 4 6
3 79 6 87
3 87 6 8
3 87 8 10
3 87 10 92
3 92 10 12
3 92 12 93
3 93 12 14
3 95 96 94
3 94 96 97
3 96 98 97
3 96 81 98
3 97 98 83
3 97 83 85
3 83 98 82
3 98 81 82
3 95 99 100
3 99 101 100
3 99 78 101
3 100 101 81
3 81 101 80
3 101 78 80
3 78 99 0
3 0 99 95
3 95 100 96
3 96 100 81
3 77 102 25
3 25 102 26
3 26 102 103
3 102 104 103
3 102 77 104
3 103 104 0
3 0 104 1
3 1 104 77
3 24 105 22
3 22 105 85
3 85 105 106
3 105 107 106
3 105 24 107
3 106 107 94
3 94 107 26
3 107 24 26
3 26 103 95
3 95 103 0
3 85 106 97
3 97 106 94

CELL_TYPES 212
5
5
5
5
5
5
5
5
5
5
5
5
5
5
5
5
5
5
5
5
5
5
5
5
5
5
5
5
5
5
5
5
5
5
5
5
5
5
5
5
5
5
5
5
5
5
5
5
5
5
5
5
5
5
5
5
5
5
5
5
5
5
5
5
5
5
5
5
5
5
5
5
5
5
5
5
5
5
5
5
5
5
5
5
5
5
5
5
5
5
5
5
5
5
5
5
5
5
5
5
5
5
5
5
5
5
5
5
5
5
5
5
5
5
5
5
5
5
5
5
5
5
5
5
5
5
5
5
5
5
5
5
5
5
5
5
5
5
5
5
5
5
5
5
5
5
5
5
5
5
5
5
5
5
5
5
5
5
5
5
5
5
5
5
5
5
5
5
5
5
5
5
5
5
5
5
5
5
5
5
5
5
5
5
5
5
5
5
5
5
5
5
5
5
5
5
5
5
5
5
5
5
5
5
5
5
5
5
5
5
5
5

CELL_DATA 212
SCALARS cell_data_0 double
LOOKUP_TABLE default
1.08973961875e-06
6.40069130864e-08
3.59303648682e-08
9.00311373357e-08
1.29851833699e-07
9.05661669064e-09
1.65379501167e-07
5.96630579917e-08
1.40354257287e-07
9.69125540172e-08
1.18227043405e-07
1.46111119142e-07
1.30831161972e-07
1.7252791498e-07
3.54869422397e-08
1.98037352392e-07
3.77082747865e-08
2.40535709122e-07
5.50779621971e-08
2.60409115245e-07
2.33868380295e-07
1.24008339504e-07
1.5383722046e-07
5.42492434595e-08
2.65692860136e-06
2.04860112404e-11
6.47381614396e-10
9.21709971886e-10
1.37617424946e-09
1.3011050186e-08
1.80065789591e-09
1.88249434054e-09
2.13253198833e-09
1.41338581282e-10
1.92918554496e-09
4.2945252186e-09
7.69648755343e-10
7.03353879671e-09
2.78815730523e-09
2.62596344668e-11
5.67465217415e-10
4.06729715483e-10
1.23927272731e-09
1.19938301423e-09
1.30192087931e-09
6.73231140874e-10
1.1156322001e-09
9.70487642585e-10
3.28473096127e-10
6.16883156099e-10
3.42941019529e-09
2.19022197648e-09
4.88608721906e-10
9.43359907476e-10
6.57773864691e-10
3.6186008321e-09
1.20611853284e-10
1.72102044821e-09
5.66307576146e-10
1.13555954689e-09
1.36292738887e-10
1.14681773873e-09
6.66295117803e-10
1.59573427638e-09
5.00237060155e-10
4.33845370326e-09
2.59763263783e-09
5.29880477363e-10
4.73551219743e-10
4.29466770856e-09
2.21624031179e-09
5.31998743918e-09
3.51004618687e-11
2.01259453335e-09
1.15343559498e-10
7.27777998348e-10
3.24051283698e-10
4.25878872811e-10
1.54439765372e-10
1.23609461237e-09
6.74870196673e-10
6.3180552312e-09
2.59734741352e-10
2.18760511426e-09
1.23325615616e-08
2.26143988661e-10
5.81703489227e-09
2.10251317722e-09
1.26676667894e-09
2.00860479601e-09
1.31530832674e-09
2.70682121518e-09
3.49515017598e-09
1.33819431922e-09
1.64909561772e-09
2.00919205591e-09
1.31948407036e-08
1.22701468886e-09
3.71758135264e-09
2.65389051793e-10
1.35065872696e-08
8.55602652192e-09
6.30890339639e-09
2.19714714008e-09
1.08001452581e-08
7.97218533589e-09
8.91149882471e-09
4.99643731792e-08
2.1550965878e-07
1.62318796371e-07
2.37512749483e-07
8.99291143463e-08
1.97800019576e-07
1.01010309297e-07
1.38477649754e-07
1.00798351215e-07
1.1940697675e-07
6.76912112243e-08
8.63300780606e-08
2.87396817689e-08
8.33572686032e-09
8.29389544225e-09
5.28206619474e-09
2.31654727792e-08
3.3966845822e-09
6.09819976314e-08
1.40285250435e-08
6.02903801211e-08
5.55336642896e-09
1.65236065478e-07
1.83094533408e-08
2.02025670879e-07
2.85917668162e-08
1.92793644734e-07
3.85169546498e-08
1.81502805422e-07
5.12887689613e-08
7.3344320258e-07
9.00043929699e-07
1.00791467428e-06
1.02884677456e-06
3.26315558549e-07
9.05504854319e-08
6.28130923851e-08
7.22805709271e-08
4.09092559558e-08
1.16241165169e-07
8.58601580638e-08
6.35426089075e-08
1.34643674007e-08
5.63105968422e-08
4.75920793345e-08
6.61200922043e-09
1.78576292666e-08
6.82696087476e-08
2.6341736884e-08
3.97144986455e-08
1.18900100485e-08
1.67844375111e-08
5.58087907639e-08
1.24832064404e-07
5.82462424836e-08
9.21416023455e-08
1.64777173009e-06
2.13772822289e-07
1.34603532237e-06
4.11785050884e-08
2.04092317285e-08
4.86369760008e-08
6.09871301153e-09
8.24454715939e-08
1.45553591836e-08
5.36161863532e-08
1.2318007957e-08
2.89300879233e-07
2.2326359313e-09
7.40869845888e-07
2.13363157207e-06
2.96814114243e-07
6.91133113987e-07
3.47306224089e-07
2.72055591194e-07
7.3022881556e-07
5.94949737656e-07
3.3954504713e-07
6.61131692744e-07
4.27706165338e-07
6.74754970621e-08
3.68383603348e-07
3.48017193641e-07
4.13007595669e-07
7.41737884742e-07
1.05309606075e-07
3.68751146549e-07
7.21692144777e-08
3.60402161599e-07
1.63719830538e-08
2.93349289877e-07
3.0744040863e-07
6.36905417727e-08
7.9815371911e-08
5.33897403253e-08
2.08402111226e-07
1.21823473508e-07
9.76375061718e-09
5.71367699758e-07
2.60076985929e-07
1.06106934344e-06
4.37198452582e-07
9.06642809036e-07
3.72804342124e-07
9.41163542915e-07

