# vtk DataFile Version 3.0
File Name: Molecule/methanol/methanol_1.0-4.vtk
ASCII
DATASET UNSTRUCTURED_GRID
FIELD FieldData 1
TIME 1 1 double
0.0
POINTS 57 double
1.3993040323 0.0034512155689 -0.9414010644
1.6110652685 -0.00028650392778 -0.33454605937
1.2831866741 -0.60742759705 -0.90630203485
0.92934083939 -1.1172236204 -0.8698065877
1.0927048922 -1.2241526842 -0.27133521438
0.50687241554 -1.3707567453 -1.0455431938
0.027786135674 -1.6858197451 -0.16148680449
-1.2051950693 -1.2300519943 -0.057713378221
-0.061425779015 -1.5282815695 -0.78942239285
-1.1652259827 -1.0938936472 -0.71679246426
-1.7288674116 -0.0014062471455 -0.023555345833
-1.6385799646 0.00060942280106 -0.7777799964
-1.1660182476 1.0891461372 -0.71922451258
-1.207670927 1.2289122343 -0.057779930532
-0.055134192109 1.5116171837 -0.82141637802
0.029929671437 1.6853865385 -0.16212154925
0.91204088926 1.1263428926 -0.87293440104
1.0940458775 1.2235287428 -0.26908332109
1.2815105915 0.60912293196 -0.9091449976
1.9059951305 -0.0032607999165 0.6719571352
1.5803242922 1.0591744184 0.65779554844
1.5726468563 0.50440168381 1.5989316702
1.574842453 -0.5841242075 1.5492347479
1.4907258749 -1.1797823906 0.66164273024
0.58039188385 1.4501199722 1.7180672884
0.56845831871 0.55007952452 2.3730480671
0.59084630013 -0.55140221119 2.3634645939
0.57873362303 -1.4517737627 1.7176990509
0.5700173378 -1.8042122126 0.66130721569
0.57182723284 1.8033982515 0.66015440226
-0.54287731647 1.4605826139 1.7032232285
-0.53058594465 0.56960719824 2.3672637939
-0.53593146801 -0.55683892965 2.3699526787
-0.54087233543 -1.4615594149 1.7043219805
-0.53966462612 -1.8034937382 0.64469832182
-0.54204624891 1.8027319908 0.64294725657
-1.5410759449 1.0561701059 0.67665189505
-1.5355086327 0.5053614974 1.5980118513
-1.5381548405 -0.58231884241 1.5479482412
-1.4520657063 -1.1768126488 0.68470168114
-1.8628821373 -0.0024055344984 0.69568586349
-0.1468115449 0.30875185132 -2.2374584675
-0.11523859948 -0.75177025795 -2.0735487938
-1.1431223154 -0.60927343369 -1.7047071457
-1.1474581957 0.61066758633 -1.6996188164
-0.12448595464 1.1438887119 -1.7583762407
0.88932842016 0.96872454882 -1.3566859961
-0.13797855377 -1.3258224726 -1.5058311224
1.2151863575 0.38040003181 -1.3951761723
1.2689614296 -0.31128573418 -1.3003438711
1.0163036585 0.0029578884132 -1.7684313059
0.90992254019 -0.59970325232 -1.7020847797
1.0199580193 -0.83995640278 -1.3321988583
0.89479917288 0.60944384336 -1.7120004892
0.50019872189 -0.1006636098 -2.135222435
0.49859732389 -0.96491330862 -1.7579352856
0.36199763417 0.51072132587 -2.1006326675

CELLS 110 440
3 0 1 2
3 3 4 5
3 4 6 5
3 6 7 8
3 8 7 9
3 7 10 9
3 9 10 11
3 11 10 12
3 13 12 10
3 12 13 14
3 15 14 13
3 14 15 16
3 17 16 15
3 17 1 18
3 19 20 21
3 19 21 22
3 19 22 23
3 21 20 24
3 21 24 25
3 21 25 26
3 22 21 26
3 22 26 27
3 23 22 27
3 23 27 28
3 20 29 24
3 24 29 30
3 24 30 31
3 25 24 31
3 25 31 32
3 26 25 32
3 27 26 32
3 27 32 33
3 27 33 28
3 34 28 33
3 29 35 30
3 30 35 36
3 30 36 37
3 31 30 37
3 31 37 32
3 38 32 37
3 33 32 38
3 33 38 39
3 34 33 39
3 37 36 40
3 38 37 40
3 39 38 40
3 39 40 10
3 39 10 7
3 39 7 34
3 34 7 6
3 34 6 28
3 28 6 4
3 28 4 23
3 23 4 1
3 23 1 19
3 19 1 20
3 20 1 17
3 20 17 29
3 29 17 15
3 29 15 35
3 35 15 13
3 35 13 36
3 36 13 10
3 36 10 40
3 41 42 43
3 41 43 44
3 45 41 44
3 45 44 12
3 45 12 14
3 45 14 46
3 8 9 47
3 43 9 11
3 43 11 44
3 44 11 12
3 3 2 4
3 4 2 1
3 48 49 50
3 51 49 52
3 49 2 52
3 49 0 2
3 52 2 3
3 0 18 1
3 17 18 16
3 16 46 14
3 45 46 53
3 53 46 48
3 46 18 48
3 46 16 18
3 48 18 0
3 49 48 0
3 41 54 42
3 42 54 55
3 53 50 56
3 50 54 56
3 50 51 54
3 56 54 41
3 53 56 45
3 56 41 45
3 51 50 49
3 48 50 53
3 8 5 6
3 3 5 52
3 42 47 43
3 43 47 9
3 52 55 51
3 51 55 54
3 42 55 47
3 55 5 47
3 55 52 5
3 47 5 8

CELL_TYPES 110
5
5
5
5
5
5
5
5
5
5
5
5
5
5
5
5
5
5
5
5
5
5
5
5
5
5
5
5
5
5
5
5
5
5
5
5
5
5
5
5
5
5
5
5
5
5
5
5
5
5
5
5
5
5
5
5
5
5
5
5
5
5
5
5
5
5
5
5
5
5
5
5
5
5
5
5
5
5
5
5
5
5
5
5
5
5
5
5
5
5
5
5
5
5
5
5
5
5
5
5
5
5
5
5
5
5
5
5
5
5

CELL_DATA 110
SCALARS cell_data_0 double
LOOKUP_TABLE default
2.1294394065e-06
3.23970502097e-08
2.40785395489e-07
2.08980482473e-07
4.23336246811e-07
6.80473620737e-08
1.93966133532e-07
4.3162748463e-07
5.33237562185e-08
1.74236553139e-07
3.00098726112e-07
4.86885830069e-07
1.52999503607e-07
8.6751984895e-07
1.02676105684e-08
3.4056339055e-09
5.75462076073e-09
5.09630439165e-09
1.10366788619e-08
2.12971227377e-09
7.0993376658e-09
2.36601596233e-09
8.24573205704e-09
5.91806658288e-09
1.14975116752e-09
3.16049453269e-09
1.05406447483e-10
1.44401437056e-09
9.52900843903e-09
1.39763003831e-08
4.47326028397e-09
8.1067219092e-09
8.85816014416e-10
2.81004404069e-08
2.74086603195e-08
7.5607646142e-08
5.64538688265e-09
9.88821287594e-09
1.38259544892e-08
1.53539306302e-09
2.36343887624e-08
1.96689071233e-08
3.04670761199e-08
3.8037861921e-08
2.9266200811e-08
3.50873119999e-08
1.01570148392e-07
5.0172128086e-07
1.61367521533e-07
3.94224584628e-07
1.98571066084e-07
1.07309523839e-07
1.36346281965e-07
3.49818090335e-07
5.21756229803e-08
2.42983739451e-08
3.33275628748e-07
1.06569789401e-07
1.07566199783e-07
3.90291236635e-08
3.52141850759e-07
4.56677929566e-08
4.55240561202e-07
9.32284946637e-08
4.02162720887e-07
3.96132410653e-07
4.77138285299e-08
4.30907930876e-07
7.98974221881e-08
1.77923213218e-06
2.57926297284e-07
1.35102018363e-07
2.46022254821e-07
1.1606714959e-07
3.80190293301e-07
7.1748047831e-07
1.52114201431e-06
1.9951360461e-06
3.03263637009e-06
1.09496779758e-07
5.41106016376e-07
2.04287684116e-06
3.12373763569e-07
1.06493040382e-06
1.77259514101e-06
2.25401871229e-06
7.69791331591e-07
6.95398664667e-07
6.2144212508e-07
7.54867842246e-07
3.70510486239e-07
5.8782385696e-07
4.88155499004e-06
4.76003507693e-06
1.8325621643e-06
3.92030685179e-07
1.53324341478e-06
2.49989780454e-07
2.27379213845e-06
1.14853239704e-07
1.31721953372e-07
4.26074748094e-07
1.61168181522e-07
1.93885955477e-07
4.6164297736e-07
6.52842598606e-07
2.90898430424e-07
1.60669735834e-07
7.91440848272e-07
7.12020177892e-08

