# vtk DataFile Version 3.0
File Name: Molecule/methanol/methanol_4.0-5.vtk
ASCII
DATASET UNSTRUCTURED_GRID
FIELD FieldData 1
TIME 1 1 double
0.0
POINTS 220 double
1.046 -0.986 -0.897
0.773 -1.459 -0.275
0.639 -1.329 -0.857
0.226 -1.659 -0.221
0.141 -1.511 -0.807
-0.356 -1.659 -0.163
-0.389 -1.511 -0.754
-0.903 -1.459 -0.108
-0.887 -1.329 -0.705
-1.349 -1.083 -0.064
-1.294 -0.986 -0.664
-1.64 -0.576 -0.035
-1.559 -0.525 -0.638
-1.742 -0.0 -0.025
-1.651 -0.0 -0.629
-1.64 0.576 -0.035
-1.559 0.525 -0.638
-1.349 1.083 -0.064
-1.294 0.986 -0.664
-0.903 1.459 -0.108
-0.887 1.329 -0.705
-0.356 1.659 -0.163
-0.389 1.511 -0.754
0.226 1.659 -0.221
0.141 1.511 -0.807
0.773 1.459 -0.275
0.639 1.329 -0.857
1.219 1.083 -0.32
1.046 0.986 -0.897
1.51 0.576 -0.349
1.311 0.525 -0.924
1.907 0.0 0.656
1.83 0.532 0.656
1.83 0.266 1.116
1.83 -0.266 1.116
1.83 -0.532 0.656
1.83 -0.266 0.195
1.83 0.266 0.195
1.607 0.884 1.166
1.607 0.51 1.539
1.607 -0.0 1.676
1.607 -0.51 1.539
1.607 -0.884 1.166
1.607 -1.02 0.656
1.607 -0.884 0.145
1.607 0.884 0.145
1.607 1.02 0.656
1.255 1.33 1.171
1.255 1.054 1.617
1.255 0.636 1.933
1.255 0.132 2.076
1.255 -0.39 2.028
1.255 -0.86 1.794
1.255 -1.213 1.407
1.255 -1.402 0.918
1.255 -1.402 0.393
1.255 1.33 0.14
1.255 1.426 0.656
0.803 1.633 1.186
0.803 1.389 1.665
0.803 1.009 2.045
0.803 0.531 2.288
0.803 -0.0 2.373
0.803 -0.531 2.288
0.803 -1.009 2.045
0.803 -1.389 1.665
0.803 -1.633 1.186
0.803 -1.717 0.656
0.803 -1.633 0.125
0.803 1.633 0.125
0.803 1.717 0.656
0.288 1.793 1.182
0.288 1.572 1.666
0.288 1.223 2.068
0.288 0.776 2.355
0.288 0.266 2.505
0.288 -0.266 2.505
0.288 -0.776 2.355
0.288 -1.223 2.068
0.288 -1.572 1.666
0.288 -1.793 1.182
0.288 -1.868 0.656
0.288 -1.793 0.129
0.288 1.793 0.129
0.288 1.868 0.656
-0.25 1.793 1.182
-0.25 1.572 1.666
-0.25 1.223 2.068
-0.25 0.776 2.355
-0.25 0.266 2.505
-0.25 -0.266 2.505
-0.25 -0.776 2.355
-0.25 -1.223 2.068
-0.25 -1.572 1.666
-0.25 -1.793 1.182
-0.25 -1.868 0.656
-0.25 -1.793 0.129
-0.25 1.793 0.129
-0.25 1.868 0.656
-0.765 1.717 0.656
-0.765 1.633 1.186
-0.765 1.389 1.665
-0.765 1.009 2.045
-0.765 0.531 2.288
-0.765 -0.0 2.373
-0.765 -0.531 2.288
-0.765 -1.009 2.045
-0.765 -1.389 1.665
-0.765 -1.633 1.186
-0.765 -1.717 0.656
-1.217 1.426 0.656
-1.217 1.33 1.171
-1.217 1.054 1.617
-1.217 0.636 1.933
-1.217 0.132 2.076
-1.217 -0.39 2.028
-1.217 -0.86 1.794
-1.217 -1.213 1.407
-1.217 -1.402 0.918
-1.217 -1.402 0.393
-1.569 1.02 0.656
-1.569 0.884 1.166
-1.569 0.51 1.539
-1.569 -0.0 1.676
-1.569 -0.51 1.539
-1.569 -0.884 1.166
-1.569 -1.02 0.656
-1.792 0.532 0.656
-1.792 0.266 1.116
-1.792 -0.266 1.116
-1.792 -0.532 0.656
-1.868 0.0 0.656
1.219 -1.083 -0.32
1.51 -0.576 -0.349
1.611 0.0 -0.359
1.056 -0.854 -1.231
0.648 -1.228 -1.246
0.648 -0.94 -1.677
1.056 0.854 -1.231
0.648 0.94 -1.677
0.648 1.228 -1.246
0.147 -1.421 -1.254
0.147 -1.158 -1.709
0.147 -0.756 -2.046
0.648 -0.509 -1.965
0.147 -0.263 -2.226
0.648 0.0 -2.067
0.147 0.262 -2.226
0.648 0.509 -1.965
0.147 0.756 -2.046
0.147 1.158 -1.709
0.147 1.421 -1.254
-0.386 -1.421 -1.254
-0.386 -1.158 -1.709
-0.386 -0.756 -2.046
-0.386 -0.263 -2.226
-0.386 0.262 -2.226
-0.386 0.756 -2.046
-0.386 1.158 -1.709
-0.386 1.421 -1.254
-0.887 -1.228 -1.246
-0.887 -0.94 -1.677
-0.887 -0.509 -1.965
-0.887 0.0 -2.067
-0.887 0.509 -1.965
-0.887 0.94 -1.677
-0.887 1.228 -1.246
-1.296 -0.854 -1.231
-1.296 -0.493 -1.592
-1.296 -0.0 -1.724
-1.296 0.493 -1.592
-1.296 0.854 -1.231
-1.562 -0.263 -1.192
-1.562 0.263 -1.192
1.056 -0.493 -1.592
0.852 -0.2545 -1.8445
1.056 -0.0 -1.724
0.852 0.0 -1.8955
0.648 -0.2545 -2.016
0.852 0.2545 -1.8445
0.648 0.2545 -2.016
1.323 -0.263 -1.192
1.1895 -0.5585 -1.2115
1.1895 -0.378 -1.392
1.056 -0.6735 -1.4115
1.1895 0.5585 -1.2115
1.056 0.6735 -1.4115
1.311 -0.525 -0.924
1.461 0.2625 -0.6415
1.357 0.2625 -0.9285
1.507 0.0 -0.646
0.852 -0.7165 -1.6345
0.852 -0.501 -1.7785
0.648 -0.7245 -1.821
1.323 0.263 -1.192
1.403 0.0 -0.933
1.4565 -0.288 -0.641
1.357 -0.2625 -0.9285
1.4105 -0.5505 -0.6365
1.056 0.493 -1.592
0.852 0.501 -1.7785
0.852 0.7165 -1.6345
0.648 0.7245 -1.821
1.455 0.0 -0.7895
1.5085 -0.288 -0.4975
1.265 -0.804 -0.622
1.1785 -0.7555 -0.9105
1.1325 -1.0345 -0.6085
1.323 0.0 -1.192
1.1895 0.1315 -1.458
1.1895 -0.1315 -1.458
1.056 0.2465 -1.658
1.12275 0.4355 -1.492
1.12275 0.189 -1.558
1.1895 0.378 -1.392
1.25625 0.3205 -1.292
1.25625 0.41075 -1.20175
1.1895 0.46825 -1.30175
1.317 0.394 -1.058
1.25025 0.54175 -1.06775

CELLS 436 1744
3 0 1 2
3 1 3 2
3 2 3 4
3 3 5 4
3 4 5 6
3 5 7 6
3 6 7 8
3 7 9 8
3 8 9 10
3 9 11 10
3 10 11 12
3 11 13 12
3 12 13 14
3 13 15 14
3 14 15 16
3 15 17 16
3 16 17 18
3 17 19 18
3 18 19 20
3 19 21 20
3 20 21 22
3 21 23 22
3 22 23 24
3 23 25 24
3 24 25 26
3 25 27 26
3 26 27 28
3 27 29 28
3 28 29 30
3 31 32 33
3 31 33 34
3 31 34 35
3 31 35 36
3 31 36 37
3 31 37 32
3 33 32 38
3 33 38 39
3 33 39 40
3 34 33 40
3 34 40 41
3 34 41 42
3 35 34 42
3 35 42 43
3 35 43 44
3 36 35 44
3 32 37 45
3 32 45 46
3 32 46 38
3 38 46 47
3 38 47 48
3 39 38 48
3 39 48 49
3 39 49 50
3 40 39 50
3 40 50 51
3 41 40 51
3 41 51 52
3 42 41 52
3 42 52 53
3 42 53 54
3 43 42 54
3 43 54 55
3 44 43 55
3 46 45 56
3 46 56 57
3 46 57 47
3 47 57 58
3 47 58 59
3 48 47 59
3 48 59 60
3 49 48 60
3 49 60 61
3 50 49 61
3 50 61 62
3 51 50 62
3 51 62 63
3 52 51 63
3 52 63 64
3 52 64 65
3 53 52 65
3 53 65 66
3 54 53 66
3 54 66 67
3 55 54 67
3 55 67 68
3 57 56 69
3 57 69 70
3 57 70 58
3 58 70 71
3 58 71 72
3 59 58 72
3 59 72 73
3 60 59 73
3 60 73 74
3 61 60 74
3 61 74 75
3 62 61 75
3 62 75 76
3 63 62 76
3 63 76 77
3 64 63 77
3 64 77 78
3 65 64 78
3 65 78 79
3 66 65 79
3 66 79 80
3 67 66 80
3 67 80 81
3 67 81 82
3 68 67 82
3 70 69 83
3 70 83 84
3 70 84 71
3 71 84 85
3 71 85 86
3 72 71 86
3 72 86 87
3 73 72 87
3 73 87 88
3 74 73 88
3 74 88 89
3 75 74 89
3 75 89 90
3 76 75 90
3 76 90 91
3 77 76 91
3 77 91 92
3 78 77 92
3 78 92 93
3 79 78 93
3 79 93 94
3 80 79 94
3 80 94 95
3 81 80 95
3 81 95 96
3 82 81 96
3 84 83 97
3 84 97 98
3 84 98 85
3 85 98 99
3 85 99 100
3 86 85 100
3 86 100 101
3 87 86 101
3 87 101 102
3 88 87 102
3 88 102 103
3 89 88 103
3 89 103 104
3 90 89 104
3 90 104 105
3 91 90 105
3 91 105 106
3 92 91 106
3 92 106 107
3 93 92 107
3 93 107 108
3 94 93 108
3 94 108 109
3 95 94 109
3 96 95 109
3 98 97 99
3 100 99 110
3 100 110 111
3 101 100 111
3 101 111 112
3 102 101 112
3 102 112 113
3 103 102 113
3 103 113 114
3 104 103 114
3 104 114 115
3 105 104 115
3 105 115 116
3 106 105 116
3 107 106 116
3 107 116 117
3 108 107 117
3 108 117 118
3 109 108 118
3 109 118 119
3 111 110 120
3 111 120 121
3 112 111 121
3 112 121 122
3 113 112 122
3 114 113 122
3 114 122 123
3 115 114 123
3 115 123 124
3 116 115 124
3 116 124 125
3 117 116 125
3 118 117 125
3 118 125 126
3 119 118 126
3 121 120 127
3 121 127 128
3 122 121 128
3 123 122 128
3 123 128 129
3 124 123 129
3 125 124 129
3 125 129 130
3 126 125 130
3 128 127 131
3 129 128 131
3 130 129 131
3 130 131 13
3 130 13 11
3 130 11 126
3 126 11 9
3 126 9 119
3 119 9 7
3 119 7 109
3 109 7 96
3 96 7 5
3 96 5 3
3 96 3 82
3 82 3 68
3 68 3 1
3 68 1 132
3 68 132 55
3 55 132 44
3 44 132 133
3 44 133 36
3 36 133 134
3 36 134 37
3 37 134 29
3 37 29 45
3 45 29 27
3 45 27 56
3 56 27 25
3 56 25 69
3 69 25 23
3 69 23 83
3 83 23 97
3 97 23 21
3 97 21 19
3 97 19 99
3 99 19 110
3 110 19 17
3 110 17 120
3 120 17 15
3 120 15 127
3 127 15 13
3 127 13 131
3 135 136 137
3 138 139 140
3 136 141 142
3 137 136 142
3 137 142 143
3 144 143 145
3 146 145 147
3 148 147 149
3 139 149 150
3 140 139 150
3 140 150 151
3 141 152 153
3 142 141 153
3 143 142 153
3 143 153 154
3 143 154 155
3 145 143 155
3 145 155 156
3 147 145 156
3 147 156 157
3 149 147 157
3 149 157 158
3 150 149 158
3 150 158 159
3 151 150 159
3 153 152 160
3 153 160 161
3 154 153 161
3 154 161 162
3 155 154 162
3 155 162 163
3 156 155 163
3 156 163 164
3 157 156 164
3 157 164 165
3 158 157 165
3 158 165 166
3 159 158 166
3 161 160 167
3 161 167 168
3 162 161 168
3 162 168 169
3 163 162 169
3 164 163 169
3 164 169 170
3 165 164 170
3 165 170 171
3 166 165 171
3 168 167 172
3 169 168 172
3 169 172 173
3 170 169 173
3 171 170 173
3 171 173 16
3 171 16 18
3 171 18 166
3 166 18 20
3 166 20 159
3 159 20 22
3 159 22 24
3 159 24 151
3 151 24 26
3 151 26 140
3 140 26 28
3 140 28 138
3 138 28 30
3 135 0 136
3 136 0 2
3 136 2 141
3 141 2 4
3 141 4 152
3 152 4 6
3 152 6 8
3 152 8 160
3 160 8 10
3 160 10 167
3 167 10 12
3 167 12 172
3 172 12 14
3 172 14 173
3 173 14 16
3 174 175 176
3 176 175 177
3 175 178 177
3 175 144 178
3 177 178 146
3 176 177 179
3 177 180 179
3 177 146 180
3 179 180 148
3 146 178 145
3 178 144 145
3 148 180 147
3 180 146 147
3 181 182 183
3 182 184 183
3 182 135 184
3 183 184 174
3 183 174 176
3 185 186 138
3 184 135 137
3 138 186 139
3 135 182 187
3 187 182 181
3 134 188 29
3 29 188 30
3 30 188 189
3 188 190 189
3 188 134 190
3 174 191 192
3 191 193 192
3 191 137 193
3 192 193 144
3 144 193 143
3 193 137 143
3 194 189 195
3 174 192 175
3 175 192 144
3 137 191 184
3 184 191 174
3 195 196 197
3 196 198 197
3 196 133 198
3 197 198 187
3 132 198 133
3 199 200 201
3 200 202 201
3 200 148 202
3 201 202 139
3 139 202 149
3 202 148 149
3 195 197 181
3 181 197 187
3 148 200 179
3 179 200 199
3 199 201 186
3 186 201 139
3 195 203 196
3 203 204 196
3 203 190 204
3 196 204 133
3 133 204 134
3 204 190 134
3 190 203 189
3 189 203 195
3 187 205 206
3 205 207 206
3 205 132 207
3 206 207 0
3 0 207 1
3 1 207 132
3 194 208 209
3 208 210 209
3 208 181 210
3 209 210 176
3 181 208 195
3 195 208 194
3 187 206 135
3 135 206 0
3 199 211 179
3 179 211 176
3 176 210 183
3 183 210 181
3 199 212 211
3 212 213 211
3 212 214 213
3 211 213 176
3 176 213 209
3 213 215 209
3 213 214 215
3 209 215 194
3 194 215 216
3 215 217 216
3 215 214 217
3 216 217 185
3 185 217 186
3 186 217 214
3 214 212 186
3 212 199 186
3 194 216 218
3 216 219 218
3 216 185 219
3 218 219 30
3 30 219 138
3 219 185 138
3 194 218 189
3 189 218 30
3 132 205 198
3 198 205 187

CELL_TYPES 436
5
5
5
5
5
5
5
5
5
5
5
5
5
5
5
5
5
5
5
5
5
5
5
5
5
5
5
5
5
5
5
5
5
5
5
5
5
5
5
5
5
5
5
5
5
5
5
5
5
5
5
5
5
5
5
5
5
5
5
5
5
5
5
5
5
5
5
5
5
5
5
5
5
5
5
5
5
5
5
5
5
5
5
5
5
5
5
5
5
5
5
5
5
5
5
5
5
5
5
5
5
5
5
5
5
5
5
5
5
5
5
5
5
5
5
5
5
5
5
5
5
5
5
5
5
5
5
5
5
5
5
5
5
5
5
5
5
5
5
5
5
5
5
5
5
5
5
5
5
5
5
5
5
5
5
5
5
5
5
5
5
5
5
5
5
5
5
5
5
5
5
5
5
5
5
5
5
5
5
5
5
5
5
5
5
5
5
5
5
5
5
5
5
5
5
5
5
5
5
5
5
5
5
5
5
5
5
5
5
5
5
5
5
5
5
5
5
5
5
5
5
5
5
5
5
5
5
5
5
5
5
5
5
5
5
5
5
5
5
5
5
5
5
5
5
5
5
5
5
5
5
5
5
5
5
5
5
5
5
5
5
5
5
5
5
5
5
5
5
5
5
5
5
5
5
5
5
5
5
5
5
5
5
5
5
5
5
5
5
5
5
5
5
5
5
5
5
5
5
5
5
5
5
5
5
5
5
5
5
5
5
5
5
5
5
5
5
5
5
5
5
5
5
5
5
5
5
5
5
5
5
5
5
5
5
5
5
5
5
5
5
5
5
5
5
5
5
5
5
5
5
5
5
5
5
5
5
5
5
5
5
5
5
5
5
5
5
5
5
5
5
5
5
5
5
5
5
5
5
5
5
5
5
5
5
5
5
5
5
5
5
5
5
5
5
5
5
5
5
5
5
5
5
5
5
5
5
5
5
5
5
5
5
5
5
5
5
5
5
5
5
5
5
5
5
5
5
5
5
5
5
5
5
5
5
5

CELL_DATA 436
SCALARS cell_data_0 double
LOOKUP_TABLE default
1.36394654198e-07
4.52568468781e-08
5.95760047955e-08
3.84651785494e-08
9.70783142055e-08
9.15680139556e-10
1.22683007864e-07
2.54854268499e-08
1.1604689319e-07
5.70607727752e-08
1.16848481509e-07
7.39740792855e-08
1.09259656677e-07
8.8860352508e-08
1.06696477638e-07
1.04628186645e-07
8.50383685963e-08
1.1994226631e-07
6.80804681481e-08
1.14504518957e-07
2.77176552351e-08
1.25596003098e-07
9.13839837609e-09
1.41863421968e-07
8.9735740239e-08
1.04653203083e-07
1.48971455421e-07
6.81874234153e-08
3.40442079252e-07
7.18798743009e-10
4.04569808012e-10
9.38442506939e-10
2.91393712228e-10
1.93062574104e-09
2.7772134805e-10
9.72069378182e-10
9.01730346159e-10
7.05706530961e-10
1.31814316272e-09
1.34477218508e-10
6.61392031554e-10
1.37224671884e-09
3.29732244168e-10
2.07687966861e-09
2.75618995831e-09
9.28138291666e-10
1.56217015508e-09
1.9195289564e-10
1.93910275245e-10
6.04856119015e-10
3.56690976683e-10
4.22773744333e-10
4.35514985096e-10
4.93123064788e-10
1.03170077165e-09
6.39342958586e-10
4.73178263382e-10
5.48590309789e-10
1.37336485405e-10
4.18010065844e-10
1.76663176267e-09
2.95169535503e-10
3.54234353376e-09
1.1381619907e-09
1.41656813052e-09
9.18401337209e-10
1.39590269335e-10
3.60039114737e-11
1.44677079718e-10
6.38387658983e-11
1.78035257676e-10
1.28929175828e-10
1.6023454931e-10
2.47064488225e-10
2.07048102687e-10
8.84273269503e-12
2.32281687097e-10
1.95048023611e-10
3.6065432433e-10
2.71594912206e-10
2.43566009558e-10
7.71022557806e-10
4.11158741891e-10
2.35580480146e-09
5.96445213836e-10
2.1073027679e-09
1.6752310306e-09
1.55944453097e-09
3.81258228036e-10
2.27200112671e-10
5.9753670268e-11
8.16306415608e-11
1.44352575076e-10
4.82008152771e-10
2.4905389577e-10
6.00395068038e-10
4.16722222094e-11
6.58521895796e-10
2.45509715949e-10
8.65327046475e-10
4.96658525039e-11
3.30605201481e-10
8.44725807645e-11
1.39891345767e-11
1.02287721647e-10
4.53095752124e-10
3.02483521483e-10
2.42211657882e-09
2.07984042689e-10
1.03014986908e-08
6.04582292937e-09
1.87899298909e-10
1.92808744151e-09
2.88620841457e-10
7.8048027597e-10
1.31808717591e-10
1.16775536618e-10
1.42445440105e-10
2.32837888824e-11
1.43124892575e-10
1.9878788903e-11
5.18944227821e-11
2.61437340363e-11
3.46016282768e-10
1.07398806158e-10
3.83846557338e-10
1.15291682547e-10
4.80906455656e-10
2.2137518177e-10
6.47854689522e-10
3.79947439619e-11
1.6871748473e-09
1.71839766641e-10
5.22703702293e-09
3.56432161643e-11
1.41021230577e-08
1.1937270017e-08
6.98622669535e-10
3.22357486155e-09
5.58176036415e-09
1.04711341695e-09
2.03513922085e-09
3.98466038802e-10
1.0945334249e-09
3.73317786284e-10
7.56004739925e-10
1.40472393722e-10
4.32437889937e-10
3.48977702558e-10
4.02850314538e-10
3.15950894209e-10
2.85399048984e-10
2.51080316011e-10
5.72466068449e-12
2.66732568314e-10
5.69895074362e-10
1.08589545683e-10
1.98208912701e-09
5.69998338393e-11
2.80747898188e-09
1.00690380284e-08
1.32696765175e-09
2.00510328359e-09
5.18475680583e-10
3.06039304575e-09
7.14281588162e-11
7.04900608575e-10
4.16184339446e-10
3.12516103659e-10
6.4120012848e-10
6.49965675136e-11
6.52666238642e-10
3.73021301822e-10
6.89226795451e-10
8.11958790651e-10
2.52682487659e-10
2.33015896008e-10
2.36690368468e-10
2.71289981998e-09
1.95848834208e-09
2.25925415874e-09
8.06196989564e-10
3.8085355231e-10
3.11804376186e-09
1.18186818568e-10
5.87110840951e-10
2.83438559643e-10
1.44382644921e-09
2.51403581503e-10
9.93412840057e-10
4.47801403535e-10
1.29399019602e-09
3.45836071406e-09
7.40327709774e-10
1.839149055e-09
2.95884673924e-09
9.14510359509e-10
2.2309427583e-10
2.93930912878e-09
8.29688305134e-10
6.34805341235e-09
2.84449272506e-09
2.27715952536e-09
3.2786167866e-10
2.42931448939e-09
1.40189503983e-09
1.30214441077e-09
2.09448484032e-09
3.81307483853e-08
1.34242895156e-07
4.28322293603e-08
1.46091074662e-07
4.91349272848e-09
6.09390367803e-08
7.39444811006e-08
2.04711291196e-08
2.80042549858e-08
1.7182470875e-08
1.33521689949e-08
2.48896061897e-08
2.77142218342e-08
2.2875319495e-08
8.04216626198e-11
1.37560511601e-08
1.02437453149e-08
9.87043077072e-10
1.8799638852e-08
1.45771370583e-09
5.65712398207e-09
4.95160232993e-09
1.82987171599e-08
9.33051835301e-09
7.01642150827e-09
7.18673517717e-09
1.8956486495e-08
4.32325579594e-09
7.98239629602e-09
1.74925865381e-08
2.8093717431e-08
1.1067426995e-07
2.78422737621e-08
1.408188505e-07
2.50913222279e-08
1.41095691478e-07
3.07892425754e-08
1.37467176324e-07
3.82408801538e-08
2.87155806011e-07
2.77413076644e-07
5.85451751381e-08
5.22675897752e-08
1.40940086256e-07
2.63789727311e-07
3.82115103276e-07
2.6743293468e-07
1.40818050216e-07
1.44187600574e-07
5.49115746651e-08
1.24103567198e-08
4.54108983645e-09
1.08007417623e-09
5.75493314169e-08
4.27258903862e-08
8.23719397066e-09
6.75314071685e-08
4.30216931943e-08
7.00191295762e-08
5.7269423863e-08
5.55701192828e-08
5.2187409348e-08
3.47807001554e-08
2.8581988156e-08
7.48574246112e-09
1.22946636543e-09
8.88043437856e-09
1.19812374072e-08
1.88334344881e-10
1.40285832302e-08
9.43542963911e-10
1.29263366486e-08
4.13693046608e-09
1.04437982642e-08
2.50132062732e-09
1.64271253571e-09
3.92765560822e-09
1.71861968577e-08
5.29916665691e-09
7.1820993811e-09
2.71446576787e-09
3.48281163745e-09
2.64168278922e-09
2.76164441936e-09
6.15057790619e-09
5.48105453133e-09
1.66683056348e-08
2.18836563166e-08
1.11730135531e-08
1.10135631363e-08
1.41337507845e-08
2.0190992877e-08
8.18035010869e-09
3.60689381407e-08
6.28881234596e-09
4.42624426767e-08
1.75484688827e-09
2.61113407516e-08
3.23911123919e-08
2.20566814381e-08
4.86396684938e-08
3.06814781967e-08
1.05660656713e-07
1.18801007984e-07
3.41601418584e-07
1.1411529522e-07
1.07748612608e-07
3.43572665114e-08
4.48078787183e-08
2.90040360048e-08
3.38235543043e-08
2.35672938152e-08
2.50108646339e-08
4.29129718901e-08
1.8093944461e-08
3.56756743341e-08
7.32252164023e-09
3.9385680525e-08
2.81205738863e-08
3.94654826063e-08
2.2674413866e-07
9.84528961419e-08
4.25357980348e-08
2.02254320917e-07
1.03044410537e-07
1.10007581815e-07
1.08704425351e-07
1.03348295089e-07
1.79145850474e-07
1.08160950417e-07
4.32940839164e-08
1.49174623518e-07
1.16882717673e-07
1.34088680052e-07
2.98855436945e-07
1.60599704853e-07
3.05810893913e-07
8.55330390114e-09
1.09806539861e-07
4.51320199254e-08
3.38535384618e-07
1.50559529906e-07
8.11278067172e-08
7.46571820713e-08
2.8375520206e-07
2.87234987103e-07
7.0333141911e-08
1.98795696787e-08
9.00101341168e-08
6.32824289975e-08
6.17731846966e-08
6.51786409232e-08
6.15239532999e-08
1.8107923011e-09
1.01805577969e-07
8.86331718587e-09
8.53443429964e-08
1.18151800981e-07
1.15513413376e-07
1.49589342485e-07
1.87722074614e-07
1.84889956841e-08
2.2671494827e-07
1.60673433148e-08
5.48682945609e-08
2.10831513646e-09
7.71457098004e-08
6.09062180722e-08
9.17254300121e-08
1.00590657409e-07
1.85654299168e-07
4.89156705954e-08
1.32783982233e-07
5.20921310399e-08
1.26930271747e-08
6.87528896935e-08
1.26887753896e-07
4.28076955128e-08
1.83084345647e-08
8.40139304538e-10
6.31148325818e-09
1.03706865138e-08
5.22026920193e-08
5.37835777203e-08
3.54103367752e-08
5.33229056807e-08
1.38801364928e-08
6.68570857912e-08
2.43438916385e-08
1.48196326618e-08
1.99309879682e-07
4.08718784205e-07
1.20846246775e-07
2.01864279526e-08
1.09478948618e-07
9.08445394632e-08
1.89350234549e-08
4.21556117676e-08
1.30702978659e-07
7.5240226688e-08
2.28184099842e-07
3.55956735945e-08
9.93661473933e-08
9.71358710999e-08
1.88293014786e-08
5.83702608411e-08
1.11970250468e-07
2.29271136524e-07
2.15502291643e-08
2.1706895051e-07
3.48650083262e-08
1.66052605161e-08
1.55378419313e-08
2.40789125838e-08
8.31477846916e-08
9.50848961339e-08
3.68614107256e-08
5.06585504191e-08
1.58719091695e-08
4.33400653747e-09
3.89948595927e-09
1.20832478044e-08
1.16208610957e-07
5.18010009876e-08
8.15812725293e-09
4.42787869239e-08
1.70566225239e-08
9.79394665541e-08

