# vtk DataFile Version 3.0
File Name: Molecule/methanol/methanol_5.0-5.vtk
ASCII
DATASET UNSTRUCTURED_GRID
FIELD FieldData 1
TIME 1 1 double
0.0
POINTS 269 double
1.341 -0.432 -0.927
1.345 -0.911 -0.332
1.16 -0.83 -0.909
1.032 -1.273 -0.301
0.876 -1.16 -0.88
0.631 -1.532 -0.261
0.51 -1.396 -0.844
0.173 -1.667 -0.216
0.093 -1.519 -0.802
-0.304 -1.667 -0.168
-0.341 -1.519 -0.759
-0.762 -1.532 -0.123
-0.758 -1.396 -0.718
-1.163 -1.273 -0.083
-1.124 -1.16 -0.681
-1.475 -0.911 -0.051
-1.408 -0.83 -0.653
-1.674 -0.475 -0.032
-1.589 -0.432 -0.635
-1.742 -0.0 -0.025
-1.651 -0.0 -0.629
-1.674 0.475 -0.032
-1.589 0.432 -0.635
-1.475 0.911 -0.051
-1.408 0.83 -0.653
-1.163 1.273 -0.083
-1.124 1.16 -0.681
-0.762 1.532 -0.123
-0.758 1.396 -0.718
-0.304 1.667 -0.168
-0.341 1.519 -0.759
0.173 1.667 -0.216
0.093 1.519 -0.802
0.631 1.532 -0.261
0.51 1.396 -0.844
1.032 1.273 -0.301
0.876 1.16 -0.88
1.345 0.911 -0.332
1.16 0.83 -0.909
1.543 0.475 -0.352
1.341 0.432 -0.927
1.907 0.0 0.656
1.852 0.452 0.656
1.852 0.226 1.047
1.852 -0.226 1.047
1.852 -0.452 0.656
1.852 -0.226 0.264
1.852 0.226 0.264
1.69 0.76 1.094
1.69 0.439 1.415
1.69 -0.0 1.533
1.69 -0.439 1.415
1.69 -0.76 1.094
1.69 -0.877 0.656
1.69 -0.76 0.217
1.69 -0.439 -0.104
1.69 0.439 -0.104
1.69 0.76 0.217
1.69 0.877 0.656
1.432 1.167 1.108
1.432 0.925 1.499
1.432 0.558 1.776
1.432 0.115 1.902
1.432 -0.343 1.859
1.432 -0.754 1.654
1.432 -1.064 1.315
1.432 -1.23 0.886
1.432 -1.23 0.426
1.432 -1.064 -0.003
1.432 1.167 0.203
1.432 1.252 0.656
1.091 1.484 1.113
1.091 1.283 1.531
1.091 0.969 1.87
1.091 0.568 2.102
1.091 0.116 2.205
1.091 -0.346 2.17
1.091 -0.777 2.001
1.091 -1.139 1.712
1.091 -1.4 1.33
1.091 -1.536 0.887
1.091 -1.536 0.424
1.091 -1.4 -0.018
1.091 1.484 0.198
1.091 1.553 0.656
0.688 1.705 1.112
0.688 1.528 1.538
0.688 1.248 1.904
0.688 0.882 2.184
0.688 0.457 2.36
0.688 0.0 2.42
0.688 -0.457 2.36
0.688 -0.882 2.184
0.688 -1.248 1.904
0.688 -1.528 1.538
0.688 -1.705 1.112
0.688 -1.765 0.656
0.688 -1.705 0.199
0.688 1.705 0.199
0.688 1.765 0.656
0.247 1.815 1.122
0.247 1.642 1.558
0.247 1.366 1.938
0.247 1.004 2.238
0.247 0.579 2.438
0.247 0.118 2.526
0.247 -0.351 2.496
0.247 -0.798 2.351
0.247 -1.194 2.099
0.247 -1.516 1.757
0.247 -1.742 1.345
0.247 -1.859 0.89
0.247 -1.859 0.421
0.247 1.815 0.19
0.247 1.874 0.656
-0.209 1.815 1.122
-0.209 1.642 1.558
-0.209 1.366 1.938
-0.209 1.004 2.238
-0.209 0.579 2.438
-0.209 0.118 2.526
-0.209 -0.351 2.496
-0.209 -0.798 2.351
-0.209 -1.194 2.099
-0.209 -1.516 1.757
-0.209 -1.742 1.345
-0.209 -1.859 0.89
-0.209 -1.859 0.421
-0.209 1.815 0.19
-0.209 1.874 0.656
-0.65 1.765 0.656
-0.65 1.705 1.112
-0.65 1.528 1.538
-0.65 1.248 1.904
-0.65 0.882 2.184
-0.65 0.457 2.36
-0.65 0.0 2.42
-0.65 -0.457 2.36
-0.65 -0.882 2.184
-0.65 -1.248 1.904
-0.65 -1.528 1.538
-0.65 -1.705 1.112
-0.65 -1.765 0.656
-0.65 -1.705 0.199
-0.65 1.705 0.199
-1.053 1.553 0.656
-1.053 1.484 1.113
-1.053 1.283 1.531
-1.053 0.969 1.87
-1.053 0.568 2.102
-1.053 0.116 2.205
-1.053 -0.346 2.17
-1.053 -0.777 2.001
-1.053 -1.139 1.712
-1.053 -1.4 1.33
-1.053 -1.536 0.887
-1.053 -1.536 0.424
-1.053 1.484 0.198
-1.394 1.252 0.656
-1.394 1.167 1.108
-1.394 0.925 1.499
-1.394 0.558 1.776
-1.394 0.115 1.902
-1.394 -0.343 1.859
-1.394 -0.754 1.654
-1.394 -1.064 1.315
-1.394 -1.23 0.886
-1.394 -1.23 0.426
-1.394 1.167 0.203
-1.652 0.877 0.656
-1.652 0.76 1.094
-1.652 0.439 1.415
-1.652 -0.0 1.533
-1.652 -0.439 1.415
-1.652 -0.76 1.094
-1.652 -0.877 0.656
-1.652 -0.76 0.217
-1.652 0.76 0.217
-1.814 0.452 0.656
-1.814 0.226 1.047
-1.814 -0.226 1.047
-1.814 -0.452 0.656
-1.814 -0.226 0.264
-1.814 0.226 0.264
-1.868 -0.0 0.656
1.543 -0.475 -0.352
1.611 0.0 -0.359
1.122 -0.781 -1.188
0.783 -1.147 -1.212
0.783 -0.878 -1.615
1.122 0.781 -1.188
0.783 0.878 -1.615
0.783 1.147 -1.212
0.355 -1.284 -1.432
0.355 -0.989 -1.811
0.783 -0.475 -1.885
0.355 -0.586 -2.074
0.355 -0.121 -2.192
0.783 0.0 -1.979
0.355 0.358 -2.152
0.783 0.475 -1.885
0.355 0.798 -1.959
0.355 1.152 -1.634
0.355 1.381 -1.211
-0.12 -1.383 -1.403
-0.12 -1.125 -1.781
-0.12 -0.767 -2.067
-0.12 -0.342 -2.234
-0.12 0.115 -2.268
-0.12 0.561 -2.166
-0.12 0.957 -1.937
-0.12 1.268 -1.602
-0.12 1.467 -1.19
-0.594 -1.44 -0.977
-0.594 -1.284 -1.432
-0.594 -0.989 -1.811
-0.594 -0.586 -2.074
-0.594 -0.121 -2.192
-0.594 0.358 -2.152
-0.594 0.798 -1.959
-0.594 1.152 -1.634
-0.594 1.381 -1.211
-1.022 -1.147 -1.212
-1.022 -0.878 -1.615
-1.022 -0.475 -1.885
-1.022 0.0 -1.979
-1.022 0.475 -1.885
-1.022 0.878 -1.615
-1.022 1.147 -1.212
-1.362 -0.781 -1.188
-1.362 -0.451 -1.519
-1.362 -0.0 -1.639
-1.362 0.451 -1.519
-1.362 0.781 -1.188
-1.58 -0.237 -1.148
-1.58 0.237 -1.148
1.122 0.451 -1.519
1.122 -0.451 -1.519
1.122 -0.0 -1.639
0.9525 -0.2375 -1.762
0.9525 0.0 -1.809
0.783 -0.2375 -1.932
0.9525 0.2375 -1.762
0.783 0.2375 -1.932
1.476 0.216 -0.643
1.372 0.216 -0.93
1.507 0.0 -0.646
0.9525 0.463 -1.702
0.9525 0.6645 -1.567
0.783 0.6765 -1.75
1.403 0.0 -0.933
1.473 -0.2375 -0.6425
1.372 -0.216 -0.93
1.442 -0.4535 -0.6395
1.455 0.0 -0.7895
1.525 -0.2375 -0.499
0.9525 -0.6645 -1.567
0.9525 -0.463 -1.702
0.783 -0.6765 -1.75
1.122 0.2255 -1.579
1.2625 0.2255 -1.226
1.122 -0.2255 -1.579
1.19225 0.2255 -1.4025
1.2625 0.11275 -1.256
1.19225 0.11275 -1.4325
1.2625 0.0 -1.286
1.122 0.11275 -1.609
1.19225 0.0 -1.4625
1.19225 -0.2255 -1.4025

CELLS 534 2136
3 0 1 2
3 1 3 2
3 2 3 4
3 3 5 4
3 4 5 6
3 5 7 6
3 6 7 8
3 7 9 8
3 8 9 10
3 9 11 10
3 10 11 12
3 11 13 12
3 12 13 14
3 13 15 14
3 14 15 16
3 15 17 16
3 16 17 18
3 17 19 18
3 18 19 20
3 19 21 20
3 20 21 22
3 21 23 22
3 22 23 24
3 23 25 24
3 24 25 26
3 25 27 26
3 26 27 28
3 27 29 28
3 28 29 30
3 29 31 30
3 30 31 32
3 31 33 32
3 32 33 34
3 33 35 34
3 34 35 36
3 35 37 36
3 36 37 38
3 37 39 38
3 38 39 40
3 41 42 43
3 41 43 44
3 41 44 45
3 41 45 46
3 41 46 47
3 41 47 42
3 43 42 48
3 43 48 49
3 43 49 50
3 44 43 50
3 44 50 51
3 44 51 52
3 45 44 52
3 45 52 53
3 45 53 54
3 46 45 54
3 46 54 55
3 47 56 57
3 42 47 57
3 42 57 58
3 42 58 48
3 48 58 59
3 48 59 60
3 49 48 60
3 49 60 61
3 49 61 62
3 50 49 62
3 50 62 63
3 51 50 63
3 51 63 64
3 52 51 64
3 52 64 65
3 52 65 66
3 53 52 66
3 53 66 67
3 54 53 67
3 54 67 68
3 58 57 69
3 58 69 70
3 58 70 59
3 59 70 71
3 59 71 72
3 60 59 72
3 60 72 73
3 61 60 73
3 61 73 74
3 62 61 74
3 62 74 75
3 62 75 76
3 63 62 76
3 63 76 77
3 64 63 77
3 64 77 78
3 65 64 78
3 65 78 79
3 66 65 79
3 66 79 80
3 66 80 81
3 67 66 81
3 67 81 82
3 68 67 82
3 70 69 83
3 70 83 84
3 70 84 71
3 71 84 85
3 71 85 86
3 72 71 86
3 72 86 87
3 73 72 87
3 73 87 88
3 74 73 88
3 74 88 89
3 75 74 89
3 75 89 90
3 76 75 90
3 76 90 91
3 77 76 91
3 77 91 92
3 77 92 93
3 78 77 93
3 78 93 94
3 79 78 94
3 79 94 95
3 80 79 95
3 80 95 96
3 81 80 96
3 81 96 97
3 82 81 97
3 84 83 98
3 84 98 99
3 84 99 85
3 85 99 100
3 85 100 101
3 86 85 101
3 86 101 102
3 87 86 102
3 87 102 103
3 88 87 103
3 88 103 104
3 89 88 104
3 89 104 105
3 90 89 105
3 90 105 106
3 91 90 106
3 91 106 107
3 92 91 107
3 92 107 108
3 93 92 108
3 93 108 109
3 94 93 109
3 94 109 110
3 95 94 110
3 95 110 111
3 96 95 111
3 96 111 112
3 97 96 112
3 99 98 113
3 99 113 114
3 99 114 100
3 100 114 115
3 100 115 116
3 101 100 116
3 101 116 117
3 102 101 117
3 102 117 118
3 103 102 118
3 103 118 119
3 104 103 119
3 104 119 120
3 105 104 120
3 105 120 121
3 106 105 121
3 106 121 122
3 107 106 122
3 107 122 123
3 108 107 123
3 108 123 124
3 109 108 124
3 109 124 125
3 110 109 125
3 110 125 126
3 111 110 126
3 111 126 127
3 112 111 127
3 114 113 128
3 114 128 129
3 114 129 115
3 115 129 130
3 115 130 131
3 116 115 131
3 116 131 132
3 117 116 132
3 117 132 133
3 118 117 133
3 118 133 134
3 119 118 134
3 119 134 135
3 120 119 135
3 120 135 136
3 121 120 136
3 121 136 137
3 122 121 137
3 122 137 138
3 123 122 138
3 123 138 139
3 124 123 139
3 124 139 140
3 125 124 140
3 125 140 141
3 126 125 141
3 126 141 142
3 127 126 142
3 127 142 143
3 130 128 144
3 129 128 130
3 131 130 145
3 131 145 146
3 132 131 146
3 132 146 147
3 133 132 147
3 133 147 148
3 134 133 148
3 134 148 149
3 135 134 149
3 135 149 150
3 136 135 150
3 136 150 151
3 137 136 151
3 137 151 152
3 138 137 152
3 139 138 152
3 139 152 153
3 140 139 153
3 140 153 154
3 141 140 154
3 141 154 155
3 142 141 155
3 142 155 156
3 143 142 156
3 145 144 157
3 130 144 145
3 146 145 158
3 146 158 159
3 147 146 159
3 147 159 160
3 148 147 160
3 148 160 161
3 149 148 161
3 149 161 162
3 150 149 162
3 151 150 162
3 151 162 163
3 152 151 163
3 152 163 164
3 153 152 164
3 153 164 165
3 154 153 165
3 154 165 166
3 155 154 166
3 155 166 167
3 156 155 167
3 158 157 168
3 145 157 158
3 159 158 169
3 159 169 170
3 160 159 170
3 160 170 171
3 161 160 171
3 162 161 171
3 162 171 172
3 163 162 172
3 163 172 173
3 164 163 173
3 164 173 174
3 165 164 174
3 166 165 174
3 166 174 175
3 167 166 175
3 167 175 176
3 169 168 177
3 158 168 169
3 170 169 178
3 170 178 179
3 171 170 179
3 172 171 179
3 172 179 180
3 173 172 180
3 174 173 180
3 174 180 181
3 175 174 181
3 176 175 181
3 176 181 182
3 178 177 183
3 169 177 178
3 179 178 184
3 180 179 184
3 181 180 184
3 182 181 184
3 183 182 184
3 178 183 184
3 183 177 21
3 183 21 19
3 183 19 182
3 182 19 17
3 182 17 176
3 176 17 15
3 176 15 167
3 167 15 13
3 167 13 156
3 156 13 11
3 156 11 143
3 143 11 9
3 143 9 127
3 127 9 7
3 127 7 112
3 112 7 97
3 97 7 5
3 97 5 82
3 82 5 3
3 82 3 68
3 68 3 1
3 68 1 55
3 68 55 54
3 55 1 185
3 55 185 186
3 55 186 46
3 46 186 47
3 47 186 56
3 56 186 39
3 56 39 37
3 56 37 57
3 57 37 69
3 69 37 35
3 69 35 83
3 83 35 33
3 83 33 98
3 98 33 113
3 113 33 31
3 113 31 128
3 128 31 29
3 128 29 144
3 144 29 27
3 144 27 157
3 157 27 25
3 157 25 168
3 168 25 23
3 168 23 177
3 177 23 21
3 187 188 189
3 190 191 192
3 189 188 193
3 189 193 194
3 195 194 196
3 195 196 197
3 198 197 199
3 200 199 201
3 191 201 202
3 192 191 202
3 192 202 203
3 193 204 205
3 194 193 205
3 194 205 206
3 196 194 206
3 196 206 207
3 197 196 207
3 197 207 208
3 199 197 208
3 199 208 209
3 201 199 209
3 201 209 210
3 202 201 210
3 202 210 211
3 203 202 211
3 203 211 212
3 204 213 214
3 205 204 214
3 205 214 215
3 206 205 215
3 206 215 216
3 207 206 216
3 207 216 217
3 208 207 217
3 208 217 218
3 209 208 218
3 209 218 219
3 210 209 219
3 210 219 220
3 211 210 220
3 211 220 221
3 212 211 221
3 214 213 222
3 214 222 223
3 215 214 223
3 215 223 224
3 216 215 224
3 217 216 224
3 217 224 225
3 218 217 225
3 218 225 226
3 219 218 226
3 219 226 227
3 220 219 227
3 220 227 228
3 221 220 228
3 223 222 229
3 223 229 230
3 224 223 230
3 224 230 231
3 225 224 231
3 226 225 231
3 226 231 232
3 227 226 232
3 227 232 233
3 228 227 233
3 230 229 234
3 231 230 234
3 231 234 235
3 232 231 235
3 233 232 235
3 233 235 22
3 233 22 24
3 233 24 26
3 233 26 228
3 228 26 28
3 228 28 221
3 221 28 30
3 221 30 212
3 212 30 32
3 212 32 203
3 203 32 34
3 203 34 192
3 192 34 36
3 192 36 190
3 190 36 38
3 190 38 40
3 190 40 236
3 237 0 187
3 187 0 2
3 187 2 4
3 187 4 188
3 188 4 6
3 188 6 193
3 193 6 8
3 193 8 204
3 204 8 10
3 204 10 213
3 213 10 12
3 213 12 222
3 222 12 14
3 222 14 229
3 229 14 16
3 229 16 18
3 229 18 234
3 234 18 20
3 234 20 235
3 235 20 22
3 238 239 240
3 239 241 240
3 239 195 241
3 240 241 198
3 238 240 242
3 240 243 242
3 240 198 243
3 242 243 200
3 198 241 197
3 241 195 197
3 200 243 199
3 243 198 199
3 186 244 39
3 39 244 40
3 40 244 245
3 244 246 245
3 244 186 246
3 236 247 248
3 247 249 248
3 247 200 249
3 248 249 191
3 236 248 190
3 190 248 191
3 191 249 201
3 249 200 201
3 40 245 236
3 200 247 242
3 242 247 236
3 250 251 252
3 251 253 252
3 251 185 253
3 252 253 0
3 0 253 1
3 1 253 185
3 250 252 237
3 237 252 0
3 250 254 251
3 254 255 251
3 254 246 255
3 251 255 185
3 185 255 186
3 255 246 186
3 246 254 245
3 245 254 250
3 189 256 187
3 187 256 237
3 237 256 257
3 256 258 257
3 256 189 258
3 257 258 195
3 195 258 194
3 258 189 194
3 237 257 239
3 239 257 195
3 236 259 242
3 250 260 245
3 245 260 236
3 238 261 239
3 239 261 237
3 260 262 236
3 236 262 259
3 260 263 262
3 263 264 262
3 263 265 264
3 262 264 259
3 265 263 250
3 250 263 260
3 259 264 266
3 264 267 266
3 264 265 267
3 266 267 238
3 238 267 261
3 267 268 261
3 267 265 268
3 261 268 237
3 237 268 250
3 250 268 265
3 259 266 242
3 242 266 238

CELL_TYPES 534
5
5
5
5
5
5
5
5
5
5
5
5
5
5
5
5
5
5
5
5
5
5
5
5
5
5
5
5
5
5
5
5
5
5
5
5
5
5
5
5
5
5
5
5
5
5
5
5
5
5
5
5
5
5
5
5
5
5
5
5
5
5
5
5
5
5
5
5
5
5
5
5
5
5
5
5
5
5
5
5
5
5
5
5
5
5
5
5
5
5
5
5
5
5
5
5
5
5
5
5
5
5
5
5
5
5
5
5
5
5
5
5
5
5
5
5
5
5
5
5
5
5
5
5
5
5
5
5
5
5
5
5
5
5
5
5
5
5
5
5
5
5
5
5
5
5
5
5
5
5
5
5
5
5
5
5
5
5
5
5
5
5
5
5
5
5
5
5
5
5
5
5
5
5
5
5
5
5
5
5
5
5
5
5
5
5
5
5
5
5
5
5
5
5
5
5
5
5
5
5
5
5
5
5
5
5
5
5
5
5
5
5
5
5
5
5
5
5
5
5
5
5
5
5
5
5
5
5
5
5
5
5
5
5
5
5
5
5
5
5
5
5
5
5
5
5
5
5
5
5
5
5
5
5
5
5
5
5
5
5
5
5
5
5
5
5
5
5
5
5
5
5
5
5
5
5
5
5
5
5
5
5
5
5
5
5
5
5
5
5
5
5
5
5
5
5
5
5
5
5
5
5
5
5
5
5
5
5
5
5
5
5
5
5
5
5
5
5
5
5
5
5
5
5
5
5
5
5
5
5
5
5
5
5
5
5
5
5
5
5
5
5
5
5
5
5
5
5
5
5
5
5
5
5
5
5
5
5
5
5
5
5
5
5
5
5
5
5
5
5
5
5
5
5
5
5
5
5
5
5
5
5
5
5
5
5
5
5
5
5
5
5
5
5
5
5
5
5
5
5
5
5
5
5
5
5
5
5
5
5
5
5
5
5
5
5
5
5
5
5
5
5
5
5
5
5
5
5
5
5
5
5
5
5
5
5
5
5
5
5
5
5
5
5
5
5
5
5
5
5
5
5
5
5
5
5
5
5
5
5
5
5
5
5
5
5
5
5
5
5
5
5
5
5
5
5
5
5
5
5
5
5
5
5
5
5
5
5
5
5
5
5
5
5
5
5
5
5
5
5
5
5
5
5
5
5
5
5
5
5
5
5
5
5
5
5
5
5
5
5
5
5
5
5
5
5
5
5
5
5
5
5
5
5

CELL_DATA 534
SCALARS cell_data_0 double
LOOKUP_TABLE default
7.87519141033e-07
8.60790572181e-08
1.56952467845e-07
1.90787888511e-08
3.85013656416e-09
2.84146351035e-08
6.22230215792e-08
1.77133041014e-08
8.18967183886e-08
3.81802858625e-09
9.52388776565e-08
1.71872982445e-08
1.00254743891e-07
2.70380936756e-08
9.56316912577e-08
3.19274488073e-08
9.9448214212e-08
3.87755138552e-08
9.21619217086e-08
5.09771999586e-08
9.68271036485e-08
5.55288210908e-08
7.76235967919e-08
6.28416630126e-08
7.46683587328e-08
7.30841367909e-08
5.89850158482e-08
8.07570316448e-08
3.95355822403e-08
8.72974368549e-08
1.07032572178e-08
9.26773327052e-08
3.47914130205e-08
7.82967237312e-08
7.62052453356e-08
2.48833066281e-08
3.0592894924e-08
4.4187637625e-08
6.15005531282e-07
9.46405784441e-10
3.1925485871e-10
7.87340810968e-10
2.27988084525e-10
1.32687193071e-09
2.60273268944e-10
5.84628765308e-10
2.93317296601e-10
3.1413759207e-10
1.11399530589e-09
2.60093034123e-10
5.08291163176e-10
9.02495038628e-10
3.59107670481e-10
9.72815322731e-10
1.01172380912e-09
8.1496618706e-10
4.88473972771e-10
2.82429804441e-09
1.01772890713e-09
6.04661115794e-10
2.35830956644e-10
2.63799870951e-10
9.20886381735e-11
1.80609991206e-10
1.39853425893e-10
4.42760488734e-10
6.03710913077e-10
5.01051823573e-10
2.786279512e-10
4.99179090017e-10
5.08896844312e-10
6.33800425365e-10
3.95938798442e-10
2.27055245109e-10
2.0807482189e-09
2.02877240995e-09
7.19126820968e-10
7.87987025747e-10
3.5682684015e-10
1.51341205016e-10
1.82932291141e-10
1.98993713547e-10
8.0534662858e-12
2.65615840213e-10
9.02121647452e-12
4.90634804371e-11
2.34333166668e-10
1.44097927269e-10
1.49125639853e-10
4.55219272195e-10
2.05819133648e-10
5.70273121683e-10
2.34590733542e-10
2.92353913275e-10
4.23423009791e-10
1.47080049586e-10
7.95577527138e-10
3.34649457511e-09
1.36563323357e-09
1.17260922671e-09
7.34943302778e-10
6.76238897964e-10
8.7902056414e-10
2.26512996702e-10
6.03775257998e-11
1.36523004353e-10
2.56045109788e-11
6.10993606682e-11
1.11718500483e-10
2.90145076911e-11
2.68862707125e-10
1.46531771057e-10
5.27993005103e-11
3.45110263205e-10
3.01979563791e-10
2.97459528566e-11
3.39190434809e-11
9.92471426112e-12
2.12024741018e-10
1.18522162862e-10
4.08532273488e-10
1.95819956607e-10
2.20826596183e-10
5.03811677817e-10
1.6714083792e-09
3.40035171418e-10
1.43232226453e-09
1.11841596927e-09
6.23693429643e-10
1.11894494268e-09
1.87097941418e-10
2.21781388722e-10
1.03780168773e-10
1.02369199979e-10
2.06191291355e-10
1.52655313999e-10
1.77967278852e-10
1.16073239112e-10
2.74360631948e-11
3.1892962227e-10
1.92276152964e-10
3.39033502139e-10
2.46001026542e-11
2.84259214999e-10
6.18902509087e-11
6.21727136305e-11
4.8876211841e-12
1.92224900661e-11
1.11247519314e-10
9.306321389e-11
1.48340131929e-10
6.59298263639e-10
1.07181865778e-09
9.67152136257e-10
6.50075270027e-10
3.40432594068e-09
2.73432100458e-10
1.41581401185e-09
7.03873310374e-11
4.60407163738e-10
4.19321203198e-11
2.06259568872e-10
1.40606194186e-11
3.3496668116e-11
6.69908535694e-11
1.49928679718e-11
5.28569622532e-11
1.80126109742e-10
3.00683692362e-11
7.50953223024e-11
1.99497451716e-10
1.20594962186e-10
2.40205863448e-10
8.87636401707e-11
2.46917988495e-10
8.12319587351e-11
4.50214934039e-10
1.73111224522e-11
8.26020172666e-10
7.296073241e-11
1.96656883605e-09
2.52262286587e-10
2.43736340806e-09
5.72038519621e-09
4.02995385888e-10
1.85441202417e-09
3.45462247607e-09
1.72983137367e-10
1.17342480092e-09
1.24200532219e-11
6.37854418189e-10
1.71315227969e-10
3.59381904487e-10
8.22717139754e-11
3.16935547531e-10
3.89643281796e-11
3.40817979261e-10
1.39216933553e-10
1.44469324589e-10
6.46630497049e-11
2.63887459574e-10
8.03933892349e-11
5.94562277677e-11
1.8771129976e-10
2.45061760612e-11
1.04120555439e-10
2.3463626795e-10
3.54775378381e-10
4.2283650842e-11
2.14337324191e-09
1.75663493928e-09
2.52957179359e-09
3.93592057358e-09
2.44484139781e-10
3.65516746042e-09
6.5874038469e-10
1.3089378946e-09
1.21301789318e-10
5.93738412047e-10
7.52616187412e-12
4.0213368714e-10
1.37635886763e-10
2.15162418439e-10
1.69468573426e-10
4.02471318388e-11
2.5972358309e-10
3.61737545633e-11
3.2298723957e-10
3.0483024659e-10
1.25009082972e-10
4.60315652387e-11
1.44644616661e-10
3.0075347963e-10
1.7726184776e-11
1.33030375074e-09
1.95487689587e-10
2.10402167152e-09
1.83343211277e-09
5.96987937431e-09
1.11074884057e-10
4.12301055366e-09
7.76783458595e-10
1.36372012074e-09
5.28942259616e-11
6.39654995188e-10
2.94046241576e-10
2.2297392786e-10
3.29771176573e-10
7.35282119207e-11
1.37028928098e-10
3.76438239522e-10
1.76776920531e-10
4.00545077163e-10
3.58713125991e-10
3.41805557949e-11
8.20974685267e-10
1.3848091924e-10
1.65869456579e-09
1.64710750887e-09
4.43513481853e-09
8.11202365866e-09
7.35024942017e-10
4.33168929452e-09
9.0884943993e-10
1.32034125906e-09
1.36490469261e-10
3.75496279047e-10
1.19917056147e-10
1.23148677855e-09
4.16996687605e-10
8.10650264109e-10
7.54243686569e-10
1.11649276646e-09
1.73633070535e-09
4.54017139671e-10
3.05535926931e-09
1.17752763353e-10
7.86194289369e-09
1.06345237718e-08
1.96734841964e-09
4.0856851542e-09
7.41354695049e-10
1.07032973694e-09
1.89734676113e-10
3.11236211583e-09
1.56025249836e-09
1.15435000741e-09
6.07814241961e-10
2.2967097568e-09
1.06567156464e-08
4.82985451289e-09
1.19558236034e-08
2.92271837475e-09
3.16662957071e-09
1.5605641134e-09
1.7008141679e-09
8.03581673946e-09
3.82950518587e-09
2.28306789561e-09
4.37941842038e-09
2.91826627668e-08
2.86101668609e-09
2.90180524611e-08
4.86592599774e-09
2.13842052255e-08
2.70659029229e-08
5.94575300871e-08
2.28904402187e-08
6.14507938179e-08
1.07689487117e-09
1.9905972091e-08
3.41065837297e-08
4.47917720652e-08
2.82939948393e-08
2.73796611599e-08
2.89488562628e-08
1.8961029256e-08
3.36232616121e-09
9.05232213894e-09
1.77093533404e-09
2.26044159269e-08
1.88819782237e-09
1.37013518372e-08
3.06875541121e-08
4.5815035504e-09
5.61396418673e-09
1.2382780892e-08
5.02472586753e-09
1.65873471746e-09
1.17595862703e-08
3.9896835018e-09
1.0666635701e-08
4.24950356573e-09
7.73305046098e-09
3.63793854357e-09
7.61820293354e-09
8.65858873319e-09
6.20017384756e-09
1.81184134885e-08
3.99114354748e-09
2.31107976762e-08
2.5462837072e-09
2.35490680183e-08
1.20559512862e-09
2.38821220457e-08
5.619856907e-10
2.3746774446e-08
2.37035872445e-07
2.2556292552e-07
8.08586862151e-08
1.97202031564e-07
3.99867809723e-07
3.10540247079e-07
4.67879856539e-07
3.2112020204e-07
1.60360939035e-07
1.71897136464e-07
5.22945756225e-08
2.41987641347e-08
3.43097820841e-09
3.27267143535e-08
1.5604945143e-08
7.32791484927e-08
2.50762004289e-08
9.42431762779e-08
6.23050370019e-08
8.53952055007e-08
7.55187694014e-08
5.36260585e-08
5.36231146457e-08
3.09695566126e-08
3.44840390214e-08
1.47681342466e-08
1.42569608868e-08
6.48213620542e-09
1.39926168852e-08
1.84585727355e-09
1.94860705503e-08
4.72832926327e-09
2.20874535722e-08
9.21745526723e-09
2.35962048063e-08
1.37699679155e-08
1.96157915564e-08
1.42712032729e-08
1.42754334079e-08
1.03764510699e-08
8.55790659698e-09
4.62096537322e-09
4.70916136695e-09
3.44392057497e-09
7.09986499765e-09
3.07699196866e-10
1.23829857132e-09
1.73061748867e-09
5.19175647369e-09
6.47562425068e-10
4.57060649406e-09
9.17045816836e-10
3.02668831963e-09
1.59396506243e-09
2.11008081062e-09
2.54468227791e-09
1.39586843052e-08
4.21504268459e-09
8.47735155449e-09
3.8701735404e-09
5.83734927664e-09
3.28475046156e-10
3.57749302088e-09
5.06702619395e-09
3.0176370115e-09
1.47473078669e-08
1.99818677004e-08
6.34663087735e-09
5.31422672562e-09
8.7924388856e-09
1.90263634707e-08
9.39223605871e-09
2.41545474921e-08
2.82792586609e-08
8.59592708445e-09
3.61980365198e-08
5.93179965411e-09
2.80529443348e-08
2.95739249304e-09
2.0623891025e-08
6.44264035365e-09
1.73127535218e-08
3.06162978365e-08
9.70350299681e-09
1.7292420869e-07
3.69112116219e-08
2.33527584085e-07
4.34480585975e-07
3.52774491292e-07
2.82659469323e-07
4.86514453223e-08
3.46670332881e-07
7.24149906362e-09
8.51372673412e-08
2.05576907194e-08
6.00982296637e-08
2.6638480153e-08
1.93579921331e-09
8.25057883292e-09
6.50979656487e-09
3.55593204903e-08
1.56675396887e-08
2.59576500915e-08
2.4069828859e-08
9.23374704962e-09
3.06235173659e-08
1.69690976004e-08
3.07508129977e-08
4.14196818202e-08
7.46246659867e-08
1.92665230558e-07
1.21311572892e-07
3.47203328924e-08
1.12523417269e-07
1.19653412675e-07
1.88237265599e-07
1.57037199601e-07
5.58710625956e-08
1.95129878594e-07
1.55564192995e-07
7.4566270967e-08
2.70594756404e-07
2.02050219165e-07
5.16268914024e-08
3.09377546558e-08
7.64664864419e-08
1.84762663981e-08
5.51629159278e-08
4.74618316319e-08
2.98394377572e-07
9.38636063762e-08
1.23812158739e-07
1.29760788904e-07
3.60133928836e-08
1.01890247892e-07
5.15594707683e-08
5.61525297902e-08
1.92667922662e-07
2.31866766945e-08
2.19438927616e-07
4.30445232525e-07
4.07155960043e-08
1.51790092692e-07
2.12175347212e-07
8.60812756018e-08
1.58425729906e-09
3.00292618016e-09
9.24115814357e-09
1.06494899102e-08
2.40267258153e-09
1.92939143519e-10
2.12832416712e-08
9.69929320382e-08
1.11838805915e-07
9.68921218976e-08
8.05077235953e-08
3.49842124278e-08
3.80260788959e-08
9.40709253889e-08
2.07663452202e-08
1.32839394217e-08
9.14360665858e-08
3.77912480055e-08
6.89255996809e-08
4.85075125557e-07
8.62914347839e-08
2.80805692758e-08
7.89707912419e-08
1.88183862224e-07
1.30328487501e-07
6.27448142404e-08
1.07805972502e-07
1.72381528167e-07
1.05529107642e-07
1.75647101197e-07
5.3513411648e-08
8.85875817711e-08
3.93912361395e-08
6.78102734068e-08
5.82278327952e-08
2.31813171684e-07
1.19149805215e-07
5.54179702643e-08
5.77700423541e-08
5.77574927446e-07
8.99474785646e-08
1.85401467319e-08

