# vtk DataFile Version 3.0
File Name: Molecule/sphere_dip/sphere_dip_0-s4.vtk
ASCII
DATASET UNSTRUCTURED_GRID
FIELD FieldData 1
TIME 1 1 double
0.0
POINTS 188 double
0.5 0.809016994375 0.309016994375
0.0 0.850650808352 0.525731112119
0.309016994375 0.5 0.809016994375
-0.525731112119 0.0 -0.850650808352
-0.809016994375 -0.309016994375 -0.5
-0.809016994375 0.309016994375 -0.5
-0.5 -0.809016994375 0.309016994375
0.0 -0.850650808352 0.525731112119
-0.309016994375 -0.5 0.809016994375
-0.309016994375 -0.5 -0.809016994375
-0.5 -0.809016994375 -0.309016994375
0.0 0.925325404176 0.26286555606
-0.25 0.829833901363 0.417374053247
-0.25 0.904508497187 0.154508497188
-0.5 0.809016994375 0.309016994375
0.0 1.0 0.0
-0.25 0.904508497187 -0.154508497188
-0.5 0.809016994375 0.0
-0.5 0.809016994375 -0.309016994375
0.0 0.850650808352 -0.525731112119
-0.675325404176 0.667374053247 0.154508497188
-0.675325404176 0.667374053247 -0.154508497188
-0.850650808352 0.525731112119 0.0
-0.154508497188 0.675325404176 0.667374053247
-0.404508497188 0.654508497187 0.559016994375
-0.309016994375 0.5 0.809016994375
-0.654508497187 0.559016994375 0.404508497188
-0.559016994375 0.404508497188 0.654508497187
-0.809016994375 0.309016994375 0.5
-0.829833901363 0.417374053247 0.25
-0.525731112119 0.0 0.850650808352
0.525731112119 0.0 0.850650808352
0.417374053247 -0.25 0.829833901363
0.667374053247 -0.154508497188 0.675325404176
0.559016994375 -0.404508497188 0.654508497187
0.309016994375 -0.5 0.809016994375
0.809016994375 -0.309016994375 0.5
0.404508497188 -0.654508497187 0.559016994375
0.654508497187 -0.559016994375 0.404508497188
0.5 -0.809016994375 0.309016994375
0.829833901363 -0.417374053247 0.25
0.675325404176 -0.667374053247 0.154508497188
0.925325404176 -0.26286555606 0.0
0.904508497187 -0.154508497188 0.25
1.0 0.0 0.0
0.904508497187 0.154508497188 0.25
0.809016994375 0.0 0.5
0.809016994375 0.309016994375 0.5
0.667374053247 0.154508497188 0.675325404176
0.809016994375 -0.309016994375 -0.5
0.809016994375 0.0 -0.5
0.904508497187 -0.154508497188 -0.25
0.904508497187 0.154508497188 -0.25
0.809016994375 0.309016994375 -0.5
0.667374053247 -0.154508497188 -0.675325404176
0.667374053247 0.154508497188 -0.675325404176
0.525731112119 0.0 -0.850650808352
0.925325404176 0.26286555606 0.0
0.829833901363 0.417374053247 -0.25
0.850650808352 0.525731112119 0.0
0.654508497187 0.559016994375 -0.404508497188
0.675325404176 0.667374053247 -0.154508497188
0.559016994375 0.404508497188 -0.654508497187
0.404508497188 0.654508497187 -0.559016994375
0.309016994375 0.5 -0.809016994375
0.5 0.809016994375 -0.309016994375
0.417374053247 0.25 -0.829833901363
-0.154508497188 0.25 0.904508497187
0.0 0.5 0.809016994375
0.154508497188 0.25 0.904508497187
-0.417374053247 0.25 0.829833901363
-0.26286555606 0.0 0.925325404176
0.417374053247 0.25 0.829833901363
0.26286555606 0.0 0.925325404176
-0.417374053247 -0.25 0.829833901363
-0.154508497188 -0.25 0.904508497187
0.0 -0.5 0.809016994375
0.154508497188 -0.25 0.904508497187
0.417374053247 -0.25 -0.829833901363
0.26286555606 0.0 -0.925325404176
0.309016994375 -0.5 -0.809016994375
0.154508497188 -0.25 -0.904508497187
0.0 -0.5 -0.809016994375
-0.154508497188 -0.25 -0.904508497187
0.0 -0.850650808352 -0.525731112119
-0.417374053247 -0.25 -0.829833901363
-0.26286555606 0.0 -0.925325404176
-0.417374053247 0.25 -0.829833901363
-0.809016994375 -0.309016994375 0.5
0.559016994375 -0.404508497188 -0.654508497187
0.654508497187 -0.559016994375 -0.404508497188
0.404508497188 -0.654508497187 -0.559016994375
0.5 -0.809016994375 -0.309016994375
0.829833901363 -0.417374053247 -0.25
0.675325404176 -0.667374053247 -0.154508497188
0.850650808352 -0.525731112119 0.0
0.154508497188 0.25 -0.904508497187
-0.154508497188 0.25 -0.904508497187
-0.309016994375 0.5 -0.809016994375
0.0 0.5 -0.809016994375
0.962662702088 -0.13143277803 0.0
0.867171199276 -0.285941275218 -0.25
0.887988106264 -0.394298334089 0.0
0.762988106264 -0.596552582683 0.077254248594
0.587662702088 -0.738195523811 -0.0772542485935
0.654508497187 0.559016994375 0.404508497188
-1.0 0.0 0.0
-0.904508497187 0.154508497188 -0.25
-0.850650808352 -0.525731112119 0.0
-0.925325404176 -0.26286555606 0.0
-0.829833901363 0.417374053247 -0.25
-0.925325404176 0.26286555606 0.0
-0.404508497188 0.654508497187 -0.559016994375
-0.559016994375 0.404508497188 -0.654508497187
-0.654508497187 0.559016994375 -0.404508497188
-0.675325404176 -0.667374053247 -0.154508497188
-0.675325404176 -0.667374053247 0.154508497188
-0.5 -0.809016994375 0.0
-0.25 -0.904508497187 -0.154508497188
-0.25 -0.904508497187 0.154508497188
0.0 -1.0 0.0
-0.25 -0.829833901363 -0.417374053247
0.0 -0.925325404176 -0.26286555606
-0.829833901363 -0.417374053247 0.25
-0.654508497187 -0.559016994375 0.404508497188
-0.809016994375 0.0 0.5
-0.904508497187 0.154508497188 0.25
-0.904508497187 -0.154508497188 0.25
0.25 -0.829833901363 -0.417374053247
0.25 -0.904508497187 -0.154508497188
0.5 -0.809016994375 0.0
0.25 -0.904508497187 0.154508497188
0.25 0.867171199276 0.285941275218
0.0 0.962662702088 0.13143277803
0.0 0.925325404176 -0.26286555606
0.829833901363 0.417374053247 0.25
0.762988106264 0.596552582683 -0.077254248594
0.587662702088 0.738195523811 -0.231762745782
0.25 0.829833901363 -0.417374053247
0.762988106264 0.596552582683 0.077254248594
0.675325404176 0.667374053247 0.0
0.675325404176 0.667374053247 0.154508497188
0.587662702088 0.738195523811 -0.077254248594
0.587662702088 0.738195523811 0.077254248594
0.5 0.809016994375 0.0
0.5 0.809016994375 -0.154508497188
0.587662702088 0.738195523811 0.231762745782
0.5 0.809016994375 0.154508497188
0.375 0.856762745781 -0.231762745782
0.375 0.856762745781 -0.077254248594
0.25 0.904508497187 -0.154508497188
0.25 0.904508497187 0.0
0.375 0.856762745781 0.077254248594
0.25 0.904508497187 0.154508497188
0.125 0.952254248593 -0.077254248594
0.125 0.952254248593 0.077254248594
0.375 0.856762745781 0.231762745782
0.125 0.87757965277 -0.340119804654
0.0 0.25 0.904508497187
-0.077254248594 0.125 0.952254248593
0.077254248594 0.125 0.952254248593
0.0 0.0 1.0
-0.208687026624 0.125 0.914916950682
-0.13143277803 0.0 0.962662702088
0.208687026624 0.125 0.914916950682
0.13143277803 0.0 0.962662702088
-0.208687026624 -0.125 0.914916950682
-0.077254248594 -0.125 0.952254248593
0.0 -0.25 0.904508497187
0.077254248594 -0.125 0.952254248593
0.208687026624 -0.125 -0.914916950682
0.13143277803 0.0 -0.962662702088
0.077254248594 -0.125 -0.952254248593
0.0 0.0 -1.0
0.0 -0.25 -0.904508497187
-0.077254248594 -0.125 -0.952254248593
-0.13143277803 0.0 -0.962662702088
-0.208687026624 -0.125 -0.914916950682
0.742171199276 0.488195523811 0.327254248594
0.208687026624 0.125 -0.914916950682
0.077254248594 0.125 -0.952254248593
-0.077254248594 0.125 -0.952254248593
0.0 0.25 -0.904508497187
-0.208687026624 0.125 -0.914916950682
0.125 0.914916950682 0.208687026624
0.208687026623 -0.125 0.914916950682
0.285941275218 -0.25 0.867171199275
0.340119804654 -0.125 0.877579652769

CELLS 372 1488
3 0 1 2
3 3 4 5
3 6 7 8
3 9 10 4
3 1 11 12
3 11 13 12
3 12 13 14
3 15 16 13
3 16 17 13
3 16 18 17
3 13 17 14
3 18 16 19
3 14 17 20
3 17 21 20
3 17 18 21
3 20 21 22
3 1 12 23
3 12 24 23
3 12 14 24
3 23 24 25
3 14 26 24
3 26 27 24
3 26 28 27
3 24 27 25
3 14 20 26
3 20 29 26
3 20 22 29
3 26 29 28
3 27 28 30
3 1 23 2
3 31 32 33
3 32 34 33
3 32 35 34
3 33 34 36
3 35 37 34
3 37 38 34
3 37 39 38
3 34 38 36
3 39 37 7
3 7 37 35
3 36 38 40
3 38 41 40
3 38 39 41
3 42 43 40
3 40 43 36
3 44 45 43
3 45 46 43
3 45 47 46
3 43 46 36
3 36 46 33
3 46 48 33
3 46 47 48
3 33 48 31
3 2 48 47
3 49 50 51
3 50 52 51
3 50 53 52
3 51 52 44
3 49 54 50
3 54 55 50
3 54 56 55
3 50 55 53
3 44 52 57
3 52 58 57
3 52 53 58
3 57 58 59
3 58 60 61
3 58 53 60
3 53 62 60
3 62 63 60
3 62 64 63
3 60 63 65
3 53 55 62
3 55 66 62
3 55 56 66
3 62 66 64
3 63 64 19
3 25 67 68
3 68 69 2
3 25 70 67
3 70 30 71
3 2 69 72
3 72 73 31
3 30 74 71
3 74 8 75
3 8 76 75
3 76 35 77
3 35 76 7
3 7 76 8
3 56 78 79
3 78 80 81
3 80 82 81
3 82 9 83
3 9 82 84
3 84 82 80
3 83 9 85
3 86 85 3
3 87 3 5
3 8 74 88
3 88 74 30
3 3 85 4
3 85 9 4
3 56 54 78
3 54 89 78
3 54 49 89
3 78 89 80
3 49 90 89
3 90 91 89
3 90 92 91
3 89 91 80
3 49 93 90
3 93 94 90
3 93 95 94
3 90 94 92
3 80 91 84
3 56 79 66
3 66 96 64
3 97 98 99
3 96 99 64
3 86 3 87
3 97 87 98
3 64 99 19
3 99 98 19
3 44 100 51
3 100 101 51
3 100 42 101
3 51 101 49
3 49 101 93
3 101 102 93
3 101 42 102
3 93 102 95
3 30 70 27
3 27 70 25
3 25 68 23
3 23 68 2
3 41 103 40
3 40 103 95
3 95 102 40
3 102 42 40
3 42 100 43
3 100 44 43
3 44 57 45
3 45 57 59
3 2 72 48
3 48 72 31
3 95 103 94
3 103 104 94
3 103 41 104
3 94 104 92
3 104 41 39
3 47 105 2
3 2 105 0
3 106 107 4
3 4 107 5
3 108 109 4
3 4 109 106
3 5 107 110
3 107 111 110
3 107 106 111
3 110 111 22
3 98 112 19
3 19 112 18
3 98 113 112
3 113 114 112
3 113 5 114
3 112 114 18
3 108 115 116
3 115 117 116
3 115 10 117
3 116 117 6
3 10 118 117
3 118 119 117
3 118 120 119
3 117 119 6
3 10 121 118
3 121 122 118
3 121 84 122
3 118 122 120
3 6 119 7
3 119 120 7
3 108 116 123
3 116 124 123
3 116 6 124
3 123 124 88
3 88 124 8
3 8 124 6
3 28 125 30
3 30 125 88
3 28 126 125
3 126 127 125
3 126 106 127
3 125 127 88
3 88 127 123
3 127 109 123
3 127 106 109
3 123 109 108
3 84 121 9
3 9 121 10
3 10 115 4
3 4 115 108
3 84 128 122
3 128 129 122
3 128 92 129
3 122 129 120
3 92 130 129
3 130 131 129
3 130 39 131
3 129 131 120
3 120 131 7
3 131 39 7
3 0 132 1
3 132 11 1
3 11 133 13
3 133 15 13
3 15 134 16
3 16 134 19
3 59 135 45
3 45 135 47
3 5 110 21
3 21 110 22
3 18 114 21
3 21 114 5
3 106 126 29
3 29 126 28
3 22 111 29
3 29 111 106
3 61 136 58
3 58 136 59
3 65 137 60
3 60 137 61
3 19 138 63
3 63 138 65
3 59 136 139
3 136 140 139
3 136 61 140
3 139 140 141
3 61 142 140
3 142 143 140
3 142 144 143
3 140 143 141
3 61 137 142
3 137 145 142
3 137 65 145
3 142 145 144
3 141 143 146
3 143 147 146
3 143 144 147
3 146 147 0
3 65 148 145
3 148 149 145
3 148 150 149
3 145 149 144
3 150 151 149
3 151 152 149
3 151 153 152
3 149 152 144
3 150 154 151
3 154 155 151
3 154 15 155
3 151 155 153
3 144 152 147
3 152 156 147
3 152 153 156
3 147 156 0
3 15 154 134
3 154 157 134
3 154 150 157
3 134 157 19
3 19 157 138
3 157 148 138
3 157 150 148
3 138 148 65
3 67 158 68
3 158 69 68
3 67 159 158
3 159 160 158
3 159 161 160
3 158 160 69
3 71 162 70
3 70 162 67
3 67 162 159
3 162 163 159
3 162 71 163
3 159 163 161
3 69 164 72
3 164 73 72
3 69 160 164
3 160 165 164
3 160 161 165
3 164 165 73
3 75 166 74
3 74 166 71
3 71 166 163
3 166 167 163
3 166 75 167
3 163 167 161
3 77 168 76
3 76 168 75
3 75 168 167
3 168 169 167
3 168 77 169
3 167 169 161
3 81 170 78
3 78 170 79
3 79 170 171
3 170 172 171
3 170 81 172
3 171 172 173
3 83 174 82
3 82 174 81
3 81 174 172
3 174 175 172
3 174 83 175
3 172 175 173
3 173 175 176
3 175 177 176
3 175 83 177
3 176 177 86
3 86 177 85
3 85 177 83
3 59 139 135
3 139 178 135
3 139 141 178
3 135 178 47
3 141 146 178
3 146 105 178
3 146 0 105
3 178 105 47
3 5 113 87
3 87 113 98
3 92 128 91
3 91 128 84
3 79 179 66
3 179 96 66
3 79 171 179
3 171 180 179
3 171 173 180
3 179 180 96
3 173 181 180
3 181 182 180
3 181 97 182
3 180 182 96
3 96 182 99
3 99 182 97
3 173 176 181
3 176 183 181
3 176 86 183
3 181 183 97
3 97 183 87
3 87 183 86
3 0 156 132
3 156 184 132
3 156 153 184
3 132 184 11
3 11 184 133
3 184 155 133
3 184 153 155
3 133 155 15
3 161 169 185
3 169 186 185
3 169 77 186
3 185 186 32
3 32 186 35
3 186 77 35
3 73 187 31
3 31 187 32
3 32 187 185
3 187 165 185
3 187 73 165
3 185 165 161
3 39 130 104
3 104 130 92

CELL_TYPES 372
5
5
5
5
5
5
5
5
5
5
5
5
5
5
5
5
5
5
5
5
5
5
5
5
5
5
5
5
5
5
5
5
5
5
5
5
5
5
5
5
5
5
5
5
5
5
5
5
5
5
5
5
5
5
5
5
5
5
5
5
5
5
5
5
5
5
5
5
5
5
5
5
5
5
5
5
5
5
5
5
5
5
5
5
5
5
5
5
5
5
5
5
5
5
5
5
5
5
5
5
5
5
5
5
5
5
5
5
5
5
5
5
5
5
5
5
5
5
5
5
5
5
5
5
5
5
5
5
5
5
5
5
5
5
5
5
5
5
5
5
5
5
5
5
5
5
5
5
5
5
5
5
5
5
5
5
5
5
5
5
5
5
5
5
5
5
5
5
5
5
5
5
5
5
5
5
5
5
5
5
5
5
5
5
5
5
5
5
5
5
5
5
5
5
5
5
5
5
5
5
5
5
5
5
5
5
5
5
5
5
5
5
5
5
5
5
5
5
5
5
5
5
5
5
5
5
5
5
5
5
5
5
5
5
5
5
5
5
5
5
5
5
5
5
5
5
5
5
5
5
5
5
5
5
5
5
5
5
5
5
5
5
5
5
5
5
5
5
5
5
5
5
5
5
5
5
5
5
5
5
5
5
5
5
5
5
5
5
5
5
5
5
5
5
5
5
5
5
5
5
5
5
5
5
5
5
5
5
5
5
5
5
5
5
5
5
5
5
5
5
5
5
5
5
5
5
5
5
5
5
5
5
5
5
5
5
5
5
5
5
5
5
5
5
5
5
5
5
5
5
5
5
5
5
5
5
5
5
5
5
5
5
5
5
5
5
5
5
5
5
5
5

CELL_DATA 372
SCALARS cell_data_0 double
LOOKUP_TABLE default
1.15103364976e-05
7.06815273285e-06
1.0612717783e-05
7.18070480537e-05
1.47363740949e-06
3.08600549357e-06
5.80782833242e-07
6.56266375047e-06
5.63479005972e-06
6.81852524039e-06
5.98520508374e-06
3.55395316188e-05
1.78521634609e-05
1.21190450748e-05
2.36415698062e-06
3.40818230508e-05
4.47406047418e-06
1.15258595502e-05
3.51831735614e-06
1.64538318854e-05
2.57843644992e-06
1.57298596791e-05
9.6754445718e-06
2.08072264565e-05
1.54991251082e-05
2.26889350663e-05
5.22159490155e-05
5.08646335154e-06
3.07143120686e-05
1.87146505826e-05
1.66814198938e-05
1.86442770376e-05
2.47700297321e-05
4.75308469344e-06
2.23700713893e-05
1.81268882503e-05
6.41612024912e-06
4.2186271168e-06
1.17545524196e-05
2.81744820354e-05
8.6678554973e-06
2.54189088613e-06
1.40745126319e-06
1.16689054777e-05
2.828972684e-05
2.60206596258e-05
3.06400877316e-05
5.41012717911e-05
3.96893311019e-05
2.55289586927e-05
2.7500629726e-06
1.94065125768e-05
1.26554456059e-05
4.70403024201e-06
0.00011090765115
0.000175745724814
6.12891848575e-05
0.000129641195599
7.15888981009e-05
9.48908551722e-05
3.97870824364e-05
3.70630691555e-05
0.00010695903086
0.000155799048718
5.9225140571e-05
0.000138331703681
0.000153630576338
5.49104279069e-05
7.97213327355e-05
0.000130813117452
5.43993406759e-05
5.70940843883e-05
5.45365204496e-05
9.83244007497e-05
2.56939806721e-05
5.11572006802e-05
3.92939543228e-05
1.90465366577e-05
2.89210491423e-05
2.8603994095e-05
1.48614365411e-05
3.38591069253e-05
4.06589294567e-05
2.70330669273e-05
3.74923383395e-05
4.91447969263e-05
4.99423748405e-05
4.24685693141e-05
3.17565467049e-05
4.36284386388e-05
3.75702644066e-05
4.1221521153e-05
3.5757828677e-05
9.40928463105e-05
5.24271744072e-05
1.05859542507e-05
3.66257782158e-05
4.34865126479e-05
2.84186876324e-05
4.1735695434e-05
1.07515716857e-05
2.61076225539e-05
5.1719032667e-06
5.774359011e-06
2.60034268176e-05
2.85175822334e-05
1.02509327684e-05
1.82003517768e-05
8.24624854323e-06
2.34297359624e-05
2.08187378266e-06
1.08336200781e-06
5.96009987702e-06
1.21119043609e-06
1.12866317442e-05
3.47759340489e-05
3.29756396383e-05
4.38340665279e-05
4.35072319314e-05
3.85761328186e-05
3.70024319478e-05
3.71657523042e-05
3.22843296839e-05
3.16873794375e-05
2.6756200021e-05
7.2530394363e-08
2.76998132346e-05
4.45141739424e-07
3.59532553188e-07
7.46950293679e-08
1.92776915941e-06
2.1437346553e-05
1.73122151608e-05
1.39601657205e-07
5.16477602814e-06
5.85288389344e-06
7.83328736779e-06
2.96987018756e-06
1.44900047602e-06
5.17830401681e-06
7.50694558212e-06
7.21816700015e-05
9.87910286938e-05
1.70487584002e-05
1.84008794357e-05
8.92856053453e-06
1.34394947432e-05
1.05875238495e-05
8.31393779356e-06
1.12144782693e-05
4.20505001991e-05
5.50555210756e-06
4.88827614917e-05
3.44436128074e-05
1.9815590543e-05
4.61073854921e-05
8.65727306637e-06
1.43359670768e-06
1.36538269452e-05
1.73107270262e-05
1.02978477642e-05
1.1786467071e-05
1.99451449208e-05
1.74674946196e-05
1.59506733314e-06
4.65887595533e-06
3.05948989198e-06
3.50755815091e-06
1.45879558342e-05
8.25388745153e-06
2.4055576012e-05
1.02326302391e-05
7.87448687244e-06
9.77410611122e-06
1.45366924672e-05
4.19818711592e-06
1.69874621237e-05
7.77219058063e-06
1.51679774721e-06
1.82390262445e-06
2.40564643975e-06
2.58523367597e-06
2.50182107827e-06
1.68625736531e-06
1.74036737284e-05
4.91727753851e-06
2.81494354832e-05
2.80045661665e-05
5.51732933258e-06
6.44639303174e-06
1.41157044827e-05
5.4848647117e-06
1.23973818421e-06
2.10144149397e-06
1.08530368323e-05
2.38500453243e-06
2.67238574953e-05
1.49450203681e-05
3.49756325176e-05
1.99951514344e-05
1.59247991746e-05
1.40082929211e-06
4.82776158341e-07
2.53250123172e-06
3.7896916121e-07
3.35804457735e-06
1.68702749498e-07
1.51117849361e-07
4.11555248989e-06
4.21080808589e-06
1.6209250159e-06
1.59918237768e-06
5.38696310758e-07
9.69731413855e-07
4.08856989046e-06
1.73921169668e-05
2.42292502652e-05
3.40555169643e-05
7.66464908687e-06
1.56712676851e-05
1.36084087295e-06
8.07970053097e-06
2.64427419424e-05
7.40743749429e-06
3.25186632778e-05
2.56498675659e-05
5.16851687684e-05
2.72828999249e-05
1.14864519821e-05
4.98365727092e-05
3.20924127645e-05
1.45643019412e-05
5.03273868454e-06
7.43808108904e-08
1.38966076858e-05
6.49476246206e-06
1.25725847466e-05
4.50442232376e-07
1.33846119047e-05
6.18233179565e-06
1.38519427329e-05
1.26363042987e-07
5.22356898507e-07
1.40577945528e-05
7.10252623851e-06
2.55568031562e-07
1.46518107166e-05
1.11091288788e-06
5.2889489255e-07
2.7487875425e-07
3.47514662488e-06
1.69571168722e-05
2.5284051987e-06
8.02784877277e-07
1.44387618264e-05
1.52753033641e-05
2.89212603972e-06
3.17491581774e-07
1.18277596857e-06
1.69271232777e-05
1.63730058223e-05
2.44872270968e-05
5.2798794958e-05
2.71302274936e-05
7.57842484172e-07
2.92674705472e-05
4.08186083779e-05
4.38912744849e-05
4.16449160384e-05
2.80970344719e-05
4.20017934616e-05
4.02353767291e-07
5.9626587491e-06
2.31177819148e-05
1.18364736723e-05
7.31725449034e-06
1.42446017098e-05
1.72955421761e-05
5.23731789161e-06
1.49708445414e-05
9.49739917815e-06
4.87404567409e-06
1.05638622976e-06
1.04487847569e-05
2.51901189161e-05
2.56931147171e-05
1.35949830089e-05
7.47816423353e-08
8.65418674548e-06
1.2644521492e-05
3.0022123258e-05
1.20162761493e-05
2.25307314487e-06
2.27176468791e-06
1.28244899129e-05
7.98122167406e-06
3.92088764571e-05
3.98409034444e-05
1.64717774338e-05
2.08235030546e-07
1.84051561107e-05
1.12300199761e-05
3.1569429696e-05
3.33784995697e-05
1.36692253763e-05
5.56782567377e-06
1.47616250881e-05
7.03791035235e-06
1.69879707495e-05
2.50992977072e-05
1.90434021471e-05
5.95322327318e-06
1.151221707e-06
1.00948749523e-05
5.30830672192e-06
8.95660233413e-07
1.33328095731e-06
8.65053726451e-06
1.81931202484e-05
1.34066930738e-06
8.69789524643e-06
3.38271409548e-07
1.37243811221e-05
1.22651068317e-05
1.34581367068e-05
2.09148785944e-07
1.65689011805e-06
1.29554770275e-05
1.8145825898e-05
2.08280029197e-05
5.67302659462e-06
3.0168229692e-06
1.94848294592e-05
1.97184626826e-05
1.37171014662e-05
5.35602099681e-08
4.43725948181e-06
1.51068958844e-05
7.24784887079e-06
1.38450951205e-06
1.78121212041e-05
1.86277216164e-05
4.28041448173e-05
4.4241625415e-05
5.33649716637e-06
1.08290242323e-06
8.72801285801e-06
1.44099178309e-05
3.57543804998e-05
3.00974599791e-05
2.21987908152e-05
2.09609935775e-05
4.57976745645e-05
9.89339868688e-08
3.44321627796e-07
4.85011419317e-07
1.50359936557e-05
9.79982560777e-07
1.22597406428e-05
1.0737984129e-06
1.45208914345e-05
4.06902809126e-06
1.04097365891e-05
2.01398878096e-05
2.16084517068e-05
1.23980071166e-05
3.80774523726e-06
6.16490507203e-08
1.28300519671e-05
1.09446469092e-05
4.98651304115e-06
4.79008618355e-06

