# vtk DataFile Version 3.0
File Name: Molecule/sphere/sphere_0-s3.vtk
ASCII
DATASET UNSTRUCTURED_GRID
FIELD FieldData 1
TIME 1 1 double
0.0
POINTS 21 double
0.0 0.850650808352 0.525731112119
0.0 0.850650808352 -0.525731112119
-0.850650808352 0.525731112119 0.0
-0.525731112119 0.0 0.850650808352
0.525731112119 0.0 0.850650808352
0.0 -0.850650808352 0.525731112119
0.850650808352 -0.525731112119 0.0
0.850650808352 0.525731112119 0.0
-0.525731112119 0.0 -0.850650808352
-0.850650808352 -0.525731112119 0.0
0.525731112119 0.0 -0.850650808352
0.26286555606 -0.425325404176 -0.688190960236
0.0 0.0 -0.850650808352
-0.26286555606 -0.425325404176 -0.688190960236
0.0 -0.850650808352 -0.525731112119
0.688190960236 0.26286555606 -0.425325404176
0.425325404176 0.688190960236 -0.26286555606
0.26286555606 0.425325404176 -0.688190960236
-0.425325404176 -0.688190960236 -0.26286555606
-0.425325404176 -0.688190960236 0.26286555606
0.0 -0.850650808352 0.0

CELLS 38 152
3 0 1 2
3 0 2 3
3 0 3 4
3 3 5 4
3 4 5 6
3 6 7 4
3 7 0 4
3 8 9 2
3 1 8 2
3 3 2 9
3 10 11 12
3 11 13 12
3 11 14 13
3 12 13 8
3 8 13 9
3 14 11 6
3 10 11 6
3 12 8 1
3 10 15 6
3 6 15 7
3 7 15 16
3 15 17 16
3 15 10 17
3 16 17 1
3 7 16 0
3 16 1 0
3 1 17 12
3 10 17 12
3 9 18 19
3 18 20 19
3 18 14 20
3 19 20 5
3 9 19 3
3 19 5 3
3 5 20 6
3 14 20 6
3 14 18 13
3 13 18 9

CELL_TYPES 38
5
5
5
5
5
5
5
5
5
5
5
5
5
5
5
5
5
5
5
5
5
5
5
5
5
5
5
5
5
5
5
5
5
5
5
5
5
5

CELL_DATA 38
SCALARS cell_data_0 double
LOOKUP_TABLE default
6.89269250385e-06
0.000108833481637
0.00105561184671
0.000887772208912
0.000405239805653
0.000467940735775
9.11277233885e-05
1.28816551481e-05
1.97052906161e-05
3.03565882102e-05
1.74453417962e-05
9.24765041592e-07
0.000292831882143
4.85481730523e-07
3.09483937797e-06
0.000533328459997
9.09972580583e-06
8.1051869662e-06
1.31392487687e-05
2.64083410657e-05
1.38249425352e-06
3.10887155791e-06
5.0149379684e-06
1.84394677502e-06
5.20196419803e-05
1.3412391854e-05
1.59589705481e-06
5.00889891984e-08
1.60386315789e-06
5.05724263489e-06
0.000331177610548
1.35195302819e-05
4.13165746516e-05
7.21914573148e-05
5.58581865035e-06
0.000619723444413
0.00031636522642
1.07997179299e-06

