# vtk DataFile Version 3.0
File Name: Molecule/arg/arg_6.25-1.vtk
ASCII
DATASET UNSTRUCTURED_GRID
FIELD FieldData 1
TIME 1 1 double
0.0
POINTS 1074 double
-3.403 0.327 1.604
-3.458 0.149 1.214
-3.138 0.005 1.702
-3.19 -0.164 1.33
-2.981 -0.361 1.858
-3.036 -0.538 1.468
-3.398 0.034 0.803
-3.133 -0.274 0.938
-2.976 -0.654 1.057
-3.231 -0.009 0.408
-2.974 -0.315 0.561
-2.809 -0.697 0.662
-2.971 0.024 0.066
-2.725 -0.284 0.235
-2.549 -0.664 0.32
-2.984 0.046 0.042
-2.617 -0.045 -0.207
-2.63 -0.024 -0.229
-2.351 -0.22 -0.527
-2.365 -0.198 -0.55
-2.2 -0.483 -0.862
-2.216 -0.458 -0.889
-3.215 0.428 -0.189
-2.686 0.062 -0.328
-2.875 0.375 -0.517
-2.48 -0.047 -0.742
-2.657 0.246 -0.92
-2.39 -0.269 -1.153
-2.586 0.057 -1.35
-3.255 0.893 -0.375
-2.908 0.756 -0.67
-2.688 0.604 -1.063
-2.621 0.454 -1.509
-3.1 1.357 -0.484
-2.781 1.137 -0.759
-2.569 0.961 -1.147
-2.488 0.85 -1.602
-2.776 1.74 -0.497
-2.515 1.451 -0.77
-2.319 1.256 -1.157
-2.211 1.177 -1.613
-2.622 1.932 -0.429
-2.434 1.563 -0.734
-2.291 1.743 -0.67
-2.16 1.459 -1.077
-2.01 1.647 -1.011
-1.982 1.439 -1.492
-1.81 1.654 -1.416
-2.666 2.281 -0.134
-2.227 2.054 -0.482
-2.267 2.371 -0.214
-1.881 2.228 -0.637
-1.921 2.545 -0.369
-1.615 2.438 -0.879
-1.659 2.787 -0.585
-2.622 2.533 0.247
-2.227 2.6 0.132
-1.881 2.773 -0.023
-1.614 3.039 -0.203
-2.495 2.657 0.67
-2.111 2.713 0.516
-1.765 2.886 0.361
-1.488 3.163 0.22
-2.925 2.572 1.071
-2.251 2.77 1.005
-2.634 2.694 1.361
-2.033 3.002 1.293
-2.411 2.928 1.645
-1.863 3.333 1.507
-2.279 3.251 1.894
-3.186 2.284 1.521
-2.865 2.437 1.761
-2.64 2.674 2.039
-2.53 2.972 2.328
-3.419 1.801 1.788
-2.888 2.359 1.917
-3.122 1.876 2.185
-2.717 2.558 2.345
-2.979 2.017 2.644
-3.552 1.393 1.822
-3.202 1.735 2.161
-3.319 1.374 2.191
-3.094 1.732 2.585
-3.21 1.376 2.614
-3.107 1.793 3.017
-3.235 1.399 3.05
-3.548 0.964 1.825
-3.316 0.994 2.194
-3.206 1.001 2.617
-3.231 0.984 3.053
-3.408 0.559 1.798
-3.191 0.635 2.17
-3.084 0.647 2.593
-3.095 0.593 3.027
-3.105 0.348 2.085
-3.1 0.088 1.867
-2.97 0.105 2.152
-3.02 0.504 2.546
-2.901 0.29 2.606
-2.978 0.383 3.085
-2.865 -0.346 2.113
-2.52 -0.7 2.425
-2.789 -0.06 2.411
-2.48 -0.378 2.69
-2.828 0.19 2.745
-2.523 -0.123 3.02
-2.645 0.041 3.387
-2.483 -1.039 2.238
-2.249 -0.827 2.688
-2.214 -1.15 2.51
-2.072 -0.978 3.011
-2.036 -1.312 2.826
-2.003 -1.142 3.367
-1.962 -1.514 3.162
-2.359 -1.33 2.011
-2.096 -1.427 2.294
-1.914 -1.599 2.602
-1.826 -1.833 2.912
-2.159 -1.55 1.761
-1.905 -1.637 2.055
-1.716 -1.817 2.356
-1.606 -2.075 2.638
-1.897 -1.684 1.507
-1.655 -1.765 1.813
-1.457 -1.949 2.105
-1.318 -2.222 2.359
-1.592 -1.721 1.268
-1.365 -1.8 1.585
-1.156 -1.986 1.869
-0.984 -2.263 2.097
-1.926 -1.641 1.017
-1.351 -1.766 0.91
-1.664 -1.691 0.675
-1.133 -1.941 0.578
-1.457 -1.864 0.334
-0.96 -2.23 0.303
-1.327 -2.142 0.027
-2.203 -1.444 0.759
-1.923 -1.507 0.433
-1.726 -1.673 0.084
-1.631 -1.926 -0.256
-2.396 -1.15 0.52
-2.103 -1.231 0.209
-1.913 -1.387 -0.149
-1.843 -1.603 -0.519
-2.487 -0.785 0.321
-2.189 -0.889 0.022
-2.002 -1.032 -0.342
-1.943 -1.202 -0.738
-2.264 -0.668 -0.026
-2.322 -0.554 -0.027
-2.141 -0.611 -0.433
-2.203 -0.492 -0.433
-2.131 -0.618 -0.861
-2.114 -0.682 -1.181
-1.927 -1.264 -1.052
-2.312 -0.441 -1.376
-2.121 -0.506 -1.916
-2.042 -0.816 -1.214
-1.838 -0.886 -1.79
-1.682 -1.348 -1.746
-1.975 -0.256 -2.322
-1.864 -0.768 -1.888
-1.672 -0.441 -2.421
-1.897 0.192 -2.527
-1.57 0.147 -2.691
-1.996 0.646 -2.441
-1.495 0.306 -2.776
-1.602 0.798 -2.682
-1.198 0.386 -3.152
-1.328 0.981 -3.039
-2.011 1.039 -2.18
-1.619 1.224 -2.399
-1.348 1.496 -2.696
-1.72 1.257 -2.235
-1.631 1.561 -2.005
-1.259 1.801 -2.466
-1.479 1.817 -1.75
-1.107 2.057 -2.211
-1.346 2.153 -1.415
-1.642 2.007 -1.116
-1.319 2.584 -1.178
-0.816 3.013 -1.267
-1.159 2.356 -1.471
-0.676 2.767 -1.557
-1.087 2.175 -1.825
-0.583 2.604 -1.915
-0.543 2.537 -2.312
-0.229 3.384 -1.004
-0.488 2.934 -1.522
-0.105 3.176 -1.351
-0.228 2.93 -1.855
0.02 3.086 -1.745
-0.059 3.001 -2.236
0.134 3.123 -2.15
0.003 3.141 -2.63
0.229 3.284 -2.529
-0.048 3.337 -3.001
0.294 3.553 -2.848
0.466 3.148 -0.891
0.348 3.022 -1.277
0.313 2.987 -1.697
0.364 3.045 -2.112
0.497 3.193 -2.485
0.699 3.415 -2.782
0.833 2.913 -0.61
0.553 2.897 -1.196
0.905 2.671 -0.926
0.699 2.74 -1.539
1.067 2.504 -1.257
0.892 2.689 -1.891
1.303 2.425 -1.576
1.057 2.557 -0.305
1.12 2.33 -0.634
1.29 2.148 -0.952
1.553 2.026 -1.234
0.979 2.767 0.195
1.24 2.204 -0.113
1.167 2.404 0.362
1.539 1.918 0.039
1.462 2.128 0.539
0.737 2.845 0.68
0.936 2.478 0.823
1.22 2.206 1.024
0.406 3.093 0.833
0.701 2.629 1.02
0.405 2.851 1.157
0.756 2.48 1.392
0.466 2.698 1.526
0.897 2.411 1.765
0.584 2.646 1.91
1.112 2.426 2.108
0.748 2.699 2.276
0.102 3.399 0.689
0.142 3.058 1.218
-0.121 3.323 1.093
-0.01 3.117 1.656
-0.27 3.379 1.533
-0.034 3.266 2.099
-0.327 3.561 1.96
-0.29 3.571 0.538
-0.462 3.472 0.961
-0.606 3.526 1.403
-0.705 3.727 1.814
-0.721 3.587 0.398
-0.837 3.486 0.84
-0.976 3.54 1.283
-1.123 3.742 1.679
-1.138 3.445 0.287
-1.199 3.363 0.744
-1.333 3.418 1.189
-1.525 3.605 1.572
-1.502 3.118 0.685
-1.632 3.177 1.131
-0.05 3.403 2.531
0.304 2.919 2.221
0.288 3.057 2.654
0.729 2.855 2.766
-0.175 3.437 2.964
0.162 3.091 3.09
0.587 2.894 3.259
-0.395 3.364 3.353
-0.059 3.019 3.48
0.337 2.812 3.701
-0.687 3.194 3.654
-0.352 2.847 3.783
0.006 2.617 4.044
-1.13 3.18 3.766
-0.58 2.815 3.881
-1.094 2.799 4.011
-1.584 3.151 3.721
-1.62 2.766 3.959
-1.995 3.111 3.523
-2.096 2.719 3.73
-2.312 3.063 3.198
-2.464 2.664 3.352
-2.498 3.015 2.783
-2.679 2.608 2.871
-0.749 2.537 4.164
-0.16 2.345 4.321
-0.912 2.194 4.368
-0.321 2.009 4.521
-1.061 1.806 4.483
-0.466 1.628 4.634
-1.364 2.231 4.354
-1.452 1.611 4.604
-1.713 1.977 4.492
-1.735 2.528 4.103
-2.033 2.233 4.276
-2.128 2.66 3.763
-2.373 2.347 3.982
-2.496 2.611 3.374
-2.69 2.305 3.646
-2.791 2.388 2.985
-2.945 2.113 3.311
-1.464 1.095 4.666
-0.956 1.592 4.533
-0.968 1.074 4.596
-0.48 1.041 4.705
-1.655 0.731 4.634
-1.079 0.886 4.596
-1.26 0.541 4.565
-0.689 0.687 4.666
-0.881 0.322 4.633
-0.333 0.517 4.869
-0.555 0.096 4.831
-2.027 0.463 4.516
-1.383 0.368 4.531
-1.728 0.119 4.423
-1.114 -0.009 4.584
-1.476 -0.27 4.469
-0.878 -0.357 4.785
-1.3 -0.661 4.651
-2.342 0.241 4.242
-2.019 -0.087 4.169
-1.783 -0.487 4.202
-1.658 -0.914 4.34
-2.557 0.093 3.848
-2.219 -0.224 3.803
-1.993 -0.631 3.818
-1.903 -1.082 3.892
-2.301 -0.273 3.375
-2.078 -0.682 3.368
-0.557 -0.612 4.999
-0.228 -0.165 5.05
-0.202 -0.89 5.102
0.134 -0.447 5.155
0.164 -1.171 5.088
0.507 -0.734 5.141
0.347 -1.566 4.993
0.615 -0.976 5.092
0.789 -1.35 5.001
1.043 -0.806 5.264
1.226 -1.201 5.169
0.533 -1.916 4.791
0.965 -1.683 4.809
1.412 -1.551 4.967
0.709 -2.198 4.495
1.133 -1.951 4.529
1.588 -1.833 4.672
0.864 -2.393 4.127
1.28 -2.136 4.179
1.743 -2.029 4.303
0.987 -2.488 3.71
1.397 -2.227 3.783
1.866 -2.124 3.886
1.07 -2.477 3.273
1.475 -2.216 3.368
1.949 -2.112 3.449
1.107 -2.36 2.845
1.511 -2.104 2.962
1.986 -1.995 3.021
1.096 -2.144 2.456
1.5 -1.9 2.592
1.975 -1.78 2.632
1.037 -1.846 2.131
1.444 -1.616 2.284
1.916 -1.481 2.307
0.738 -2.198 2.121
0.836 -1.714 1.711
0.588 -2.005 1.702
0.77 -1.662 1.233
0.54 -1.933 1.225
0.848 -1.697 0.757
0.6 -1.988 0.748
1.061 -1.813 0.337
0.762 -2.165 0.327
0.341 -2.433 2.111
0.259 -2.2 1.694
0.235 -2.113 1.218
0.272 -2.183 0.74
0.364 -2.4 0.317
-0.112 -2.527 2.103
-0.115 -2.278 1.688
-0.112 -2.185 1.212
-0.103 -2.26 0.734
-0.088 -2.494 0.31
-0.57 -2.468 2.098
-0.494 -2.229 1.684
-0.464 -2.14 1.209
-0.482 -2.211 0.73
-0.546 -2.435 0.305
-0.837 -2.059 1.682
-0.782 -1.983 1.207
-0.825 -2.042 0.728
1.48 -1.078 0.031
1.028 -1.535 0.641
1.346 -0.978 0.409
1.078 -1.33 0.996
1.331 -0.887 0.812
1.205 -1.217 1.373
1.436 -0.812 1.205
1.4 -1.205 1.737
1.652 -0.762 1.553
1.644 -1.296 2.058
1.961 -0.739 1.826
2.335 -0.746 2.002
1.639 -0.712 -0.547
1.451 -0.719 0.207
1.594 -0.39 -0.313
1.526 -0.39 0.423
1.664 -0.072 -0.079
1.697 -0.118 0.66
1.842 0.216 0.134
1.696 -1.103 -0.765
1.721 -0.524 -0.905
1.774 -0.881 -1.103
1.914 -0.328 -1.213
1.966 -0.68 -1.408
2.201 -0.141 -1.444
2.257 -0.517 -1.652
1.645 -1.46 -1.037
1.727 -1.206 -1.352
1.92 -1.0 -1.653
2.207 -0.859 -1.914
1.488 -1.753 -1.343
1.584 -1.473 -1.631
1.779 -1.262 -1.928
2.057 -1.14 -2.207
1.239 -1.959 -1.658
1.357 -1.661 -1.918
1.555 -1.448 -2.211
1.818 -1.338 -2.51
0.916 -2.062 -1.958
1.063 -1.755 -2.191
1.266 -1.54 -2.479
1.509 -1.437 -2.797
0.547 -2.053 -2.217
0.726 -1.747 -2.428
0.934 -1.532 -2.712
1.154 -1.428 -3.046
0.159 -1.934 -2.416
0.372 -1.638 -2.609
0.586 -1.425 -2.891
0.782 -1.314 -3.237
-0.216 -1.714 -2.539
0.031 -1.437 -2.721
0.25 -1.227 -3.001
0.423 -1.103 -3.355
-0.548 -1.409 -2.576
-0.272 -1.16 -2.755
-0.048 -0.954 -3.034
0.104 -0.811 -3.39
-0.822 -1.287 -2.506
-0.408 -0.948 -2.806
-0.669 -0.831 -2.739
-0.336 -0.591 -3.197
-0.616 -0.466 -3.125
-1.158 -1.334 -2.315
-0.988 -0.705 -2.664
-1.33 -0.753 -2.469
-1.449 -1.354 -2.058
-1.627 -0.774 -2.207
-1.322 -0.31 -2.728
-0.95 -0.071 -3.189
-0.33 -0.315 -3.523
0.111 -0.551 -3.697
-0.251 0.008 -3.791
0.185 -0.248 -3.95
-0.104 0.358 -3.987
0.323 0.082 -4.134
0.101 0.716 -4.098
0.516 0.418 -4.238
-0.411 1.252 -3.909
0.252 1.048 -4.202
-0.118 1.435 -4.065
0.377 1.347 -4.4
0.11 1.626 -4.301
-0.398 1.946 -3.588
-0.108 1.937 -3.833
0.117 1.987 -4.134
-0.712 2.237 -2.975
-0.187 2.28 -3.528
-0.425 2.5 -3.065
-0.042 2.651 -3.554
-0.227 2.824 -3.192
0.028 3.029 -3.665
-0.135 3.18 -3.347
-0.298 2.727 -2.563
-0.128 3.001 -2.799
0.9 3.106 -3.671
0.147 2.667 -3.761
0.845 2.729 -3.765
0.177 2.31 -3.921
0.876 2.372 -3.926
0.989 2.064 -4.14
1.128 2.855 -3.473
0.819 3.383 -2.845
1.063 3.077 -2.811
1.418 2.615 -3.364
1.354 2.837 -2.702
1.749 2.404 -3.353
1.668 2.681 -2.526
0.858 3.054 -2.621
0.721 3.091 -2.55
0.962 2.795 -2.335
0.787 2.842 -2.245
1.123 2.627 -2.01
1.688 2.19 -1.733
1.386 2.606 -2.284
1.794 2.29 -2.083
1.962 2.454 -2.382
2.133 1.624 -1.992
2.116 1.881 -2.27
2.194 2.159 -2.516
2.141 1.301 -1.585
2.428 1.273 -2.257
2.435 0.969 -1.874
2.042 0.907 -1.262
2.342 0.599 -1.57
1.981 1.32 -1.261
1.884 0.909 -0.851
1.83 1.271 -0.85
[...]
CELL_DATA 2144
SCALARS cell_data_0 double
LOOKUP_TABLE default
1.7465664057e-09
2.55060452685e-10
6.51327333388e-10
1.50816134373e-10
2.14045382305e-09
1.23883010994e-09
2.11646095786e-10
6.49250515822e-10
5.49618348553e-10
1.57236864641e-09
1.22714726043e-09
1.11968106562e-09
8.56166136793e-10
6.77160068387e-10
1.24514951331e-09
4.21990787201e-10
2.17713659695e-11
4.44433719324e-11
2.58413369066e-11
6.82215567669e-11
1.5724592802e-11
2.8778019435e-10
1.09605958611e-09
3.19557591495e-10
7.70843016037e-10
1.68476372184e-09
2.04206904759e-09
4.56717127853e-09
1.36699912738e-09
4.07740154706e-10
2.23545420561e-09
5.02945862693e-09
3.229790696e-09
7.73981176615e-09
4.80887767393e-09
2.06449683042e-08
1.67604361755e-08
1.36580930157e-08
2.80855094602e-09
2.26840184387e-08
2.46720126835e-08
1.89561120294e-08
1.73814643223e-08
3.69227080613e-09
1.09670305906e-08
1.53191657757e-08
3.32130580509e-09
9.3554890848e-09
1.01359377013e-09
5.38605718697e-10
8.05430486133e-09
9.37319411055e-09
1.19962303042e-09
2.76059924047e-09
5.59125888497e-09
9.44065790261e-09
3.63803953457e-09
4.77356688014e-09
3.38990762097e-09
8.85793612857e-10
3.21146251363e-09
2.35382568051e-10
2.03931987637e-09
3.22965472744e-09
2.45358788023e-08
2.08359756046e-08
2.79186718674e-09
5.50006413276e-09
3.82248438195e-09
3.26341726776e-09
3.20883814023e-08
6.55444372072e-09
2.76121881212e-09
3.68266262688e-09
5.88531751375e-08
6.23976393895e-08
1.64201152985e-08
1.41485828761e-08
7.86824142602e-09
2.67869498066e-09
2.48288805089e-09
4.86419450054e-08
1.86750426602e-08
2.57165443752e-09
3.36724107861e-08
4.37945652283e-08
8.48346972247e-10
1.72467644495e-09
2.05402824219e-09
4.15172351644e-09
1.53296674368e-09
1.16539419536e-09
2.14073997844e-09
8.9260096592e-10
1.09943824726e-09
6.97584507116e-10
3.11759715885e-09
1.45466606034e-09
3.47247216879e-09
5.26153900829e-09
3.56581615898e-09
7.78360144757e-09
7.96160372285e-09
8.93236489181e-09
1.59990433394e-11
5.69715580362e-10
2.68642213329e-09
2.35161834598e-09
3.11636242737e-09
4.53412828259e-09
6.43680693372e-10
1.19546514772e-10
3.82816813333e-08
3.72384529061e-08
1.37177950593e-08
3.09016441246e-08
3.09272992874e-08
2.45261502391e-09
3.99627418353e-08
1.74729421756e-07
2.28264883751e-07
2.26661858227e-07
9.61243590289e-09
3.19089187206e-09
1.83183316112e-07
2.14243831323e-07
2.06548006041e-07
6.59364090434e-10
3.52319204352e-10
4.81906763441e-09
2.61496720222e-09
3.06085973067e-09
1.4899036182e-09
1.24889157333e-10
4.87378880153e-09
6.43403836876e-09
6.60119534492e-09
2.7527570001e-09
1.19765967342e-09
1.85899244484e-09
1.65971170906e-09
7.95855736634e-10
2.82215408123e-09
8.53779469277e-10
1.36307416004e-09
1.62222478934e-09
1.19329886117e-09
4.38366151499e-10
1.15613156868e-09
9.91625390431e-10
7.39760611399e-10
2.47312108576e-09
2.42445743583e-09
4.75435064956e-10
4.50854521507e-10
2.27713177876e-09
2.48246959707e-09
1.21462664777e-09
1.76063122747e-09
2.80278496745e-09
3.50662120392e-09
1.30205134647e-09
9.99259303253e-10
2.53677035178e-09
1.05142237498e-09
1.95718826221e-10
3.93920334154e-10
7.1417092071e-10
1.28083257348e-09
1.76201522418e-10
3.79840925861e-10
1.12221372038e-09
8.61948015116e-11
8.19732399407e-11
3.57761522616e-10
3.81920701555e-10
3.07215417086e-10
1.15109510438e-10
1.30952939088e-09
4.90558460417e-10
2.06710520652e-09
6.75105361113e-10
4.54128535949e-09
5.9364046172e-09
1.53849023607e-09
3.04557081311e-09
5.16431802712e-09
2.27332220919e-09
2.52595040078e-09
1.60063583067e-09
2.14399051091e-09
2.62516705163e-10
1.79976709214e-10
3.06581620373e-10
3.76374251562e-10
4.33605331167e-10
1.35855885362e-10
1.19967274241e-10
1.01146498052e-09
2.30867299372e-09
4.77496915869e-10
8.87407040293e-10
1.20743707035e-09
1.7593384838e-09
1.26029826203e-08
9.85843889508e-09
3.48961903961e-10
4.42592110651e-09
2.37335942257e-10
1.0052298417e-09
7.11116598591e-11
2.29943617603e-11
5.25529542338e-10
1.19477409646e-09
8.77520760973e-10
9.24653128198e-10
1.27011530632e-10
3.10052104427e-10
1.42874594177e-09
8.3183533138e-10
4.38908046815e-10
1.49748427588e-10
7.34330146832e-11
3.60149336903e-11
9.44676041278e-10
1.65787017871e-10
3.8449962528e-10
5.5341714623e-10
3.77249075855e-10
4.83097034804e-11
1.22097288596e-10
7.85323320486e-11
5.52312133453e-12
8.1184116273e-10
5.20891182868e-10
1.30959204851e-09
2.37801038569e-09
1.71701697327e-09
3.21719521884e-10
4.16864484518e-10
4.35154929776e-10
1.74450477321e-09
1.75838343649e-09
2.7889824535e-10
3.86771885179e-10
2.46696414205e-10
4.71233631715e-10
3.06483204809e-10
2.37804297844e-11
3.212917071e-10
1.65820774099e-10
4.22248813439e-10
4.95129462205e-10
3.59070531934e-11
4.0672612961e-10
9.36263326141e-10
7.31402905375e-10
1.10379220577e-09
1.51216862306e-09
8.81144035111e-10
1.02040168857e-10
2.18834250408e-10
2.270707111e-10
4.00816703553e-10
7.63142227583e-11
6.92550967992e-10
2.39469376737e-10
8.2590928005e-10
8.18936802773e-10
6.28340983594e-11
3.89822752024e-10
1.09092747929e-10
7.2024171734e-10
2.8380737317e-09
8.91346089031e-10
1.5899896528e-10
1.38854923105e-09
1.28542218649e-09
1.85477338608e-09
1.80999945395e-09
6.31963413641e-10
5.72714671044e-10
1.17271927502e-09
9.6625809683e-10
8.46046282833e-10
2.30218203665e-10
3.7147169771e-09
3.14985710693e-09
4.59155058148e-10
3.86443868639e-10
2.42732347961e-10
3.6400198309e-08
1.01482270276e-09
1.07340704e-09
1.68160534591e-10
3.61602603012e-10
1.42435615001e-10
2.10405162665e-10
1.37590824008e-09
1.94554920138e-09
3.38359065313e-10
9.29710898071e-10
6.44698908957e-12
7.94194146374e-10
2.21858568599e-09
1.33926559997e-10
8.58106050897e-10
3.59473280598e-09
5.62092840063e-10
1.68448655735e-09
2.88089978519e-09
9.17593081131e-10
1.29190514865e-10
7.55470937867e-10
4.74959854175e-10
8.49361443778e-10
6.72906817743e-10
8.98665509653e-10
2.71052645255e-08
6.08245158352e-08
1.62065274667e-09
6.64642545021e-10
2.49373069273e-10
6.81381564651e-10
4.22762190761e-10
1.70902830878e-09
1.29096614422e-09
3.35461853485e-09
4.01071562126e-09
4.74655804983e-10
5.55170272703e-10
5.40421399189e-09
5.75248108481e-09
4.08606025644e-09
4.69388250439e-09
7.09471449798e-09
2.03508739872e-08
1.12649184628e-08
1.88582333585e-09
2.89556364869e-09
1.17937547579e-09
4.4870113476e-10
2.33755575348e-09
1.3124149438e-09
6.58245118975e-11
2.24247363542e-09
3.41320653884e-09
2.55160592827e-09
1.49306050221e-09
1.02301805216e-09
7.67659992937e-10
1.20804648994e-09
2.43763676749e-10
9.1920044639e-10
2.47627535973e-09
3.5392478031e-09
2.41407542724e-10
1.63014049015e-09
1.31960070887e-09
1.8523340153e-10
3.33659933631e-09
2.995199984e-09
2.10377111807e-09
2.27298534023e-09
1.18271241393e-10
2.804417808e-10
2.46530000899e-09
9.43320823195e-10
1.59014745543e-09
2.10059574539e-10
2.89460360866e-10
6.37413836031e-10
9.98194075392e-10
9.49640023888e-11
1.98133967895e-10
6.83987150498e-10
2.93765562672e-09
1.34264462679e-09
1.51555323858e-09
9.44292058967e-10
9.00240853909e-10
1.07502611994e-09
1.69473062543e-09
8.42113288224e-10
3.06852538977e-10
3.94526665902e-10
1.10513624579e-09
5.49279679095e-10
3.48014637878e-10
3.31085824999e-10
3.65258910049e-10
2.16412843447e-09
1.19930216859e-09
9.96617809014e-10
4.04888611718e-09
9.26727729271e-10
2.94595858366e-09
5.69817685027e-09
1.24774743875e-10
4.49722418601e-09
8.00011445288e-09
2.71580479706e-09
1.83494736468e-10
2.93674568534e-09
1.96154204605e-09
1.77639367414e-10
8.22993507331e-10
6.94496043625e-11
1.87505793527e-09
8.22898849879e-11
1.48893865854e-09
2.11297313756e-09
2.30629610542e-09
2.89269833804e-09
4.59801154172e-10
6.93649647673e-10
1.02777717907e-09
6.16029317574e-10
1.82678256387e-09
1.86666257095e-09
9.56047256429e-10
5.23672627206e-10
1.38838049278e-09
2.77168969025e-10
1.72948669975e-09
1.83639412317e-09
9.91427901393e-10
6.66430542239e-10
8.63230412663e-10
6.59372352912e-10
2.18750333387e-10
2.3498641045e-11
3.1758655977e-11
2.18887750887e-10
9.80059010448e-10
3.71011824371e-10
2.9649562452e-10
1.16803213558e-09
6.90758086581e-11
5.9329609826e-10
8.43595843932e-10
2.64209665531e-10
2.3412078737e-10
3.21311338411e-11
6.61930162731e-11
2.62186662258e-10
7.307414762e-11
5.72084777381e-10
4.7477012906e-10
3.10939850012e-10
1.23887112135e-10
4.01711244689e-11
1.71478750844e-10
2.93640380581e-10
5.10980977583e-11
7.50962837011e-10
3.07511145251e-11
4.58040862056e-11
6.54932512049e-11
3.85819650696e-11
1.07038761939e-10
1.85565809158e-10
1.71285847046e-11
4.70689160086e-10
4.16246086061e-11
5.39667113319e-10
9.69510559112e-11
1.00337204695e-09
7.3002035698e-10
2.9643654e-10
3.21193513044e-10
1.04380140758e-09
1.32031233803e-09
1.91287545393e-10
1.75794713856e-10
1.22671033856e-11
1.43616762212e-09
2.31603629621e-09
9.91084805736e-10
1.15227318845e-09
1.44114858959e-10
5.23439365587e-10
1.33805549989e-09
6.34999712533e-10
1.81712267686e-10
9.26014526835e-10
2.45951476914e-10
2.41994678062e-10
8.14686681277e-10
1.78425200069e-09
5.53185193569e-09
5.74504368712e-09
8.95449111483e-10
5.20999323284e-10
1.47473465825e-09
2.59526408763e-10
5.39641993124e-09
7.74751786858e-11
1.56752255009e-10
6.06597001504e-10
1.48807040348e-09
3.08169654424e-09
1.49193694843e-09
2.54752393924e-10
6.14998979476e-10
3.10449265158e-09
3.21066200121e-09
8.44018061259e-09
4.06224428995e-09
1.5861650107e-08
7.46908833896e-09
4.28074703751e-09
1.16802018367e-08
7.44932981917e-08
1.44633871688e-08
4.03825001521e-08
3.91643271784e-08
3.21609217281e-08
1.1912358033e-08
2.05812610638e-08
5.43503371226e-08
4.46802053161e-08
4.48121596874e-08
1.06492793029e-07
9.8999655713e-08
5.78252916601e-09
4.08635325365e-08
5.83957446905e-08
6.03184703017e-08
1.32443503105e-08
5.96061247033e-08
1.98723321066e-09
1.40014032868e-08
5.65813655699e-08
1.47046783995e-08
2.30851437987e-08
1.42459212611e-07
2.00242776448e-07
2.18637990017e-07
3.82588670492e-08
2.29234197146e-08
1.59074256925e-08
1.7031594744e-08
4.42539976177e-08
1.31719423167e-07
2.39427289853e-07
1.59130593498e-07
2.54296114312e-07
8.97987828927e-08
1.05402104863e-07
6.124198384e-08
8.17936200078e-08
8.81427664209e-08
7.87213645732e-08
1.75889692048e-07
9.54934308816e-08
1.36243389345e-07
1.0900495392e-07
1.82648524612e-07
3.16494219403e-08
3.21374982891e-08
1.40163208842e-09
4.50488821735e-08
3.41051286737e-08
4.59089999005e-08
3.93335677472e-08
6.19316865322e-10
3.90910750746e-09
7.32970126369e-08
5.66316094382e-08
7.30342052901e-08
6.79036663992e-09
1.33054120811e-08
6.49999646654e-09
4.61447950049e-09
1.15887263995e-09
2.06566851082e-09
4.27723717053e-09
6.31682057605e-09
8.80381885225e-10
1.99564191178e-10
5.47786796954e-10
2.86402012852e-10
1.89965699984e-09
2.19198248726e-09
2.70706546938e-09
5.44220787169e-09
8.65745623764e-09
1.47094554404e-09
5.47394992976e-09
1.52941471707e-09
4.44297459135e-09
4.13865784708e-09
3.80204490024e-09
1.84393540924e-09
2.63713473347e-09
7.03122931819e-11
2.24555944214e-09
3.0948134935e-09
4.21448863722e-09
1.77522603447e-09
2.7376013752e-09
2.00674729675e-09
3.58659206417e-09
3.51875564627e-09
1.32411667445e-09
2.33226844191e-09
1.50006144456e-09
5.53488455993e-10
1.16549942703e-09
3.2421303088e-09
2.45403606268e-09
1.11614455081e-09
1.14293195561e-09
6.93206099253e-10
6.12746678177e-09
4.5385265816e-08
5.45406747177e-08
5.00392597226e-08
1.08903787821e-08
1.56457834598e-08
5.69073615101e-10
7.03262607757e-09
6.39794629184e-08
4.26885489193e-08
4.97859894387e-08
5.91231113436e-09
2.45186954372e-08
7.22118365269e-08
3.86037607296e-08
3.13490337501e-08
9.8110860952e-08
3.61227770151e-08
3.84598241516e-08
1.41219835756e-09
3.02657759219e-08
5.81264171192e-08
3.54289121844e-08
6.7496391422e-08
5.56606939863e-08
1.09085859257e-07
1.90702534016e-07
1.04357474682e-07
8.4077012782e-08
7.1211244694e-08
7.46998475209e-08
2.66826784397e-09
5.74064747307e-11
4.6548478891e-10
6.64818521686e-12
3.13063123567e-10
3.79519467457e-10
7.4073407464e-11
7.56690372968e-10
6.15337519098e-11
4.56125118819e-11
1.48947163194e-10
6.44957039236e-10
1.35201257392e-10
9.0094264007e-10
1.35396395729e-09
4.62877137883e-10
1.27080600183e-10
1.1924369375e-10
4.15328886398e-10
6.56754379904e-10
1.26193952935e-09
9.22320520672e-10
5.90305376345e-10
4.34546709761e-10
1.23049807256e-09
6.32404608008e-10
1.26244618317e-09
6.89247112469e-10
7.2954597321e-10
8.39380920835e-10
5.32600473662e-10
2.59527721155e-09
1.17670023585e-09
7.85814586279e-10
1.17387850326e-09
1.69677373203e-09
1.28621086057e-09
2.58917096315e-10
1.03765108e-10
1.14990620532e-09
1.26482265322e-09
6.60659542671e-10
1.27847030122e-10
8.05829882816e-10
2.30389479309e-09
2.07910478086e-09
2.79120000917e-09
1.35214639354e-09
9.12235003177e-09
5.90354166023e-09
1.68877904986e-09
7.21957512452e-09
9.232209611e-09
7.04642187919e-09
6.56665987561e-09
1.0948397247e-09
5.40564727532e-09
1.26064028046e-08
1.14103745418e-08
1.9995953502e-09
1.63514947566e-09
3.90716639758e-09
3.55802324707e-09
2.80643452414e-09
1.1453486236e-09
2.36976931315e-10
1.53138947771e-09
3.46163140965e-10
2.83384144522e-10
1.35102041107e-10
1.44085941436e-10
3.89435890452e-10
7.18101054301e-10
9.16328109395e-10
4.29762167337e-11
7.26188997026e-10
1.05085866909e-10
6.76508577065e-10
4.09202613146e-10
7.55409021361e-10
1.23367933703e-09
1.10782719607e-10
1.03165146369e-09
1.02859836195e-09
5.80301523577e-10
7.72579150002e-10
3.97471991518e-10
7.75864548904e-10
3.49002973488e-10
8.68895925748e-10
6.60169262339e-10
4.50609772372e-10
1.44181136472e-09
5.66232428448e-10
5.90849371408e-10
6.82904548459e-10
5.69522544073e-10
2.05076567492e-09
2.73925064873e-09
1.42817726091e-09
1.65340590881e-10
5.15473596246e-10
1.20959678115e-09
5.55063546736e-09
6.5821404127e-09
4.3899339583e-09
1.1534420729e-09
1.16529831309e-08
1.01331132508e-09
8.66289983241e-09
3.78233350742e-09
4.46017079578e-09
5.60132828461e-09
9.54744362862e-09
4.81298872337e-09
3.3692500698e-09
2.6429315331e-09
4.17448650722e-09
2.65003858901e-10
1.58398884214e-09
4.00232290719e-08
2.29673855762e-08
3.97774804926e-08
1.65853776812e-08
9.83869300481e-10
5.26847462884e-09
3.3390160556e-09
3.58735493272e-09
1.30818107381e-10
1.0049937936e-10
1.8076830603e-09
3.15193348256e-09
5.63525858261e-11
1.86357732827e-09
1.36430036325e-08
2.13330411072e-09
2.39404868482e-08
2.44421950189e-08
2.17237096167e-09
6.65741816309e-10
4.5907604125e-10
1.45673813727e-08
1.1297752581e-08
1.26008729272e-08
3.35792667474e-09
4.80437036254e-10
3.50007746649e-11
1.94208004682e-10
2.47377163119e-10
1.20626199684e-10
5.46963964841e-10
3.87118220813e-10
1.01388624882e-09
1.23864102269e-10
8.5777585909e-10
3.4364972183e-10
8.35091553591e-10
1.86511652255e-09
1.29281550406e-09
1.6157220038e-09
6.90258273409e-10
7.97014302256e-11
1.49933903419e-10
2.13031907737e-11
6.28646897235e-10
1.28799923078e-09
5.56888644441e-10
4.71422827103e-10
5.95412727199e-11
3.46462324268e-11
3.41974739918e-10
3.13654206379e-10
5.52459046592e-10
1.31040879962e-10
3.28869527904e-08
3.04077906306e-08
1.60961244927e-08
1.48968400072e-09
2.79983763739e-09
4.75365173562e-10
1.09284553014e-10
3.60329248258e-10
3.95428181181e-10
1.63895123421e-10
3.43988684614e-10
1.40110864288e-09
1.30351038631e-10
8.88155931878e-10
7.04558344164e-10
2.43887743544e-10
3.12805682826e-10
5.69635436018e-10
1.80620182925e-09
1.87271992036e-09
1.46424520724e-09
1.43464026854e-10
2.76593529361e-10
4.10103950724e-10
1.08617972595e-10
3.85729488664e-11
1.62123583245e-09
7.70580217096e-10
1.08807326755e-09
2.83452038395e-10
2.91561522586e-10
3.9726925108e-10
9.063708797e-10
8.85513106852e-10
3.25585158878e-09
3.25040679614e-10
2.3150428678e-09
7.92080901193e-10
3.15887988235e-10
4.36624449626e-10
1.6434870279e-10
1.10016170597e-10
3.5066522367e-10
2.87920577879e-09
2.41475835813e-09
1.86086018856e-10
1.58562805727e-09
1.73002160619e-09
1.81233573609e-09
5.22741483653e-10
1.50306523408e-10
9.30464620698e-10
6.81389647932e-10
6.29400698177e-10
1.49296656601e-09
6.14898770375e-10
7.62101861147e-10
7.42007914036e-10
6.52497916314e-11
9.41933175393e-10
5.61228762635e-10
6.26138018038e-10
6.13106429845e-10
8.95306640734e-10
1.38893499101e-09
1.34447324168e-09
1.15718347734e-10
8.67085276817e-10
6.55514166414e-11
4.6314058601e-10
7.80432534967e-10
4.0299415926e-10
3.10300539251e-10
2.50069222831e-10
1.26409763867e-09
7.04922673566e-10
9.00129018222e-10
6.0054233872e-10
2.78150687871e-10
5.28131292159e-10
6.04592885694e-10
1.15748471718e-09
1.6439793586e-10
1.49887262626e-08
7.60279901767e-09
1.94889144188e-08
7.55558437537e-09
1.26201532319e-08
5.20800546727e-09
4.23933530718e-09
8.77205507538e-10
8.40954341263e-10
6.4474715925e-10
9.24096154897e-10
3.9310375124e-10
1.02563225721e-08
4.53200293647e-08
2.81770267557e-08
3.24186527788e-08
1.67470109442e-08
1.21003982572e-08
1.49779983569e-09
1.41934900193e-08
1.36663383516e-08
2.83007626857e-08
9.02373594565e-08
1.65565005258e-07
5.18523835678e-08
4.44993499451e-08
5.45302153217e-08
2.41258187249e-09
6.28263490155e-10
4.7407128992e-09
1.99803324658e-09
1.61429866589e-09
1.13165696871e-09
6.41570898522e-09
5.12646063226e-09
3.42268406417e-09
1.73226613666e-08
1.30377028412e-08
2.79750348954e-09
1.22866527955e-08
1.11822090722e-08
1.57989517451e-09
9.8387429089e-09
1.25135318091e-08
2.8148178987e-08
2.63601379403e-08
4.52086146867e-08
2.7263592431e-09
7.4935100024e-10
2.05023238216e-09
3.85890426179e-09
1.2824057957e-09
1.32521495349e-09
3.16252432528e-09
2.83556755305e-09
4.08588023634e-09
9.88132910304e-10
2.55813750729e-09
9.04103134653e-10
7.62994199275e-10
7.01005226221e-10
3.40606388041e-10
1.77328042048e-09
1.23302815986e-09
4.26001342156e-10
9.32436980941e-10
2.49520567222e-10
5.72658018519e-11
9.7430741127e-10
1.32014377951e-09
1.23673922007e-09
6.24443904587e-10
1.99323412832e-10
4.03787012309e-10
1.93001584078e-10
1.31673378364e-09
2.11812257795e-10
9.07484799314e-10
8.6192781484e-10
5.88169746066e-10
5.8560557608e-10
1.12140947866e-09
1.29776053072e-09
1.1726681186e-09
1.36491246474e-10
8.81154546316e-10
1.16611931948e-09
1.1338618483e-09
4.41653163674e-10
5.79262775991e-10
9.41328985376e-10
7.0623793222e-10
5.41847438762e-11
7.57630023694e-10
1.5441529246e-10
1.73924569231e-10
1.21020846953e-10
3.83797487363e-10
3.06391029149e-10
3.84905960855e-10
1.08630643991e-09
1.21583668608e-09
7.80797852605e-10
4.88512468347e-10
1.16363461655e-09
8.79794648891e-10
2.5379104061e-10
3.75087181845e-10
3.21491166755e-10
8.86850545439e-10
1.26810280621e-09
2.59720795462e-09
9.54661111866e-10
4.49048758672e-10
1.20057264568e-09
1.01561098554e-09
5.96581616224e-10
1.59498987379e-10
1.38655554325e-10
9.03279824969e-10
3.65367886804e-10
3.46901720022e-11
3.72856762471e-10
5.34977035045e-11
4.2567260337e-10
1.107990377e-10
8.80000650156e-11
1.10503979931e-10
3.91215272244e-10
2.37181988615e-10
7.03265820445e-10
1.39975889217e-08
1.63638634834e-08
2.53710301179e-10
9.44187722438e-11
1.72263264039e-08
2.25207044117e-08
2.69797666632e-08
3.07490715857e-09
3.97958547463e-09
2.93010140741e-10
5.12433653747e-09
2.95746676243e-09
3.2267631507e-09
3.06943790657e-09
3.13312932216e-09
3.42511139966e-09
1.30022646419e-10
1.31578930677e-10
1.40891606388e-09
6.16878199519e-10
1.9266669528e-09
2.39751386698e-10
1.75544299993e-10
1.59791572924e-09
1.55819657397e-09
1.0127007274e-09
2.3088437768e-10
9.78961085397e-10
7.97453836113e-10
3.89021226865e-09
2.90379730923e-09
3.80087553346e-09
3.22979941386e-10
5.43008702595e-08
4.76314266303e-08
6.5121634296e-10
1.70240928793e-10
1.68247687738e-09
1.69585371179e-09
2.02107498653e-09
5.56696877529e-10
1.73654075276e-10
1.08409518714e-09
4.044069246e-08
2.12395823025e-09
2.06158213298e-09
3.7791997236e-11
8.52630269257e-10
4.50410921276e-11
2.84982076015e-10
1.41117758613e-09
1.9974411014e-09
3.8459504645e-10
2.13963721965e-09
7.73605768921e-09
6.72920934306e-09
3.38445385211e-10
1.24298001166e-09
3.99694008686e-10
8.25769948099e-10
1.78965646147e-10
2.08682569121e-09
4.06984515293e-09
1.39678928927e-09
2.56447133328e-09
2.52873806646e-09
1.21978884412e-09
2.63608737453e-09
1.58475806077e-08
1.08077194659e-08
1.74054045143e-08
1.38544433638e-09
1.00990081284e-08
1.05292430385e-08
3.08062820947e-09
9.66611145863e-10
1.7848171841e-09
2.65280821652e-09
2.09941280477e-09
1.54989125424e-09
1.26264713729e-09