# vtk DataFile Version 3.0
File Name: Molecule/arg/arg_0.5-2.vtk
ASCII
DATASET UNSTRUCTURED_GRID
FIELD FieldData 1
TIME 1 1 double
0.0
POINTS 149 double
-3.4393882751 0.24419808388 1.426461935
-3.0821573734 -0.12025417387 0.48062026501
-3.0084357262 -0.55130022764 1.5108041763
-2.5471174717 -0.98484426737 0.55624902248
-2.9746694565 0.083450645208 -0.023207914084
-2.4942550659 -0.46602252126 0.14388225973
-2.2400000095 -0.46966663003 -1.0743333101
-2.2102124691 -0.46873450279 -0.88801443577
-2.3955106735 -0.241089046 -1.1657924652
-2.3761403561 1.0688530207 -1.4341239929
-2.8102223873 1.7142505646 -0.44225764275
-2.320337534 1.8828538656 -0.6120647192
-1.959433198 1.4542995691 -1.5118157864
-1.7040194273 1.9221018553 -1.0925847292
-2.547999382 2.620673418 0.48850306869
-1.7565487623 2.4963328838 -0.61884313822
-1.4317461252 3.2421519756 0.083016373217
-3.1707236767 2.3026399612 1.4965364933
-1.8581492901 3.3299508095 1.4769517183
-2.452078104 3.0961296558 2.2010552883
-2.9263198376 2.1730365753 2.7325265408
-2.708637476 2.5551028252 2.3770668507
-3.4145078659 1.7896182537 1.822095871
-3.1544528008 0.75538897514 3.07173419
-3.0992035866 1.780115962 3.0387756824
-3.3838291168 0.77539098263 1.9653704166
-3.0429735184 0.4141702354 2.2841367722
-3.1103508472 0.12758420408 1.8786572218
-2.893440485 0.26965689659 2.9437632561
-2.874168396 0.033355627209 2.2759611607
-2.9992086887 -0.21502169967 1.8620541096
-2.5138311386 -0.70353335142 2.4373700619
-2.4654252529 -0.065274238586 3.560461998
-1.7394380569 -1.6975287199 1.3647459745
-1.9745033979 -1.251057148 3.4357225895
-0.93852049112 -2.3841850758 2.1682898998
-0.95544534922 -2.228115797 0.28823703527
-1.9861387014 -1.1865640879 -0.13145904243
-2.2948043346 -0.31457751989 -0.47349649668
-2.0514883995 -0.77867680788 -0.79625421762
-1.9332005978 -1.2756963968 -0.99520391226
-2.0833294392 -0.70840322971 -1.2134497166
-1.6799632311 -1.570127368 -1.5850169659
-2.1953063011 -0.50576013327 -1.7739627361
-1.7569410801 -0.7727638483 -2.0518875122
-1.5463202 0.14026492834 -2.7147984505
-2.1231920719 0.21079312265 -2.3761334419
-1.8643856049 0.96657168865 -2.3617413044
-1.0618159771 0.55934411287 -3.3883838654
-1.6459830999 1.4253747463 -2.1745977402
-1.236399889 1.6059447527 -2.8522567749
-1.1288684607 2.0664429665 -2.1640846729
-1.5012593269 1.8237724304 -1.7049611807
-1.3190143108 2.4119803905 -1.2734904289
-0.42486378551 2.6016235352 -2.4304175377
-0.80421566963 3.0132966042 -1.2827957869
0.78465729952 2.7039089203 -1.7183072567
0.7089471817 3.4039049149 -2.78784132
-0.019591476768 3.2579882145 -2.8367376328
0.43003207445 3.2997033596 -0.64674937725
1.0713480711 2.4592351913 -0.48766252398
1.5520305634 2.0205879211 -1.212037921
0.94138205051 2.7875823975 0.2931650579
1.5389825106 1.9156178236 0.065630510449
1.2137310505 2.2116048336 1.0409803391
0.38901206851 3.0999910831 0.84096902609
0.5632019043 2.7682359219 2.2702102661
-0.17114822567 3.3991341591 2.0352618694
-0.6015766263 3.2862935066 3.5197246075
0.15466140211 2.6892597675 3.9283947945
-0.65440410376 2.7090427876 4.0051026344
-1.8988159895 2.7179722786 3.8595936298
-2.0240740776 3.2596526146 3.3782072067
-2.2875056267 2.6578247547 3.5961546898
-0.55320096016 1.8184564114 4.5340065956
-1.0684934855 2.1166493893 4.3951530457
-2.4426262379 2.2256700993 4.1106300354
-1.5618772507 1.7535309792 4.5652132034
-0.28594517708 1.0714560747 4.7782359123
-1.2147308588 1.0737698078 4.6455907822
-0.60563772917 0.16629287601 4.8119773865
-1.6563460827 0.71106564999 4.6358499527
-1.0410830975 -0.47489890456 4.7477283478
0.13673299551 -1.1999652386 5.0775055885
0.35165548325 -0.47840872407 5.1838769913
0.8619671464 -2.4903173447 3.9174740314
1.2605894804 -0.82573318481 5.3339681625
2.02754426 -2.0655226707 4.097363472
1.9204696417 -1.4853055477 2.3013823032
1.0060104132 -1.8631856441 2.1322698593
0.95055764914 -1.7868442535 0.53525084257
1.3892155886 -1.1784381866 0.20840318501
2.3434512615 -0.47215819359 1.952742815
1.7012240887 -0.12192780524 0.84904450178
1.7628078461 0.20846758783 -0.21451537311
1.6839544773 -0.79217469692 -0.80997854471
1.0946611166 -2.0143163204 -1.8222632408
1.6647127867 -1.380779624 -2.6686327457
2.1927173138 -0.17519669235 -1.4472432137
-0.41982862353 -1.5680810213 -2.5328698158
0.13439831138 -0.80387616158 -3.4078547955
-0.99355608225 -1.2819992304 -2.4371967316
-0.39322602749 -0.74128443003 -2.9955649376
-0.60754144192 -0.28723531961 -3.3351073265
-1.1050839424 -0.58409506083 -2.6963069439
-0.027873348445 0.5623678565 -4.0401988029
0.55099451542 0.40471279621 -4.2397727966
-0.40627682209 1.9313942194 -3.5832881927
0.36917418242 1.3396501541 -4.3976964951
0.12309867144 2.0036156178 -4.1292672157
0.024054307491 3.0189614296 -3.6701681614
0.92510229349 2.2056956291 -4.032351017
0.90724498034 3.1027600765 -3.6713068485
1.1317878962 3.1321082115 -2.9324455261
1.6421610117 2.6237471104 -3.2615272999
1.6614514589 2.6897501945 -2.5534100533
1.2690874338 2.5867390633 -2.1722695827
2.1885545254 2.1666178703 -2.5179224014
2.1221265793 1.6302330494 -1.9590369463
2.4130604267 1.3004080057 -2.3176538944
2.3888473511 0.71817588806 -1.6828947067
2.0349256992 0.89391112328 -1.2036548853
1.9739201069 0.92772102356 0.015118278563
1.8453276157 2.0371823311 -3.4167504311
1.9557460546 1.1743505001 -3.8941509724
1.1763122082 1.6430153847 -4.1894288063
2.5539083481 0.93912339211 2.6062407494
1.8851565123 1.3136315346 1.3502291441
1.8372302055 1.6635407209 2.486269474
1.2847335339 2.3185079098 2.1379082203
0.72017365694 1.6402965784 4.7035951614
2.1205646992 1.4964617491 4.0523710251
0.59166568518 0.86050236225 4.9779276848
-0.063053578138 0.41035944223 5.0360341072
1.3443610668 0.77516567707 5.0741991997
-3.9357979298 1.1857081652 0.81519770622
-1.7154396772 3.9039404392 2.5075993538
-2.6089205742 1.4539834261 4.501616478
-1.119484663 -1.9602823257 4.6339292526
0.76819711924 -2.6417834759 -0.84170693159
3.6522009373 -0.40975296497 3.5487477779
2.8014650345 0.48549583554 5.0067205429
2.7563772202 -1.1215900183 5.0515508652
2.1538362503 0.64303064346 5.2115960121
2.1004638672 -0.50131928921 -3.9910595417
-0.017478555441 -2.9212579727 2.919629097
-1.3256746531 -2.5503907204 3.4068396091
-0.2025410682 -2.5569429398 4.4465966225
3.0240118504 1.0640521049 3.8729264736

CELLS 294 1176
3 0 1 2
3 2 1 3
3 1 4 5
3 6 7 8
3 8 4 9
3 10 9 4
3 10 11 9
3 12 11 13
3 11 14 15
3 15 14 16
3 14 17 18
3 18 17 19
3 20 21 22
3 17 22 21
3 23 24 25
3 22 25 24
3 26 25 27
3 0 27 25
3 23 26 28
3 29 28 26
3 29 27 30
3 2 30 0
3 2 31 30
3 28 31 32
3 31 33 34
3 34 33 35
3 36 33 37
3 3 37 33
3 3 5 37
3 5 38 37
3 37 39 40
3 40 41 42
3 41 7 6
3 38 8 7
3 41 6 43
3 44 42 41
3 45 44 46
3 43 46 44
3 46 47 45
3 45 47 48
3 9 12 47
3 49 47 12
3 50 49 51
3 52 51 49
3 52 13 53
3 53 13 15
3 54 51 55
3 53 55 51
3 55 56 54
3 57 58 56
3 59 60 56
3 56 60 61
3 60 62 63
3 63 62 64
3 62 65 64
3 65 66 64
3 65 16 67
3 67 16 18
3 67 68 66
3 66 68 69
3 70 68 71
3 72 71 68
3 71 72 73
3 19 21 72
3 69 70 74
3 75 74 70
3 76 77 71
3 73 76 71
3 76 73 24
3 20 24 73
3 78 74 79
3 77 79 74
3 79 80 78
3 81 80 79
3 81 32 82
3 82 32 34
3 83 84 82
3 80 82 84
3 83 85 86
3 86 85 87
3 87 85 88
3 89 88 85
3 36 90 35
3 89 35 90
3 90 91 88
3 92 88 93
3 93 91 94
3 95 94 91
3 96 97 95
3 98 95 97
3 96 99 97
3 97 99 100
3 99 101 102
3 103 102 104
3 104 101 44
3 42 44 101
3 104 45 103
3 103 45 48
3 105 100 103
3 100 105 106
3 105 107 108
3 108 107 109
3 107 54 110
3 110 54 58
3 109 110 111
3 112 111 110
3 112 113 114
3 114 113 115
3 113 57 116
3 116 57 56
3 115 116 117
3 118 117 116
3 119 118 120
3 121 120 118
3 121 61 122
3 122 61 63
3 122 94 121
3 94 98 121
3 117 119 123
3 124 123 119
3 124 106 125
3 125 106 108
3 125 111 123
3 123 111 114
3 126 92 127
3 93 127 92
3 128 127 129
3 64 129 127
3 130 131 69
3 130 78 132
3 132 78 133
3 132 84 134
3 134 84 86
3 27 0 30
3 38 5 4
3 4 8 38
3 12 9 11
3 15 13 11
3 18 16 14
3 21 19 17
3 24 20 22
3 26 23 25
3 28 29 31
3 34 32 31
3 36 35 33
3 39 37 38
3 39 41 40
3 43 44 41
3 50 48 47
3 49 50 47
3 53 51 52
3 58 54 56
3 59 56 55
3 63 61 60
3 129 64 66
3 67 66 65
3 70 69 68
3 77 74 75
3 133 78 80
3 82 80 81
3 86 84 83
3 90 88 89
3 91 93 88
3 98 94 95
3 102 100 99
3 101 104 102
3 108 106 105
3 110 109 107
3 114 111 112
3 116 115 113
3 119 117 118
3 120 121 98
3 125 123 124
3 128 126 127
3 132 134 130
3 0 25 135
3 0 135 1
3 4 1 135
3 4 135 10
3 10 135 14
3 10 14 11
3 14 135 17
3 17 135 22
3 22 135 25
3 5 3 1
3 2 3 33
3 2 33 31
3 29 30 31
3 7 41 39
3 7 39 38
3 9 46 8
3 43 8 46
3 8 43 6
3 47 46 9
3 13 52 12
3 12 52 49
3 16 65 59
3 16 59 55
3 16 55 15
3 53 15 55
3 59 65 62
3 59 62 60
3 72 68 136
3 72 136 19
3 19 136 18
3 18 136 67
3 67 136 68
3 75 71 77
3 21 73 72
3 73 21 20
3 71 75 70
3 137 23 32
3 23 137 24
3 24 137 76
3 76 137 77
3 79 77 81
3 137 81 77
3 81 137 32
3 28 32 23
3 27 29 26
3 34 138 82
3 82 138 83
3 37 40 36
3 36 40 42
3 36 42 139
3 36 139 90
3 90 139 91
3 91 139 95
3 96 95 139
3 96 139 99
3 99 139 42
3 99 42 101
3 45 104 44
3 51 54 50
3 50 107 48
3 48 107 105
3 48 105 103
3 102 103 100
3 107 50 54
3 57 113 112
3 58 57 110
3 112 110 57
3 61 121 118
3 61 118 116
3 61 116 56
3 64 127 63
3 63 127 122
3 94 122 93
3 127 93 122
3 66 69 129
3 129 69 128
3 128 69 131
3 130 69 74
3 130 74 78
3 80 84 133
3 133 84 132
3 140 141 142
3 140 142 87
3 140 87 88
3 140 88 92
3 140 92 126
3 86 142 143
3 142 86 87
3 100 106 144
3 100 144 97
3 97 144 98
3 119 120 144
3 98 144 120
3 119 144 124
3 124 144 106
3 109 111 108
3 108 111 125
3 115 117 114
3 114 117 123
3 85 145 89
3 89 145 35
3 35 145 146
3 145 147 146
3 145 85 147
3 146 147 138
3 35 146 34
3 146 138 34
3 138 147 83
3 83 147 85
3 134 131 130
3 128 131 126
3 126 148 140
3 140 148 141
3 143 141 131
3 148 131 141
3 148 126 131
3 143 131 134
3 141 143 142
3 143 134 86

CELL_TYPES 294
5
5
5
5
5
5
5
5
5
5
5
5
5
5
5
5
5
5
5
5
5
5
5
5
5
5
5
5
5
5
5
5
5
5
5
5
5
5
5
5
5
5
5
5
5
5
5
5
5
5
5
5
5
5
5
5
5
5
5
5
5
5
5
5
5
5
5
5
5
5
5
5
5
5
5
5
5
5
5
5
5
5
5
5
5
5
5
5
5
5
5
5
5
5
5
5
5
5
5
5
5
5
5
5
5
5
5
5
5
5
5
5
5
5
5
5
5
5
5
5
5
5
5
5
5
5
5
5
5
5
5
5
5
5
5
5
5
5
5
5
5
5
5
5
5
5
5
5
5
5
5
5
5
5
5
5
5
5
5
5
5
5
5
5
5
5
5
5
5
5
5
5
5
5
5
5
5
5
5
5
5
5
5
5
5
5
5
5
5
5
5
5
5
5
5
5
5
5
5
5
5
5
5
5
5
5
5
5
5
5
5
5
5
5
5
5
5
5
5
5
5
5
5
5
5
5
5
5
5
5
5
5
5
5
5
5
5
5
5
5
5
5
5
5
5
5
5
5
5
5
5
5
5
5
5
5
5
5
5
5
5
5
5
5
5
5
5
5
5
5
5
5
5
5
5
5
5
5
5
5
5
5
5
5
5
5
5
5
5
5
5
5
5
5

CELL_DATA 294
SCALARS cell_data_0 double
LOOKUP_TABLE default
4.14848900098e-08
5.11471395085e-09
3.80746710032e-08
2.88299876577e-08
4.1266983238e-08
3.21166701373e-07
5.57003810181e-07
5.60275807681e-09
2.95401162378e-07
2.13443579901e-07
6.80917470231e-08
8.95796777221e-08
3.89413581228e-08
7.86474898009e-09
8.84051783593e-08
8.37650738764e-10
5.65027542064e-08
1.17325261516e-08
2.23198339297e-08
2.91096850644e-08
1.45494675787e-08
4.38751663207e-08
1.79862211301e-08
3.57686092861e-07
6.66130970803e-06
9.83816042517e-06
2.27550828107e-07
3.92463429664e-07
2.2739451313e-07
2.91356817165e-07
1.69944959195e-07
3.76808118996e-07
4.71782010039e-08
1.89673534419e-07
1.12185924616e-07
2.75167226475e-07
5.28013139999e-08
3.04852313956e-07
6.34873515218e-09
8.13882982379e-08
2.87187687781e-07
4.39735640516e-07
3.3959369703e-07
3.15554009605e-07
6.02772907542e-08
2.04183544481e-07
6.46621775937e-07
2.31310244167e-08
2.46469472674e-06
2.00027624007e-05
3.45655313254e-07
2.50214195692e-06
1.19376512093e-07
2.43670796919e-09
2.15824647362e-07
3.78313199288e-07
3.15417118134e-07
4.30548763259e-09
5.51424948616e-07
1.17739085448e-06
3.94511989391e-07
4.93899873515e-08
1.04801987182e-07
1.58881753796e-07
1.09762625006e-06
1.96631707948e-07
6.70561071774e-09
6.78386914613e-08
3.01181846055e-08
7.00282530362e-08
7.89808888684e-09
3.0962287143e-07
1.32583302966e-07
4.73154062547e-08
1.84857818651e-06
4.41532872545e-07
7.10994934732e-08
1.38360196392e-07
1.81277142079e-05
3.55299043113e-05
2.39794055912e-05
7.91156133537e-06
1.6234432107e-05
3.61904500586e-06
3.034678071e-06
2.66159971682e-06
4.6761441622e-07
6.41130141954e-07
6.37963994509e-06
7.43009849022e-06
4.63232299363e-06
1.60409117606e-06
1.36324397804e-07
8.51683392629e-08
1.73308710214e-07
1.21429295359e-08
1.6596826112e-08
5.42152084813e-07
2.03808911467e-06
1.33272514491e-06
1.71021277719e-05
1.07134130911e-06
5.14398813898e-06
1.01060463116e-05
1.11559193076e-05
1.5175632071e-05
4.35777567606e-06
1.40993479899e-06
1.43709310007e-06
3.93716238617e-06
4.25208938844e-08
1.14460835479e-05
2.43628571301e-06
1.00167438224e-06
6.06281806861e-07
8.20932389302e-07
5.01900467858e-07
2.14622366842e-06
6.22332695336e-06
7.1184644897e-06
6.5321895753e-06
1.57806904538e-05
3.97586840555e-06
2.16180879655e-06
7.68480548796e-07
7.82309347531e-07
9.10802448927e-06
1.30210330428e-07
1.01368976983e-05
2.27503599586e-07
1.67891143435e-08
3.21609904241e-07
8.85000663395e-07
1.19086436253e-08
7.87141224793e-08
1.11223903447e-06
1.52596447992e-07
1.74890525356e-07
3.29813750458e-07
8.5820445082e-08
8.30598430845e-08
1.265245687e-07
2.35403020679e-08
2.17383940377e-06
3.36356436403e-06
1.33064166977e-07
9.1836147582e-08
3.6000785644e-07
1.31142426244e-06
3.81787600594e-07
3.58276703273e-08
3.67806979919e-06
1.69282096143e-07
9.5054186371e-07
1.38165141941e-06
3.35230718167e-07
4.21755562147e-07
8.4410262494e-09
7.07138425421e-08
7.07586457077e-08
2.82511903574e-07
3.35865884444e-06
2.54168588657e-06
1.90297624724e-06
1.45627813881e-07
1.44652657954e-07
1.33909791667e-05
7.69452062261e-06
9.00044189722e-06
2.032683642e-06
6.07028545723e-06
2.19488760798e-06
1.19819053162e-06
8.46989311567e-06
1.12944478266e-07
5.18516698781e-08
6.11163382636e-08
4.37751804664e-08
5.60334735646e-07
1.09636411876e-07
3.03603203956e-08
2.87933443323e-10
1.15675811309e-07
5.76995853074e-08
1.28837229543e-07
1.63141077776e-08
2.04790540754e-06
1.46601927309e-07
8.09589668217e-08
1.14514673174e-07
2.2673093745e-06
4.48460233478e-07
1.19440129423e-07
2.83284095195e-07
1.13066973175e-07
5.65743691009e-08
7.40746940951e-07
8.84463357001e-07
3.72172763949e-07
1.02167244727e-07
3.28434866109e-07
8.85640616007e-08
7.24893870829e-08
1.49046214864e-07
1.06702751908e-07
1.40032172827e-07
2.0201160235e-08
1.09875120729e-07
6.98203322622e-08
1.1356398013e-07
5.90323095205e-08
8.56216103076e-08
1.40628701557e-07
1.34916235978e-07
2.23703588193e-08
2.6711583167e-08
1.75908422002e-07
5.79771324568e-07
2.23016782072e-08
2.84796668481e-08
1.9693002418e-05
2.35230166119e-07
9.92430720725e-07
1.11070794206e-06
2.36797973035e-07
7.13705918599e-06
4.94022608104e-07
4.47293729444e-07
1.38193582175e-06
1.08269825073e-06
8.25607298881e-07
3.70303368223e-07
5.7721757509e-07
5.42643135208e-07
3.05500151911e-07
5.44716114725e-06
7.64984453761e-07
3.54392056868e-07
2.82121548188e-06
5.98616632565e-06
4.44365704855e-05
0.000116759837159
5.64486358734e-07
3.44636394044e-06
4.07044650139e-06
1.43447306827e-06
8.58092617278e-07
5.56606307276e-07
8.11279098666e-07
4.61111144834e-06
1.72688554815e-05
7.45639705287e-05
4.75347153157e-07
3.6380220348e-07
2.74368124493e-08
7.82220120209e-08
5.03614109681e-06
6.69119718386e-05
0.000127160557478
8.74339074483e-06
4.32455407029e-06
2.87121471342e-06
6.54966405354e-05
3.41781372371e-06
3.47837690967e-06
1.64055382559e-06
3.61106341504e-06
3.40836127532e-06
2.53218303039e-06
4.88311664131e-06
9.98454458052e-06
3.56899944572e-06
9.97966192349e-07
1.26779839427e-05
1.76982496698e-05
3.14268957593e-06
1.95134339204e-08
1.51304373995e-07
1.03442047514e-05
4.67426542975e-06
1.19709274965e-05
1.08913507327e-05
7.97314163277e-07
1.1900454291e-05
2.89979629698e-06
9.36414438212e-06
5.64047712281e-05
1.67174623337e-05
1.39617670056e-06
1.17304516164e-05
3.00378474516e-06
1.02872915413e-06
4.41280657462e-07
6.71252007759e-07

