# vtk DataFile Version 3.0
File Name: Molecule/arg/arg_1.0-2.vtk
ASCII
DATASET UNSTRUCTURED_GRID
FIELD FieldData 1
TIME 1 1 double
0.0
POINTS 199 double
-3.4429352283 0.24823354185 1.4168422222
-3.0918886662 -0.092519119382 0.48397064209
-3.0249040127 -0.43686425686 1.6413700581
-2.7243971825 -0.52548658848 0.46044558287
-2.9952764511 0.09600135684 0.025165429339
-2.3056459427 -0.30891099572 -0.43463596702
-2.2904691696 -0.37499895692 -0.99644327164
-2.1434941292 -0.60685044527 -0.84240007401
-2.5933918953 1.4870167971 -0.69044971466
-2.5143344402 -0.022418707609 -1.0847328901
-2.2258050442 1.1536203623 -1.6007426977
-1.9461884499 1.6555790901 -1.096683383
-2.6271696091 1.9620428085 -0.37477684021
-1.4626330137 3.1667923927 0.21085903049
-1.7669565678 2.4865970612 -0.62094509602
-2.4887647629 2.6557302475 0.65077352524
-3.03738451 2.3491425514 1.6101491451
-1.8466774225 3.3345379829 1.5109806061
-2.5198614597 2.986410141 2.305110693
-2.7059152126 2.5671694279 2.5891675949
-3.0023190975 2.0141186714 2.5582132339
-3.4255709648 1.789518714 1.7757651806
-3.3841905594 0.78633791208 1.9593508244
-3.1501755714 0.80580699444 2.8774542809
-3.0455284119 0.4221636951 2.2850337029
-3.1126134396 0.11205042899 1.8542732
-2.8696873188 0.24828021228 3.2310295105
-2.7684857845 -0.037197098136 2.4866421223
-2.9691436291 -0.23259271681 1.93818748
-2.5068311691 -0.72132384777 2.4174911976
-2.3373534679 -0.23943468928 3.3910017014
-1.729894042 -1.7067825794 1.3902218342
-1.9762171507 -1.3288910389 3.2701237202
-0.98005861044 -2.2628474236 2.1180915833
-2.3041198254 -1.0109139681 0.32999303937
-0.98589676619 -2.2093918324 0.294015944
-1.9062168598 -1.3275370598 -0.44370794296
-1.911773324 -1.2742439508 -1.0764859915
-2.0962188244 -0.68900167942 -1.2215578556
-1.7644227743 -0.76530313492 -2.0445988178
-2.1767272949 -0.55695039034 -1.0201337337
-2.2334122658 -0.43638092279 -1.858453393
-1.580735445 -1.5371177197 -1.8023729324
-2.1214151382 0.21289037168 -2.3812198639
-1.5529005527 0.13173529506 -2.7040934563
-1.8529850245 0.96456974745 -2.3754301071
-1.0552254915 0.56577241421 -3.3966889381
-1.5794371367 1.4491208792 -2.2298743725
-1.8719992638 1.4510207176 -1.7708258629
-1.2951352596 1.5043199062 -2.7557771206
-1.1037729979 2.0528311729 -2.2204525471
-1.4860628843 1.8259599209 -1.7278585434
-1.2162292004 2.4655268192 -1.3562728167
-0.50687742233 2.541895628 -2.358954668
-0.26859587431 2.9286077023 -1.7876360416
-0.93702089787 3.0728859901 -1.1133589745
0.41075953841 3.0895204544 -1.0461777449
0.3664175272 3.0554456711 -2.1354382038
1.0636076927 2.4635033607 -0.46469289064
0.85650980473 2.6581161022 -1.4711918831
1.5103360415 1.9551036358 -1.0785125494
0.9296592474 2.7961239815 0.34303677082
1.5393292904 1.9169749022 0.067549079657
1.218624711 2.2064852715 1.0082217455
0.2758897841 3.0715372562 0.9842916131
1.2604647875 2.2482767105 1.98701334
0.73527437449 2.7649738789 2.4709377289
-0.14776535332 3.3971502781 2.0585770607
-0.56326723099 3.2792873383 3.5156238079
0.0023520779796 2.6099197865 4.0484814644
-0.78367316723 2.8188691139 3.9335961342
-1.293992281 3.6796369553 3.388235569
-1.869342804 2.8366549015 3.77374053
-2.0404758453 3.2449343204 3.3815546036
-2.2662491798 2.6823906898 3.5898385048
-1.0473843813 2.1108136177 4.4004898071
-0.47447159886 1.6487568617 4.6235079765
-2.4486606121 2.2215080261 4.1076869965
-1.5673412085 1.7529886961 4.5611610413
-3.0719506741 1.8019752502 3.082583189
-0.26567587256 1.0519721508 4.785223484
-1.1002800465 1.0901634693 4.6061882973
-0.057552371174 0.40663132071 5.0375165939
-0.68371248245 0.24773368239 4.7324280739
-1.643761158 0.70650541782 4.6417164803
-0.84755772352 -0.38561564684 4.7931804657
-1.6804859638 -0.88692480326 4.3354458809
-2.3495607376 0.23938843608 4.2322883606
0.16702909768 -1.1858116388 5.0837373734
0.35725042224 -0.46153411269 5.1842103004
1.2536722422 -0.80489182472 5.3374171257
1.580991745 -1.8293466568 4.6721925735
0.56049782038 -2.2834467888 4.4984021187
1.0663688183 -2.4731807709 3.2700226307
1.9840216637 -2.09014678 3.4694595337
1.9368801117 -1.4754787683 2.3441743851
1.0163732767 -1.8559075594 2.1235466003
0.77632308006 -1.6545792818 1.2194030285
0.13273061812 -2.1517598629 1.2360743284
0.14165249467 -2.6024897099 2.2599537373
1.0505592823 -1.8218948841 0.33009156585
0.049532145262 -2.4809911251 0.29439893365
-0.77984642982 -1.9838900566 1.1874651909
1.3944398165 -0.83460199833 1.0933512449
1.4182047844 -1.0256904364 0.16518762708
1.2697616816 -1.2135794163 1.5332611799
2.3326010704 -0.71758449078 1.9791172743
1.7009335756 -0.10571602732 0.67919164896
1.7704741955 0.2109400928 -0.22996865213
1.653019309 -0.65389513969 -0.71458059549
1.5319788456 -1.5967593193 -1.5022974014
2.1961743832 -0.15767915547 -1.4378215075
2.0736074448 -1.1075013876 -2.2474429607
1.050272584 -1.4596595764 -2.8929209709
0.4978697598 -2.1576778889 -2.1504044533
-0.28136143088 -1.4147282839 -2.650541544
0.10896993428 -0.70364743471 -3.5252869129
-0.3777692318 -0.71803915501 -3.0215103626
-0.99807482958 -0.69834756851 -2.6588976383
-0.7002812624 -0.29727452993 -3.2011504173
-0.98681616783 -1.3289465904 -2.4005386829
-0.04269881919 0.52515214682 -4.0220837593
0.54294031858 0.41297611594 -4.2416100502
-0.44067645073 1.9392803907 -3.5495226383
-0.00017603859305 2.9974837303 -3.6598074436
-0.059727456421 3.3304421902 -2.9789624214
0.91443419456 2.2302238941 -4.0280008316
0.13327556849 2.0355408192 -4.1238160133
0.46926167607 2.9522938728 -3.8958234787
0.93932688236 3.2279717922 -2.8291053772
1.6552733183 2.6932992935 -2.5237648487
1.0657486916 3.2844619751 -3.1015944481
0.7704706192 2.9026558399 -2.3480722904
1.1681854725 2.575283289 -2.0002522469
2.1882090569 2.16659832 -2.5147707462
2.1140708923 1.6422026157 -1.9475469589
2.4292871952 1.2606980801 -2.2943589687
2.3496873379 0.60753417015 -1.6146329641
2.0362889767 0.91024380922 -1.2329589128
1.9723689556 0.933342278 0.0082844533026
1.8451279402 2.0390501022 -3.4139797688
1.8456140757 1.2997295856 -3.8127214909
1.1770939827 1.6425228119 -4.1874494553
0.38453570008 1.3676629066 -4.399169445
1.5747817755 2.5232942104 -3.3403120041
1.8835623264 1.3137097359 1.3389378786
2.5436551571 0.95079112053 2.5848622322
1.851949811 1.5687282085 2.3304257393
1.6932618618 2.1848425865 3.1720740795
2.372038126 1.440836072 3.4564344883
1.442299366 1.7656588554 4.2728233337
2.1977131367 1.1986545324 4.624587059
1.3689290285 0.76104551554 5.07843256
0.5259141922 1.5584717989 4.7614550591
0.60215097666 0.85297471285 4.9816975594
0.91388827562 3.0653662682 -3.6871769428
-3.526943922 2.20398283 0.82194793224
-3.5328948498 1.6286765337 -0.077640816569
-3.9363358021 1.1576054096 0.84625679255
-2.6783335209 -1.241899848 1.3420695066
0.54663944244 3.3682670593 -0.08602911979
-1.1138181686 4.0091280937 2.4959206581
-2.1279809475 3.6428983212 2.5094811916
-2.8482735157 1.3384978771 4.3462796211
-0.6360386014 -2.6129579544 4.284386158
-0.80184602737 -1.6626141071 4.9318008423
-1.5613924265 -1.8444190025 4.2511377335
-0.82761019468 -2.8492603302 3.2127783298
0.27368715405 -2.9096684456 3.388450861
0.48985499144 -2.7863755226 -0.90601485968
-0.77446275949 -2.765194416 -0.75690943003
-0.59261661768 -2.4379534721 -1.9521011114
1.3686500788 -2.1108467579 -0.74770206213
0.49697816372 3.4029941559 -2.6995761395
0.90333306789 2.4546487331 4.0751914978
3.6675014496 -0.31391111016 3.6998398304
3.3286230564 0.75310713053 3.6968610287
3.3281030655 0.19396340847 4.6336236
3.3346021175 -0.88389712572 4.5817537308
3.224519968 -1.49482131 3.6872177124
3.2396965027 -0.85256755352 2.6662681103
3.3363013268 0.18629983068 2.7784950733
2.3078200817 0.21180252731 5.388671875
2.4693961143 -0.82833606005 5.3330993652
2.4945318699 -1.7037699223 4.669798851
2.9126167297 0.11204880476 -2.6015138626
2.5698535442 -0.62440669537 -3.3693106174
2.6624586582 0.48013716936 -3.6151127815
1.807765007 -1.2265452147 -3.3989911079
1.8081109524 -0.44076144695 -4.186524868
0.87695670128 -0.71251904964 -4.0978889465
1.089823842 3.186419487 -3.3869504929
0.71036332846 3.3250119686 -3.7853534222
0.2159859091 3.3284852505 -3.7872543335
-0.029488138855 1.6551866531 -4.1173195839
-0.26818978786 1.3091111183 -3.9709341526
0.17690233886 0.89351302385 -4.1376924515
0.83172005415 3.5872614384 -3.4211890697
-0.026378726587 3.4448444843 -3.4235782623

CELLS 394 1576
3 0 1 2
3 2 1 3
3 1 4 3
3 5 6 7
3 4 8 9
3 9 8 10
3 8 11 10
3 12 11 8
3 13 14 15
3 12 15 14
3 15 16 17
3 17 16 18
3 19 16 20
3 21 20 16
3 21 22 20
3 22 23 20
3 24 22 25
3 0 25 22
3 23 24 26
3 27 26 24
3 27 25 28
3 28 25 2
3 2 29 28
3 29 30 27
3 29 31 32
3 32 31 33
3 31 34 35
3 35 34 36
3 34 5 36
3 3 5 34
3 36 7 37
3 37 38 39
3 38 40 6
3 9 6 5
3 9 41 6
3 42 37 39
3 41 43 39
3 44 39 43
3 43 45 44
3 44 45 46
3 47 45 48
3 10 48 45
3 49 47 50
3 51 50 47
3 51 11 52
3 52 11 14
3 50 52 53
3 53 52 54
3 55 56 54
3 54 56 57
3 54 57 53
3 56 58 59
3 59 58 60
3 58 61 62
3 62 61 63
3 61 64 63
3 65 64 66
3 67 64 17
3 13 17 64
3 67 68 66
3 66 68 69
3 70 71 72
3 73 72 71
3 72 73 74
3 18 19 73
3 70 75 69
3 69 75 76
3 77 78 72
3 74 77 72
3 77 74 79
3 20 79 19
3 80 76 81
3 78 81 75
3 82 80 83
3 84 83 81
3 85 84 86
3 87 86 84
3 87 30 86
3 86 30 32
3 83 85 82
3 88 89 85
3 90 88 91
3 92 91 88
3 92 93 91
3 91 93 94
3 94 93 95
3 96 95 93
3 97 96 98
3 99 98 96
3 97 98 100
3 101 100 98
3 102 98 33
3 99 33 98
3 98 102 101
3 101 102 35
3 100 103 97
3 104 103 100
3 95 105 106
3 103 106 105
3 107 104 108
3 109 108 104
3 109 110 111
3 111 110 112
3 112 110 113
3 114 113 110
3 114 115 113
3 113 115 116
3 117 115 118
3 119 117 118
3 118 120 39
3 42 39 120
3 118 44 119
3 119 44 46
3 121 116 119
3 116 121 122
3 123 53 124
3 124 53 125
3 126 127 128
3 129 130 131
3 129 132 130
3 57 59 132
3 130 133 134
3 135 134 133
3 136 135 137
3 138 137 135
3 138 60 139
3 139 60 62
3 139 108 138
3 108 111 138
3 134 136 140
3 141 140 136
3 141 122 142
3 142 122 143
3 142 126 140
3 140 126 144
3 107 145 106
3 106 145 146
3 147 145 65
3 63 65 145
3 148 149 147
3 146 147 149
3 148 150 149
3 149 150 151
3 151 150 152
3 153 152 150
3 153 80 154
3 154 80 82
3 154 89 152
3 152 89 90
3 25 0 2
3 5 3 4
3 4 9 5
3 48 10 11
3 14 11 12
3 17 13 15
3 19 18 16
3 79 20 23
3 24 23 22
3 26 27 30
3 32 30 29
3 102 33 31
3 102 31 35
3 7 36 5
3 7 38 37
3 41 39 38
3 49 46 45
3 47 49 45
3 52 50 51
3 125 53 57
3 55 54 52
3 133 132 59
3 59 57 56
3 62 60 58
3 65 63 64
3 67 66 64
3 70 69 68
3 76 75 81
3 81 83 80
3 85 83 84
3 90 89 88
3 105 95 96
3 105 96 97
3 105 97 103
3 107 106 103
3 107 103 104
3 111 108 109
3 117 116 115
3 120 118 115
3 124 127 123
3 144 126 155
3 133 130 132
3 136 134 135
3 137 138 111
3 142 140 141
3 147 146 145
3 154 152 153
3 156 157 158
3 158 157 4
3 0 158 1
3 158 0 22
3 158 22 21
3 158 21 156
3 156 21 16
3 156 16 15
3 157 156 12
3 15 12 156
3 157 12 8
3 157 8 4
3 4 1 158
3 3 34 159
3 3 159 2
3 2 159 29
3 27 28 29
3 29 159 31
3 31 159 34
3 40 38 7
3 40 7 6
3 10 43 9
3 41 9 43
3 38 6 41
3 45 43 10
3 11 51 48
3 48 51 47
3 13 64 160
3 13 160 55
3 13 55 14
3 52 14 55
3 55 160 56
3 56 160 58
3 58 160 61
3 61 160 64
3 71 161 162
3 71 162 73
3 68 71 70
3 71 68 161
3 161 68 67
3 161 67 17
3 161 17 162
3 162 17 18
3 162 18 73
3 75 72 78
3 19 74 73
3 74 19 79
3 72 75 70
3 23 26 163
3 23 163 79
3 79 163 77
3 77 163 78
3 163 84 78
3 81 78 84
3 84 163 87
3 87 163 26
3 87 26 30
3 25 27 24
3 164 165 166
3 164 166 167
3 164 167 168
3 164 168 92
3 164 92 165
3 165 92 88
3 165 88 85
3 165 85 86
3 165 86 166
3 166 86 32
3 166 32 167
3 167 32 33
3 167 33 99
3 167 99 168
3 168 99 93
3 168 93 92
3 93 99 96
3 169 170 171
3 169 171 114
3 169 114 172
3 169 172 100
3 169 100 101
3 169 101 170
3 170 101 35
3 170 35 36
3 170 36 37
3 170 37 42
3 170 42 171
3 171 42 120
3 171 120 115
3 171 115 114
3 100 172 104
3 104 172 109
3 109 172 110
3 110 172 114
3 44 118 39
3 49 50 123
3 49 123 46
3 46 121 119
3 117 119 116
3 123 50 53
3 57 132 173
3 60 138 135
3 60 135 133
3 60 133 59
3 63 145 62
3 62 145 139
3 108 139 107
3 145 107 139
3 66 69 174
3 66 174 148
3 66 148 65
3 65 148 147
3 148 174 150
3 150 174 153
3 153 174 69
3 153 69 76
3 153 76 80
3 89 82 85
3 82 89 154
3 175 176 177
3 175 177 178
3 175 178 179
3 175 179 180
3 175 180 181
3 175 181 176
3 177 182 183
3 178 177 183
3 178 183 184
3 179 178 184
3 179 184 94
3 179 94 95
3 179 95 180
3 180 95 106
3 180 106 181
3 181 106 146
3 181 146 176
3 176 146 149
3 176 149 151
3 176 151 177
3 177 151 182
3 182 151 152
3 182 152 90
3 182 90 183
3 183 90 91
3 183 91 184
3 184 91 94
3 185 186 187
3 186 188 189
3 187 186 189
3 189 188 190
3 189 190 122
3 189 122 141
3 189 141 187
3 187 141 136
3 187 136 185
3 185 136 137
3 185 137 111
3 185 111 112
3 185 112 186
3 186 112 188
3 188 112 113
3 188 113 190
3 190 113 116
3 190 116 122
3 127 126 143
3 143 126 142
3 130 134 144
3 144 134 140
3 124 128 127
3 126 128 155
3 155 191 144
3 155 128 192
3 128 124 193
3 129 173 132
3 57 173 125
3 143 194 127
3 127 194 123
3 121 195 196
3 196 195 143
3 195 123 194
3 194 143 195
3 121 196 122
3 122 196 143
3 123 195 46
3 46 195 121
3 191 131 144
3 144 131 130
3 131 197 129
3 197 198 173
3 197 193 198
3 173 198 125
3 125 198 124
3 198 193 124
3 193 192 128
3 155 192 191
3 131 191 197
3 192 197 191
3 192 193 197
3 173 129 197

CELL_TYPES 394
5
5
5
5
5
5
5
5
5
5
5
5
5
5
5
5
5
5
5
5
5
5
5
5
5
5
5
5
5
5
5
5
5
5
5
5
5
5
5
5
5
5
5
5
5
5
5
5
5
5
5
5
5
5
5
5
5
5
5
5
5
5
5
5
5
5
5
5
5
5
5
5
5
5
5
5
5
5
5
5
5
5
5
5
5
5
5
5
5
5
5
5
5
5
5
5
5
5
5
5
5
5
5
5
5
5
5
5
5
5
5
5
5
5
5
5
5
5
5
5
5
5
5
5
5
5
5
5
5
5
5
5
5
5
5
5
5
5
5
5
5
5
5
5
5
5
5
5
5
5
5
5
5
5
5
5
5
5
5
5
5
5
5
5
5
5
5
5
5
5
5
5
5
5
5
5
5
5
5
5
5
5
5
5
5
5
5
5
5
5
5
5
5
5
5
5
5
5
5
5
5
5
5
5
5
5
5
5
5
5
5
5
5
5
5
5
5
5
5
5
5
5
5
5
5
5
5
5
5
5
5
5
5
5
5
5
5
5
5
5
5
5
5
5
5
5
5
5
5
5
5
5
5
5
5
5
5
5
5
5
5
5
5
5
5
5
5
5
5
5
5
5
5
5
5
5
5
5
5
5
5
5
5
5
5
5
5
5
5
5
5
5
5
5
5
5
5
5
5
5
5
5
5
5
5
5
5
5
5
5
5
5
5
5
5
5
5
5
5
5
5
5
5
5
5
5
5
5
5
5
5
5
5
5
5
5
5
5
5
5
5
5
5
5
5
5
5
5
5
5
5
5
5
5
5
5
5
5
5
5
5
5
5
5
5
5
5
5
5
5
5
5
5
5
5
5
5
5
5
5
5
5
5
5
5
5
5
5
5
5
5
5
5
5

CELL_DATA 394
SCALARS cell_data_0 double
LOOKUP_TABLE default
1.33004983289e-08
1.16359816906e-07
9.79785719651e-08
1.69651884939e-07
2.02062341085e-07
3.75135054273e-07
8.89682812462e-07
1.5159983086e-08
7.39130254182e-08
2.2414159345e-07
1.77394634218e-07
5.93101335128e-09
4.53965570667e-08
5.11265621392e-08
6.1678867519e-09
1.04005835005e-07
4.14416617432e-08
1.07780102829e-10
1.88731133557e-08
2.11912161851e-08
3.36531902628e-09
2.0204442492e-09
1.36701900907e-08
1.5331141806e-07
6.32061595509e-06
7.13330641354e-06
8.9408975364e-08
2.05939506682e-07
3.35008854376e-07
1.10117609061e-07
2.19527780811e-07
1.13701897094e-07
1.2724937446e-08
1.6300566669e-07
1.08439545748e-07
3.8350310012e-07
3.24997636834e-07
5.61378447149e-08
2.03903586463e-07
6.61718152768e-08
2.42635699434e-07
6.5095453654e-08
9.83169991632e-08
1.9042679695e-07
9.93052899994e-08
3.73380523986e-07
4.79767141608e-08
2.98335703279e-07
4.16691657245e-08
4.43563406987e-08
6.17002485944e-07
3.93362406231e-07
5.12013899238e-08
2.36587437804e-07
2.99635877264e-09
2.34950742027e-07
1.61654264654e-06
4.3527748011e-07
3.06762908204e-07
2.66717614109e-07
3.45819437106e-06
6.24647854512e-08
3.49643943955e-08
2.25341785655e-08
1.15450266934e-07
1.13723652616e-07
5.12189398954e-08
3.34273541145e-08
6.37146882971e-08
9.98127101235e-09
5.79564422136e-08
1.60389947367e-08
1.03265283632e-08
1.02864826712e-07
1.77862804828e-08
2.63463236259e-08
8.65071957162e-08
6.42657924131e-07
1.29451699034e-06
2.30954285955e-08
1.03144193273e-07
2.15386001803e-06
1.16510992235e-06
2.40386859541e-06
3.12365578948e-06
5.23486077611e-06
2.39247176432e-06
4.79756749423e-07
1.01929560708e-06
1.04732345998e-06
1.47259036194e-06
3.17571552109e-08
3.82782580317e-07
3.56548322433e-08
6.33317750359e-07
3.32184937475e-07
8.76293071821e-07
4.86783657118e-07
1.13513799966e-08
1.29212201002e-07
5.90124909545e-07
1.16274906774e-06
2.19159924987e-06
5.13043953455e-07
1.02344376556e-06
1.47111850715e-06
9.12611763884e-08
2.50987196093e-07
1.44789757814e-07
2.89488587142e-09
4.88099277802e-08
1.63912712575e-07
1.85752728036e-07
9.87642454205e-07
3.93070617125e-07
1.49830570455e-08
3.34735749939e-06
5.10594742268e-06
1.03918940379e-06
1.04072539296e-06
7.03836011166e-07
8.53770413613e-08
1.24481032093e-05
7.33639702837e-07
1.88158937858e-07
1.04596096397e-06
7.69446890298e-08
2.00373235447e-07
1.16713252322e-06
5.89257182499e-06
9.12532908696e-06
9.23399711719e-06
1.94534815143e-05
5.39810463982e-06
6.21853742279e-06
3.58104449646e-07
2.01383859352e-06
1.96161843949e-07
4.02966087073e-07
5.11716767054e-06
8.56475222376e-07
5.04693507646e-06
6.85502685177e-06
1.10120510028e-06
1.3372441514e-06
2.25585721825e-08
3.41619651325e-08
1.59714422089e-08
8.79069068383e-08
6.61684731313e-08
9.8492161356e-08
8.6661449615e-07
3.06768147166e-08
1.12159656219e-07
3.61662871652e-07
7.84584726402e-08
2.021480403e-08
1.29164659799e-07
3.32683711135e-07
8.86391058245e-07
1.41860310302e-06
2.8060591315e-07
3.41614784091e-07
8.35300539336e-08
1.00899751899e-07
4.87983549575e-07
1.73847928073e-07
4.65468496165e-07
2.14624641676e-06
6.65356634099e-07
2.61088634233e-07
6.85505543623e-07
2.22889556426e-07
4.19759792088e-08
1.26910198452e-06
3.1958608533e-08
4.88218232317e-09
3.1858223813e-08
6.2485228709e-08
1.51206898639e-07
6.73623386807e-08
3.07276755328e-07
7.1062928297e-08
6.13842017237e-08
2.56105079148e-07
1.77396271003e-06
2.80390889429e-08
1.17891879044e-07
3.06405031976e-06
3.84528158514e-06
5.42357400071e-07
5.80610393593e-06
3.25806824598e-07
8.33197084229e-07
4.50828335068e-08
6.08997751495e-08
8.99611741804e-08
2.95275205374e-08
1.6583750726e-07
1.087628148e-07
7.86287568268e-09
5.08032702092e-09
2.73534143534e-08
5.77305456357e-08
4.35448500106e-09
2.87835395573e-07
2.80113148496e-07
4.50403865389e-08
1.53953337331e-07
3.35677026737e-08
4.94904165028e-08
4.20995886285e-08
9.22199688432e-08
1.56395115138e-06
6.65625639762e-08
5.59350643002e-08
1.79574481369e-09
1.95922624991e-06
3.37001465255e-07
6.16247366153e-08
3.87507250246e-07
1.4699420878e-07
2.90000070004e-08
4.97944823296e-07
2.68448694662e-07
1.73307153685e-07
2.01135039237e-07
7.55267203269e-08
3.07153109706e-07
1.94782234338e-07
2.96027381052e-07
2.89801963396e-08
3.67105419536e-08
1.09802515394e-08
6.61787722726e-08
4.07353585627e-07
1.30454024867e-07
1.83700633275e-08
5.409100185e-08
1.65047362769e-08
1.24564910118e-08
2.90148174652e-08
8.81437287772e-08
4.58483713565e-08
1.62198138539e-07
1.44098931477e-08
1.47734731347e-07
1.96839061048e-08
1.53885684393e-08
1.83641358162e-08
2.28223981654e-09
1.59632342367e-07
2.05959077588e-08
9.21602852209e-08
1.10547114305e-06
3.17358979043e-07
8.19813630794e-06
3.35095927828e-06
4.95467450687e-06
1.9010390766e-06
1.58552215739e-07
5.97674438746e-07
7.24358876025e-08
2.93407437049e-07
2.01911355521e-06
4.40257206337e-07
2.51246383954e-07
2.95908275218e-06
2.97793576448e-06
4.58778632312e-06
1.76929353419e-06
9.49969331108e-08
3.09179896016e-08
4.60984870868e-08
8.16472852972e-08
1.25534623749e-06
4.22626205692e-07
8.38786768445e-07
4.00609979672e-07
9.3744390578e-08
2.57393964303e-07
3.96538524236e-08
1.26143849287e-07
1.07887161265e-07
1.80495065544e-08
7.46086891464e-07
1.60997131245e-08
7.79165040492e-07
1.86230548502e-07
4.18894613172e-07
4.38078734828e-07
1.11119214749e-06
1.85713214457e-07
5.01214956733e-07
9.86989516162e-07
2.44262562534e-06
4.26781807015e-08
4.48455308423e-06
4.86007050778e-07
1.04168159857e-07
1.87696231438e-07
3.67366397476e-08
5.19715080361e-07
7.36303601371e-07
1.2595973555e-05
5.58109714116e-06
5.05342887051e-06
1.06731403374e-05
1.07697426448e-06
3.10761575269e-08
1.8158570796e-07
6.7008106156e-08
5.11810519828e-08
7.08019960031e-08
6.36674480657e-08
9.04819554664e-07
2.25784717449e-07
1.15702069466e-07
6.61490559849e-07
2.12866659184e-07
5.02007724264e-07
4.98554681726e-07
3.75517845745e-06
5.39711280923e-06
4.97470974881e-06
1.18743609563e-05
3.99777479888e-06
1.39089420456e-07
2.38775984696e-07
3.6094215119e-07
4.49734876196e-06
2.47006727332e-06
4.00030043028e-06
9.11974011436e-06
3.20848104303e-06
2.80242075711e-07
5.25891798873e-07
1.22579504523e-07
1.88080109301e-06
6.8704083953e-06
8.06391124135e-06
1.21609647078e-07
1.83425665397e-08
2.19418026986e-07
9.56582983543e-09
2.5574635491e-07
3.28528775191e-06
1.23741931691e-06
3.08128890438e-07
2.78728055557e-07
1.01120326411e-06
8.99495728924e-07
1.15897752333e-07
4.23330067905e-07
1.24755744586e-07
5.68615367485e-09
2.81042908854e-07
4.67357988155e-07
2.4784033591e-07
4.89646567728e-06
7.36099787827e-07
3.97759917144e-06
1.03629634747e-05
1.79300241478e-06
1.05392209295e-06
4.97038571658e-07
1.3987130454e-06
1.98268454906e-06
5.2291386903e-07
3.17837678687e-06
1.7194616204e-06
1.96613695789e-07
1.88443164509e-06
1.6125129481e-06
6.68118383864e-07
4.27704566391e-07
5.27180456676e-07
2.81048227264e-06
2.18052999414e-07
5.55822684323e-07
2.92130387372e-07
3.67620885127e-06
1.27292814132e-07
1.97556402006e-06
2.68711725202e-06
1.91335845319e-06
1.61826444738e-07
1.74587695318e-06
1.29544138182e-08
1.23273051109e-06
1.3857628673e-07
1.94076253577e-06
1.33862573909e-06
1.41420869525e-06

