# vtk DataFile Version 3.0
File Name: Molecule/arg/arg_1.0-5.vtk
ASCII
DATASET UNSTRUCTURED_GRID
FIELD FieldData 1
TIME 1 1 double
0.0
POINTS 235 double
-3.4412734509 0.24700434506 1.4227573872
-3.1700499058 -0.10189799964 0.60076236725
-3.0450413227 -0.49367442727 1.515108943
-2.7227942944 -0.52778869867 0.45281901956
-2.9968833923 0.097964420915 0.028158694506
-2.2940769196 -0.36793088913 -0.31398841739
-2.2834630013 -0.37820014358 -1.0170968771
-2.056473732 -0.77082681656 -0.79804092646
-2.5955066681 1.4944255352 -0.68384730816
-2.5146512985 -0.02901032567 -1.0820040703
-2.2275948524 1.1539244652 -1.5988512039
-1.946156621 1.6563687325 -1.0959920883
-2.6525759697 2.0863213539 -0.30342432857
-1.464198947 3.1676394939 0.21817919612
-1.7548197508 2.4876568317 -0.63781887293
-2.4898676872 2.657740593 0.6598316431
-3.041383028 2.34643507 1.6075159311
-1.8465559483 3.3344025612 1.5132837296
-2.5228409767 2.9825925827 2.3103079796
-2.7122237682 2.5731415749 2.72824049
-3.0581707954 1.8952952623 2.3405525684
-3.4285449982 1.7832468748 1.7483680248
-3.3908026218 0.78369241953 1.9434175491
-3.1520886421 0.82340162992 2.8764669895
-3.0289199352 0.45082995296 2.3868207932
-3.1052188873 0.10634563863 1.8745213747
-2.865332365 0.240801543 3.2356805801
-2.7613763809 -0.037175048143 2.5062265396
-2.883638382 -0.19501291215 2.1158092022
-2.5065925121 -0.72299355268 2.4107894897
-2.2505905628 -0.3426015079 3.3786022663
-1.7265130281 -1.7122969627 1.3188310862
-2.2762732506 -1.1362683773 0.39578902721
-0.98287534714 -2.2144784927 0.30110156536
-1.8714416027 -1.4672771692 -0.36485773325
-1.911169529 -1.2812825441 -1.0604916811
-2.0808827877 -0.71344339848 -1.3061687946
-1.5919685364 -1.5319092274 -1.7956866026
-2.1186358929 -0.66805052757 -1.0325818062
-2.236156702 -0.43457660079 -1.8536037207
-1.7537921667 -0.75966829062 -2.0650699139
-2.2395632267 0.20786839724 -2.3138599396
-1.5559518337 0.13702373207 -2.7026927471
-1.8427193165 0.97222942114 -2.3891854286
-1.0701659918 0.70029783249 -3.4203307629
-1.5613224506 1.4554932117 -2.2496068478
-1.8696597815 1.4513937235 -1.7742440701
-1.2271720171 1.614451766 -2.8619427681
-1.1038788557 2.066565752 -2.2002384663
-1.4788749218 1.8201926947 -1.7457150221
-1.1914297342 2.3922455311 -1.3908947706
-0.40797200799 2.6024026871 -2.4563686848
-0.3480181098 2.9161748886 -1.6890530586
-0.92906576395 3.1854548454 -1.0468008518
0.40891948342 3.0896298885 -1.0401115417
0.35801717639 3.055049181 -2.1231029034
1.0640234947 2.4636170864 -0.46415635943
0.86554217339 2.6538271904 -1.489505291
1.5090353489 1.9520081282 -1.0685464144
0.92964720726 2.795940876 0.3433033824
1.5390114784 1.9173195362 0.067666053772
1.2185109854 2.2062542439 1.0085208416
0.2751737833 3.0732793808 0.98704516888
1.250456214 2.2555980682 1.9779046774
0.586820364 2.82462883 2.4134464264
-0.15185678005 3.3993630409 2.0529150963
-0.45767647028 3.3230361938 3.4351928234
0.81339722872 2.8256011009 3.348231554
-0.77304768562 2.8209879398 3.9339225292
-1.2889275551 3.6816647053 3.3888661861
-1.7386687994 2.8525850773 3.8374955654
-2.0425591469 3.2340326309 3.3964710236
-2.275503397 2.6614136696 3.6106572151
-1.038987875 2.094686985 4.4126868248
0.010976616293 2.5991897583 4.0572762489
-0.4393529892 1.6286813021 4.634329319
-2.4434325695 2.2230000496 4.1104416847
-1.5677860975 1.7553938627 4.5600757599
-3.0455582142 1.910176158 3.1457779408
-0.27685332298 0.93419617414 4.7905569077
-1.1040251255 1.0916787386 4.6047210693
-0.11968888342 0.37761697173 5.0291724205
-0.80554276705 0.33326974511 4.6601266861
-1.6471904516 0.70563787222 4.6400442123
-0.85801243782 -0.3808773458 4.7902107239
-1.6782586575 -0.88656014204 4.3373508453
-2.3491449356 0.23412483931 4.2305045128
-1.9826167822 -1.3158352375 3.2998113632
0.17067541182 -1.181334734 5.0847229958
0.36411526799 -0.33668512106 5.2139391899
1.2452036142 -0.81542170048 5.3358879089
1.4745379686 -1.843972683 4.6746664047
0.56237441301 -2.2815299034 4.4951639175
1.6097719669 -2.1216087341 4.0478115082
1.0757005215 -2.4731681347 3.2647538185
1.0310194492 -1.8519430161 2.1409509182
1.9327352047 -1.923546195 2.7987673283
0.78751158714 -1.650991559 1.2426712513
0.1323762387 -2.1523168087 1.2346352339
0.14211347699 -2.6046216488 2.2651712894
1.0506241322 -1.8220068216 0.33273351192
0.049801345915 -2.4804978371 0.29470163584
-0.78074061871 -1.982395649 1.1935559511
-0.95920783281 -2.2704281807 2.1131258011
1.3965792656 -0.83416259289 1.1113182306
1.4181909561 -1.0257074833 0.16478684545
1.9115353823 -1.4774889946 2.2940313816
1.4021854401 -1.2114883661 1.7510131598
2.334820509 -0.7259850502 1.989397049
1.7008929253 -0.1059102267 0.67019069195
1.7503089905 0.20068359375 -0.34713226557
1.6549553871 -0.65300422907 -0.72397828102
1.5615179539 -1.5041382313 -1.5925382376
2.1963424683 -0.15826515853 -1.4390467405
2.0776219368 -1.1010158062 -2.2551326752
1.05004251 -1.4584095478 -2.8941044807
0.49942451715 -2.1571526527 -2.1506183147
-0.28031340241 -1.4138935804 -2.6521368027
0.10774733126 -0.7054527998 -3.5244157314
-0.38110840321 -0.71098619699 -3.0241184235
-0.99498224258 -0.69414716959 -2.6648097038
-0.7186614275 -0.22875869274 -3.275967598
-0.98704957962 -1.3287354708 -2.4004161358
-0.13640370965 0.38778847456 -3.9675042629
0.52880567312 0.36410602927 -4.225883007
-0.41953572631 1.9465205669 -3.5678174496
0.0019864961505 2.9983949661 -3.6606440544
-0.060009561479 3.3298144341 -2.9806957245
0.92477315664 2.2132298946 -4.0327658653
0.1298596859 2.0231647491 -4.1268901825
0.46977975965 2.9531440735 -3.8951649666
0.9185281992 3.2435085773 -2.8391833305
1.5082658529 2.7557554245 -2.6233634949
1.2153325081 3.1117982864 -3.0396187305
0.76912736893 2.9027802944 -2.3469970226
2.4446277618 1.2218078375 -2.2672162056
2.1368963718 1.5164484978 -1.7979011536
2.3523886204 0.61882001162 -1.6211795807
1.9608786106 0.90230894089 -1.0820951462
1.9728983641 0.92859792709 0.01909298636
1.8323444128 1.8867220879 -3.4620273113
1.1938239336 1.6543281078 -4.1734466553
1.6140483618 2.3052418232 -3.4361999035
1.8831949234 1.3161334991 1.3392059803
2.5435523987 0.95255160332 2.5851888657
1.8431688547 1.5795929432 2.3227756023
1.830992341 1.9865914583 3.2157053947
2.3441333771 1.4677985907 3.4032962322
0.52727073431 1.5522061586 4.763821125
1.351211071 0.77633368969 5.0771412849
1.3750613928 1.8056014776 4.2691922188
0.47710335255 0.79458421469 5.0082345009
1.1451728344 2.6168038845 -2.0342321396
1.4284542799 2.6201789379 -3.35673666
0.88437759876 2.9227662086 -3.7054316998
1.8433127403 1.3092091084 -3.8157095909
-3.5276415348 2.2041347027 0.82281625271
-3.5321877003 1.6303826571 -0.077901273966
-3.9368679523 1.1581876278 0.84710973501
-2.6521480083 -1.272660017 1.3757452965
-1.987344861 -1.5456916094 2.2215988636
0.54806911945 3.3687660694 -0.08396730572
-1.1135212183 4.0094885826 2.4950485229
-2.127563715 3.6425123215 2.5110654831
-2.848664999 1.3390179873 4.3459396362
-0.65063005686 -2.5899400711 4.3105969429
-0.80243003368 -1.6617990732 4.932141304
-1.5679670572 -1.8451946974 4.2324371338
-0.86942595243 -2.8353042603 3.1338760853
-1.627201438 -1.9598381519 2.5996367931
0.32127580047 -2.9040915966 3.3846607208
0.48992860317 -2.7863414288 -0.90610712767
-0.77256304026 -2.7666699886 -0.75299435854
-0.5933405757 -2.4381594658 -1.951705575
1.3749924898 -2.1048555374 -0.76186496019
0.49123609066 3.4039387703 -2.6982185841
1.7221997976 2.2266335487 -1.8755310774
1.3086658716 2.5823431015 2.8601779938
0.87919670343 2.4540576935 4.0904493332
3.6679399014 -0.31380647421 3.6995787621
3.3255562782 0.16496506333 4.6400957108
3.3348050117 -0.88652592897 4.5794320107
3.2551383972 -1.4588598013 3.6904494762
3.2473316193 -0.85199666023 2.6830396652
3.3363833427 0.1936108619 2.7814354897
3.3449454308 0.7229167223 3.6898255348
2.310082674 0.20964729786 5.3887796402
2.477370739 -0.8263771534 5.3311738968
2.5047011375 -1.6843506098 4.6869673729
2.7455158234 -1.6871395111 2.9076929092
2.883235693 1.1817115545 3.5078742504
2.3285005093 1.1655782461 4.6364507675
2.013507843 -1.8098655939 4.7062125206
2.9107367992 0.10831639171 -2.598603487
2.5698428154 -0.62143570185 -3.3724827766
2.6591842175 0.49531573057 -3.6161563396
1.8076545 -1.222353816 -3.4023087025
1.8017907143 -0.30558252335 -4.2484798431
0.87783753872 -0.71243298054 -4.0979866982
0.82528561354 0.96117836237 -4.3373990059
2.3363106251 1.6368457079 -2.9281928539
0.36905622482 1.3439129591 -4.397939682
0.83777457476 1.5705616474 -4.4474782944
1.0782095194 3.1997132301 -3.3834040165
0.71652030945 3.3173377514 -3.7886888981
0.2166800648 3.3284032345 -3.787848711
-0.037778124213 1.6684155464 -4.1098546982
-0.2791993916 1.2956391573 -3.9621229172
0.16912387311 0.87667489052 -4.1328310966
0.83124798536 3.5881061554 -3.4227612019
-0.024532020092 3.4466676712 -3.4233472347
1.7587621212 2.4702782631 -2.2712564468
2.0435609818 2.5161089897 -3.1079092026
2.1052143574 1.8577599525 -2.2099010944
2.1118736267 2.0507655144 -2.3708975315
0.4827568531 0.90099924803 -4.2451782227
1.4160569906 2.3645451069 3.6520740986
1.8772847652 1.6704224348 3.9287540913
1.9704355001 -2.1022436619 3.457985878
2.1762075424 2.1375956535 -3.1465623379
2.1922409534 2.1627292633 -2.5388510227
2.2420804501 1.6894023418 -2.4330742359
2.8949673176 -1.7217634916 4.1775174141
2.7485792637 -1.8866927624 3.5530974865
2.314735651 -2.0253846645 4.1015057564
2.2344517708 1.545378685 -2.2488985062
-1.3524326086 -1.9108337164 1.8811459541
2.453635931 1.3871489763 4.0203294754
1.8754796982 1.3818583488 4.4598793983
-0.79179018736 -2.8157579899 3.7162237167
-0.1719045043 -2.861856699 3.924230814
-0.33055928349 -2.9646046162 3.3695940971
3.4165053368 0.48297944665 4.1773710251
2.9046697617 1.0921607018 4.1809678078
2.8968493938 0.76774144173 4.7312364578

CELLS 466 1864
3 0 1 2
3 2 1 3
3 1 4 3
3 5 6 7
3 4 8 9
3 9 8 10
3 8 11 10
3 12 11 8
3 13 14 15
3 12 15 14
3 15 16 17
3 17 16 18
3 19 16 20
3 21 20 16
3 21 22 20
3 22 23 20
3 24 22 25
3 0 25 22
3 23 24 26
3 27 26 24
3 27 24 28
3 28 25 2
3 2 29 28
3 29 30 27
3 31 32 33
3 33 32 34
3 32 5 34
3 3 5 32
3 34 7 35
3 35 36 37
3 36 38 6
3 9 6 5
3 9 39 6
3 40 37 36
3 39 41 40
3 42 40 41
3 41 43 42
3 42 43 44
3 45 43 46
3 10 46 43
3 47 45 48
3 49 48 45
3 49 11 50
3 50 11 14
3 51 48 52
3 50 52 48
3 53 54 52
3 52 54 55
3 52 55 51
3 54 56 57
3 57 56 58
3 56 59 60
3 60 59 61
3 59 62 61
3 63 62 64
3 65 62 17
3 13 17 62
3 65 66 64
3 64 66 67
3 68 69 70
3 71 70 69
3 70 71 72
3 18 19 71
3 68 73 74
3 74 73 75
3 76 77 70
3 72 76 70
3 76 72 78
3 20 78 19
3 79 75 80
3 77 80 73
3 81 79 82
3 83 82 80
3 84 83 85
3 86 85 83
3 86 30 85
3 85 30 87
3 82 84 81
3 88 89 84
3 90 88 91
3 92 91 88
3 91 92 93
3 94 95 96
3 97 95 98
3 99 98 95
3 97 98 100
3 101 100 98
3 102 98 103
3 99 103 98
3 98 102 101
3 101 102 33
3 100 104 97
3 105 104 100
3 106 107 108
3 104 108 107
3 109 105 110
3 111 110 105
3 111 112 113
3 113 112 114
3 114 112 115
3 116 115 112
3 116 117 115
3 115 117 118
3 119 117 120
3 121 119 120
3 120 122 40
3 37 40 122
3 120 42 121
3 121 42 44
3 123 118 121
3 118 123 124
3 125 51 126
3 126 51 127
3 128 129 130
3 131 132 133
3 131 134 132
3 55 57 134
3 135 136 137
3 138 137 136
3 138 58 139
3 139 58 60
3 139 110 138
3 110 113 138
3 140 141 142
3 109 143 108
3 108 143 144
3 145 143 63
3 61 63 143
3 146 147 145
3 144 145 147
3 148 149 150
3 148 79 151
3 151 79 81
3 151 89 149
3 149 89 90
3 25 0 2
3 5 3 4
3 4 9 5
3 46 10 11
3 14 11 12
3 17 13 15
3 19 18 16
3 78 20 23
3 24 23 22
3 26 27 30
3 87 30 29
3 102 31 33
3 7 34 5
3 36 35 38
3 39 40 36
3 47 44 43
3 45 47 43
3 50 48 49
3 127 51 55
3 53 52 50
3 152 134 57
3 57 55 54
3 60 58 56
3 63 61 62
3 65 64 62
3 68 74 66
3 75 73 80
3 80 82 79
3 84 82 83
3 90 89 88
3 107 106 95
3 107 95 97
3 107 97 104
3 109 108 104
3 109 104 105
3 113 110 111
3 119 118 117
3 122 120 117
3 126 129 125
3 153 128 154
3 152 132 134
3 137 138 113
3 141 140 155
3 145 144 143
3 151 149 148
3 156 157 158
3 158 157 4
3 0 158 1
3 158 0 22
3 158 22 21
3 158 21 156
3 156 21 16
3 156 16 15
3 157 156 12
3 15 12 156
3 157 12 8
3 157 8 4
3 4 1 158
3 3 32 159
3 3 159 2
3 2 159 29
3 27 28 29
3 29 159 160
3 31 159 32
3 7 38 35
3 38 7 6
3 10 41 9
3 39 9 41
3 36 6 39
3 43 41 10
3 11 49 46
3 46 49 45
3 13 62 161
3 13 161 53
3 13 53 14
3 50 14 53
3 53 161 54
3 54 161 56
3 56 161 59
3 59 161 62
3 69 162 163
3 69 163 71
3 66 69 68
3 69 66 162
3 162 66 65
3 162 65 17
3 162 17 163
3 163 17 18
3 163 18 71
3 73 70 77
3 19 72 71
3 72 19 78
3 70 73 68
3 23 26 164
3 23 164 78
3 78 164 76
3 76 164 77
3 164 83 77
3 80 77 83
3 83 164 86
3 86 164 26
3 86 26 30
3 25 28 24
3 165 166 167
3 165 92 166
3 166 92 88
3 166 88 84
3 166 84 85
3 166 85 167
3 167 85 87
3 168 167 169
3 168 103 99
3 170 99 94
3 170 94 92
3 94 99 95
3 171 172 173
3 171 173 116
3 171 116 174
3 171 174 100
3 171 100 101
3 171 101 172
3 172 101 33
3 172 33 34
3 172 34 35
3 172 35 37
3 172 37 173
3 173 37 122
3 173 122 117
3 173 117 116
3 100 174 105
3 105 174 111
3 111 174 112
3 112 174 116
3 42 120 40
3 125 47 51
3 47 125 44
3 44 123 121
3 119 121 118
3 48 51 47
3 55 134 175
3 58 138 136
3 152 57 176
3 61 143 60
3 60 143 139
3 110 139 109
3 143 109 139
3 146 145 177
3 150 178 148
3 148 178 74
3 148 74 75
3 148 75 79
3 89 81 84
3 81 89 151
3 179 180 181
3 179 181 182
3 179 182 183
3 179 183 184
3 179 184 185
3 180 186 187
3 181 180 187
3 181 187 188
3 106 108 189
3 183 108 184
3 184 108 144
3 185 184 190
3 186 191 149
3 186 149 90
3 186 90 187
3 187 90 192
3 193 194 195
3 194 196 197
3 195 194 197
3 197 196 198
3 197 198 124
3 155 197 199
3 197 155 195
3 135 195 200
3 195 135 193
3 193 135 137
3 193 137 113
3 193 113 114
3 193 114 194
3 194 114 196
3 196 114 115
3 196 115 198
3 198 115 118
3 198 118 124
3 201 129 202
3 126 130 129
3 128 130 154
3 154 203 153
3 154 130 204
3 130 126 205
3 131 175 134
3 55 175 127
3 201 206 129
3 129 206 125
3 123 207 208
3 208 207 201
3 207 125 206
3 206 201 207
3 123 208 124
3 125 207 44
3 44 207 123
3 203 133 153
3 153 133 132
3 209 131 203
3 209 210 175
3 209 205 210
3 175 210 127
3 127 210 126
3 210 205 126
3 205 204 130
3 154 204 203
3 133 203 131
3 204 209 203
3 204 205 209
3 175 131 209
3 152 211 132
3 132 211 212
3 136 213 176
3 211 176 214
3 176 211 152
3 124 199 197
3 155 199 141
3 141 199 202
3 202 199 201
3 199 124 215
3 215 201 199
3 136 176 58
3 58 176 57
3 178 67 74
3 74 67 66
3 64 67 177
3 67 216 177
3 67 178 216
3 177 216 146
3 64 177 63
3 63 177 145
3 146 216 217
3 216 178 150
3 141 202 128
3 128 202 129
3 201 215 208
3 208 215 124
3 218 93 94
3 94 93 92
3 106 96 95
3 94 96 218
3 219 220 200
3 221 200 220
3 221 135 200
3 219 200 140
3 140 200 155
3 155 200 195
3 153 142 128
3 128 142 141
3 188 222 181
3 181 222 182
3 182 222 223
3 222 224 223
3 222 188 224
3 223 224 218
3 182 223 189
3 96 189 218
3 223 218 189
3 189 96 106
3 182 189 183
3 183 189 108
3 91 192 90
3 187 192 188
3 188 192 224
3 192 93 224
3 192 91 93
3 224 93 218
3 220 212 211
3 132 212 153
3 153 212 142
3 140 142 219
3 212 220 219
3 212 219 142
3 213 214 176
3 214 220 211
3 220 214 221
3 225 221 213
3 214 213 221
3 221 225 135
3 135 225 136
3 225 213 136
3 31 160 159
3 29 160 87
3 87 160 169
3 160 226 169
3 160 31 226
3 169 226 103
3 150 217 216
3 146 217 147
3 147 217 227
3 217 228 227
3 217 150 228
3 227 228 191
3 191 228 149
3 228 150 149
3 103 226 102
3 102 226 31
3 168 229 167
3 167 229 165
3 165 229 230
3 229 231 230
3 229 168 231
3 230 231 170
3 165 230 92
3 230 170 92
3 87 169 167
3 168 169 103
3 170 231 99
3 99 231 168
3 185 232 179
3 179 232 180
3 147 190 144
3 144 190 184
3 185 190 233
3 190 227 233
3 190 147 227
3 233 227 191
3 185 233 232
3 233 234 232
3 233 191 234
3 232 234 180
3 180 234 186
3 234 191 186

CELL_TYPES 466
5
5
5
5
5
5
5
5
5
5
5
5
5
5
5
5
5
5
5
5
5
5
5
5
5
5
5
5
5
5
5
5
5
5
5
5
5
5
5
5
5
5
5
5
5
5
5
5
5
5
5
5
5
5
5
5
5
5
5
5
5
5
5
5
5
5
5
5
5
5
5
5
5
5
5
5
5
5
5
5
5
5
5
5
5
5
5
5
5
5
5
5
5
5
5
5
5
5
5
5
5
5
5
5
5
5
5
5
5
5
5
5
5
5
5
5
5
5
5
5
5
5
5
5
5
5
5
5
5
5
5
5
5
5
5
5
5
5
5
5
5
5
5
5
5
5
5
5
5
5
5
5
5
5
5
5
5
5
5
5
5
5
5
5
5
5
5
5
5
5
5
5
5
5
5
5
5
5
5
5
5
5
5
5
5
5
5
5
5
5
5
5
5
5
5
5
5
5
5
5
5
5
5
5
5
5
5
5
5
5
5
5
5
5
5
5
5
5
5
5
5
5
5
5
5
5
5
5
5
5
5
5
5
5
5
5
5
5
5
5
5
5
5
5
5
5
5
5
5
5
5
5
5
5
5
5
5
5
5
5
5
5
5
5
5
5
5
5
5
5
5
5
5
5
5
5
5
5
5
5
5
5
5
5
5
5
5
5
5
5
5
5
5
5
5
5
5
5
5
5
5
5
5
5
5
5
5
5
5
5
5
5
5
5
5
5
5
5
5
5
5
5
5
5
5
5
5
5
5
5
5
5
5
5
5
5
5
5
5
5
5
5
5
5
5
5
5
5
5
5
5
5
5
5
5
5
5
5
5
5
5
5
5
5
5
5
5
5
5
5
5
5
5
5
5
5
5
5
5
5
5
5
5
5
5
5
5
5
5
5
5
5
5
5
5
5
5
5
5
5
5
5
5
5
5
5
5
5
5
5
5
5
5
5
5
5
5
5
5
5
5
5
5
5
5
5
5
5
5
5
5
5
5
5
5
5
5
5
5
5
5
5
5
5
5
5
5
5
5
5
5
5
5
5
5
5
5
5
5
5
5
5
5
5
5
5

CELL_DATA 466
SCALARS cell_data_0 double
LOOKUP_TABLE default
2.42127291085e-08
6.64483771754e-08
1.03543910556e-07
1.72805415172e-07
1.73732367678e-07
5.9950133361e-07
9.04100168214e-07
8.30484395353e-09
1.01586726468e-07
1.57756826772e-07
1.82555825939e-07
3.88829222557e-08
5.47996564609e-08
2.53025340299e-08
2.27528328899e-08
5.47624716717e-08
4.2764150929e-08
1.9255937824e-08
1.01879655895e-08
3.72405674496e-08
6.00487640787e-08
1.66230554589e-08
6.46104729747e-08
1.49864173496e-07
9.25400440365e-08
7.30125638205e-08
3.14160689988e-07
1.43668110767e-07
2.43975637009e-07
1.64466899431e-07
7.95039997123e-08
1.36159043908e-07
4.01020933226e-08
6.40930155484e-08
3.27633034124e-07
6.98327242437e-08
2.05344769671e-07
1.84264927369e-07
2.5713133044e-07
7.45379167875e-09
1.67636438223e-07
2.40619036016e-07
1.56119351579e-07
3.09915308268e-07
3.30063360372e-07
4.21541026945e-07
2.1085713571e-07
3.06177364755e-07
2.43383868957e-07
2.60578312397e-07
6.38776014046e-08
1.73931461619e-07
5.25805698978e-09
1.38389425022e-07
3.83826827405e-07
1.31393971675e-07
1.50015751472e-07
1.33548305312e-07
1.25468113834e-06
5.79820812966e-08
3.11141462224e-08
1.34745010796e-08
1.11884809395e-07
9.68437847229e-08
4.76005674057e-08
3.51682394715e-08
5.26901112893e-08
1.08668632479e-08
6.58786482207e-08
2.35372956898e-08
2.97498543073e-08
7.23404439908e-08
2.07157453019e-08
2.68521063356e-08
6.68184123513e-08
5.345953614e-07
1.11113879088e-07
8.45069236686e-09
7.63773581746e-08
1.14148495474e-06
1.64739418507e-06
2.55073113857e-06
2.47760212996e-06
3.34237524983e-07
9.07588341873e-07
9.71618039734e-07
1.46582159809e-06
1.0099208667e-07
3.28194663427e-07
3.55861965651e-08
6.84702839904e-07
1.79607269387e-07
8.7704093212e-07
1.96719203879e-08
9.18613837367e-08
1.06859322154e-07
6.34610996016e-07
1.3635236436e-06
1.69031500645e-06
2.40999151598e-07
6.66791008986e-07
1.46044211273e-06
1.49083317544e-07
2.76922886877e-07
1.32856402704e-07
2.62593201511e-08
1.37393534877e-07
4.41859821326e-08
2.19751686474e-07
1.34039105734e-06
1.59306087723e-07
5.77320240224e-08
3.60938246579e-06
2.590048132e-06
1.40773650661e-06
7.22791403987e-07
6.15667335976e-07
8.06738118381e-07
3.27401426745e-07
9.75718230725e-07
5.91220315907e-08
1.80344805033e-07
1.41501548751e-06
4.71192823176e-07
6.57035453018e-07
1.33397845136e-06
9.83366964555e-07
2.09445505934e-07
2.23324982942e-06
3.8487917674e-07
6.64777345959e-07
3.43264342734e-08
3.53166277257e-10
3.32651961463e-08
2.31064764338e-08
5.9756353949e-08
5.53334649145e-08
9.24245079899e-07
4.750002616e-08
1.44266726598e-07
3.53781853426e-07
9.48457676905e-08
2.60103539841e-08
1.52995738098e-07
4.32716426235e-07
6.29301616895e-07
2.74186981156e-07
2.78890920819e-07
6.03848325659e-09
2.10005955696e-07
6.35492113659e-07
2.65318189964e-07
2.61894828451e-07
1.87682718174e-06
1.05903093351e-06
2.71652412604e-07
7.99487649989e-07
1.32428710612e-07
1.20057322842e-07
3.97469113996e-07
1.60802863427e-09
7.19702438353e-09
5.85362378673e-10
4.48790240761e-08
1.50602677609e-07
3.4653226131e-08
9.50247122724e-08
1.26946074737e-07
1.85253557423e-07
1.49582598379e-07
1.69805464946e-06
5.64747076737e-08
1.41955354995e-07
3.04867795033e-06
1.90424168835e-06
5.6198922e-07
6.90292622806e-07
7.76735313198e-08
1.29174542028e-06
7.46259794785e-08
8.77978799878e-08
3.54046291586e-08
8.63666783352e-08
9.65658182794e-08
1.19737598806e-08
1.77894330634e-09
4.5306815868e-08
6.71031658359e-08
1.35285266853e-08
1.86512105286e-07
2.82268042611e-07
2.21810732675e-08
1.3001128844e-07
1.50303459375e-08
2.93326949047e-08
1.75455228463e-08
1.67971793995e-08
3.29386165903e-08
1.38954072623e-07
2.15828678828e-08
2.94029904071e-08
1.59696234077e-06
3.09853557121e-07
1.17440711505e-07
2.83255806593e-07
7.2126922361e-08
6.79358676859e-08
3.82827294985e-07
4.22874158543e-07
9.20067313651e-08
4.70366187143e-07
1.06937067308e-07
2.65952117338e-07
2.30220978451e-07
3.19815862042e-07
7.88678043431e-09
2.3556794216e-08
2.46344808617e-08
1.31776785645e-08
7.7202323087e-08
4.2425858898e-08
3.72265147222e-09
5.67148308851e-08
1.70834595341e-08
1.49672509392e-10
1.53336321438e-08
6.3829131034e-08
7.1696884615e-08
1.2701345668e-07
3.00017876288e-08
1.21367159681e-07
2.06967134989e-08
5.09590752902e-09
1.07345612692e-08
3.29851377367e-08
1.52834704177e-07
1.95998913067e-08
2.49951867142e-08
8.62749705288e-07
6.48835173376e-06
1.09332350114e-06
3.16445841374e-07
5.43131576939e-07
2.54417812214e-07
7.23261172813e-07
1.24772441891e-06
5.53953806571e-08
2.87003162575e-06
2.8597796178e-06
3.3946810466e-06
9.46419142722e-08
3.25258107849e-08
3.18025817732e-08
1.35047205198e-07
1.24841679282e-06
4.42891329379e-07
7.76869992668e-07
2.97048329705e-07
1.10498954488e-07
3.03395615345e-07
5.28748039388e-08
1.14385552793e-07
1.27020969502e-07
2.38232613898e-08
7.5832874261e-07
5.57582085624e-08
7.78021662695e-07
1.840038757e-07
4.37637065154e-07
1.09245727271e-06
6.4066699695e-07
1.61160884042e-07
5.57229164004e-07
3.18145397712e-08
2.59064663339e-06
4.9422226171e-07
2.25976698963e-07
7.61079914162e-08
2.50889099847e-07
9.23788813876e-08
4.15825144802e-07
3.73274074635e-06
1.93309840507e-07
2.97974186025e-07
1.56100444828e-07
4.00188012431e-08
6.44929362996e-08
3.03573220295e-08
2.24007423469e-08
9.58846386402e-08
1.79851989264e-07
2.0531929637e-07
7.08215773743e-08
7.44601296433e-07
2.6729791286e-08
2.63154734798e-06
4.61650401227e-07
6.16695272319e-07
3.48952948859e-07
7.34025273146e-06
6.11374755309e-08
5.6151626547e-07
1.77030716361e-07
3.28243513468e-06
3.08468457858e-09
4.95582603654e-08
9.68565436842e-08
7.15532282643e-08
1.58989166669e-07
6.35155156297e-06
6.12282916957e-07
3.77764496696e-06
1.98488628603e-07
8.40807199436e-07
8.17402058493e-07
5.47020317136e-08
4.53712415599e-07
9.32875102828e-08
5.30040343564e-08
1.77135349497e-07
4.83065438783e-07
5.89224776264e-07
2.28296439585e-06
2.20502085898e-06
5.17164641844e-07
8.71004794903e-08
1.13896004289e-06
2.01318557021e-06
1.89076337798e-07
3.32683160823e-06
7.81663350722e-07
3.23747407032e-07
2.77702574381e-07
1.57200151721e-07
1.14577404242e-07
8.32600037181e-08
6.45727953919e-07
7.56123034832e-07
1.85074507968e-07
7.41862805904e-07
7.14322897607e-07
5.15926269496e-07
2.7571754267e-06
2.59911379822e-06
1.86052526684e-06
4.84799338396e-07
1.87231995229e-06
2.82463996259e-07
1.33904476531e-06
7.12179716124e-07
2.35171215275e-06
1.09542698304e-06
1.73009622021e-06
2.17572066013e-06
1.30139628335e-06
5.20714556316e-07
8.89398813309e-07
1.04412479179e-06
3.15922232495e-06
2.14929498075e-06
2.85843983936e-06
3.10656459273e-06
6.48737004892e-07
8.85498953039e-07
1.44672331176e-07
3.89996667165e-07
1.07316391153e-06
1.29711825696e-07
4.51138008968e-08
1.06625703338e-06
1.190832562e-06
1.50788701266e-06
8.17139084108e-08
7.00037750287e-07
2.37329479585e-07
1.20604840247e-06
3.83946189773e-06
5.03197534876e-06
4.72002463789e-07
2.09034982413e-07
2.21186084271e-06
2.43621337867e-06
1.92330200567e-07
5.9223460087e-07
1.74523631681e-06
1.03612172565e-06
1.69530842856e-07
8.13220143842e-07
1.03131867913e-06
4.54892873282e-06
4.17310181462e-07
5.96542418926e-07
1.82277528861e-06
4.34857446326e-07
6.77662709374e-07
5.10114438226e-07
1.0979797346e-06
1.03009588881e-06
2.69281732517e-07
1.09949876472e-06
9.62989087284e-07
1.7100993151e-07
3.59747326226e-07
4.8402842773e-07
4.0203380025e-06
2.11523382659e-06
2.76115951072e-07
1.55783125602e-06
1.16630286783e-06
2.27923528763e-07
1.37775769596e-06
1.21240509678e-06
7.53011377002e-07
1.82979543121e-06
1.32654886958e-06
4.50539262373e-07
4.65956185488e-07
4.83979447791e-07
1.90282815628e-07
3.12208326645e-08
5.38330382576e-08
6.63362172885e-08
2.08424230768e-07
5.2239609196e-08
1.36266019566e-07
6.15735489378e-07
3.44306917773e-07
9.33866101106e-09
2.23396131622e-08
1.59813427601e-07
1.387145754e-07
1.24374970855e-06
5.18482403434e-07
5.02285601288e-07
1.22158581794e-07
8.33216158847e-07
2.6035479578e-07
3.92069102459e-07
3.99203085037e-07
2.03824075067e-08
2.86830579781e-07
4.92329626083e-07
1.82344764968e-07
2.00280800481e-07
1.98652435322e-07
4.15251606802e-07
1.86555378027e-06
1.19834785879e-06
2.1163118768e-07
3.07857251644e-07
4.66173545437e-06
1.25609057575e-06
7.30591070005e-07
4.75605742847e-08
3.93851225968e-06
8.53852947734e-06
8.73678238665e-07
3.55304967677e-08
5.89573474333e-08
3.65095925075e-07
1.12271315113e-06
1.07808182518e-06
1.3788939009e-06
3.23205396441e-08
9.29896067058e-07
9.08574060297e-07

