# vtk DataFile Version 3.0
File Name: Molecule/arg/arg_0.5-5.vtk
ASCII
DATASET UNSTRUCTURED_GRID
FIELD FieldData 1
TIME 1 1 double
0.0
POINTS 161 double
-3.4393882751 0.24419808388 1.426461935
-3.0821573734 -0.12025417387 0.48062026501
-3.0084357262 -0.55130022764 1.5108041763
-2.5471174717 -0.98484426737 0.55624902248
-2.9746694565 0.083450645208 -0.023207914084
-2.4942550659 -0.46602252126 0.14388225973
-2.2400000095 -0.46966663003 -1.0743333101
-2.2102124691 -0.46873450279 -0.88801443577
-2.3955106735 -0.241089046 -1.1657924652
-2.3761403561 1.0688530207 -1.4341239929
-2.8102223873 1.7142505646 -0.44225764275
-2.320337534 1.8828538656 -0.6120647192
-1.959433198 1.4542995691 -1.5118157864
-1.7040194273 1.9221018553 -1.0925847292
-2.547999382 2.620673418 0.48850306869
-1.7565487623 2.4963328838 -0.61884313822
-1.4317522049 3.2421853542 0.083206519485
-3.1707236767 2.3026397228 1.4965363741
-1.8582099676 3.3299021721 1.4768768549
-2.4520528316 3.0961124897 2.2011277676
-2.9263198376 2.1730368137 2.7325263023
-2.7085838318 2.5551290512 2.3771665096
-3.4145081043 1.789616704 1.8220978975
-3.1546547413 0.75538080931 3.071400404
-3.0993254185 1.7800892591 3.038599968
-3.3838357925 0.77538633347 1.9653449059
-3.0429823399 0.41420200467 2.2841444016
-3.1103510857 0.12758383155 1.8786588907
-2.8933806419 0.26966768503 2.9438877106
-2.8741590977 0.033350750804 2.2759792805
-2.9992082119 -0.21502156556 1.8620558977
-2.5138616562 -0.70352268219 2.4373192787
-2.4655606747 -0.065411143005 3.5602867603
-1.7395339012 -1.6973574162 1.3644220829
-1.9744001627 -1.2512177229 3.4359357357
-0.93926328421 -2.3829450607 2.1706578732
-0.95559364557 -2.228102684 0.28895133734
-1.9863159657 -1.1863977909 -0.13157181442
-2.2948045731 -0.31457680464 -0.4734967351
-2.0514981747 -0.77866274118 -0.7962552309
-1.9332621098 -1.2756378651 -0.995249331
-2.0833318233 -0.70839756727 -1.2134546041
-1.6801006794 -1.5700334311 -1.5851900578
-2.1953058243 -0.50575989485 -1.7739635706
-1.7569423914 -0.77275902033 -2.0518903732
-1.5463206768 0.14026489854 -2.7147979736
-2.1231913567 0.21079289913 -2.3761343956
-1.8643856049 0.96657168865 -2.361741066
-1.0602619648 0.56352776289 -3.3912773132
-1.6459779739 1.4253838062 -2.1745905876
-1.2406075001 1.6073737144 -2.8491022587
-1.1244852543 2.0665304661 -2.168571949
-1.5006887913 1.8239861727 -1.7055704594
-1.3188096285 2.4120042324 -1.273802042
-0.42465257645 2.6026334763 -2.430560112
-0.80571746826 3.0141034126 -1.2804938555
0.7872517705 2.7018861771 -1.7208412886
0.7039360404 3.4051625729 -2.7450602055
-0.019638102502 3.2494206429 -2.8436713219
0.43438306451 3.2976608276 -0.65799719095
1.0696343184 2.4611246586 -0.48290890455
1.5526510477 2.0193071365 -1.2133816481
0.94107884169 2.7872741222 0.29447036982
1.5392897129 1.9165484905 0.063088335097
1.2142469883 2.2116351128 1.0396608114
0.38904944062 3.0997400284 0.83927160501
0.56720399857 2.7668011189 2.2702183723
-0.1721983552 3.3987004757 2.0339372158
-0.59943538904 3.2837002277 3.5236353874
0.23539534211 2.7026867867 3.9282951355
-0.6528891921 2.7073755264 4.0060958862
-1.8965774775 2.7197256088 3.8592886925
-2.0241444111 3.2580664158 3.3810584545
-2.2872545719 2.6565856934 3.5978639126
-0.49982839823 1.8015530109 4.5424566269
-1.0587795973 2.091511488 4.4122114182
-2.4424843788 2.2255856991 4.1109919548
-1.5726882219 1.75175488 4.5602378845
-0.26822417974 1.0644385815 4.7821464539
-1.0916167498 1.0924791098 4.6060233116
-0.60215210915 0.16458177567 4.8120961189
-1.6529483795 0.70983654261 4.6375226974
-1.0407333374 -0.47525691986 4.7479143143
0.12983112037 -1.2007677555 5.0743532181
0.34921473265 -0.47188600898 5.1843075752
0.8693395257 -2.4906523228 3.92750597
1.2569742203 -0.82568311691 5.3315029144
2.0199434757 -2.0654478073 4.1206355095
1.0149892569 -1.8597168922 2.1435894966
1.9906067848 -2.0278999805 3.1254255772
0.95222443342 -1.7900109291 0.52557700872
1.3892552853 -1.1749347448 0.20353987813
1.7925291061 -1.3929264545 2.1285867691
2.3357169628 -0.47629502416 1.9254641533
1.702393651 -0.12320906669 0.8469684124
1.7626053095 0.2080026716 -0.2121797204
1.6837445498 -0.79247951508 -0.80899685621
1.09468925 -2.0142612457 -1.822295785
1.664734602 -1.38078475 -2.6686036587
2.1926772594 -0.17524464428 -1.4471632242
-0.42000430822 -1.5680890083 -2.5329077244
0.13439960778 -0.80387431383 -3.4078524113
-0.99355572462 -1.2819876671 -2.4372005463
-0.39323219657 -0.74129283428 -2.9955670834
-0.60753726959 -0.28697186708 -3.3352138996
-1.1050802469 -0.5840857625 -2.6963167191
-0.025347631425 0.56101566553 -4.0401406288
0.55084854364 0.40424475074 -4.2394380569
-0.4091013968 1.9272422791 -3.5824518204
0.37023314834 1.3390680552 -4.3981256485
0.12162077427 2.0214726925 -4.1228647232
-0.00095742940903 3.0044233799 -3.6488521099
0.92535048723 2.212066412 -4.0293283463
0.46049189568 3.1443784237 -3.870433569
0.92874103785 3.0777957439 -3.6694917679
1.1240388155 3.1335439682 -2.9293317795
1.6383607388 2.6293334961 -3.2629182339
1.6571627855 2.6945402622 -2.5530819893
1.2652821541 2.5894033909 -2.165179491
2.1876914501 2.1686570644 -2.5190508366
2.1224014759 1.6293098927 -1.9606202841
2.4123296738 1.3016309738 -2.3183908463
2.3888573647 0.71823823452 -1.6830055714
2.0348198414 0.89388924837 -1.2034151554
1.9738218784 0.92823767662 0.015606258065
1.8466442823 2.0345976353 -3.4162614346
1.9558573961 1.1738153696 -3.8939142227
1.1785932779 1.63803792 -4.188852787
2.5337181091 0.95713448524 2.576300621
1.8853900433 1.3149186373 1.3437026739
1.8706258535 1.6723662615 2.4484114647
1.2915762663 2.3106856346 2.1399722099
0.69706827402 1.6441411972 4.708741188
0.59448009729 0.86127316952 4.978471756
-0.061497628689 0.41002225876 5.0363383293
1.3390702009 0.77646714449 5.0748839378
-3.9357979298 1.1857085228 0.81519693136
-1.7136552334 3.9045572281 2.5083475113
-2.6102998257 1.4514548779 4.4983859062
-1.120216608 -1.9600446224 4.6337456703
0.76825559139 -2.6409893036 -0.8429916501
1.3788359165 2.5079481602 3.3010365963
3.6551315784 -0.40768706799 3.6027684212
2.7980539799 0.51103669405 5.0032081604
2.7584404945 -1.1265337467 5.047996521
3.1292881966 -1.1337609291 2.7018043995
3.3329226971 0.41559156775 2.9453721046
2.149964571 0.6452139616 5.2129030228
2.1004757881 -0.50133270025 -3.9910268784
-0.0159934517 -2.9218213558 2.9188816547
-1.3253546953 -2.5506913662 3.4066474438
-0.20367327332 -2.555737257 4.4472641945
2.1498310566 1.4568942785 4.0837669373
2.9954137802 1.0954884291 3.8745183945
3.12738204 -1.5960860252 3.8575954437
0.9740473032 3.4156513214 -3.2976667881
-0.0048652403057 3.4377965927 -3.1344065666
1.3154573441 2.1741235256 4.0691437721
2.1033856869 1.6324850321 3.3456349373
2.8978624344 1.0959908962 3.224452734
3.4911701679 0.47386223078 3.7046024799

CELLS 318 1272
3 0 1 2
3 2 1 3
3 1 4 5
3 6 7 8
3 8 4 9
3 10 9 4
3 10 11 9
3 12 11 13
3 11 14 15
3 15 14 16
3 14 17 18
3 18 17 19
3 20 21 22
3 17 22 21
3 23 24 25
3 22 25 24
3 26 25 27
3 0 27 25
3 23 26 28
3 29 28 26
3 29 27 30
3 2 30 0
3 2 31 30
3 28 31 32
3 31 33 34
3 34 33 35
3 36 33 37
3 3 37 33
3 3 5 37
3 5 38 37
3 37 39 40
3 40 41 42
3 41 7 6
3 38 8 7
3 41 6 43
3 44 42 41
3 45 44 46
3 43 46 44
3 46 47 45
3 45 47 48
3 9 12 47
3 49 47 12
3 50 49 51
3 52 51 49
3 52 13 53
3 53 13 15
3 54 51 55
3 53 55 51
3 55 56 54
3 57 58 56
3 59 60 56
3 56 60 61
3 60 62 63
3 63 62 64
3 62 65 64
3 65 66 64
3 65 16 67
3 67 16 18
3 67 68 66
3 66 68 69
3 70 68 71
3 72 71 68
3 71 72 73
3 19 21 72
3 69 70 74
3 75 74 70
3 76 77 71
3 73 76 71
3 76 73 24
3 20 24 73
3 78 74 79
3 77 79 75
3 79 80 78
3 81 80 79
3 81 32 82
3 82 32 34
3 83 84 82
3 80 82 84
3 83 85 86
3 86 85 87
3 85 88 89
3 36 90 35
3 88 35 90
3 90 91 92
3 93 92 94
3 94 91 95
3 96 95 91
3 97 98 96
3 99 96 98
3 97 100 98
3 98 100 101
3 100 102 103
3 104 103 105
3 105 102 44
3 42 44 102
3 105 45 104
3 104 45 48
3 106 101 104
3 101 106 107
3 106 108 109
3 109 108 110
3 108 54 111
3 111 54 58
3 112 110 113
3 114 115 116
3 116 115 117
3 115 57 118
3 118 57 56
3 117 118 119
3 120 119 118
3 121 120 122
3 123 122 120
3 123 61 124
3 124 61 63
3 124 95 123
3 95 99 123
3 119 121 125
3 126 125 121
3 126 107 127
3 127 107 109
3 127 112 125
3 125 112 116
3 128 93 129
3 94 129 93
3 130 129 131
3 64 131 129
3 132 78 133
3 133 78 134
3 133 84 135
3 135 84 86
3 27 0 30
3 38 5 4
3 4 8 38
3 12 9 11
3 15 13 11
3 18 16 14
3 21 19 17
3 24 20 22
3 26 23 25
3 28 29 31
3 34 32 31
3 36 35 33
3 39 37 38
3 39 41 40
3 43 44 41
3 50 48 47
3 49 50 47
3 53 51 52
3 58 54 56
3 59 56 55
3 63 61 60
3 131 64 66
3 67 66 65
3 70 69 68
3 74 75 79
3 134 78 80
3 82 80 81
3 86 84 83
3 90 92 88
3 91 94 92
3 99 95 96
3 103 101 100
3 102 105 103
3 109 107 106
3 111 110 108
3 116 112 114
3 118 117 115
3 121 119 120
3 122 123 99
3 127 125 126
3 130 128 129
3 133 135 132
3 0 25 136
3 0 136 1
3 4 1 136
3 4 136 10
3 10 136 14
3 10 14 11
3 14 136 17
3 17 136 22
3 22 136 25
3 5 3 1
3 2 3 33
3 2 33 31
3 29 30 31
3 7 41 39
3 7 39 38
3 9 46 8
3 43 8 46
3 8 43 6
3 47 46 9
3 13 52 12
3 12 52 49
3 16 65 59
3 16 59 55
3 16 55 15
3 53 15 55
3 59 65 62
3 59 62 60
3 72 68 137
3 72 137 19
3 19 137 18
3 18 137 67
3 67 137 68
3 75 71 77
3 21 73 72
3 73 21 20
3 71 75 70
3 138 23 32
3 23 138 24
3 24 138 76
3 76 138 77
3 79 77 81
3 138 81 77
3 81 138 32
3 28 32 23
3 27 29 26
3 34 139 82
3 82 139 83
3 37 40 36
3 36 40 42
3 36 42 140
3 36 140 90
3 90 140 91
3 91 140 96
3 97 96 140
3 97 140 100
3 100 140 42
3 100 42 102
3 45 105 44
3 51 54 50
3 50 108 48
3 48 108 106
3 48 106 104
3 103 104 101
3 108 50 54
3 61 123 120
3 61 120 118
3 61 118 56
3 64 129 63
3 63 129 124
3 95 124 94
3 129 94 124
3 131 66 141
3 132 69 74
3 132 74 78
3 80 84 134
3 134 84 133
3 142 143 144
3 145 93 146
3 86 144 147
3 144 86 87
3 101 107 148
3 101 148 98
3 98 148 99
3 121 122 148
3 99 148 122
3 121 148 126
3 126 148 107
3 110 112 109
3 109 112 127
3 117 119 116
3 116 119 125
3 85 149 88
3 88 149 35
3 35 149 150
3 149 151 150
3 149 85 151
3 150 151 139
3 35 150 34
3 150 139 34
3 139 151 83
3 83 151 85
3 135 152 132
3 147 143 152
3 153 152 143
3 147 152 135
3 143 147 144
3 147 135 86
3 92 89 88
3 85 89 87
3 87 154 144
3 144 154 142
3 142 154 145
3 154 89 145
3 154 87 89
3 145 89 92
3 145 92 93
3 111 113 110
3 112 113 114
3 114 155 115
3 115 155 57
3 57 156 58
3 58 156 111
3 114 113 155
3 113 156 155
3 113 111 156
3 155 156 57
3 152 157 132
3 132 157 69
3 69 141 66
3 131 141 130
3 130 141 158
3 141 157 158
3 141 69 157
3 158 157 152
3 130 158 128
3 128 158 159
3 128 159 146
3 159 160 146
3 159 153 160
3 146 160 142
3 142 160 143
3 160 153 143
3 152 153 158
3 159 158 153
3 128 146 93
3 145 146 142

CELL_TYPES 318
5
5
5
5
5
5
5
5
5
5
5
5
5
5
5
5
5
5
5
5
5
5
5
5
5
5
5
5
5
5
5
5
5
5
5
5
5
5
5
5
5
5
5
5
5
5
5
5
5
5
5
5
5
5
5
5
5
5
5
5
5
5
5
5
5
5
5
5
5
5
5
5
5
5
5
5
5
5
5
5
5
5
5
5
5
5
5
5
5
5
5
5
5
5
5
5
5
5
5
5
5
5
5
5
5
5
5
5
5
5
5
5
5
5
5
5
5
5
5
5
5
5
5
5
5
5
5
5
5
5
5
5
5
5
5
5
5
5
5
5
5
5
5
5
5
5
5
5
5
5
5
5
5
5
5
5
5
5
5
5
5
5
5
5
5
5
5
5
5
5
5
5
5
5
5
5
5
5
5
5
5
5
5
5
5
5
5
5
5
5
5
5
5
5
5
5
5
5
5
5
5
5
5
5
5
5
5
5
5
5
5
5
5
5
5
5
5
5
5
5
5
5
5
5
5
5
5
5
5
5
5
5
5
5
5
5
5
5
5
5
5
5
5
5
5
5
5
5
5
5
5
5
5
5
5
5
5
5
5
5
5
5
5
5
5
5
5
5
5
5
5
5
5
5
5
5
5
5
5
5
5
5
5
5
5
5
5
5
5
5
5
5
5
5
5
5
5
5
5
5
5
5
5
5
5
5
5
5
5
5
5
5
5
5
5
5
5
5

CELL_DATA 318
SCALARS cell_data_0 double
LOOKUP_TABLE default
3.84780857624e-08
2.42500094333e-08
2.76815560516e-08
2.88877040036e-08
6.54232038199e-08
3.32397680348e-07
5.68751999536e-07
4.67583943528e-08
3.0954184256e-07
3.04027202147e-07
9.37034103181e-08
6.30876991978e-08
4.08617374774e-08
1.73204720586e-08
8.65303103123e-08
1.83417649793e-08
5.61590084846e-08
8.25776652047e-09
3.00271339573e-08
3.04813754338e-08
1.42878571841e-08
4.51971834493e-08
2.16751064667e-08
3.88477786155e-07
6.82329073437e-06
9.50534998735e-06
1.95234143806e-07
3.72429376495e-07
2.36927202907e-07
3.01410702366e-07
1.75552535513e-07
3.71298846301e-07
4.63624612982e-08
1.88252020318e-07
1.10971273013e-07
2.64815632157e-07
3.44141775796e-08
2.98499009038e-07
1.00961226315e-07
5.84523651549e-09
2.42422159693e-07
3.29839199206e-07
1.40141726059e-07
2.87258070137e-07
9.69146145969e-08
9.10518864281e-08
1.27352491995e-06
3.6657370445e-07
3.02609048826e-06
2.12145859235e-06
8.40161575942e-07
8.71619829029e-07
9.65132179496e-08
1.41720332927e-08
8.24996370108e-08
1.10404505294e-07
2.54944745243e-07
3.43558567844e-08
2.57127001979e-07
1.41881733053e-06
4.20322210487e-08
5.92636173787e-08
7.49799179208e-08
1.82166429742e-07
4.44569714539e-08
2.94474012408e-08
6.50077660603e-08
6.6186112918e-08
6.65036570802e-09
6.55576776703e-08
5.11378333695e-08
3.21823888872e-08
1.63980714979e-08
1.8910188832e-08
1.67266427543e-06
2.41206720281e-07
1.31220471663e-07
1.61960404739e-07
1.26516800196e-05
3.05178637914e-05
1.42062928989e-05
1.53084560909e-05
3.58446656979e-06
2.27341832751e-07
4.08073020836e-08
7.60974738741e-07
6.0230507709e-07
6.43018097853e-06
7.49259277007e-06
4.60020026776e-06
1.51903578315e-06
1.37877030916e-07
6.70585177337e-08
1.82312417765e-07
3.54526450141e-08
1.34138713308e-07
4.4147090224e-07
2.33733526464e-06
1.24111403711e-06
1.77158187263e-05
1.99290192057e-06
1.23627236051e-06
2.83384901719e-06
9.02383584136e-06
1.07639424067e-06
2.71236087795e-06
2.09797220044e-06
1.91319480901e-06
2.99567127646e-07
1.36553446119e-05
2.35816192197e-06
8.75640374626e-07
1.00260008358e-06
1.04287888328e-07
6.60503352075e-07
1.9512258471e-06
5.22688760569e-06
6.77296454876e-06
5.98440925523e-06
1.56374069525e-05
4.25295223436e-06
5.74606298559e-06
1.2300246082e-07
4.76505353587e-07
2.07049751571e-06
3.80999813839e-07
8.6293986315e-08
4.61642240061e-08
1.33705467166e-07
3.76468405468e-07
1.19369878706e-08
7.970870643e-08
1.12454468823e-06
1.15875877526e-07
1.64630283631e-07
3.85948179422e-07
1.03052281761e-07
8.60999310427e-08
1.30430082393e-07
2.49554876649e-08
2.02645481868e-06
3.58916267899e-06
1.28711059422e-07
9.09002945442e-08
3.53205105623e-07
5.88283316587e-07
4.05824220593e-07
1.16360234788e-08
6.68249090899e-07
4.31066060479e-07
2.9679710314e-07
1.092165232e-06
5.23968078576e-07
9.52787432862e-08
2.5154970787e-08
9.28185737868e-08
1.43301540888e-07
1.86455022649e-07
3.43521533385e-06
1.86041921013e-07
2.16023822079e-06
1.65236202261e-07
1.70366092353e-07
1.26451514006e-05
2.47245761156e-06
3.1053749551e-06
7.54032596202e-07
5.55987967946e-06
2.24056616884e-06
1.33235015004e-06
1.78997857092e-06
3.0883821297e-08
5.12587583203e-08
5.47134304766e-08
6.26193749396e-08
5.53508881658e-07
9.27120206839e-08
4.78351956357e-08
4.90071885581e-08
1.17205722985e-07
4.83949445682e-08
1.27329789496e-07
4.74739870851e-09
2.09428515592e-06
1.558645979e-07
7.90605116348e-08
1.21754018049e-07
2.31313848632e-06
4.440981899e-07
1.21852370207e-07
3.89838689699e-07
1.62672530679e-07
1.0843106052e-07
8.26660392869e-07
2.06478385407e-07
9.40624747887e-08
1.61073754621e-07
2.8463968826e-07
8.30598113482e-11
1.18090638141e-09
7.40271305608e-08
7.2206708129e-08
3.01946973603e-07
1.67926159608e-07
2.84377210031e-08
6.16216083576e-08
1.09410792558e-07
3.82339876717e-08
1.07075507998e-07
1.47661728034e-07
1.42355493026e-07
4.22194686721e-08
5.96256636913e-08
1.72184037108e-07
5.95935717752e-07
1.84220769453e-08
2.87498574091e-08
1.92965525125e-05
4.03611371506e-07
9.66575415667e-07
1.10646949431e-06
3.71946282448e-07
6.75331725049e-06
4.56732285482e-07
1.14081716753e-06
1.5726180638e-06
1.13214424948e-06
6.76758069385e-07
3.75038240216e-07
5.61269499611e-07
7.29218014322e-07
5.66469744003e-08
5.44667997136e-06
5.07375032133e-07
3.73162162393e-07
7.83292977062e-07
1.38430618176e-07
3.31366982968e-06
1.06112886577e-06
2.10799281436e-07
7.5509980623e-08
2.64341798458e-07
4.94504337335e-07
6.83669791213e-06
1.57029053433e-07
1.66348215441e-07
5.33988340193e-08
4.62427703313e-08
4.70386961831e-08
1.76241369775e-06
2.13898866234e-06
4.47053029654e-05
4.04391855845e-06
3.40318173984e-06
1.77935881097e-06
3.72543484275e-06
3.04300055006e-06
2.70081367754e-06
5.29955584637e-06
7.71269829982e-06
4.39620216472e-06
1.69955444657e-06
1.24426104256e-05
7.92343585572e-06
2.39606392572e-06
1.46340850007e-07
1.85543750324e-07
1.08101132649e-05
4.23383161693e-06
1.15744907062e-05
1.02742703163e-05
1.73717402274e-07
1.29740096796e-05
1.01088296908e-06
8.17092115067e-07
4.11722482772e-06
1.82404982705e-06
7.97505026668e-07
3.65064861731e-07
2.78038388925e-07
3.76639815892e-06
6.85799895399e-06
2.48313962576e-06
7.56788743905e-07
5.86047989508e-07
1.16210194772e-05
6.06734886954e-09
5.71350875117e-07
2.71712827334e-06
1.65767770372e-07
2.92441442188e-07
4.10461273079e-06
1.14547793494e-06
3.60846707884e-06
5.21902455999e-06
2.20385379942e-05
9.53353201956e-07
2.09593180659e-06
4.46956586443e-07
9.16428519425e-07
2.8161404228e-06
3.52982617632e-06
3.32209503628e-06
3.83106143274e-08
7.35063220171e-06
1.6253199562e-06
1.00204022295e-06
7.55608814705e-07
2.28196668352e-06
1.30843379687e-06
2.99698099356e-06
1.34613004397e-06
2.86726273865e-07
9.41120260623e-06
6.94319882394e-07
1.93697357018e-06
3.58781774879e-07
7.65428910322e-07

