# vtk DataFile Version 3.0
File Name: Molecule/arg/arg_6.0-2.vtk
ASCII
DATASET UNSTRUCTURED_GRID
FIELD FieldData 1
TIME 1 1 double
0.0
POINTS 1101 double
-3.403 0.327 1.604
-3.458 0.149 1.214
-3.138 0.005 1.702
-3.19 -0.164 1.33
-2.981 -0.361 1.858
-3.036 -0.538 1.468
-3.398 0.034 0.803
-3.133 -0.274 0.938
-2.976 -0.654 1.057
-3.231 -0.009 0.408
-2.974 -0.315 0.561
-2.809 -0.697 0.662
-2.971 0.024 0.066
-2.725 -0.284 0.235
-2.549 -0.664 0.32
-2.984 0.046 0.042
-2.617 -0.045 -0.207
-2.63 -0.024 -0.229
-2.351 -0.22 -0.527
-2.365 -0.198 -0.55
-2.2 -0.483 -0.862
-2.216 -0.458 -0.889
-3.215 0.428 -0.189
-2.686 0.062 -0.328
-2.875 0.375 -0.517
-2.48 -0.047 -0.742
-2.657 0.246 -0.92
-2.39 -0.269 -1.153
-2.586 0.057 -1.35
-3.255 0.893 -0.375
-2.908 0.756 -0.67
-2.688 0.604 -1.063
-2.621 0.454 -1.509
-3.1 1.357 -0.484
-2.781 1.137 -0.759
-2.569 0.961 -1.147
-2.488 0.85 -1.602
-2.776 1.74 -0.497
-2.515 1.451 -0.77
-2.319 1.256 -1.157
-2.211 1.177 -1.613
-2.622 1.932 -0.429
-2.434 1.563 -0.734
-2.291 1.743 -0.67
-2.16 1.459 -1.077
-2.01 1.647 -1.011
-1.982 1.439 -1.492
-1.81 1.654 -1.416
-2.666 2.281 -0.134
-2.227 2.054 -0.482
-2.267 2.371 -0.214
-1.881 2.228 -0.637
-1.921 2.545 -0.369
-1.615 2.438 -0.879
-1.659 2.787 -0.585
-2.622 2.533 0.247
-2.227 2.6 0.132
-1.881 2.773 -0.023
-1.614 3.039 -0.203
-2.495 2.657 0.67
-2.111 2.713 0.516
-1.765 2.886 0.361
-1.488 3.163 0.22
-2.925 2.572 1.071
-2.251 2.77 1.005
-2.634 2.694 1.361
-2.033 3.002 1.293
-2.411 2.928 1.645
-1.863 3.333 1.507
-2.279 3.251 1.894
-3.186 2.284 1.521
-2.865 2.437 1.761
-2.64 2.674 2.039
-2.53 2.972 2.328
-3.419 1.801 1.788
-2.888 2.359 1.917
-3.122 1.876 2.185
-2.717 2.558 2.345
-2.979 2.017 2.644
-3.552 1.393 1.822
-3.202 1.735 2.161
-3.319 1.374 2.191
-3.094 1.732 2.585
-3.21 1.376 2.614
-3.107 1.793 3.017
-3.235 1.399 3.05
-3.548 0.964 1.825
-3.316 0.994 2.194
-3.206 1.001 2.617
-3.231 0.984 3.053
-3.408 0.559 1.798
-3.191 0.635 2.17
-3.084 0.647 2.593
-3.095 0.593 3.027
-3.105 0.348 2.085
-3.1 0.088 1.867
-2.97 0.105 2.152
-3.02 0.504 2.546
-2.901 0.29 2.606
-2.978 0.383 3.085
-2.865 -0.346 2.113
-2.52 -0.7 2.425
-2.789 -0.06 2.411
-2.48 -0.378 2.69
-2.828 0.19 2.745
-2.523 -0.123 3.02
-2.645 0.041 3.387
-2.483 -1.039 2.238
-2.249 -0.827 2.688
-2.214 -1.15 2.51
-2.072 -0.978 3.011
-2.036 -1.312 2.826
-2.003 -1.142 3.367
-1.962 -1.514 3.162
-2.359 -1.33 2.011
-2.096 -1.427 2.294
-1.914 -1.599 2.602
-1.826 -1.833 2.912
-2.159 -1.55 1.761
-1.905 -1.637 2.055
-1.716 -1.817 2.356
-1.606 -2.075 2.638
-1.897 -1.684 1.507
-1.655 -1.765 1.813
-1.457 -1.949 2.105
-1.318 -2.222 2.359
-1.592 -1.721 1.268
-1.365 -1.8 1.585
-1.156 -1.986 1.869
-0.984 -2.263 2.097
-1.926 -1.641 1.017
-1.351 -1.766 0.91
-1.664 -1.691 0.675
-1.133 -1.941 0.578
-1.457 -1.864 0.334
-0.96 -2.23 0.303
-1.327 -2.142 0.027
-2.203 -1.444 0.759
-1.923 -1.507 0.433
-1.726 -1.673 0.084
-1.631 -1.926 -0.256
-2.396 -1.15 0.52
-2.103 -1.231 0.209
-1.913 -1.387 -0.149
-1.843 -1.603 -0.519
-2.487 -0.785 0.321
-2.189 -0.889 0.022
-2.002 -1.032 -0.342
-1.943 -1.202 -0.738
-2.264 -0.668 -0.026
-2.322 -0.554 -0.027
-2.141 -0.611 -0.433
-2.203 -0.492 -0.433
-2.131 -0.618 -0.861
-2.114 -0.682 -1.181
-1.927 -1.264 -1.052
-2.312 -0.441 -1.376
-2.121 -0.506 -1.916
-2.042 -0.816 -1.214
-1.838 -0.886 -1.79
-1.682 -1.348 -1.746
-1.975 -0.256 -2.322
-1.864 -0.768 -1.888
-1.672 -0.441 -2.421
-1.897 0.192 -2.527
-1.57 0.147 -2.691
-1.996 0.646 -2.441
-1.495 0.306 -2.776
-1.602 0.798 -2.682
-1.198 0.386 -3.152
-1.328 0.981 -3.039
-2.011 1.039 -2.18
-1.619 1.224 -2.399
-1.348 1.496 -2.696
-1.72 1.257 -2.235
-1.631 1.561 -2.005
-1.259 1.801 -2.466
-1.479 1.817 -1.75
-1.107 2.057 -2.211
-1.346 2.153 -1.415
-1.642 2.007 -1.116
-1.319 2.584 -1.178
-0.816 3.013 -1.267
-1.159 2.356 -1.471
-0.676 2.767 -1.557
-1.087 2.175 -1.825
-0.583 2.604 -1.915
-0.543 2.537 -2.312
-0.229 3.384 -1.004
-0.488 2.934 -1.522
-0.105 3.176 -1.351
-0.228 2.93 -1.855
0.02 3.086 -1.745
-0.059 3.001 -2.236
0.134 3.123 -2.15
0.003 3.141 -2.63
0.229 3.284 -2.529
-0.048 3.337 -3.001
0.294 3.553 -2.848
0.466 3.148 -0.891
0.348 3.022 -1.277
0.313 2.987 -1.697
0.364 3.045 -2.112
0.497 3.193 -2.485
0.699 3.415 -2.782
0.833 2.913 -0.61
0.553 2.897 -1.196
0.905 2.671 -0.926
0.699 2.74 -1.539
1.067 2.504 -1.257
0.892 2.689 -1.891
1.303 2.425 -1.576
1.057 2.557 -0.305
1.12 2.33 -0.634
1.29 2.148 -0.952
1.553 2.026 -1.234
0.979 2.767 0.195
1.24 2.204 -0.113
1.167 2.404 0.362
1.539 1.918 0.039
1.462 2.128 0.539
0.737 2.845 0.68
0.936 2.478 0.823
1.22 2.206 1.024
0.406 3.093 0.833
0.701 2.629 1.02
0.405 2.851 1.157
0.756 2.48 1.392
0.466 2.698 1.526
0.897 2.411 1.765
0.584 2.646 1.91
1.112 2.426 2.108
0.748 2.699 2.276
0.102 3.399 0.689
0.142 3.058 1.218
-0.121 3.323 1.093
-0.01 3.117 1.656
-0.27 3.379 1.533
-0.034 3.266 2.099
-0.327 3.561 1.96
-0.29 3.571 0.538
-0.462 3.472 0.961
-0.606 3.526 1.403
-0.705 3.727 1.814
-0.721 3.587 0.398
-0.837 3.486 0.84
-0.976 3.54 1.283
-1.123 3.742 1.679
-1.138 3.445 0.287
-1.199 3.363 0.744
-1.333 3.418 1.189
-1.525 3.605 1.572
-1.502 3.118 0.685
-1.632 3.177 1.131
-0.05 3.403 2.531
0.304 2.919 2.221
0.288 3.057 2.654
0.729 2.855 2.766
-0.175 3.437 2.964
0.162 3.091 3.09
0.587 2.894 3.259
-0.395 3.364 3.353
-0.059 3.019 3.48
0.337 2.812 3.701
-0.687 3.194 3.654
-0.352 2.847 3.783
0.006 2.617 4.044
-1.13 3.18 3.766
-0.58 2.815 3.881
-1.094 2.799 4.011
-1.584 3.151 3.721
-1.62 2.766 3.959
-1.995 3.111 3.523
-2.096 2.719 3.73
-2.312 3.063 3.198
-2.464 2.664 3.352
-2.498 3.015 2.783
-2.679 2.608 2.871
-0.749 2.537 4.164
-0.16 2.345 4.321
-0.912 2.194 4.368
-0.321 2.009 4.521
-1.061 1.806 4.483
-0.466 1.628 4.634
-1.364 2.231 4.354
-1.452 1.611 4.604
-1.713 1.977 4.492
-1.735 2.528 4.103
-2.033 2.233 4.276
-2.128 2.66 3.763
-2.373 2.347 3.982
-2.496 2.611 3.374
-2.69 2.305 3.646
-2.791 2.388 2.985
-2.945 2.113 3.311
-1.464 1.095 4.666
-0.956 1.592 4.533
-0.968 1.074 4.596
-0.48 1.041 4.705
-1.655 0.731 4.634
-1.079 0.886 4.596
-1.26 0.541 4.565
-0.689 0.687 4.666
-0.881 0.322 4.633
-0.333 0.517 4.869
-0.555 0.096 4.831
-2.027 0.463 4.516
-1.383 0.368 4.531
-1.728 0.119 4.423
-1.114 -0.009 4.584
-1.476 -0.27 4.469
-0.878 -0.357 4.785
-1.3 -0.661 4.651
-2.342 0.241 4.242
-2.019 -0.087 4.169
-1.783 -0.487 4.202
-1.658 -0.914 4.34
-2.557 0.093 3.848
-2.219 -0.224 3.803
-1.993 -0.631 3.818
-1.903 -1.082 3.892
-2.301 -0.273 3.375
-2.078 -0.682 3.368
-0.557 -0.612 4.999
-0.228 -0.165 5.05
-0.202 -0.89 5.102
0.134 -0.447 5.155
0.164 -1.171 5.088
0.507 -0.734 5.141
0.347 -1.566 4.993
0.615 -0.976 5.092
0.789 -1.35 5.001
1.043 -0.806 5.264
1.226 -1.201 5.169
0.533 -1.916 4.791
0.965 -1.683 4.809
1.412 -1.551 4.967
0.709 -2.198 4.495
1.133 -1.951 4.529
1.588 -1.833 4.672
0.864 -2.393 4.127
1.28 -2.136 4.179
1.743 -2.029 4.303
0.987 -2.488 3.71
1.397 -2.227 3.783
1.866 -2.124 3.886
1.07 -2.477 3.273
1.475 -2.216 3.368
1.949 -2.112 3.449
1.107 -2.36 2.845
1.511 -2.104 2.962
1.986 -1.995 3.021
1.096 -2.144 2.456
1.5 -1.9 2.592
1.975 -1.78 2.632
1.037 -1.846 2.131
1.444 -1.616 2.284
1.916 -1.481 2.307
0.647 -2.269 2.118
0.836 -1.714 1.711
0.512 -2.064 1.7
0.77 -1.662 1.233
0.47 -1.987 1.224
0.848 -1.697 0.757
0.525 -2.047 0.746
1.061 -1.813 0.337
0.67 -2.236 0.324
0.119 -2.499 2.107
0.075 -2.255 1.691
0.064 -2.164 1.215
0.088 -2.237 0.737
0.142 -2.466 0.313
-0.457 -2.497 2.099
-0.401 -2.253 1.685
-0.378 -2.162 1.209
-0.389 -2.235 0.73
-0.434 -2.464 0.306
-0.837 -2.059 1.682
-0.782 -1.983 1.207
-0.825 -2.042 0.728
1.48 -1.078 0.031
1.028 -1.535 0.641
1.346 -0.978 0.409
1.078 -1.33 0.996
1.331 -0.887 0.812
1.205 -1.217 1.373
1.436 -0.812 1.205
1.4 -1.205 1.737
1.652 -0.762 1.553
1.644 -1.296 2.058
1.961 -0.739 1.826
2.335 -0.746 2.002
1.639 -0.712 -0.547
1.451 -0.719 0.207
1.594 -0.39 -0.313
1.526 -0.39 0.423
1.664 -0.072 -0.079
1.697 -0.118 0.66
1.842 0.216 0.134
1.696 -1.103 -0.765
1.721 -0.524 -0.905
1.774 -0.881 -1.103
1.914 -0.328 -1.213
1.966 -0.68 -1.408
2.201 -0.141 -1.444
2.257 -0.517 -1.652
1.645 -1.46 -1.037
1.727 -1.206 -1.352
1.92 -1.0 -1.653
2.207 -0.859 -1.914
1.488 -1.753 -1.343
1.584 -1.473 -1.631
1.779 -1.262 -1.928
2.057 -1.14 -2.207
1.239 -1.959 -1.658
1.357 -1.661 -1.918
1.555 -1.448 -2.211
1.818 -1.338 -2.51
0.916 -2.062 -1.958
1.063 -1.755 -2.191
0.547 -2.053 -2.217
0.159 -1.934 -2.416
0.726 -1.747 -2.428
1.154 -1.428 -3.046
0.586 -1.425 -2.891
0.782 -1.314 -3.237
0.25 -1.227 -3.001
0.423 -1.103 -3.355
-0.048 -0.954 -3.034
0.104 -0.811 -3.39
-0.548 -1.409 -2.576
-0.822 -1.287 -2.506
-0.408 -0.948 -2.806
-0.669 -0.831 -2.739
-0.336 -0.591 -3.197
-0.616 -0.466 -3.125
-1.31 -1.347 -2.194
-0.988 -0.705 -2.664
-1.485 -0.767 -2.346
-0.33 -0.315 -3.523
0.111 -0.551 -3.697
0.323 0.082 -4.134
0.101 0.716 -4.098
0.516 0.418 -4.238
-0.411 1.252 -3.909
0.252 1.048 -4.202
-0.118 1.435 -4.065
0.377 1.347 -4.4
0.11 1.626 -4.301
-0.398 1.946 -3.588
-0.108 1.937 -3.833
0.117 1.987 -4.134
-0.712 2.237 -2.975
-0.187 2.28 -3.528
-0.425 2.5 -3.065
-0.042 2.651 -3.554
-0.227 2.824 -3.192
0.028 3.029 -3.665
-0.135 3.18 -3.347
-0.298 2.727 -2.563
-0.128 3.001 -2.799
0.9 3.106 -3.671
0.147 2.667 -3.761
0.845 2.729 -3.765
0.177 2.31 -3.921
0.876 2.372 -3.926
1.128 2.855 -3.473
0.819 3.383 -2.845
1.063 3.077 -2.811
1.418 2.615 -3.364
1.354 2.837 -2.702
1.749 2.404 -3.353
1.668 2.681 -2.526
0.858 3.054 -2.621
0.721 3.091 -2.55
0.962 2.795 -2.335
0.787 2.842 -2.245
1.123 2.627 -2.01
1.688 2.19 -1.733
1.386 2.606 -2.284
1.794 2.29 -2.083
1.962 2.454 -2.382
2.133 1.624 -1.992
2.116 1.881 -2.27
2.194 2.159 -2.516
2.141 1.301 -1.585
2.428 1.273 -2.257
2.435 0.969 -1.874
2.042 0.907 -1.262
2.342 0.599 -1.57
1.981 1.32 -1.261
1.884 0.909 -0.851
1.83 1.271 -0.85
1.861 0.913 -0.411
1.81 1.26 -0.41
1.976 0.918 0.014
1.921 1.286 0.015
1.815 1.702 -1.251
1.684 1.607 -0.842
1.669 1.581 -0.402
1.772 1.628 0.023
1.454 1.892 -0.826
1.449 1.855 -0.388
1.867 0.812 -0.4
1.753 0.215 -0.299
2.06 0.644 -1.234
1.788 0.151 -0.734
1.942 0.027 -1.129
2.566 1.229 -2.871
2.241 1.687 -2.422
2.339 1.656 -2.857
2.27 2.135 -2.856
2.341 1.264 -3.459
2.179 1.681 -3.275
[...]
CELL_DATA 2198
SCALARS cell_data_0 double
LOOKUP_TABLE default
1.22830837145e-06
1.80787990533e-06
6.50418575858e-07
3.36012319976e-07
1.77281294148e-06
1.5326504728e-06
1.15931154042e-06
1.15004602234e-06
2.28859514064e-06
2.36052325485e-06
1.65431161772e-06
1.62195755556e-06
1.3701048222e-06
4.18673807278e-07
1.14430445504e-06
2.41212024434e-07
2.86053053676e-08
9.44009535536e-08
1.62289541291e-08
1.6425839972e-07
1.11168546397e-07
1.6760189868e-07
2.64661320021e-07
4.35159096805e-07
1.39250753041e-07
1.96802488145e-07
7.72514463232e-07
6.96650891052e-07
2.08297807388e-06
1.41776396161e-06
4.348307422e-07
3.12682146506e-07
1.3418274056e-08
1.45050373296e-07
3.17409630562e-06
2.28905213126e-06
1.36983861836e-06
1.16042193632e-06
4.63200717961e-07
4.27713897935e-07
2.0709890652e-06
6.15889578393e-07
1.20117803339e-06
3.41037089957e-07
3.1170921472e-07
1.07534601493e-06
2.48202260997e-07
3.41973786094e-07
2.63719800831e-07
3.03344650167e-07
8.41628595547e-07
1.06193038256e-06
1.70695427424e-06
2.51666628781e-06
1.69512564618e-06
2.30708858062e-06
7.85987199892e-07
1.44279205204e-06
4.68939395925e-06
5.0325236196e-06
4.13534056345e-06
4.33230198246e-06
3.23398719681e-06
4.20426080015e-06
4.8604010124e-06
3.65564337598e-06
4.67772384263e-06
4.89998178756e-06
5.33783372618e-06
3.7900042852e-06
7.49079565214e-06
1.02004559275e-05
1.04693386927e-05
1.05489765334e-05
7.10788172112e-06
9.15912366886e-06
1.00643705981e-05
8.07471809889e-06
9.62157111331e-06
7.43701543906e-06
9.68833585161e-06
8.93312102543e-06
3.60164195507e-06
2.07876347841e-06
4.94782846576e-06
8.10109208967e-06
5.01861061688e-06
8.18123538826e-06
6.1342723758e-06
8.61197473752e-06
5.55272177372e-06
4.89280866743e-06
8.52943934789e-06
4.62812113042e-06
7.66797030436e-06
6.04154021536e-06
5.58616662465e-06
3.03602541003e-06
3.23610773019e-06
3.66011648541e-06
4.11080217404e-06
4.25686104722e-06
3.13224132282e-06
1.97499175308e-06
1.05925585087e-06
3.30171900133e-07
3.55909306862e-06
4.70660622159e-06
4.00912817805e-06
2.51991082454e-06
2.20675017133e-07
1.66501812623e-07
8.59530029891e-06
8.55620585545e-06
2.42811104186e-05
1.09581905997e-05
1.38689783443e-05
2.28294119731e-06
2.72912490487e-06
8.92341419423e-06
5.22264131452e-06
3.51243741513e-06
1.4433034905e-06
1.17403945597e-06
1.00067919239e-05
7.51010364431e-06
5.20401662338e-06
9.15292577766e-07
1.24707498108e-07
3.17303443846e-06
4.0720208167e-06
2.92881545341e-06
1.87988222353e-06
9.35379195483e-07
3.17402786262e-06
4.47636366823e-06
3.08353211076e-06
8.56726191613e-07
3.0895316964e-07
3.82416172151e-07
1.6220813119e-06
1.53417138364e-06
6.43838050914e-07
1.8985544427e-07
1.05695639948e-07
1.15416558722e-07
2.25954890453e-07
1.03645969115e-08
2.45068480727e-07
2.64461008622e-07
4.61996559262e-07
3.95093824345e-07
3.89887167372e-07
2.27044524659e-07
5.08526840504e-08
1.17211852249e-07
2.0940451321e-07
1.3382141329e-07
1.67297311211e-07
6.33754582532e-08
4.34061850791e-07
3.45401243095e-07
1.33229242286e-08
1.93677694792e-07
2.17991147344e-07
2.7628562783e-07
3.4060266735e-07
3.4366417653e-07
4.07679087701e-07
6.38409361655e-07
5.43186765946e-07
4.94337199987e-07
1.68300018947e-07
2.60133448952e-07
2.66998143294e-07
3.0730348922e-07
3.13672290967e-07
3.78815431679e-07
5.87069062129e-08
1.02303288273e-06
7.22038602659e-07
5.96685888435e-07
1.12681602262e-06
1.43894156726e-06
1.27752646252e-06
4.71034659312e-07
6.69954843495e-07
1.17627562548e-06
7.52726036182e-07
7.52834655035e-07
1.75965876304e-06
2.01334259359e-06
2.41647915057e-06
2.83008107413e-06
1.85964691686e-06
2.41590750986e-06
2.19742259388e-06
2.59472148353e-06
1.76759859235e-06
2.53102577527e-06
2.3089998837e-06
2.50214601343e-06
2.62261483955e-06
2.99308868193e-06
2.25272322984e-06
2.0334701552e-06
1.65862003405e-06
1.09704033674e-06
1.54283659076e-06
1.64655476558e-06
1.87726111455e-06
3.30482491743e-06
4.04542287887e-06
5.05882834633e-06
1.45901227374e-06
1.11501796305e-06
1.39156534084e-06
1.05472845525e-06
1.75641933458e-06
1.46964228972e-06
1.60162333129e-06
6.55735932406e-07
1.30346980518e-06
2.2249691633e-06
1.36615152374e-06
1.3137052997e-06
1.63623334157e-06
1.24577789143e-06
1.15219011952e-06
1.09810570291e-06
5.66445022124e-07
1.41425128816e-06
1.35743221631e-06
3.75851825559e-06
1.89986084325e-06
2.65019020813e-06
3.33126807914e-06
3.69210642159e-06
3.76021515343e-06
4.16221200396e-06
2.27590048144e-06
1.93300445079e-06
2.21079053685e-06
1.03245832855e-06
2.05846090294e-06
2.4918957843e-06
5.91542038581e-07
1.24943610683e-07
9.64505615425e-07
4.16859134722e-07
5.39826542424e-07
1.2381809695e-06
3.84808801675e-07
5.82334177667e-07
8.96935019991e-07
9.29686419466e-07
1.04329831953e-06
1.12245496651e-06
1.16305916943e-06
1.30042610345e-06
1.24606766202e-06
1.4461548681e-06
1.10579901856e-06
1.01019647286e-06
1.06116803595e-06
8.1368516952e-07
6.79147107733e-07
4.16103995882e-07
7.04039749987e-07
3.0492094451e-07
4.41347472436e-07
3.28505474758e-07
3.80889638055e-07
2.67866439038e-07
2.28190917762e-07
2.15651223283e-07
2.33774703087e-07
2.68454888054e-07
2.44255947643e-07
1.30786172657e-07
3.76722566529e-07
3.54081524078e-07
3.03908230123e-07
2.81301399282e-07
1.69930888093e-07
3.83454073e-08
2.7410090782e-07
2.52753048868e-07
3.94472348723e-07
3.18374096692e-07
1.56751292302e-07
5.33492416596e-07
2.29985371623e-07
2.86135685658e-07
6.90679227765e-07
1.4798205565e-06
1.715410291e-07
2.55952648968e-07
6.98842895317e-07
1.00944590311e-06
7.24799333446e-07
1.47698181001e-06
3.71373750698e-07
1.13370310535e-06
1.86954658362e-06
2.43827632746e-06
3.66724207463e-06
1.97590076e-06
4.10897556282e-06
4.304466624e-06
3.77437999703e-06
7.63440464171e-08
4.58173234104e-08
1.17849095083e-07
2.1558599107e-08
5.54620120185e-08
5.52111994059e-08
5.06952673069e-08
1.24117941322e-06
3.85828003334e-06
1.46563788115e-07
8.69150438217e-08
4.5184077448e-07
1.24878994179e-06
1.46044425648e-06
1.08237355649e-06
7.74545099603e-07
2.75475458024e-06
5.33504556437e-06
7.28936861796e-06
1.23968638726e-05
1.21636429522e-05
2.0364561962e-05
2.00015021505e-05
2.27938704265e-05
2.08015339483e-05
1.57195039319e-05
1.10003420344e-05
4.44563506093e-06
7.59158356067e-06
7.95827335706e-06
2.69281573604e-06
2.65712716113e-06
3.41949205615e-06
5.59947239715e-06
3.35123063466e-06
2.32362110491e-06
1.06927683995e-06
6.03566285208e-07
4.82391254951e-07
5.17275364929e-07
4.64195302155e-07
6.58575661866e-07
4.69747604681e-07
1.93723944766e-07
1.13286016174e-08
2.34658260405e-07
2.76457238987e-07
5.1927718908e-08
1.3421543259e-06
8.23303272745e-07
3.44329345354e-06
2.34112299275e-06
3.88916803311e-06
2.6479603804e-06
5.69638604436e-06
3.4491437052e-06
2.9230566833e-06
4.49912052251e-06
1.39565496571e-07
6.78720703974e-07
1.38093880892e-06
6.39204205061e-07
1.45209843109e-06
4.501048133e-06
6.88843270697e-06
5.15597029805e-06
1.85702742715e-06
3.93034007683e-07
7.54548270251e-07
7.46466854963e-07
2.45380462658e-06
1.62780208051e-06
1.51131607525e-06
2.24669270487e-06
2.42263008465e-06
1.07842008825e-06
1.15692868444e-06
1.34062252169e-06
3.05164217272e-06
2.6849377614e-07
2.99253253862e-07
1.55999854849e-06
1.38653866463e-07
1.97127327298e-06
1.50306060249e-06
1.31465380233e-06
2.24306601786e-06
1.83403666237e-06
1.17795252435e-06
1.28047025892e-06
1.14723988598e-06
3.3092375613e-07
5.79871589088e-07
9.19065673046e-07
7.42763984038e-07
1.39875042663e-07
1.11790469002e-06
1.28172809049e-06
2.18685884356e-06
2.65392476033e-07
1.10821927426e-07
1.59960931593e-06
2.55303519503e-07
8.28798099135e-07
2.93620411984e-07
6.05541502305e-07
6.62994272043e-07
1.58998889554e-06
2.37038829028e-07
1.23219038714e-06
2.12379119869e-06
6.76754619099e-07
7.31709389481e-07
3.25151730333e-07
1.17760468137e-08
1.65314839075e-06
3.41213785912e-06
4.51135085565e-06
2.24621690385e-06
1.13890457074e-06
4.36620386119e-07
3.68497605998e-07
2.79211984371e-06
4.2531583914e-06
2.68569337189e-06
5.03833885326e-07
2.64626083869e-06
2.27339649082e-07
6.72848133309e-07
3.29631119257e-06
4.63556614136e-06
2.67821867961e-06
3.20080459283e-07
2.36400737127e-06
2.23658984857e-06
3.98526073366e-06
1.69297061376e-06
1.83564094146e-06
1.1864429034e-06
5.21896107762e-07
7.2348393822e-07
1.07036708681e-06
8.09916535762e-07
2.23479334676e-06
2.64019550432e-06
4.99832174882e-07
1.07908488241e-06
1.44871791574e-06
1.472799462e-06
1.68185158191e-06
2.54027831579e-06
2.60415198128e-06
2.34675562422e-06
5.11167461872e-07
5.21335252523e-07
5.27671221853e-07
1.44987764753e-06
1.46556751131e-06
2.97058816352e-06
4.99015324621e-07
1.28427681238e-07
7.50299872454e-07
4.66613624953e-07
2.03233186965e-06
2.74320069682e-06
1.83689195409e-08
9.61179296252e-07
1.00119875955e-06
7.55849989043e-06
6.98885085211e-06
2.07851622501e-05
1.32524316275e-05
3.02401269393e-05
2.37292575287e-05
2.79006449485e-05
2.39841185823e-05
3.0897313559e-05
5.04278038596e-05
3.32318682133e-05
2.33383527527e-05
2.48289208582e-05
1.37000453854e-05
4.81533091269e-05
3.66491247503e-05
2.00235728156e-05
1.81533005728e-05
1.05261286054e-05
3.00290832243e-06
8.89079605245e-06
9.00984680502e-06
3.6120684306e-06
2.71568763144e-05
7.23791895681e-05
7.71854909907e-05
2.4357052083e-05
5.36266363205e-06
1.31692816779e-05
4.50812251277e-06
6.8863837791e-07
2.10690899065e-06
3.55309276138e-06
4.65710655531e-06
6.32401303266e-06
7.96216011763e-06
8.08268690735e-06
9.04238589524e-06
5.35409827391e-06
3.48374906835e-07
3.20397132455e-06
4.55839734127e-07
3.5583508955e-06
5.78638384332e-06
2.29603152783e-06
2.39269890736e-06
3.4898180066e-06
4.86791132127e-06
5.82134496648e-06
4.93106880327e-06
1.35901887217e-05
7.4964699106e-06
6.15667639959e-06
6.93210656762e-06
1.02056132202e-05
1.13976498092e-05
7.94936224605e-06
8.42231942621e-06
1.10882109723e-05
2.44034821301e-05
1.82107934928e-06
1.9786207127e-06
1.94309487792e-06
2.31162539965e-06
4.45103177831e-06
5.67459947816e-06
1.51418887678e-05
2.33092821494e-06
7.39325769564e-06
5.22842100039e-06
6.80172162852e-06
5.54732011094e-06
4.2417353457e-06
6.96534838001e-06
1.48999094361e-05
1.03434538655e-05
7.62919296831e-06
8.55981743875e-07
1.53188910495e-07
1.05779298701e-06
7.75291498053e-06
1.36554108295e-05
1.30528655742e-05
4.02394538665e-06
1.43538695418e-06
2.00890833439e-06
6.03604660758e-06
1.27025580391e-05
9.88340971407e-06
1.13292144162e-05
1.12736963661e-06
1.02524030024e-06
2.81441364553e-06
2.79661088993e-06
1.34442619938e-05
3.31567572639e-06
7.05299742891e-06
1.24685048276e-05
3.70539257296e-05
2.10456298166e-05
1.3302593502e-05
8.98035526159e-06
2.33656591694e-06
1.0133855615e-06
5.01329665984e-06
1.20751028371e-06
4.03890153638e-07
1.54440911383e-06
1.33142173166e-06
8.57567600489e-08
1.12646616361e-06
8.70946675086e-07
3.51707061125e-06
2.87456062768e-07
5.35680089749e-07
2.30639878463e-06
2.88705138233e-06
6.59705842349e-07
3.13912806741e-07
6.32695712201e-07
9.54590923945e-07
8.89052938369e-08
6.75917095749e-07
7.17564616011e-07
2.4426419967e-06
2.72903740007e-06
1.7858320424e-06
9.44661670703e-07
9.62506044651e-07
2.20966865409e-06
3.1972099471e-06
4.73691520924e-07
1.96561698181e-07
1.01703304315e-08
1.55640349887e-07
3.4084471816e-07
4.84511133243e-07
2.52247246665e-07
1.05829959945e-06
1.10265313763e-06
5.25880860694e-07
1.17536099636e-07
1.59306138992e-06
1.80429281775e-06
2.83893158092e-06
1.77471019641e-06
4.02349362862e-06
2.73058283314e-06
5.05190348926e-06
5.10450119662e-06
7.47413207347e-06
4.04093973757e-06
6.96038530246e-06
7.02199385197e-06
1.36011081155e-05
5.97019620592e-06
4.01987064861e-06
6.11597809209e-06
5.61989324938e-06
9.55795477487e-06
9.13534460358e-06
9.69241772287e-06
4.47426292496e-06
1.98393451149e-06
1.44650825679e-06
7.00084508087e-07
2.10177780355e-06
3.79167057847e-07
1.34579051417e-06
1.18618746973e-06
2.14456602234e-06
2.06743279811e-06
1.73597491879e-06
2.25420526063e-06
2.57038399566e-06
2.38147455188e-06
1.27543746882e-06
8.74906169217e-07
6.94069942181e-07
2.18917046756e-06
2.08968849023e-06
1.23797744943e-06
2.40282518368e-06
1.79051320628e-06
1.31393966176e-06
2.41247500435e-06
1.0939880972e-06
7.65413760117e-07
6.05605925172e-07
1.75496780444e-07
2.50501072202e-07
1.53440770266e-07
1.34102460467e-06
5.99617700487e-07
3.81767002338e-06
4.90432759131e-06
2.38393695683e-06
3.20883282524e-06
3.35291028742e-06
3.6148930426e-06
3.53473457655e-06
3.21186713689e-06
1.80038639825e-06
4.13364156035e-06
6.78226604744e-06
7.95170640032e-06
5.59019414384e-06
1.28111570315e-05
1.89472004234e-05
1.68277309906e-05
5.43261995601e-06
1.63201605875e-07
9.74548348816e-08
6.35878033946e-07
7.976470436e-07
1.07600323267e-06
7.01261120243e-07
8.11695914348e-07
1.70612190374e-07
1.04274211136e-06
7.49333476212e-07
3.98356820935e-07
7.06112193943e-08
4.92823849356e-08
1.34944194343e-06
7.76892224961e-07
3.87637779018e-08
1.05864923552e-07
8.49718364635e-08
1.75158967295e-06
9.02814225809e-07
9.7071678479e-07
1.03672702622e-06
4.89582198918e-07
3.88496925474e-07
5.98147116041e-07
2.43189575884e-07
1.29766489651e-06
2.70963804342e-06
6.08038356486e-06
2.39838900435e-06
4.19727627696e-06
2.42251905919e-06
4.06907937119e-06
3.66889128102e-06
3.02846998584e-06
1.57805956209e-06
1.66180609458e-06
2.92783385016e-06
2.9757262382e-06
1.43659700973e-06
8.67871786053e-07
1.69717569786e-06
2.61129631565e-06
4.61849945338e-06
2.71706057451e-06
6.32517279496e-06
1.13040024812e-05
1.04631340361e-05
6.03018439657e-06
1.27899376401e-06
7.85020822761e-07
5.4819149013e-07
1.16324193883e-06
1.45785887801e-06
2.08012418182e-07
2.32170298848e-07
4.33958722074e-07
3.41532913404e-07
6.66661175249e-08
9.53809449764e-08
3.25460348174e-07
1.87287080876e-06
2.51626704201e-07
1.22148759352e-06
8.94354680422e-07
9.06529069694e-07
5.20493796284e-07
4.98720841618e-07
8.77683375667e-07
9.60602991393e-07
8.43219524093e-07
4.24447255851e-07
3.06934912117e-07
5.02005689005e-08
9.77124839765e-08
6.16738033257e-08
2.02667023272e-08
4.1304523075e-07
3.50805392536e-07
5.77787846468e-07
5.54428843475e-07
2.24153641433e-06
2.14063429043e-06
1.0005652807e-06
8.27480053902e-07
4.16457248817e-06
4.67332042184e-06
2.36823205721e-06
1.99508700102e-06
3.92054506314e-06
2.8224774049e-06
2.44743419291e-06
1.13426153721e-06
6.36813019906e-07
2.67788357509e-06
2.79784491152e-06
3.89822004754e-06
3.80647228672e-06
4.09578044097e-06
3.21412566402e-06
2.40653166549e-06
1.28404807095e-06
8.19768629801e-07
1.72896978386e-07
4.81082608725e-07
5.61537536215e-07
1.07937600446e-06
1.19869333921e-06
6.08578509972e-07
9.44790878763e-07
3.10013830645e-07
1.50617379775e-06
9.33017679087e-07
8.92746763098e-07
1.51471871911e-06
8.53759454757e-07
7.81896036414e-07
7.62618116575e-07
8.24939406486e-07
1.6184225605e-06
6.47925363068e-07
1.78419683718e-06
9.81478403953e-07
8.02854017724e-07
5.42413176927e-07
5.54943443618e-07
2.06623373299e-06
1.83268498653e-06
1.24108982033e-06
2.88567665169e-06
3.72273857128e-06
2.61436260509e-06
6.27440884528e-07
1.30267322538e-06
1.58370609936e-06
1.0942433161e-06
4.46879367152e-07
1.52399762306e-07
1.70433954029e-07
1.84955910599e-07
3.38203131415e-07
6.1728531225e-07
6.0003419555e-07
6.49470279411e-07
1.71467063224e-06
2.45301291368e-06
2.74513926301e-06
1.54783358238e-06
1.35648766835e-06
1.15422308597e-06
6.51073018176e-07
4.83848675911e-07
3.53437565269e-07
5.46627115204e-08
1.29494848053e-07
2.48977469029e-07
2.12012966531e-07
2.91018015113e-07
5.68969822061e-07
1.80813685736e-06
1.4642931699e-06
7.32400615201e-07
4.16244154388e-07
1.11553838281e-07
8.92497402104e-07
6.87588788624e-07
6.72115418963e-07
8.60601035901e-07
1.44171129991e-06
8.96145047914e-07
1.24919172289e-06
1.05740130772e-05
4.49416453954e-06
5.10484326408e-06
5.52601532104e-07
1.06645363053e-06
1.3382276762e-06
1.18856024648e-06
9.9783417078e-07
5.86322772636e-06
1.27532388315e-05
1.49975338633e-05
7.97960697489e-06
3.43717483855e-06
3.63201106317e-06
9.37717592566e-07
3.8300863158e-07
6.48482763235e-07
4.38149244056e-06
3.06005750718e-06
2.9308611785e-07
8.7292447389e-07
1.02090291017e-06
2.87571260278e-06
4.28922833034e-06
5.15785577095e-06
2.80803476404e-06
3.18862101439e-06
3.12676202789e-06
2.89017321926e-06
3.13386921457e-06
3.09323343514e-06
3.36399701204e-06
5.65844065315e-06
3.02043100978e-06
8.79250097441e-06
3.38482309655e-06
2.90740329042e-06
3.09912699361e-06
2.61372605435e-06
4.60655313867e-06
8.87710042288e-07
8.31184196746e-07
6.71162892409e-06
3.27705908071e-06
3.69304052542e-06
6.67850350968e-07
3.20255790534e-06
3.49260550509e-06
3.81573962509e-06
3.54424605081e-06
1.27892653131e-06
5.21177548852e-07
2.35824890069e-06
6.3057531937e-07
7.2493097445e-07
1.15396175144e-06
1.11258045273e-06
1.13642030653e-06
6.38302704455e-07
3.88639788315e-06
1.05127428401e-06
6.24579418515e-07
9.70813324597e-07
9.75522031496e-07
1.67851746442e-07
1.11614910972e-07
6.66659715111e-08
2.67737644757e-08
1.29925328358e-07
1.92899834963e-07
1.08524349672e-07
9.24111405315e-08
5.82197788001e-08
2.48676126469e-08
2.91084883693e-07
3.224832099e-08
4.19086370329e-08
4.04251548874e-07
1.7047678985e-07
2.47629810741e-07
8.95223692525e-08
2.80983010404e-07
6.16825249123e-07
3.48197341653e-07
2.76306302635e-07
6.31096531503e-07
2.40848878734e-07
2.19450814416e-07
1.14883406927e-06
4.96698359624e-07
1.72749869993e-06
1.07590079284e-06
1.54100689638e-06
2.5266595102e-06
1.47866756292e-06
1.42255499332e-06
1.63781616562e-06
4.88854206528e-07
1.36293073785e-06
1.5029951277e-06
2.23314617254e-06
2.94271435766e-06
2.93551738373e-06
2.06451565317e-06
6.37027669061e-07
2.36061586776e-06
1.3119818753e-06
8.23222681364e-07
9.22311086345e-08
5.4911550896e-07
2.08061463184e-07
5.52119315491e-07
7.08433899789e-08
1.3676331516e-07
8.37083468835e-07
4.62806675647e-07
6.38817477109e-07
5.04492972506e-07
1.96992959875e-06
4.77566377696e-07
2.15782589811e-06
1.53484647188e-06
1.88819796829e-06
2.59271347905e-07
2.92048179298e-07
1.51987972781e-06
3.86715917694e-06
1.6220045663e-06
1.47964224024e-07
2.18546004225e-06
7.63785426701e-07
2.78625193014e-06
1.53449652831e-06
2.81523160639e-06
5.60418986845e-07
9.11169010601e-07
1.15715851238e-08
7.37539627979e-07
6.06741341488e-07
3.60662640144e-07
1.08410051394e-06
4.87866010792e-09
6.0326012427e-07
6.80965280667e-07
1.99114285277e-07
2.64348759987e-07
8.60647282942e-07
1.86707538864e-06
6.24034294901e-07
9.04384581609e-07
7.10738222459e-07
2.34451393285e-06
3.03011149634e-06
2.20405941693e-06
2.73891960943e-06
4.41870242471e-06
2.66149429835e-06
2.03604040344e-08
6.50565285338e-08
3.01231241127e-08
2.06945672514e-07
1.60705614738e-07
3.72956478321e-07
8.42610222471e-07
2.8769745942e-06
1.52677283023e-06
8.12034681806e-07
5.74234845895e-07
8.02903136076e-07
5.33935526738e-09
3.38609855963e-07
2.6289872626e-08
1.68493629416e-07
3.60862859528e-07
4.0757992422e-07
4.3741478853e-07
3.92679756413e-07
6.35912309367e-07
8.15938759057e-07
6.42755288972e-07
9.94269902913e-07
6.03654248007e-07
9.29842463551e-07
8.47650277345e-07
4.28967171166e-07
3.99470626269e-07
5.28873269883e-07
7.3447677553e-07
8.67713063642e-07
2.45220020038e-07
2.47847672652e-07
1.57966316573e-07
5.24452133446e-07
1.84269650569e-06
1.5205219192e-06
2.36807065654e-06
2.12084082051e-07
4.30407155494e-08
1.93427620692e-07
1.20438642532e-07
6.36131904599e-08
9.44503922266e-08
4.32508897905e-08
2.16925945781e-07
2.04364331432e-07
1.44173659942e-07
2.81612978524e-07
3.06542569772e-07
7.15975765483e-07
6.27631187875e-07
4.68996717628e-07
4.24220931317e-07
7.17130526805e-07
6.5488650828e-07
6.14279438141e-07
5.21607290988e-07
1.99274541966e-07
6.6303849282e-07
2.66756025419e-07
4.04345225915e-07
4.11609810543e-07
4.65415060078e-07
5.71847669501e-07
2.45539955145e-07
1.65489486441e-07
2.51092407639e-07
2.00659656612e-07
6.03788140744e-08
5.59180104179e-07
4.51881955309e-07
3.92235662592e-07
1.1035400145e-07
4.56109459559e-07
1.49126420826e-06
8.8674319862e-07
9.26994479211e-07
4.18726221344e-07
1.12908323795e-06
4.9300265582e-07
5.87614950856e-07
5.69103974938e-07
9.50556409361e-07
1.01559806637e-06
1.09600156043e-06
1.37538507821e-06
7.78840979263e-07
2.71455134943e-07
3.83289446978e-07
1.61778852992e-06
2.1875312536e-07
1.12222299648e-07
2.37674097687e-07
1.91413722528e-07