# vtk DataFile Version 3.0
File Name: Molecule/arg/arg_2.0-2.vtk
ASCII
DATASET UNSTRUCTURED_GRID
FIELD FieldData 1
TIME 1 1 double
0.0
POINTS 326 double
-2.9626114368 -0.40191242099 1.8288766146
-3.3803191185 0.27619814873 1.5830816031
-2.9778087139 -0.64732807875 1.0282540321
-3.3851306438 0.020605091006 0.78029716015
-2.8572421074 -0.12341678143 0.19014015794
-2.5099601746 -0.44085896015 0.13974657655
-2.6151497364 0.043773386627 -0.44504123926
-2.2220981121 -0.43965539336 -0.90318614244
-2.2882108688 -0.3267776072 -0.55317366123
-2.4281587601 -0.14928746223 -0.99922078848
-3.0254909992 0.11334981024 0.063936665654
-3.2652540207 0.90401178598 -0.35674849153
-2.8113970757 0.70259284973 -0.80373936892
-2.6216404438 0.45470160246 -1.5046160221
-2.8230879307 1.721821785 -0.44238001108
-2.4413490295 1.3698496819 -0.89009559155
-2.2384107113 1.1782271862 -1.5717839003
-2.4492070675 1.9999777079 -0.40687769651
-1.8371742964 1.7485262156 -1.1218918562
-1.5202798843 3.1598052979 0.26756197214
-1.7511217594 2.5004782677 -0.6184694171
-2.4803841114 2.6606810093 0.64511603117
-3.1529374123 2.3275830746 1.5271327496
-1.8945245743 3.3089272976 1.4924329519
-2.5393981934 2.9658567905 2.2974116802
-2.7303295135 2.5332753658 2.3693015575
-2.9916369915 2.0157530308 2.5801222324
-3.4282298088 1.7813398838 1.7650231123
-3.4089193344 0.59127354622 1.820229888
-3.1220314503 1.7665379047 2.9865221977
-3.1082961559 0.62035733461 3.0058913231
-3.1050746441 0.35030141473 2.0876505375
-3.0774791241 0.062344968319 1.8973869085
-2.8607478142 0.19118787348 2.5132405758
-2.9497585297 0.35381320119 3.1211850643
-2.8879346848 -0.17347744107 2.1388950348
-2.5189476013 -0.69713377953 2.4348731041
-2.4855604172 -0.092329770327 3.3918721676
-2.2377202511 -1.4799728394 1.9269031286
-2.0293688774 -1.0594819784 3.2022657394
-1.7404444218 -1.9484951496 2.7801365852
-1.0048958063 -2.2496850491 2.0710370541
-1.5816152096 -1.7277183533 1.27417624
-2.1913428307 -1.4584276676 0.76122623682
-1.0287356377 -2.1044139862 0.41592895985
-1.6876833439 -1.7891250849 -0.095440283418
-2.3193750381 -0.98949468136 0.24691657722
-1.9814279079 -1.1071243286 -0.523219347
-2.0477991104 -0.78063648939 -0.81684118509
-1.8827080727 -1.3219356537 -1.0588923693
-2.096164465 -0.69442105293 -1.0578497648
-1.8669288158 -0.74617475271 -1.8941631317
-2.3132660389 -0.4214296937 -1.3961011171
-1.6626267433 -1.3476184607 -1.7739355564
-2.1429593563 -0.4654892683 -1.9094865322
-1.9490865469 0.19764140248 -2.4554662704
-1.5719969273 0.14669528604 -2.6808798313
-2.0429623127 1.0146100521 -2.1421966553
-1.6933379173 1.2796741724 -2.2575559616
-1.3341823816 1.4639686346 -2.7224962711
-1.8473364115 1.5255899429 -1.64293468
-1.0840086937 2.0497710705 -2.2501704693
-1.4768377542 1.8252831697 -1.7441380024
-1.2390896082 2.4716649055 -1.3140897751
-0.52172791958 2.549880743 -2.3306336403
-0.6665828228 2.9807636738 -1.3573520184
-0.087346933782 2.9744167328 -2.1435461044
0.32243809104 2.9957430363 -1.8238927126
0.45855563879 3.1514790058 -0.89521002769
-0.05382419005 3.3355653286 -2.9706087112
0.58789116144 3.3103337288 -2.602142334
1.0582573414 2.5638923645 -0.35134142637
0.79361301661 2.68744874 -1.6659331322
1.5502098799 2.0207521915 -1.2064996958
0.85583567619 2.8132009506 0.48085811734
1.5411707163 1.9150518179 0.022765811533
1.2414187193 2.1812906265 1.0552810431
0.40912806988 3.0906682014 0.87382698059
0.72814422846 2.5285937786 1.2123898268
0.48171615601 2.6835942268 1.6876416206
1.1412770748 2.3973326683 2.0904660225
0.70345765352 2.7257995605 2.3071613312
-0.19900897145 3.4728732109 0.80523389578
-0.03533359617 3.1995890141 1.9146161079
-0.5280636549 3.6689276695 1.8597642183
-1.2353883982 3.6121666431 1.4607640505
-0.91067248583 3.5408098698 0.33340242505
-0.15716040134 3.4278907776 2.9604535103
0.56091988087 2.9101116657 3.2539794445
-0.65187674761 3.1864864826 3.6551403999
0.11098767817 2.5760548115 4.094604969
-1.2870393991 3.1871967316 3.7515544891
-0.6648606658 2.6947367191 4.0130286217
-1.4547923803 2.7853178978 3.9881429672
-2.0422763824 2.8949329853 3.6016936302
-1.955704689 3.1490991116 3.5091481209
-2.3386962414 3.1580805779 3.0545139313
-2.5225534439 2.7970237732 2.983269453
-0.60965716839 1.69417274 4.5554909706
-1.0365967751 1.9858367443 4.4338493347
-1.9823992252 2.0242726803 4.4662747383
-1.4578698874 1.6275992393 4.5968532562
-1.4842762947 2.3382847309 4.2872328758
-2.4639134407 2.2133803368 4.1016325951
-2.1540386677 2.602919817 3.7844061852
-2.8579070568 2.1735486984 3.4545912743
-2.7162692547 2.4645898342 3.1007919312
-1.1973106861 1.0347462893 4.6567420959
-0.27039939165 1.1096551418 4.7647595406
-0.61154961586 0.17177712917 4.8112268448
-1.5409110785 0.54655110836 4.5861320496
-0.9114049077 -0.38190427423 4.7655997276
-1.7608089447 -0.56603294611 4.2172307968
-2.3412280083 0.23203802109 4.2392106056
-0.44043955207 -0.71254271269 5.0451836586
0.0063496949151 -0.32726785541 5.1322407722
0.1775547266 -1.1743457317 5.0897502899
0.53041160107 -0.54966974258 5.192278862
1.0747705698 -0.80247908831 5.2657361031
1.2139956951 -1.5518466234 4.9261174202
0.48919910192 -1.8773490191 4.8191556931
0.80585074425 -2.2675881386 4.3759498596
1.66961658 -2.0057284832 4.3962812424
1.1409444809 -2.390982151 3.6258349419
1.9025295973 -2.1257252693 3.7773735523
1.8196105957 -1.9956130981 2.9586565495
1.1112207174 -2.3392705917 2.8075113297
1.0263741016 -1.8515321016 2.1306729317
1.9152215719 -1.4787880182 2.3033723831
0.774081707 -1.6625849009 1.2489036322
0.1387963742 -2.1473677158 1.216665864
0.018673172221 -2.5082035065 2.0827155113
1.0452935696 -1.8251007795 0.34595176578
0.042426090688 -2.4758377075 0.34058466554
-0.77299833298 -1.9856882095 1.2142566442
1.4679704905 -1.0985966921 0.029671447352
1.0761461258 -1.3337211609 0.97286558151
1.3539533615 -0.8486866951 0.82398951054
1.3702299595 -1.2312855721 1.7319252491
1.6618449688 -0.76977795362 1.5758417845
2.3387534618 -0.73470723629 2.0015928745
1.6585299969 -0.65528768301 -0.545370996
1.6874505281 -0.15280097723 0.64827394485
1.8459308147 0.22613450885 0.088104091585
1.6700844765 -1.4016269445 -1.0155502558
2.0627348423 -0.23150931299 -1.3446985483
2.2023818493 -0.84789955616 -1.8552135229
1.3702955246 -1.7550510168 -1.7110468149
1.7418752909 -1.3576434851 -2.2796933651
0.89182525873 -1.9208674431 -2.1313354969
1.4340320826 -1.4255903959 -2.8861470222
0.61740148067 -1.3695393801 -3.0537240505
0.12131567299 -1.8912395239 -2.4619882107
-0.3905223906 -1.275665164 -2.6770834923
0.13109025359 -0.80925548077 -3.4038774967
-0.34341427684 -0.59726476669 -3.1891307831
-1.1488264799 -0.72219091654 -2.5827846527
-0.77686333656 -0.31563508511 -3.1343846321
-0.98698681593 -1.3594186306 -2.3796346188
-1.1717625856 0.41375726461 -3.1790287495
0.20607331395 -0.24845467508 -3.9579162598
-0.31264588237 -0.0020812330768 -3.7459578514
0.24280007184 0.560949862 -4.1080675125
0.033112868667 0.75448966026 -4.0530161858
-0.39243409038 1.9453281164 -3.5860288143
0.28370380402 1.1441043615 -4.2077293396
0.024684861302 2.9887998104 -3.682156086
-0.16692094505 3.1496081352 -3.3327655792
0.92074733973 2.2191114426 -4.0324087143
0.1209910661 2.008677721 -4.1298985481
0.47636541724 2.9619886875 -3.8904771805
0.85882389545 3.3510558605 -2.8016753197
1.6555440426 2.693447113 -2.5316150188
1.0853822231 3.2584602833 -3.2409589291
1.1349549294 2.6185770035 -2.0321235657
2.1046719551 1.6546254158 -1.9669781923
2.1873793602 2.1666145325 -2.5147140026
2.0282011032 1.1083375216 -1.2925082445
2.4226088524 1.2728711367 -2.2799608707
2.3413999081 0.58351445198 -1.5605435371
1.8642008305 0.77071458101 -0.73084467649
1.9723054171 0.93422490358 0.040821731091
1.806858778 0.12692576647 -0.80890715122
1.8486058712 2.0334839821 -3.415004015
1.8617151976 1.300527215 -3.8068006039
1.2082771063 1.6062222719 -4.1851973534
1.5707155466 2.5283331871 -3.3389596939
2.072108984 0.65575426817 0.8187302351
1.8568376303 -0.26922217011 1.4475370646
2.1804325581 0.3759124279 1.6056644917
2.7307929993 0.12561655045 2.1537246704
1.8930448294 1.4218828678 1.2218981981
2.0406885147 1.0119290352 1.9545153379
2.536690712 0.96391093731 2.5893688202
1.812923193 1.6083886623 2.2672395706
1.9574397802 1.7967413664 3.1108736992
2.5683376789 1.3179914951 3.3380043507
2.2121219635 1.4899485111 3.9181203842
1.5735367537 2.0463964939 3.8218698502
1.3547999859 1.69363904 4.4028739929
1.9403890371 1.2186762094 4.672044754
1.3236470222 0.81080853939 5.0653305054
0.66474235058 1.4135630131 4.7769832611
0.59765124321 0.84197944403 4.983335495
-0.16210930049 0.44695067406 4.9617967606
1.1787348986 0.010265594348 5.3568358421
0.56976079941 0.14320287108 5.2210044861
0.91213661432 3.0858056545 -3.6782143116
-3.7267787457 1.951215744 0.85690653324
-3.2780988216 2.258803606 0.2309808135
-3.7198266983 1.5613218546 0.16286385059
-3.7243242264 0.78362983465 0.18424621224
-3.7305903435 0.42545336485 0.85796391964
-3.9388444424 1.1841753721 0.87123852968
-2.7645590305 -1.1334220171 1.4717015028
-2.4436154366 0.028117818758 -2.0284531116
0.46089982986 3.4530537128 -0.044758159667
-0.28830677271 3.6919281483 -0.2927107811
-1.2207821608 3.2949085236 -0.67177629471
-0.50224763155 3.8236613274 2.5019729137
-1.1119283438 4.0115075111 2.468701601
-1.1116809845 3.7846896648 3.2505526543
-1.8807413578 3.8300921917 2.4757387638
-1.8846204281 3.5750355721 3.2323260307
-2.3407270908 3.4003245831 2.4989938736
-1.9720941782 1.2842507362 4.737054348
-2.5782260895 1.6380605698 4.4805445671
-2.5883934498 0.86311411858 4.5000305176
-3.0528521538 1.596883893 4.0113096237
-3.134717226 0.8784930706 3.8819825649
0.45108094811 -2.7117965221 3.9984643459
-0.16049736738 -2.4460170269 4.5786571503
-0.18837814033 -2.8630027771 3.9189007282
0.46301418543 -2.856657505 3.2295792103
-0.19919340312 -2.9712762833 3.2851243019
-0.15415352583 -2.8611633778 2.6735925674
0.58219748735 -2.6464788914 2.5849215984
-0.18501228094 -1.9169039726 4.95048666
-0.80322295427 -1.4989910126 4.9760699272
-0.80376291275 -2.2227399349 4.6332759857
[...]
CELL_DATA 648
SCALARS cell_data_0 double
LOOKUP_TABLE default
2.01353461892e-08
1.21994286904e-09
1.22245249501e-07
3.1376027559e-08
2.08608680558e-08
7.20185757242e-08
1.72946630475e-07
3.62871892761e-09
3.17362092417e-08
2.54565484394e-07
1.37120967413e-07
2.9832861294e-09
5.34747099905e-08
3.54471979336e-07
7.91207666208e-08
7.48511951344e-08
5.7625279468e-08
1.92903934341e-07
8.05541448127e-08
8.83648254312e-09
4.37816608723e-08
9.62335477953e-09
5.50577580581e-08
1.23300968041e-07
1.67324783476e-08
2.74183718695e-08
4.37621862664e-08
6.14865724045e-08
3.19093557108e-08
2.19570418249e-08
8.84170828517e-09
2.25259525899e-08
2.10628365669e-06
2.83259098127e-06
2.59230073853e-07
3.4072850996e-07
1.16667778035e-07
1.25651974759e-07
2.31683634374e-07
8.84614856866e-08
2.34309830952e-07
6.19716937435e-08
4.19201635855e-08
5.08657183881e-08
7.09336065841e-08
6.1835920369e-08
2.09321697668e-07
2.0370361355e-07
1.4408648318e-07
8.67564984422e-08
8.32456294847e-08
4.47307944731e-07
2.22827583142e-07
1.15988809295e-07
4.62198487559e-07
1.78899036323e-07
1.21903486663e-07
2.59955820855e-07
9.7512373928e-08
2.80985341736e-07
1.87479351159e-07
3.73258288079e-07
1.55606168824e-06
3.20572672185e-07
3.4975899082e-07
9.30601998185e-08
1.95758200773e-07
6.19257294719e-08
7.47531685746e-09
3.07015542512e-08
6.17922750001e-08
1.78175711097e-07
3.89891690324e-09
8.52819385876e-08
4.12501615313e-09
6.03439137916e-08
6.65488236892e-08
1.85907634143e-08
3.29103663203e-08
2.34515309802e-07
3.45332859201e-08
4.5277479665e-07
2.36634229848e-08
2.00255860853e-08
3.08054038102e-09
1.54348442623e-09
1.17664589857e-09
1.06339735969e-08
3.60590359788e-08
1.34686720689e-08
7.90359882848e-08
5.78529526719e-11
1.24248938933e-08
7.31331099355e-09
5.1780179999e-09
2.76717827117e-08
1.09041368168e-08
1.86333831089e-08
3.47807651481e-08
2.89157528475e-08
8.48232758478e-08
5.15092257753e-08
3.74202206204e-08
2.01813122101e-08
2.84887047402e-08
9.98076462218e-08
6.09002757167e-07
3.16023345582e-06
7.00425666879e-08
9.08849590974e-09
4.24368026268e-08
1.48830523761e-09
1.59378159538e-07
2.51473221749e-08
7.08120232448e-08
1.13689912807e-06
1.50956963144e-06
1.2234764089e-06
2.06047947759e-06
1.87295137469e-07
2.11262938009e-07
8.76447570437e-08
3.01159799229e-07
6.98162364345e-07
8.56450995451e-07
4.61930231131e-08
1.35599963855e-07
1.26189164092e-07
2.08667723701e-08
6.43526595755e-07
5.70896173833e-07
4.67890926706e-07
1.20274430236e-07
7.11135831874e-08
7.93132401033e-08
3.15561094472e-08
2.63933051765e-10
5.00190320088e-08
2.14064692399e-07
1.0745213928e-06
1.23834122039e-07
1.83629653121e-07
2.58092956708e-07
7.57648582272e-07
3.27030399131e-07
1.67778122995e-07
6.70636212011e-07
2.58632179582e-07
2.12061280288e-07
5.79654720923e-08
1.55160595809e-07
4.27440178232e-08
5.51996633367e-08
2.42616145649e-07
2.97704601483e-07
1.54704216028e-07
4.20834051547e-07
4.42748875936e-06
1.5328842866e-06
1.95806603851e-06
2.23853097788e-06
1.63469130232e-06
8.37691278421e-07
1.27115315067e-05
6.39747724015e-07
1.0666686413e-06
8.27858105964e-07
5.8849449536e-07
5.70122402124e-07
8.16978969948e-08
2.06850507644e-07
5.33301502283e-07
3.34494337889e-07
7.05108051098e-06
9.49192441828e-06
2.03770521667e-06
5.35829405341e-06
1.07433668603e-07
2.18579259628e-08
1.40914879324e-07
8.97905527768e-08
7.42867381004e-09
1.81669697565e-07
7.76172736093e-08
1.60781938011e-07
3.46386190302e-07
1.39771451316e-06
7.62328588048e-07
1.47857409468e-06
2.13955655786e-06
1.70057024025e-06
4.20690847513e-07
1.15416061823e-06
1.30863649576e-07
2.60504619621e-07
4.14081893914e-08
1.05847444871e-08
1.10450408289e-07
2.38393275603e-08
4.41920751808e-08
4.79111701677e-08
4.77509875522e-08
2.78583897859e-08
5.74589157925e-08
2.63150020376e-08
8.37566119051e-08
6.05054910869e-08
4.80913130308e-08
1.23583359571e-07
1.0446150058e-07
5.3687280903e-08
1.32206843375e-07
8.63701252588e-08
3.02808511286e-06
2.6240920123e-08
7.23173364554e-08
1.3989380033e-07
6.43331967568e-08
1.20142929893e-07
5.94341090508e-08
1.68353545039e-07
4.99292626381e-07
1.59611326696e-06
6.03963573916e-07
3.04139112885e-07
7.17414483199e-07
6.28053817684e-07
9.84824653747e-08
7.38578176691e-09
1.39454577733e-08
3.88370361731e-08
1.55939978325e-08
1.13601544867e-08
4.8604830286e-08
2.02399092194e-08
2.27149101481e-08
2.23490504925e-09
5.78017372397e-09
2.57063553736e-07
1.23267449906e-07
1.04899105845e-07
5.52029570906e-08
1.54535838615e-07
5.24719621461e-08
1.09183580643e-07
4.97070630435e-07
1.38607811663e-07
7.27183548868e-08
3.30511922801e-06
3.08395461201e-06
9.55011570037e-07
5.90406329769e-06
8.50151768974e-08
4.19758315221e-08
3.45169847677e-06
2.05827473305e-07
4.46319481906e-07
1.06056175609e-08
2.01928427112e-08
1.32839020652e-08
1.88494729949e-09
1.47456722586e-08
2.71602489694e-08
6.11003680753e-08
2.54493307567e-08
2.16304163384e-08
3.45835993895e-08
4.24942023901e-08
1.66085512346e-07
8.12065647335e-08
1.04270886085e-08
2.11309611068e-08
3.09309778654e-08
8.72955535085e-08
1.55148952092e-08
2.33459607641e-08
2.69459113866e-08
9.04482772799e-09
3.76231171924e-08
4.98823505436e-08
7.43840300671e-08
5.18077456039e-09
5.8757754635e-08
1.60911236575e-07
6.48112907278e-09
4.95333495187e-07
1.82900533401e-07
1.16649814821e-07
4.50674563083e-08
7.51326072512e-08
3.34953852961e-07
2.8261995017e-07
3.11083465669e-08
2.96403764666e-07
3.23508177295e-08
1.34914032494e-07
1.24029825339e-07
1.35023246372e-07
9.10675686642e-08
6.77084902861e-08
2.47840929458e-08
4.96288473648e-08
4.82990910081e-08
4.63289142838e-08
1.42947360547e-07
9.84189642806e-08
1.15036137539e-07
5.64231891886e-07
1.60523361061e-07
2.42171708938e-07
5.97246876642e-08
5.47522213635e-08
1.20002490074e-07
1.27979174139e-08
6.74148355936e-09
1.70110964448e-08
2.03286310874e-08
1.12955506967e-08
1.80494342437e-08
1.18248965438e-08
1.35823818808e-08
1.02193770224e-08
6.17964195282e-08
1.86990746511e-08
1.6550709277e-08
2.8089743277e-08
4.05164531554e-08
6.14347563415e-08
7.84990328667e-09
3.56581249457e-08
2.44917704298e-08
5.42168803317e-08
2.57559759296e-08
1.90624099393e-08
8.58143618116e-10
8.08443907012e-09
4.96858455326e-10
1.34481524963e-08
1.57981868578e-08
3.16861384318e-08
5.93801437216e-08
9.80446020322e-09
1.50597952646e-08
1.88692158502e-08
9.13466398166e-08
2.62288362663e-08
1.66064135333e-08
1.17961500777e-08
3.02109811836e-09
8.1782461618e-10
5.05756691846e-09
2.55370018721e-09
1.2113590245e-08
9.88154301563e-09
1.81925371717e-08
5.29291686459e-08
8.94316411507e-08
1.11668598514e-07
9.53528961971e-08
1.5050210467e-08
3.90617442784e-09
2.48603171323e-06
1.79398960012e-06
2.51053715306e-07
1.16062334252e-06
9.94719347626e-07
5.34607111689e-08
2.80039271203e-07
2.81555142004e-07
7.13035293409e-07
1.38479331823e-06
9.89661849559e-07
3.09689452127e-07
1.89031277116e-07
1.80291435736e-08
3.3200581085e-08
8.88891913582e-08
2.0726453574e-08
4.48295065343e-08
2.95385909518e-08
2.56821827478e-09
3.02779529925e-08
5.09055513579e-08
8.29060098039e-07
8.24915139079e-08
1.2069150342e-07
1.06213270185e-07
2.26025976761e-07
1.08283051936e-07
2.4192847664e-07
3.44195388346e-09
3.37319336936e-08
2.67405144801e-07
2.68687571567e-07
2.32899802379e-06
7.19270358524e-08
2.47610165446e-06
7.79695809493e-07
1.65801962608e-07
5.734289586e-08
3.81729355671e-08
5.78232104305e-08
7.05384998621e-08
1.99053084442e-07
1.48787075266e-07
6.12157732035e-07
2.47705671994e-06
9.34980676389e-07
1.18619073088e-08
4.63353074527e-08
3.61180708751e-08
1.71150528697e-07
2.8323587846e-09
3.45661744427e-08
3.72912749373e-09
4.89859967807e-09
2.12834042361e-08
4.70626040388e-08
2.19256326046e-08
4.38120956324e-09
4.08141013507e-09
1.5605799133e-08
3.73642082825e-08
6.40037702561e-08
2.00435870895e-08
3.66327011827e-08
6.2376832767e-09
6.78717486747e-08
1.32062556398e-07
1.68156955465e-07
6.35398693674e-08
7.46666080471e-08
4.9862097118e-08
6.14268711724e-09
5.29493701974e-08
1.40337438656e-07
1.00189206942e-07
5.18472596618e-07
8.31267698564e-07
2.47706175031e-07
1.91383010939e-07
1.29259971296e-07
1.36162497677e-07
1.6203777073e-07
5.26523217302e-08
3.37109975641e-08
2.16978212106e-09
8.51747738477e-08
5.90969562326e-08
1.99842023814e-08
6.75270021037e-08
2.07584024703e-07
1.28361418816e-08
1.6867739967e-07
2.14832453953e-07
2.67605818733e-07
1.21326373957e-07
3.03289116867e-07
1.52107632798e-08
1.19796873408e-07
5.96185151035e-08
4.73066041667e-07
1.10182768313e-06
4.31179141186e-07
2.18268242425e-06
5.51393013435e-07
4.41241435466e-06
9.12234395021e-07
5.38135866179e-08
6.61560625392e-08
1.66039070057e-07
6.38467701359e-08
4.46264283757e-08
5.38670406278e-08
4.83562461632e-08
1.02509473187e-06
1.99886686394e-07
2.60936702122e-06
2.3947664592e-07
1.24980416097e-06
1.20981135053e-06
3.54959635616e-06
3.25926285117e-06
8.13061461899e-07
1.19860885651e-06
1.08367921229e-07
7.29267947206e-08
1.2504441352e-07
4.37875741185e-08
8.10374299604e-08
1.87514114862e-07
2.83572303586e-07
2.52847595151e-08
1.1616460218e-08
3.71787641439e-08
6.17539594576e-08
9.2017013292e-09
1.69059861347e-08
6.64791458531e-08
5.73286203871e-08
3.94333165903e-08
5.9014259748e-08
3.5559711443e-07
2.52876165028e-07
8.52749012193e-08
2.20700555722e-09
1.78944356059e-08
2.1754260792e-07
3.08514565644e-07
7.845918396e-08
5.59298553126e-08
5.38722643819e-08
2.83548701613e-08
1.41105896018e-07
9.50657445516e-09
2.25008222292e-07
1.14693207933e-06
5.65425461246e-07
1.14065175721e-06
6.09273672138e-08
2.99950571208e-07
1.51353679875e-07
1.24781861667e-07
1.96109751976e-08
6.94133778044e-08
9.75749088022e-08
1.91447711814e-07
1.41106681495e-06
3.89711992451e-06
1.195522915e-06
3.32330198396e-07
2.55017802889e-07
1.37209625324e-07
8.13213870679e-08
9.36412811963e-08
2.02993974556e-08
4.62770701422e-08
8.05194259559e-09
1.11044834526e-07
1.67866971144e-07
3.06761656808e-06
8.55564464975e-07
2.09120860154e-06
1.5533541417e-06
1.67131714225e-06
1.49505296297e-06
1.73845700415e-07
2.02091948639e-07
1.25053634107e-07
3.81110141005e-08
2.61066634066e-09
1.6695463043e-07
9.08549910298e-08
1.30613376856e-07
5.33769268895e-07
1.95181852262e-06
4.53308697114e-07
1.43662453227e-06
1.73692761578e-06
3.51435369323e-07
8.92776506612e-07
4.90381306195e-07
2.11674541506e-07
3.05565783015e-08
2.30045180977e-09
6.58850310973e-08
1.38574269821e-07
1.41335582584e-07
2.24380219378e-07
7.09223237308e-07
8.32664020101e-08
7.70756612625e-09
2.41817110241e-08
5.34531190309e-09
8.04458908641e-09
1.49140787239e-09
6.88557047368e-09
4.99622466909e-08
7.54659550804e-09
2.8521124758e-08
4.72997654707e-09
4.49986570303e-09
1.23926744992e-08
2.67316499957e-08
4.95433931904e-09
2.70557097285e-08
4.81765902596e-07
1.69662658885e-07
4.25375130869e-07
5.2187470734e-07
5.66544239365e-08
8.78802625941e-08
2.07753482611e-07
8.1358430021e-07
1.56608922957e-07
1.66075218623e-08
2.70973858023e-08
1.48638409698e-07
7.9113262687e-09
8.42951207439e-08
8.28720351346e-08
2.98166834232e-08
2.8909337905e-07
2.75204567731e-07
3.48397708925e-07
4.35900019444e-09
2.00297177447e-07
4.2788194406e-06
4.9700517882e-06
9.64434948871e-06
3.44692056166e-07
1.46302923892e-06
1.82785945714e-06
6.79827133834e-07
2.29602197077e-06
7.98364522752e-06
8.47477156066e-07
1.04108537626e-06
5.2263871437e-07
1.47503777642e-06
3.76454449349e-06
2.3258905084e-07
1.65166516478e-06
5.91293412434e-07
6.49743253409e-07
1.60162986201e-07
5.65794326233e-08
7.6888846836e-09
5.83667384675e-06
1.06126817617e-06
4.35127503163e-07
5.24831631546e-07
1.75047551821e-06
2.26633820091e-07
3.56076625905e-06
4.52979075194e-06
2.31851797305e-07
1.42234000121e-06
8.92741127652e-07
1.54487934745e-06
1.21220388555e-07
7.72827787967e-08
1.23472707828e-07
5.96049222655e-09
1.38389400837e-07
1.0961553968e-06
2.83582329898e-06
5.32524043684e-06

