# vtk DataFile Version 3.0
File Name: Molecule/arg/arg_2.0-6.vtk
ASCII
DATASET UNSTRUCTURED_GRID
FIELD FieldData 1
TIME 1 1 double
0.0
POINTS 405 double
-2.9564795494 -0.4202260673 1.806658864
-3.3627846241 0.23672387004 1.5634373426
-2.9762620926 -0.64659488201 1.0065521002
-3.3762149811 0.011015340686 0.76354169846
-2.8603570461 -0.13784299791 0.22869642079
-2.5011577606 -0.45263767242 0.13928681612
-2.6336538792 0.071420788765 -0.42713037133
-2.2213263512 -0.43972158432 -0.90480571985
-2.266007185 -0.37453517318 -0.46349391341
-2.4494810104 -0.11696935445 -0.97998636961
-2.7821669579 0.68561774492 -0.85312134027
-3.2533330917 0.90000462532 -0.36944851279
-3.0558078289 0.16470831633 0.07848289609
-2.6203663349 0.45429992676 -1.503869772
-2.4489281178 1.3684102297 -0.88005197048
-2.8607563972 1.7066559792 -0.39930707216
-2.2618563175 1.1786745787 -1.5368183851
-2.4486749172 2.0201187134 -0.38007104397
-1.8468290567 1.764159441 -1.089633584
-1.5458246469 3.1572268009 0.30499643087
-1.7578386068 2.5194280148 -0.57315808535
-2.4685018063 2.6638553143 0.62598377466
-3.1276597977 2.3601818085 1.5268018246
-1.9217442274 3.2883753777 1.4810590744
-2.547965765 2.9599542618 2.2724816799
-2.737067461 2.5188612938 2.388617754
-3.0029218197 2.0146517754 2.5235188007
-3.4362049103 1.7641322613 1.7477319241
-3.4113714695 0.62797164917 1.8400677443
-3.1353957653 1.7428940535 2.9596998692
-3.1218731403 0.63885623217 2.9797236919
-3.1014425755 0.34836420417 2.0966966152
-3.0578348637 0.024813743308 1.8976272345
-2.8601067066 0.2107476145 2.5516388416
-2.9217352867 0.30249619484 3.1271209717
-2.8186950684 -0.21696159244 2.2618248463
-2.5035252571 -0.23421800137 2.8213040829
-1.727771163 -1.9651738405 2.7565493584
-2.2193906307 -1.5004202127 1.9444534779
-1.0198479891 -2.2396631241 2.0530407429
-1.5721513033 -1.734133482 1.2805944681
-2.1848461628 -1.4675030708 0.76795601845
-1.0371181965 -2.0998160839 0.42917612195
-1.7151317596 -1.7617610693 -0.070428103209
-2.3039405346 -1.0084207058 0.22757893801
-1.998259306 -1.0969963074 -0.47949385643
-2.0463449955 -0.79206502438 -0.79351234436
-1.8481003046 -1.3678636551 -1.0632609129
-2.0707449913 -0.72241795063 -1.090993166
-1.6563894749 -1.3446955681 -1.784705162
-2.3159751892 -0.40331548452 -1.4092309475
-1.8686335087 -0.7275416255 -1.9006564617
-2.1614379883 -0.43072384596 -1.9048426151
-1.9968489408 0.20225803554 -2.3922541142
-1.5720598698 0.1504521817 -2.6750433445
-2.0703353882 0.99365717173 -2.109462738
-1.3222211599 1.4468818903 -2.7392098904
-1.685231328 1.2855930328 -2.2634348869
-1.8430783749 1.5091333389 -1.663269043
-1.0636667013 2.0291457176 -2.3008275032
-1.4772992134 1.8343269825 -1.7330573797
-1.2377033234 2.462846756 -1.3322725296
-0.53784626722 2.5251612663 -2.3427948952
-0.65413951874 2.9871902466 -1.3595632315
-0.087547890842 2.9791123867 -2.1069934368
0.3243304491 2.9947471619 -1.8195316792
0.4537922442 3.1533532143 -0.89652663469
1.0608861446 2.5690300465 -0.39266890287
0.78456640244 2.6700315475 -1.5981519222
1.538593173 2.0220417976 -1.1864429712
0.87501114607 2.7938649654 0.45418006182
1.5417244434 1.9145754576 0.010445744731
1.2597441673 2.1575341225 1.0553616285
0.41251865029 3.0886120796 0.90232789516
0.73021137714 2.5265944004 1.1991596222
0.47206354141 2.6911759377 1.688622117
1.0798932314 2.4516408443 1.9524301291
0.70639002323 2.7250006199 2.3361780643
-0.21202525496 3.4818892479 0.83447271585
-0.032400496304 3.1992478371 1.9043186903
-0.53245568275 3.669924736 1.8432630301
-1.2257908583 3.6155586243 1.437114954
-0.90473568439 3.5405037403 0.32592719793
-0.14277464151 3.4202501774 2.9566905499
0.5301938653 2.9267280102 3.2543914318
-0.61729896069 3.1801571846 3.6556367874
0.12504555285 2.5668611526 4.0985717773
-1.286847949 3.199887991 3.7376754284
-0.68145537376 2.6742985249 4.0272321701
-1.4647111893 2.7898073196 3.9798884392
-2.046615839 2.9108667374 3.579230547
-1.921138525 3.1762702465 3.5022068024
-2.3145616055 3.1756834984 3.0652093887
-2.4978063107 2.831915617 2.9665622711
-2.333060503 3.4062638283 2.502797842
-0.58941423893 1.7069375515 4.5483689308
-1.0471681356 2.0072040558 4.4220485687
-1.9891711473 2.0152316093 4.4680829048
-1.4443645477 1.6325550079 4.5969405174
-1.4877272844 2.3328866959 4.2897415161
-2.4814333916 2.1899900436 4.103243351
-2.1746602058 2.5613975525 3.7981517315
-2.8497395515 2.1577858925 3.4820485115
-2.7275981903 2.4528491497 3.089584589
-1.0823088884 1.0603865385 4.615922451
-0.24287486076 1.0716329813 4.7800107002
-0.70200753212 0.28500366211 4.726629734
-1.5415341854 0.53109937906 4.5857901573
-0.91592651606 -0.39729106426 4.7636408806
-1.7401947975 -0.55511885881 4.2435793877
-2.3410360813 0.23207068443 4.2387709618
-0.048137038946 -0.30921941996 5.1184315681
-0.42726486921 -0.75578409433 5.0427803993
0.19102466106 -1.1776703596 5.0909795761
0.53632241488 -0.53217232227 5.1936674118
1.0953732729 -0.80027836561 5.2663493156
1.1910728216 -1.5588179827 4.9241819382
0.49155429006 -1.8727750778 4.8225064278
0.90559232235 -2.1834862232 4.4387860298
1.664693594 -2.0062096119 4.3987803459
1.1240062714 -2.3362321854 2.8246717453
1.0153862238 -1.8581920862 2.1323480606
1.804236412 -1.9874347448 2.9072237015
1.9116483927 -1.4753211737 2.2938454151
0.77756428719 -1.6628675461 1.2612751722
0.1459813863 -2.1467535496 1.2180508375
0.0085391039029 -2.5043435097 2.0648281574
1.030346632 -1.8365585804 0.35473653674
0.031430583447 -2.471382618 0.36459559202
-0.76401925087 -1.9881687164 1.2202495337
1.4583425522 -1.1153906584 0.028085904196
1.0766844749 -1.3340551853 0.95331823826
1.3700371981 -0.82417798042 0.83892637491
1.3461555243 -1.2510489225 1.7244386673
1.6695080996 -0.77701830864 1.5948345661
2.3408579826 -0.72390627861 1.9991369247
1.6709367037 -0.61661344767 -0.53909850121
1.6810554266 -0.17640030384 0.63092392683
1.8488819599 0.23450873792 0.053278494626
1.6785378456 -1.3902890682 -1.0215870142
2.0594818592 -0.24140760303 -1.3369078636
2.1908357143 -0.86939668655 -1.8408768177
1.3878947496 -1.736651659 -1.7207114697
1.7292169333 -1.3719928265 -2.2641391754
0.8957670331 -1.9156717062 -2.1435930729
1.4416844845 -1.4094667435 -2.9064950943
0.59222358465 -1.3959625959 -3.0229053497
0.12565340102 -1.8786731958 -2.4777052402
-0.36959055066 -1.2636147738 -2.6995651722
0.15002173185 -0.80910223722 -3.4127867222
-0.36366400123 -0.62296187878 -3.1605119705
-1.1567524672 -0.72003948689 -2.5755667686
-0.80506658554 -0.29467105865 -3.1200773716
-0.9955406785 -1.3892918825 -2.3474874496
-1.1309893131 0.44504159689 -3.2168226242
0.23484326899 -0.25541543961 -3.9660675526
-0.34035331011 -0.0072416961193 -3.7292408943
0.20859767497 0.50886249542 -4.0734877586
0.78667294979 3.4011354446 -2.8706498146
0.63435763121 3.278649807 -2.5949318409
1.0573276281 3.2488365173 -2.9268305302
1.1296020746 2.6399168968 -2.0553128719
2.0361173153 1.124984026 -1.3224339485
2.339662075 0.58221483231 -1.5609310865
2.191257 1.4479529858 -1.97760427
1.8505790234 0.79885560274 -0.71753567457
1.9690364599 0.94865131378 0.060163859278
1.8073185682 0.12680928409 -0.80964106321
1.3174085617 1.4686353207 -4.1247310638
1.1661995649 1.8943369389 -4.1121864319
1.7928199768 1.6617971659 -3.600117445
2.0713224411 0.64986002445 0.81727594137
1.8527380228 -0.25520762801 1.4256173372
2.180079937 0.37674853206 1.6031787395
2.7171189785 0.13811774552 2.1372487545
1.8972167969 1.4305454493 1.2636635303
2.0588436127 0.99053680897 1.9754818678
2.5443842411 0.95747458935 2.5995140076
1.8832191229 1.5258071423 2.3136031628
1.5187511444 1.9939240217 1.9525524378
2.058760643 1.6602407694 3.1357448101
2.5894217491 1.2934832573 3.3423676491
2.2101778984 1.4906897545 3.9218196869
1.5447193384 2.0449297428 3.863451004
1.3776333332 1.6643590927 4.4190421104
1.9551243782 1.2000575066 4.6798820496
1.3048064709 0.82566416264 5.0595083237
0.67273956537 1.4196536541 4.7731361389
0.56904911995 0.83135771751 4.9849214554
-0.040734693408 0.40639546514 5.040977478
1.1958392859 0.0041371509433 5.3575592041
0.56163018942 0.15615305305 5.2164211273
-2.5018064976 -0.013947527856 3.4371488094
-3.7266077995 1.9538582563 0.86884272099
-3.2709057331 2.269112587 0.23496469855
-3.7138226032 1.5595724583 0.14966492355
-3.7220988274 0.77228653431 0.18772321939
-3.7331221104 0.4338914752 0.87421745062
-3.9377937317 1.1877354383 0.89481174946
-2.7618143559 -1.1345206499 1.4885212183
-2.5535593033 -0.69797754288 2.3072714806
-2.4523866177 0.04404483363 -2.0150024891
0.46586295962 3.4494650364 -0.018034378067
-0.28432202339 3.6855928898 -0.32632234693
-1.2270305157 3.2985508442 -0.65190076828
-0.49960255623 3.8218765259 2.5040440559
-1.1066377163 4.0129184723 2.4426600933
-1.1057612896 3.787583828 3.2426934242
-1.8722147942 3.8339288235 2.4558141232
-1.8774416447 3.5831067562 3.2224092484
-1.964089036 1.2756983042 4.7411446571
-2.5695836544 1.6360398531 4.4861927032
-2.5892472267 0.87217253447 4.4996452332
-3.0520977974 1.6020095348 4.010363102
-3.1372098923 0.86463302374 3.8675260544
0.40455102921 -2.8702428341 3.191432476
-0.216982916 -2.9696595669 3.2718093395
-0.13627548516 -2.8598022461 2.675028801
0.58631515503 -2.6478245258 2.5921974182
-0.17686395347 -1.920973897 4.9498515129
-0.80351179838 -1.4968652725 4.9769539833
-0.79932743311 -2.23351264 4.6258282661
-0.19949480891 -2.4252972603 4.5995693207
-0.24036219716 -2.7135474682 4.2245416641
-0.24827063084 -2.8677883148 3.8711311817
-0.94874298573 -2.6404588223 4.0104823112
-0.94475984573 -2.802741766 3.3719325066
-0.79453086853 -2.7185349464 2.6195552349
-1.4894067049 -1.319989562 4.5735583305
-1.4469515085 -1.9900240898 4.2987127304
-1.5001045465 -2.3668000698 3.6031074524
-1.4226882458 -2.4300253391 2.9693439007
-1.8562020063 -1.5102673769 3.9428844452
-1.8835426569 -1.5634348392 3.1069498062
0.85311597586 -2.6383609772 3.3882651329
0.32512661815 -2.3605103493 4.5725955963
1.196013689 -2.2818682194 -0.48382341862
0.64322382212 -2.5710597038 -0.1263140142
0.62930101156 -2.7305765152 -0.88582491875
1.1901348829 -2.2991559505 -1.1990171671
[...]
CELL_DATA 806
SCALARS cell_data_0 double
LOOKUP_TABLE default
3.26667621246e-08
2.03305921279e-09
1.23446132376e-07
2.83968401135e-08
2.7481130264e-08
6.52315745229e-08
2.65452990923e-09
1.62492271247e-07
4.92436686042e-08
2.11242042682e-07
1.42735785733e-09
1.38842448773e-07
1.63786484652e-08
3.07956573274e-07
7.45693149237e-08
6.92301984688e-08
5.12416375193e-08
1.72203322904e-07
7.71827687632e-08
3.42532438159e-09
3.65096780051e-08
3.71343331213e-09
4.33904652928e-08
9.21836532077e-08
1.79690351188e-08
2.21577062464e-08
4.0941776007e-08
1.86031940311e-08
2.90321873226e-08
2.07957336217e-08
6.32351205758e-08
5.22531602955e-07
2.56483984181e-07
7.50197253756e-08
1.42714354958e-07
2.00663881018e-07
6.54252761807e-08
1.75581279464e-07
7.58799341397e-08
4.90567014215e-08
1.24691664139e-07
6.38539629021e-08
5.59121114461e-08
3.79026932548e-08
2.02164643337e-07
1.19204838914e-07
1.89299088243e-07
2.4258947284e-07
2.87689253351e-07
3.05650191217e-07
1.13944464701e-07
3.28596524894e-07
2.59883097092e-07
2.66188182356e-09
3.0792359254e-07
4.00713415556e-07
9.62371533769e-08
1.81022415754e-07
4.93327457238e-07
1.54312773976e-07
7.92097908581e-08
1.95796049425e-07
7.76236856728e-09
1.45627000938e-08
4.08854855248e-08
6.25028687871e-09
3.58002352474e-08
1.89934871468e-09
5.7507227207e-08
1.25180686256e-08
5.72088645138e-08
6.00471907215e-08
1.42244838415e-08
1.20448106103e-07
4.04051080139e-07
4.62286346384e-08
5.88326965153e-07
2.67427945295e-08
1.89503280668e-08
4.45488864219e-09
2.00218501862e-09
3.03455692869e-09
1.74450073075e-08
4.84966810405e-08
3.02934883489e-08
5.46619796033e-08
8.44627355276e-10
1.25912311351e-08
1.03090668849e-08
4.83304287729e-09
2.82762212354e-08
1.11160315645e-08
1.98662790773e-08
3.25650726403e-08
2.27823581579e-08
7.01185211258e-08
7.27344692017e-08
4.26212552095e-09
7.31563614208e-09
5.61921303966e-09
1.01892791707e-07
2.07235763855e-08
1.77135120857e-08
2.69664381158e-08
2.51717906029e-10
1.32731938991e-07
2.70590932401e-08
2.30059055046e-08
4.31706287295e-07
1.13428048412e-07
1.33344849674e-07
2.66336254658e-07
6.20068827732e-07
7.8820106959e-07
4.67124769953e-08
1.67880572152e-07
7.89106035544e-08
2.20854941055e-08
6.07985809114e-07
6.42724219623e-07
4.39666212578e-07
1.62659123294e-07
6.16266669097e-08
8.74483083031e-08
3.34133121784e-08
1.26707520931e-08
3.35121089845e-08
2.49759660487e-07
9.98125327936e-07
8.31634296311e-08
1.56032120057e-07
2.25068806509e-07
8.05365986741e-07
4.4985797474e-07
1.37424714984e-07
5.35844009499e-07
3.20104838346e-07
2.08425779197e-07
6.55002088761e-08
1.61320028616e-07
1.2347528562e-07
3.0566001044e-08
2.83694820679e-07
3.43989575848e-07
2.20714137805e-07
5.86224913459e-07
5.27525233745e-08
7.9205131483e-07
9.51134593219e-08
7.67798606035e-07
2.55302690127e-07
1.21965343389e-07
1.48377265489e-07
4.88546137222e-07
3.25361540103e-07
6.1409926623e-07
1.24445886088e-07
1.85573307984e-08
1.36635406783e-07
5.30643450742e-08
4.77358795269e-08
1.29004693819e-07
1.04027275283e-07
2.74214209752e-07
3.86887065945e-07
9.62512577403e-09
6.67931398267e-07
1.55823880612e-06
7.21414109254e-08
1.34397046622e-06
1.31182828959e-07
2.43011716948e-07
5.35106167458e-08
1.3346852567e-08
1.14096449612e-07
6.86851662427e-09
4.73686523603e-08
5.6690667991e-08
4.11913682814e-08
3.30673195851e-08
9.07843348366e-08
1.98582799017e-08
8.37985010281e-08
6.61482520712e-08
3.34504850626e-08
1.0577655965e-07
9.98449425003e-08
5.65663949695e-08
1.53395066988e-07
6.14696331552e-08
6.45949377964e-08
1.05797817729e-07
1.19937883477e-07
1.63186362802e-08
1.36321679216e-07
8.23007657784e-08
3.78839257183e-07
4.12088615296e-07
5.00058575244e-07
7.69802921047e-07
5.31355962677e-07
9.37078909604e-08
4.76840421418e-09
1.26458041023e-07
1.03516467976e-09
1.00001170806e-08
8.34274083747e-09
5.82033753596e-08
2.40057072899e-08
2.61374236518e-08
2.49907496728e-08
7.45326596419e-09
2.68605093348e-07
1.33370171556e-07
8.47787625871e-08
7.22135830497e-08
1.22164192417e-07
6.18902095033e-08
1.03898299625e-07
4.62908184804e-07
1.11699081923e-07
1.05198493762e-07
3.64095776502e-08
1.99458425799e-07
1.48442817294e-07
2.99684870209e-07
1.53038372879e-08
1.93549744348e-08
1.32023632275e-08
4.23343109192e-09
1.24462215853e-08
3.17688614744e-08
5.50130878511e-08
1.89947087428e-08
2.3425604977e-08
3.3861629559e-08
3.55486330294e-08
1.64010639895e-07
7.60160828002e-08
1.61765747723e-09
1.8341035603e-08
2.50882499496e-08
8.14219776505e-08
2.01175386481e-08
2.45565941938e-08
2.17573567212e-08
1.35317616976e-08
3.11233483061e-08
5.83312902289e-08
6.79110646883e-08
4.40055691922e-08
2.44319820235e-08
1.32639370869e-07
1.24596595137e-09
1.81176111993e-07
2.13920185776e-07
1.38010762797e-07
5.12513272961e-08
6.83579724384e-08
2.85132464478e-07
2.2478743625e-07
5.68069298964e-09
2.7370769704e-07
2.60062479358e-08
1.11441099131e-07
1.87068966532e-07
1.08571063317e-07
4.3061894833e-08
4.1918898506e-08
1.91563093759e-08
4.88494793613e-08
2.37667930061e-08
4.28628260921e-08
1.05558280576e-07
9.91446144185e-08
8.20198315648e-08
4.81019555907e-07
8.27014964433e-08
2.24858109638e-07
6.60099821208e-08
8.30708930268e-08
1.11226217073e-07
3.65808734093e-08
5.31568220198e-09
9.47345839296e-09
2.06067200432e-08
1.13367872711e-08
1.03723057498e-08
7.06692487994e-09
1.80266147533e-08
1.2510158768e-08
1.05754052179e-07
2.61368504593e-08
7.79237340309e-08
4.23688854994e-08
4.82966252051e-08
4.90206721933e-08
1.10124072231e-08
3.06174320786e-08
1.92374455378e-08
5.40651229148e-08
1.15533463493e-08
1.52801855202e-08
3.73365543034e-09
1.11967651876e-08
6.75201397558e-10
1.24966249241e-08
1.60647308679e-08
2.09092230181e-08
4.97743078157e-08
1.32776546947e-08
1.24963451138e-08
1.53075477168e-08
6.70591867564e-08
1.69966740395e-09
1.07150258895e-08
2.4234271822e-08
7.62487055538e-09
2.62015622876e-09
4.73753105623e-09
1.98805480736e-09
9.16033018663e-09
1.04174957045e-09
1.44825350226e-08
3.72430210629e-08
7.94723451689e-08
1.09098475824e-07
5.51373312525e-08
1.04874321571e-08
3.51657813369e-08
3.37889958265e-07
4.52404490638e-07
5.11815477211e-08
1.76397877728e-07
4.20377632215e-07
1.07629233233e-06
7.98860691175e-07
2.77556104134e-07
1.95339237301e-07
5.64935743782e-08
3.71819875325e-08
1.30440107777e-07
4.45332172173e-08
2.1282504813e-08
1.96730731436e-08
1.37946126045e-08
5.68846355273e-08
8.94131572397e-09
1.2629355252e-06
2.45616774598e-07
8.35452067639e-08
1.26288302575e-07
1.86955112176e-07
5.40567998839e-08
1.345004672e-07
2.19674229297e-07
8.11734669895e-09
9.37928977275e-07
3.82823821883e-07
4.48642671204e-08
5.03613016756e-08
3.67705364319e-08
5.19645247346e-08
1.8465881523e-07
1.51423952326e-07
2.57784218988e-07
4.51245898349e-09
4.30457798018e-08
3.51787001778e-08
1.43479305348e-07
2.85281276751e-11
2.4207805027e-08
5.48409884214e-09
3.74023969445e-09
2.37113195751e-08
3.51967378723e-08
2.36648179072e-08
2.40248156577e-09
9.80625167663e-10
1.4244552419e-08
3.38262718682e-08
5.29138511333e-08
1.60980325544e-08
2.65865123051e-08
5.24896322169e-09
5.62842411034e-08
1.44848156938e-07
1.49387751369e-07
5.55653694146e-08
7.01116045255e-08
4.31432445546e-08
3.83090752173e-09
4.02161918867e-08
1.34019265241e-07
9.37019448272e-08
5.3607953043e-07
8.42347759597e-07
2.37654798141e-07
1.33811830987e-07
1.48141721949e-07
1.21842617081e-07
1.51180645894e-07
5.71217014735e-08
2.86344228028e-08
7.83878518403e-09
8.41129520083e-08
5.41294226375e-08
8.40934770527e-08
7.66356261595e-08
1.8942184338e-07
3.1063791276e-08
1.43033869843e-07
2.44788899792e-08
3.01686269572e-08
8.89879341566e-09
1.85120095856e-08
5.54548470722e-08
6.68662175785e-08
4.72119646157e-08
1.44881105802e-07
6.89185063319e-08
8.65694446422e-07
3.56957050261e-09
1.15045725065e-06
3.33790842077e-08
2.69959262389e-08
1.34991346337e-07
7.32085997196e-09
2.41219257973e-08
6.60063475581e-08
2.87075928483e-08
1.07187931712e-06
4.84119144961e-07
7.09426717011e-07
3.73605205588e-08
5.95202601155e-08
6.47072031667e-07
6.0605316808e-08
7.51529077929e-08
1.07843106771e-07
4.67449392155e-08
5.76289291466e-08
1.9020442368e-07
4.03595249018e-07
3.91485308611e-08
2.47459747718e-09
3.60279814616e-08
3.58911272368e-08
2.56664955383e-08
1.32770056475e-09
2.80093041888e-08
5.60749475001e-08
4.11544939482e-08
9.96753757707e-08
4.54701460116e-07
2.72399696925e-07
6.70115627905e-08
1.97290529257e-08
4.53542975708e-08
8.74593803356e-09
1.92885504817e-07
7.2398659464e-08
5.90658540735e-08
2.87882890163e-08
1.52448876802e-07
1.25738424195e-08
2.41615491265e-07
1.03792922712e-06
3.6123737208e-07
1.18888215352e-06
1.10564552247e-07
3.49864734645e-07
1.40037749925e-07
1.00798420648e-07
1.72668060201e-08
3.86784230389e-08
1.49952027268e-07
2.94810906429e-07
2.95639588692e-08
9.26190129384e-08
1.76790600673e-07
7.6354120615e-08
8.60054503521e-08
3.98303628791e-08
2.38922257481e-08
3.66236022532e-08
3.2167831233e-07
1.44542913602e-06
1.13322242391e-06
3.58829277042e-07
1.44913224736e-07
2.10147560353e-07
1.15452790137e-07
4.70423498954e-08
9.27087808547e-10
1.55937711868e-07
8.28969880625e-08
1.39913768893e-07
5.58238799147e-07
1.72802709493e-06
5.60442618616e-07
1.44525412626e-06
1.62347755157e-06
4.60951942451e-07
8.80427466014e-07
4.62963492879e-07
2.06263546169e-07
2.16944120011e-08
7.62967446145e-09
6.43436900642e-08
1.1511998504e-07
1.65849814511e-07
1.98358173726e-07
7.09692862809e-07
5.33126448833e-08
1.26011736473e-08
1.12649735875e-08
4.21226646002e-08
8.05453808372e-09
4.80183608139e-09
8.42956878251e-09
4.77411388268e-08
4.15299727828e-08
2.06517238102e-08
2.08472830269e-09
1.32966425819e-09
3.88639344978e-08
3.99751446158e-08
3.67650931415e-09
1.32934655861e-08
6.64580109531e-08
1.19270622004e-07
2.03872032033e-07
1.53415304622e-07
7.99359665947e-08
1.53403759139e-07
7.22111683216e-07
1.42436179592e-07
6.38159755676e-09
2.25281128005e-08
1.50800564188e-07
2.33236540869e-08
9.09414996076e-08
7.16101738976e-08
2.27576289074e-08
3.35914561315e-07
2.69314521996e-07
2.86594087248e-07
7.30268492393e-09
1.1734919659e-07
1.33338922656e-07
1.1826821075e-07
1.87198081879e-06
3.72681500167e-07
8.94209450521e-07
1.9989992486e-08
2.65946228062e-08
4.52303598976e-07
7.5774082129e-07
1.05217135582e-06
9.4152111776e-08
3.78876901962e-07
2.62515329246e-07
4.41768163531e-07
1.97799739471e-07
1.1435038477e-07
1.18610936148e-07
7.68545191491e-08
1.44972077382e-08
1.28230432247e-07
7.1151411439e-07
3.1402834076e-07
4.56249568081e-07
4.64329278471e-07
6.28824375019e-07
6.13178556903e-07
2.69445200316e-08
3.80649099407e-07
6.14758958648e-08
6.89977891182e-07
6.39511603316e-07
4.42513844655e-07
8.68035619395e-07
7.25491743048e-07
7.3246810044e-07
9.75487842882e-07
6.26735126106e-07
3.10952449805e-07
3.65678190971e-07
4.85123942169e-07
1.60701638919e-07
4.84182392173e-07
2.9741127298e-07
2.74376447864e-07
3.1853082868e-09
1.11035064164e-07
1.05483689468e-07
6.17958374865e-07
7.49860970213e-07
6.84296463897e-07
8.1900089671e-09
6.3012693738e-08
3.95440572804e-07
1.00312196467e-07
5.43691356387e-07
9.25650604247e-07
8.6701034261e-08
6.51336708701e-07
3.67965525099e-07
7.35524877982e-07
1.0385592965e-06
3.63661616356e-07
1.69498314295e-07
4.30085685602e-07
4.38385965299e-07
4.88036818241e-08
2.65501881283e-07
2.63582117865e-07
3.58305173617e-07
5.19979116567e-07
8.08905853017e-07
7.24291844534e-08
9.61638133886e-08
3.23619346671e-08
1.97385876277e-07
1.58264114529e-07
1.0050799566e-07
2.41901725243e-08
1.91931730443e-07
1.77363056366e-07
2.35018483705e-07
3.50538730163e-07
4.40561380949e-07
1.73480971293e-07
4.63058066604e-07
1.92913042664e-07
4.07516282813e-07
6.7075773349e-07
5.40579871855e-08
8.22525305145e-07
1.33781483162e-07
1.04838586882e-07
2.22619835028e-07
4.7081074154e-08
1.35617077661e-07
1.40893727945e-07
1.05424026022e-07
2.98418297443e-07
1.79800514231e-07
1.73391068462e-07
5.26133311577e-08
2.50440856274e-07
4.77636793945e-08
8.08997923146e-07
9.30255893376e-07
2.18072668557e-08
9.94764167344e-08
2.79433380099e-07
8.39359269447e-08
2.6555095454e-07
2.19186521805e-07
3.27781539881e-07
1.12997289746e-07
4.62892708085e-07
9.06987692585e-07
3.24339103006e-07
5.12012632357e-08
6.25667262998e-07
1.35672925411e-07
2.79556953619e-09
4.04456522198e-07
4.14977671582e-07
3.56213472413e-07
6.38982595214e-08
1.25844333043e-07
4.3259260029e-07
1.03347813873e-06
3.79156982648e-07
5.13289714852e-07
3.05824811418e-07
2.22366223936e-07
6.14366051803e-08
1.01304337317e-07
4.18641760647e-07
1.03485479303e-07
1.10146850903e-07
1.83155690168e-07
5.15805913289e-07
2.98507744392e-07
6.4435775552e-07
4.98641444918e-08
3.02674102988e-07
3.09189281111e-07
4.93024217255e-07
1.19862497822e-06
1.55204154764e-07
4.20236901365e-07
9.05441388973e-07
1.10913161982e-08
2.58996147681e-07
2.12383399163e-07
1.51985722509e-06
5.2874004216e-08
3.86183118197e-07
5.01187401233e-07
1.88446729047e-07
3.32939643842e-08
1.15065280327e-06
1.94687854766e-08
4.59222748241e-07
4.01456411766e-07
1.94889559506e-07
5.03766563638e-08
4.62686238083e-08
9.26823252385e-08
5.54198783482e-07
2.15688568994e-07
8.63779583014e-08
7.41013885309e-08
1.50763399534e-07
5.94380171786e-07
1.79861925113e-07
6.6411882864e-07
2.4095311638e-07
3.72633919345e-08
3.22602960672e-07
5.07446090264e-07
7.79128537074e-08
3.30054602774e-08
1.27142457454e-07
2.34090725574e-07
5.3988009396e-08
3.62550241622e-07
8.75525871209e-08
1.71933538483e-07
1.92839498602e-07
1.27216716476e-07
4.53253114655e-07
1.58851105786e-08
3.80209411268e-07
3.4874478333e-07
3.21314245361e-07
5.90201186167e-08
2.54028115266e-07
2.85155632677e-08
1.06447367681e-07
9.40636453793e-08
1.26750506112e-08
2.23920981135e-08
8.78931562057e-08
3.78287737874e-07
7.07171707994e-08
1.58342400836e-07
5.1622700319e-07
7.99452772991e-07
3.94762106055e-07
2.65285611087e-07
1.32185747878e-07
1.58315050881e-08
9.90005634436e-08
1.84462323863e-07
4.6082288943e-08
4.85044626258e-08
2.88301945971e-08
8.77034898715e-08
1.00754538039e-07
2.17282955796e-07
5.38432104891e-08
3.6098449482e-07
3.12561926691e-07
8.99766054515e-08
1.39877837299e-06
1.5001492562e-07
6.56911324451e-07
4.6679994833e-07
3.09522666008e-08
5.33174857583e-07
1.12223861014e-07
7.49303664884e-07
3.87197980705e-07
8.36321859609e-07
3.09983646248e-08
8.93980522302e-07
8.45846336436e-08
1.98865928664e-07
7.72277361609e-07
3.74173477921e-07
3.3202402622e-08
6.57333794777e-08
8.49080026342e-07
3.58831130965e-08
1.09891527841e-07
4.01531122105e-07
1.00429543791e-07
7.30385410342e-08
2.9356668784e-08
1.17053538317e-06
1.94471518398e-07
8.96394663946e-07
4.91510620219e-08
1.93607000419e-07
8.83655234617e-07
8.58294504331e-08
3.07535756033e-07
5.99223955963e-08
3.05064443285e-07

