# vtk DataFile Version 3.0
File Name: Molecule/arg/arg_2.0-3.vtk
ASCII
DATASET UNSTRUCTURED_GRID
FIELD FieldData 1
TIME 1 1 double
0.0
POINTS 337 double
-2.9624903202 -0.40190577507 1.8294525146
-3.3803451061 0.27647769451 1.5835348368
-2.9777619839 -0.64728462696 1.0286711454
-3.3853237629 0.020963396877 0.78048986197
-2.8575747013 -0.12359783053 0.19141867757
-2.5017831326 -0.45511394739 0.14743687212
-2.6200025082 0.055782727897 -0.44519340992
-2.2219581604 -0.44273126125 -0.89626955986
-2.2750151157 -0.34838655591 -0.48162683845
-2.429243803 -0.14806398749 -0.99822318554
-2.8105566502 0.70199781656 -0.80507910252
-3.2567942142 0.89894402027 -0.36682274938
-3.0251817703 0.11299237609 0.06316113472
-2.6216213703 0.45467692614 -1.5046628714
-2.4446280003 1.3717756271 -0.88436490297
-2.8230853081 1.7218298912 -0.44242349267
-2.2388432026 1.1785155535 -1.5710135698
-2.4492785931 2.0000965595 -0.40664559603
-1.8373919725 1.7484145164 -1.1217403412
-1.520280242 3.1598033905 0.26754942536
-1.751116395 2.5004644394 -0.61852800846
-2.4803874493 2.6606872082 0.64515173435
-3.1529316902 2.3275904655 1.5271449089
-1.8945235014 3.3089282513 1.4924383163
-2.5393981934 2.9658567905 2.2974126339
-2.7303285599 2.5332763195 2.3693020344
-2.9916372299 2.0157532692 2.5801217556
-3.4283208847 1.7811428308 1.7650053501
-3.408936739 0.5913412571 1.8200955391
-3.1219420433 1.7665718794 2.9866886139
-3.1082940102 0.62044548988 3.0059041977
-3.0830199718 0.065077468753 1.8849964142
-3.1055471897 0.3507321775 2.0866508484
-2.860802412 0.19123585522 2.5130901337
-2.9497702122 0.35382449627 3.1211752892
-2.8891267776 -0.17238344252 2.1369388103
-2.5189995766 -0.69711267948 2.4347281456
-2.4856009483 -0.092333108187 3.3918225765
-2.2378623486 -1.479866147 1.9266828299
-2.0293211937 -1.0594843626 3.2023499012
-1.7404500246 -1.9484909773 2.780125618
-1.0048943758 -2.2496855259 2.071034193
-1.5816389322 -1.7277036905 1.2741221189
-2.1913864613 -1.4583957195 0.76119345427
-1.0287201405 -2.1044223309 0.41590571404
-1.6875475645 -1.7892547846 -0.095697566867
-2.3195798397 -0.98955631256 0.2497857064
-1.9804729223 -1.1083374023 -0.52421534061
-2.0493724346 -0.77986383438 -0.81152921915
-1.8827464581 -1.3220803738 -1.0587449074
-2.0963561535 -0.69437253475 -1.057366848
-1.8669233322 -0.74613451958 -1.894174099
-2.3133223057 -0.42138302326 -1.3959025145
-1.6627258062 -1.3475115299 -1.7739168406
-2.1429576874 -0.46547865868 -1.9094896317
-1.9492006302 0.19762165844 -2.4553210735
-1.5719444752 0.14670711756 -2.6809768677
-1.7265708447 1.2398757935 -2.2283325195
-1.3416371346 1.4724202156 -2.7099866867
-2.0457963943 1.0135121346 -2.1387631893
-1.8485035896 1.5260305405 -1.6405870914
-1.4743442535 1.8132731915 -1.7596598864
-1.0862387419 2.0511105061 -2.2442674637
-1.2398955822 2.4712605476 -1.3133488894
-0.52226924896 2.5500621796 -2.3292355537
-0.66640388966 2.9807868004 -1.3574594259
-0.087300747633 2.9745218754 -2.1432085037
0.32246413827 2.9955611229 -1.8243205547
0.45847570896 3.1514673233 -0.89520210028
-0.053744684905 3.3354430199 -2.9708955288
0.58714026213 3.3097193241 -2.6037564278
1.0586750507 2.5641674995 -0.35043767095
0.79250061512 2.6867506504 -1.6695843935
1.5488142967 2.0201053619 -1.2084374428
0.85592871904 2.8132879734 0.48162022233
1.5411846638 1.915387392 0.023330062628
1.2414067984 2.1812212467 1.0549805164
0.40909978747 3.090685606 0.87386494875
0.72816956043 2.5285699368 1.2124116421
0.48171380162 2.6835944653 1.6876403093
1.1412736177 2.3973367214 2.0904610157
0.70345562696 2.725799799 2.3071608543
-0.19900549948 3.4728708267 0.8052161932
-0.035329096019 3.1995875835 1.9146192074
-0.52806395292 3.6689279079 1.859764576
-1.2353872061 3.61216712 1.4607633352
-0.91067230701 3.5408096313 0.33340191841
-0.1571597904 3.4278907776 2.9604537487
0.5609241128 2.9101142883 3.253964901
-0.65188288689 3.1864762306 3.6551718712
0.11061488092 2.5763013363 4.0944929123
-1.2870583534 3.1871743202 3.7515845299
-0.6647337079 2.6951560974 4.012597084
-1.454810977 2.7852947712 3.9881565571
-2.0422763824 2.8949325085 3.6016945839
-1.9557050467 3.1490988731 3.5091483593
-2.3386962414 3.1580808163 3.0545139313
-2.5225548744 2.7970230579 2.9832689762
-0.59662824869 1.6878880262 4.5586133003
-1.0342632532 1.9850360155 4.434419632
-1.9824968576 2.0241472721 4.4663105011
-1.4497694969 1.6233712435 4.5996255875
-1.4841375351 2.3382658958 4.2872686386
-2.4639358521 2.213365078 4.1016125679
-2.1540355682 2.602943182 3.7843751907
-2.8578989506 2.1735501289 3.4546039104
-2.7162709236 2.4645879269 3.1007919312
-1.1056535244 1.0698587894 4.6089105606
-0.29189169407 1.097244978 4.7683796883
-0.68675947189 0.21829861403 4.7357501984
-1.5465859175 0.55839514732 4.5831298828
-0.89931195974 -0.37907147408 4.7729625702
-1.7603000402 -0.56594002247 4.2179865837
-2.3414795399 0.23247942328 4.2391171455
-0.021558487788 -0.32644170523 5.1250605583
-0.4310221374 -0.73340702057 5.044904232
0.17827787995 -1.1748178005 5.0897917747
0.52671951056 -0.54991209507 5.1917567253
1.0744980574 -0.80237984657 5.2657709122
1.2139852047 -1.5518677235 4.926091671
0.48921450973 -1.8773705959 4.8191289902
0.80584979057 -2.2675905228 4.3759460449
1.6696147919 -2.0057287216 4.3962826729
1.1409446001 -2.390982151 3.6258349419
1.9025297165 -2.1257252693 3.7773735523
1.8196104765 -1.9956130981 2.9586565495
1.1112205982 -2.3392705917 2.8075113297
1.0263741016 -1.8515321016 2.1306731701
1.9152215719 -1.4787880182 2.3033723831
0.774081707 -1.6625849009 1.2489036322
0.1387963444 -2.1473677158 1.2166659832
0.018673105165 -2.5082035065 2.0827155113
1.0452936888 -1.8251007795 0.34595155716
0.042427532375 -2.4758377075 0.34058275819
-0.77299952507 -1.9856879711 1.2142541409
1.4679704905 -1.0985966921 0.029671411961
1.0761461258 -1.3337211609 0.97286552191
1.3539534807 -0.84868663549 0.82398951054
1.3702299595 -1.2312855721 1.7319252491
1.6618449688 -0.76977789402 1.5758417845
2.3387534618 -0.73470729589 2.0015928745
1.6585263014 -0.65529537201 -0.54537028074
1.6874520779 -0.15279725194 0.64827495813
1.846006155 0.22650454938 0.088096193969
1.6700842381 -1.4016273022 -1.0155501366
2.0624697208 -0.23177859187 -1.3440645933
2.202381134 -0.84789741039 -1.8551944494
1.370295167 -1.7550508976 -1.7110470533
1.7418757677 -1.3576440811 -2.2796916962
0.89182525873 -1.9208673239 -2.1313357353
1.4340735674 -1.4255162477 -2.8863899708
0.61659556627 -1.3705064058 -3.0523862839
0.12126539648 -1.8912875652 -2.461920023
-0.39040666819 -1.2755900621 -2.6771924496
0.13142411411 -0.80912810564 -3.404157877
-0.34351718426 -0.59734886885 -3.1889970303
-1.1488723755 -0.72215604782 -2.5828146935
-0.77604341507 -0.31520053744 -3.1362171173
-0.98700231314 -1.3593661785 -2.379679203
-1.172095418 0.41260883212 -3.1770222187
-0.29739168286 0.0039692698047 -3.7588012218
0.22094133496 -0.25176355243 -3.9624526501
0.24359020591 0.53680741787 -4.0979351997
0.027472518384 0.69783741236 -4.0525417328
-0.3923073113 1.9452881813 -3.5856916904
0.27441889048 1.1304044724 -4.205892086
0.025620881468 2.9890882969 -3.6813304424
-0.1662735641 3.1500234604 -3.3321151733
0.92259341478 2.2127630711 -4.0336079597
0.12253929675 2.0086605549 -4.1311388016
0.47748497128 2.9615809917 -3.8907887936
0.85863614082 3.3520872593 -2.8090522289
1.6414806843 2.7065768242 -2.5466730595
1.084993124 3.2590680122 -3.2411968708
1.1211978197 2.6364796162 -2.0391736031
2.0303430557 1.1095885038 -1.2987033129
2.3420910835 0.58947455883 -1.5692652464
2.213640213 1.4587600231 -2.044734478
1.8645062447 0.76798331738 -0.73479193449
1.9723107815 0.93389797211 0.040335670114
1.8068910837 0.12685875595 -0.80864608288
1.2036390305 1.6183124781 -4.1838154793
1.6268237829 2.2683069706 -3.4478685856
1.8064496517 1.634935379 -3.6029164791
2.0721082687 0.65576153994 0.81871569157
1.8568390608 -0.26922228932 1.4475377798
2.1804323196 0.37591317296 1.605663538
2.7307927608 0.12561653554 2.153724432
1.8930418491 1.4218811989 1.2218858004
2.040687561 1.0119286776 1.9545137882
2.536690712 0.96391111612 2.5893688202
1.8129281998 1.6083847284 2.2672445774
1.9574397802 1.7967410088 3.1108736992
2.5683376789 1.3179914951 3.3380043507
2.2121214867 1.4899485111 3.9181215763
1.573538661 2.0463967323 3.8218584061
1.354788661 1.6936175823 4.4029574394
1.9403991699 1.2186701298 4.672039032
1.3239867687 0.81080597639 5.0651493073
0.66434180737 1.413466692 4.7771105766
0.59003698826 0.84548455477 4.9811592102
-0.13981188834 0.4222188592 4.971622467
1.1782681942 0.010260514915 5.3569488525
0.57055062056 0.14323663712 5.2204146385
1.5533840656 2.5402481556 -3.343059063
0.91263914108 3.0866167545 -3.6784107685
-3.7267794609 1.9512118101 0.85690563917
-3.2780916691 2.258810997 0.23098413646
-3.7195575237 1.5612282753 0.16232073307
-3.7240645885 0.78351575136 0.18357250094
-3.7305929661 0.42547112703 0.85792636871
-3.9388380051 1.1841682196 0.87117373943
-2.7646255493 -1.133372426 1.4714875221
-2.4438920021 0.028409764171 -2.0281527042
0.46086543798 3.4529197216 -0.045349430293
-0.28830170631 3.6919636726 -0.2926363349
-1.220802784 3.2948896885 -0.67182201147
-0.50224721432 3.8236613274 2.5019729137
-1.111928463 4.0115075111 2.4687025547
-1.1116808653 3.7846889496 3.2505552769
-1.8807418346 3.8300919533 2.4757394791
-1.8846203089 3.5750353336 3.2323265076
-2.3407270908 3.4003245831 2.4989938736
-1.970897913 1.2822395563 4.7376694679
-2.5782961845 1.6380704641 4.4804348946
-2.5883421898 0.863253057 4.500023365
-3.0528388023 1.5969102383 4.0112929344
-3.1346349716 0.87850606441 3.8821415901
0.45108065009 -2.7117965221 3.9984638691
-0.1604847461 -2.4460158348 4.5786571503
-0.18837796152 -2.8630027771 3.9189007282
0.46301415563 -2.856657505 3.2295792103
-0.19919346273 -2.9712762833 3.2851243019
-0.15415346622 -2.8611633778 2.6735928059
0.58219742775 -2.6464788914 2.5849215984
-0.18504288793 -1.9169595242 4.9504528046
-0.80357635021 -1.5002028942 4.9755015373
-0.80381846428 -2.2228009701 4.6331982613
-0.94623851776 -2.6427903175 4.006521225
-0.94636875391 -2.8019430637 3.3737728596
[...]
CELL_DATA 670
SCALARS cell_data_0 double
LOOKUP_TABLE default
2.18292313904e-08
1.28297819561e-09
1.18293410235e-07
2.92586972732e-08
3.66692583753e-08
6.63529850628e-08
1.48796531492e-09
1.61831918436e-07
3.25612447044e-08
2.45663484749e-07
5.05495667495e-09
1.29665303284e-07
5.11454379691e-08
3.51023459999e-07
7.56551846173e-08
6.89324120871e-08
5.60461015198e-08
1.91185280602e-07
8.38190042077e-08
7.451406062e-09
4.28794846394e-08
1.27563371766e-08
5.33944090222e-08
1.25542816303e-07
2.92942633594e-08
2.16943275058e-08
4.59599485309e-08
6.115656445e-08
3.54812484856e-08
2.33470487568e-08
5.86842805003e-09
3.01100375319e-08
2.11744866101e-06
2.83203162418e-06
2.56869262307e-07
3.45121855147e-07
1.15142449613e-07
1.2807508245e-07
2.16428434448e-07
8.11946122888e-08
2.338829268e-07
7.66479163915e-08
4.52611488438e-08
5.50863042866e-08
7.12849628669e-08
6.10904236068e-08
2.12269964681e-07
2.09941602861e-07
1.56720106854e-07
1.00758459148e-07
1.47364229146e-07
3.98800406606e-07
2.24057159168e-07
1.12317486423e-07
2.88645280391e-07
8.50055908953e-08
1.47570246287e-07
2.56208760068e-07
7.47506485071e-09
3.05702605976e-07
1.98553786024e-07
3.93984611257e-07
1.49361433385e-06
2.97220002223e-07
2.14352695862e-07
9.37845507353e-08
1.5181527536e-07
3.79197974757e-08
1.1100927986e-08
3.17855987123e-08
6.66613683822e-08
1.78806964448e-07
6.21251911514e-09
8.52294753849e-08
2.28343569814e-09
6.45020731029e-08
6.6278753803e-08
1.60489902323e-08
3.25172192354e-08
2.33936082703e-07
3.56164800229e-08
4.55701216357e-07
3.05688590732e-08
1.81173908008e-08
2.29697836474e-09
1.91525517054e-09
1.82950194291e-09
4.73076341671e-09
3.72677754193e-08
1.05577639306e-08
7.7643845039e-08
4.87242244954e-10
1.11995668361e-08
1.03099168937e-08
6.61197787468e-09
2.68702564631e-08
8.71736851425e-09
1.95638303469e-08
3.29779168595e-08
3.01600189057e-08
7.30634808716e-08
5.97687502043e-08
2.24290582788e-08
4.73108573951e-09
5.69794734961e-09
1.00209142671e-07
6.09541523156e-07
3.15498015629e-06
3.11315085154e-08
1.59106499661e-08
2.02736494787e-08
1.26388964108e-09
1.56901692331e-07
2.69988965944e-08
7.06451956043e-08
1.14033872955e-06
1.51646585789e-06
1.22463139219e-06
2.0526048377e-06
1.87489490714e-07
2.14829571533e-07
8.84301031338e-08
3.0056034272e-07
6.98292950727e-07
8.53699926492e-07
4.42892164066e-08
1.39523345334e-07
1.19886574248e-07
1.83064666885e-08
6.40650756254e-07
5.72079967331e-07
4.67200913306e-07
1.24323203458e-07
7.3826551828e-08
8.11673839302e-08
2.81250924573e-08
7.01119748284e-09
4.0851948814e-08
2.25698854025e-07
1.08121345899e-06
1.32152939084e-07
1.84203360845e-07
2.54331348221e-07
7.61009474048e-07
3.30027056241e-07
1.67496194238e-07
6.64322365505e-07
2.48648699379e-07
2.16797528132e-07
5.94225849313e-08
1.49764896121e-07
4.47317882915e-08
5.28082008428e-08
2.50096832785e-07
1.43588026446e-07
2.78266078323e-07
4.50039185583e-07
5.60116634765e-06
1.37327081862e-06
2.62185808988e-06
3.14436281293e-06
1.42018914472e-06
3.93509805476e-07
2.8635280261e-08
7.25009733608e-07
2.50252911798e-07
1.15570857304e-07
1.26442722116e-07
4.6880671087e-07
3.42940451532e-07
1.37995146336e-06
1.26264921032e-07
1.96512021329e-08
1.45868761526e-07
9.08890848567e-08
1.49812181141e-08
1.9062625518e-07
8.21495789385e-08
1.62409972836e-07
3.41553622966e-07
1.39352585419e-06
7.65993318432e-07
1.47661287722e-06
2.13667824879e-06
1.69966926579e-06
4.26590389702e-07
1.15241509318e-06
1.31038488645e-07
2.61504940027e-07
4.07227589182e-08
1.60264522709e-08
1.11240348167e-07
2.59594924579e-08
4.40878462406e-08
4.77401338387e-08
4.74745373917e-08
3.84059791091e-08
6.8724121752e-08
2.61405888508e-08
8.1039022568e-08
7.18747067559e-08
4.12008946342e-08
1.2212954418e-07
1.01120539275e-07
5.574180193e-08
1.31406071225e-07
7.36266553859e-08
3.03223178609e-06
2.62262128554e-08
7.61212568129e-08
1.38689257554e-07
6.46315159401e-08
1.19242210914e-07
7.14838366084e-09
8.41577429478e-08
5.43925294361e-07
1.68751912176e-06
6.20223433337e-07
7.83398384237e-07
7.92618432059e-07
5.38499902576e-07
1.08404506632e-07
1.8584221642e-08
9.70482963802e-09
3.83350416144e-08
1.64472988391e-08
7.60792069568e-09
5.61030275997e-08
3.8572261773e-08
2.21726839669e-08
2.91607415283e-09
8.70558984911e-09
2.58569342753e-07
1.2024153576e-07
1.06998085112e-07
6.12835491042e-08
1.55826180458e-07
5.64006514238e-08
1.33679053344e-07
4.92201928517e-07
1.37355599389e-07
7.88897502744e-08
3.60465212656e-06
2.19697864945e-06
2.07668166741e-07
2.37395562989e-08
2.04796954245e-07
2.06535978402e-07
4.43755960836e-07
1.15546920873e-08
1.9885679285e-08
1.2812246478e-08
1.76635493996e-09
1.24660690562e-08
3.67284578858e-08
5.98565057813e-08
2.35312152519e-08
2.22541200249e-08
3.34880163999e-08
3.81233034113e-08
1.68618613997e-07
8.05067769778e-08
7.99789492198e-09
2.46770028706e-08
2.62659868588e-08
9.13114950298e-08
1.61277991422e-08
2.66534097758e-08
2.57215260242e-08
1.05129974592e-08
3.62861487387e-08
4.4145333618e-08
7.24798423306e-08
1.70188325118e-08
6.69913293461e-08
1.54357967524e-07
3.94848173017e-09
5.05384171143e-07
1.99871631954e-07
1.25941480261e-07
4.59144203282e-08
7.35777735146e-08
3.41519520844e-07
2.86334191362e-07
3.53617590868e-08
2.9872957328e-07
3.76186132736e-08
1.328865841e-07
1.29052734463e-07
1.42466584632e-07
1.6734085546e-07
6.6526918499e-08
2.29256057152e-08
5.3517418323e-08
4.74892193406e-08
4.62010391145e-08
1.44726585127e-07
9.58376405729e-08
1.08021796033e-07
5.90170897702e-07
1.83300313592e-07
2.25282279291e-07
6.21929157316e-08
9.93464510731e-08
1.10687569441e-07
1.46580199535e-08
8.12234042302e-09
1.38384869412e-08
2.37773189195e-08
1.25404557807e-08
1.30603539586e-08
6.50637470696e-09
1.1011666e-08
1.13762268412e-08
6.24002731886e-08
1.90204177972e-08
1.70822914377e-08
2.64130880843e-08
4.03011539584e-08
6.23089766759e-08
1.07927656913e-08
3.78527692953e-08
2.51806304671e-08
5.24638933369e-08
2.50335071065e-08
2.19976828854e-08
7.26768160738e-10
9.60844420861e-09
1.681490447e-09
1.28251851871e-08
1.22044086798e-08
2.64900712351e-08
5.62943754678e-08
7.74426000904e-09
1.73627164374e-08
1.562647278e-08
9.02927088044e-08
2.71731373019e-08
1.38502398821e-08
1.5904995546e-08
2.66747366775e-09
5.31511968707e-09
4.31875512066e-10
2.49022890219e-09
1.13497913222e-08
5.67607906596e-09
1.57909897789e-08
5.57611218227e-08
9.17142968229e-08
1.14989060757e-07
9.81117029043e-08
1.6063030962e-08
8.46104765415e-09
2.49050599599e-06
1.80097926446e-06
2.5557607498e-07
1.15909604376e-06
9.96434312548e-07
5.31265862544e-08
2.77363762896e-07
2.8017064624e-07
7.15085923034e-07
1.38645227891e-06
9.91982176202e-07
3.0941364521e-07
1.86846375211e-07
1.39115106633e-08
3.70059406595e-08
8.8363376559e-08
2.20791806204e-08
4.41144034375e-08
2.89645768731e-08
4.08234784941e-10
3.43014105502e-08
5.07478511628e-08
8.30208656783e-07
8.14001220472e-08
1.22068460092e-07
1.08348968498e-07
2.26397127284e-07
1.08261475225e-07
2.41962264258e-07
1.64788221156e-09
2.72412096627e-08
2.71138354774e-07
2.67513779031e-07
2.3236611153e-06
6.80133820983e-08
2.47883760639e-06
7.82779597209e-07
1.62685044614e-07
5.76395428531e-08
3.89904163463e-08
4.32236619798e-08
5.10312253515e-08
1.96706908104e-07
1.5911319911e-07
6.07395710269e-07
2.48018000612e-06
9.3566432752e-07
1.13970818836e-08
4.28649178699e-08
3.64646479621e-08
1.67836574129e-07
1.00268217214e-08
3.11877641283e-08
7.36283281286e-10
3.16095129009e-09
2.1862257249e-08
4.76918905653e-08
2.32959509536e-08
6.26549795325e-09
8.96110662809e-09
1.15969188573e-08
3.92979384171e-08
6.48181463347e-08
2.68085790788e-08
3.35347323575e-08
6.96342711226e-09
6.47176167668e-08
1.32115533359e-07
1.6848012505e-07
6.54822243154e-08
7.36353829159e-08
4.70158829769e-08
5.1180558022e-09
5.36227057456e-08
1.37673022545e-07
1.02335528931e-07
5.15118478051e-07
8.24353022325e-07
2.42437818886e-07
1.9129819154e-07
1.32165842231e-07
1.38283333318e-07
1.67751076215e-07
4.87780051946e-08
3.85998370949e-08
9.35978246792e-10
8.09255764106e-08
6.71447253067e-08
1.58851288572e-08
7.27581244897e-08
2.05782316948e-07
1.33461723026e-08
1.77857675383e-07
3.51191725381e-07
2.08269566288e-07
2.00088789241e-07
3.27547829122e-07
1.29454308792e-08
1.12491277423e-07
6.61054044871e-08
4.47549182378e-07
1.05251936205e-06
4.51778018026e-07
2.06841543098e-06
8.45261145599e-08
1.22753876228e-06
6.33885837889e-08
4.42053402872e-08
1.71791567402e-07
3.64653437801e-08
2.07181337069e-08
5.24623065851e-08
3.42767420285e-08
1.02245948125e-06
1.96950089525e-07
2.6066130922e-06
2.36633582682e-07
1.24480933313e-06
1.20743794514e-06
3.5539055099e-06
3.25712813422e-06
8.08761305195e-07
1.19857303176e-06
1.04906095838e-07
7.08848550596e-08
1.27014755313e-07
3.42715977898e-08
8.28277507971e-08
1.84179655628e-07
2.77202308101e-07
3.03806541313e-08
1.14972026088e-08
4.00707350817e-08
6.29431381322e-08
1.70147975601e-08
1.44390408929e-08
6.53952819857e-08
5.70736008514e-08
3.94877877403e-08
6.08862247746e-08
3.60581780378e-07
2.53975257826e-07
8.65451623683e-08
2.65821296201e-09
1.82723118997e-08
2.18851223373e-07
3.08754042745e-07
7.75916820503e-08
5.35610121548e-08
5.48868229262e-08
2.69359415289e-08
1.42590311783e-07
9.75661531696e-09
2.22567870524e-07
1.14186605687e-06
5.6048852703e-07
1.140221054e-06
5.83576812846e-08
3.00425486225e-07
1.48264233497e-07
1.26198027656e-07
2.04209049285e-08
6.95698635134e-08
9.90414834294e-08
1.88038921186e-07
1.41683078097e-06
3.89168095976e-06
1.19653006788e-06
3.30769267909e-07
2.48454818558e-07
1.3359054026e-07
8.38345898794e-08
9.19506355822e-08
2.012997524e-08
4.55531715492e-08
9.17797585239e-09
1.09904129169e-07
1.67826778028e-07
3.06247485903e-06
8.51816421392e-07
2.09376606159e-06
1.54486545141e-06
1.66901494322e-06
1.50237864679e-06
1.7314951784e-07
2.03419279059e-07
1.28054566716e-07
3.79491078991e-08
4.55058564008e-10
1.73039513748e-07
9.43261729295e-08
1.27941859e-07
5.38374809418e-07
1.94948863824e-06
4.49820765222e-07
1.4437394256e-06
1.7358700047e-06
3.51633437431e-07
8.93978059089e-07
4.90031603791e-07
2.1072468386e-07
3.15252905317e-08
2.83008148843e-09
6.65974208839e-08
1.42251817239e-07
1.4057476016e-07
2.22359024892e-07
7.11096486073e-07
5.70492193049e-08
1.85163363716e-08
1.85764475587e-09
1.12531453241e-08
1.10556311495e-08
8.5063460465e-09
1.35450121364e-08
5.49972967829e-08
6.6485600742e-09
2.58185512761e-08
6.47610980973e-09
7.53249586318e-09
2.06488744986e-08
1.67598637792e-08
1.11229640462e-08
6.23104516956e-08
1.90753299985e-07
1.43309724991e-07
1.2985178911e-07
1.56861118879e-07
3.72852755983e-08
1.65301758678e-07
7.46738514795e-07
1.37364196938e-07
1.29062303e-09
3.15069707417e-08
1.43692969075e-07
1.10944560649e-08
8.01284815596e-08
8.74676475311e-08
2.76910284479e-08
2.91640359095e-07
2.75811292231e-07
3.2125738113e-07
2.68754256e-08
2.25848999588e-07
1.62231038031e-06
4.06575213152e-07
1.37187019832e-06
1.55355328241e-06
4.80582250425e-08
1.6124550969e-06
1.76405968604e-06
7.5676510316e-07
9.74480142938e-07
1.27437453125e-06
9.5131049813e-07
3.4681629212e-06
5.99550004675e-08
1.68521874042e-06
6.0142213924e-07
7.68677818428e-07
1.05813321145e-07
3.30800628416e-08
1.01652883161e-07
8.39819718481e-07
2.35671123595e-06
3.44112803416e-07
2.10039840536e-07
2.55867126257e-06
1.7353783077e-07
3.17848429731e-06
3.25858250795e-06
3.52543256529e-07
8.93037277653e-07
1.09646997008e-07
5.90436611054e-08
1.10201870497e-07
1.5301921085e-06
1.80886620779e-07
5.2338321072e-08
2.02357530504e-07
1.212166031e-06
3.92051831271e-06
5.02777701334e-06
1.50971843271e-07
4.38674752702e-07
5.43500642798e-07
4.62321397216e-07
4.52357866092e-07
1.46351129321e-06
3.38365163596e-07
7.56045270859e-09
1.48217609457e-06
6.98464440824e-07
3.94377370462e-07
1.58319312833e-06
4.43615645753e-07
4.86648965399e-07
5.90771057858e-07
5.12735612062e-07
1.04384054154e-07
1.12541389088e-07
1.80198242942e-07
3.58820693316e-07
4.49097971196e-07
1.9530189771e-07
5.67793362566e-08
6.68143132178e-07
1.80554697108e-07
2.28860999204e-07
6.18947686227e-08
4.9029126686e-07
9.91084272889e-08
2.94947595741e-06
1.43681593581e-07
1.04792286054e-06
7.30359776721e-07
1.06085466229e-06

