# vtk DataFile Version 3.0
File Name: Molecule/arg/arg_12.5-2.vtk
ASCII
DATASET UNSTRUCTURED_GRID
FIELD FieldData 1
TIME 1 1 double
0.0
POINTS 2390 double
-3.1941969395 0.05729855597 1.6253424883
-3.3710377216 0.28684493899 1.6333128214
-3.268812418 -0.010531233624 1.3770980835
-3.4576818943 0.20781128109 1.343282938
-3.0803935528 -0.12860266864 1.7002334595
-3.1495029926 -0.19063286483 1.4635666609
-2.9794237614 -0.38148540258 1.8402296305
-3.0547454357 -0.45040729642 1.5680009127
-3.4779596329 0.14754891396 1.0887200832
-3.2552554607 -0.091337703168 1.1795918941
-3.1229200363 -0.30819517374 1.2679078579
-3.0226376057 -0.59174239635 1.3776010275
-3.3710570335 -0.0015287054703 0.81636017561
-3.186819315 -0.19021752477 0.90492385626
-3.0680792332 -0.38712948561 0.96871447563
-2.9786138535 -0.65361779928 1.0724593401
-3.107622385 -0.18993121386 0.6108750701
-3.3086998463 0.025574050844 0.50160437822
-2.9873838425 -0.3825995028 0.69304454327
-2.8670840263 -0.68264222145 0.76181304455
-3.1333584785 -0.053668800741 0.3230471313
-2.9589030743 -0.2318328619 0.41816863418
-2.8627502918 -0.4246340692 0.5194914341
-2.7608788013 -0.65610402822 0.54024958611
-2.8992235661 -0.076641693711 0.1719340831
-2.7327458858 -0.21750643849 0.15694887936
-2.690901041 -0.39101579785 0.30845832825
-2.572439909 -0.62015503645 0.31247270107
-2.7881791592 0.10730870813 -0.23500390351
-2.7129266262 -0.048398308456 -0.064631655812
-3.0110559464 0.086663842201 0.021638995036
-2.6072580814 -0.02571394667 -0.26146072149
-2.4887785912 -0.23924787343 -0.087749801576
-2.499522686 -0.14527373016 -0.22425884008
-2.4584422112 -0.12291679531 -0.41077947617
-2.3232815266 -0.32119607925 -0.33984494209
-2.2917819023 -0.30921784043 -0.50082111359
-2.2133421898 -0.45700734854 -0.51186466217
-2.2040464878 -0.44919896126 -0.70980119705
-2.3346881866 -0.22332207859 -0.67251497507
-2.2730908394 -0.39120680094 -0.99375593662
-2.9842381477 0.31566399336 -0.29964148998
-3.2845864296 0.30662801862 -0.025472108275
-2.628857851 0.067900456488 -0.46196204424
-2.7859075069 0.26638171077 -0.55640000105
-2.5177927017 -0.019024917856 -0.62352406979
-2.6695592403 0.1964084357 -0.7480031848
-2.4379782677 -0.10635381937 -0.88702899218
-2.5821518898 0.097199939191 -1.0097236633
-2.4101691246 -0.23223626614 -1.1663206816
-2.5625705719 -0.016050534323 -1.2636190653
-3.2510170937 0.54397875071 -0.23212566972
-2.9839644432 0.49342551827 -0.4604794085
-2.814152956 0.43097543716 -0.67669069767
-2.7217345238 0.36829066277 -0.8539083004
-2.6310358047 0.26441144943 -1.1290673018
-2.6027648449 0.13906443119 -1.4191812277
-3.0259418488 0.81134283543 -0.54532128572
-3.2809772491 0.91962313652 -0.35278463364
-2.844399929 0.72114938498 -0.75911813974
-2.7391862869 0.65049010515 -0.93566131592
-2.6530835629 0.5600438714 -1.1899287701
-2.6244971752 0.4557082653 -1.495034337
-3.1181218624 1.2156163454 -0.49985522032
-2.9059541225 1.0917570591 -0.65848821402
-2.7464771271 0.98218852282 -0.85461115837
-2.6522827148 0.91144740582 -1.0335444212
-2.5618057251 0.81632059813 -1.3145853281
-2.533718586 0.747179389 -1.5964848995
-2.8397495747 1.316549778 -0.64364469051
-3.0544810295 1.4816516638 -0.47455602884
-2.6722612381 1.1835519075 -0.84828776121
-2.5700166225 1.1003470421 -1.0194704533
-2.4811556339 1.014144659 -1.2736442089
-2.4377753735 0.96188694239 -1.5683857203
-2.7886791229 1.7010618448 -0.51234185696
-2.6298761368 1.4751198292 -0.67806780338
-2.4780004025 1.3609979153 -0.86385273933
-2.360660553 1.2971647978 -1.0517323017
-2.286226511 1.1857777834 -1.324172616
-2.1865444183 1.2013832331 -1.6203489304
-2.6009867191 1.9397827387 -0.43555271626
-2.4979486465 1.6140152216 -0.66630840302
-2.3371124268 1.8203589916 -0.59068548679
-2.2927846909 1.4907604456 -0.89833796024
-2.1122677326 1.7176194191 -0.82577610016
-1.9302872419 1.6449393034 -1.1307256222
-2.1175391674 1.4609862566 -1.1401325464
-1.9859200716 1.45396173 -1.460336566
-1.7557916641 1.6840493679 -1.4636702538
-2.2743065357 2.0517530441 -0.45743176341
-2.3680369854 2.2694187164 -0.25317415595
-2.6972420216 2.1913297176 -0.20780083537
-1.9895670414 2.1905493736 -0.55180311203
-2.1349520683 2.3534157276 -0.33364641666
-1.7932331562 2.2958438396 -0.68903660774
-1.8661631346 2.507860899 -0.47978073359
-1.5869743824 2.4364690781 -0.91584652662
-1.6583260298 2.6886563301 -0.68428981304
-2.6609580517 2.4131512642 0.039927437901
-2.3500778675 2.4754822254 -0.0045255552977
-2.1399047375 2.5374319553 -0.10020877421
-1.8867839575 2.6908545494 -0.22050502896
-1.6585457325 2.9153027534 -0.40022936463
-2.5800945759 2.5700170994 0.31365463138
-2.2782423496 2.6279990673 0.29306101799
-2.0758755207 2.6793096066 0.14970962703
-1.8135849237 2.846247673 0.044194296002
-1.6084202528 3.068595171 -0.086974360049
-2.4715664387 2.6598412991 0.64601755142
-2.153904438 2.7090580463 0.67839938402
-1.9936988354 2.7528951168 0.44628936052
-1.715513587 2.9252471924 0.3451782167
-1.4785765409 3.1705470085 0.23041145504
-2.7291381359 2.647667408 0.88840317726
-2.3340878487 2.7206983566 0.92888092995
-2.5742945671 2.6984951496 1.157856226
-2.1376154423 2.8830087185 1.1849294901
-2.3859343529 2.8440363407 1.3652955294
-1.9645016193 3.0793764591 1.3322557211
-2.2135691643 3.0560424328 1.5356031656
-1.8614931107 3.3199071884 1.4853192568
-2.1492724419 3.2851297855 1.7282562256
-3.034083128 2.4903364182 1.2307817936
-2.8324437141 2.5560717583 1.4524037838
-2.6262960434 2.7112033367 1.6427903175
-2.474616766 2.9183111191 1.8522315025
-2.4070222378 3.1473212242 2.0528764725
-3.1865713596 2.2926948071 1.4928406477
-2.9087941647 2.4253213406 1.6669807434
-2.7289476395 2.5589811802 1.8801276684
-2.5994207859 2.7455260754 2.1037070751
-2.526112318 2.9772846699 2.3131382465
-3.3151044846 2.0648050308 1.6792579889
-2.9850327969 2.2993330956 1.8036727905
-3.1107506752 2.0978593826 1.9265992641
-2.8106439114 2.4125366211 2.089795351
-2.967746973 2.1764957905 2.1876306534
-2.6888332367 2.6065006256 2.3593513966
-2.8714380264 2.3104784489 2.4980003834
-3.1847786903 1.881300807 2.0426006317
-3.4220221043 1.787350893 1.7955197096
-3.0345442295 1.9483450651 2.3543758392
-2.9789094925 2.0071127415 2.6965374947
-3.3579642773 1.4190844297 2.0920300484
-3.2658951283 1.6926217079 2.0645055771
-3.5234405994 1.4859924316 1.8357897997
-3.1425797939 1.7170294523 2.3489599228
-3.231256485 1.4643616676 2.3925592899
-3.0925095081 1.734457612 2.6616470814
-3.187568903 1.4697293043 2.7156331539
-3.1147489548 1.772416234 3.0076477528
-3.2267875671 1.4413105249 3.0421717167
-3.5525994301 1.2415610552 1.8507268429
-3.3774559498 1.1255433559 2.1014261246
-3.2602932453 1.2440770864 2.4054670334
-3.2144856453 1.2490992546 2.7467484474
-3.2486875057 1.1247788668 3.0488226414
-3.351831913 0.8922431469 2.0693478584
-3.5409960747 0.91341388226 1.8172925711
-3.239975214 0.94214618206 2.3757381439
-3.1917321682 0.94916689396 2.7121326923
-3.2070744038 0.88273376226 3.0376260281
-3.4282436371 0.58845412731 1.7806830406
-3.2293629646 0.63284862041 2.0979905128
-3.1267511845 0.67916047573 2.4072377682
-3.0930700302 0.69719779491 2.7373924255
-3.0971245766 0.59388619661 2.9946453571
-3.1388995647 0.36361378431 2.0239779949
-3.0727035999 0.046215668321 1.8900128603
-2.9632956982 0.10869943351 2.1723167896
-3.0372707844 0.44341668487 2.3467786312
-2.9037547112 0.23203453422 2.4554378986
-3.0233130455 0.51571375132 2.6583619118
-2.9205002785 0.34612736106 2.7597928047
-2.9755992889 0.38312417269 3.1148285866
-2.8933367729 -0.27610570192 2.1155998707
-2.7389252186 -0.50684046745 2.2637553215
-2.7041049004 -0.25738847256 2.4488518238
-2.8239958286 -0.080833718181 2.3224880695
-2.7759823799 0.051851745695 2.6001479626
-2.6312100887 -0.14666572213 2.7251055241
-2.8257031441 0.21657274663 2.8914768696
-2.684327364 0.019096886739 2.9759955406
-2.8060426712 0.16984890401 3.2776942253
-2.5265161991 -0.70066720247 2.4136373997
-2.4954493046 -0.445512712 2.5978412628
-2.4740614891 -0.24836826324 2.8787631989
-2.5259478092 -0.085871934891 3.1463422775
-2.6157996655 0.019251922145 3.4172055721
-2.4653656483 -0.96292066574 2.3464233875
-2.3118317127 -0.77432954311 2.6244156361
-2.2514746189 -1.0556598902 2.5448389053
-2.1825618744 -0.76662003994 2.8599960804
-2.1445035934 -1.0319066048 2.7944686413
-2.0514264107 -0.97666537762 3.1135070324
-2.0311090946 -1.2597091198 2.9627797604
-2.0053610802 -1.1463292837 3.3518896103
-1.9772063494 -1.4566912651 3.3079824448
-2.2565553188 -1.2002445459 2.357863903
-2.4683654308 -1.1158856153 2.1707308292
-2.093392849 -1.2029365301 2.7559804916
-2.1152300835 -1.2931232452 2.5396022797
-1.9932576418 -1.430567503 2.7901201248
-1.9433364868 -1.5914565325 3.0522258282
-2.3470926285 -1.3417233229 2.0087351799
-2.1108605862 -1.4322687387 2.2348842621
-1.9531832933 -1.5535482168 2.4667408466
-1.8633751869 -1.6821323633 2.6654787064
-1.8047862053 -1.8751804829 2.9406206608
-2.1953372955 -1.5272192955 1.7596553564
-1.9863971472 -1.5884917974 1.9864422083
-1.8592267036 -1.6665298939 2.1790783405
-1.7248450518 -1.8207610846 2.4060924053
-1.6418838501 -2.0326461792 2.6333808899
-1.9607542753 -1.6612787247 1.6294959784
-1.7832356691 -1.7081934214 1.8446234465
-1.6582026482 -1.7979290485 2.0142109394
-1.5126584768 -1.9730789661 2.258852005
-1.4132941961 -2.1908311844 2.4519820213
-1.6562945843 -1.7475126982 1.6623696089
-1.8395776749 -1.6983118057 1.421156764
-1.5096304417 -1.8333337307 1.8384218216
-1.3707296848 -1.9869699478 2.0585618019
-1.2453843355 -2.2213189602 2.2629547119
-1.5726057291 -1.7284150124 1.2786465883
-1.4089208841 -1.7771463394 1.5400005579
-1.2365372181 -1.903378129 1.7701382637
-1.1077440977 -2.047305584 1.9378248453
-0.9605910182 -2.26902318 2.08801651
-1.8391768932 -1.678563714 1.1010540724
-1.4284403324 -1.7353974581 0.98579770327
-1.6517720222 -1.6979167461 0.8220693469
-1.1760526896 -1.8575421572 0.77732169628
-1.4373396635 -1.8076102734 0.59551435709
-1.1036291122 -1.9912214279 0.51259809732
-1.3245892525 -1.9576263428 0.33426195383
-0.96221375465 -2.2201759815 0.31938096881
[...]
CELL_DATA 4776
SCALARS cell_data_0 double
LOOKUP_TABLE default
2.5576954607e-09
1.04012192709e-09
1.70787543519e-09
4.09592402249e-11
1.65728618924e-09
1.77701237425e-09
1.00449624366e-09
8.23148918103e-10
9.20344840875e-10
7.2415660579e-10
7.01278213593e-11
4.14133741102e-10
1.30898602768e-09
1.74426348501e-09
2.21481598239e-09
8.16124854561e-10
2.0549803979e-10
1.38322347243e-09
8.67790971828e-10
3.29993262489e-09
1.23576282335e-10
3.40634680968e-09
1.67655259192e-09
1.1690348454e-09
2.38856636555e-10
2.30255073441e-09
5.18594601857e-10
2.16735056841e-09
1.61915652524e-09
3.30436453469e-09
9.76765110831e-09
3.93450044407e-09
2.32246817442e-09
1.18301341608e-09
3.22128579247e-09
1.44574886741e-09
1.74356107964e-09
3.64404162829e-09
6.24628287683e-09
3.44830342325e-09
1.05256715918e-09
7.25306063884e-10
1.96227581277e-09
1.01331731751e-10
2.6420015732e-09
8.39031592149e-09
1.13849951072e-09
3.88812316865e-09
8.66253511724e-10
5.88078876827e-09
5.27403823696e-09
1.24445795856e-08
2.27308157995e-08
6.16934268463e-09
2.01550631437e-09
6.79893441873e-10
8.73497163767e-10
2.28242323663e-09
3.98058809093e-10
1.16638500363e-09
4.28706077886e-09
4.28072068469e-09
3.72063752636e-09
1.91125206715e-09
5.64863569706e-10
1.35661617455e-09
9.31516942939e-10
2.78961957619e-09
2.97587308772e-09
8.95116874276e-10
3.93754665243e-09
1.82163252117e-09
8.74819608725e-09
3.76162680754e-09
4.65370124382e-10
2.42213823298e-09
8.14525939464e-10
2.79626898136e-09
3.4913206847e-11
4.26962040676e-09
3.41085726267e-09
8.13512495384e-09
2.15251840495e-09
1.06112761421e-08
2.30170547308e-09
5.61780572219e-10
2.87079396407e-09
2.05208453916e-09
3.52531806072e-09
2.15008019941e-09
3.43730845724e-09
2.14947535512e-09
2.9158400363e-09
1.24259082834e-09
3.83658512253e-10
4.51215315604e-09
2.28054675433e-09
5.82616727876e-09
6.11136836305e-09
5.81015992626e-09
8.45833294328e-09
1.03633716854e-08
1.4457097678e-09
6.60742077732e-09
1.98738518678e-09
2.0166266299e-09
8.45550148112e-10
5.8595651124e-09
2.8110703734e-09
7.54888040197e-09
1.15558070074e-09
4.67170229893e-09
1.551243224e-09
3.52049430861e-09
2.52335069872e-09
1.36534790228e-09
7.7557222978e-09
1.02783661466e-08
5.01526599206e-10
4.76709350903e-09
2.38793828444e-09
5.68960699719e-10
2.26597019761e-09
1.9830410741e-09
4.63504239532e-09
1.98549970481e-09
1.30942270412e-09
7.69090142663e-10
4.18523346268e-10
2.59546993338e-10
2.27194836945e-09
2.39245648316e-11
1.55318282852e-10
5.35162231814e-10
1.86425017563e-09
1.12538667387e-09
2.93573771572e-09
2.54055697781e-09
4.63542109964e-09
5.92854658096e-10
1.90560769532e-09
1.38746004971e-09
5.17251791999e-10
1.56051663127e-09
2.1120966911e-09
4.3265605295e-09
3.45315345371e-09
2.21293468435e-09
1.55529550758e-09
6.22082626051e-09
8.95446372104e-10
3.77758044863e-09
4.46866616841e-09
1.56081984928e-10
2.05585499195e-09
1.68733867895e-09
3.74014929674e-09
8.41039589563e-10
3.52320624688e-09
8.69592941689e-10
1.27796656479e-09
2.20793384718e-09
2.64724627133e-09
3.35627692102e-09
3.25722170509e-09
3.67519549535e-09
6.39461860609e-10
7.69057253349e-10
6.67845399786e-10
8.16484558164e-10
1.73957507234e-09
1.12546949894e-09
1.33188290956e-09
3.21301778542e-10
8.06806573362e-10
6.92352217855e-10
8.3881828699e-10
3.34762760003e-10
6.86089007372e-10
2.18046916005e-10
2.9641991063e-09
6.19553579771e-10
1.51794125457e-09
1.4049001835e-09
6.16462280834e-10
1.55312596048e-09
2.6128415937e-09
1.70958019589e-09
2.90243111671e-09
2.60706712118e-09
1.50454685047e-09
4.4083837851e-10
8.10525578692e-10
1.21995371584e-09
1.10545706517e-11
1.83176282763e-10
3.40475355135e-10
4.32462923521e-10
8.11374676626e-10
6.75149693764e-10
2.78775095939e-09
2.37639143397e-09
2.86355860493e-09
3.9435375576e-09
2.31984385332e-09
2.5252454464e-09
8.09222395591e-10
2.48783367622e-09
3.53873102415e-09
1.3528153693e-09
1.65647485913e-09
4.01317821293e-10
4.94172954358e-10
1.62103738537e-09
2.86302173104e-09
2.91926348476e-09
1.45768030845e-09
2.28146710806e-09
1.63600131344e-09
1.57183595425e-09
9.23513417172e-10
1.61330318377e-09
1.4323330069e-09
7.08507691188e-09
1.7420094148e-09
1.42061273646e-09
4.48917479396e-09
2.28415735339e-09
1.25910484987e-09
5.22825618123e-10
7.16150675039e-09
8.57235551807e-09
2.85907011445e-09
5.56892894274e-09
8.34482517953e-10
8.95780532673e-10
1.7995682513e-10
7.95793042395e-10
9.51021271037e-09
7.5550037549e-09
1.15637922888e-08
8.89402153295e-08
7.91809959883e-08
1.82224181681e-08
2.35297131914e-09
1.46991353324e-08
2.98517092894e-09
5.70169574667e-08
1.61702701132e-08
1.39819306936e-08
5.49373802107e-08
6.36184168489e-09
1.60856894299e-08
3.15391361202e-08
1.68183689753e-08
3.89449225015e-08
2.55917211849e-09
2.24673544841e-08
3.15047431571e-08
1.53485550909e-09
7.51853043751e-09
1.26269751795e-08
7.76967846023e-09
3.67948161111e-08
5.54074807374e-09
5.59422965067e-08
2.73598569001e-08
1.39307991252e-09
2.72241194457e-09
6.30930117623e-09
3.10449412189e-09
1.62215583368e-09
4.26500847781e-09
3.73618197599e-09
1.38049475975e-08
2.54435923465e-09
1.72064358502e-09
1.68192800156e-09
3.22145998174e-10
3.68860204331e-09
1.91743151466e-10
8.15677210007e-10
6.71568494884e-09
6.00357527992e-09
5.37107532606e-09
1.83118222307e-09
4.51150833172e-09
7.73783120026e-10
1.51342244888e-08
3.80573970737e-09
3.97645911627e-09
6.09424101795e-10
2.50027544689e-09
4.03711263561e-09
2.31069308289e-09
7.84237948556e-09
6.71087354968e-09
1.23549538681e-08
2.09730834312e-09
5.78152729895e-09
9.45009727544e-10
3.40445497993e-09
2.80680909821e-09
3.20067311257e-09
4.41334912564e-10
6.37830222316e-09
8.52875006481e-09
1.92199415275e-09
1.54061123874e-09
5.21844017821e-09
1.52043778644e-09
5.42131959648e-09
2.44532080131e-09
1.05663614139e-08
2.53824437898e-09
3.71909675615e-10
5.68400083209e-09
2.01044235842e-09
7.10299232542e-10
4.38261295001e-09
1.48446942309e-09
3.89441707338e-09
3.81952530813e-09
3.71541435853e-09
4.92393321005e-09
8.37306285724e-11
3.30225531305e-09
1.23710632609e-09
2.80030472377e-09
6.166707264e-10
1.2724217041e-09
7.90788702608e-10
8.92954159625e-10
3.61423894686e-10
3.63265771673e-09
7.21329360688e-09
1.77289909526e-10
8.61245408096e-09
1.54642587121e-09
2.56398267787e-09
6.24656657405e-09
2.66137210771e-09
4.04803978334e-09
4.31053922546e-09
1.57551700711e-09
6.70028787859e-09
8.23270246889e-09
6.9090309571e-09
2.0541714055e-09
2.88620878506e-09
3.52503035746e-09
1.55158402656e-09
1.15797713898e-08
8.59660824709e-09
6.06502436492e-09
8.11783010042e-10
6.71360763316e-09
2.86176110388e-09
3.97403101919e-09
1.00409225071e-09
6.71071641825e-09
6.1264273431e-10
1.03144345618e-08
2.24576023408e-09
8.64101953136e-09
1.18484227177e-08
1.00330529777e-09
1.26709764219e-08
1.32081037354e-08
4.89217538138e-09
1.89721455821e-08
1.30617072111e-08
5.28295258269e-09
1.70715810197e-09
1.65035166231e-08
4.66061671605e-09
1.35087851455e-10
8.03256762336e-09
5.15639397216e-09
4.9691548742e-09
7.73026289999e-09
6.68248771424e-09
3.77364664971e-10
1.64817931651e-09
2.22600434429e-08
7.90833022091e-09
2.34564057021e-08
9.54816029349e-09
9.77560834213e-09
1.21520111116e-09
9.86571627005e-09
4.65420013084e-09
4.02218854527e-09
5.01651261567e-09
1.55300926495e-08
1.29703885936e-08
3.07995363574e-08
1.39448614872e-08
1.08229878982e-08
1.99730755244e-08
2.42818350775e-08
7.45470298466e-09
1.05488367774e-08
1.98189095205e-09
3.74868830427e-09
1.14973386196e-08
6.26683920233e-09
7.39707148477e-09
6.40195334006e-09
2.03463722715e-09
1.85620883559e-08
1.72107327948e-08
1.50469641183e-08
1.54181123344e-08
4.74697000476e-09
1.02401684717e-09
3.5014502022e-10
8.87001906757e-09
8.52648709177e-10
6.91686237586e-10
1.7371647517e-08
4.0996627053e-09
4.81502124616e-08
3.00050431075e-08
1.65458113955e-08
4.14946319348e-09
1.13414806445e-08
1.23780304476e-08
1.7572989647e-08
1.57059040777e-08
4.05771259332e-09
2.34006086622e-09
1.19215301226e-08
1.03203814247e-08
1.59213520659e-08
3.52435771402e-08
3.32276295769e-09
1.84491640721e-10
1.05796245218e-08
2.94875219312e-09
7.98110889866e-10
1.40007467545e-08
8.7978306962e-09
2.25458111511e-09
1.53256661524e-08
1.48478007087e-08
8.41266008203e-08
1.91325331412e-08
1.03610484938e-08
1.16027545146e-07
1.2785004576e-08
2.65507459371e-08
8.09837842991e-09
1.50412341374e-08
4.69433530439e-09
2.57900060921e-09
7.94663720636e-09
8.17485767398e-09
1.21267730954e-08
9.09599301112e-09
3.90824155508e-08
4.7323155618e-08
4.37579995505e-09
3.86394155495e-09
7.26030408287e-10
1.35685577822e-08
2.07065302114e-08
2.47199383844e-08
5.76128932522e-09
3.42251210174e-08
4.63534311202e-09
5.13137937167e-09
7.25034428769e-09
4.47313979545e-09
9.32075181729e-09
8.48459587405e-09
3.04473551452e-08
1.1971164231e-08
4.04377999852e-09
9.06539575956e-09
4.07221511035e-09
6.88439526631e-10
1.70570575162e-08
3.16197336603e-08
1.55548862624e-08
1.60696239989e-08
5.24560039736e-10
3.99101712049e-09
1.03868884448e-08
3.04505095553e-09
8.73940236476e-09
5.60631080055e-09
9.92980132668e-10
1.07104571078e-09
1.09893888576e-09
1.10952567589e-09
1.08321658674e-10
2.45004238297e-09
7.78261633361e-10
1.97632050414e-09
6.93924789776e-10
4.43194090592e-09
1.79413202882e-09
1.12870079501e-09
4.36346623317e-09
9.49115440808e-10
3.35048354629e-09
1.47126825209e-09
4.11628266296e-11
1.37759440308e-09
8.13155528919e-09
9.43979998315e-09
8.45235020369e-09
1.78394372476e-08
2.80593533583e-09
4.7465186223e-09
2.40089088177e-09
3.21269968617e-09
1.36774485749e-09
1.11271561082e-09
8.5161245102e-10
1.19265388282e-09
1.21608118643e-09
2.40674646466e-09
1.60742199494e-09
4.60061208484e-10
7.21739226294e-10
8.26665734291e-10
2.53246936986e-11
4.64398543764e-10
1.48599658705e-09
8.52292023461e-10
3.05327104737e-10
1.58027333645e-09
5.14325498552e-10
1.91783431743e-09
8.16468805412e-10
1.11659086943e-09
6.73041722198e-11
2.53246065926e-09
1.96965071147e-09
1.48928774455e-09
5.24667614661e-11
2.08529807657e-09
1.26425625051e-09
1.42695779026e-09
3.11644037168e-10
3.5184480601e-10
1.26025552801e-09
3.30472809766e-10
1.54464044761e-09
2.42707363095e-09
1.55976332344e-09
9.47879092736e-10
9.46774966936e-10
4.44298553071e-10
1.07900337394e-09
3.39741405296e-10
1.01351654359e-09
7.01364939624e-10
4.23685032609e-09
1.88340581059e-09
8.59679591708e-10
3.84950944315e-10
7.21462076595e-10
6.60343137984e-10
4.65149723336e-12
2.33163316948e-11
7.48455761715e-10
5.2730098833e-10
1.51944635556e-09
2.18967940169e-09
5.9896319359e-10
1.92926276013e-10
4.40422279843e-09
1.2813061749e-09
8.9887685843e-10
6.54761098128e-10
3.55877365417e-10
1.26554756776e-09
7.12433014663e-10
3.21007203643e-09
1.77998618528e-09
3.09863965251e-09
1.73074161936e-09
3.51497648665e-09
2.88954793968e-09
9.23181469913e-09
5.84694868836e-09
6.16008368466e-09
6.19349044915e-10
9.31204348427e-10
9.69843147456e-09
1.43931543397e-09
2.67294563363e-09
5.6892039767e-09
5.44168692537e-10
5.5718720334e-10
7.72857839185e-10
9.36290543967e-09
2.04509123075e-08
1.26238026602e-08
1.78319260087e-10
2.72563252806e-09
1.11243248472e-09
7.64496025759e-09
1.05250909343e-08
1.56284844447e-08
2.66968477323e-09
1.25499381189e-10
3.73250477411e-09
1.38995950014e-09
5.72031605255e-09
1.78592387149e-08
5.96305830059e-11
1.15269335705e-09
2.00668004789e-09
2.58393799287e-09
7.5586385066e-10
5.55624052603e-09
1.44522433778e-09
6.40105242719e-10
7.8881884644e-10
2.29767706241e-09
8.2761257398e-10
3.38414171475e-12
9.86838983848e-10
3.55215018361e-10
1.53079355691e-09
7.73568475092e-11
1.22165013231e-09
2.13474217033e-10
2.83929072801e-10
1.1567315033e-09
4.31730858203e-10
2.59325509032e-10
2.94298148338e-10
1.18295160735e-10
1.19085102808e-09
3.89962844169e-09
1.96112661583e-09
2.00540425414e-09
1.0527217118e-09
3.76867096938e-09
1.11555399694e-10
2.56002399759e-10
1.79973051938e-09
1.21265819506e-09
7.7970107759e-10
1.76555494924e-09
2.05493006893e-09
1.52952371645e-09
2.26152110007e-10
9.59952771274e-10
1.74890600651e-09
2.74902862649e-09
2.57309011328e-09
1.34836858536e-09
2.77475026401e-10
1.31788490187e-09
5.27419048154e-10
1.05439757424e-09
1.18116172297e-09
1.58852681353e-10
1.03767736365e-09
1.18937888455e-10
1.52322291369e-09
1.07126731399e-09
6.34127840653e-10
1.77078428745e-09
3.6269205819e-11
3.28172207201e-10
1.41347098402e-09
9.5098502431e-10
1.21523632987e-09
3.03835764217e-10
1.9028661986e-09
1.05412647248e-09
7.89126159092e-12
6.87650211603e-10
3.12800211038e-09
2.06196219358e-09
1.91170501629e-09
1.73861279536e-09
1.77487192137e-09
4.29426075077e-10
1.03144479942e-10
4.40137527987e-09
2.41687314222e-09
3.20694024341e-09
1.24659906512e-09
1.95653138733e-09
2.47616664159e-09
2.2850057441e-10
2.47362347389e-09
4.9851463324e-09
2.15841111704e-10
4.73144962508e-10
7.58114780697e-10
6.85514617867e-10
7.31786832709e-10
6.4098605796e-10
2.25761357094e-09
3.94860227238e-09
1.00691624717e-09
1.95838229891e-09
2.91745310481e-10
1.35074453739e-09
9.79589566285e-10
1.49420772215e-09
1.63991982652e-10
3.95498455086e-10
7.36412537336e-11
7.30627077132e-10
2.86797862068e-09
5.13514023805e-09
3.62158490575e-10
1.95210735066e-09
1.90953579546e-10
3.97811833201e-09
2.15123018908e-09
2.76504932198e-10
1.04896842925e-09
6.58371013524e-09
1.05742653556e-08
7.49453258599e-09
8.22985006648e-10
4.26439897691e-09
1.94603356967e-09
9.00572234019e-09
9.17079103343e-10
1.00949687913e-08
1.55388380598e-08
1.37559682511e-09
6.05947713418e-09
3.7391215458e-09
2.68678060851e-09
5.12465215731e-09
1.2655377035e-09
3.18005297737e-09
1.27878924627e-08
7.06485357285e-09
3.71451860191e-08
1.14337581816e-08
1.46694133691e-08
1.21646216969e-08
9.37990552668e-09
1.02903681021e-09
1.88079634648e-08
1.4070030756e-09
1.58706677472e-08
1.35231957914e-08
2.49948264452e-08
5.69790369578e-08
3.92640717966e-08
9.1173789869e-08
6.32457159344e-10
2.25822071288e-09
2.78570445566e-09
3.61003582605e-09
9.31077369787e-10
5.25662229303e-10
2.3964235095e-09
9.67717259213e-10
2.5857830391e-09
7.97442913672e-10
4.30210638094e-10
1.46560464094e-09
1.27359212382e-09
5.07845059158e-10
4.53014596559e-10
9.29262279077e-10
3.45306166495e-10
8.21870905428e-10
1.83730638377e-09
1.45520633525e-09
4.69293965194e-09
8.43992121511e-10
2.26908981942e-09
7.57118536965e-10
2.75967410121e-09
5.23460335303e-09
9.04105440098e-10
6.51053750321e-09
7.63661565763e-10
4.04318002915e-09
6.54429062619e-09
6.41064225795e-09
1.22933181256e-09
5.14913828765e-09
4.09241622354e-11
6.74623220897e-09
3.49466307476e-09
1.22296661703e-08
6.28803760662e-09
7.15700412818e-10
4.40328166983e-09
6.6356596025e-09
9.2618616209e-09
7.48608175636e-09
2.23223074209e-08
1.75212642847e-08
7.45416712897e-09
2.72178256937e-08
1.81782823981e-08
1.10283768117e-09
2.7171034855e-08
4.12259040143e-08
1.26394881e-08
2.9478259664e-08
1.04604700996e-08
5.25659733333e-08
7.76344350407e-09
8.92799352886e-09
5.87662542278e-08
4.48707332334e-08
3.20942074795e-08
5.4672014932e-08
6.92439367476e-09
3.10357572457e-08
4.0384263176e-08
4.80755147566e-08
3.98541643789e-09
3.14170218096e-08
2.81517108051e-08
3.92411114895e-08
2.40393960984e-08
2.19279340128e-08
4.86816582148e-08
1.45514132262e-08
2.60458937858e-08
6.15363009432e-09
1.58581484956e-08
1.39458225887e-08
6.21859333661e-09
1.31094194499e-08
1.82588756273e-08
5.4727380564e-09
3.45454447222e-09
6.86355091834e-09
5.20244423792e-09
7.07251035894e-09
6.14543840164e-09
6.62256587403e-09
1.14369496898e-09
7.10111894153e-09
6.24280237779e-09
8.56551746311e-09
1.49606099639e-09
1.56925178254e-09
4.76166843179e-10
2.7277312209e-09
4.54331969501e-09
7.32462072704e-10
7.81062406642e-09
4.61379520057e-09
3.23754953927e-09
1.51040552174e-09
6.56792875595e-09
1.17965061945e-08
4.4908249101e-09
1.11813466484e-08
3.77730088681e-08
2.17848931445e-08
3.38821954807e-08
1.39129457081e-08
2.764851117e-08
1.20712203583e-08
4.88534526176e-09
4.98896980359e-09
8.17284476467e-10
3.35237225074e-09
6.73887158508e-10
2.98246961107e-09
2.59402592628e-09
2.35314588927e-10
1.29018564429e-08
4.85077251065e-10
1.57531934235e-08
1.13604754608e-08
2.12479043177e-09
5.97887281721e-09
2.707520505e-09
4.34453421002e-09
7.82045477876e-10
3.67224608113e-09
2.29521138512e-09
5.01475387162e-10
2.16149542929e-09
4.68077733349e-10
2.49488052127e-09
2.52551506415e-09
8.4031002491e-09
7.86491659102e-09
5.00322091147e-09
8.89613965941e-09
4.58145848271e-09
2.10728202426e-09
3.63888909508e-09
1.17091935102e-09
2.5166675443e-09
1.90855317327e-09
2.02047713761e-09
2.21820819047e-09
2.7339351261e-09
2.26510808841e-11
4.53092892184e-09
2.67753686945e-09
3.65286889424e-09
8.33256947334e-09
1.33748149441e-09
2.84024126412e-09
3.0599797066e-10
3.84353054199e-09
5.43879766936e-10
2.90199532455e-09
4.55427538086e-09
2.86873820104e-09
1.0315400319e-08
3.69784900093e-09
9.58530254002e-09
1.21620155769e-08
6.14367919816e-09
1.17894971192e-08
4.34780335963e-09
2.99547143916e-09
2.27487680338e-09
4.80920368554e-10
4.89375554274e-09
1.33506472607e-09
9.87334926515e-10
3.54150612067e-09
5.40984102499e-10
8.27237950766e-10
3.04143599857e-09
1.05100095131e-08
1.75834379541e-09
5.27323942088e-09
4.41940285117e-09
3.8735807899e-09
6.12644165873e-09
1.6848403618e-09
1.3665698353e-09
3.40519490192e-09
3.45482151128e-09
8.66350831985e-10
4.09417372581e-09
1.45422746009e-08
3.52365134479e-09
1.1651236179e-08
3.6325602488e-09
2.09244670759e-09
2.64253828178e-08
3.49043325167e-09
2.59085817244e-08
3.72677102939e-08
1.84663735208e-08
1.86951299319e-08
2.2194305197e-09
1.65674662225e-08
2.05510676006e-10
2.02313154736e-09
7.25565175555e-11
2.21685521053e-09
7.92548016266e-10
3.10625948361e-09
6.98245607573e-09
1.22834240896e-09
2.08523073613e-08
1.28990395197e-08
2.71588280381e-08
1.37067537581e-08
9.03681002028e-09
1.57402814083e-08
1.71116456996e-09
4.97084673872e-09
3.06749750712e-09
2.10604930276e-09
4.93143611899e-09
1.013565607e-09
7.14699334507e-09
8.77973196049e-09
6.31798262574e-09
5.2681445018e-11
2.229916878e-08
1.76176602594e-08
1.61663098885e-08
1.11470238166e-09
5.51075548395e-09
6.84934428436e-09
6.3556076707e-11
4.31931778054e-09
2.94193599523e-09
2.03356181394e-09
9.02911726125e-09
8.35940132377e-09
1.20694104828e-08
1.37287450491e-08
1.0652737711e-09
8.58857430534e-10
1.69584412701e-08
7.76433338335e-10
5.32404221397e-09
9.18292718317e-09
3.40081086684e-08
4.16715070247e-08
1.30050812897e-08
2.18033823566e-08
3.90367014498e-09
2.18677947706e-09
8.08622160346e-10
2.69207001807e-09
3.23104809075e-08
2.98617020114e-08
2.61657399477e-08
1.95969190745e-08
9.30265217552e-10
3.30793487356e-09
5.19391567821e-10
8.61245188739e-09
1.23340474412e-08
5.20058373235e-09
5.91868301906e-09
5.88010704888e-09
2.26906248977e-09
4.43024043802e-10
1.73841998198e-09
1.75435564976e-09
3.91788045167e-09
4.30204523239e-09
3.0546754083e-10
6.47383424402e-09
5.95323021777e-09
1.09942974001e-09
6.84118109299e-10
6.91792258327e-09
1.95004130281e-08
1.64500405188e-08
6.69278457939e-09
3.59667964176e-09
2.36782323631e-09
4.35509568258e-09
1.98536728482e-09
6.57960399128e-10
1.47087455498e-08
1.81309956626e-08
1.44331873265e-09
6.9420818322e-09
3.65251109149e-09
1.53449846958e-09
3.82284239084e-09
2.00499358179e-09
1.07055700464e-08
1.17538508708e-08
4.18867964813e-09
4.75340506255e-09
9.36321400588e-10
3.6486509137e-09
1.79614489793e-09
8.91233867624e-09
3.14946866339e-09
7.22721851609e-09
4.76047965943e-10
3.38104970406e-09
2.46113579048e-10
1.26260124667e-09
3.68202686597e-09
8.47532557813e-10
2.19632900333e-09
5.62590530823e-09
1.60166697537e-09
5.27129973466e-09
6.72610035461e-10
1.2340564995e-09
1.64848359468e-09
5.53844366399e-09
8.58243548839e-11
3.80480579135e-09
1.49110878651e-09
2.65591591881e-09
8.53631400194e-12
1.03939031714e-09
6.86062693587e-09
5.15390892623e-11
4.82119791598e-09
9.237800451e-09
8.93902082708e-09
1.6166944307e-09
1.55437704898e-10
4.56762634342e-09
5.91545412519e-09
7.93211874763e-09
1.08135858152e-08
2.99510002445e-09
5.85577773314e-09
2.75444599148e-09
1.82424766796e-10
1.78052792897e-09
1.35620058041e-08
4.84991287735e-10
9.1345264423e-09
1.10361972844e-08
8.02048402748e-09
1.36023857779e-08
4.74361281453e-09
8.70609154098e-09
5.99843290291e-09
1.20910642537e-08
1.04113517509e-08
1.18423591244e-08
3.15386064279e-09
9.58761714528e-10
1.80811778018e-09