# vtk DataFile Version 3.0
File Name: Molecule/sphere_cent/sphere_cent_0-s3.vtk
ASCII
DATASET UNSTRUCTURED_GRID
FIELD FieldData 1
TIME 1 1 double
0.0
POINTS 101 double
0.00027063710149 0.85069590807 0.52565556765
-0.50900924206 0.79242396355 0.33293759823
-0.3324791491 0.50849235058 0.79195028543
-0.79537731409 0.31650483608 0.51234138012
-0.52559125423 0.0001172677803 0.85075062513
-0.29944494367 -0.48577001691 0.81879645586
0.00032393838046 -0.029067050666 0.99750053883
0.30902960896 -0.50082206726 0.80836540461
0.52548831701 0.000758954091 0.85079044104
0.80857664347 -0.30941650271 0.50030505657
0.51234996319 -0.79588907957 0.31743103266
0.85062742233 -0.52573019266 -0.0007954952307
0.99873971939 -0.00020828975539 0.030206542462
0.82290196419 0.28390881419 0.49039465189
0.85052722692 0.5259270072 -0.00016566933482
0.80887907743 -0.3089672029 -0.49994191527
0.95184069872 -0.16003294289 -0.26183366776
0.85193926096 2.6384208468e-05 -0.52388674021
0.95180100203 0.16034919024 -0.26173609495
0.80890208483 0.30895453691 -0.49991965294
0.52573102713 -6.6034225199e-08 -0.85065078735
0.68695396185 0.587882936 -0.42742234468
0.4999152422 0.80889928341 -0.30897396803
0.58782279491 0.42725926638 -0.68714058399
0.42730820179 0.68709206581 -0.5878418684
0.30894011259 0.49991983175 -0.80891352892
4.1021994548e-05 0.85065746307 -0.52571898699
0.52370977402 0.8520154357 -4.5348813728e-05
0.49994587898 0.80887228251 0.30897760391
0.26408869028 0.95117771626 -0.16051658988
0.26415607333 0.95113313198 0.16050128639
-5.7840294176e-05 0.99984765053 -7.4396352829e-06
-0.26521828771 0.9504300952 0.16241633892
-0.26498585939 0.95069110394 -0.16177949309
-0.5249106288 0.85121876001 0.00035059824586
-0.50366258621 0.8022685647 -0.32011529803
-0.84300941229 0.53334367275 -0.012717287056
-0.0022251703776 0.52467089891 0.85138690472
0.30892884731 0.49993288517 0.80888128281
-0.16197822988 0.26320320368 0.95103317499
0.15996524692 0.26189303398 0.95179718733
0.30897021294 -0.49992254376 -0.80890089273
0.16056467593 -0.26408189535 -0.95117801428
-1.0012980056e-05 1.6442423885e-06 -0.9998524785
-0.0015232851729 -0.52422559261 -0.85169309378
-0.16179169714 -0.26495501399 -0.95068877935
-0.31981185079 -0.5041616559 -0.80197584629
0.00022092350991 -0.85049080849 -0.52598834038
-0.52572286129 -5.2588575272e-06 -0.8506552577
0.68865323067 0.58604997396 0.42714726925
0.42744117975 0.68698865175 0.58782660961
0.58971619606 0.42586347461 0.68627542257
-0.80082947016 -0.31913676858 -0.50618481636
-0.85123944283 1.1199710571e-05 -0.5248478055
-0.80185198784 0.31998440623 -0.50435054302
-0.95105206966 -0.15990154445 -0.26454988122
-0.95111936331 0.16184028983 -0.263048172
-0.99986952543 0.00022611457098 0.015043787658
0.58786088228 -0.42729559541 -0.68709272146
0.68642359972 -0.58904498816 -0.42656463385
0.42731738091 -0.68805080652 -0.58666449785
0.49559357762 -0.81553041935 -0.2980081439
0.16056454182 0.2640838325 -0.95117795467
-0.16172747314 0.26502105594 -0.9506867528
-0.0014257825678 0.52441167831 -0.85157501698
-0.31942486763 0.5040050745 -0.80223816633
-0.86268341541 0.43474024534 0.25780284405
-0.15974952281 -0.70355302095 0.69234925508
0.0018243809463 -0.84913396835 0.52774965763
0.25786784291 -0.86293697357 0.43438220024
-0.43321588635 0.68301635981 -0.58818858862
-0.58726716042 0.43379700184 -0.68343597651
-0.68217486143 0.58820188046 -0.43448331952
-0.85139024258 -0.52424824238 -0.0011649265653
-0.70348286629 -0.6926471591 -0.15912915766
-0.70411062241 -0.69204390049 0.15883304179
-0.52290302515 -0.85242623091 0.00016399288143
-0.49755686522 -0.81004369259 -0.30940797925
-0.50000745058 -0.80900174379 0.30900365114
-0.26329478621 -0.95119875669 -0.16140112281
-0.26447179914 -0.9511102438 0.1597827673
-0.00038429489359 -0.99975752831 -0.0023471238092
-0.25711590052 -0.86297780275 0.43486753106
-0.00013548240531 -0.96123218536 0.27572697401
-0.86282044649 -0.43480247259 0.25780242682
-0.68649429083 -0.5878148675 0.42805182934
-0.80773460865 -0.30764046311 0.50254112482
-0.4278742373 -0.68619370461 0.58827012777
-0.58707123995 -0.42624104023 0.68826597929
-0.85085403919 0.00062821328174 0.5254355073
-0.94852042198 0.15959730744 0.27320531011
-0.94878667593 -0.15973719954 0.27261248231
-0.96206367016 0.27275505662 0.015306465328
-0.96111387014 -0.27587720752 0.0077353082597
-0.58754527569 -0.43408173323 -0.68304133415
-0.43175828457 -0.68903839588 -0.58219236135
-0.6809052825 -0.5937153697 -0.42896723747
-0.85890501738 -0.44118508697 -0.25995188951
0.26042851806 -0.95314007998 -0.15457324684
0.52140569687 -0.85332554579 0.0073479502462
0.26479622722 -0.95091563463 0.16033560038

CELLS 198 792
3 0 1 2
3 1 3 2
3 2 3 4
3 4 5 6
3 5 7 6
3 6 7 8
3 8 7 9
3 7 10 9
3 9 10 11
3 11 12 9
3 12 13 9
3 12 14 13
3 9 13 8
3 15 16 11
3 11 16 12
3 15 17 16
3 17 18 16
3 17 19 18
3 16 18 12
3 19 17 20
3 20 17 15
3 12 18 14
3 18 19 14
3 19 21 14
3 14 21 22
3 19 23 21
3 23 24 21
3 23 25 24
3 21 24 22
3 25 23 20
3 20 23 19
3 22 24 26
3 24 25 26
3 22 27 14
3 14 27 28
3 22 29 27
3 29 30 27
3 29 31 30
3 27 30 28
3 31 29 26
3 26 29 22
3 28 30 0
3 30 31 0
3 31 32 0
3 0 32 1
3 31 33 32
3 33 34 32
3 33 35 34
3 32 34 1
3 35 33 26
3 26 33 31
3 1 34 36
3 34 35 36
3 2 37 0
3 0 37 38
3 2 39 37
3 39 40 37
3 39 6 40
3 37 40 38
3 6 39 4
3 4 39 2
3 38 40 8
3 40 6 8
3 41 42 20
3 20 42 43
3 41 44 42
3 44 45 42
3 44 46 45
3 42 45 43
3 46 44 47
3 47 44 41
3 43 45 48
3 45 46 48
3 28 49 14
3 14 49 13
3 28 50 49
3 50 51 49
3 50 38 51
3 49 51 13
3 38 50 0
3 0 50 28
3 13 51 8
3 51 38 8
3 52 53 48
3 48 53 54
3 52 55 53
3 55 56 53
3 55 57 56
3 53 56 54
3 54 56 36
3 15 58 20
3 20 58 41
3 15 59 58
3 59 60 58
3 59 61 60
3 58 60 41
3 61 59 11
3 11 59 15
3 41 60 47
3 60 61 47
3 43 62 20
3 20 62 25
3 43 63 62
3 63 64 62
3 63 65 64
3 62 64 25
3 65 63 48
3 48 63 43
3 25 64 26
3 64 65 26
3 36 66 1
3 1 66 3
3 5 67 7
3 67 68 7
3 68 69 7
3 7 69 10
3 65 70 26
3 26 70 35
3 65 71 70
3 71 72 70
3 71 54 72
3 70 72 35
3 54 71 48
3 48 71 65
3 35 72 36
3 72 54 36
3 73 74 75
3 74 76 75
3 74 77 76
3 75 76 78
3 77 79 76
3 79 80 76
3 79 81 80
3 76 80 78
3 81 79 47
3 47 79 77
3 78 80 82
3 80 83 82
3 80 81 83
3 82 83 68
3 73 75 84
3 75 85 84
3 75 78 85
3 84 85 86
3 78 87 85
3 87 88 85
3 87 5 88
3 85 88 86
3 78 82 87
3 82 67 87
3 82 68 67
3 87 67 5
3 86 88 4
3 88 5 4
3 3 89 4
3 4 89 86
3 3 90 89
3 90 91 89
3 90 57 91
3 89 91 86
3 3 66 90
3 66 92 90
3 66 36 92
3 90 92 57
3 86 91 84
3 91 93 84
3 91 57 93
3 84 93 73
3 46 94 48
3 48 94 52
3 46 95 94
3 95 96 94
3 95 77 96
3 94 96 52
3 77 95 47
3 47 95 46
3 52 96 97
3 96 74 97
3 96 77 74
3 97 74 73
3 61 98 47
3 47 98 81
3 61 99 98
3 99 100 98
3 99 10 100
3 98 100 81
3 10 99 11
3 11 99 61
3 81 100 83
3 100 69 83
3 100 10 69
3 83 69 68
3 73 93 97
3 55 93 57
3 52 97 55
3 55 97 93
3 57 92 56
3 56 92 36

CELL_TYPES 198
5
5
5
5
5
5
5
5
5
5
5
5
5
5
5
5
5
5
5
5
5
5
5
5
5
5
5
5
5
5
5
5
5
5
5
5
5
5
5
5
5
5
5
5
5
5
5
5
5
5
5
5
5
5
5
5
5
5
5
5
5
5
5
5
5
5
5
5
5
5
5
5
5
5
5
5
5
5
5
5
5
5
5
5
5
5
5
5
5
5
5
5
5
5
5
5
5
5
5
5
5
5
5
5
5
5
5
5
5
5
5
5
5
5
5
5
5
5
5
5
5
5
5
5
5
5
5
5
5
5
5
5
5
5
5
5
5
5
5
5
5
5
5
5
5
5
5
5
5
5
5
5
5
5
5
5
5
5
5
5
5
5
5
5
5
5
5
5
5
5
5
5
5
5
5
5
5
5
5
5
5
5
5
5
5
5
5
5
5
5
5
5
5
5
5
5
5
5

CELL_DATA 198
SCALARS cell_data_0 double
LOOKUP_TABLE default
3.94647934892e-06
6.58316904398e-06
4.14808077943e-06
4.13080120538e-06
6.36182580308e-06
2.87628282409e-06
2.64683065734e-06
7.08649314746e-06
3.93621242243e-06
2.85677208632e-06
6.3498548934e-06
3.34793246562e-06
4.98211972002e-06
3.14229967061e-07
5.23743316735e-07
1.21280241315e-06
2.1991638536e-07
1.24473571018e-06
9.173962192e-07
1.37459458673e-06
1.3407615933e-06
4.27257754573e-07
2.17752910196e-07
2.31417754944e-07
4.08973535362e-07
1.23730418129e-06
9.99269653183e-07
1.2005131509e-06
1.30980099955e-06
2.93364453124e-08
1.36155032616e-06
1.12900820667e-06
4.55201523483e-07
8.30520837856e-07
3.24004742839e-07
1.2083445016e-06
5.9240103968e-07
7.5545204607e-08
9.96949815348e-07
9.05363467809e-07
2.85418684215e-07
6.44570459078e-07
7.8737585934e-07
9.28704930989e-07
1.67083247577e-07
2.68249180187e-07
1.03945832058e-07
1.22922994331e-06
4.73421569252e-07
9.09871459973e-07
4.47777349098e-07
9.12570270781e-08
9.01920403451e-07
4.0868050886e-08
1.87551970904e-07
4.55661421882e-07
3.17263730058e-07
1.89194071592e-07
6.03869602757e-07
6.85770369896e-07
6.735839268e-07
6.45326336091e-07
5.70854585197e-07
2.69468462651e-07
2.51689295463e-07
2.49308542794e-07
2.68577369241e-08
5.10021286666e-07
2.88837274548e-07
3.10001374108e-07
7.80897161008e-07
6.17087824476e-07
1.55900287665e-07
9.03015534227e-07
9.23297676402e-07
5.45620599677e-07
2.3583926884e-07
5.24545780272e-07
7.21354109644e-08
1.79307723837e-07
1.55457862276e-07
7.81452232709e-07
7.69854134606e-07
6.86336487982e-07
7.81492344164e-07
1.54258799727e-08
2.04755371912e-07
4.65958352357e-07
4.40229879464e-07
3.32894793381e-07
6.82224102159e-07
4.61039354708e-07
7.70238983612e-07
5.61584939671e-08
5.92907717884e-07
2.76015239707e-07
4.29183494149e-07
2.63182428453e-07
5.39905892653e-07
8.64183115458e-08
3.72604137502e-07
4.8492983409e-07
1.63186433159e-07
1.71878276722e-07
7.73309879686e-07
9.6028601704e-08
3.06820407312e-07
6.92670187757e-07
8.02196378519e-07
3.09294793419e-07
2.00574802585e-07
1.27528600734e-06
8.41036475578e-07
3.0438959463e-07
3.02683348455e-07
7.55645080901e-07
3.74709945258e-07
5.48084843795e-07
8.73997238509e-07
1.46579818843e-07
4.11938750546e-07
1.17802266249e-06
7.57560591522e-07
3.21942449459e-07
1.12860950017e-06
1.66599819005e-07
7.0526942728e-07
7.47102620565e-08
5.70338462141e-09
3.93079437166e-07
1.27809954377e-07
5.88209234835e-09
2.74886817988e-08
1.49094862923e-07
7.07081118139e-07
5.65959644337e-07
2.48841890969e-07
1.65834861417e-07
1.79409895054e-07
4.88463130104e-07
6.696442165e-07
2.56634190424e-07
6.0826706126e-07
1.89459047639e-07
3.19207455154e-07
3.36274494633e-08
1.3787544571e-07
1.72281455893e-07
1.8071188597e-07
1.65890118754e-07
6.88481407293e-07
3.44194102707e-07
8.44112626649e-07
4.42318967319e-08
6.62880420696e-08
8.57276541953e-07
1.60910418067e-07
2.20663802094e-07
8.47832012078e-08
2.27107249193e-08
3.53609649945e-07
1.68630169901e-07
8.90840233779e-07
1.2451155889e-07
7.18944067762e-09
4.65478362923e-09
3.23975330543e-07
6.23066320946e-07
9.86883097621e-08
5.67654818016e-07
6.39921289549e-07
7.69381150854e-08
2.49617736012e-08
4.36426091648e-08
7.99327438932e-07
1.8445885111e-07
3.7275361784e-08
7.15921608601e-08
5.69982798581e-08
6.29174927265e-07
1.68710848489e-07
8.92289764918e-07
5.22296007725e-07
2.36692937787e-07
1.02158001005e-07
1.71830780019e-07
1.62623599511e-07
4.43379626821e-07
2.86815408732e-07
2.07138539737e-07
3.17696990405e-07
6.88512438691e-07
5.65581457452e-07
2.92652446841e-07
6.81584539988e-11
9.17088572158e-08
5.00054398466e-07
6.66236217793e-07

