# vtk DataFile Version 3.0
File Name: Molecule/sphere/sphere_0-s1.vtk
ASCII
DATASET UNSTRUCTURED_GRID
FIELD FieldData 1
TIME 1 1 double
0.0
POINTS 17 double
0.850650808352 -0.525731112119 0.0
0.525731112119 0.0 -0.850650808352
0.850650808352 0.525731112119 0.0
0.0 0.850650808352 -0.525731112119
0.0 0.850650808352 0.525731112119
-0.850650808352 0.525731112119 0.0
-0.525731112119 0.0 0.850650808352
0.525731112119 0.0 0.850650808352
0.0 -0.850650808352 0.525731112119
-0.525731112119 0.0 -0.850650808352
-0.850650808352 -0.525731112119 0.0
0.0 -0.850650808352 -0.525731112119
0.26286555606 0.425325404176 -0.688190960236
0.26286555606 -0.425325404176 -0.688190960236
0.0 0.0 -0.850650808352
-0.26286555606 -0.425325404176 -0.688190960236
-0.26286555606 0.425325404176 -0.688190960236

CELLS 30 120
3 0 1 2
3 2 3 4
3 4 3 5
3 4 5 6
3 4 6 7
3 6 8 7
3 7 8 0
3 0 2 7
3 2 4 7
3 9 10 5
3 10 11 8
3 10 8 6
3 6 5 10
3 11 0 8
3 1 12 2
3 2 12 3
3 1 13 14
3 13 15 14
3 13 11 15
3 14 15 9
3 3 16 5
3 16 9 5
3 9 15 10
3 15 11 10
3 11 13 0
3 1 13 0
3 1 14 12
3 14 16 12
3 14 9 16
3 12 16 3

CELL_TYPES 30
5
5
5
5
5
5
5
5
5
5
5
5
5
5
5
5
5
5
5
5
5
5
5
5
5
5
5
5
5
5

CELL_DATA 30
SCALARS cell_data_0 double
LOOKUP_TABLE default
0.00144409906229
1.69799068438e-05
7.12097363123e-05
0.000208913035306
0.000518535634958
0.000190678425655
0.000135794960924
2.96510830876e-05
0.00019853434971
0.00105997414959
2.5037284564e-08
0.000133240098627
2.66784855999e-05
4.35482029798e-05
0.000793231930462
3.81656665655e-05
0.000293952890041
1.96764836473e-07
4.02474454035e-06
0.000303897882378
5.88037673372e-06
0.000606397516394
0.000573603424424
3.7680065107e-06
6.61774064263e-06
0.000609016324496
0.000303470293325
8.97624380224e-07
0.000304051517432
5.31145153346e-07

