# vtk DataFile Version 3.0
File Name: Molecule/arg/arg_0.5-1.vtk
ASCII
DATASET UNSTRUCTURED_GRID
FIELD FieldData 1
TIME 1 1 double
0.0
POINTS 146 double
-3.4007177353 0.26974719763 1.363363266
-2.9727339745 0.0077520143241 0.49468523264
-2.9240708351 -0.48893162608 1.6008582115
-2.4122288227 -0.89640140533 0.54280352592
-2.9894797802 0.1359706223 -0.032554943115
-2.5965776443 -0.54347473383 0.1256672591
-2.2134149075 -0.45510968566 -0.92005801201
-2.3055653572 -0.4066722393 -0.48580217361
-2.4132125378 -0.17268773913 -1.1501264572
-2.2916665077 1.1277577877 -1.481924057
-2.8349401951 1.6766184568 -0.40518307686
-2.3908426762 1.9941948652 -0.73452198505
-1.951026082 1.4763222933 -1.5086559057
-1.7661377192 1.8883830309 -1.1500185728
-2.480612278 2.618062973 0.53590291739
-1.7284095287 2.4957318306 -0.58401751518
-1.3885917664 3.1766278744 0.15266644955
-3.1489815712 2.3337492943 1.4824244976
-1.8574889898 3.3287374973 1.4597420692
-2.4395232201 3.0705456734 2.2742798328
-2.9133293629 2.0751075745 2.6944644451
-2.6904346943 2.5432052612 2.4270355701
-3.4144098759 1.7421909571 1.8647630215
-3.0767073631 1.7220140696 3.1034998894
-3.1246190071 0.70412886143 2.9953145981
-3.4022984505 0.67345041037 1.8860316277
-3.0603003502 0.40495973825 2.2852649689
-3.1303429604 0.13132169843 1.8245754242
-2.9682610035 0.26494315267 2.9926002026
-2.8766188622 0.025283962488 2.3215463161
-2.9390423298 -0.17316004634 1.9709112644
-2.496666193 -0.7087033987 2.4778532982
-2.5422155857 -0.00093749538064 3.502368927
-1.6637402773 -1.6362472773 1.2852628231
-1.9147994518 -1.2223556042 3.3903768063
-0.93208521605 -2.2715222836 2.0575845242
-0.94120383263 -2.2255859375 0.2385661155
-1.9681553841 -1.2538784742 -0.28951919079
-2.0429868698 -0.77334225178 -0.83320206404
-1.9302192926 -1.2445399761 -1.0835161209
-2.0997936726 -0.68391346931 -1.1644496918
-1.7803094387 -0.7763954401 -1.9921028614
-2.241890192 -0.4395404458 -1.0921071768
-2.1734306812 -0.46774247289 -1.8256266117
-1.5921452045 -1.5150420666 -1.5869779587
-1.5504794121 0.12307683378 -2.6949107647
-2.0202782154 0.24144649506 -2.3512561321
-1.9213885069 0.98704040051 -2.3087961674
-1.3030275106 1.4402400255 -2.7710599899
-1.7248548269 1.3658950329 -2.1364467144
-1.1374275684 2.0623166561 -2.171069622
-1.5163189173 1.8234504461 -1.6863105297
-1.3257799149 2.5051751137 -1.2883093357
-0.47132974863 2.5428750515 -2.3950147629
-0.77312523127 3.0140964985 -1.3177554607
0.79782372713 2.7216813564 -1.7494580746
0.68818974495 3.3856213093 -2.7880928516
-0.10298326612 3.3635520935 -2.8119826317
0.38167637587 3.184129715 -0.7065243125
1.0882776976 2.5512793064 -0.45968216658
1.5504182577 2.0070471764 -1.1510320902
0.87356990576 2.7471561432 0.35567170382
1.5310411453 1.9165887833 0.12296283245
1.2123427391 2.2054934502 1.0821912289
0.34951555729 3.1107749939 0.85937613249
0.62743037939 2.7502713203 2.2923641205
-0.17124906182 3.2861025333 2.0670876503
-0.70612311363 3.2791266441 3.4848976135
0.092064902186 2.6231629848 3.9857194424
-0.64464354515 2.7289614677 3.9529621601
-1.8676749468 2.7511539459 3.7877104282
-1.9853647947 3.2315664291 3.3277206421
-2.2311842442 2.6392486095 3.6269061565
-0.53075265884 1.750655055 4.5666356087
-1.1141160727 2.0786914825 4.2858662605
-1.5417592525 1.6661260128 4.5545034409
-2.373352766 2.206854105 4.0536270142
-0.36115673184 1.012381196 4.724460125
-1.292165041 1.0732254982 4.7079648972
-0.51397544146 0.11676701158 4.8438334465
-1.6732742786 0.66083478928 4.625222683
-0.95960563421 -0.42136359215 4.7187013626
0.084896937013 -1.2375831604 5.0574512482
0.41895598173 -0.53516787291 5.1265287399
0.86664319038 -2.4259512424 3.9360926151
1.2106052637 -0.8032566905 5.2524986267
1.9289909601 -2.0291588306 4.0457286835
0.95727789402 -1.8815823793 2.2115447521
1.9177405834 -1.5024716854 2.3023462296
0.98868751526 -1.8736097813 0.58407902718
1.4931966066 -1.1338957548 0.31797853112
2.3502569199 -0.61947929859 1.9364404678
1.7025980949 -0.096280001104 0.80788910389
1.844946146 0.21894285083 -0.12504133582
1.6113783121 -0.74411183596 -0.69718414545
1.6494619846 -1.3426812887 -2.7250311375
2.1839122772 -0.18803834915 -1.5283129215
1.126475811 -1.9706383944 -1.8007317781
-0.4864551127 -1.500411272 -2.48965168
0.21645665169 -0.77846640348 -3.4549868107
-0.93744397163 -1.2267508507 -2.4481937885
-0.41963261366 -0.71978640556 -3.0713067055
-0.61322617531 -0.27764964104 -3.1932551861
-1.0544210672 -0.63132488728 -2.6409571171
-1.0099077225 0.55393201113 -3.3110134602
-0.04078084603 0.63021451235 -4.0027723312
0.61395382881 0.39487498999 -4.2396063805
-0.44801607728 1.9037271738 -3.5520823002
0.35432225466 1.3384307623 -4.3918766975
0.13646888733 2.0659162998 -4.1111645699
-0.018547914922 3.011507988 -3.6359367371
0.90827101469 3.0684287548 -3.7116055489
0.94021588564 2.1711149216 -4.0780129433
1.0380461216 3.2205147743 -2.906059742
1.6153748035 2.5652091503 -3.3098702431
1.6791739464 2.6704964638 -2.5324275494
1.2072901726 2.565489769 -2.1115965843
2.0643210411 1.715503335 -1.9764243364
2.1930861473 2.15411973 -2.5522282124
2.4117276669 1.2718931437 -2.3791582584
2.2112989426 0.67676228285 -1.7172164917
2.0147745609 0.95760011673 -1.2306872606
1.9623352289 0.97206586599 -0.012349702418
1.8971260786 2.0818493366 -3.4145133495
1.8556818962 1.2225769758 -3.8061420918
1.1752713919 1.6927695274 -4.1753640175
1.9314599037 1.3248314857 1.2776527405
2.5577819347 0.85356277227 2.7369623184
1.7622247934 1.5874847174 2.4246678352
1.232393384 2.3061218262 2.1639580727
1.4307534695 0.76011538506 5.037355423
0.64046519995 1.5616791248 4.6431674957
0.67554402351 0.88737040758 4.9467921257
-0.033583521843 0.4368416667 4.9257116318
-3.9275581837 1.1960674524 0.76886868477
-1.7670171261 3.8458483219 2.5332117081
-2.6327798367 1.5099375248 4.4359478951
-1.1567461491 -1.9145576954 4.6352624893
0.74109721184 -2.6044986248 -0.88125932217
3.621607542 -0.41526329517 3.6263639927
2.789949894 0.47494354844 5.0349407196
2.7711417675 -1.1160832644 5.0533657074
2.1152327061 -0.46829760075 -3.9598693848
-0.012599515729 -2.9207725525 2.9445705414
-1.2952522039 -2.5611009598 3.4325222969
-0.14670056105 -2.5130009651 4.4616308212

CELLS 288 1152
3 0 1 2
3 2 1 3
3 1 4 5
3 6 7 8
3 8 4 9
3 10 9 4
3 10 11 9
3 12 11 13
3 11 14 15
3 15 14 16
3 14 17 18
3 18 17 19
3 20 21 22
3 17 22 21
3 23 22 24
3 25 24 22
3 26 25 27
3 0 27 25
3 24 26 28
3 29 28 26
3 29 27 30
3 30 27 2
3 2 31 30
3 28 31 32
3 31 33 34
3 34 33 35
3 36 33 37
3 3 37 33
3 3 5 37
3 5 7 37
3 37 38 39
3 39 40 41
3 40 6 42
3 42 6 8
3 8 43 42
3 44 39 41
3 45 41 46
3 43 46 41
3 46 47 45
3 47 48 45
3 12 49 9
3 47 9 49
3 48 49 50
3 51 50 49
3 51 13 52
3 52 13 15
3 53 50 54
3 52 54 50
3 54 55 53
3 56 57 55
3 58 59 55
3 55 59 60
3 59 61 62
3 62 61 63
3 61 64 63
3 64 65 63
3 64 16 66
3 66 16 18
3 66 67 65
3 65 67 68
3 69 67 70
3 71 70 67
3 70 71 72
3 19 21 71
3 68 69 73
3 74 73 69
3 75 74 76
3 72 76 70
3 76 72 23
3 20 23 72
3 77 73 78
3 75 78 73
3 78 79 77
3 80 79 78
3 80 32 81
3 81 32 34
3 82 83 81
3 79 81 83
3 82 84 85
3 85 84 86
3 84 87 86
3 86 87 88
3 87 35 89
3 89 35 36
3 89 90 88
3 88 90 91
3 92 90 93
3 94 93 90
3 95 96 97
3 94 97 96
3 97 98 95
3 95 98 99
3 98 100 101
3 102 101 103
3 103 100 41
3 44 41 100
3 103 45 102
3 102 45 104
3 105 99 102
3 99 105 106
3 105 107 108
3 108 107 109
3 107 53 110
3 110 53 57
3 110 111 109
3 109 111 112
3 111 113 114
3 114 113 115
3 113 56 116
3 116 56 55
3 116 117 115
3 115 117 118
3 119 117 120
3 121 120 117
3 121 60 122
3 122 60 62
3 122 93 121
3 93 96 121
3 118 119 123
3 124 123 119
3 124 106 125
3 125 106 108
3 125 112 123
3 123 112 114
3 92 126 91
3 91 126 127
3 128 126 129
3 63 129 126
3 127 128 130
3 131 130 128
3 131 77 132
3 132 77 133
3 132 83 130
3 130 83 85
3 27 0 2
3 7 5 4
3 4 8 7
3 12 9 11
3 15 13 11
3 18 16 14
3 21 19 17
3 23 20 22
3 26 24 25
3 28 29 31
3 34 32 31
3 36 35 33
3 38 37 7
3 38 40 39
3 43 41 40
3 104 45 48
3 49 48 47
3 52 50 51
3 57 53 55
3 58 55 54
3 62 60 59
3 129 63 65
3 66 65 64
3 69 68 67
3 75 73 74
3 133 77 79
3 81 79 80
3 85 83 82
3 89 88 87
3 92 91 90
3 96 93 94
3 101 99 98
3 100 103 101
3 108 106 105
3 110 109 107
3 114 112 111
3 116 115 113
3 119 118 117
3 120 121 96
3 125 123 124
3 128 127 126
3 132 130 131
3 0 25 134
3 0 134 1
3 4 1 134
3 4 134 10
3 10 134 14
3 10 14 11
3 14 134 17
3 17 134 22
3 22 134 25
3 5 3 1
3 2 3 33
3 2 33 31
3 29 30 31
3 6 40 38
3 6 38 7
3 9 46 8
3 43 8 46
3 40 42 43
3 47 46 9
3 13 51 12
3 12 51 49
3 16 64 58
3 16 58 54
3 16 54 15
3 52 15 54
3 58 64 61
3 58 61 59
3 71 67 135
3 71 135 19
3 19 135 18
3 18 135 66
3 66 135 67
3 74 70 76
3 21 72 71
3 72 21 20
3 70 74 69
3 136 24 32
3 24 136 23
3 23 136 76
3 76 136 75
3 78 75 80
3 136 80 75
3 80 136 32
3 28 32 24
3 27 29 26
3 34 137 81
3 81 137 82
3 37 39 36
3 36 39 44
3 36 44 138
3 36 138 89
3 89 138 90
3 90 138 94
3 97 94 138
3 97 138 98
3 98 138 44
3 98 44 100
3 45 103 41
3 107 48 53
3 48 107 104
3 104 107 105
3 104 105 102
3 101 102 99
3 50 53 48
3 56 113 111
3 57 56 110
3 111 110 56
3 60 121 117
3 60 117 116
3 60 116 55
3 63 126 62
3 62 126 122
3 93 122 92
3 126 92 122
3 65 68 129
3 129 68 128
3 128 68 131
3 131 68 73
3 131 73 77
3 79 83 133
3 133 83 132
3 139 140 141
3 139 141 86
3 139 86 88
3 139 88 91
3 139 91 127
3 139 127 140
3 140 127 130
3 140 130 85
3 140 85 141
3 141 85 86
3 99 106 142
3 99 142 95
3 95 142 96
3 119 120 142
3 96 142 120
3 119 142 124
3 124 142 106
3 109 112 108
3 108 112 125
3 115 118 114
3 114 118 123
3 84 143 87
3 87 143 35
3 35 143 144
3 143 145 144
3 143 84 145
3 144 145 137
3 35 144 34
3 144 137 34
3 137 145 82
3 82 145 84

CELL_TYPES 288
5
5
5
5
5
5
5
5
5
5
5
5
5
5
5
5
5
5
5
5
5
5
5
5
5
5
5
5
5
5
5
5
5
5
5
5
5
5
5
5
5
5
5
5
5
5
5
5
5
5
5
5
5
5
5
5
5
5
5
5
5
5
5
5
5
5
5
5
5
5
5
5
5
5
5
5
5
5
5
5
5
5
5
5
5
5
5
5
5
5
5
5
5
5
5
5
5
5
5
5
5
5
5
5
5
5
5
5
5
5
5
5
5
5
5
5
5
5
5
5
5
5
5
5
5
5
5
5
5
5
5
5
5
5
5
5
5
5
5
5
5
5
5
5
5
5
5
5
5
5
5
5
5
5
5
5
5
5
5
5
5
5
5
5
5
5
5
5
5
5
5
5
5
5
5
5
5
5
5
5
5
5
5
5
5
5
5
5
5
5
5
5
5
5
5
5
5
5
5
5
5
5
5
5
5
5
5
5
5
5
5
5
5
5
5
5
5
5
5
5
5
5
5
5
5
5
5
5
5
5
5
5
5
5
5
5
5
5
5
5
5
5
5
5
5
5
5
5
5
5
5
5
5
5
5
5
5
5
5
5
5
5
5
5
5
5
5
5
5
5
5
5
5
5
5
5
5
5
5
5
5
5
5
5
5
5
5
5

CELL_DATA 288
SCALARS cell_data_0 double
LOOKUP_TABLE default
7.28168394293e-08
3.84136264896e-08
2.60897111356e-08
1.47341985006e-07
1.46152679657e-07
5.3903339376e-07
2.9056494804e-07
4.48405648719e-08
2.89005737301e-07
2.12651618478e-07
2.99497661651e-09
1.06683589525e-07
3.37486613521e-08
8.36155901951e-09
1.6937819947e-08
8.84377087089e-08
3.21041001999e-08
3.39677089741e-08
1.57030382249e-08
6.41223948797e-09
1.8151182737e-08
7.66661108742e-09
5.05798410703e-08
5.34675749392e-07
9.34696447697e-06
1.33440705306e-05
1.31221513422e-08
2.04778267366e-07
1.31881180208e-07
4.84571543634e-08
1.12984916317e-07
9.9215087878e-08
1.79089663705e-08
8.28494428097e-09
1.25765650712e-07
3.16789713002e-07
2.28130722618e-07
2.45279343423e-07
2.03417281915e-07
7.28244179672e-07
2.03098536494e-07
2.82743957311e-08
4.15072500256e-07
2.92500776758e-07
1.98369466635e-07
2.74400443013e-07
9.71525898318e-07
1.65713467167e-07
1.54657972483e-06
2.56203706054e-05
1.95237952994e-07
2.25122519331e-06
6.94558590648e-10
6.39028124136e-07
1.76435863184e-07
4.31398809605e-07
1.39376655875e-07
5.44327431399e-08
6.68054742317e-07
3.33015268456e-06
3.77504334312e-07
2.71125486078e-08
1.06531233774e-07
1.43042295429e-07
1.13821789742e-06
2.92849602626e-07
2.10372852318e-08
8.11057580821e-08
4.61832978234e-08
7.45697627999e-08
1.44105999701e-07
2.52504227481e-07
9.05801335953e-08
1.49797118626e-07
1.99595673994e-06
1.51466214441e-06
1.81431480486e-07
1.72372778445e-07
1.97425711677e-05
3.55000308926e-05
5.72578771201e-06
5.51600278869e-05
3.62654719111e-06
1.68388462269e-06
1.08362109971e-06
6.44753259835e-06
5.64051052368e-07
8.81316085656e-07
5.73379048453e-07
2.72527411892e-06
5.92697980099e-06
1.27547591917e-06
2.16607470838e-07
8.16687764621e-08
2.132806993e-07
1.06873912579e-07
4.80689548222e-09
4.60005494236e-07
3.24858146964e-06
1.39054319671e-06
1.37409879467e-05
1.12575825148e-06
6.31601854972e-06
1.26277918379e-05
1.78091039238e-05
4.92436101827e-06
4.13673367392e-06
1.957310648e-06
1.51373000368e-06
4.17045251804e-06
8.77557482333e-06
3.19204440724e-06
3.98459143658e-06
2.2676723351e-06
5.96004359961e-07
1.64110268535e-06
5.92008202761e-07
3.81317764016e-06
2.07269535093e-06
9.17474616863e-06
9.86532775661e-06
1.78579444736e-05
3.90034289742e-06
3.1561142119e-06
2.33612160077e-06
4.51234085986e-06
8.49180292893e-06
4.40682074627e-06
8.64140328851e-05
4.65597751949e-05
8.46639251206e-07
1.02980197754e-07
9.21911378053e-07
1.83703827104e-06
4.47976815598e-08
6.61313548426e-09
1.02877775121e-06
5.05290019613e-08
2.27991599063e-07
3.9322574816e-07
7.97550791156e-08
9.40448171755e-08
8.25517277941e-08
8.09175970686e-08
4.23093652019e-06
3.56097037614e-06
1.32867232009e-07
7.62177801798e-08
1.18650306454e-07
1.23670959684e-07
4.35702877739e-07
2.16002760321e-07
6.61624874384e-06
1.5202116579e-07
7.49420719327e-07
1.91903445045e-07
1.35002163994e-07
7.12710923184e-07
9.86786337896e-08
1.54813809001e-07
5.02580788782e-08
2.979406044e-07
1.97159853466e-06
1.68325130493e-06
2.32911492072e-06
5.93913996619e-07
1.59405938803e-07
1.40367387403e-05
5.9367031003e-06
9.96955745602e-06
2.37710334501e-06
7.586864261e-06
2.34391552411e-06
2.9026604906e-08
1.06919693804e-05
8.4001434394e-07
5.2822342499e-08
2.33964389498e-07
2.13208689616e-07
4.09209013473e-07
2.51960707788e-07
5.23850122227e-08
5.8837440613e-08
1.01714720568e-07
4.98966094159e-08
1.67029423584e-08
2.00057872365e-07
1.93580119455e-06
1.26992420706e-07
4.38575012885e-08
1.39015124953e-07
2.7375827795e-06
5.49944974543e-07
8.22397703176e-08
4.21830120263e-07
2.57022234541e-07
1.29847018776e-07
1.11748337389e-06
1.03599182994e-06
3.58000803055e-07
5.95209444464e-08
2.14083401124e-07
2.16961300115e-07
1.24471779971e-08
1.58608138979e-07
1.63059621271e-07
2.16347531636e-07
1.35886608938e-08
6.78211371996e-08
6.14178415974e-08
1.06419229543e-07
3.06321208613e-10
9.13085663607e-09
4.45933766649e-08
1.22834758285e-07
2.34091626315e-08
4.04965395897e-08
2.33855255516e-07
4.49834923272e-07
1.22801111007e-08
4.68983981985e-08
2.53924086969e-05
2.49376763919e-07
7.70114313931e-07
9.30341507492e-07
6.7965567126e-07
5.39462241664e-06
5.93388770283e-07
2.1608083383e-06
1.44439897584e-06
9.16194401421e-07
9.00424866338e-07
3.29343264066e-07
5.62630533082e-07
3.03325626728e-06
8.88046775233e-07
4.67113426491e-06
4.46597326951e-07
5.35617717072e-07
5.50137986375e-07
7.76343011555e-06
5.8920089952e-05
0.000149467125193
3.12090793309e-07
2.08185692953e-06
4.0032071629e-06
2.9327888065e-06
2.55321558636e-06
1.02489584723e-06
9.13389167347e-07
3.92384937211e-06
4.61628647159e-05
0.000130316007794
8.13794572189e-06
7.14313253831e-08
1.44318597289e-07
2.72079485457e-07
1.12721938079e-05
9.9128300186e-05
0.00013457807378
3.47044782064e-06
1.13661586356e-05
0.000104512020787
0.000258266130889
1.40518992418e-05
1.00397079697e-06
8.13938996985e-05
3.38974570222e-06
2.82793001929e-06
1.08593880414e-06
9.21872606035e-06
7.89484090755e-06
5.18649784989e-06
3.04395458567e-06
1.00894188027e-05
3.2863030012e-06
5.10265708017e-06
1.03808004769e-05
2.00232669871e-05
3.23132654302e-07
5.20058443331e-08
3.18225774334e-07
1.00560112024e-05
6.0465361616e-06
1.91437354882e-05
1.29698050307e-05
3.09275129055e-07
1.24469147016e-05

