# vtk DataFile Version 3.0
File Name: Molecule/arg/arg_6.0-0.vtk
ASCII
DATASET UNSTRUCTURED_GRID
FIELD FieldData 1
TIME 1 1 double
0.0
POINTS 1051 double
-3.403 0.327 1.604
-3.458 0.149 1.214
-3.138 0.005 1.702
-3.19 -0.164 1.33
-2.981 -0.361 1.858
-3.036 -0.538 1.468
-3.398 0.034 0.803
-3.133 -0.274 0.938
-2.976 -0.654 1.057
-3.231 -0.009 0.408
-2.974 -0.315 0.561
-2.809 -0.697 0.662
-2.971 0.024 0.066
-2.725 -0.284 0.235
-2.549 -0.664 0.32
-2.984 0.046 0.042
-2.617 -0.045 -0.207
-2.63 -0.024 -0.229
-2.351 -0.22 -0.527
-2.365 -0.198 -0.55
-2.2 -0.483 -0.862
-2.216 -0.458 -0.889
-3.215 0.428 -0.189
-2.686 0.062 -0.328
-2.875 0.375 -0.517
-2.48 -0.047 -0.742
-2.657 0.246 -0.92
-2.39 -0.269 -1.153
-2.586 0.057 -1.35
-3.255 0.893 -0.375
-2.908 0.756 -0.67
-2.688 0.604 -1.063
-2.621 0.454 -1.509
-3.1 1.357 -0.484
-2.781 1.137 -0.759
-2.569 0.961 -1.147
-2.488 0.85 -1.602
-2.776 1.74 -0.497
-2.515 1.451 -0.77
-2.319 1.256 -1.157
-2.211 1.177 -1.613
-2.622 1.932 -0.429
-2.434 1.563 -0.734
-2.291 1.743 -0.67
-2.16 1.459 -1.077
-2.01 1.647 -1.011
-1.982 1.439 -1.492
-1.81 1.654 -1.416
-2.666 2.281 -0.134
-2.227 2.054 -0.482
-2.267 2.371 -0.214
-1.881 2.228 -0.637
-1.921 2.545 -0.369
-1.615 2.438 -0.879
-1.659 2.787 -0.585
-2.622 2.533 0.247
-2.227 2.6 0.132
-1.881 2.773 -0.023
-1.614 3.039 -0.203
-2.495 2.657 0.67
-2.111 2.713 0.516
-1.765 2.886 0.361
-1.488 3.163 0.22
-2.925 2.572 1.071
-2.251 2.77 1.005
-2.634 2.694 1.361
-2.033 3.002 1.293
-2.411 2.928 1.645
-1.863 3.333 1.507
-2.279 3.251 1.894
-3.186 2.284 1.521
-2.865 2.437 1.761
-2.64 2.674 2.039
-2.53 2.972 2.328
-3.419 1.801 1.788
-2.888 2.359 1.917
-3.122 1.876 2.185
-2.717 2.558 2.345
-2.979 2.017 2.644
-3.552 1.393 1.822
-3.202 1.735 2.161
-3.319 1.374 2.191
-3.094 1.732 2.585
-3.21 1.376 2.614
-3.107 1.793 3.017
-3.235 1.399 3.05
-3.548 0.964 1.825
-3.316 0.994 2.194
-3.206 1.001 2.617
-3.231 0.984 3.053
-3.408 0.559 1.798
-3.191 0.635 2.17
-3.084 0.647 2.593
-3.095 0.593 3.027
-3.105 0.348 2.085
-3.1 0.088 1.867
-2.97 0.105 2.152
-3.02 0.504 2.546
-2.901 0.29 2.606
-2.978 0.383 3.085
-2.865 -0.346 2.113
-2.52 -0.7 2.425
-2.789 -0.06 2.411
-2.48 -0.378 2.69
-2.828 0.19 2.745
-2.523 -0.123 3.02
-2.645 0.041 3.387
-2.483 -1.039 2.238
-2.249 -0.827 2.688
-2.214 -1.15 2.51
-2.072 -0.978 3.011
-2.036 -1.312 2.826
-2.003 -1.142 3.367
-1.962 -1.514 3.162
-2.359 -1.33 2.011
-2.096 -1.427 2.294
-1.914 -1.599 2.602
-1.826 -1.833 2.912
-2.159 -1.55 1.761
-1.905 -1.637 2.055
-1.716 -1.817 2.356
-1.606 -2.075 2.638
-1.897 -1.684 1.507
-1.655 -1.765 1.813
-1.457 -1.949 2.105
-1.318 -2.222 2.359
-1.592 -1.721 1.268
-1.365 -1.8 1.585
-1.156 -1.986 1.869
-0.984 -2.263 2.097
-1.926 -1.641 1.017
-1.351 -1.766 0.91
-1.664 -1.691 0.675
-1.133 -1.941 0.578
-1.457 -1.864 0.334
-0.96 -2.23 0.303
-1.327 -2.142 0.027
-2.203 -1.444 0.759
-1.923 -1.507 0.433
-1.726 -1.673 0.084
-1.631 -1.926 -0.256
-2.396 -1.15 0.52
-2.103 -1.231 0.209
-1.913 -1.387 -0.149
-1.843 -1.603 -0.519
-2.487 -0.785 0.321
-2.189 -0.889 0.022
-2.002 -1.032 -0.342
-1.943 -1.202 -0.738
-2.264 -0.668 -0.026
-2.322 -0.554 -0.027
-2.141 -0.611 -0.433
-2.203 -0.492 -0.433
-2.131 -0.618 -0.861
-2.114 -0.682 -1.181
-1.927 -1.264 -1.052
-2.312 -0.441 -1.376
-2.121 -0.506 -1.916
-2.042 -0.816 -1.214
-1.838 -0.886 -1.79
-1.682 -1.348 -1.746
-1.975 -0.256 -2.322
-1.864 -0.768 -1.888
-1.672 -0.441 -2.421
-1.897 0.192 -2.527
-1.57 0.147 -2.691
-1.996 0.646 -2.441
-1.495 0.306 -2.776
-1.602 0.798 -2.682
-1.198 0.386 -3.152
-1.328 0.981 -3.039
-2.011 1.039 -2.18
-1.619 1.224 -2.399
-1.348 1.496 -2.696
-1.72 1.257 -2.235
-1.631 1.561 -2.005
-1.259 1.801 -2.466
-1.479 1.817 -1.75
-1.107 2.057 -2.211
-1.346 2.153 -1.415
-1.642 2.007 -1.116
-1.319 2.584 -1.178
-0.816 3.013 -1.267
-1.159 2.356 -1.471
-0.676 2.767 -1.557
-1.087 2.175 -1.825
-0.583 2.604 -1.915
-0.543 2.537 -2.312
-0.229 3.384 -1.004
-0.488 2.934 -1.522
-0.105 3.176 -1.351
-0.228 2.93 -1.855
0.02 3.086 -1.745
-0.059 3.001 -2.236
0.134 3.123 -2.15
0.003 3.141 -2.63
0.229 3.284 -2.529
-0.048 3.337 -3.001
0.294 3.553 -2.848
0.466 3.148 -0.891
0.348 3.022 -1.277
0.313 2.987 -1.697
0.364 3.045 -2.112
0.497 3.193 -2.485
0.699 3.415 -2.782
0.833 2.913 -0.61
0.553 2.897 -1.196
0.905 2.671 -0.926
0.699 2.74 -1.539
1.067 2.504 -1.257
0.892 2.689 -1.891
1.303 2.425 -1.576
1.057 2.557 -0.305
1.12 2.33 -0.634
1.29 2.148 -0.952
1.553 2.026 -1.234
0.979 2.767 0.195
1.24 2.204 -0.113
1.167 2.404 0.362
1.539 1.918 0.039
1.462 2.128 0.539
0.737 2.845 0.68
0.936 2.478 0.823
1.22 2.206 1.024
0.406 3.093 0.833
0.701 2.629 1.02
0.405 2.851 1.157
0.756 2.48 1.392
0.466 2.698 1.526
0.897 2.411 1.765
0.584 2.646 1.91
1.112 2.426 2.108
0.748 2.699 2.276
0.102 3.399 0.689
0.142 3.058 1.218
-0.121 3.323 1.093
-0.01 3.117 1.656
-0.27 3.379 1.533
-0.034 3.266 2.099
-0.327 3.561 1.96
-0.29 3.571 0.538
-0.462 3.472 0.961
-0.606 3.526 1.403
-0.705 3.727 1.814
-0.721 3.587 0.398
-0.837 3.486 0.84
-0.976 3.54 1.283
-1.123 3.742 1.679
-1.138 3.445 0.287
-1.199 3.363 0.744
-1.333 3.418 1.189
-1.525 3.605 1.572
-1.502 3.118 0.685
-1.632 3.177 1.131
-0.05 3.403 2.531
0.304 2.919 2.221
0.288 3.057 2.654
0.729 2.855 2.766
-0.175 3.437 2.964
0.162 3.091 3.09
0.587 2.894 3.259
-0.395 3.364 3.353
-0.059 3.019 3.48
0.337 2.812 3.701
-0.687 3.194 3.654
-0.352 2.847 3.783
0.006 2.617 4.044
-1.13 3.18 3.766
-0.58 2.815 3.881
-1.094 2.799 4.011
-1.584 3.151 3.721
-1.62 2.766 3.959
-1.995 3.111 3.523
-2.096 2.719 3.73
-2.312 3.063 3.198
-2.464 2.664 3.352
-2.498 3.015 2.783
-2.679 2.608 2.871
-0.749 2.537 4.164
-0.16 2.345 4.321
-0.912 2.194 4.368
-0.321 2.009 4.521
-1.061 1.806 4.483
-0.466 1.628 4.634
-1.364 2.231 4.354
-1.452 1.611 4.604
-1.713 1.977 4.492
-1.735 2.528 4.103
-2.033 2.233 4.276
-2.128 2.66 3.763
-2.373 2.347 3.982
-2.496 2.611 3.374
-2.69 2.305 3.646
-2.791 2.388 2.985
-2.945 2.113 3.311
-1.464 1.095 4.666
-0.956 1.592 4.533
-0.968 1.074 4.596
-0.48 1.041 4.705
-1.655 0.731 4.634
-1.079 0.886 4.596
-1.26 0.541 4.565
-0.689 0.687 4.666
-0.881 0.322 4.633
-0.333 0.517 4.869
-0.555 0.096 4.831
-2.027 0.463 4.516
-1.383 0.368 4.531
-1.728 0.119 4.423
-1.114 -0.009 4.584
-1.476 -0.27 4.469
-0.878 -0.357 4.785
-1.3 -0.661 4.651
-2.342 0.241 4.242
-2.019 -0.087 4.169
-1.783 -0.487 4.202
-1.658 -0.914 4.34
-2.557 0.093 3.848
-2.219 -0.224 3.803
-1.993 -0.631 3.818
-1.903 -1.082 3.892
-2.301 -0.273 3.375
-2.078 -0.682 3.368
-0.557 -0.612 4.999
-0.228 -0.165 5.05
-0.202 -0.89 5.102
0.134 -0.447 5.155
0.164 -1.171 5.088
0.507 -0.734 5.141
0.347 -1.566 4.993
0.615 -0.976 5.092
0.789 -1.35 5.001
1.043 -0.806 5.264
1.226 -1.201 5.169
0.533 -1.916 4.791
0.965 -1.683 4.809
1.412 -1.551 4.967
0.709 -2.198 4.495
1.133 -1.951 4.529
1.588 -1.833 4.672
0.864 -2.393 4.127
1.28 -2.136 4.179
1.743 -2.029 4.303
0.987 -2.488 3.71
1.397 -2.227 3.783
1.866 -2.124 3.886
1.07 -2.477 3.273
1.475 -2.216 3.368
1.949 -2.112 3.449
1.107 -2.36 2.845
1.511 -2.104 2.962
1.986 -1.995 3.021
1.096 -2.144 2.456
1.5 -1.9 2.592
1.975 -1.78 2.632
1.037 -1.846 2.131
1.444 -1.616 2.284
1.916 -1.481 2.307
0.647 -2.269 2.118
0.836 -1.714 1.711
0.512 -2.064 1.7
0.77 -1.662 1.233
0.47 -1.987 1.224
0.848 -1.697 0.757
0.525 -2.047 0.746
1.061 -1.813 0.337
0.67 -2.236 0.324
0.119 -2.499 2.107
0.075 -2.255 1.691
0.064 -2.164 1.215
0.088 -2.237 0.737
0.142 -2.466 0.313
-0.457 -2.497 2.099
-0.401 -2.253 1.685
-0.378 -2.162 1.209
-0.389 -2.235 0.73
-0.434 -2.464 0.306
-0.837 -2.059 1.682
-0.782 -1.983 1.207
-0.825 -2.042 0.728
1.48 -1.078 0.031
1.028 -1.535 0.641
1.346 -0.978 0.409
1.078 -1.33 0.996
1.331 -0.887 0.812
1.205 -1.217 1.373
1.436 -0.812 1.205
1.4 -1.205 1.737
1.652 -0.762 1.553
1.644 -1.296 2.058
1.961 -0.739 1.826
2.335 -0.746 2.002
1.639 -0.712 -0.547
1.451 -0.719 0.207
1.594 -0.39 -0.313
1.526 -0.39 0.423
1.664 -0.072 -0.079
1.697 -0.118 0.66
1.842 0.216 0.134
1.696 -1.103 -0.765
1.721 -0.524 -0.905
1.774 -0.881 -1.103
1.914 -0.328 -1.213
1.966 -0.68 -1.408
2.201 -0.141 -1.444
2.257 -0.517 -1.652
1.645 -1.46 -1.037
1.727 -1.206 -1.352
1.92 -1.0 -1.653
2.207 -0.859 -1.914
1.488 -1.753 -1.343
1.584 -1.473 -1.631
1.779 -1.262 -1.928
2.057 -1.14 -2.207
1.239 -1.959 -1.658
1.357 -1.661 -1.918
1.555 -1.448 -2.211
1.818 -1.338 -2.51
0.916 -2.062 -1.958
1.063 -1.755 -2.191
1.266 -1.54 -2.479
1.509 -1.437 -2.797
0.547 -2.053 -2.217
0.726 -1.747 -2.428
0.934 -1.532 -2.712
1.154 -1.428 -3.046
0.159 -1.934 -2.416
0.372 -1.638 -2.609
0.586 -1.425 -2.891
0.782 -1.314 -3.237
-0.216 -1.714 -2.539
0.031 -1.437 -2.721
0.25 -1.227 -3.001
0.423 -1.103 -3.355
-0.548 -1.409 -2.576
-0.272 -1.16 -2.755
-0.048 -0.954 -3.034
0.104 -0.811 -3.39
-0.822 -1.287 -2.506
-0.408 -0.948 -2.806
-0.669 -0.831 -2.739
-0.336 -0.591 -3.197
-0.616 -0.466 -3.125
-1.31 -1.347 -2.194
-0.988 -0.705 -2.664
-1.485 -0.767 -2.346
-1.322 -0.31 -2.728
-0.95 -0.071 -3.189
-0.33 -0.315 -3.523
0.111 -0.551 -3.697
-0.251 0.008 -3.791
0.185 -0.248 -3.95
-0.104 0.358 -3.987
0.323 0.082 -4.134
0.101 0.716 -4.098
0.516 0.418 -4.238
-0.411 1.252 -3.909
0.252 1.048 -4.202
-0.118 1.435 -4.065
0.377 1.347 -4.4
0.11 1.626 -4.301
-0.398 1.946 -3.588
-0.108 1.937 -3.833
0.117 1.987 -4.134
-0.712 2.237 -2.975
-0.187 2.28 -3.528
-0.425 2.5 -3.065
-0.042 2.651 -3.554
-0.227 2.824 -3.192
0.028 3.029 -3.665
-0.135 3.18 -3.347
-0.298 2.727 -2.563
-0.128 3.001 -2.799
0.9 3.106 -3.671
0.147 2.667 -3.761
0.845 2.729 -3.765
0.177 2.31 -3.921
0.876 2.372 -3.926
0.989 2.064 -4.14
0.819 3.383 -2.845
1.128 2.855 -3.473
1.063 3.077 -2.811
1.418 2.615 -3.364
1.354 2.837 -2.702
1.749 2.404 -3.353
1.668 2.681 -2.526
0.858 3.054 -2.621
0.721 3.091 -2.55
0.962 2.795 -2.335
0.787 2.842 -2.245
1.123 2.627 -2.01
1.688 2.19 -1.733
1.386 2.606 -2.284
1.794 2.29 -2.083
1.962 2.454 -2.382
2.133 1.624 -1.992
2.116 1.881 -2.27
2.194 2.159 -2.516
2.141 1.301 -1.585
2.428 1.273 -2.257
2.435 0.969 -1.874
2.042 0.907 -1.262
2.342 0.599 -1.57
1.981 1.32 -1.261
1.884 0.909 -0.851
1.83 1.271 -0.85
1.861 0.913 -0.411
1.81 1.26 -0.41
1.976 0.918 0.014
1.921 1.286 0.015
1.815 1.702 -1.251
1.684 1.607 -0.842
1.669 1.581 -0.402
[...]
CELL_DATA 2098
SCALARS cell_data_0 double
LOOKUP_TABLE default
1.23117246458e-06
1.80651635743e-06
6.49158967409e-07
3.33111186189e-07
1.76383852505e-06
1.52513801878e-06
1.15648544032e-06
1.15692311018e-06
2.27925745825e-06
2.35272309571e-06
1.65691157777e-06
1.62755639285e-06
1.36325979041e-06
4.18260458805e-07
1.14577670001e-06
2.44375108731e-07
2.76685948235e-08
9.42760351241e-08
1.61417565907e-08
1.62694045453e-07
1.11074584e-07
1.66775815245e-07
2.66514382077e-07
4.36312186679e-07
1.37103186506e-07
1.9513043654e-07
7.65186964665e-07
6.92649823562e-07
2.07690476514e-06
1.41601511103e-06
4.36431576827e-07
3.15421825959e-07
9.51806548301e-09
1.48881387743e-07
3.17530847799e-06
2.30061820935e-06
1.37794845019e-06
1.16841670708e-06
4.67904081571e-07
4.32591602037e-07
2.07941691418e-06
6.21865564248e-07
1.2079089488e-06
3.48158227802e-07
3.17682520166e-07
1.07249059706e-06
2.48569713416e-07
3.43424091033e-07
2.64476666481e-07
2.9957893507e-07
8.42548735218e-07
1.06029507384e-06
1.66502825801e-06
2.45921739002e-06
1.69008436438e-06
2.38845656602e-06
8.68649020602e-07
1.53142126507e-06
4.63913644395e-06
5.02269078367e-06
4.22131037601e-06
4.41897072015e-06
3.31161050799e-06
4.18404658935e-06
4.88911306535e-06
3.67880266504e-06
4.6622030914e-06
4.87713334959e-06
5.31196918004e-06
3.79416601309e-06
7.51331025364e-06
1.02015552633e-05
1.04628891408e-05
1.05628555875e-05
7.12840609697e-06
9.18135047671e-06
1.00891052883e-05
8.10075356939e-06
9.64695478322e-06
7.49150565616e-06
9.73015685489e-06
8.93557978474e-06
3.6170830297e-06
2.07076022106e-06
4.95445649249e-06
8.12578794042e-06
5.02224704885e-06
8.16949573119e-06
6.11872485069e-06
8.61388625747e-06
5.56366974549e-06
4.90332696258e-06
8.52468694116e-06
4.61907999852e-06
7.66647856617e-06
6.0449214043e-06
5.59212302189e-06
3.01753871612e-06
3.2348185141e-06
3.61819077185e-06
4.06072431647e-06
4.2276679411e-06
3.13340868749e-06
1.9916775387e-06
1.05782343819e-06
3.31577812794e-07
3.52006909883e-06
4.70752669219e-06
4.00786116285e-06
2.547097129e-06
2.20058179748e-07
1.66380681551e-07
9.38266263916e-06
9.32376916729e-06
2.38699080167e-05
9.78333645303e-06
1.25348933453e-05
2.28153746069e-06
3.22963443135e-06
7.00989916033e-06
3.12004502009e-06
1.67268173661e-06
1.4586055332e-06
1.17006298178e-06
7.89843262887e-06
5.16945682287e-06
3.28667876796e-06
9.11196973321e-07
1.19824488593e-07
3.21475721162e-06
4.05458220689e-06
2.90616088564e-06
1.86833536021e-06
9.39242620589e-07
3.21537959454e-06
4.53347039174e-06
3.07142672552e-06
8.52209848211e-07
3.08145492643e-07
3.8498482867e-07
1.63370321149e-06
1.54691019785e-06
6.42905568461e-07
1.88473015202e-07
1.06131653661e-07
1.14664301605e-07
2.28606095349e-07
8.13152362187e-09
2.4541265993e-07
2.62991670777e-07
4.56146790619e-07
3.94285358866e-07
3.86026384618e-07
2.24182206732e-07
4.91276712646e-08
1.13730756683e-07
2.08994969604e-07
1.319430575e-07
1.65582586699e-07
6.03590546176e-08
4.35841158067e-07
3.43838426423e-07
1.36101848694e-08
1.90947966329e-07
2.1528291955e-07
2.74201436937e-07
3.42247427812e-07
3.44097680784e-07
4.06478123771e-07
6.34646312569e-07
5.39872816692e-07
4.90851528684e-07
1.67953056099e-07
2.59844239249e-07
2.65680637518e-07
3.04835369831e-07
3.11297074078e-07
3.7614713967e-07
4.95714658447e-08
1.0274988332e-06
7.13843686932e-07
5.90606823041e-07
1.1119194336e-06
1.41793836128e-06
1.25969554664e-06
4.57819980056e-07
6.57447617971e-07
1.17869118048e-06
9.23626623153e-07
8.93774162025e-07
1.73607767853e-06
1.99094798243e-06
2.36355650802e-06
2.79549482494e-06
1.85183468031e-06
2.40238663981e-06
2.1885703562e-06
2.58133040535e-06
1.75986593052e-06
2.52675765112e-06
2.29161530449e-06
2.49413528551e-06
2.61449805663e-06
2.99376108925e-06
2.25001217934e-06
2.02787387447e-06
1.65162367911e-06
1.09008802384e-06
1.5334755852e-06
1.64372182062e-06
1.87843160025e-06
3.3094981332e-06
4.05317672838e-06
5.05107901874e-06
1.44822363556e-06
1.11040330048e-06
1.38416242406e-06
1.05738425909e-06
1.75486138518e-06
1.47071691759e-06
1.59969584679e-06
6.69654162907e-07
1.31394992943e-06
2.26756444741e-06
1.36512473672e-06
1.31314779347e-06
1.6347598537e-06
1.25288917031e-06
1.15741694598e-06
1.10322780632e-06
5.82312766795e-07
1.42429760328e-06
1.36914564591e-06
3.8224243378e-06
1.89781012251e-06
2.64100826779e-06
3.31056307478e-06
3.67526816665e-06
3.7426299886e-06
4.14904636284e-06
2.27472046002e-06
1.92900452759e-06
2.20264662901e-06
1.02599718679e-06
2.04711998042e-06
2.47764850184e-06
5.89065350905e-07
1.2331178458e-07
9.57500948523e-07
4.11602138055e-07
5.3524058784e-07
1.23637433046e-06
3.87685336444e-07
5.85645817213e-07
8.97815437196e-07
9.26393490522e-07
1.03508578851e-06
1.11215623899e-06
1.17052343705e-06
1.3127830762e-06
1.26946404338e-06
1.45378419939e-06
1.10699973567e-06
1.01090256171e-06
1.06125543918e-06
8.12067026504e-07
6.78956552197e-07
4.18076661348e-07
7.04922577812e-07
3.06459826679e-07
4.43516405628e-07
3.26431030615e-07
3.79381927128e-07
2.68183532092e-07
2.28644766189e-07
2.18099267399e-07
2.33455845978e-07
2.67743420291e-07
2.44341355502e-07
1.31378704384e-07
3.78695475926e-07
3.55972984419e-07
3.03992707496e-07
2.82202043881e-07
1.69334386415e-07
3.68838696893e-08
2.74563050073e-07
2.52019494083e-07
3.94752772353e-07
3.18749985709e-07
1.56656903208e-07
5.35952306105e-07
2.32310718388e-07
2.85016151602e-07
6.87680655585e-07
1.4744410059e-06
1.70625503807e-07
2.54715565876e-07
6.98061684592e-07
1.0120766352e-06
7.24569259895e-07
1.47998967657e-06
3.73953289083e-07
1.13571937267e-06
1.87188259211e-06
2.44029339992e-06
3.66760247002e-06
1.97139243819e-06
4.10639858649e-06
4.29332182722e-06
3.76850396955e-06
7.84650926883e-08
4.54516397078e-08
1.18878320534e-07
2.07365241621e-08
5.67128952044e-08
5.57743613769e-08
5.06306711498e-08
1.23050411878e-06
3.85401637274e-06
1.42954964228e-07
8.50036657717e-08
4.49677796111e-07
1.24613804414e-06
1.45795570232e-06
1.08269420504e-06
7.72862172417e-07
2.7518582058e-06
5.33322320071e-06
7.28484738737e-06
1.23919528545e-05
1.21590072962e-05
2.03658230171e-05
2.00106007672e-05
2.27906250003e-05
2.07896709993e-05
1.57153330837e-05
1.10053149266e-05
4.44670342277e-06
7.60396736994e-06
7.96646924029e-06
2.70127970392e-06
2.65904962714e-06
3.42339987233e-06
5.60200694043e-06
3.35307899912e-06
2.31881701055e-06
1.06572267837e-06
6.05948276778e-07
4.80270432688e-07
5.16001844737e-07
4.61902273781e-07
6.50806547568e-07
4.58245793504e-07
1.93187560722e-07
1.1133159071e-08
2.31753515838e-07
2.73080247769e-07
4.64959670843e-08
1.34157358138e-06
8.19098909838e-07
3.43569362074e-06
2.33826871682e-06
3.88476888395e-06
2.65093914462e-06
5.69997382608e-06
3.44852497961e-06
2.92533830056e-06
4.49676528971e-06
1.41557106303e-07
6.80958052213e-07
1.37792857918e-06
6.34676963155e-07
1.45555292606e-06
4.50265736645e-06
6.90551078918e-06
5.17809973408e-06
1.8666529335e-06
3.95195742049e-07
7.46630929796e-07
7.46391883591e-07
2.44737046538e-06
1.62431848533e-06
1.51682404807e-06
2.24388061723e-06
2.42564265811e-06
1.084686875e-06
1.16157177638e-06
1.34841274604e-06
3.05815111747e-06
2.7430575421e-07
3.03321508793e-07
1.56482743597e-06
1.43846501965e-07
1.96618618907e-06
1.50026360606e-06
1.31298448901e-06
2.24259999886e-06
1.83593024481e-06
1.17685861717e-06
1.27896625594e-06
1.14800846762e-06
3.34087935168e-07
5.80290460854e-07
9.18552896355e-07
7.43359978787e-07
1.36449134335e-07
1.12555043688e-06
1.27956580293e-06
2.18867063347e-06
2.68331991066e-07
1.05513896077e-07
1.60033884418e-06
2.60932895856e-07
8.33216416614e-07
2.91071994816e-07
6.01607885319e-07
6.67903722798e-07
1.59098343347e-06
2.45430354889e-07
1.23577836675e-06
2.1304413862e-06
6.78247880099e-07
7.34047733551e-07
3.32791714264e-07
7.52520036413e-09
1.65270267179e-06
3.40893585588e-06
4.5039698582e-06
2.24104069825e-06
1.14206924503e-06
4.49042116761e-07
3.67605563807e-07
2.7860412662e-06
4.24725567351e-06
2.67199295797e-06
5.11776499393e-07
2.63047923199e-06
2.35755876422e-07
6.65483758343e-07
3.26667490845e-06
4.72281072281e-06
2.77898838588e-06
2.16265092384e-07
2.34323758123e-06
2.21305105924e-06
4.09474196533e-06
1.56786263478e-06
9.03495822097e-07
4.15257515191e-06
5.84566814257e-06
2.88442911168e-06
5.66822901876e-08
1.9937415917e-06
1.64779904659e-06
8.53235521088e-07
7.52345437971e-07
7.46814387281e-07
5.05420075704e-07
5.60464205839e-07
6.57463375271e-07
1.81144207169e-06
1.59246286537e-06
1.1975942231e-06
4.48747594185e-07
1.1463022174e-07
4.85506895323e-08
1.42821411484e-08
1.7835866538e-07
5.64995934397e-07
1.2280808677e-07
6.97418298084e-07
3.12569072223e-07
9.91768900268e-07
7.89451840463e-07
3.3172165688e-06
1.6221710796e-06
2.53828934376e-06
2.88689526421e-06
3.49590797086e-06
3.78598929305e-06
6.26553837407e-06
3.30566048952e-06
3.1875399087e-06
3.25313079831e-06
1.36131391761e-06
2.79821009112e-06
2.48321871876e-06
1.28482483613e-06
6.3501283846e-07
7.38841731654e-07
8.62476889631e-08
2.01783573698e-08
2.55623215662e-06
8.29362170559e-09
2.35733554982e-06
2.51709452862e-06
8.25436558986e-06
7.85849970225e-06
2.31170428012e-05
1.37719126238e-05
2.75806488085e-05
2.14335240867e-05
2.48611248762e-05
2.52811014332e-05
2.93016842777e-05
6.01936871808e-05
4.15634691657e-05
1.93975493556e-05
1.56059251992e-05
2.24769987413e-05
2.32624334524e-05
2.5818941979e-05
5.72345639849e-06
1.36176857459e-05
1.56290160843e-05
1.67896099296e-05
9.02887230034e-06
1.00452115362e-05
1.95665212246e-05
1.98501681186e-05
4.25820557351e-06
2.93816063469e-06
1.3335270026e-05
1.52438788204e-05
8.21183441241e-06
2.15653755757e-05
3.87972939513e-05
4.02498050734e-05
6.0244923374e-06
3.11734374547e-06
1.10497086048e-05
2.3069651669e-05
5.03880945125e-05
7.96796293824e-05
7.12010407145e-05
2.84008725924e-05
1.90741826915e-06
4.75886303646e-06
9.25746746963e-06
2.20616921707e-07
3.13938078566e-06
2.99078562696e-06
1.8921884928e-06
1.8935924025e-05
1.23338265301e-06
1.85746002933e-06
2.7293396398e-06
8.23846410489e-07
5.29867809228e-07
5.19652369811e-06
4.89685105751e-06
3.03107570665e-07
8.9047226103e-07
2.93482103752e-06
1.06091888073e-06
2.91677204244e-06
5.57754206475e-06
2.52311738495e-05
1.83704973521e-05
1.24044848681e-05
1.49054650118e-05
1.91803547157e-05
3.14866156954e-05
1.69860330098e-05
8.22667655167e-06
5.8491150033e-07
1.08043412438e-06
6.32333662526e-06
2.29891538921e-05
1.04723464233e-06
1.08393957803e-06
1.40147159501e-06
2.76526024792e-06
4.39076235938e-06
5.61632172393e-06
1.33262772487e-05
4.3676943703e-06
8.92759541042e-06
5.63322222705e-06
7.46542526645e-06
5.74587740832e-06
4.47088493648e-06
6.53798863681e-06
5.01914083833e-06
5.07048841201e-06
2.69764022543e-06
2.46426351203e-06
8.53842629202e-08
1.85433033959e-07
1.64116277954e-07
3.92362077402e-07
1.43243167405e-06
9.14434092967e-07
6.8997579004e-07
1.20569368797e-06
8.12270687463e-07
8.19378849106e-07
4.25409669533e-07
1.69446595293e-07
2.2216987229e-06
1.70623989918e-06
1.02509095999e-06
3.86437641877e-07
3.04562709606e-07
2.61115750417e-07
8.02368332077e-06
1.53151654837e-05
1.49825420182e-05
3.96036955277e-06
1.40029094069e-07
4.27486253013e-06
7.12180384488e-06
6.34481823785e-06
8.92791417902e-06
5.11789973335e-06
1.79931509036e-06
4.46797790204e-06
1.53328464817e-05
2.03836036007e-05
1.74462469319e-06
3.41431073284e-06
2.38955828076e-05
1.65597174973e-06
3.26891431596e-06
4.32490999064e-06
8.81019808151e-06
1.21337787657e-05
4.73321469103e-07
5.82696915288e-07
2.942298411e-05
2.24027154726e-05
1.07788857033e-05
9.67504893148e-07
2.05630204641e-05
2.14133638145e-06
8.65845441441e-08
2.79936708117e-06
2.77943448121e-06
1.83162444316e-06
1.1597258294e-06
9.36860917367e-07
2.22773384277e-06
3.01768392429e-06
5.5300631066e-07
1.74456398312e-07
8.28162935452e-08
4.76141537324e-08
7.39173369861e-08
3.17281513174e-09
6.33301135919e-08
5.63463307417e-08
2.65835171118e-08
1.64731028808e-08
6.0182027923e-08
8.36795048222e-10
4.39149207e-08
6.15989397266e-08
1.0451027965e-07
4.87164020085e-07
1.12015806079e-07
1.51712214122e-07
8.69700027197e-08
2.20077215014e-07
1.50581179407e-07
6.7169436633e-07
6.41695137883e-07
7.87319542835e-07
2.03834669739e-07
1.20187462841e-07
2.31654309307e-07
1.0424676097e-07
4.00974144048e-07
6.92770053179e-07
7.76909173923e-07
4.03473758957e-07
7.94229444105e-07
3.18501524769e-06
1.97222885769e-06
8.79957234432e-07
9.46416541808e-07
2.23637872086e-06
4.22611579216e-06
1.96645014568e-07
1.2452284256e-06
3.21599371912e-06
1.00128527754e-06
2.01939987271e-06
1.7688158824e-06
1.41422888847e-07
1.46416101817e-06
1.03959456372e-06
2.43038906917e-06
2.28889631069e-06
1.35731553252e-06
3.0914967961e-06
2.89651515458e-06
1.95950044449e-06
2.23204373495e-06
2.66495679491e-06
1.38156092792e-06
9.82030533464e-07
1.20483496349e-06
9.80318289919e-07
4.62936794087e-07
4.0700106433e-07
4.37671384741e-07
2.22310862253e-07
4.89662106029e-07
3.85156303198e-07
8.48935783838e-08
4.10205018972e-07
2.32796595376e-06
7.33374191805e-07
4.43377088438e-07
1.97901247194e-07
1.3887072165e-06
7.53873165384e-07
7.29713336085e-09
2.78133605624e-08
1.04914241131e-08
3.30467106422e-08
3.76510857638e-08
1.54433640621e-07
1.63823977579e-07
9.74305005575e-08
6.35982356977e-07
7.93217712004e-07
1.06892843128e-06
6.96341258183e-07
8.07920872407e-07
1.69367531485e-07
1.03397386812e-06
7.43631137653e-07
3.96018213169e-07
7.01563596773e-08
5.05806718542e-08
1.3505003352e-06
7.73392881624e-07
3.44139070918e-08
1.08001209517e-07
8.49701542398e-08
1.7490606176e-06
8.64686356648e-07
8.82062762403e-07
1.02392202129e-06
5.91117413652e-07
4.6604735139e-07
6.01499470374e-07
1.98849450861e-07
1.29809490907e-06
2.72015644391e-06
6.10084940205e-06
2.39690764933e-06
4.19670348354e-06
2.42548319807e-06
4.08577167782e-06
3.68031784218e-06
3.04936777697e-06
1.58893644748e-06
1.66968198688e-06
2.92154057168e-06
2.96835136269e-06
1.43082815346e-06
8.68580259295e-07
1.67996737382e-06
2.57586525213e-06
4.54547977438e-06
2.6928903753e-06
5.80120102409e-06
1.1159459809e-05
1.12420259316e-05
6.5417186181e-06
1.27905931438e-06
1.35787441488e-06
4.849109314e-07
1.20295592944e-06
1.47272744747e-06
7.22186725377e-07
7.62919159494e-07
4.5169892987e-07
8.68390483084e-07
6.67914849368e-08
9.49743137083e-08
4.4894416308e-07
8.54896994206e-07
4.61839164524e-07
1.17641918331e-06
8.8384681729e-07
8.99620923313e-07
3.33764028069e-07
1.47556038537e-07
8.68507178394e-07
9.53162123243e-07
8.43420240801e-07
4.24946406709e-07
3.07744998333e-07
4.93597834102e-08
9.63492408494e-08
6.25933894256e-08
1.71256607761e-08
4.07286182785e-07
3.30761577311e-07
5.72783978721e-07
5.50273615554e-07
2.24115633084e-06
2.14393650853e-06
1.00422791933e-06
8.27449833078e-07
3.20853476253e-06
4.46143714943e-06
1.8784815684e-06
3.30262124857e-06
3.89203351573e-06
2.81335655287e-06
2.45183623267e-06
1.13584014634e-06
6.34154508793e-07
2.83483068356e-06
3.34363024209e-06
4.82881243279e-06
4.63972352153e-06
4.0977911542e-06
3.20331795819e-06
2.40327938496e-06
1.27999118713e-06
8.1990674324e-07
1.38043777866e-06
9.94406364982e-07
1.08158344178e-07
6.85989790808e-07
1.05654562454e-06
1.06369637511e-06
9.47469145053e-07
9.01625358437e-07
7.93271961845e-07
5.87077461297e-07
5.20827356152e-07
1.51361865763e-06
8.5267355341e-07
7.81282383091e-07
7.64782211271e-07
8.28720508563e-07
1.62095950527e-06
6.50867375118e-07
1.77858076258e-06
9.75101115573e-07
7.99538151456e-07
5.39730715039e-07
5.5241667154e-07
2.06796387444e-06
1.83146335194e-06
1.23944857198e-06
2.89231168596e-06
3.72339092708e-06
2.61921078844e-06
6.22578425725e-07
1.30282873959e-06
1.58223042659e-06
1.09382337609e-06
4.48509350773e-07
1.51298145826e-07
1.71114460704e-07
5.91911440652e-07
1.72066952976e-07
9.94622742263e-07
3.47729210883e-07
2.08722457004e-07
2.29701064287e-07
1.22882751149e-06
1.76169613771e-06
8.52745182487e-07
1.40253219048e-06
5.44309161021e-07
6.62402194461e-08
2.14954522424e-07
1.07609787908e-07
9.26413710988e-08
1.76514871896e-07
3.68586677525e-07
6.08916742187e-07
1.1736172391e-07
4.21620211076e-07
1.27483802478e-06
1.51998588176e-06
8.07972726911e-07
8.23958252303e-08
8.50800111327e-07
2.17786218157e-07
4.0520035087e-07
1.16537822144e-06
1.35249117253e-06
9.95032741307e-07
8.16376921639e-07
2.40669802062e-06
1.52800645154e-07
1.63959802052e-06
3.04155267612e-06
2.17683532568e-06
2.12656556845e-07
4.67119645893e-07
1.39935123183e-06
9.50975432582e-07
6.71587321354e-07
3.72754108895e-06
2.23251784348e-05
1.69540891745e-05
1.10890200749e-05
3.9828295668e-06
4.21461824421e-06
9.05392318553e-07
1.58647080345e-07
3.69183241183e-07
5.71839184054e-06
1.15499407999e-06
2.47268117399e-06
1.56715811902e-06
2.72003456261e-06
1.64973273332e-07
7.30103144376e-06
6.90181329067e-06
4.55185431455e-06
3.1918579442e-06
1.04527220244e-06
2.21170994179e-06
4.41855216054e-06
5.83813544029e-06
2.72650783377e-06
4.70904522448e-06
3.0070323299e-06
8.28664808518e-06
2.76319908503e-06
1.18063634824e-06
6.86515928224e-07
2.0153785765e-06
3.72212542145e-06
8.2009979695e-07
1.25777978023e-06
8.08977922486e-06
1.16686135912e-06
3.03236983803e-07
1.3196087739e-07
1.33842577143e-06
1.41625064553e-06
2.11485614186e-06
5.60273947799e-06
3.65293055729e-06
5.71743155298e-06
6.2204838535e-06
6.05448501823e-07
1.08357561271e-06
8.93881787684e-07
7.81174990783e-08
1.37702102173e-07
2.62096164951e-07
3.16694395269e-07
4.17296654853e-07
1.51857427735e-07
5.59781371169e-07
5.50271920952e-07
1.48280970907e-07
1.02213271958e-07
6.9226511349e-09
6.81726398112e-08
1.14239374564e-07
1.06075742829e-07
1.11184035142e-07
1.70362121094e-07
1.85653263937e-07
1.78919457145e-07
1.43004589811e-07
1.54167441787e-07
1.2048261387e-07
5.20840716248e-08
5.36854243636e-08
1.77646777023e-07
1.49336667039e-07
1.29361005334e-07
1.31848483922e-07
2.14553438199e-07
2.19726343876e-07
1.64470555511e-07
1.02063395866e-07
2.82425127184e-08
1.82325793579e-08
4.93881708855e-08
4.46916337904e-08
8.86875534787e-08
8.24667497174e-08
4.76440898519e-08
5.78834937203e-08
8.53653187306e-09
3.88491330188e-08
9.64143896852e-08
5.52581659235e-08
7.8787231692e-08
3.53949962968e-08
1.23691445008e-09
1.18887904505e-09
1.45035589168e-08
3.25574785477e-07
6.65238103937e-07
6.36821148493e-07
9.1375924643e-07
1.54684868386e-07
6.63479578213e-07
2.38245851076e-07
5.32717975296e-07
6.90182673656e-08
1.87937541279e-07
8.80352977821e-07
5.49986587757e-07
6.9855645834e-07
5.46252933836e-07
2.04618392533e-06
5.78935598834e-07
2.29038986643e-06
1.76303244449e-06
1.99983805893e-06
3.42195926654e-07
3.36085267724e-07
1.58245397133e-06
3.96606035693e-06
1.67185409284e-06
1.10424963725e-07
2.19576822891e-06
7.12851301236e-07
2.69510044962e-06
1.44225758726e-06
2.76064230508e-06
5.50995627637e-07
9.27098220678e-07
3.50828991611e-08
7.96236508725e-07
6.70436327503e-07
4.15276512017e-07
1.15171948907e-06
4.58698197388e-09
4.34144658428e-08
3.25119837627e-09
1.35888632902e-07
8.71881574802e-08
7.79901773844e-07
1.44192556836e-06
4.38294719522e-07
7.75518818692e-08
6.09919016184e-08
1.40866848436e-06
1.69355782253e-06
1.54634874834e-06
2.38515997412e-06
3.57398700754e-06
3.01461453333e-06
1.81840809215e-07
1.30969102583e-07
4.98831523836e-08
1.1838199456e-07
2.89803750837e-07
5.13771688887e-07
1.03280128281e-06
2.21744421532e-06
9.82146342958e-07
8.09417450669e-07
1.54979800251e-07
8.07497658403e-07
5.06578178857e-09
3.33458137484e-07
2.61653784565e-08
2.98452088693e-07
3.99641652796e-07
6.97407053349e-09
1.79337132414e-07
5.23835290201e-08
6.94197328551e-07
1.05487198567e-06
8.24610168326e-07
1.21431937317e-06
8.90488439933e-07
9.09354833203e-07
7.89397455562e-07
6.76487268042e-07
5.30665948782e-07
5.90581850283e-07
5.42007494523e-07
5.11984889976e-07
2.47776562484e-07
4.34447693894e-07
2.54002047e-07
5.21111319443e-07
1.83146778539e-06
1.51463463751e-06
2.34947938462e-06
2.34040878671e-08
1.08818856215e-07
1.89403444313e-07
5.40026128421e-08
1.02380546076e-08
1.32700112355e-07
1.19080932937e-07
8.53130199699e-08
8.3296885479e-08
3.25919050943e-08
4.35460495889e-08
1.07690183833e-07
1.86539835503e-07
6.95798970491e-08
1.61472313058e-07
2.31858516929e-07
1.60732365435e-07
1.25622343748e-07
5.6737662404e-08
1.79695926129e-07
1.19694971841e-06
1.28168845908e-06