# vtk DataFile Version 3.0
File Name: Molecule/arg/arg_5.0-2.vtk
ASCII
DATASET UNSTRUCTURED_GRID
FIELD FieldData 1
TIME 1 1 double
0.0
POINTS 856 double
-3.107237339 -0.061867218465 1.7013853788
-3.3876423836 0.29359483719 1.6042431593
-3.1491231918 -0.25833317637 1.2700090408
-3.4402246475 0.096545577049 1.1179736853
-2.9798123837 -0.38044196367 1.8274873495
-2.9857106209 -0.72088783979 1.373190999
-3.0504403114 -0.26088103652 0.6268903017
-3.28500247 0.01550663542 0.4761043191
-2.845492363 -0.70232874155 0.74592524767
-2.8670818806 -0.11514177918 0.18502578139
-2.6830821037 -0.36488801241 0.27334672213
-2.5643792152 -0.61001396179 0.27648720145
-2.6863751411 0.067804820836 -0.33707249165
-2.5324437618 -0.14692673087 -0.15389439464
-3.0003886223 0.077269166708 0.031619183719
-2.3898851871 -0.22502025962 -0.33665952086
-2.5193331242 -0.051999997348 -0.52633333206
-2.3627243042 -0.21173122525 -0.52696663141
-2.2432336807 -0.43798398972 -0.39422622323
-2.1860454082 -0.48848947883 -0.66778087616
-2.2356538773 -0.42195096612 -0.88834130764
-2.8985383511 0.45684054494 -0.55052095652
-3.2573618889 0.53512710333 -0.21533447504
-2.6749191284 0.31609922647 -0.95101314783
-2.6061942577 0.13799288869 -1.390106082
-2.4624032974 -0.067992977798 -0.77630788088
-2.3962845802 -0.26071754098 -1.1305129528
-3.1517317295 1.2502743006 -0.46449866891
-2.8198318481 1.0683094263 -0.74569147825
-2.6061208248 0.88752019405 -1.1316959858
-2.533613205 0.78307849169 -1.5714859962
-2.7802343369 1.7125668526 -0.50978648663
-2.5196681023 1.4289566278 -0.78249067068
-2.3216562271 1.2434353828 -1.1654231548
-2.2023711205 1.1565628052 -1.6483900547
-2.3906879425 1.5569550991 -0.76668041945
-2.2501244545 1.750053525 -0.69007855654
-2.4421627522 1.9897516966 -0.43350607157
-2.191838026 1.4713714123 -1.0234360695
-1.9996507168 1.6965841055 -0.96747541428
-1.7216689587 1.7658067942 -1.3316649199
-1.9593814611 1.462983489 -1.4976285696
-1.9650137424 2.1684837341 -0.59733939171
-2.1672883034 2.4334702492 -0.22295461595
-2.6198759079 2.3169884682 -0.12794783711
-1.6310548782 2.4235672951 -0.87497186661
-1.6563409567 2.8149561882 -0.55865734816
-2.443267107 2.535027504 0.15940311551
-1.9631729126 2.7060828209 -0.018232040107
-1.6026049852 3.0353357792 -0.24419744313
-1.9935295582 2.7615683079 0.47839981318
-2.4906618595 2.656619072 0.66001665592
-1.5083715916 3.1522729397 0.22317589819
-2.868793726 2.6000890732 1.0036987066
-2.2398524284 2.7783210278 1.0297973156
-2.5729517937 2.7243318558 1.3432695866
-2.3702719212 2.9298818111 1.5600869656
-2.0363225937 2.9788520336 1.2559936047
-1.8674002886 3.3335938454 1.5161921978
-2.2283229828 3.2798542976 1.8628951311
-3.1936171055 2.2803337574 1.4903850555
-2.8284184933 2.4693210125 1.7575544119
-2.6403305531 2.6652069092 1.9938538074
-2.5182445049 2.9865903854 2.3314275742
-3.422529459 1.7999205589 1.7759209871
-2.9053766727 2.3345565796 1.9180573225
-3.1051809788 1.914735198 2.1807992458
-2.7331619263 2.5290138721 2.3680438995
-2.9689428806 2.03987813 2.6414031982
-3.1916568279 1.7122919559 2.1993033886
-3.3155412674 1.2610675097 2.2252607346
-3.5759167671 1.2606129646 1.7956376076
-3.1030094624 1.7053971291 2.5433907509
-3.2219145298 1.1033930779 2.5826156139
-3.1057105064 1.8016960621 3.0048160553
-3.2470784187 1.2778484821 3.045871973
-3.4071059227 0.59028124809 1.821923852
-3.1757473946 0.66621303558 2.2277798653
-3.0986139774 0.6824581027 2.5541419983
-3.1094141006 0.61474317312 2.9778447151
-3.1221101284 0.37445768714 2.0664432049
-3.0824801922 0.062328241765 1.8827832937
-2.9557800293 0.10190819204 2.1877439022
-3.0255343914 0.49094989896 2.5073215961
-2.8998713493 0.29448124766 2.6226425171
-2.9631283283 0.36443045735 3.1092994213
-2.8525121212 -0.35217419267 2.1377184391
-2.4758634567 -0.3532744348 2.7242064476
-2.7602684498 -0.068121440709 2.463896513
-2.5348412991 -0.68108475208 2.411400795
-2.7905824184 0.13313320279 2.7377331257
-2.5352027416 -0.11100186408 2.9809744358
-2.6458206177 0.048324596137 3.3981647491
-2.4427137375 -1.132519722 2.215157032
-2.1620287895 -0.8109305501 2.8627662659
-2.0519652367 -1.3355261087 2.6951694489
-2.01349473 -1.1361510754 3.3419995308
-1.9276854992 -1.6084958315 3.1304798126
-1.8906146288 -1.6387283802 2.3570926189
-2.2766590118 -1.4430549145 1.8744106293
-1.7304749489 -1.9597601891 2.7730400562
-1.9496715069 -1.6736133099 1.5881383419
-1.5689657927 -1.8693662882 2.0913360119
-1.3881582022 -2.2083110809 2.4540922642
-1.2960423231 -1.8454918861 1.6685121059
-1.5832995176 -1.7248834372 1.2585037947
-0.99266815186 -2.2627942562 2.1069972515
-1.3164591789 -1.7836034298 0.86972594261
-1.7062243223 -1.6664105654 0.59399700165
-2.0020000935 -1.6029412746 0.98620223999
-1.1570609808 -1.9227044582 0.58041661978
-1.5415205956 -1.8025741577 0.3056447804
-0.95237618685 -2.2413368225 0.28050553799
-1.386198163 -2.1203653812 -0.051024742424
-2.3700900078 -1.2134507895 0.58126741648
-2.0500085354 -1.3084541559 0.23390497267
-1.8996489048 -1.4247977734 -0.079755805433
-1.793074131 -1.6957857609 -0.46636074781
-2.4595119953 -0.82523018122 0.32525876164
-2.1472702026 -0.93631118536 0.0027470365167
-2.0190529823 -1.0025194883 -0.31465888023
-1.9426207542 -1.2052334547 -0.72567373514
-2.2454078197 -0.665538311 -0.05492053926
-2.3878440857 -0.39455005527 -0.060131423175
-2.132997036 -0.64415740967 -0.38728350401
-2.0539560318 -0.77293401957 -0.79991871119
-2.0271794796 -0.84136807919 -1.2260161638
-1.8824266195 -1.4419515133 -1.1441048384
-2.309170723 -0.43291833997 -1.3999261856
-2.1430180073 -0.62274360657 -1.0365363359
-1.8595262766 -0.8635007143 -1.7670061588
-2.1280925274 -0.49980461597 -1.9088566303
-1.6799526215 -1.360681653 -1.734125495
-1.9822548628 -0.25419938564 -2.3139572144
-1.7481577396 -0.80522483587 -2.0371658802
-1.6616100073 -0.41955643892 -2.4404523373
-1.903154254 0.18491438031 -2.5189826488
-1.5180344582 0.12181214988 -2.7274811268
-1.9959918261 0.64393693209 -2.4414422512
-1.5221487284 0.33338755369 -2.752774477
-1.6058135033 0.7963847518 -2.6778450012
-1.3200198412 0.98297911882 -3.046854496
-1.2185740471 0.38230773807 -3.1315805912
-2.0183215141 1.0333521366 -2.1728942394
-1.6264493465 1.2060595751 -2.4037461281
-1.3337570429 1.5103920698 -2.703110218
-1.6790134907 1.4181740284 -2.127518177
-1.1071796417 2.0535740852 -2.2147364616
-1.4765410423 1.8212331533 -1.7478650808
-1.3717954159 2.1264016628 -1.4103300571
-1.645097971 2.0314362049 -1.086532712
-1.314665556 2.590720892 -1.1751793623
-0.82523781061 2.9958183765 -1.2846771479
-1.0798642635 2.2479772568 -1.7076181173
-0.60546976328 2.6413319111 -1.8066591024
-0.5515652895 2.5236766338 -2.3209793568
-0.42383271456 2.9305443764 -1.5782794952
-0.75298506021 3.3410127163 -0.99527972937
0.29651319981 3.0276446342 -1.3049066067
0.4700486362 3.1446311474 -0.89650064707
0.039364151657 3.5591754913 -0.60337162018
-0.10697425157 2.9674263 -2.1134989262
0.32463207841 2.9942748547 -1.8326292038
0.0073731988668 3.1187565327 -2.5665631294
0.45618313551 3.1593091488 -2.4175112247
0.8273537159 2.9159164429 -0.6347887516
0.59551388025 2.8385498524 -1.2978906631
1.0003525019 2.553817749 -1.1535793543
0.87945151329 2.692291975 -1.8737919331
1.3028159142 2.419728756 -1.5607413054
1.0590941906 2.5557210445 -0.32571601868
1.2285044193 2.1960837841 -0.84760314226
1.5607873201 2.0099854469 -1.2236452103
0.98154830933 2.7630441189 0.20158623159
1.2696324587 2.1689593792 -0.095458962023
1.2057414055 2.3542253971 0.39512568712
1.5396596193 1.916085124 0.07467892766
1.4760915041 2.1088619232 0.57450956106
0.91902768612 2.5200212002 0.754986763
0.72858893871 2.8507742882 0.68917274475
1.2188338041 2.2092342377 1.0022015572
0.81661403179 2.4649648666 1.1074237823
0.43054425716 2.7977020741 1.2354669571
0.39588341117 3.0996077061 0.83770614862
0.83581680059 2.4401896 1.6879738569
0.43441992998 2.7075712681 1.7863298655
1.1325929165 2.4065992832 2.0991518497
0.74296492338 2.7018530369 2.2666559219
0.04777161032 3.4287188053 0.69458794594
0.11238866299 3.066439867 1.2448027134
-0.20140890777 3.3584780693 1.1059144735
0.073069490492 3.0125238895 1.6372464895
-0.29069083929 3.3888959885 1.4775637388
-0.031639102846 3.2617807388 2.0714278221
-0.39491850138 3.6032779217 1.946477294
-0.42441311479 3.593423605 0.48358279467
-0.73414611816 3.4943914413 0.91144567728
-0.70463126898 3.5327701569 1.3270868063
-0.99061989784 3.7471711636 1.692127347
-1.0770561695 3.4781241417 0.32167798281
-1.1651848555 3.3863921165 0.80809921026
-1.2504199743 3.4390897751 1.1696692705
-1.4702634811 3.6353337765 1.5883529186
-1.5079747438 3.1167390347 0.71771204472
-1.6115113497 3.1718862057 1.103107214
-0.057824626565 3.4076719284 2.5171539783
0.30052524805 2.9211719036 2.214568615
0.28547975421 3.0590331554 2.6512544155
0.73083561659 2.8537678719 2.7698309422
-0.16574180126 3.4318699837 2.9645717144
0.18378195167 3.0774056911 3.0972993374
0.62452036142 2.8701546192 3.2749717236
-0.080931827426 3.0346946716 3.4698209763
-0.41676962376 3.3827784061 3.3389291763
0.31277656555 2.8280179501 3.6901762486
-0.67901015282 3.1942572594 3.6516268253
-0.31303653121 2.8420600891 3.7762653828
-0.017559319735 2.6256344318 4.0402331352
-1.1112641096 2.7698562145 4.0306105614
-0.60594403744 2.8024666309 3.8946464062
-1.1302384138 3.1919641495 3.7545142174
-1.6068140268 2.8739955425 3.8732573986
-1.5895426273 3.1774156094 3.6921675205
-2.0574595928 2.8339719772 3.6519181728
-1.9790352583 3.1272060871 3.5196163654
-2.2915329933 3.0873506069 3.1948313713
-2.3975594044 2.7931976318 3.2910301685
-2.4719314575 3.0465948582 2.7857670784
-2.6049699783 2.7358515263 2.8361768723
-0.80571466684 2.3791000843 4.2724685669
-0.25145152211 2.1761739254 4.4352264404
-0.96396070719 1.9553294182 4.4536547661
-0.42786377668 1.6214618683 4.6396126747
-1.3429796696 2.2417020798 4.3506131172
-1.4386105537 1.6121255159 4.6052041054
-1.7183865309 1.9772831202 4.4906206131
-1.7346843481 2.5215451717 4.1072363853
-2.0439653397 2.2299206257 4.2727184296
-2.200694561 2.5424733162 3.8283195496
[...]
CELL_DATA 1708
SCALARS cell_data_0 double
LOOKUP_TABLE default
4.52884682528e-09
8.44360932976e-09
1.99275016435e-08
1.26099366926e-08
1.18423986133e-08
2.10937904647e-08
5.83307839109e-09
2.1911129166e-08
2.70354565069e-08
2.23132004339e-08
3.64541904265e-08
5.57575320138e-09
1.44748947494e-08
4.75064362072e-09
4.82126524482e-10
9.58848167307e-09
1.1952260878e-08
6.69238402894e-09
5.44398639626e-09
3.06229730991e-08
1.15725711498e-09
5.71029204563e-08
7.13581383973e-08
2.18746662872e-08
1.81400797305e-08
1.10566864282e-08
1.77123677333e-08
1.87648685401e-08
6.29638824704e-08
7.14571337009e-08
1.17540899446e-08
3.4719680018e-08
6.00666674064e-08
6.87410971576e-10
5.20846645765e-08
3.78182099598e-08
2.12537178187e-09
2.42889529695e-08
1.08103322957e-08
1.7726690592e-08
1.360736132e-09
3.904841829e-09
1.64339480607e-08
2.10026371718e-08
2.18789306935e-09
2.01796108461e-08
2.88930601755e-10
2.22587625831e-09
2.08689010867e-09
2.23000283654e-09
1.32416128873e-08
9.24368947163e-09
6.06753476131e-09
1.83760089148e-08
1.11229846632e-08
1.68739287911e-08
3.42568519045e-09
8.53538953452e-09
3.66823660501e-09
9.73994235607e-09
7.55623551441e-09
8.95787637657e-09
3.62573170467e-09
1.09103206133e-08
1.08644737042e-08
7.32717050486e-09
3.75633129187e-09
1.09174721111e-08
1.31914042383e-08
1.53218220232e-09
7.48612421491e-09
4.47775059401e-09
8.27016019494e-09
7.21266632038e-09
2.9746379041e-09
7.33210536834e-09
1.36405082696e-08
2.03854741928e-08
1.03331007825e-08
1.2965496616e-09
5.11805456952e-09
1.10427073248e-09
7.82408732268e-10
5.97987819245e-09
3.59476967759e-10
6.70607777449e-09
7.63235122137e-09
9.07910844443e-09
2.50353067941e-09
3.87379602195e-10
1.90583162127e-08
1.10488582444e-08
6.89902858327e-09
1.25591078128e-08
4.15596557769e-08
2.443245256e-08
1.79878173482e-07
7.58964562594e-08
9.03307332182e-07
1.38955082328e-07
2.34652084438e-07
4.71088250216e-08
3.63894204488e-07
4.10050549415e-07
7.88622178e-09
2.00259483684e-08
1.17865216439e-07
5.35079371669e-08
1.24384299683e-08
4.02273354274e-08
4.44110615076e-08
1.20247480371e-07
1.92353901223e-08
6.04636421831e-08
3.91965237755e-08
8.05112989557e-10
6.01089540298e-08
1.43021621748e-09
2.95721741454e-08
1.14677981224e-08
2.92761755921e-08
2.06365204261e-08
1.52434669898e-08
2.19465275986e-08
4.81043010379e-08
2.21475983057e-08
3.24940869817e-08
1.95751335712e-08
4.67540516377e-08
2.45240826198e-08
1.18526737322e-08
1.22430243281e-08
4.40317307713e-09
1.3710205439e-08
6.35272828266e-09
1.07677152319e-08
2.50428957747e-08
9.99604222925e-08
1.36308273487e-08
2.38720848938e-08
8.09073493384e-08
1.10825954328e-08
1.325550837e-08
7.89260729013e-08
3.44829019474e-08
2.26966835311e-09
2.13653787737e-09
6.65315719907e-08
8.93155917719e-09
1.57170751718e-08
2.95577388056e-09
9.97383321768e-09
2.23636634028e-09
5.11753482639e-08
1.11694905176e-08
5.4174708632e-08
2.6205720736e-08
2.92199720442e-08
7.9783395794e-08
4.46021363651e-09
2.96764090103e-08
5.71350813999e-08
2.86973102094e-08
1.0746759745e-08
1.07900003977e-07
1.24428017627e-07
1.63761327136e-07
3.02187652951e-07
1.19592436149e-07
5.68949200078e-08
3.86966172409e-08
3.21584640172e-07
1.43691825282e-07
8.12690009519e-08
2.33756882965e-08
1.28765537752e-08
2.29847222169e-07
1.03482690736e-07
5.75712764753e-08
1.42656074436e-07
8.35601738457e-08
1.29969405395e-08
5.21337895954e-08
5.54163692946e-08
3.66831907178e-08
7.66103690858e-09
7.9302661606e-09
2.44981453949e-09
6.22797873007e-09
1.5171031695e-08
5.86689113877e-09
5.05044344821e-09
4.91090114697e-10
3.11789955714e-09
2.92399284962e-08
4.29180709801e-08
7.04847334327e-09
8.95039227072e-09
1.17547282491e-08
8.40973245935e-09
9.04635905504e-10
1.45290244678e-08
1.74049915721e-09
1.31555973722e-09
2.51729580082e-10
6.46215314941e-10
2.21257385368e-09
4.73990015978e-09
8.15312730128e-10
2.98410831017e-09
5.09247522991e-09
3.24433993946e-09
4.22732131129e-09
5.7539921813e-09
9.80321651276e-09
6.9840818788e-09
1.75493245372e-09
8.26139262211e-09
1.09687583519e-08
7.59026402481e-10
1.18116602778e-09
1.70355512152e-08
2.38300954068e-08
2.06213406268e-08
3.81183368508e-09
1.96555401858e-08
3.22147755034e-08
4.11086737574e-08
1.01379640836e-08
4.59333025955e-09
1.3026497729e-07
9.76206103967e-09
3.56129688655e-09
7.12351630215e-09
4.59242777864e-09
4.64442305053e-08
4.61079588037e-10
4.30992781271e-09
2.71235196293e-09
1.65629692989e-09
4.43069229134e-09
1.62290169541e-09
4.35556073537e-10
4.81068247023e-09
6.85359498329e-10
4.84144154308e-09
6.45320287364e-09
2.10218976203e-09
1.82682521546e-08
3.15909175072e-08
1.40763675361e-09
1.96511634312e-08
4.12951824831e-09
2.46771486084e-09
1.93094545035e-09
1.35842324773e-09
1.89553958287e-09
1.20401697077e-09
4.76582961949e-09
2.67026889081e-09
1.8409949733e-09
1.46185060086e-09
4.32273364595e-09
2.16012809389e-10
6.70828808471e-09
1.03745769656e-09
2.7986464483e-08
1.56785912285e-08
2.39562657269e-09
6.53278209119e-09
1.80473276882e-09
1.69706494711e-09
1.9492850176e-10
7.30374012517e-09
6.66567684712e-09
5.40279531548e-09
1.59806567244e-08
7.31052375239e-09
2.39354375432e-08
4.58036160066e-09
4.09751892836e-09
1.34846851992e-08
1.68199453379e-08
1.25091105289e-08
7.43992408747e-08
2.96202436771e-08
3.21563805003e-08
2.41905152362e-08
4.65994332068e-08
2.63889429823e-08
3.18238703344e-08
4.85699027608e-08
3.39661530017e-08
4.61101656041e-08
1.77290055742e-07
2.32906784582e-07
1.48865012928e-07
3.52267542461e-07
2.3417560594e-08
9.22208562992e-09
3.03692798401e-09
1.33908421984e-08
2.6914429954e-08
6.640908158e-09
1.90433026858e-08
1.60602294033e-08
1.96323536052e-08
1.12994614597e-09
6.00298716646e-09
5.96256693159e-08
4.21935169725e-08
2.30763192851e-08
7.59561926273e-08
1.72919163188e-07
3.28503900783e-08
1.01302901824e-07
1.21737354685e-07
6.42114942175e-07
1.74642412484e-07
2.34627782662e-08
2.6211296328e-07
5.4682255516e-09
2.28304814614e-07
2.93839873478e-07
8.75613747998e-08
7.05992282759e-08
2.0286691405e-07
6.72464510713e-08
7.76210109596e-08
3.88072934268e-08
3.17719321073e-08
1.23124340797e-07
1.21420796089e-08
6.9903733023e-09
1.37859775012e-08
3.80158871927e-09
3.98088443475e-08
6.37549647562e-08
2.45331829859e-08
2.8672324131e-08
6.75996069077e-08
4.07062529656e-08
1.47455638221e-07
9.82599304932e-08
3.19746288293e-08
4.37034532261e-08
5.24656488355e-08
9.12626666612e-09
2.85881023127e-08
1.73748259322e-08
5.24081905827e-08
9.64526492305e-08
4.42008263183e-08
1.54919578717e-08
1.50920582473e-08
1.22522496528e-08
3.50763233043e-08
2.94779052431e-08
5.63273159528e-08
8.7491130103e-09
1.84885515425e-09
7.57951695065e-09
3.07847804453e-08
2.22850407949e-08
2.58675637755e-08
7.75760107928e-08
5.77649683917e-08
2.97859354193e-08
3.86234889239e-07
1.31472390425e-07
3.63674120823e-08
9.74254332061e-08
5.44329739905e-09
1.46690354663e-08
1.48311869204e-08
4.11271146419e-08
1.18804519958e-08
1.02098152652e-08
8.04576327569e-08
4.11696934373e-08
1.27292992519e-08
1.00966505059e-09
1.10232219639e-08
6.591465499e-08
1.74036654149e-07
7.9667553796e-08
6.78307670617e-08
5.03699936582e-08
1.0469705721e-07
5.27406128514e-08
3.36692703115e-09
7.02887766897e-08
2.83534433948e-08
1.13650294191e-07
2.44454894842e-08
7.80470184234e-08
2.95889342812e-09
3.86404094375e-08
6.03333690819e-08
5.72714746174e-08
3.46019922929e-08
2.86411548463e-08
5.17915122958e-09
1.67335099764e-08
6.81349258327e-09
5.79002716016e-08
2.96880918831e-08
3.29715550505e-08
1.68523562613e-07
1.88785078735e-09
9.97590597807e-08
4.66613943118e-08
1.43344046003e-07
7.50219416347e-08
5.26106821834e-09
3.98356383551e-08
3.38603468777e-08
2.08150407835e-08
2.10093150048e-08
8.99911124549e-09
1.95139788765e-08
2.31580994168e-08
1.84896169654e-08
1.71735088837e-09
9.52563928743e-09
2.13699871255e-08
6.91701329937e-08
8.51730695163e-08
2.28308777132e-07
1.29050090774e-08
3.47421593872e-07
1.45518656074e-07
5.19152375139e-07
7.59232610603e-07
1.27706502256e-06
1.34887052385e-06
2.85214684901e-07
2.92248919881e-07
6.70778944164e-08
3.79165004379e-08
1.53510028912e-07
5.94186219145e-08
6.69872392228e-08
3.00576997553e-07
2.05967504256e-07
1.77233232488e-07
4.44383778699e-08
9.21581537254e-09
1.76778158318e-09
5.34615235873e-07
8.07295231483e-07
1.19667621429e-07
9.33605747888e-08
1.10466772212e-07
1.7525331204e-08
4.1045713126e-09
1.50440603191e-08
1.87967251141e-08
3.47631124811e-09
4.92466875507e-09
5.09791534042e-09
5.51516166524e-08
4.08882261148e-09
1.83953292113e-08
3.00519500609e-08
2.44034786839e-08
2.07098416124e-08
1.02634226462e-08
1.61587894956e-08
5.99528832468e-09
1.95365139281e-09
1.53413039055e-08
1.09267696679e-07
3.75133970739e-09
1.66674262893e-07
5.68872658457e-07
1.61574147107e-09
8.35802822523e-07
2.40393665887e-07
1.88577725739e-07
1.06718502786e-07
2.36128550616e-07
2.6498102594e-07
5.24545422649e-07
5.87374752901e-07
5.21941253402e-07
1.14718662102e-06
5.01665748208e-07
2.15312596225e-07
9.52127168706e-07
1.93557113693e-07
9.94975557217e-08
1.46996031033e-07
1.56430226351e-07
1.948438672e-08
9.88865234305e-08
4.55300362934e-07
2.00027293631e-07
8.15913766531e-07
3.518695933e-07
1.85433934729e-07
5.97665620493e-07
7.78949173713e-09
4.31264644829e-08
5.75791250823e-10
1.40557704143e-08
2.04807891951e-08
6.22991124673e-09
1.53017972263e-08
2.34153943534e-08
1.3369851766e-08
9.45281166281e-09
5.61514688469e-09
5.51374207181e-09
1.57894479722e-08
9.50463568527e-09
2.57589029619e-08
8.5111855073e-08
2.0981262228e-08
8.53959775002e-09
1.40656784085e-08
2.09103687332e-09
3.83951714391e-09
1.62421436549e-08
2.99465368629e-08
3.73614494373e-08
1.3826717309e-08
5.97403767595e-08
7.10709273554e-08
3.07306342949e-08
1.85275519785e-08
5.12986766129e-09
8.32194444275e-08
6.4903807262e-08
1.06700172516e-07
1.75568208674e-07
3.26294613931e-08
1.1460044616e-08
5.7933857034e-08
3.09271964558e-07
5.92663255406e-08
1.4426933801e-08
1.02178659182e-07
7.69278113232e-08
3.64377262548e-08
2.873406398e-07
1.80546880368e-07
2.59143313815e-08
2.69081350804e-07
3.54222148185e-08
1.77161464695e-08
7.63006514086e-08
3.07204919937e-08
1.05585938353e-07
1.65599012162e-08
1.9222131944e-08
4.05022575226e-08
4.03186046138e-08
1.97164183886e-08
5.49326641636e-09
1.1533256402e-08
2.18652672686e-08
2.15374908135e-08
3.58862089242e-09
4.92053620637e-09
1.1869537463e-09
1.27803820133e-08
1.0578867127e-08
6.72177515473e-09
1.5364308037e-09
2.60882285061e-08
1.75793522218e-08
2.23833625455e-08
7.49263704769e-09
2.73201734805e-09
9.30811895854e-09
4.74398709543e-10
4.39483081423e-09
4.2915878287e-08
1.60537621006e-08
6.94471269509e-09
1.15545386471e-08
2.10652963897e-08
1.62422832733e-08
2.9166303368e-09
1.84615488174e-08
3.97760607263e-08
1.26887956169e-08
3.81156747854e-08
1.07730072655e-08
3.71650796827e-09
1.56094443894e-08
1.50119015355e-08
1.91351138395e-09
1.37433744149e-08
3.08693598046e-09
1.56436689876e-09
9.21187296896e-09
1.44797645316e-11
8.65882965795e-10
1.76919969407e-09
2.0028918529e-09
9.33022179706e-09
1.17094707746e-09
1.55158278503e-10
4.17459678233e-09
1.39704703436e-08
9.29891123863e-09
5.47238738279e-09
5.04486229214e-09
1.14311427457e-08
4.82353708853e-10
5.99289513023e-09
9.96153557873e-09
1.90481627785e-08
2.08421597359e-08
4.53182372992e-09
4.5833365163e-07
1.98211059881e-07
4.53407422026e-07
3.58255012262e-07
8.31346934333e-09
8.37106088765e-09
8.23369806672e-09
2.25213670689e-09
4.81708631394e-08
3.82104334878e-08
3.32002239908e-08
2.81787245001e-08
1.00384976438e-08
6.11446501561e-09
8.66235058242e-09
3.74522018868e-09
5.0636466888e-08
5.32869454933e-08
2.71958857401e-08
1.38060842918e-08
2.43411364206e-08
8.94827213786e-09
7.96736817053e-08
6.87533483815e-09
2.08594012846e-09
1.2516228108e-07
6.41612591504e-08
4.53112250217e-08
2.04238225238e-07
1.95313624364e-07
6.00894166166e-08
3.77203774132e-08
1.95367477357e-07
3.67234135297e-07
9.07755123505e-08
1.89728147132e-07
1.24900696367e-07
1.01680460711e-08
1.43701944541e-08
8.30014293878e-08
9.34040590061e-08
2.48051053158e-08
2.35920915175e-08
1.12697685935e-08
1.65852176207e-08
4.40763518371e-08
6.2251906794e-09
1.09637433953e-09
2.4141509787e-08
2.23925274534e-09
2.20891395541e-10
9.39781111e-09
1.22172435782e-08
2.81046309657e-09
6.99065052647e-09
2.65290112463e-09
4.312591937e-09
1.02658507742e-08
3.87869077125e-09
1.37821730814e-08
4.32241445727e-10
5.1075852178e-09
1.96888970408e-08
3.22921474383e-09
1.96170518156e-09
3.87753714257e-09
9.33323852287e-09
6.31325669557e-09
2.20974088805e-09
2.94342939893e-09
2.31517582241e-09
3.75842215808e-08
6.99478664551e-08
6.45873000056e-08
1.25059296226e-08
3.87609615435e-08
8.50590047779e-08
3.31493554807e-08
2.18801971637e-08
3.53047778328e-09
3.96203604129e-08
6.8279640663e-09
5.19502506872e-09
3.69369528238e-09
3.62546359193e-08
6.39018065352e-08
1.34187906272e-07
1.13388282655e-07
3.76439462914e-08
1.34774511391e-08
6.4171894083e-08
2.04158510244e-08
5.82534443014e-08
8.01216927663e-08
1.11187341169e-07
1.13734187282e-08
1.13598837744e-08
2.26788994038e-08
6.21348670229e-08
2.31227740506e-08
1.96765557661e-08
1.04002695711e-08
8.50422173016e-08
4.28129744816e-07
7.01264861075e-08
2.40802499154e-07
3.19609349159e-07
9.63528326733e-07
1.48045492082e-08
8.86808784686e-08
1.60727681265e-08
5.42656713313e-08
1.133726507e-08
1.08596208374e-08
3.15290633121e-08
6.07075345893e-07
2.69129592396e-07
4.72200696842e-07
3.36936327827e-07
1.54294168971e-08
1.09051867811e-08
1.17356802787e-08
8.26717007152e-08
1.01443061283e-08
9.61413157791e-09
5.83035149362e-09
2.02523827563e-08
4.09191159513e-09
4.73882222287e-09
5.15335698208e-09
5.12839097567e-10
1.50546412021e-09
2.9465979151e-09
1.19213103792e-09
5.06437097289e-11
2.05069076568e-09
6.64606420817e-10
1.51516073701e-09
1.03858122601e-09
2.27247458779e-09
4.63255771528e-10
1.66299250989e-09
7.32420175027e-10
5.39998914984e-09
3.55222313389e-09
4.16029948509e-10
3.45268306012e-09
3.83231462044e-09
1.76476251233e-09
1.32250759285e-09
1.70240967321e-10
1.48042729104e-09
1.02178669322e-10
4.6402614695e-10
5.51937681338e-10
2.06760286832e-09
5.79341322012e-09
5.46359263194e-09
6.93956618722e-10
1.35243423266e-09
9.90590959418e-09
2.11656210955e-09
2.13642391555e-09
4.5151240013e-09
7.47765386364e-09
1.25418651672e-09
1.56049986732e-08
7.08343909902e-09
1.28837102705e-09
4.91703933812e-09
6.46583197756e-09
1.48375398369e-08
4.2503450943e-09
1.81479419091e-08
4.88084033446e-09
2.64735261169e-09
1.64630723998e-08
1.20903125509e-08
1.47002323017e-08
1.18887653979e-08
1.52738004354e-08
6.48394371366e-09
8.93719683034e-09
3.02215767454e-09
5.30551568485e-10
1.48612790362e-08
1.29399676779e-08
1.26269887946e-09
9.99139111171e-09
8.18848155561e-10
5.57267708232e-09
1.33618219304e-08
7.63564074342e-09
1.34061349434e-08
4.42975576961e-08
2.75656906343e-08
2.08748502206e-08
1.29114622231e-08
2.47111839482e-08
1.43630379958e-08
3.36144326731e-09
1.20223618484e-08
1.97347464076e-08
2.4170316323e-09
3.32823028873e-09
2.46364454902e-08
1.36262218191e-09
5.30502704298e-08
1.61061765988e-08
6.16303585879e-09
3.36420643459e-09
2.65888204752e-09
4.03329129666e-08
2.45402592219e-08
6.08389711781e-08
3.98398693689e-09
5.78198816569e-09
1.2039868296e-08
3.24896549433e-08
9.23531205603e-08
2.4795767092e-08
7.37625883188e-08
5.00309449076e-08
8.86477290725e-08
2.89257032731e-08
3.92231314635e-08
1.33586714411e-08
1.74835149108e-08
4.60201575563e-08
1.33603653989e-08
1.0534338895e-08
5.04853070735e-10
7.42752305405e-09
3.63289076542e-09
6.38432307769e-10
3.96134304922e-09
3.6091836549e-09
5.08627452591e-09
1.06757476427e-09
3.96561186537e-10
2.4473187828e-09
1.99329476752e-10
3.20127455923e-10
9.61585339409e-09
8.83988656436e-10
4.89703385539e-09
9.43528829063e-09
1.4825002267e-08
1.69165739685e-09
2.03740791102e-09
2.28809677242e-09
2.18401260078e-09
9.03500795563e-09
1.05950537889e-09
1.17093509922e-08
7.9528747453e-10
6.45434017111e-09
3.57541632596e-08
1.5304367754e-08
1.16916490688e-08
2.03258214429e-09
3.98759784025e-09
2.09383487767e-07
2.72827482019e-08
1.46021629346e-08
7.12134975522e-08
4.07224336428e-09
3.16035792001e-08
2.64837059466e-09
1.44871916923e-08
2.91196048713e-09
1.09860468864e-08
1.44206720261e-09
3.00552247491e-09
5.12582551112e-09
1.00857034387e-09
1.89821683541e-10
2.44754106031e-09
3.11500923523e-10
3.94735886535e-09
1.57414640686e-10
7.80342879155e-10
7.90379808271e-10
7.90571164548e-10
1.47291407406e-09
2.60887008348e-10
1.14530881037e-09
1.15840074987e-09
3.09591502419e-10
9.91188671073e-10
1.40402448619e-09
5.44900952222e-09
5.532550893e-10
1.08280235741e-08
5.05339745943e-09
3.89513981645e-09
2.59679535568e-09
2.73149654491e-09
1.3834161592e-09
2.33973812289e-09
1.98702616932e-09
3.27141187917e-09
2.9430997127e-09
3.2636790834e-09
2.07058837294e-09
5.74684304375e-09
2.64209487205e-09
8.30474907281e-09
7.69261568599e-10
1.57800471777e-08
8.57001076291e-09
2.76990813085e-09
9.00153274517e-09
1.72799463517e-09
6.87122594309e-09
5.0665968222e-09
9.6373959645e-09
1.27616759987e-08
1.02582912825e-08
3.05428562404e-09
2.71200733509e-09
1.24097556477e-09
4.07181149413e-09
2.05302295226e-09
7.04613503017e-10
1.56214178108e-09
2.82081723455e-09
2.65180896196e-09
6.89171101379e-09
1.02610019802e-08
1.31920119056e-08
3.11538029752e-10
1.60120242303e-09
5.79004863373e-10
2.91434286654e-09
1.44810923133e-09
1.14371642172e-10
2.28557785862e-09
7.83925869543e-10
2.14120485163e-09
3.6875826818e-10
1.14710462799e-09
4.03081546306e-09
4.09053544762e-09
1.25895720867e-09
2.87753939167e-09
2.75517695872e-09
2.3538306593e-09
2.78738243711e-09
5.24843417657e-11
9.12820822182e-10
2.94532980661e-09
3.85406510455e-09
1.15581720702e-08
1.52362418107e-08
4.37127890982e-09
1.77442881317e-08
2.73114882343e-08
1.0612490282e-09
4.09891947856e-08
8.73239628209e-09
4.21604105445e-09
3.1689713928e-09
8.21749960969e-09
3.72210456163e-11
3.55995080728e-09
2.28285218255e-09
2.45622060645e-09
1.9734192867e-09
1.94952237412e-09
1.83758235373e-09
3.39138307883e-09
2.32656834479e-09
1.27453880476e-09
5.67214769154e-09
1.63210703578e-09
1.72576975271e-09
6.64438099212e-09
2.02109375734e-09
2.03912646992e-08
4.22235981506e-08
6.24810306615e-09
2.94951229502e-07
6.28694412549e-08
6.2337104315e-08
1.27090594448e-08
1.14778588144e-07
3.12823396109e-08
3.75577800701e-07
2.25501943298e-07
4.36595355883e-08
4.70451720363e-07
3.63039173357e-07
2.03767374457e-07
3.04447345944e-07
2.32942011998e-08
6.17677286812e-08
3.9561863457e-09
1.88260711775e-08
6.70180052016e-09
6.32306790087e-08
3.28129865879e-08
1.32387991301e-07
1.22407898677e-07
8.83180418227e-08
2.66343517744e-07
1.65682726398e-07
1.88234608715e-07
1.26059486563e-07
9.67520243956e-08
8.84991178623e-08
1.25364256889e-08
1.49397197672e-09
7.05175817188e-09
3.4032417246e-09
3.32314268575e-09
3.57442494802e-08
2.67736314952e-08
5.30031206136e-08
6.12603060428e-08
1.73682798249e-08
7.10103898751e-08
2.48115909263e-08
4.52451544697e-08
2.2939750379e-08
2.45313277672e-08
8.07122403997e-10
1.63306093443e-09
2.01000685911e-09
1.10321829074e-08
5.80145479118e-09
1.14049429707e-08
1.20130474785e-08
1.24685190109e-08
8.32933899882e-09
1.13922421191e-08
3.23670145575e-09
6.84134910242e-09
3.95635497554e-08
1.07666414937e-08
6.25198733537e-09
2.45373578835e-09
6.18013610044e-09
1.81513151094e-09
1.56670920016e-07
3.69806999728e-09
1.81496913865e-07
3.86585783687e-08
9.76115775318e-08
8.04809607154e-09
4.53685833427e-08
2.18991167124e-08
3.53419635495e-08
3.48191818204e-10
2.67158079497e-08
4.23575117862e-08
4.97652749641e-08
8.31473889023e-08
6.29531695047e-08
6.34351577709e-08
8.33758417929e-08
3.15080897862e-07
6.14343866092e-08
1.48682337211e-07
3.77551357334e-07
3.88807793531e-07
5.62704616643e-07
2.96014042651e-07
2.36149388546e-07
1.18379598138e-07
5.02935147546e-08
3.61479781965e-08
1.39354534302e-08
1.3486258322e-08
5.74033555807e-09
8.96658465743e-09
9.07588241716e-09
5.13747175383e-09
2.50644058845e-08
2.56477468221e-08
5.43358528668e-08
3.87397469941e-08
3.11361999649e-09
7.32440483747e-08
1.04146198229e-07
9.1624406134e-08
2.08881926691e-08
1.53195754069e-07
6.07615009746e-08
6.27428823149e-10
8.80693016782e-09
2.89322380268e-08
1.67145553277e-09
8.41823606274e-09
1.10243787438e-09
2.2211325393e-10
4.92847137901e-09