# vtk DataFile Version 3.0
File Name: Molecule/arg/arg_0.5-4.vtk
ASCII
DATASET UNSTRUCTURED_GRID
FIELD FieldData 1
TIME 1 1 double
0.0
POINTS 161 double
-3.4393291473 0.24424605072 1.4261804819
-3.0825078487 -0.12032164633 0.48087418079
-3.0079660416 -0.55181008577 1.50928545
-2.5453591347 -0.98781055212 0.5525636673
-2.9734363556 0.084350667894 -0.024264600128
-2.4941592216 -0.46612110734 0.14383943379
-2.2400000095 -0.46966663003 -1.0743333101
-2.2102108002 -0.46873492002 -0.88802051544
-2.3955111504 -0.24109943211 -1.1657817364
-2.3761413097 1.068847537 -1.4341255426
-2.8102047443 1.7142310143 -0.44231030345
-2.3203291893 1.8828605413 -0.61207151413
-1.9594326019 1.4543049335 -1.5118142366
-1.7040193081 1.9221020937 -1.0925848484
-2.5479969978 2.6206736565 0.48850265145
-1.7565515041 2.4963326454 -0.61883944273
-1.4317513704 3.2421851158 0.08320312202
-3.1706573963 2.3026649952 1.4964078665
-1.8582077026 3.3299031258 1.4768764973
-2.4520506859 3.0961148739 2.2011210918
-2.9263379574 2.1731767654 2.7320165634
-2.7086536884 2.5551095009 2.3772685528
-3.4145555496 1.7895612717 1.8225958347
-3.1567087173 0.75850188732 3.0689737797
-3.0986995697 1.7788848877 3.0400562286
-3.3838441372 0.77515673637 1.9654070139
-3.0430078506 0.41432949901 2.2852032185
-3.1102502346 0.12676173449 1.8789178133
-2.8958892822 0.2820264101 2.9464762211
-2.875385046 0.03830357641 2.278138876
-2.9993679523 -0.2140583396 1.8626967669
-2.5003712177 -0.72415715456 2.4243440628
-2.467625618 -0.06312738359 3.5594213009
-1.9729648829 -1.2464979887 3.4540703297
-0.97527515888 -2.2554209232 2.0957641602
-1.6210528612 -1.6897672415 1.2425427437
-0.95319664478 -2.2283420563 0.28426298499
-1.9904875755 -1.1831768751 -0.12843975425
-2.2948806286 -0.31430929899 -0.47346538305
-2.0519752502 -0.77766919136 -0.79637253284
-1.9334601164 -1.2750267982 -0.99495398998
-2.0832700729 -0.70863342285 -1.2134552002
-1.6797360182 -1.5696951151 -1.5862184763
-2.1938529015 -0.50834274292 -1.7743760347
-1.7572475672 -0.7725508213 -2.0517730713
-1.5463784933 0.14024616778 -2.7147469521
-2.1234130859 0.21077746153 -2.3756477833
-1.8644003868 0.96656560898 -2.3617253304
-1.0602687597 0.56352066994 -3.3912732601
-1.645983696 1.4253768921 -2.174590826
-1.2406097651 1.6073716879 -2.8491017818
-1.1244853735 2.0665302277 -2.168571949
-1.5006879568 1.8239867687 -1.7055696249
-1.3188098669 2.4120044708 -1.2738015652
-0.42465254664 2.6026334763 -2.430560112
-0.80571764708 3.0141034126 -1.2804934978
0.7872517705 2.7018861771 -1.7208412886
0.7039360404 3.4051625729 -2.7450602055
-0.019638098776 3.2494206429 -2.8436713219
0.43438312411 3.2976608276 -0.65799731016
1.0696343184 2.4611246586 -0.48290890455
1.5526510477 2.0193071365 -1.2133816481
0.94109719992 2.7872633934 0.29448893666
1.5392706394 1.916577816 0.063086368144
1.2142747641 2.2115745544 1.0396630764
0.38904237747 3.0997068882 0.83919394016
0.56697970629 2.7667865753 2.2703256607
-0.17235782743 3.3986401558 2.033880949
-0.5996991396 3.2838470936 3.5227327347
0.22233504057 2.7120432854 3.9205789566
-0.65373802185 2.7078535557 4.0057644844
-1.8964246511 2.7196080685 3.8603050709
-2.0243501663 3.2586400509 3.3791766167
-2.2873771191 2.6578547955 3.5958964825
-0.54074013233 1.8117418289 4.5380277634
-1.0625230074 2.0934271812 4.4104323387
-2.4452803135 2.2284460068 4.1068129539
-1.5742408037 1.7535427809 4.5588684082
-0.27040722966 1.0666433573 4.781373024
-1.0928587914 1.0924082994 4.605919838
-0.60056245327 0.16437327862 4.8122377396
-1.6596221924 0.71449309587 4.6339035034
-1.0417901278 -0.47770452499 4.7475361824
0.13153631985 -1.2010164261 5.0743603706
0.34966653585 -0.47182103992 5.1843047142
0.9230375886 -2.4430177212 3.9248092175
1.257288456 -0.82538557053 5.3315563202
2.0231790543 -2.0641198158 4.1202793121
1.0172842741 -1.8574728966 2.1418623924
1.991833806 -2.027176857 3.1259608269
0.95525020361 -1.78662467 0.51969861984
1.3891551495 -1.1749159098 0.20352494717
1.792724371 -1.3931568861 2.1281347275
2.3357157707 -0.47637557983 1.9253561497
1.7023729086 -0.12320136279 0.84693926573
1.7626203299 0.20796380937 -0.21220447123
1.6837174892 -0.79262650013 -0.80908131599
1.0945954323 -2.0144340992 -1.8220388889
1.6647280455 -1.3808116913 -2.6685810089
2.192677021 -0.17524975538 -1.447163105
-0.41978594661 -1.5676749945 -2.5334606171
0.13440561295 -0.80385041237 -3.4078710079
-0.99361294508 -1.2819913626 -2.4370889664
-0.39319747686 -0.74127066135 -2.9956026077
-0.6075373292 -0.28696981072 -3.3352155685
-1.1050969362 -0.58407777548 -2.696305275
-0.025346022099 0.56101572514 -4.0401406288
0.55084806681 0.40424540639 -4.2394385338
-0.40910103917 1.9272422791 -3.5824518204
0.37023314834 1.3390681744 -4.3981256485
0.12162078917 2.0214726925 -4.1228647232
-0.00095744431019 3.0044233799 -3.6488521099
0.92535042763 2.212066412 -4.0293283463
0.46049189568 3.1443784237 -3.8704338074
0.92874103785 3.0777957439 -3.6694917679
1.1240388155 3.1335439682 -2.9293317795
1.6383607388 2.6293334961 -3.2629182339
1.6571627855 2.6945402622 -2.5530819893
1.2652821541 2.5894033909 -2.165179491
2.1876914501 2.1686570644 -2.5190508366
2.1224014759 1.6293100119 -1.9606202841
2.4123294353 1.3016313314 -2.3183908463
2.3888573647 0.71823769808 -1.6830052137
2.0348203182 0.89388883114 -1.2034169436
1.9738214016 0.92822253704 0.015598936006
1.8466442823 2.0345976353 -3.416261673
1.9558575153 1.1738147736 -3.8939144611
1.1785932779 1.6380376816 -4.188852787
1.8859478235 1.3147822618 1.345818162
2.5338900089 0.95700830221 2.5767276287
1.8688395023 1.6742306948 2.4460589886
1.2879472971 2.3144755363 2.1377568245
0.69418174028 1.6459083557 4.708158493
0.59407150745 0.86164200306 4.9782538414
-0.061520513147 0.41026064754 5.0363664627
1.3410428762 0.77776694298 5.0744252205
-3.9357469082 1.1856410503 0.81496798992
-1.7135064602 3.9046456814 2.5082461834
-2.7305867672 1.4772925377 4.4128360748
-1.1200832129 -1.9594296217 4.6341209412
0.768242836 -2.6407339573 -0.8433021903
1.2860110998 2.5797464848 3.3184773922
3.6530983448 -0.40837600827 3.6049098969
2.7949068546 0.50625747442 5.0105190277
2.7580969334 -1.1267431974 5.0480337143
3.1294426918 -1.1336456537 2.7021269798
3.3372657299 0.41986548901 2.9563033581
2.1529657841 0.64819079638 5.2114672661
2.1004760265 -0.50133395195 -3.9910261631
-0.017012774944 -2.9220399857 2.9132509232
-1.3301063776 -2.5504028797 3.399749279
-0.19808454812 -2.5558013916 4.4484906197
2.1491994858 1.45665133 4.0840172768
3.0094556808 1.0549186468 4.0264878273
0.9740473032 3.4156513214 -3.2976667881
-0.0048652552068 3.4377965927 -3.1344065666
3.1275291443 -1.5959825516 3.8577799797
1.3108695745 2.1793441772 4.0660319328
2.0900597572 1.6447893381 3.3391473293
2.8880062103 1.1084320545 3.2356283665
3.4907557964 0.46098580956 3.8495280743

CELLS 318 1272
3 0 1 2
3 2 1 3
3 1 4 5
3 6 7 8
3 8 4 9
3 10 9 4
3 10 11 9
3 12 11 13
3 11 14 15
3 15 14 16
3 14 17 18
3 18 17 19
3 20 21 22
3 17 22 21
3 23 24 25
3 22 25 24
3 26 25 27
3 0 27 25
3 23 26 28
3 29 28 26
3 29 27 30
3 2 30 0
3 2 31 30
3 28 31 32
3 33 31 34
3 35 34 31
3 36 35 37
3 3 37 35
3 3 5 37
3 5 38 37
3 37 39 40
3 40 41 42
3 41 7 6
3 38 8 7
3 8 43 6
3 44 42 41
3 45 44 46
3 43 46 44
3 46 47 45
3 45 47 48
3 9 12 47
3 49 47 12
3 50 49 51
3 52 51 49
3 52 13 53
3 53 13 15
3 54 51 55
3 53 55 51
3 55 56 54
3 57 58 56
3 59 60 56
3 56 60 61
3 60 62 63
3 63 62 64
3 62 65 64
3 65 66 64
3 65 16 67
3 67 16 18
3 67 68 66
3 66 68 69
3 70 68 71
3 72 71 68
3 71 72 73
3 19 21 72
3 69 70 74
3 75 74 70
3 76 77 71
3 73 76 71
3 76 73 24
3 20 24 73
3 78 74 79
3 77 79 75
3 79 80 78
3 81 80 79
3 81 32 82
3 82 32 33
3 83 84 82
3 80 82 84
3 83 85 86
3 86 85 87
3 85 88 89
3 88 34 90
3 90 34 36
3 90 91 92
3 93 92 94
3 94 91 95
3 96 95 91
3 97 98 96
3 99 96 98
3 97 100 98
3 98 100 101
3 100 102 103
3 104 103 105
3 105 102 44
3 42 44 102
3 105 45 104
3 104 45 48
3 106 101 104
3 101 106 107
3 106 108 109
3 109 108 110
3 108 54 111
3 111 54 58
3 112 110 113
3 114 115 116
3 116 115 117
3 115 57 118
3 118 57 56
3 117 118 119
3 120 119 118
3 121 120 122
3 123 122 120
3 123 61 124
3 124 61 63
3 124 95 123
3 95 99 123
3 119 121 125
3 126 125 121
3 126 107 127
3 127 107 109
3 127 112 125
3 125 112 116
3 94 128 93
3 93 128 129
3 130 128 131
3 64 131 128
3 132 78 133
3 133 78 134
3 133 84 135
3 135 84 86
3 27 0 30
3 38 5 4
3 4 8 38
3 12 9 11
3 15 13 11
3 18 16 14
3 21 19 17
3 24 20 22
3 26 23 25
3 28 29 31
3 33 32 31
3 36 34 35
3 39 37 38
3 39 41 40
3 43 44 41
3 50 48 47
3 49 50 47
3 53 51 52
3 58 54 56
3 59 56 55
3 63 61 60
3 131 64 66
3 67 66 65
3 70 69 68
3 74 75 79
3 134 78 80
3 82 80 81
3 86 84 83
3 90 92 88
3 91 94 92
3 99 95 96
3 103 101 100
3 102 105 103
3 109 107 106
3 111 110 108
3 116 112 114
3 118 117 115
3 121 119 120
3 122 123 99
3 127 125 126
3 130 129 128
3 133 135 132
3 0 25 136
3 0 136 1
3 4 1 136
3 4 136 10
3 10 136 14
3 10 14 11
3 14 136 17
3 17 136 22
3 22 136 25
3 5 3 1
3 2 3 35
3 2 35 31
3 29 30 31
3 7 41 39
3 7 39 38
3 9 46 8
3 43 8 46
3 41 6 43
3 47 46 9
3 13 52 12
3 12 52 49
3 16 65 59
3 16 59 55
3 16 55 15
3 53 15 55
3 59 65 62
3 59 62 60
3 72 68 137
3 72 137 19
3 19 137 18
3 18 137 67
3 67 137 68
3 75 71 77
3 21 73 72
3 73 21 20
3 71 75 70
3 138 23 32
3 23 138 24
3 24 138 76
3 76 138 77
3 79 77 81
3 138 81 77
3 81 138 32
3 28 32 23
3 27 29 26
3 33 139 82
3 82 139 83
3 37 40 36
3 36 40 42
3 36 42 140
3 36 140 90
3 90 140 91
3 91 140 96
3 97 96 140
3 97 140 100
3 100 140 42
3 100 42 102
3 45 105 44
3 51 54 50
3 50 108 48
3 48 108 106
3 48 106 104
3 103 104 101
3 108 50 54
3 61 123 120
3 61 120 118
3 61 118 56
3 64 128 63
3 63 128 124
3 95 124 94
3 128 94 124
3 131 66 141
3 132 69 74
3 132 74 78
3 80 84 134
3 134 84 133
3 142 143 144
3 145 93 146
3 86 144 147
3 144 86 87
3 101 107 148
3 101 148 98
3 98 148 99
3 121 122 148
3 99 148 122
3 121 148 126
3 126 148 107
3 110 112 109
3 109 112 127
3 117 119 116
3 116 119 125
3 85 149 88
3 88 149 34
3 34 149 150
3 149 151 150
3 149 85 151
3 150 151 139
3 34 150 33
3 150 139 33
3 139 151 83
3 83 151 85
3 135 152 132
3 147 143 152
3 153 152 143
3 147 152 135
3 143 147 144
3 147 135 86
3 92 89 88
3 85 89 87
3 111 113 110
3 112 113 114
3 114 154 115
3 115 154 57
3 57 155 58
3 58 155 111
3 114 113 154
3 113 155 154
3 113 111 155
3 154 155 57
3 87 156 144
3 144 156 142
3 142 156 145
3 156 89 145
3 156 87 89
3 145 89 92
3 145 92 93
3 152 157 132
3 132 157 69
3 69 141 66
3 131 141 130
3 130 141 158
3 141 157 158
3 141 69 157
3 158 157 152
3 130 158 129
3 129 158 159
3 129 159 146
3 159 160 146
3 159 153 160
3 146 160 142
3 142 160 143
3 160 153 143
3 153 159 152
3 152 159 158
3 129 146 93
3 145 146 142

CELL_TYPES 318
5
5
5
5
5
5
5
5
5
5
5
5
5
5
5
5
5
5
5
5
5
5
5
5
5
5
5
5
5
5
5
5
5
5
5
5
5
5
5
5
5
5
5
5
5
5
5
5
5
5
5
5
5
5
5
5
5
5
5
5
5
5
5
5
5
5
5
5
5
5
5
5
5
5
5
5
5
5
5
5
5
5
5
5
5
5
5
5
5
5
5
5
5
5
5
5
5
5
5
5
5
5
5
5
5
5
5
5
5
5
5
5
5
5
5
5
5
5
5
5
5
5
5
5
5
5
5
5
5
5
5
5
5
5
5
5
5
5
5
5
5
5
5
5
5
5
5
5
5
5
5
5
5
5
5
5
5
5
5
5
5
5
5
5
5
5
5
5
5
5
5
5
5
5
5
5
5
5
5
5
5
5
5
5
5
5
5
5
5
5
5
5
5
5
5
5
5
5
5
5
5
5
5
5
5
5
5
5
5
5
5
5
5
5
5
5
5
5
5
5
5
5
5
5
5
5
5
5
5
5
5
5
5
5
5
5
5
5
5
5
5
5
5
5
5
5
5
5
5
5
5
5
5
5
5
5
5
5
5
5
5
5
5
5
5
5
5
5
5
5
5
5
5
5
5
5
5
5
5
5
5
5
5
5
5
5
5
5
5
5
5
5
5
5
5
5
5
5
5
5
5
5
5
5
5
5
5
5
5
5
5
5
5
5
5
5
5
5

CELL_DATA 318
SCALARS cell_data_0 double
LOOKUP_TABLE default
1.69605225244e-07
4.56852607649e-08
1.67470641387e-08
2.73124847256e-08
4.93805554591e-08
3.36037566213e-07
5.66333041451e-07
4.19719793678e-08
3.0863657606e-07
3.01520791273e-07
9.72393282457e-08
6.029169094e-08
2.97486421802e-08
2.6562956396e-08
5.77579811917e-08
4.87089903881e-08
5.708915748e-09
2.50904623939e-08
2.26593436479e-08
1.93794821633e-07
7.96766995909e-08
7.31992303846e-08
2.50845280769e-07
6.39563384154e-07
4.31028189976e-06
2.91123916912e-07
1.04874215425e-08
2.87532748696e-07
2.9071172507e-07
3.09552011578e-07
1.69692685633e-07
3.75479539401e-07
4.75324668706e-08
1.85882277568e-07
1.16946943396e-07
2.67683936535e-07
3.99823996551e-08
2.95599346102e-07
1.02149622594e-07
4.83534712613e-09
2.37636731379e-07
3.30806576824e-07
1.36607877704e-07
2.90822414122e-07
9.24828249698e-08
9.33436292855e-08
1.28014063187e-06
3.63054233314e-07
3.02580559086e-06
2.12331443163e-06
8.4491947792e-07
8.71087608899e-07
9.45942763042e-08
8.26876587605e-09
7.50339470278e-08
1.86909706014e-07
2.78508872407e-07
3.44341477934e-08
2.46749283715e-07
9.91437313716e-07
3.08234952321e-08
6.50026046436e-08
7.45742000428e-08
1.82071700262e-07
1.25236284184e-08
3.74915718274e-08
6.81206551722e-08
6.85506130301e-08
1.0294420538e-08
7.50997344455e-08
5.22882167575e-08
3.30986478604e-08
2.82653267591e-08
2.01720881958e-08
1.67784264277e-06
4.33768924942e-08
1.2768248368e-07
1.71906138182e-07
1.19311956733e-05
2.9328606522e-05
1.35932924053e-05
1.82884148877e-06
1.6835924581e-06
1.64160148932e-07
1.0024183797e-07
7.69973954659e-07
5.95124935464e-07
6.4212425162e-06
7.4820702002e-06
4.58936360727e-06
1.51827590657e-06
1.38503761351e-07
6.64535602281e-08
1.82011488902e-07
3.55916897416e-08
1.35694215863e-07
4.41953587328e-07
2.33788285843e-06
1.24231053383e-06
1.77205861049e-05
1.99573514521e-06
1.23433682552e-06
2.83310321171e-06
9.01782014927e-06
1.0737915646e-06
2.71483848583e-06
2.09547148035e-06
1.9150244853e-06
2.97137597593e-07
1.36562838963e-05
2.35833086039e-06
8.78103066892e-07
9.97889367271e-07
9.73610821287e-08
6.63471566068e-07
1.94020931008e-06
5.23171214989e-06
6.7741596256e-06
5.98277290551e-06
1.5633617043e-05
4.25753523042e-06
5.73640720943e-06
4.104801963e-07
3.73469114679e-07
2.45157699252e-06
4.45473114107e-07
8.62835988767e-08
4.22207187988e-08
1.33236990975e-07
4.05738486634e-07
1.02020924586e-08
8.8563869226e-08
1.12435198765e-06
1.22042673782e-07
1.67608750938e-07
3.84394156908e-07
9.92419317178e-08
8.82844339252e-08
2.36804504028e-07
7.57372807528e-08
2.8863318034e-06
2.63162917141e-06
1.19209035331e-07
9.25146154278e-08
3.49794170437e-07
5.87674983509e-07
4.0015079905e-07
1.33666884398e-08
6.77299137438e-07
4.31028042571e-07
2.99240177517e-07
9.83078800891e-07
4.57639736637e-07
1.01109389187e-07
1.92262711224e-08
9.9406599199e-08
1.74952138257e-07
2.36736206019e-07
3.43806067425e-06
2.176295765e-07
2.1602058114e-06
1.6478746356e-07
1.69360907929e-07
1.26465558995e-05
2.47672603668e-06
3.10448283778e-06
7.56008334725e-07
5.55823070426e-06
2.23975557847e-06
1.33563520439e-06
1.94879468436e-06
1.09446204801e-08
8.08783139298e-08
1.28034721373e-08
6.60879734476e-08
5.83212450587e-07
9.96190553322e-08
4.54471930779e-08
5.29895913829e-08
1.17295900567e-07
5.81834471002e-08
1.28338296795e-07
1.58684246223e-07
2.55316450727e-06
3.04460856918e-07
8.02180777496e-08
1.24225770604e-07
2.31408129593e-06
4.43835773855e-07
1.14039526628e-07
3.88777656323e-07
1.61782190032e-07
1.05066288856e-07
8.14787719131e-07
2.0699642848e-07
9.07227728515e-08
1.60749967708e-07
2.88958281965e-07
2.69802429926e-09
1.66461509353e-09
7.14170715379e-08
7.06280382848e-08
3.18093592651e-07
1.51766241974e-07
3.04362567477e-08
5.82484374687e-08
1.01518838721e-07
3.55514321175e-08
1.30779916776e-07
9.88353392482e-10
1.32318269591e-07
3.17630835365e-08
4.70763512202e-08
1.83451201714e-07
6.00784622753e-07
1.16184987095e-07
3.59447608173e-08
1.84575184265e-05
4.37826443285e-07
8.61402514279e-07
1.06788804504e-06
2.7259536185e-07
6.65709707617e-06
4.57463122969e-07
1.14552576652e-06
1.57126498397e-06
1.12621383496e-06
6.55593817725e-07
3.77914302154e-07
5.62419155759e-07
7.2416698131e-07
5.58174585835e-08
5.45264266103e-06
5.07568027595e-07
3.72793173218e-07
7.84439887838e-07
1.35735424696e-07
3.31137398534e-06
1.06138329747e-06
2.08659061115e-07
8.28924680753e-08
2.57145239464e-07
5.03937316108e-07
5.69809745685e-06
1.76492408824e-07
1.72841483641e-07
4.74999589917e-08
5.94984555161e-08
4.85827807021e-08
1.89766740317e-06
2.2239391848e-06
4.5298617359e-05
4.04173178631e-06
3.40432447842e-06
1.77893649225e-06
3.72957918169e-06
3.04756389386e-06
2.69260513366e-06
5.30220197667e-06
7.71139994309e-06
4.39350679452e-06
1.70099486071e-06
1.24463381318e-05
7.19310858501e-06
3.74438586651e-06
2.45957870966e-07
1.10517952483e-06
1.10854169004e-05
4.36833236466e-06
1.15273027462e-05
9.84179037684e-06
3.62414501276e-07
1.53513841938e-05
1.02935941686e-06
8.10479730277e-09
2.39552181477e-06
1.90918047309e-06
6.41975642999e-07
3.56570604956e-07
4.56143415415e-08
3.54078249203e-06
2.72054310167e-06
1.6488276832e-07
2.90532275644e-07
4.1030001513e-06
1.14669404498e-06
3.60781270371e-06
5.21400001389e-06
2.20163478533e-05
9.53585590274e-07
2.08824137051e-06
7.63425137996e-06
2.28813815339e-06
6.70355119427e-07
8.82281375297e-07
1.14507841198e-05
8.8483869439e-08
6.4899339753e-07
6.58061832444e-07
1.20651841432e-06
5.16217509629e-07
2.80081227363e-06
4.01998087301e-06
7.30247265561e-07
5.95459585327e-06
2.1370169102e-06
1.18238691578e-06
1.64746458933e-06
2.12020713806e-06
2.57447473719e-06
1.87157939184e-06
1.42372602941e-06
6.61575277474e-07
5.80606108891e-06
3.93939739786e-06
2.86477723135e-07
9.06969606796e-07
6.34579780468e-07

