# vtk DataFile Version 3.0
File Name: Molecule/arg/arg_5.0-1.vtk
ASCII
DATASET UNSTRUCTURED_GRID
FIELD FieldData 1
TIME 1 1 double
0.0
POINTS 834 double
-3.1156508923 -0.059211723506 1.6797888279
-3.3821153641 0.27862915397 1.6009120941
-3.1639661789 -0.23434263468 1.2552130222
-3.4376773834 0.09247097373 1.1119141579
-2.9778966904 -0.38483080268 1.8312884569
-2.9856438637 -0.63622748852 1.3983179331
-3.0532422066 -0.25855609775 0.63441050053
-3.2994976044 0.035139802843 0.4748173058
-2.8436141014 -0.7060918808 0.75244927406
-2.9210765362 -0.099083393812 0.17154876888
-2.6987552643 -0.33686497808 0.26310548186
-2.5657193661 -0.5981670022 0.25942525268
-3.0303087234 0.12171989679 0.024776726961
-2.5773069859 -0.12026090175 -0.15703888237
-2.5497009754 -0.066482618451 -0.32215350866
-2.7010724545 0.097526237369 -0.34909844398
-2.3510177135 -0.26509317756 -0.41594004631
-2.3681213856 -0.19252899289 -0.56149590015
-2.2326672077 -0.44462913275 -0.41601127386
-2.2300508022 -0.46270030737 -0.72580194473
-2.2433376312 -0.3994872272 -0.91775524616
-2.9048292637 0.46556198597 -0.54635751247
-3.265488863 0.54388475418 -0.20776210725
-2.4791936874 -0.050092447549 -0.74455326796
-2.6767776012 0.32190072536 -0.95047938824
-2.6051707268 0.14708948135 -1.395326376
-2.4143731594 -0.23023617268 -1.1159011126
-3.1567912102 1.233165741 -0.45959997177
-2.8167321682 1.0505728722 -0.75065296888
-2.6074128151 0.88337117434 -1.1302694082
-2.5368089676 0.79022324085 -1.5593271255
-2.7905366421 1.6866483688 -0.51477223635
-2.5190742016 1.4052106142 -0.79891562462
-2.3194949627 1.2194356918 -1.1932278872
-2.2020540237 1.1398898363 -1.663782239
-2.5384690762 1.9657244682 -0.46578162909
-2.4248583317 1.5922753811 -0.71350330114
-2.2174444199 1.7737444639 -0.69554954767
-1.9648734331 1.7213698626 -0.98052179813
-2.2078547478 1.4622747898 -1.0142952204
-1.7485907078 1.7549388409 -1.3823022842
-1.9584546089 1.442937851 -1.5220655203
-1.972181201 2.1455032825 -0.61291927099
-2.1545081139 2.4284148216 -0.24278584123
-2.6132421494 2.3062961102 -0.14575245976
-1.6413506269 2.4137234688 -0.87369048595
-1.6592371464 2.8064792156 -0.56876426935
-2.5390152931 2.5466241837 0.16230262816
-1.9743193388 2.7039105892 -0.010624952614
-1.5971987247 3.0426487923 -0.23336587846
-1.9904279709 2.7660491467 0.4871647656
-2.4972310066 2.6515767574 0.65424317122
-1.5195968151 3.1485435963 0.23136533797
-2.8668158054 2.6004037857 0.99676334858
-2.2523517609 2.7684063911 1.0160794258
-2.5927984715 2.7094650269 1.3441386223
-2.0234217644 2.9869539738 1.2551543713
-2.3664979935 2.9342224598 1.5708866119
-1.8727880716 3.3343515396 1.5271581411
-2.231105566 3.2817828655 1.8850442171
-3.1973195076 2.2797145844 1.466557622
-2.8277840614 2.474360466 1.7280215025
-2.6310446262 2.6757800579 1.982417345
-2.5099947453 2.9968032837 2.3175270557
-3.4252820015 1.8008054495 1.7638694048
-2.9179685116 2.3172869682 1.9164338112
-3.0881671906 1.9454404116 2.1872982979
-2.7391524315 2.5174691677 2.3766522408
-2.9627621174 2.0501298904 2.6460807323
-3.583894968 1.2526780367 1.7735227346
-3.322208643 1.2538046837 2.2052698135
-3.1991531849 1.7000005245 2.1893484592
-3.1098649502 1.6869901419 2.5345122814
-3.220382452 1.1151547432 2.5840315819
-3.1075265408 1.799883604 2.9952824116
-3.2466545105 1.2666157484 3.0382456779
-3.4086117744 0.61689770222 1.8356871605
-3.1797645092 0.69160604477 2.2324390411
-3.1036069393 0.70341145992 2.5608737469
-3.1191203594 0.63215053082 2.9502599239
-3.1312232018 0.38683927059 2.0547077656
-3.0714986324 0.047901738435 1.8949469328
-2.952432394 0.11246012151 2.2107970715
-3.0300126076 0.48182219267 2.4786043167
-2.8996183872 0.29944249988 2.6360192299
-2.9534618855 0.35298806429 3.1236767769
-2.8467764854 -0.35142242908 2.1535785198
-2.4645013809 -0.36410671473 2.7411031723
-2.7558431625 -0.081551864743 2.4614884853
-2.5442550182 -0.6676736474 2.4041345119
-2.7769765854 0.12034574151 2.7622218132
-2.5397720337 -0.092118404806 3.000221014
-2.6390790939 0.041557282209 3.4051172733
-2.4374380112 -1.1317862272 2.2334594727
-2.169113636 -0.80352807045 2.8535616398
-2.0613036156 -1.3239803314 2.6884663105
-2.0203199387 -1.1342306137 3.3201019764
-1.925268054 -1.6101696491 3.1368060112
-1.9068415165 -1.6240074635 2.333681345
-2.2812302113 -1.4389739037 1.8684165478
-1.7354964018 -1.9541541338 2.7656683922
-1.9447606802 -1.6782262325 1.6022026539
-1.5790755749 -1.862647295 2.0848176479
-1.3859945536 -2.2103517056 2.4588692188
-1.2887117863 -1.8494160175 1.671233058
-1.5727354288 -1.7301292419 1.2604885101
-0.99461430311 -2.26273489 2.1088311672
-1.2909916639 -1.7951947451 0.87129169703
-1.7248305082 -1.6537948847 0.61074829102
-2.0037326813 -1.6028543711 0.99867397547
-1.1482850313 -1.9322420359 0.56266611814
-1.5409184694 -1.8027069569 0.29491966963
-0.94597887993 -2.2532689571 0.25904086232
-1.3881677389 -2.1197247505 -0.063113421202
-2.3733637333 -1.2157776356 0.60122466087
-2.0540678501 -1.309576273 0.25617107749
-1.9017409086 -1.420851469 -0.083760738373
-1.7905035019 -1.6980659962 -0.4579424262
-2.4403178692 -0.85359072685 0.33054539561
-2.1328630447 -0.96348673105 0.011086856946
-2.0189335346 -0.99891465902 -0.32410311699
-1.9677753448 -1.1665629148 -0.6916231513
-2.233215332 -0.70683676004 -0.02689948678
-2.3541519642 -0.45883700252 -0.084377333522
-2.1317183971 -0.65737867355 -0.36619454622
-2.0936150551 -0.709877491 -0.7755023241
-2.0169277191 -0.85531884432 -1.2433451414
-1.8610234261 -1.3604001999 -1.0943274498
-2.1242549419 -0.68510478735 -1.0833353996
-2.3184437752 -0.41433504224 -1.3987144232
-2.1397881508 -0.4972499311 -1.8831555843
-1.8475416899 -0.93020808697 -1.7099639177
-1.6726762056 -1.358740449 -1.7499136925
-1.9949196577 -0.24603645504 -2.3020133972
-1.8030488491 -0.78178149462 -1.9570239782
-1.6589598656 -0.4052657783 -2.4499835968
-1.8982802629 0.17360547185 -2.5198714733
-1.486248374 0.097575962543 -2.7474167347
-2.0024764538 0.62797635794 -2.4351987839
-1.5463873148 0.34849250317 -2.7309954166
-1.6069774628 0.79402405024 -2.6773908138
-1.3103455305 0.98919469118 -3.0557937622
-1.2438257933 0.38731446862 -3.1071605682
-1.6166865826 1.1833447218 -2.4328246117
-2.0380520821 1.0169578791 -2.1540665627
-1.3229279518 1.5318194628 -2.6992528439
-1.7373890877 1.3370320797 -2.1159493923
-1.4632060528 1.7936768532 -1.8063807487
-1.0775632858 2.0877320766 -2.2157678604
-1.3872457743 2.1015527248 -1.4174910784
-1.6477591991 2.0353205204 -1.0796216726
-1.3153482676 2.5897703171 -1.1755886078
-0.82447010279 2.9856944084 -1.3017997742
-1.0787844658 2.2686133385 -1.6792057753
-0.61814820766 2.6261200905 -1.8153486252
-0.53746908903 2.5245490074 -2.355304718
-0.41420418024 2.9359028339 -1.5768254995
-0.73134040833 3.3398096561 -1.0043618679
0.27966508269 3.0250275135 -1.3091083765
0.44681844115 3.1464653015 -0.8983194232
0.050261065364 3.5510544777 -0.62045502663
-0.12170782685 2.9601464272 -2.1071519852
0.32951331139 2.9944765568 -1.8410328627
0.016897365451 3.1245276928 -2.5754420757
0.4421903193 3.1590180397 -2.4061837196
-0.02912084572 3.3462536335 -2.9948306084
0.65454441309 3.3959662914 -2.726616621
0.82299208641 2.9175601006 -0.65230119228
0.60066026449 2.8361568451 -1.3027180433
0.99255698919 2.5611684322 -1.1441618204
0.86124742031 2.699429512 -1.8545354605
1.3034828901 2.4151391983 -1.5465863943
1.0556533337 2.5599133968 -0.34303876758
1.2267487049 2.1974160671 -0.83258509636
1.5674222708 2.0002877712 -1.2213294506
0.97992026806 2.7649331093 0.19543987513
1.2558766603 2.1874608994 -0.10839806497
1.2007814646 2.3629455566 0.37731218338
1.5372359753 1.9200780392 0.1035406813
1.4760353565 2.1063690186 0.60084873438
0.92469656467 2.5162949562 0.73483431339
0.7219132185 2.8613288403 0.67365705967
1.214987874 2.213581562 0.99839770794
0.77087724209 2.5319943428 1.1091219187
0.42074242234 2.8028342724 1.2670232058
0.3925742507 3.1010985374 0.8420497179
0.83526659012 2.4417114258 1.6633343697
0.49191081524 2.6988828182 1.8308804035
1.1379909515 2.401979208 2.0979800224
0.740432024 2.7041401863 2.2710471153
0.051862653345 3.4225962162 0.71148020029
0.10815370083 3.0756220818 1.2157810926
-0.20647445321 3.362077713 1.0860835314
0.060497380793 3.0609378815 1.636520505
-0.2903893888 3.389272213 1.4891818762
-0.038947723806 3.2651133537 2.055025816
-0.40626052022 3.6082105637 1.9521268606
-0.42617881298 3.5939428806 0.47504886985
-0.72796243429 3.4950442314 0.89193218946
-0.70986741781 3.5335037708 1.3329049349
-0.99126255512 3.7435548306 1.6774103642
-1.0761476755 3.4789209366 0.33455204964
-1.1631411314 3.3864192963 0.80143290758
-1.2438794374 3.4432103634 1.1817480326
-1.4745473862 3.6342148781 1.5894304514
-1.5068306923 3.1147301197 0.7054271102
-1.6115732193 3.1777346134 1.1202312708
-0.063227586448 3.4104559422 2.5023305416
0.2729896605 2.9397895336 2.1953885555
0.28334006667 3.0607864857 2.6466274261
0.72873324156 2.8548903465 2.7728123665
-0.16101838648 3.4302966595 2.9580433369
0.18891002238 3.0747377872 3.0982997417
0.6382163167 2.8594732285 3.2843511105
-0.10287180543 3.0512318611 3.4580824375
-0.4176068902 3.3863177299 3.333108902
0.29707199335 2.8367934227 3.6857597828
-0.66592037678 3.1911685467 3.6506974697
-0.29168820381 2.8421242237 3.7693064213
-0.033109568059 2.628030777 4.0409111977
-1.1168397665 2.7642827034 4.0346970558
-0.6132709384 2.7893326283 3.90701437
-1.1214194298 3.2098712921 3.7370419502
-1.6208781004 2.8297979832 3.9069125652
-1.5859402418 3.185356617 3.6876444817
-1.9773914814 3.1084671021 3.538110733
-2.0596504211 2.8290262222 3.6518261433
-2.2874529362 3.0825624466 3.2081649303
-2.3942656517 2.7875983715 3.2858672142
-2.4772408009 3.0392770767 2.7902560234
-2.6338434219 2.6739506721 2.8615562916
-0.79805248976 2.3760261536 4.2744369507
-0.25279983878 2.1674876213 4.4400033951
-0.96926116943 1.8607621193 4.4644613266
-0.40750735998 1.608082056 4.6453971863
-1.3193107843 2.242607832 4.3515987396
-1.4379897118 1.6138728857 4.6047930717
-1.7238665819 1.9808887243 4.4879403114
-1.7204241753 2.497102499 4.1281967163
[...]
CELL_DATA 1664
SCALARS cell_data_0 double
LOOKUP_TABLE default
4.19655664286e-09
8.90048561564e-09
1.52586443597e-08
9.64962957355e-09
1.09010856061e-08
1.83662126786e-08
1.33099594058e-08
1.01742374984e-08
2.2159841198e-08
2.38813409392e-08
2.95356367488e-08
4.36335582009e-09
2.15153235471e-09
2.26460103669e-08
1.53822134323e-09
9.50984819299e-09
2.1645223669e-08
1.35854138523e-08
6.92196084491e-09
3.15799033572e-08
1.00866414331e-08
5.37732471827e-08
3.94393421239e-08
7.19692243345e-08
2.12897267447e-08
9.01974058877e-09
2.27156078613e-08
1.65164509597e-08
4.6784686333e-08
4.99148106356e-08
2.33394877206e-08
3.31756496928e-08
3.40943457546e-09
6.30605473297e-08
5.56274093918e-08
3.09756204187e-08
9.38654203801e-09
1.05701354078e-08
1.21740145091e-08
1.76998569041e-09
7.1044276981e-09
1.98771268234e-09
8.15182814565e-09
1.02494855157e-08
5.6711296338e-09
6.00365138327e-09
5.15374571806e-09
5.01118821251e-09
3.39521516912e-11
5.67079416593e-09
1.36717528734e-08
1.34377279795e-08
8.30892427764e-09
2.38003804063e-08
1.12067342065e-08
1.13876426239e-08
6.68923768791e-09
3.0504164194e-09
1.56527134131e-09
8.4363731196e-09
5.96725931651e-09
7.33972947518e-09
1.10984734235e-09
7.81878381062e-09
8.84978190646e-09
8.09946925282e-09
7.40148834696e-09
7.75449908814e-09
1.11456257971e-08
7.52660563444e-10
8.44286381618e-10
7.15296133507e-09
7.13088972472e-09
4.59178093339e-09
3.97762679342e-09
8.52221629034e-09
1.20133615477e-08
1.76405163064e-08
1.06649896234e-08
1.99310739183e-09
3.81168443075e-09
9.04771197762e-10
3.71652790721e-10
5.63327024316e-09
4.33708489247e-10
8.83197730339e-09
5.69700305118e-09
3.44690487359e-09
2.05034002066e-09
8.07729969504e-10
7.1543412015e-09
8.01347706625e-09
1.76284161431e-08
5.87516305757e-08
1.51061923055e-08
2.289433114e-08
1.52604674006e-07
9.14859563542e-08
7.98612026913e-07
1.52566697905e-07
2.37246477145e-07
4.43345061095e-08
3.79716357829e-07
3.8924560125e-07
9.84158047308e-09
2.40172019129e-08
1.04280040591e-07
6.2082907035e-08
1.55224670283e-08
4.80112566471e-08
4.53047931625e-08
1.2187791533e-07
9.05336221649e-09
5.79922296236e-08
4.47718575554e-08
3.95479088686e-08
6.10787973773e-08
2.13903042425e-08
2.65927159567e-08
1.10392384492e-08
3.12720557926e-08
1.85572286918e-08
2.27394465062e-08
2.80594780644e-08
4.40697379938e-08
2.11766006113e-08
3.62091754931e-08
1.97204319807e-08
6.38217516212e-08
2.58412776289e-08
6.62355685604e-09
8.61069042269e-09
1.87229387449e-08
6.01859705435e-10
1.22919244219e-10
1.36936873656e-08
8.089949417e-09
5.61419427445e-08
1.82844388885e-08
4.61472503299e-10
1.15363450768e-08
4.85284780789e-08
3.31079502698e-08
4.42551699255e-08
3.8447483218e-08
2.44462795765e-08
1.29405326933e-08
4.93622340937e-08
1.58593296294e-08
8.15678874373e-09
1.43262335963e-08
8.85188368755e-08
3.67012456382e-08
1.52445827156e-08
6.73796204154e-08
7.86735315257e-09
1.64833319487e-08
3.85422306854e-08
7.45045795789e-08
1.65362438553e-07
4.6934718879e-08
4.13007436585e-08
2.80748284933e-08
9.56307451865e-09
9.68361597744e-08
1.36906742259e-07
2.05523653726e-07
2.13736026959e-07
1.38605833296e-07
4.1734159903e-08
9.71794934494e-09
2.93926638595e-07
6.48754983665e-08
6.31018323037e-08
1.40996553024e-06
2.41391827929e-07
3.26003191637e-08
1.57417264057e-08
1.94773107664e-07
1.53601021919e-07
5.29806463029e-08
1.25531056923e-07
9.86237487685e-08
4.54034041726e-08
4.98799626629e-08
5.40066942888e-08
2.60389169048e-08
7.09141850023e-09
8.63184607295e-09
4.25829038138e-09
8.12588271289e-09
1.81957362951e-08
3.33576599158e-09
7.11923613606e-09
8.16265359966e-09
3.24454284659e-09
4.41982910559e-08
3.27430160735e-08
5.49674187468e-09
7.23312282435e-09
8.37656598193e-09
2.88247018607e-09
6.01920270672e-09
1.25047703211e-08
1.42157261403e-09
2.30615327673e-09
3.00224806466e-10
2.92829014147e-09
1.22000754326e-09
5.09627260112e-09
2.50493472162e-10
1.32327235168e-09
1.94465350967e-09
3.33691458117e-09
5.90571805452e-09
3.83056261647e-09
9.23144897411e-09
6.70559857328e-09
2.46078327208e-10
5.43276847262e-09
8.3243499323e-09
2.09376984618e-09
3.75623033291e-10
2.0197253145e-08
1.33263716687e-08
4.52443567527e-08
3.75720228526e-09
1.88081966667e-08
3.00896958949e-08
1.6111282904e-08
1.11124042522e-08
4.3796232469e-09
1.51129541082e-07
1.18244177588e-08
2.50366959599e-09
6.41823919425e-09
2.45767977829e-09
3.71875072225e-08
1.34425795162e-09
4.83000735807e-09
3.27385486181e-10
8.43707388936e-10
4.14005062539e-10
2.61314780346e-09
1.64442037888e-09
2.46925468652e-09
6.66773419472e-10
4.55173836457e-09
7.17416396231e-09
3.14414159424e-09
1.72520611848e-08
3.06975247038e-08
5.90080143148e-09
2.41194035358e-08
1.0497249134e-08
1.89343539361e-09
8.02721452463e-10
9.03371001617e-10
3.58191069559e-09
6.86254558276e-10
1.46450023253e-09
5.68068399531e-09
9.52149534831e-10
2.94480973596e-09
3.04691108865e-09
1.14530884561e-09
4.22252409448e-09
3.00014010517e-09
2.70698939208e-08
1.16901668923e-08
4.37191916105e-09
4.35106506678e-09
5.42279798568e-10
1.19402613832e-09
4.98237091849e-10
5.63837396536e-09
9.34683402731e-09
5.80425292447e-09
1.35661695313e-08
4.95154489811e-09
2.24024899111e-08
3.11751316022e-09
2.22814468747e-09
1.54063709223e-08
8.06385841521e-09
1.51637306478e-08
7.05297342622e-08
2.91915836629e-08
3.1307978343e-08
1.97724560979e-08
3.3489746421e-08
4.74314862084e-08
2.83958521864e-08
6.20018562875e-08
2.40124471709e-08
4.49749735512e-08
2.03858153797e-07
2.09217506622e-07
1.35328673277e-07
3.4144770211e-07
2.29958818152e-08
6.679496334e-09
2.12347847333e-09
9.45791133035e-09
2.49447316999e-08
8.70392728622e-09
1.77038948133e-08
1.46237991989e-08
1.9903058867e-08
2.5169105262e-09
8.16442723882e-09
5.77561350904e-08
1.8774199112e-08
4.21798824661e-08
7.00226535454e-08
1.58736890678e-07
3.27901917994e-08
1.1160915181e-07
1.04491101571e-07
6.57724829262e-07
1.63023249175e-07
5.30798870986e-08
3.2837503315e-07
1.17608976971e-08
2.18323361819e-07
2.86517972576e-07
8.61170927098e-08
8.04825872062e-08
2.23962143305e-07
6.83138585091e-08
8.06196730825e-08
3.98586648165e-08
2.4536393514e-08
1.14862031858e-07
1.68046757184e-08
1.12794284384e-08
9.15959055808e-09
6.28482804374e-09
5.80194348845e-08
4.68404290968e-08
2.61345886345e-08
3.3051698675e-08
7.31229201399e-08
2.92659112589e-08
1.64412865789e-07
9.06781559489e-08
3.58663012653e-08
3.94654675523e-08
4.21712417408e-08
8.65358645268e-09
2.43442853614e-08
2.10032557444e-08
6.23808541191e-08
9.4165492337e-08
3.81642572908e-08
1.4664458332e-08
1.36833246063e-08
1.12165704729e-08
2.94271844002e-08
3.30176682815e-08
5.49117170777e-08
7.54844717285e-09
4.31095711256e-09
1.00841722856e-08
1.94564416542e-08
1.49343408146e-08
4.06566195574e-08
4.45498249198e-08
5.93979192414e-08
3.31407521923e-08
3.43265801349e-07
1.28963361072e-07
4.05025532428e-08
7.81634738331e-08
6.00487429176e-09
1.77101534571e-08
1.33228040147e-08
3.62057405014e-08
9.53486956916e-09
2.0732893989e-08
9.1369447535e-08
2.1086780067e-08
3.78076826531e-09
7.64031146895e-09
3.57551379954e-08
6.75627658018e-08
1.70226818857e-07
8.81446214211e-08
8.19610604991e-08
5.07451411973e-08
1.05731528829e-07
5.52997154351e-08
6.27675737559e-10
7.28399165658e-08
2.0741702447e-10
9.73776303872e-08
1.53895445029e-08
6.77726804746e-08
1.12282249922e-09
4.10368647423e-08
4.7707793722e-08
6.8471753387e-08
2.40871324765e-08
2.19955833399e-08
1.14752717431e-08
1.37932006919e-08
2.70264051615e-09
6.40750411556e-08
2.75988854632e-08
3.41683518335e-08
1.36444981791e-07
1.38115304751e-08
8.93350145551e-08
4.29416594555e-08
1.63637679665e-07
6.38192305247e-08
3.45146974274e-08
1.79017031515e-08
7.43883277364e-09
3.96151666483e-08
3.90136836811e-08
2.0344141442e-08
3.95517214933e-08
2.02041420955e-08
1.36730142672e-08
8.4357103132e-09
9.13309575021e-09
1.08154978802e-08
7.604127191e-08
1.20402491312e-07
2.70877590625e-07
1.871133993e-08
3.70281608434e-07
2.1464943926e-07
4.45272756859e-07
6.15660828689e-07
1.12236428375e-06
1.15426399291e-06
3.09717336038e-07
1.10451445026e-07
3.9629025106e-07
6.33016739301e-07
1.61866781807e-07
1.95126300391e-07
2.18951410091e-07
6.23015178495e-07
5.148930692e-08
2.46246530333e-07
1.09580777362e-06
4.52897183848e-07
1.11799396471e-07
2.2794940511e-07
2.02150731386e-07
7.99732189846e-08
3.51988017091e-07
7.65457127154e-07
1.18052519127e-06
1.94900722047e-07
7.36182613493e-08
2.96108962322e-08
9.87656016905e-08
3.5123073065e-09
1.97684909242e-08
1.32675122879e-08
4.96259404386e-11
1.20926634537e-08
1.81629506311e-10
3.95854460138e-08
2.53037696779e-08
6.05745325433e-09
3.26053624298e-08
3.03301194242e-08
1.54468700436e-08
2.08352679063e-09
1.2402787126e-08
1.61128454563e-08
1.89893885621e-08
3.27995843345e-08
1.05912950515e-07
7.1908880701e-09
1.67261208376e-07
5.47186759849e-07
1.35431643748e-07
8.56814585139e-07
1.58430683802e-07
1.15898113012e-08
2.36369402722e-07
3.15312420818e-07
5.99884428754e-07
6.65654260708e-08
8.41092026741e-07
1.46889548441e-07
5.41285685627e-07
5.79740518361e-07
1.60347273072e-07
8.49422856747e-07
9.03899038036e-08
1.09986085431e-07
1.33890028231e-07
1.48531447027e-07
5.7929610585e-08
1.28425026695e-07
5.02755454922e-07
1.95195710745e-07
6.30952675395e-07
5.38735990621e-08
1.42219039734e-07
4.85766565851e-08
3.03189906473e-07
1.91915912292e-09
3.81507249653e-08
7.76189349318e-09
1.4540946836e-08
1.90990089521e-08
7.75833340569e-09
1.74359389293e-08
2.05132254684e-08
1.28871714592e-08
5.38031020914e-09
7.22241207752e-09
6.53541355203e-09
1.40511866907e-08
6.24286441583e-09
2.13409427912e-08
7.9710625105e-08
2.2071242441e-08
1.15413369293e-08
1.51225464126e-08
1.66308627731e-09
2.25723786603e-09
1.48080156161e-08
3.30568239739e-08
3.83543227537e-08
8.77786840415e-09
5.11772359751e-08
5.49896417854e-08
2.96427981122e-08
1.96666219285e-08
7.85337310567e-09
7.74808216217e-08
6.26311921425e-08
1.05002376676e-07
1.92621889568e-07
6.81476079458e-09
1.44534194805e-08
9.21097862944e-08
2.6497700155e-07
3.58140918258e-08
4.92112319814e-08
1.01677766813e-07
5.64744906903e-08
6.22621962081e-09
2.8715830967e-07
1.7479249544e-07
5.36592866674e-10
2.96925367034e-07
2.21756342036e-08
6.24189231012e-09
7.27232788229e-08
1.12202124916e-08
7.47092364041e-08
1.58398965294e-08
1.88721943063e-08
3.61242111421e-08
3.4951097885e-08
2.10643510064e-08
7.40780079836e-10
1.02929116334e-08
1.76022528054e-08
1.41233522806e-08
9.87834614017e-09
6.85070462204e-09
4.63854006284e-09
8.17324215719e-09
6.42771977599e-09
7.73310818161e-09
4.48139961018e-09
2.12262393371e-08
1.88666590187e-08
7.11321149217e-09
6.31162832468e-09
7.47354986842e-09
1.8327441193e-08
5.77933098138e-09
1.29888519141e-08
3.06712398904e-08
1.19375463547e-08
1.67552433274e-08
1.21277616514e-08
1.32502315023e-08
7.0819090741e-09
7.96770813563e-09
7.3078761366e-09
2.97932717428e-08
2.67197959975e-08
3.73472955579e-08
1.82127887665e-08
2.38650749259e-08
1.6323891664e-08
1.61134001529e-08
3.45322903333e-09
1.16975722985e-08
2.39854912074e-09
4.25786768275e-10
1.21381109726e-08
6.32404164994e-09
3.51270405111e-11
2.99199509458e-09
3.76589839994e-09
8.7268687311e-09
3.22671320944e-09
2.04672050537e-09
6.51251465571e-09
1.44968462096e-08
1.00431444339e-08
6.85776669895e-09
6.60878118409e-09
1.18076262665e-08
2.93153587816e-10
3.14480311093e-09
9.5469582115e-09
1.7141546616e-08
3.28214914326e-08
6.75219885211e-09
4.26837615032e-07
2.03442832138e-07
5.08050555904e-07
3.28056300718e-07
1.18424378253e-08
1.08304206832e-08
2.23638698011e-09
5.32262178969e-09
3.60458665621e-08
3.81036516462e-08
2.60126386675e-08
4.45016509618e-08
2.03505422605e-08
5.78974445822e-09
4.09412675101e-09
5.82356710353e-09
4.97677667873e-08
5.61740075445e-08
9.75119185725e-09
2.1268929348e-08
3.82850018843e-08
1.16057780927e-08
8.48988357829e-08
1.08468974385e-08
7.51155468247e-08
1.57669741392e-07
6.25338768368e-08
4.83766336314e-08
1.79294763731e-07
9.62472409021e-07
1.4385943859e-07
5.16891627817e-08
5.14090862453e-08
1.76898840741e-07
2.40693197041e-07
5.51803747522e-08
2.17323158763e-07
9.81651234253e-08
3.02081367814e-08
1.58536875312e-08
7.82287566452e-08
8.49727262696e-08
2.15954237807e-08
2.60468512142e-08
2.17123112861e-09
4.18438377294e-09
4.48148770361e-08
5.73849896301e-10
9.85349732652e-10
2.1226561633e-08
1.95151693086e-09
1.26667231622e-09
2.64839645345e-10
9.12695126854e-09
1.00568514145e-08
7.50962029237e-09
2.444367875e-09
5.0842802308e-09
9.70508582316e-09
1.57360341716e-09
1.51564568737e-08
1.69609147137e-09
4.230727414e-09
1.68810168238e-08
4.62209886693e-09
1.09579799516e-09
1.89644521101e-09
8.63321044509e-09
5.72010392999e-09
1.45022545388e-09
1.1023713203e-08
3.7819826501e-09
3.39324691977e-08
5.45513247609e-08
4.58752726523e-08
1.17163051114e-08
3.53004341752e-08
8.86951469319e-08
5.95061544105e-08
2.42063667753e-08
3.55462985904e-09
3.79882614451e-08
4.38901977761e-09
2.57734945774e-09
3.52093949636e-09
3.52095763952e-08
7.02298164933e-08
1.30567950367e-07
8.46957158864e-08
3.46863169647e-08
1.6616408327e-08
4.97922415467e-08
2.62148660187e-08
5.39080708827e-08
7.24048216965e-08
1.31352744729e-07
5.48359480761e-09
8.66882489119e-11
2.13067349924e-09
5.15310058237e-08
1.48609312099e-08
1.16676106915e-08
1.54005881965e-08
5.57583540867e-08
3.83141817102e-07
9.78826795545e-08
6.01902136378e-08
2.13017830415e-07
8.51197108283e-07
1.29054959523e-06
4.94031862922e-07
6.84326758208e-07
1.40409274515e-06
5.70849821215e-08
1.61715578988e-07
8.51821931799e-08
1.10185217605e-07
1.38369316824e-08
7.27259935364e-08
5.19625029307e-09
1.70000778419e-08
3.08046162038e-08
1.63392220205e-07
1.24865316835e-07
3.98747789097e-07
4.44206928547e-07
2.17971676361e-08
1.17321637727e-08
9.42519891603e-09
8.30176342638e-08
1.22676369412e-08
9.82870081865e-09
8.67902772563e-09
1.97766732578e-08
7.6735813152e-09
2.44145509051e-09
5.0843995772e-09
1.92657849091e-09
1.70972047037e-09
7.359152716e-10
1.16109622739e-09
6.30128450188e-10
1.83869548229e-09
2.34992999178e-10
2.15051239753e-09
1.89870120979e-09
8.7695267869e-10
3.50707946662e-09
2.78651113412e-09
3.98162957441e-10
7.23377730938e-09
3.0106597145e-09
8.94040855413e-10
9.89431004489e-10
1.8729743994e-09
2.40977649834e-09
1.64341749641e-09
4.1682965171e-09
3.25771637446e-09
4.46116928882e-09
1.23667199911e-09
2.0661382808e-09
1.17741919175e-09
4.24367013098e-09
3.87651171855e-09
1.21622486296e-10
1.26898177712e-09
9.52302601366e-09
2.13542815488e-10
1.63137522309e-09
3.57492235374e-09
8.99233535562e-09
3.51737015515e-09
1.00383092493e-08
7.32040621697e-12
3.19160262048e-09
2.02337856871e-09
1.40065087321e-09
4.6407615727e-09
4.73282232917e-09
2.02454403512e-08
3.66453726122e-09
3.35170075338e-09
1.37699334012e-08
9.96041869742e-09
1.72776146329e-08
1.21123400093e-08
1.18261616324e-08
7.40114498718e-09
7.86681734064e-09
7.36774332301e-10
2.05083533412e-09
1.52763274337e-08
1.2962398433e-08
7.63637280323e-09
1.20235944037e-08
3.92918260666e-09
3.01724248326e-09
1.24710043475e-08
6.4700244293e-09
1.39874544396e-08
3.9423994035e-08
2.43320635139e-08
1.50389976489e-08
1.83218448194e-08
2.30404682702e-08
1.11196989612e-08
6.94735927221e-09
2.39734452535e-08
2.29629900523e-08
3.82234809903e-09
6.78983986667e-09
2.70573014512e-08
2.53129697941e-09
4.19235099808e-08
1.51232086747e-08
9.69877587904e-09
1.05868184864e-08
8.98447011923e-09
3.82895795695e-08
2.1366408447e-08
5.35048366799e-08
2.6233236248e-09
7.97442016878e-09
1.89774298853e-08
2.92057407563e-08
7.94350366664e-08
2.93275839659e-08
5.65763379298e-08
5.57077809168e-08
8.03277806976e-08
1.22086555741e-08
3.54888070129e-08
3.28531523598e-08
5.4964336439e-08
8.2944600846e-08
9.55532344197e-09
1.07750169517e-08
2.1365013516e-09
1.01779555909e-08
3.49096751615e-09
2.6019502994e-10
2.81454139809e-09
3.77235353689e-09
3.58633278594e-09
2.25313153759e-09
1.26162566507e-09
1.22227533517e-09
7.13425649195e-10
9.78608463958e-10
1.16696070222e-08
1.72875652252e-09
1.0297815511e-09
1.21808558633e-08
1.34715429423e-08
4.43836997928e-09
4.79652769405e-10
2.06798734462e-09
2.97900888371e-09
6.91150782514e-09
2.14842577852e-09
8.74746913447e-09
3.59105881839e-09
4.81656926182e-09
3.06997722534e-08
1.90081225707e-08
1.35496688479e-08
7.76995878026e-09
3.02171754355e-09
1.90824851358e-07
1.86948242125e-08
1.12729619838e-08
6.57279294199e-08
4.23222036801e-09
3.20971013943e-08
3.07814979058e-09
1.69270988074e-08
6.32139164559e-09
8.29313629636e-09
1.81537127002e-09
3.60810811196e-09
3.94657477711e-09
1.58559680033e-09
1.44441111099e-10
2.50034452781e-09
1.22022855101e-09
5.2343164763e-09
4.31886717976e-10
1.78880596726e-09
1.13087853155e-09
3.43936108997e-10
5.35973876925e-10
4.44891128275e-10
2.68433934435e-09
2.07122696183e-10
1.35490450251e-10
1.66036607076e-09
1.2521433439e-09
4.29244322653e-09
3.57829858355e-10
1.30970808464e-08
4.12436124798e-09
2.20248774026e-09
2.9364933422e-09
3.2988147828e-09
1.91562860477e-09
1.03610948273e-09
6.29799781683e-10
1.44538511208e-09
4.99196649739e-09
2.13587001892e-09
1.79078512674e-09
4.34005044915e-09
3.7616614929e-09
6.92322441843e-09
1.76918992695e-09
1.51434888585e-08
7.33349823958e-09
4.74846518252e-09
7.32690585447e-09
1.59964446108e-09
4.94358024287e-09
1.02578467391e-08
1.02503756197e-08
1.09550755042e-08
1.5033210965e-08
1.54394026909e-09
1.1355899404e-09
1.34365009599e-09
1.56422377522e-09
1.35210334821e-09
2.99358191681e-09
4.60374263263e-09
1.82512541986e-09
3.61350782081e-09
7.14884154513e-09
5.50185122652e-09
1.32887359663e-08
8.52896492333e-10
6.24684653683e-10
5.11334454797e-10
3.30001745103e-09
1.98624240901e-09
6.32137373419e-10
2.32611238137e-09
1.29923232689e-09
1.99480301644e-09
4.02217829544e-10
1.05825970401e-09
2.2561772675e-09
1.66101850233e-09
2.17107462787e-09
1.87260372764e-09
3.38484086264e-09
9.7437044637e-10
2.97532165485e-09
1.44859475781e-09
1.5534391951e-09
3.93933453575e-09
2.46213081818e-09
8.91567030507e-09
1.44202948722e-08
4.16507029895e-09
2.04134826723e-08
2.71865003267e-08
1.96983482651e-09
3.37669705343e-08
5.07014368861e-09
3.88924630947e-09
4.24208411998e-09
8.43956081685e-09
1.34029514088e-09
6.14386677611e-09
4.25001564944e-09
1.15508926553e-09
1.51473904875e-09
1.7885522718e-09
1.6771587524e-09
3.00099312302e-09
2.33418487812e-09
1.94195784443e-09
6.01485936203e-09
3.00454533881e-09
7.56450317002e-10
5.33990988864e-09
1.23371324208e-09
2.00250158251e-08
8.74705310165e-09
2.65755972331e-08
2.66505290532e-07
6.59081716187e-08
6.14587389896e-08
1.06981705016e-08
1.06417763134e-07
3.50812096318e-08
3.6964360859e-07
2.01900285973e-07
9.57024763911e-08
4.88707787611e-07
3.87220707059e-07
1.794100463e-07
2.90122868806e-07
2.00155347617e-08
6.91577403674e-08
3.42766220122e-09
1.76962517434e-08
5.55234978177e-09
6.03385302444e-08
3.15901193938e-08
1.37500209704e-07
1.25216036306e-07
8.86294907551e-08
2.65252980133e-07
1.60516265703e-07
1.97909364899e-07
1.37740677506e-07
9.7960519219e-08
8.55502418468e-08
1.08026930695e-08
3.02033046467e-09
6.71605952091e-09
2.84330428792e-09
3.36507358519e-09
3.47068265561e-08
2.6912912963e-08
5.16552478156e-08
5.97068793896e-08
1.63669095e-08
7.02688968223e-08
2.38678584321e-08
4.51589881491e-08
2.33240907522e-08
2.27750105446e-08
6.24253202079e-10
1.66147043852e-09
1.93493323964e-09
1.33258346792e-08
5.84360355945e-09
1.04229673129e-08
1.05049238121e-08
1.34735664159e-08
5.68209804868e-09
1.06495184142e-08
2.68623069749e-09
8.56279145561e-09
4.0814733414e-08
1.00357315946e-08
5.70627025086e-09
3.61792144708e-09
7.85111061617e-09
4.39160361175e-09
1.7494990466e-07
1.64006387212e-09
1.89426676615e-07
3.50689872336e-08
9.70110585326e-08
6.53577544985e-09
4.33712652133e-08
2.10043446401e-08
3.23681935977e-08
7.6728401181e-10
2.20704430228e-08
3.77726797602e-08
4.78252668373e-08
7.28006619936e-08
5.13051303248e-08
6.34074642458e-08
1.0789626877e-07
3.06082944526e-07
5.24838744728e-08
1.16801644183e-07
4.28458930941e-07
4.81611962109e-07
5.62355725571e-07
3.04753864797e-07
2.33010718275e-07
1.11109483841e-07
5.19359462149e-08
3.84388090576e-08
1.12594225294e-08
1.48914667136e-08
4.99007529521e-09
8.01101362391e-09
8.77779860929e-09
6.28407522236e-09
2.40672207914e-08
2.2318289938e-08
5.43113116971e-08
3.40197455156e-08
1.59485968582e-09