# vtk DataFile Version 3.0
File Name: Molecule/arg/arg_4.0-1.vtk
ASCII
DATASET UNSTRUCTURED_GRID
FIELD FieldData 1
TIME 1 1 double
0.0
POINTS 671 double
-3.3855056763 0.29214552045 1.6141631603
-3.4344096184 0.085266321898 1.1574158669
-3.0879819393 0.035579539835 1.8111194372
-3.0598649979 -0.52923071384 1.3622463942
-3.2436432838 -0.063553415239 0.51932239532
-2.8748726845 -0.65436792374 0.71723455191
-2.6084682941 -0.52688360214 0.23117879033
-2.846503973 -0.17258870602 0.11402390897
-2.485547781 -0.17433787882 -0.24556216598
-2.6547374725 0.093050405383 -0.4294834137
-2.4070606232 -0.17890682817 -0.47312805057
-2.3159425259 -0.43077260256 -0.19801409543
-2.213101387 -0.45016989112 -0.93334168196
-2.2621853352 -0.4291780889 -0.72683763504
-2.4473929405 -0.21189036965 -1.059841156
-3.0253779888 0.11989222467 0.027565363795
-3.2104027271 0.51338815689 -0.27935987711
-2.7359557152 0.37489506602 -0.81791698933
-2.6109750271 0.15006536245 -1.3858047724
-2.7601275444 1.0019676685 -0.83185398579
-3.167981863 1.2811123133 -0.43815115094
-2.584017992 0.80266100168 -1.4867577553
-2.7790517807 1.6841562986 -0.53708404303
-2.4124403 1.3015320301 -0.9901573658
-2.211918354 1.1361912489 -1.6474525928
-2.552475214 1.9879108667 -0.44248443842
-2.3291561604 1.5352867842 -0.81789213419
-2.0212006569 1.7803094387 -0.85986638069
-1.976575613 1.4574923515 -1.4800647497
-1.7382155657 1.7714910507 -1.3734391928
-1.9709386826 2.1672754288 -0.59340268373
-2.0311088562 2.592318058 -0.15205451846
-2.6374924183 2.4274873734 0.037367358804
-1.5880525112 2.9629461765 -0.41607305408
-1.6108540297 2.4801466465 -0.82472592592
-1.9738869667 2.7574186325 0.43037894368
-2.5230977535 2.63357234 0.65285217762
-1.5186676979 3.1493518353 0.22813224792
-2.8089375496 2.6537232399 1.0844080448
-2.1505904198 2.8719754219 1.1790255308
-2.5396211147 2.7874414921 1.5613176823
-1.8624882698 3.3251178265 1.4784656763
-2.2318768501 3.2751228809 1.8523210287
-3.1887249947 2.2865180969 1.4793590307
-2.7165513039 2.5723114014 1.910368681
-2.5139608383 2.9910652637 2.3178446293
-3.4184083939 1.8027091026 1.7877272367
-2.9331073761 2.296690464 1.9061923027
-3.0771737099 1.9645731449 2.1815741062
-2.7335166931 2.5143971443 2.4064276218
-2.9497075081 2.0676505566 2.6510043144
-3.126386404 1.7138417959 2.4180834293
-3.2731144428 1.2535066605 2.3621492386
-3.5746767521 1.2465363741 1.8002909422
-3.1044800282 1.8054839373 3.0028889179
-3.2581055164 1.2655824423 2.9918582439
-3.3980662823 0.62014400959 1.8718379736
-3.1255216599 0.69585740566 2.4174017906
-3.1143124104 0.60995930433 2.9540905952
-3.1227457523 0.38799330592 2.0788376331
-2.9512655735 0.10386586934 2.2070581913
-3.0221889019 0.46601471305 2.4821901321
-2.9029824734 0.32023486495 2.661678791
-2.9466416836 0.32631081343 3.098700285
-2.8479132652 -0.34015259147 2.1670780182
-2.9676315784 -0.39332020283 1.8460155725
-2.468865633 -0.25826632977 2.8872060776
-2.7596509457 0.0016556680202 2.5739269257
-2.5387208462 -0.65128648281 2.4473958015
-2.6095025539 -0.007889373228 3.4049918652
-2.4376559258 -1.1311933994 2.2355566025
-2.1703026295 -0.8020721674 2.8524034023
-2.0688130856 -1.3112024069 2.6877610683
-2.0299017429 -1.1064625978 3.3329524994
-1.9301534891 -1.6065618992 3.1188063622
-1.9105352163 -1.6209831238 2.3309483528
-2.2895002365 -1.4317324162 1.8510767221
-1.7158578634 -1.9760209322 2.8018734455
-1.9412586689 -1.6794576645 1.5836256742
-1.5810495615 -1.8599439859 2.0802836418
-1.3868463039 -2.1948888302 2.4069268703
-1.2934926748 -1.8457041979 1.6619390249
-1.5546953678 -1.7397831678 1.2544484138
-0.99947243929 -2.2371835709 2.0317730904
-1.9475104809 -1.6338287592 0.91584473848
-1.2535581589 -1.8269474506 0.77151149511
-1.6020209789 -1.7413716316 0.43123877048
-0.99019438028 -2.2138953209 0.30593189597
-1.4452078342 -2.0548200607 -0.01581572555
-1.9626979828 -1.3723955154 0.10656234622
-2.3794970512 -1.2113672495 0.60755079985
-1.8240047693 -1.6530407667 -0.46854478121
-2.431507349 -0.84279763699 0.27676743269
-2.0395100117 -1.0077655315 -0.20381402969
-1.9882136583 -1.124946475 -0.7088778019
-2.1512961388 -0.68942779303 -0.2452032268
-2.1029269695 -0.70346665382 -0.73994964361
-2.1283750534 -0.69079434872 -1.0721988678
-1.8534362316 -1.3671010733 -1.1015629768
-2.0077590942 -0.86229622364 -1.2660188675
-2.3226633072 -0.4087716043 -1.3913149834
-2.1449501514 -0.48425191641 -1.8855155706
-1.8543070555 -0.92398798466 -1.7053502798
-1.6894762516 -1.3029973507 -1.7754862309
-2.0085067749 -0.25080940127 -2.2812476158
-1.82028234 -0.7340246439 -1.9720915556
-1.6644695997 -0.39930263162 -2.448854208
-1.9121108055 0.17388571799 -2.5050041676
-1.4867973328 0.09789595753 -2.7484440804
-1.6284463406 0.79007124901 -2.6528503895
-1.5096892118 0.35451218486 -2.7669043541
-2.0293970108 0.63642382622 -2.3993387222
-1.2025260925 0.39364278316 -3.1489658356
-1.3056468964 0.97995251417 -3.0617110729
-2.033577919 1.0192171335 -2.160279274
-1.6079670191 1.1813491583 -2.4467482567
-1.3952679634 1.4917237759 -2.6305966377
-1.757422924 1.334831953 -2.0997765064
-1.4591516256 1.7863274813 -1.8147956133
-1.0627783537 2.0002913475 -2.3365373611
-1.385245204 2.1021866798 -1.423612833
-1.6485360861 2.0574028492 -1.0502420664
-1.2872127295 2.5748836994 -1.2302370071
-1.0633643866 2.2323184013 -1.7577109337
-0.62900346518 2.643944025 -1.7721424103
-0.81590551138 3.0415685177 -1.2002050877
-0.50815826654 2.5271427631 -2.3800420761
-0.40840741992 2.9406504631 -1.5497777462
-0.10975153744 3.5782339573 -0.67756307125
0.28879567981 3.0225832462 -1.3292994499
0.4429423213 3.1555809975 -0.88965767622
-0.12003514916 2.9626011848 -2.105168581
0.32862025499 2.9945039749 -1.8411505222
0.0057861404493 3.1170825958 -2.558501482
0.44980999827 3.1642267704 -2.4218566418
-0.036304946989 3.330378294 -2.9661881924
0.66630297899 3.4079778194 -2.7586185932
0.81967628002 2.9225361347 -0.64292341471
0.60065937042 2.8365342617 -1.3014035225
0.98994863033 2.5629923344 -1.1432932615
0.86225283146 2.6988353729 -1.8536434174
1.3023810387 2.4148571491 -1.5435526371
1.1009505987 2.5090897083 -0.33982762694
1.2245784998 2.205450058 -0.89337748289
1.5626713037 1.998472333 -1.1939436197
1.0703184605 2.6656668186 0.22910162807
1.4868385792 1.9966696501 0.0047826971859
1.4339905977 2.1646540165 0.53067231178
1.1605528593 2.2784748077 0.96297281981
0.73207217455 2.8578073978 0.61942178011
0.43049004674 2.7941179276 1.279930234
0.74547743797 2.5576560497 1.1024749279
0.38424491882 3.1022548676 0.87518042326
0.82962214947 2.4462544918 1.6371159554
0.52660006285 2.6711189747 1.8275729418
0.77096629143 2.68385005 2.3443841934
1.1297508478 2.4067602158 2.0724647045
0.099619723856 3.0397751331 1.4757983685
-0.24015255272 3.3611445427 1.3010674715
0.016112511978 3.441937685 0.73643404245
-0.019198510796 3.2579240799 2.0436086655
-0.39275297523 3.6012721062 1.9329744577
-0.65086686611 3.5023202896 1.1220561266
-0.41856244206 3.5930740833 0.46391037107
-0.95366227627 3.7401638031 1.6402033567
-1.075083971 3.4855864048 0.36283251643
-1.1968127489 3.4111189842 1.0133453608
-1.4470540285 3.6317403316 1.5457223654
-1.5762321949 3.1185584068 0.8863670826
-0.12103547156 3.450114727 2.645121336
0.28817334771 2.9296491146 2.228300333
0.23907648027 3.0908126831 2.7945768833
0.65473967791 2.8954424858 2.9690864086
-0.31432262063 3.4048361778 3.2162463665
0.038137380034 3.0516490936 3.3478958607
0.43379539251 2.8379383087 3.5840322971
-0.3202175498 2.8676908016 3.7437641621
-0.71395373344 3.2227976322 3.6236972809
0.0043175648898 2.6064164639 4.0543613434
-1.2619193792 3.1979100704 3.7461419106
-0.61743497849 2.7806825638 3.9129006863
-1.2715358734 2.7643995285 4.0328416824
-1.7162562609 3.1355497837 3.6785099506
-1.8006844521 2.8217287064 3.8276846409
-2.1682496071 3.1325333118 3.3090734482
-2.2772228718 2.8214604855 3.4117851257
-2.4225275517 3.0705087185 2.9103908539
-2.5679101944 2.7168250084 2.9997410774
-0.27417552471 2.2002677917 4.4217038155
-0.85189449787 2.3840358257 4.2689328194
-0.98596978188 1.8740859032 4.4587993622
-0.47482377291 1.6011006832 4.6424465179
-1.4306491613 2.3297469616 4.2993860245
-1.4582700729 1.6337944269 4.5956478119
-1.8519341946 2.037573576 4.4380145073
-1.8696717024 2.5399858952 4.0334844589
-2.1757338047 2.2836248875 4.1679129601
-2.3934762478 2.5801167488 3.5608046055
-2.5857224464 2.3119783401 3.793138504
-2.883317709 2.1641530991 3.4253053665
-2.7481012344 2.4188528061 3.0995891094
-1.3981353045 1.1065015793 4.6743083
-1.0088160038 1.5288962126 4.5455822945
-0.90314346552 1.1389776468 4.5916175842
-0.41007387638 1.0294283628 4.7167797089
-0.83133202791 0.80139267445 4.6202492714
-1.0463805199 0.46260628104 4.5882649422
-1.6627117395 0.7208186388 4.6319465637
-0.36190539598 0.52429199219 4.8625640869
-0.57356452942 0.035236567259 4.8276185989
-2.0931925774 0.35153532028 4.4565997124
-1.2527960539 0.14508605003 4.5364432335
-1.6981585026 -0.15025301278 4.3596773148
-0.8925563693 -0.4071199894 4.7759709358
-1.4416153431 -0.7259388566 4.5609045029
-2.0541827679 -0.34708335996 3.9365696907
-2.4898769855 0.13828660548 4.0034375191
-1.8747907877 -0.967418015 4.0309562683
-2.1607706547 -0.49507385492 3.3672075272
-0.45161360502 -0.73367154598 5.0421051979
0.015383312479 -0.25237840414 5.1265058517
0.10239653289 -1.1444108486 5.0805339813
0.52524238825 -0.6892234683 5.1488571167
0.35818165541 -1.6038085222 4.9760861397
0.60476917028 -1.0264157057 5.0770139694
0.80337494612 -1.428524375 4.9629631042
1.0492210388 -0.81674593687 5.2618160248
1.2006236315 -1.287894249 5.1257514954
0.60589921474 -2.0967307091 4.6261119843
1.0661640167 -1.8523266315 4.6505470276
1.5575754642 -1.7138948441 4.8072581291
0.84452140331 -2.3489329815 4.218931675
1.2362186909 -2.115906477 4.239584446
1.6783243418 -2.008333683 4.3770432472
0.9846701026 -2.5007081032 3.6300153732
1.4222460985 -2.2301738262 3.6924855709
1.9689775705 -2.0932910442 3.8193676472
1.4761947393 -2.1858661175 3.1813249588
1.0506987572 -2.4622037411 3.1047718525
2.0085513592 -2.0616703033 3.2866134644
[...]
CELL_DATA 1338
SCALARS cell_data_0 double
LOOKUP_TABLE default
1.63863952998e-08
4.92344588673e-08
5.35032444087e-09
2.61513156992e-08
3.25699688562e-09
4.68033724716e-08
8.8165805158e-09
4.74576235075e-08
3.66065730452e-08
2.62267510629e-09
6.41638093965e-08
5.58526476473e-08
8.02760456389e-08
1.95752400952e-08
3.44197542024e-08
5.37661621671e-08
6.95932408312e-08
4.27829568508e-08
3.39175427543e-08
6.63347048034e-08
9.5585139189e-08
6.923400827e-08
2.04605507606e-08
4.47118177623e-08
1.59645680215e-08
5.69266692432e-09
1.54361869327e-08
3.57297491954e-08
3.94418581528e-08
3.97790766058e-08
1.13152000284e-08
1.7616174727e-08
1.84401776641e-09
4.19439175874e-08
3.38067820312e-09
3.60224103461e-09
1.63339739143e-08
2.01335229789e-08
5.94374538077e-10
6.85533135073e-09
1.03811445719e-08
1.19240702199e-08
7.99928199514e-09
8.62256142044e-09
6.39737906918e-09
5.35298507871e-09
1.94070756924e-08
3.58838397917e-09
1.14925353493e-08
5.41679752356e-09
1.74927632183e-08
3.51539329726e-08
6.6312338798e-09
1.35016501579e-08
2.81103462109e-09
8.19718590399e-09
1.84414504594e-09
6.94377037626e-09
1.14228154485e-08
1.00115493549e-08
4.15316462262e-09
2.07800510118e-09
6.55297576422e-08
1.2737546273e-08
4.79027948281e-08
4.25956471775e-08
1.97410762557e-07
1.12175442287e-07
8.977355673e-07
1.57304757804e-07
2.5805209893e-07
4.81928360745e-08
4.91919100302e-07
4.3517667042e-07
2.50596710508e-08
3.09821435366e-08
1.27407265921e-07
7.63845497999e-08
1.12068707558e-08
3.53520639217e-08
2.80887421493e-08
1.04706799681e-07
9.62102349291e-09
8.08694087492e-08
8.2340673423e-08
3.18465727848e-08
1.3989777142e-08
2.17927108681e-09
5.05565671561e-08
7.28606670345e-09
4.69009284155e-08
5.88161277187e-08
7.9829895986e-09
4.17994776331e-09
2.73629905638e-08
2.92617967863e-08
8.98898107256e-09
2.19109199974e-08
2.82931770743e-08
3.58288065404e-08
1.03242896672e-08
8.79571833102e-09
2.60048623188e-08
4.05788433269e-08
2.95735088182e-08
4.07760642982e-08
2.56703785187e-08
3.11777709283e-08
2.96226388566e-08
3.4683959003e-08
5.68024663279e-08
7.33741841012e-08
4.05694023163e-09
1.57461850097e-08
6.27478453289e-08
1.20719011652e-07
1.16766249287e-07
4.08118256969e-08
3.47974391456e-09
3.66241369912e-08
3.85636493148e-08
7.52630138658e-08
5.3214244305e-08
3.8587362449e-08
5.2790724985e-08
2.92477908681e-08
1.38023647779e-07
1.02528566641e-08
2.07100953823e-07
2.78590170105e-07
9.3872159279e-09
6.15693949367e-08
7.18550762736e-08
3.36596610931e-07
2.38022253844e-07
2.31484859986e-08
3.07402199095e-07
9.61960237807e-07
1.25459003035e-08
6.98487047269e-09
2.21910248423e-07
1.099526969e-07
5.50026194322e-08
9.29266369862e-08
5.70227017198e-08
6.65184745784e-08
1.98169401822e-08
2.14945519156e-08
4.16381463045e-09
1.31157585729e-09
1.1464935702e-08
1.20184203196e-08
7.85804633313e-09
1.25114498869e-08
3.45650476325e-08
1.0599013074e-08
8.64375347689e-09
9.34933915955e-09
3.25561958317e-09
2.17042339902e-08
1.02344907019e-08
2.07232474725e-08
3.44822549137e-10
5.0443402916e-09
1.73784009315e-09
6.71461237185e-09
9.6838883208e-09
4.4807482478e-09
1.08814206752e-08
4.06270735223e-09
1.08380783813e-08
1.07318390088e-08
5.06398216321e-09
3.18192005678e-08
4.11746977114e-08
3.96395955711e-08
4.20333461254e-09
1.3888463623e-08
6.38267340866e-08
1.58479928985e-07
1.69748181656e-08
1.5112383239e-08
1.98942293536e-08
1.28000764684e-07
7.05978088054e-09
1.84027252926e-08
2.57011610507e-10
1.81302101987e-09
7.99092754147e-10
6.62100032635e-09
1.39841293904e-09
3.17546506438e-09
1.48516872578e-08
5.97339176197e-09
2.26682799958e-08
3.33453061159e-09
1.39238745808e-08
1.94504064608e-08
1.42083062499e-08
2.79979600163e-09
6.23234629919e-10
3.82841989099e-09
1.13582329937e-08
5.14929012218e-09
2.49549769623e-09
2.08569056388e-09
4.87071911645e-09
1.34223527065e-09
8.74111962203e-09
1.3065673724e-08
3.89009476607e-09
2.75313458294e-08
6.66769379873e-09
1.84391265129e-09
5.08618554435e-09
2.01806717542e-09
5.34950302102e-09
2.30083440425e-08
4.44003350821e-09
2.22602688236e-08
5.17648464514e-08
7.95965106864e-08
1.19571915283e-07
1.29284481449e-07
7.25123926047e-08
3.14994905133e-07
8.28563579941e-08
3.70905244777e-07
3.04424859402e-08
2.36763903136e-08
4.40939024375e-08
1.76242464283e-08
1.95306425041e-08
6.00756410742e-09
2.87808504693e-08
6.17430294541e-09
1.53995015969e-08
1.03539729535e-07
1.80943222581e-08
1.42943402887e-07
1.40242063796e-07
3.41774487365e-07
1.35177743938e-07
1.57627187892e-07
2.13273420019e-07
1.44711300147e-07
1.12602337028e-07
3.11068532229e-07
1.08447619382e-07
2.71405598898e-07
9.16079614848e-07
9.20028964815e-08
1.10558518102e-07
8.00573533199e-08
4.92992822413e-08
9.9523766569e-09
2.97587752703e-08
5.46563202209e-09
7.95489720413e-08
3.04068312637e-08
4.21118506328e-08
5.49160427165e-08
2.96520563086e-08
1.96647576545e-08
2.28540451506e-07
1.12759057585e-07
5.84139499469e-08
2.5260564822e-08
2.85451875539e-08
4.63028416202e-08
1.41140404338e-07
9.87964999066e-08
4.16182926032e-08
7.56670078965e-08
2.34255801336e-08
5.11396097471e-08
9.69977360469e-08
1.64549507009e-09
5.11268819471e-08
1.19399555394e-08
4.72839751845e-08
8.32351958768e-08
8.88598000161e-08
6.11804934249e-08
3.76699023104e-07
2.0794155293e-07
1.65379161317e-08
3.45219022071e-08
6.23062984325e-08
2.58892615464e-08
8.30948393246e-09
3.59618054036e-08
7.11046893594e-08
3.16534838568e-08
1.3782100781e-09
1.83047855888e-08
2.25536311211e-08
7.59578488333e-08
1.6602904025e-07
9.09197962555e-08
1.54120206454e-07
1.01727018538e-07
1.60665784766e-07
1.17735605775e-07
3.34566161807e-09
7.72799420385e-08
5.50557812377e-08
7.0188570206e-08
4.6798882048e-08
1.04448098431e-07
1.95386714161e-08
3.30237262152e-08
3.9791429812e-09
1.0763704331e-08
4.42152524561e-08
4.006205216e-08
3.37519448274e-08
8.61755178986e-08
1.44488532611e-07
6.98903727781e-09
3.04094074761e-08
9.81951286368e-09
8.48985858092e-08
9.337453845e-08
8.28542773618e-09
3.35053226244e-08
5.37989826717e-08
2.91817931193e-08
1.1911008042e-08
7.16005762896e-10
6.36587661946e-09
7.53415378853e-08
8.74345419085e-09
4.994284645e-10
6.06845083822e-09
4.91337028107e-09
1.11045569284e-07
5.74860293047e-08
2.744939775e-07
5.55856381091e-08
3.77569980461e-07
1.77967908293e-07
1.1881494746e-06
1.06560390097e-06
3.98329954034e-07
3.53068362594e-09
3.67393773067e-07
1.54665451827e-07
7.54108337875e-08
6.2392217505e-07
1.51036379344e-06
1.12204053211e-06
1.95159111583e-07
1.70230653275e-07
1.15428394815e-08
1.11019149084e-07
1.02036677308e-07
6.41856838706e-08
6.21167938774e-07
7.51414696535e-07
9.94945503579e-07
1.01341694661e-06
5.97664573522e-08
1.67363830216e-08
6.55223026004e-09
5.92943352245e-08
3.97167879684e-08
5.65212057041e-08
4.95390259953e-08
4.72285341145e-09
2.66253239568e-08
1.11648532189e-07
4.14239751169e-09
4.37845532418e-09
2.43903245087e-08
3.7075012326e-08
8.66216216279e-08
4.65769060336e-08
4.47381029699e-08
2.20372558291e-07
2.31191615024e-07
6.66328368086e-08
1.37679072782e-06
3.28236913093e-07
6.86554905701e-07
1.34347934473e-06
5.83957835102e-07
1.55989331276e-06
8.76552932761e-07
1.52725082498e-07
1.68761247747e-06
1.31774422444e-06
5.01445799023e-07
5.67200170012e-07
1.62840209942e-06
1.48411150398e-06
2.10238367999e-07
7.1809450448e-08
6.08822981074e-07
5.68985126057e-08
1.12568590834e-08
1.98671173119e-08
7.47159760262e-09
1.76415853057e-08
9.15685381021e-10
3.60607750747e-09
1.69233114622e-08
2.17769092584e-08
2.31073094131e-08
2.55093840484e-08
1.10018612191e-08
7.23208453687e-08
2.22617801776e-08
1.08333853572e-08
2.11141815299e-08
2.06710330159e-08
4.99438458482e-09
6.63881902559e-08
7.93003428159e-09
6.60077824203e-08
5.12610835142e-08
2.6076983505e-08
3.05227493627e-08
4.36203640573e-09
4.74742414589e-08
3.64668349763e-08
1.12188709771e-07
2.57530214246e-07
2.59937189539e-08
2.16499190214e-08
4.56510950273e-09
3.0062064669e-07
1.58659171727e-07
3.9759362759e-08
2.16263076522e-07
3.34207919211e-08
5.46413728663e-07
1.26094411686e-07
1.73819097215e-07
5.42028198688e-08
1.96516835655e-07
6.10308452675e-08
2.4701710177e-08
1.98844625292e-08
8.32179154148e-09
5.62070999235e-08
5.24258797608e-09
1.87846106001e-09
9.6668304373e-09
2.01384859793e-09
1.57479466307e-08
6.76244708794e-09
8.53794442223e-09
1.07828329867e-08
1.55836690522e-08
3.35334559786e-09
6.51211258441e-10
3.39770681178e-09
2.33377255732e-08
1.11678023485e-08
3.36286955827e-08
2.17608773132e-08
4.95697634061e-09
6.27416174059e-08
7.65187132389e-08
2.24440786922e-08
8.90524316408e-09
7.16615002823e-08
3.7896264361e-08
1.54098710105e-08
3.76801782625e-08
6.32097946021e-08
5.20091777144e-08
5.73105608093e-09
2.06732181915e-08
2.4654683857e-08
3.6380454862e-08
1.14673586297e-09
1.19490877644e-08
1.17779235152e-08
6.49533312371e-09
1.5286226961e-08
1.06895463688e-08
5.74083984067e-09
1.80096975524e-08
2.20749236526e-08
1.46397328136e-08
2.55561434125e-08
2.55053740689e-08
3.66923461436e-08
1.94344843883e-08
2.24334575815e-08
4.39457481131e-07
6.27305991536e-07
3.4004271585e-07
5.45823528108e-07
1.44649503007e-08
5.22817456888e-08
9.74572277524e-08
1.1956659346e-07
1.02633037543e-10
5.26911593806e-09
1.96120118091e-10
1.90475662296e-08
7.41731354636e-08
4.57642680192e-08
3.62918052492e-08
3.09327818978e-08
6.09355714738e-08
1.25843558941e-08
7.6869873751e-09
1.08073782427e-08
7.79502499131e-08
3.78724841589e-08
3.95404924498e-08
1.66868551059e-07
1.17829633473e-07
4.28298670166e-07
1.49971589014e-07
4.61334968549e-07
1.57257084956e-07
2.12868328612e-08
8.54972144527e-08
6.72003730503e-07
3.32482544377e-07
5.84268012069e-08
1.73858388867e-07
9.51732996875e-08
2.0279275506e-08
4.91288868436e-08
1.02365043309e-07
7.98152245369e-08
1.88090452845e-08
1.86693060943e-08
1.95215317083e-08
1.71827512484e-09
6.5403361903e-08
8.35336815789e-09
2.91711114498e-09
3.22009328743e-08
1.88332939149e-08
5.64720210294e-09
4.67004616414e-09
3.327239432e-09
1.97700529003e-09
1.62784222613e-08
4.55544918211e-09
1.51041586918e-09
1.48808998864e-08
1.09038897282e-08
2.89051426376e-10
8.24279249124e-09
3.08654942176e-09
8.93427076488e-09
9.17040316179e-09
2.49541839493e-08
7.15390593414e-09
4.90669348472e-08
2.19499713441e-07
8.99052836089e-08
5.60831895209e-08
4.86104119745e-09
1.98132059927e-08
3.3754800258e-08
3.06188862623e-08
5.36620530568e-08
2.02650122953e-07
9.46851087514e-08
7.31577256072e-08
4.27277710081e-08
7.10334013023e-08
2.98464632408e-08
1.11503567219e-07
4.69829615598e-08
2.40912798048e-08
1.64686673009e-08
2.49837497216e-08
3.93285943366e-08
4.52560361892e-09
3.8739574089e-08
1.84943705556e-08
2.29860930347e-09
1.93230831317e-07
1.16707042518e-06
9.14030051096e-08
9.23371323571e-07
1.65417526794e-06
8.97156632567e-07
3.1263809011e-07
7.39361792168e-07
6.32064526505e-07
3.57254981085e-07
3.92147539795e-07
1.00438469105e-07
2.20808918979e-08
6.60376744021e-08
7.95640819141e-08
3.10104411846e-08
9.7735948295e-13
4.91800268763e-07
3.97653135618e-08
4.63918795652e-07
1.88454637819e-07
9.78858058172e-08
2.68865566948e-09
7.57167640907e-08
2.44695057381e-09
1.72176327072e-08
1.30327022714e-08
1.79346677993e-08
7.71435757054e-09
4.2790865042e-09
3.01048335251e-09
9.12831412102e-09
4.50489569035e-09
2.41947270421e-09
2.48300252714e-09
5.41342093377e-09
6.23775065467e-10
3.68231103617e-10
5.87368486915e-09
9.7578358711e-10
2.36924275354e-09
3.75225084799e-09
9.87601619805e-10
1.92979334375e-09
8.60961862537e-10
1.62353491483e-09
3.46443906894e-09
4.97036114224e-10
1.11719694976e-08
1.73207730199e-09
6.09319756886e-09
5.14838036137e-09
4.35884316072e-09
3.61318271975e-10
3.22105241752e-09
8.98597824599e-09
1.78677057529e-09
3.05274889591e-10
1.77909100741e-09
6.94634070014e-09
2.39046312389e-09
1.36585603187e-08
2.26503010955e-08
2.04059694723e-09
2.652425043e-08
8.25796579108e-09
1.48108217206e-08
1.84310640773e-08
4.78716540807e-09
3.39281069452e-09
3.9985630641e-08
2.9635302284e-08
2.288300845e-08
4.98482123467e-09
1.90570504005e-08
1.76810152957e-08
1.25541743986e-08
4.87997111461e-09
7.08433495412e-09
1.98066048242e-08
1.45226918309e-08
1.854604991e-08
9.65602144194e-09
2.6588545733e-08
9.2512644807e-09
2.19970935257e-08
1.02524653227e-08
5.06106300303e-08
6.56560714555e-09
5.34011852624e-08
4.74699749549e-08
1.1690544463e-09
3.09974190978e-08
1.19028192413e-08
2.33323750335e-09
7.8493227841e-09
3.40212413026e-08
3.35634827794e-08
1.60214225258e-08
1.37340508238e-07
1.49387141638e-07
5.76636229309e-08
9.2797954609e-08
3.08523384243e-08
4.30218355413e-08
3.67350288942e-08
6.32938408627e-08
8.29004433069e-09
1.86127428281e-07
1.05616535207e-07
1.88797963347e-08
1.82386128505e-08
7.35357026879e-08
1.47790210027e-08
2.39150231378e-08
5.55418312455e-09
5.86870228336e-09
9.31366570865e-09
2.8010719715e-09
1.20681201764e-09
6.0067629361e-13
1.00287682907e-08
1.03946267669e-08
1.69678615796e-08
7.88540046715e-09
2.1793157133e-08
1.58676925414e-08
9.93091680663e-09
8.04312972755e-09
1.09471846241e-08
9.29842656878e-09
4.21800930768e-09
6.4031157564e-09
1.25585249017e-09
3.46904929256e-08
2.92456362667e-08
3.58782587276e-09
4.68434750541e-09
4.08057418076e-09
2.41415483207e-07
4.10972609669e-10
1.41183395502e-08
2.56213935583e-08
2.99364370822e-08
2.46591789457e-08
1.56251924628e-08
6.09518828918e-08
7.12935034974e-10
4.72009717949e-09
1.06968174535e-08
3.05379950048e-10
4.93849188707e-09
5.81157027954e-10
2.28852340765e-10
7.22453316413e-09
8.33851873665e-10
8.26824819753e-10
9.697604671e-10
1.17327694845e-09
3.29363399384e-09
9.09089500471e-09
1.79043281053e-09
1.3972105346e-08
1.04960104634e-10
5.16227039145e-09
4.48200204366e-09
3.89153479329e-09
1.76600303265e-09
1.09105148642e-09
1.34780224275e-09
1.37641807511e-08
8.36465985853e-09
1.53987344035e-08
1.90411700282e-08
7.26340316863e-10
1.66465915168e-08
5.69259960784e-09
1.50543348553e-08
3.31924555887e-09
1.34853783538e-09
1.21644187033e-08
7.477665089e-09
1.47728527963e-08
1.7199708815e-08
6.19672127385e-09
1.33578701087e-09
3.36272999979e-09
5.92797782567e-09
6.14340163158e-09
1.61719508525e-09
2.70235064407e-09
8.00879888395e-09
5.67855679785e-09
2.04943836528e-08
1.24637138748e-08
1.33158718924e-09
5.57307958958e-09
3.02254341853e-10
3.49942706437e-09
2.52917167138e-09
1.72228007927e-09
5.09029667091e-09
1.22393946098e-09
1.3878531083e-09
7.35435537783e-09
5.11992793613e-10
1.19658466045e-08
7.84223373891e-09
5.14937016139e-09
4.27834642807e-09
3.79976910956e-09
1.10631329142e-09
7.23341278782e-09
2.33020638698e-08
9.04136056418e-09
7.6541735828e-09
2.48873960494e-09
3.84551131877e-09
2.64396559834e-09
1.21554659531e-08
6.61747910618e-09
2.3351406717e-08
1.0642129518e-09
3.05105472184e-09
7.79021438415e-09
5.23947936827e-09
2.32723718574e-08
2.92348315743e-10
4.73013365363e-09
5.52071406106e-09
3.42662549502e-09
6.46389791194e-09
1.04531276864e-10
5.83476843145e-10
8.16322588259e-09
2.02101151625e-09
2.32795643436e-08
9.28832734889e-08
2.36625888464e-08
4.35401133969e-08
3.67889822289e-07
4.81090119415e-07
7.14288180448e-08
7.84542277531e-08
6.88662339362e-08
2.14169839257e-07
9.53422007473e-08
1.92790698499e-07
7.53069320277e-07
5.73010687946e-07
1.31177117707e-06
1.24831990282e-06
4.10307680348e-07
2.56577870619e-07
1.06719581512e-09
1.58760721846e-08
1.92881661716e-09
9.58766904269e-08
5.04312825013e-08
1.11261980279e-07
1.25455864705e-07
3.27630383662e-08
1.1358388027e-07
1.13289718196e-08
4.21075304786e-08
2.09823524481e-08
2.23190367203e-08
4.47430458375e-09
7.61587245368e-09
1.11334119311e-08
2.49295964527e-09
7.74255004303e-09
4.78231133868e-09
1.73324252669e-08
1.82635560035e-08
1.4367224125e-08
4.41723677946e-09
6.88222979054e-09
3.31229751685e-09
7.34540217783e-09
5.38692161497e-08
8.79927630821e-09
2.03108439238e-08
1.24834971312e-08
1.7152548005e-08
9.71886393806e-08
1.14916000049e-07
2.64033194771e-07
4.40942903216e-07
7.50400435725e-08
3.04613703524e-08
5.92872577605e-08
7.09126399272e-09
4.70387119124e-08
1.39853595121e-08
1.93704334657e-08
1.28442313096e-08
6.35233582517e-08
1.34471849075e-07
2.13508952711e-07
9.30369461957e-08
2.04592988045e-07
1.17846299828e-07
3.33826489139e-07
2.20952471819e-07
4.06574009991e-07
3.71936823574e-07
1.30870989719e-07
1.99814910165e-07
8.97567858971e-08
1.5896838089e-07
5.10123183557e-08
9.34412939934e-08
7.59113509263e-09
2.98390238999e-08
7.51064024521e-09
2.33083034954e-08
7.31267667184e-08
1.47289472052e-08
3.81767831948e-08
8.26922622019e-08
1.83694910615e-07
2.98888269299e-07
1.48634727687e-07
8.3886752631e-08
2.40861503122e-08
2.46964584928e-08
4.48460035198e-09
1.10124110854e-08
1.72530591531e-08
4.22306065317e-09
3.28872851022e-09
1.03748837714e-09
4.94007438885e-10
1.59262337506e-10
2.66774285622e-08
3.92962913282e-09
1.89841593029e-09
1.53065141665e-09
7.80447035766e-09
5.58370142903e-09
5.94906204899e-09
3.04105728905e-08
9.44114521991e-09
9.31743337248e-09
1.23981132503e-08
1.42970771963e-09
5.25074923317e-09
6.07538824384e-10
3.62129414754e-10
3.51314275274e-09
1.76771440478e-08
2.04001226145e-09
1.5986071553e-08
2.55639005136e-09
1.11601785866e-08
2.14506699773e-09
6.90371705635e-09
1.35105273203e-09
3.36097290242e-09
8.27028094869e-09
1.14117044047e-09
2.67931267872e-09
3.9079374985e-09
1.79391695644e-09
5.65072406371e-09
3.11085280886e-10
1.10269669986e-08
3.58604176596e-10
7.92547565599e-10
4.67064825409e-09
5.53841002668e-09
1.09837687795e-08
1.02347331994e-08
2.63968731911e-08
7.98759628178e-09
1.81838429079e-08
1.10029139221e-08
1.9263179715e-08
1.60742033037e-08
1.81685865316e-08
1.08720502882e-08
7.28127776708e-09
9.8578495214e-09
7.0150862495e-09
2.30559779945e-08
1.33995638397e-08
1.53493212156e-08
3.23659976589e-08
4.25475380742e-08
3.4272411432e-09
1.35783384309e-08
5.856447546e-08
8.27772344648e-08
1.45879135841e-07
1.37606055621e-07
2.43266272573e-07
2.89345903526e-08
2.39542688796e-08
5.15548751291e-08
2.93827184555e-08
2.81055543706e-08
1.77196748477e-08
5.6001264911e-08
8.34311203489e-09
2.19959500941e-09
2.59643904595e-08
1.431296979e-08
3.1613996018e-08
4.26413496241e-08
1.07351704931e-09
4.05227212721e-08
2.16048216275e-08
3.5956305926e-08
7.43064629834e-08
9.36606679292e-08
6.84868265989e-08
7.51694306552e-08
2.48165444222e-07
1.78752956583e-07
1.10921373872e-07
2.42474163572e-07
8.14962550532e-08
1.35818228146e-08
1.36439221585e-07
2.08223407938e-08
1.18208401617e-07
6.55511265163e-08
1.19571398191e-07
2.91719948343e-08
9.5000370002e-08
2.94245183786e-09
4.32505270141e-09
3.81991111523e-08
3.43238244233e-08
1.03556314846e-08
9.15734352703e-07
9.44187912517e-09
5.94723172897e-08
1.62269978376e-07
9.10350628843e-09
1.8473759291e-07
5.72391891915e-08
7.20434546672e-08
1.63653036343e-08
2.45708541348e-08
2.27157044974e-08
1.80956302113e-08
3.53688542328e-08
2.92576759186e-08
2.36145490562e-08
3.86110743833e-08
2.22930384864e-08
3.89162815799e-09
3.35205171379e-09
4.71907712838e-09
2.97907102806e-09
4.17156420863e-07
4.30937946185e-07
3.61834875825e-07
2.95979580448e-07
1.61654151584e-07
1.26204276776e-07
5.32416506042e-08
2.1475259076e-08
1.27073433429e-08
2.652178977e-09
1.62186060734e-08
3.78764496579e-08
2.88994525106e-08
7.07778937156e-08
1.70128618974e-07
4.8412106342e-07
6.5902450315e-07
1.14169942372e-07
7.2953557472e-07
2.00619868222e-07
2.97972282511e-07
5.2641788501e-07
1.21994107368e-07
4.17972399186e-08
1.57556963243e-08
3.49130805735e-07
5.52869567741e-08
2.17014327467e-08
1.28075753278e-08
5.00820343714e-08
8.60660938541e-09
2.50299412863e-09
1.55087796105e-08
5.8678038151e-08
1.00181512223e-07
2.6211728164e-07
1.76601267447e-07
2.2688185445e-08
1.71573572045e-08
3.90956290248e-08
3.26086782394e-08
3.8376308761e-08
1.71586770138e-08
3.96467140325e-08
5.66411725184e-09
8.22993980283e-09
7.48003054291e-09
1.10481391902e-08
4.30241562294e-08
1.53293026293e-07
9.95716578963e-08
1.15360870652e-08
2.69914136492e-09
4.96715448302e-09
4.49983852493e-08
6.59865354173e-09
3.1534899468e-08
6.5073670103e-09
1.01046093681e-08
1.45623411658e-08
4.12421078551e-08
3.36986157616e-08
5.75622173335e-08
1.58061899428e-07
1.53542412958e-07
1.06039071586e-07
2.4704529512e-07
4.97845609989e-07
1.38241618977e-07
7.27694245724e-08
1.79504271886e-08
1.46321350486e-08
1.34186003528e-08
1.83387690896e-08
4.93949102225e-08
1.11892081407e-07