# vtk DataFile Version 3.0
File Name: Molecule/arg/arg_0.5-3.vtk
ASCII
DATASET UNSTRUCTURED_GRID
FIELD FieldData 1
TIME 1 1 double
0.0
POINTS 155 double
-3.4393291473 0.24424605072 1.4261804819
-3.082392931 -0.11993775517 0.4813670218
-3.0079674721 -0.5518103838 1.509278059
-2.5453660488 -0.9878012538 0.55258774757
-2.9746978283 0.083188831806 -0.023215461522
-2.4941852093 -0.46617904305 0.14378400147
-2.2400000095 -0.46966663003 -1.0743333101
-2.2102100849 -0.46873277426 -0.88801944256
-2.3955299854 -0.24109727144 -1.1657588482
-2.376137495 1.0688490868 -1.4341306686
-2.8102297783 1.7142425776 -0.44224953651
-2.3203425407 1.8828493357 -0.61206287146
-1.9594352245 1.4542976618 -1.5118145943
-1.7040200233 1.9221014977 -1.0925843716
-2.5479984283 2.6206727028 0.48849955201
-1.7565484047 2.4963326454 -0.61884355545
-1.4317464828 3.2421517372 0.083017028868
-3.1706647873 2.302656889 1.4964067936
-1.858148694 3.3299508095 1.4769510031
-2.452078104 3.0961298943 2.2010512352
-2.9263396263 2.1731760502 2.7320151329
-2.7087059021 2.555082798 2.3771715164
-3.4145476818 1.7895669937 1.8226087093
-3.1565928459 0.75849336386 3.0691857338
-3.0986127853 1.7789006233 3.040197134
-3.3838374615 0.77515554428 1.9654337168
-3.0429978371 0.41430583596 2.2852072716
-3.1102492809 0.12676110864 1.8789224625
-2.8959383965 0.28202751279 2.9463813305
-2.8753931522 0.038307897747 2.2781245708
-2.9993662834 -0.21405984461 1.8626996279
-2.5005545616 -0.72392570972 2.4240047932
-2.4675900936 -0.063080586493 3.5594820976
-1.9730752707 -1.2462234497 3.454007864
-0.97530984879 -2.2553391457 2.0957722664
-1.6208503246 -1.6901683807 1.2429307699
-0.9530351162 -2.2283511162 0.28389140964
-1.9902976751 -1.1833591461 -0.12825600803
-2.2948722839 -0.31432032585 -0.47344574332
-2.0519618988 -0.77768534422 -0.79635190964
-1.933400631 -1.2750819921 -0.99489951134
-2.0832631588 -0.70863950253 -1.2134525776
-1.6795914173 -1.5698002577 -1.5860347748
-2.1953136921 -0.50576788187 -1.7739392519
-1.7569594383 -0.77284169197 -2.0518255234
-1.5463191271 0.14026527107 -2.7147991657
-2.1231913567 0.21079169214 -2.3761355877
-1.8643860817 0.96657109261 -2.3617408276
-1.060229063 0.56291592121 -3.3908474445
-1.6459777355 1.4253840446 -2.174590826
-1.2401292324 1.6071653366 -2.8490970135
-1.1248198748 2.0663537979 -2.1693546772
-1.5006754398 1.8239623308 -1.7056255341
-1.3188177347 2.4120028019 -1.2737861872
-0.42559736967 2.6023874283 -2.4289901257
-0.80559957027 3.0140962601 -1.2802945375
0.78695166111 2.7020437717 -1.7208884954
0.70385223627 3.4052753448 -2.7464137077
-0.017637327313 3.2495751381 -2.8486585617
0.43438702822 3.2976276875 -0.6580658555
1.0696144104 2.4611315727 -0.48285150528
1.5526823997 2.019302845 -1.2134718895
0.94134765863 2.7875833511 0.29421189427
1.5390877724 1.9160095453 0.064538784325
1.2137336731 2.2119524479 1.0406032801
0.38897675276 3.0999712944 0.84014451504
0.56371724606 2.7683894634 2.2692687511
-0.17123153806 3.3991179466 2.0349488258
-0.60250395536 3.2859761715 3.5201451778
0.19132474065 2.6570394039 3.9441831112
-0.65113550425 2.7087476254 4.005753994
-1.8985953331 2.7181017399 3.8601310253
-2.0242288113 3.2594146729 3.3779497147
-2.2873573303 2.6579787731 3.5957834721
-0.55175107718 1.8167716265 4.5348830223
-1.0684069395 2.1162042618 4.3952655792
-2.4453189373 2.2284739017 4.1067466736
-1.5638487339 1.7546525002 4.5637016296
-0.28339073062 1.0718499422 4.7784457207
-1.2132612467 1.0751104355 4.6464362144
-0.60457062721 0.16872763634 4.8122682571
-1.662519455 0.71547478437 4.6323442459
-1.0422612429 -0.4772297442 4.747294426
0.13049444556 -1.1995418072 5.0744743347
0.34923839569 -0.47229018807 5.1839718819
0.91631019115 -2.4413509369 3.9105083942
1.2577563524 -0.82622110844 5.3322234154
2.0227482319 -2.0653886795 4.1206474304
1.0180021524 -1.8560758829 2.1418430805
1.9922418594 -2.0270726681 3.1256353855
0.95509964228 -1.7862826586 0.52454930544
1.3889178038 -1.1758471727 0.20387028158
1.9004462957 -1.4726276398 2.1783549786
2.3441648483 -0.47845447063 1.9528795481
1.7024312019 -0.12350027263 0.84859716892
1.7625979185 0.2079795599 -0.21208456159
1.6836938858 -0.79244995117 -0.80906885862
1.0945504904 -2.0144999027 -1.8219653368
1.6647197008 -1.3807737827 -2.6686294079
2.1927258968 -0.17525863647 -1.4471757412
-0.41961941123 -1.5677059889 -2.533390522
0.13440705836 -0.80384856462 -3.4078722
-0.99358326197 -1.2819933891 -2.4371142387
-0.39319813251 -0.74127686024 -2.9955973625
-0.60753625631 -0.28701496124 -3.3351964951
-1.1050803661 -0.5840921998 -2.6963126659
-0.026994109154 0.56095051765 -4.0396585464
0.55104076862 0.40480005741 -4.2397842407
-0.40960928798 1.9271379709 -3.5823311806
0.3699875474 1.3391113281 -4.3980884552
0.12416304648 2.0082714558 -4.128118515
0.01595114544 3.0020778179 -3.6683514118
0.92533236742 2.2121458054 -4.0292887688
0.46309399605 3.1434164047 -3.8713788986
0.92858302593 3.077914238 -3.6695210934
1.123978734 3.1335589886 -2.9293265343
1.6383333206 2.6293656826 -3.2629466057
1.6571362019 2.694583416 -2.5531172752
1.2652852535 2.5893850327 -2.1651761532
2.1876907349 2.1686606407 -2.5190572739
2.122407198 1.6293016672 -1.9606364965
2.4123284817 1.3016270399 -2.3183939457
2.3888571262 0.71823883057 -1.6830060482
2.0349519253 0.89384317398 -1.203572154
1.9738028049 0.92814826965 0.014997790568
1.8466464281 2.0345973969 -3.4162561893
1.9558596611 1.1738381386 -3.8939123154
1.1785883904 1.6380422115 -4.1888494492
1.8853982687 1.3126342297 1.3505889177
2.5621228218 0.92206192017 2.6201074123
1.8826955557 1.6411368847 2.4863562584
1.2881231308 2.313975811 2.1430203915
0.69458144903 1.6429493427 4.7104902267
2.1303153038 1.4875138998 4.059211731
0.58990120888 0.86056429148 4.9775891304
-0.063171058893 0.41083347797 5.036043644
1.3406323195 0.77665996552 5.0737018585
-3.9357581139 1.1856487989 0.81505280733
-1.7154713869 3.903932333 2.5075969696
-2.7294473648 1.4792649746 4.4153494835
-1.1200914383 -1.9593822956 4.6341705322
0.76808190346 -2.6407940388 -0.84310996532
3.659579277 -0.37186339498 3.5928676128
2.7973127365 0.50674688816 5.0131268501
2.7585647106 -1.1261003017 5.0488796234
3.1307837963 -1.1270246506 2.6998198032
2.151746273 0.64639502764 5.2104797363
2.1004722118 -0.50133097172 -3.9910340309
-0.01741893962 -2.922046423 2.9127435684
-1.3298757076 -2.550495863 3.3998110294
-0.19813469052 -2.5558218956 4.4483923912
3.0279695988 1.0387337208 4.0069675446
0.97409856319 3.4156577587 -3.2976937294
-0.0044771172106 3.4376423359 -3.1350138187
3.1286787987 -1.5942716599 3.8575479984

CELLS 306 1224
3 0 1 2
3 2 1 3
3 1 4 5
3 6 7 8
3 8 4 9
3 10 9 4
3 10 11 9
3 12 11 13
3 11 14 15
3 15 14 16
3 14 17 18
3 18 17 19
3 20 21 22
3 17 22 21
3 23 24 25
3 22 25 24
3 26 25 27
3 0 27 25
3 23 26 28
3 29 28 26
3 29 27 30
3 2 30 0
3 2 31 30
3 28 31 32
3 33 31 34
3 35 34 31
3 36 35 37
3 3 37 35
3 3 5 37
3 5 38 37
3 37 39 40
3 40 41 42
3 41 7 6
3 38 8 7
3 41 6 43
3 44 42 41
3 45 44 46
3 43 46 44
3 46 47 45
3 45 47 48
3 9 12 47
3 49 47 12
3 50 49 51
3 52 51 49
3 52 13 53
3 53 13 15
3 54 51 55
3 53 55 51
3 55 56 54
3 57 58 56
3 59 60 56
3 56 60 61
3 60 62 63
3 63 62 64
3 62 65 64
3 65 66 64
3 65 16 67
3 67 16 18
3 67 68 66
3 66 68 69
3 70 68 71
3 72 71 68
3 71 72 73
3 19 21 72
3 69 70 74
3 75 74 70
3 76 77 71
3 73 76 71
3 76 73 24
3 20 24 73
3 78 74 79
3 77 79 74
3 79 80 78
3 81 80 79
3 81 32 82
3 82 32 33
3 83 84 82
3 80 82 84
3 83 85 86
3 86 85 87
3 85 88 89
3 88 34 90
3 90 34 36
3 90 91 92
3 93 92 94
3 94 91 95
3 96 95 91
3 97 98 96
3 99 96 98
3 97 100 98
3 98 100 101
3 100 102 103
3 104 103 105
3 105 102 44
3 42 44 102
3 105 45 104
3 104 45 48
3 106 101 104
3 101 106 107
3 106 108 109
3 109 108 110
3 108 54 111
3 111 54 58
3 112 110 113
3 114 115 116
3 116 115 117
3 115 57 118
3 118 57 56
3 117 118 119
3 120 119 118
3 121 120 122
3 123 122 120
3 123 61 124
3 124 61 63
3 124 95 123
3 95 99 123
3 119 121 125
3 126 125 121
3 126 107 127
3 127 107 109
3 127 112 125
3 125 112 116
3 94 128 93
3 93 128 129
3 130 128 131
3 64 131 128
3 132 133 69
3 132 78 134
3 134 78 135
3 134 84 136
3 136 84 86
3 27 0 30
3 38 5 4
3 4 8 38
3 12 9 11
3 15 13 11
3 18 16 14
3 21 19 17
3 24 20 22
3 26 23 25
3 28 29 31
3 33 32 31
3 36 34 35
3 39 37 38
3 39 41 40
3 43 44 41
3 50 48 47
3 49 50 47
3 53 51 52
3 58 54 56
3 59 56 55
3 63 61 60
3 131 64 66
3 67 66 65
3 70 69 68
3 77 74 75
3 135 78 80
3 82 80 81
3 86 84 83
3 90 92 88
3 91 94 92
3 99 95 96
3 103 101 100
3 102 105 103
3 109 107 106
3 111 110 108
3 116 112 114
3 118 117 115
3 121 119 120
3 122 123 99
3 127 125 126
3 130 129 128
3 134 136 132
3 0 25 137
3 0 137 1
3 4 1 137
3 4 137 10
3 10 137 14
3 10 14 11
3 14 137 17
3 17 137 22
3 22 137 25
3 5 3 1
3 2 3 35
3 2 35 31
3 29 30 31
3 7 41 39
3 7 39 38
3 9 46 8
3 43 8 46
3 8 43 6
3 47 46 9
3 13 52 12
3 12 52 49
3 16 65 59
3 16 59 55
3 16 55 15
3 53 15 55
3 59 65 62
3 59 62 60
3 72 68 138
3 72 138 19
3 19 138 18
3 18 138 67
3 67 138 68
3 75 71 77
3 21 73 72
3 73 21 20
3 71 75 70
3 139 23 32
3 23 139 24
3 24 139 76
3 76 139 77
3 79 77 81
3 139 81 77
3 81 139 32
3 28 32 23
3 27 29 26
3 33 140 82
3 82 140 83
3 37 40 36
3 36 40 42
3 36 42 141
3 36 141 90
3 90 141 91
3 91 141 96
3 97 96 141
3 97 141 100
3 100 141 42
3 100 42 102
3 45 105 44
3 51 54 50
3 50 108 48
3 48 108 106
3 48 106 104
3 103 104 101
3 108 50 54
3 61 123 120
3 61 120 118
3 61 118 56
3 64 128 63
3 63 128 124
3 95 124 94
3 128 94 124
3 66 69 131
3 131 69 130
3 130 69 133
3 132 69 74
3 132 74 78
3 80 84 135
3 135 84 134
3 142 143 144
3 93 129 145
3 86 144 146
3 144 86 87
3 101 107 147
3 101 147 98
3 98 147 99
3 121 122 147
3 99 147 122
3 121 147 126
3 126 147 107
3 110 112 109
3 109 112 127
3 117 119 116
3 116 119 125
3 85 148 88
3 88 148 34
3 34 148 149
3 148 150 149
3 148 85 150
3 149 150 140
3 34 149 33
3 149 140 33
3 140 150 83
3 83 150 85
3 136 133 132
3 130 133 129
3 129 151 142
3 142 151 143
3 146 143 133
3 151 133 143
3 151 129 133
3 146 133 136
3 143 146 144
3 146 136 86
3 92 89 88
3 85 89 87
3 111 113 110
3 112 113 114
3 114 152 115
3 115 152 57
3 57 153 58
3 58 153 111
3 114 113 152
3 113 153 152
3 113 111 153
3 152 153 57
3 87 154 144
3 144 154 142
3 142 154 145
3 154 89 145
3 154 87 89
3 145 89 92
3 142 145 129
3 145 92 93

CELL_TYPES 306
5
5
5
5
5
5
5
5
5
5
5
5
5
5
5
5
5
5
5
5
5
5
5
5
5
5
5
5
5
5
5
5
5
5
5
5
5
5
5
5
5
5
5
5
5
5
5
5
5
5
5
5
5
5
5
5
5
5
5
5
5
5
5
5
5
5
5
5
5
5
5
5
5
5
5
5
5
5
5
5
5
5
5
5
5
5
5
5
5
5
5
5
5
5
5
5
5
5
5
5
5
5
5
5
5
5
5
5
5
5
5
5
5
5
5
5
5
5
5
5
5
5
5
5
5
5
5
5
5
5
5
5
5
5
5
5
5
5
5
5
5
5
5
5
5
5
5
5
5
5
5
5
5
5
5
5
5
5
5
5
5
5
5
5
5
5
5
5
5
5
5
5
5
5
5
5
5
5
5
5
5
5
5
5
5
5
5
5
5
5
5
5
5
5
5
5
5
5
5
5
5
5
5
5
5
5
5
5
5
5
5
5
5
5
5
5
5
5
5
5
5
5
5
5
5
5
5
5
5
5
5
5
5
5
5
5
5
5
5
5
5
5
5
5
5
5
5
5
5
5
5
5
5
5
5
5
5
5
5
5
5
5
5
5
5
5
5
5
5
5
5
5
5
5
5
5
5
5
5
5
5
5
5
5
5
5
5
5
5
5
5
5
5
5
5
5
5
5
5
5
5
5
5
5
5
5

CELL_DATA 306
SCALARS cell_data_0 double
LOOKUP_TABLE default
1.67559329038e-07
3.0846628459e-08
3.7391547388e-08
2.86753699185e-08
5.72507166829e-08
3.35410967143e-07
5.61191550906e-07
4.86022171885e-08
3.02062115038e-07
3.01534736844e-07
9.22482221911e-08
1.05458501909e-07
2.11512557439e-08
1.19971990837e-08
6.7503465365e-08
3.48747593103e-08
4.35270008358e-09
2.70485889605e-08
2.96408808139e-08
1.97188185959e-07
8.47029232419e-08
7.35185969116e-08
2.18077037324e-07
6.34103375449e-07
4.28034291118e-06
2.70865972941e-07
2.21371932452e-09
2.8734552727e-07
3.15513579342e-07
3.05475398193e-07
1.63480035041e-07
3.71961349078e-07
4.76218358911e-08
1.83821626217e-07
1.11450808999e-07
2.65265122048e-07
3.73817980217e-08
2.96734932869e-07
9.67139270549e-08
1.11786472394e-09
2.4119421862e-07
3.31240385729e-07
1.50500142982e-07
2.87121823939e-07
9.46104263976e-08
9.03332095342e-08
1.25819983536e-06
3.65235814176e-07
3.0200657777e-06
2.21562489387e-06
7.27627402412e-07
9.58390698087e-07
2.3005070674e-08
1.03894509974e-07
1.6931323966e-07
6.24315333745e-07
4.55864663179e-07
2.51683192555e-09
6.15432640143e-07
8.17047644546e-07
4.38511480709e-07
4.6343748928e-08
1.08023044276e-07
1.5947893723e-07
1.2661311143e-06
2.18457787313e-07
1.07108047846e-09
7.03761944153e-08
5.12322459601e-08
7.83421216007e-08
5.25960235952e-10
3.25748267232e-07
1.38206660522e-07
5.17424054411e-08
1.65903783908e-06
2.842840344e-08
1.12007134975e-07
1.34482831257e-07
1.29689889407e-05
3.0160417754e-05
1.40723041835e-05
1.88926072661e-06
1.63046641877e-06
6.38232674489e-08
1.10922909126e-07
8.38573299752e-07
7.84844085343e-07
6.4964514829e-06
7.53749328527e-06
4.6175996608e-06
1.52999701727e-06
1.43039289418e-07
6.83225251142e-08
1.81498374753e-07
2.90019223011e-08
1.38387747226e-07
4.37929893188e-07
2.32426827138e-06
1.2318829346e-06
1.76113026482e-05
1.74380207893e-06
1.16795888505e-06
3.09173567242e-06
8.66644705518e-06
1.05276506398e-06
2.69249313137e-06
2.09796734295e-06
1.9597539325e-06
2.92480232102e-07
1.36628269833e-05
2.36025656644e-06
8.99832022641e-07
5.65601665364e-07
7.10559665126e-07
7.33878379982e-07
2.03461871398e-06
5.23754605359e-06
6.80458016768e-06
5.96727626167e-06
1.55136204672e-05
4.2406186233e-06
5.75108440954e-06
6.14727260747e-07
1.22988033214e-06
8.523981118e-06
2.62207220788e-07
1.0769018725e-05
2.33698605436e-07
6.01770436845e-08
2.72346112089e-07
4.04164629368e-07
1.29374129328e-08
9.82218973558e-08
1.12568490718e-06
1.11586935237e-07
1.66947622368e-07
3.6777481128e-07
9.35049810133e-08
8.06231130753e-08
2.325573034e-07
6.07072194772e-08
2.85970180578e-06
2.66026349409e-06
1.33235958076e-07
9.7640809822e-08
3.4935982986e-07
6.00171270275e-07
4.06868737825e-07
1.84941102027e-08
4.93506375586e-07
4.54365870772e-07
2.57654260137e-07
1.80543140578e-06
3.00180495523e-07
4.5531101281e-07
8.69673079285e-09
6.49834997452e-08
1.36600299532e-07
2.59648598937e-07
3.69725962043e-06
5.40238689138e-08
2.14573425317e-06
1.6791851139e-07
1.72665629015e-07
1.26085679054e-05
2.51421058011e-06
3.13434640962e-06
7.66563577653e-07
5.59657279416e-06
2.23042955323e-06
1.31376914942e-06
7.21150510605e-06
1.59556295057e-07
9.3196628247e-08
2.26369628847e-08
5.9316096877e-08
6.01019892914e-07
1.0865973099e-07
3.89925758159e-08
4.00444161365e-08
1.29690071661e-07
6.60088757068e-08
1.33363798795e-07
1.62910157825e-07
2.55545932517e-06
2.86548332246e-07
8.42263275357e-08
1.19863857205e-07
2.31457956237e-06
4.40103372394e-07
1.2081483746e-07
3.87089769574e-07
1.63428867515e-07
1.02055559998e-07
7.87110835146e-07
2.04493986344e-07
9.25459577537e-08
1.66002158786e-07
2.97952064805e-07
1.66578356698e-08
6.65754707534e-08
1.63773019884e-07
1.15215334065e-07
1.54550779784e-07
3.55567444844e-08
1.3023913909e-07
7.55092980164e-08
1.13986538605e-07
6.78385009607e-08
1.20092864862e-07
9.56440652962e-10
1.30516964265e-07
9.54034937323e-09
1.69560354311e-08
1.73123293178e-07
5.89818798957e-07
1.16851348769e-07
3.52590732842e-08
1.84230501383e-05
4.20160566015e-07
8.56463662022e-07
1.05800088591e-06
3.00821167824e-07
6.56908233754e-06
5.16141351943e-07
1.3957421084e-06
1.64201829987e-06
1.14572894705e-06
6.11042128893e-07
3.7280099315e-07
5.56476945538e-07
7.25278173211e-07
7.17145180839e-08
5.40453352322e-06
5.01466013544e-07
3.74098297621e-07
7.72314629489e-07
7.22057167937e-08
3.22436389436e-06
1.06358014226e-06
1.34120297471e-06
5.45133502223e-07
5.1396308419e-07
1.00098296019e-06
5.30660449117e-06
2.08862019118e-05
6.39894967385e-05
6.14857834774e-07
4.41864582131e-07
1.19731000407e-08
5.32109990558e-08
2.55927123231e-07
1.98287809224e-07
2.48684380594e-06
4.58079511007e-05
4.05512970075e-06
3.41674187073e-06
1.74365260988e-06
3.71339921265e-06
3.04459203538e-06
2.70691785974e-06
5.3197059917e-06
7.88785193822e-06
4.37312681881e-06
1.69591527588e-06
1.25014247102e-05
6.42738476337e-06
3.7378690587e-06
2.22675498794e-07
1.07683948218e-06
1.16734948433e-05
4.38128941781e-06
1.14730626868e-05
9.8567391205e-06
3.00883032614e-07
1.54485813457e-05
3.34762619339e-06
9.85783387228e-06
5.90025647823e-05
1.41721026383e-05
2.54649751252e-06
8.05324364665e-06
3.03715354949e-06
1.34931846205e-06
7.80693770353e-08
3.01048962909e-07
3.34741313344e-08
3.5305815223e-06
2.91058929303e-06
1.74708175009e-07
2.90188334685e-07
4.07920694479e-06
1.22971483043e-06
3.65869603141e-06
5.16624094736e-06
2.21967303075e-05
1.06434588249e-06
2.01543078778e-06
7.46808184602e-06
2.35534253357e-06
8.54103236636e-07
9.04025667357e-07
1.14626236712e-05
2.94574718803e-07
1.18719919904e-06
4.29537553751e-07

