# vtk DataFile Version 3.0
File Name: Molecule/arg/arg_5.0-5.vtk
ASCII
DATASET UNSTRUCTURED_GRID
FIELD FieldData 1
TIME 1 1 double
0.0
POINTS 1005 double
-3.1336491108 -0.27977097034 1.2609174252
-3.1359932423 -0.028372548521 1.6540215015
-3.42679286 0.075869433582 1.1212249994
-3.3866682053 0.2858043313 1.5961270332
-2.9862291813 -0.3831885457 1.800188303
-2.9775702953 -0.73287165165 1.3797459602
-3.0531704426 -0.26686415076 0.65148854256
-3.2996151447 0.033324718475 0.47974601388
-2.8414621353 -0.70937108994 0.75203597546
-2.964369297 -0.13534218073 0.28563573956
-2.7058990002 -0.34519726038 0.28998398781
-2.5497324467 -0.63534891605 0.27956846356
-2.7224063873 0.096217177808 -0.30347618461
-2.648222208 -0.1119351685 -0.025759438053
-3.0288865566 0.1034482345 0.044909577817
-2.4701681137 -0.13305231929 -0.34259575605
-2.3296039104 -0.23602601886 -0.60459429026
-2.5540688038 0.034533347934 -0.6065993309
-2.2805643082 -0.37714311481 -0.34854263067
-2.1721844673 -0.51328033209 -0.67381989956
-2.2625126839 -0.33373454213 -0.83690607548
-2.892015934 0.46679419279 -0.56304520369
-3.2560789585 0.5313385725 -0.21322597563
-2.6720130444 0.30805599689 -0.95406103134
-2.3929390907 -0.26868978143 -1.1285563707
-2.4483661652 -0.0803027004 -0.89039283991
-2.6057953835 0.14542472363 -1.3939039707
-3.1543087959 1.2373495102 -0.4612390995
-2.8204596043 1.0717257261 -0.74364578724
-2.6087703705 0.8812481761 -1.1266853809
-2.5369455814 0.78910541534 -1.5606787205
-2.7824757099 1.6921080351 -0.52023917437
-2.5198431015 1.4055094719 -0.79987835884
-2.316857338 1.2270342112 -1.1887198687
-2.194406271 1.1499536037 -1.668749094
-2.1961307526 1.8280699253 -0.65666347742
-2.4043240547 1.6040529013 -0.71889066696
-2.4380018711 1.9968260527 -0.4312992394
-2.1640639305 1.5049568415 -1.0234519243
-1.9235955477 1.8024986982 -0.90609925985
-1.7309929132 1.7690837383 -1.3124670982
-1.9462580681 1.4731514454 -1.5060179234
-1.9517037868 2.1823294163 -0.59640669823
-2.1485152245 2.4353113174 -0.23867328465
-2.5070021152 2.3151433468 -0.13872070611
-1.6380754709 2.4196531773 -0.87021565437
-1.6552468538 2.8128938675 -0.56378871202
-2.4323692322 2.5444982052 0.16433554888
-1.9292052984 2.7285587788 -0.024645991623
-1.5544407368 3.1182487011 -0.23525600135
-1.9847037792 2.7683365345 0.48205265403
-2.487963438 2.6558089256 0.65150672197
-1.5212131739 3.1450970173 0.22365733981
-2.8663585186 2.6009452343 0.99699687958
-2.2519586086 2.7689816952 1.0233949423
-2.5909042358 2.7093026638 1.3464889526
-2.0198886395 2.9884393215 1.2545942068
-2.3582639694 2.9400439262 1.562718749
-1.8726806641 3.3342430592 1.5270240307
-2.2306537628 3.2817299366 1.8847433329
-3.1929438114 2.2817559242 1.4791833162
-2.8266723156 2.4751148224 1.7290878296
-2.6285316944 2.6778686047 1.979259491
-2.5074079037 2.9985399246 2.3369343281
-2.8887195587 2.3539099693 1.9440711737
-3.077562809 2.0177268982 2.1255190372
-3.4299962521 1.7975234985 1.7544336319
-2.7405102253 2.5158722401 2.3804533482
-2.9624488354 2.0573351383 2.6261079311
-3.3155627251 1.2420387268 2.2180960178
-3.2091999054 1.6962409019 2.1539390087
-3.5837032795 1.2502214909 1.7734552622
-3.1056680679 1.6935765743 2.5445697308
-3.2206127644 1.1017990112 2.5863335133
-3.1044466496 1.8097032309 2.9958758354
-3.2486481667 1.2743985653 3.0290718079
-3.4055051804 0.61938428879 1.8417185545
-3.1822106838 0.69917726517 2.2351763248
-3.0962917805 0.66618472338 2.5380842686
-3.0837037563 0.65073221922 2.8762357235
-3.1297810078 0.37376445532 2.0486900806
-3.0637595654 0.043861873448 1.9091339111
-2.9058241844 0.082008719444 2.2519829273
-3.0310442448 0.43804106116 2.3597495556
-2.9037802219 0.30351108313 2.6211607456
-2.9600331783 0.36506143212 3.1237010956
-2.8397901058 -0.358635813 2.1599497795
-2.4398407936 -0.3879211843 2.7690951824
-2.7030034065 -0.16213554144 2.5328142643
-2.5225329399 -0.6917911768 2.4296491146
-2.7432744503 0.081242650747 2.8547427654
-2.5220632553 -0.13367305696 2.9804565907
-2.6498911381 0.048681221902 3.3869149685
-2.2185966969 -0.65534031391 2.8418850899
-2.2039840221 -0.98298233747 2.677233696
-2.2911829948 -1.4317525625 1.8510150909
-1.976929307 -1.5552375317 2.2192051411
-2.4383714199 -1.1400859356 2.2152299881
-1.9431744814 -1.6792935133 1.5987766981
-1.5729016066 -1.8658519983 2.0876283646
-1.4007730484 -2.1990973949 2.4561741352
-1.7686507702 -1.7832826376 2.4891769886
-1.2917108536 -1.8472713232 1.6664689779
-1.5779178143 -1.7271704674 1.2506122589
-0.99871820211 -2.2621099949 2.1134023666
-1.2942329645 -1.7930692434 0.88527852297
-1.7149606943 -1.6596355438 0.60478711128
-2.012229681 -1.5971338749 1.0014255047
-1.1651725769 -1.9192876816 0.56224817038
-1.5533407927 -1.7916493416 0.2755073905
-0.94731360674 -2.249004364 0.26566889882
-1.3828355074 -2.1200613976 -0.037563107908
-2.3721561432 -1.2201135159 0.61458265781
-2.0445628166 -1.3238235712 0.26605653763
-1.9012225866 -1.420668602 -0.090242870152
-1.7835477591 -1.7074707747 -0.46236863732
-2.438795805 -0.95023757219 0.3555251658
-2.1355857849 -1.0476225615 0.044800959527
-2.0211679935 -0.99581760168 -0.31851235032
-1.9361763 -1.2193815708 -0.7165941596
-2.2386658192 -0.68625921011 -0.039109244943
-2.412047863 -0.37755683064 -0.035363078117
-2.1320254803 -0.64572614431 -0.38885220885
-2.0388062 -0.81184619665 -0.779730618
-1.9722206593 -0.96700590849 -1.2062015533
-1.8687793016 -1.4730232954 -1.1258039474
-2.3012259007 -0.44069823623 -1.4202739
-2.1550633907 -0.59924691916 -1.0276625156
-1.8709001541 -0.86046177149 -1.7426156998
-2.1325495243 -0.49801024795 -1.9022808075
-1.6802726984 -1.3695114851 -1.7227784395
-1.9866617918 -0.25429952145 -2.308054924
-1.7326029539 -0.82374817133 -2.0445001125
-1.6427083015 -0.42990064621 -2.4518144131
-1.8736003637 0.1695523113 -2.5433299541
-1.3986951113 0.039249107242 -2.7950592041
-2.0039758682 0.62722975016 -2.4332580566
-1.4983651638 0.34669971466 -2.7743403912
-1.6312941313 0.79852896929 -2.6473679543
-1.3241955042 0.97882962227 -3.0425198078
-1.2273802757 0.37314212322 -3.1218280792
-2.0151758194 1.0378125906 -2.1744813919
-1.6014231443 1.2181117535 -2.4292967319
-1.3041627407 1.5402802229 -2.7230386734
-1.637767911 1.5161066055 -2.0684866905
-1.1479767561 2.0149333477 -2.1976885796
-1.4672522545 1.8432017565 -1.7314705849
-1.3822996616 2.1186554432 -1.4047372341
-1.6330111027 2.0572392941 -1.074444294
-1.3125978708 2.5939605236 -1.1740547419
-0.8332272172 2.9786486626 -1.3034310341
-1.0642365217 2.2696332932 -1.7000132799
-0.6051517725 2.6416423321 -1.807284832
-0.55889105797 2.5114526749 -2.3297998905
-0.41377043724 2.9336078167 -1.5780405998
-0.73718452454 3.3420419693 -1.0046759844
0.1474532336 3.1295115948 -1.3081657887
0.45976144075 3.1469426155 -0.90873616934
0.040049638599 3.4950027466 -0.76183187962
-0.1155526042 2.9632115364 -2.1109015942
0.31545573473 2.9937205315 -1.8124405146
0.44752550125 3.1636345387 -2.4200735092
0.010062910616 3.1160459518 -2.5541977882
0.35030281544 3.0561199188 -2.1485493183
0.82255202532 2.9178822041 -0.65382713079
0.58741754293 2.842862606 -1.2993783951
0.99235028028 2.5603451729 -1.146777153
0.86488139629 2.6937117577 -1.847355485
1.3078349829 2.4144127369 -1.5585608482
1.0552561283 2.5608866215 -0.34284585714
1.2275137901 2.1959176064 -0.83340734243
1.5673069954 1.9993042946 -1.2189046144
0.9842980504 2.7598357201 0.20097200572
1.2569358349 2.1862459183 -0.10822360963
1.2207163572 2.3390614986 0.36966755986
1.5372489691 1.9193624258 0.10036932677
1.4849662781 2.0968699455 0.59666669369
0.98730587959 2.526506424 0.6613047123
0.72949594259 2.8474152088 0.70003116131
1.2160961628 2.21387887 0.98537737131
0.82577621937 2.457536459 1.1020107269
0.44416227937 2.7857582569 1.2423262596
0.38950845599 3.1032037735 0.84277743101
0.81922036409 2.4543902874 1.6829673052
0.43030464649 2.7110843658 1.7916761637
1.1470532417 2.3918037415 2.0909662247
0.74010413885 2.7032878399 2.2606198788
0.050576783717 3.42415452 0.71038413048
0.10720836371 3.0725405216 1.2276102304
-0.21180266142 3.3627774715 1.0912394524
0.078461974859 3.0081279278 1.6481525898
-0.27835822105 3.3823711872 1.4934518337
-0.034052599221 3.2614219189 2.0503771305
-0.40680617094 3.6088857651 1.9516599178
-0.42666292191 3.593667984 0.47699555755
-0.73300766945 3.4939742088 0.89907550812
-0.70418262482 3.5338969231 1.3370592594
-0.99075138569 3.7431862354 1.677017808
-1.0768750906 3.4787483215 0.33598428965
-1.1716252565 3.3835406303 0.80712449551
-1.240136385 3.4459428787 1.1868981123
-1.4746679068 3.6343739033 1.5900292397
-1.5079072714 3.1137084961 0.70296299458
-1.6100811958 3.178514719 1.1201751232
-0.063234783709 3.4108219147 2.5037186146
0.28136920929 2.9340436459 2.1999545097
0.2833506465 3.0607681274 2.6491444111
0.73066985607 2.8534359932 2.7836925983
-0.1524541229 3.4244356155 2.9663896561
0.23441810906 3.045920372 3.1166417599
0.70911967754 2.8513259888 3.3461272717
-0.098378308117 3.0493478775 3.457747221
-0.43149453402 3.3953967094 3.3292882442
0.29644134641 2.8402211666 3.6804876328
-0.66804492474 3.1916661263 3.651658535
-0.29187458754 2.8430194855 3.768753767
-0.035681165755 2.6289689541 4.0402317047
-1.1267895699 2.7497153282 4.0442686081
-0.62670189142 2.7955474854 3.9026019573
-1.1334887743 3.1978106499 3.7489759922
-1.5920536518 2.8991553783 3.857653141
-1.6007938385 3.2608113289 3.6538288593
-1.9697356224 3.1443676949 3.5097177029
-2.0461053848 2.8346250057 3.6598370075
-2.3879678249 2.8120014668 3.278768301
-2.2500975132 3.1849339008 3.204477787
-2.446521759 3.1518497467 2.8070061207
-2.5959770679 2.7585849762 2.8120725155
-0.7813283205 2.3819429874 4.2705545425
-0.24482294917 2.1587054729 4.4450116158
-0.8517074585 1.9298269749 4.4528627396
-0.37150871754 1.5826153755 4.6778945923
-1.3164252043 2.2426533699 4.3528985977
-1.4226793051 1.621243 4.6044945717
-1.7220008373 1.9802627563 4.4884295464
-1.7298144102 2.5230696201 4.1074705124
-2.0526545048 2.2287800312 4.2691526413
-2.2083313465 2.5353882313 3.8269824982
-2.3913383484 2.3129718304 4.001185894
[...]
CELL_DATA 2006
SCALARS cell_data_0 double
LOOKUP_TABLE default
9.92677756319e-09
9.32965951806e-09
2.29528884603e-08
1.58113436352e-08
5.21602885663e-09
2.32963712097e-08
6.11695697537e-09
1.93578587549e-08
1.87863204499e-08
2.01924433348e-08
2.8078571486e-08
1.82551364705e-09
1.24864044985e-08
1.71855111822e-08
2.13566857068e-09
1.47891332434e-09
9.52701586554e-09
7.76838565638e-09
1.37835996267e-08
3.33409301852e-08
4.44941910876e-08
5.22083442791e-08
2.58995227042e-08
7.28429270456e-08
1.59800643595e-08
7.07719161342e-09
1.70126744725e-08
2.02428522314e-08
5.88646505142e-08
5.24709565448e-08
1.1957136133e-08
3.28583224858e-08
3.32846568103e-09
6.04820643051e-08
5.38653671028e-08
3.30388751153e-08
1.18328382705e-08
1.61884914848e-08
1.20599107482e-08
2.07351831565e-09
3.54908314145e-08
1.33578069608e-08
1.51493917173e-08
8.59610954205e-09
5.47845179443e-09
2.00965134799e-08
7.19032051251e-09
8.51509542302e-09
3.19976986271e-09
3.99438746238e-09
1.23509772248e-08
9.69826549106e-09
2.80914287853e-09
1.96978155961e-08
1.30318505451e-08
1.15297387095e-08
6.42599071536e-09
4.6254679467e-09
7.26604739038e-10
7.0818943566e-09
5.93554527867e-09
6.24123581297e-09
1.67271408111e-09
6.00298549793e-09
9.50974150389e-09
7.54226150707e-09
1.70884119286e-09
1.68628574945e-09
6.86720041002e-09
4.01780680805e-09
5.3366083045e-09
2.19599462241e-09
8.91383505547e-09
4.62839958952e-09
6.93278500294e-09
9.69351407762e-09
1.43491155572e-08
1.89803267939e-08
1.00683385306e-08
9.15262171245e-10
1.00358363597e-08
5.44046949229e-09
3.32434252894e-09
5.04944567195e-09
1.91698692907e-09
4.24058924752e-09
1.24669799845e-08
3.53398891194e-09
1.115785672e-09
1.6286856034e-09
7.87615701672e-09
7.81292549846e-09
2.01449219987e-08
6.64966623416e-09
2.78324200353e-09
2.2071265985e-08
1.53589943322e-08
6.21733886458e-10
1.18409905866e-08
5.1164566423e-08
9.51372044574e-08
2.51258967216e-08
3.03219966915e-08
3.05437183089e-08
1.21192927351e-07
1.60219335121e-08
5.00494187307e-08
3.65364930784e-08
7.76295783783e-09
5.21310103129e-08
8.94906524669e-09
1.83152840942e-08
2.09548324729e-08
1.34368423306e-08
2.33439369762e-08
1.98889232854e-08
2.23905209509e-08
3.27540741256e-08
9.0284968516e-09
2.45853613986e-08
1.10524202769e-08
4.62984923406e-08
2.96747063407e-08
1.16597036639e-08
7.39083581195e-09
6.0585769228e-09
1.9888900819e-08
1.27933673631e-08
4.53546008065e-09
2.59724069621e-08
7.17613625515e-08
8.33312046028e-09
3.80165874687e-09
3.12673847745e-08
1.25539447335e-08
2.21377524909e-08
4.90048945269e-08
2.64094051417e-08
7.03795307938e-09
1.71745812394e-08
4.17260995229e-08
3.41323981928e-09
4.77422882971e-08
1.67055008511e-08
1.2132370127e-09
6.72985043349e-08
6.83722749003e-08
3.74708926491e-08
6.24561216641e-08
3.12449610641e-08
1.0492491915e-08
7.24022802681e-08
1.86518524915e-08
2.08354620054e-08
4.49401083032e-08
2.89460705247e-08
1.09534364796e-08
8.11374678133e-08
9.36872211517e-08
1.88656328174e-07
2.78419045764e-07
4.34927380541e-08
1.40585625332e-08
9.3144735438e-08
9.12987198688e-08
1.23997853725e-07
2.26168056195e-08
2.31842449233e-08
2.06451625443e-07
1.04394299038e-07
5.36790015984e-08
1.30425610781e-07
1.00674127886e-07
1.53596523392e-08
5.12546168295e-08
4.35217803894e-08
2.42723863639e-08
7.69403092819e-09
1.65421581838e-08
7.20237539024e-09
5.56682569889e-10
1.06031109248e-08
6.11106210823e-09
5.0364500832e-09
8.36052515186e-09
5.08736936095e-09
3.38607832517e-08
3.77937451335e-08
4.88225748245e-09
6.07831703027e-09
6.95734666226e-09
5.46171717214e-09
4.06798701122e-09
1.28614996198e-08
1.10600278976e-09
3.68333093766e-09
4.8404458683e-10
1.66624524336e-09
1.88255972581e-09
4.15195418271e-09
9.01546179983e-10
2.6046212384e-09
4.69706917199e-09
5.2111492937e-09
3.21785528021e-09
3.22092796015e-09
8.51121722087e-09
8.32695332932e-09
9.39321493627e-10
5.05230060275e-09
9.07808810465e-09
1.05441818321e-09
9.68489450633e-10
2.11194233424e-08
1.98297000548e-08
3.74379230249e-08
3.5610702788e-10
2.42729956846e-08
1.62557176547e-08
1.01156510219e-08
2.87190086615e-09
3.14595638884e-10
1.32504773396e-07
2.18225415854e-08
7.84043783405e-10
4.62477379436e-09
3.89498629744e-09
4.48929219863e-08
1.43511027078e-09
5.45367950501e-09
3.01888092386e-09
1.02217797603e-09
3.10215833172e-09
2.83302359889e-09
5.18113478378e-09
1.05169315458e-09
1.01918772598e-09
6.04548610638e-09
6.63419717322e-09
8.59451896049e-09
1.70148567698e-08
2.84849658928e-08
3.42694958409e-09
1.99337417247e-08
9.17017761406e-09
3.33873202102e-10
1.20381037045e-10
7.95426276744e-10
2.13786261029e-09
2.35180616258e-09
7.68991403936e-10
4.42428481701e-09
2.11437632834e-10
2.49989015078e-09
1.59011366838e-09
6.0614756526e-10
6.95324565078e-09
2.14282544548e-09
2.31159359558e-08
1.336635151e-08
5.93178310535e-09
1.68439002296e-09
4.05113429821e-09
1.22474104459e-09
2.11674570293e-09
7.88635248602e-09
6.58168411561e-09
5.35576126744e-09
1.45363478658e-08
4.92352691197e-09
2.24853513085e-08
5.72953595617e-09
4.50740767104e-09
1.7782038727e-08
1.79021774178e-08
7.7607323263e-09
6.10474277432e-08
2.06968766159e-08
3.09420757183e-08
2.17750863254e-08
1.73225906215e-08
5.03510722155e-08
4.15413124611e-08
5.30188617432e-08
3.83641181982e-08
4.34424291349e-08
1.42121572799e-07
2.02419375361e-07
1.18029137054e-07
1.08384303527e-07
8.52431394869e-09
1.37457766784e-08
1.87549268473e-09
9.73819900886e-09
2.39995242199e-08
7.4566580274e-09
1.85655352484e-08
1.29862839828e-08
2.12594458652e-08
1.52950385468e-09
3.54126518458e-09
6.2783123801e-08
1.65964916377e-08
2.8270379746e-08
3.02374825949e-08
1.19179554797e-07
2.13465087362e-08
8.58326228928e-08
1.69942680178e-08
1.79031033875e-08
4.04521666737e-08
3.57667519472e-09
8.13728335958e-08
8.70802053444e-08
6.35868690425e-08
6.67514078862e-08
3.54020260261e-08
2.60281307931e-08
1.2401917057e-07
1.407503325e-08
4.32472818079e-09
1.01645207764e-09
1.35342276115e-10
5.90490091453e-08
4.70866306431e-08
2.77333281097e-08
2.75505149502e-08
7.09122616393e-08
1.00877409292e-07
1.6605130697e-07
9.33690984697e-08
3.24545109973e-08
4.01076070765e-08
3.95131132909e-08
1.27256426313e-08
2.19719227229e-08
1.55138129531e-08
5.09235686165e-08
8.72403829341e-08
3.02318860596e-08
1.27802922975e-08
1.12284154681e-08
6.88224199261e-09
3.55071653539e-08
2.79358326368e-08
5.7710441014e-08
1.04766386608e-08
5.69080303948e-09
1.27065075034e-08
2.86267472202e-08
2.18461257269e-08
2.81770645423e-08
6.74658382731e-08
6.20024233845e-08
3.02721778235e-08
2.62669789047e-08
2.45103928618e-08
1.81463077859e-08
3.77723591404e-09
2.13063999621e-08
4.61979943015e-08
3.42063145673e-08
7.05176206911e-09
1.43232719447e-07
4.16587762856e-08
3.93708441994e-08
1.83357859616e-09
3.42548223438e-08
6.39617690889e-08
1.87202038523e-07
7.66199674119e-08
5.75088980634e-08
4.84772184191e-08
8.53415655548e-08
2.9025176211e-08
5.50093156105e-09
7.33878737132e-08
9.29462337854e-09
9.78177433505e-08
1.34869476249e-08
9.67527461754e-08
2.62948594814e-08
2.75679102452e-08
5.68805645752e-08
5.01531066637e-08
4.16400987951e-08
3.66912098822e-08
2.56870219228e-08
8.91268822319e-09
1.55167239839e-08
4.90832790499e-08
2.04788834314e-08
2.87593394968e-08
1.01232603817e-07
2.33456051427e-08
8.18742620693e-08
5.07079387876e-08
8.12565520713e-08
5.83883444249e-08
2.8892095533e-08
4.32508865984e-08
1.5058247133e-08
3.53586865562e-08
1.33858287681e-08
3.11976710528e-09
6.26326840344e-10
1.96433275475e-08
3.86442210862e-09
1.71021133133e-08
1.18459532559e-08
1.77200784294e-09
6.28820092022e-08
7.8490988305e-08
2.68299864274e-07
1.29929695288e-08
1.31418212168e-07
1.03882953199e-07
5.99740663501e-08
1.68019133658e-07
5.61370478803e-09
1.66001645952e-07
9.97545933632e-08
8.51778363294e-08
3.46587637074e-08
1.2039392583e-07
1.78767450804e-08
9.07513224727e-09
1.5425520871e-08
1.36649953945e-08
1.41486369148e-08
6.20542184091e-09
2.57561642164e-08
8.32743989235e-09
2.7337001614e-08
2.87944459252e-08
2.27957735968e-08
1.59023406631e-08
1.55074340216e-08
7.49315793973e-09
3.30129681984e-11
3.50273625532e-09
1.3095080504e-08
9.6813212329e-08
9.23104492936e-09
1.71281633967e-07
7.04089364489e-08
5.46492630771e-08
1.04852721205e-07
4.97355721841e-08
1.55388985311e-07
6.1556135904e-08
7.70718030596e-08
2.56966783605e-07
4.88795912605e-08
4.51253484943e-08
1.07923542189e-07
2.90199201311e-07
3.56986972863e-08
2.21717165558e-08
4.84715177388e-08
8.68719791371e-09
1.71154299407e-08
2.62272529149e-08
7.49150349257e-09
2.44805760203e-08
1.95026904324e-08
3.90013321884e-09
8.67342583352e-09
1.0073454364e-08
7.43593655918e-09
1.17492765155e-08
5.53950504729e-09
2.1380231874e-08
7.57591448079e-08
2.00637855735e-08
8.28021310509e-09
1.20787991961e-08
2.13603013543e-09
2.43414659243e-09
1.71350417237e-09
2.27331812466e-08
6.51968213704e-08
7.68924719503e-09
3.56494934122e-08
2.10634555853e-08
2.28183516933e-08
2.05838027584e-08
9.36012764717e-11
8.30512761425e-08
5.59999831726e-08
3.66523111096e-08
1.19293683689e-07
7.79011631576e-09
2.04846787375e-08
6.45651267812e-08
1.14255780233e-07
4.96209515028e-08
6.30531499072e-08
6.85513653954e-08
6.66166657669e-09
7.04509512713e-08
1.53447541045e-09
5.49541498735e-08
4.55870263739e-08
1.13269574537e-07
1.50419633738e-08
1.99741251173e-08
4.45777320976e-08
3.33875492529e-08
1.51175821325e-08
4.53127583502e-09
1.09314986044e-08
1.98477903826e-08
6.13410356939e-09
7.08541919498e-09
1.3004724394e-08
2.91273098917e-09
1.21726943939e-08
7.43473662109e-09
1.08519631357e-09
2.44079856507e-09
2.10410793494e-08
1.82470450893e-08
5.53745196343e-09
2.00385949277e-09
2.85755499637e-09
5.20932475103e-09
8.89236418261e-09
2.28389936159e-08
4.01774996852e-08
1.09565987422e-08
1.99916980083e-09
2.8629560341e-08
1.39508270454e-08
2.8627583239e-09
8.85966417392e-09
1.52372297878e-08
3.06603753634e-08
2.45048179805e-08
3.83339891932e-08
4.61180068142e-09
1.5412518309e-08
1.477919608e-08
1.69287955599e-08
1.9609572232e-09
1.4217464169e-08
7.6454614856e-10
3.45224473606e-09
1.23785282576e-08
1.09886485927e-09
1.36312148347e-09
6.15105422594e-09
3.32878929507e-09
1.36843888139e-08
3.23434523395e-09
3.8068506328e-10
6.74296348041e-09
3.28203074688e-09
1.02213622465e-09
5.34093152671e-09
9.33575067366e-09
1.29675896695e-08
3.23762597997e-09
1.19641571856e-08
3.70740973248e-09
8.27821379166e-09
2.47893192537e-08
3.82786527462e-08
1.21620763154e-08
1.99248804144e-07
8.59799589629e-09
1.35425601416e-08
3.01493809134e-09
2.25014650985e-09
3.89803028917e-08
4.16597143083e-08
4.00239026188e-08
2.8773907202e-08
6.92634447456e-09
2.82657140281e-09
5.40620750243e-09
8.29716080661e-09
4.4750005275e-08
7.95487123576e-08
1.52696197079e-08
7.50446485474e-09
5.88467420846e-09
1.83751534701e-08
5.30601422319e-08
1.38794269434e-08
8.90870513406e-09
1.24950205447e-07
7.00684103756e-08
3.83983110229e-08
1.83247687206e-07
1.85247518367e-07
4.136447285e-08
6.59913853893e-08
2.09588254545e-07
8.65525938405e-08
1.91239551033e-08
4.26790613864e-09
6.8723705983e-08
9.27893268104e-08
2.4271794735e-08
2.30735589756e-08
1.16599104906e-08
6.053402977e-09
4.09732678229e-08
5.01582141725e-09
1.62910032642e-09
2.75446179136e-08
1.25167371416e-09
4.02334012137e-09
6.01089473591e-09
4.48978046452e-09
9.44156518108e-09
6.78684366897e-09
2.90736711355e-09
2.84667561297e-09
7.95605757791e-09
3.25178397836e-09
1.15955242142e-08
6.5136945308e-10
3.92572044153e-09
2.98191770191e-08
4.56314256047e-09
4.055954524e-09
2.80399184043e-09
4.4571388348e-09
3.89052601653e-09
1.24884248558e-09
1.23988578887e-08
1.17656095631e-08
3.46658705516e-08
5.51048520084e-08
4.03964450349e-08
1.03439517224e-08
3.98996928896e-08
2.89115826004e-08
9.41237947008e-09
1.13059136229e-08
4.57646901892e-08
4.84868937255e-09
1.04859271177e-08
4.46866155929e-08
2.39426861646e-08
1.67538510562e-07
1.59731682475e-07
2.10595064303e-08
3.73900269744e-08
4.65869405922e-10
6.62271347956e-08
2.34503209164e-08
6.381294298e-08
8.70633459981e-08
1.2359830476e-07
2.72338282834e-08
1.9848566924e-08
4.32597585765e-08
4.07291319335e-08
7.16893231916e-09
4.09014155789e-08
1.54539727748e-08
1.03189548216e-07
1.21841425369e-07
1.26618256764e-07
2.24133377577e-08
1.31433957903e-07
9.95632742992e-09
2.76208047962e-08
8.60068316984e-09
1.18261179573e-08
2.85944625473e-08
1.63391208215e-08
1.05393941136e-07
1.13198147953e-08
2.4540814475e-08
1.76485113938e-08
8.73725238579e-08
3.97507517538e-09
7.64180263446e-09
1.55416191523e-08
2.54480170309e-08
3.98422585161e-09
3.17514131318e-09
2.77456185862e-09
2.13661245215e-09
1.35507397774e-09
2.14920754422e-09
1.69002164799e-10
1.50688820024e-09
8.87120101594e-10
1.69718727122e-09
4.60705133384e-10
2.04845049251e-09
1.6738475429e-09
2.11951227715e-10
1.29208558137e-10
4.09115988384e-09
3.4447127633e-09
3.1896132863e-09
1.23738249504e-09
1.72926083944e-09
2.18063583989e-09
2.47283776531e-09
1.95839644064e-09
3.71459052703e-09
6.44065047594e-10
3.1468986469e-10
2.29293650475e-09
4.8217769416e-09
3.5699463078e-09
3.4512832209e-09
2.89703213537e-09
9.06099577029e-10
2.59515185383e-09
8.07847431447e-09
5.87731945696e-10
1.49187097398e-09
3.77151679833e-09
6.63813155956e-09
2.47395035762e-09
1.31752798971e-08
5.08024059787e-09
3.06279492033e-09
7.95906745827e-09
3.7243436744e-09
1.56179138529e-08
4.73525297411e-09
1.79362773356e-08
3.01568306511e-09
2.11936645701e-09
1.16464267858e-08
9.56615017166e-09
2.32044258246e-08
9.06642674186e-09
1.64141392595e-08
2.42551905457e-09
6.97159160454e-09
2.47947798168e-09
1.48209315385e-09
1.63404800732e-08
1.47537261023e-08
3.44469871817e-09
3.86868639288e-09
9.0212717432e-10
5.45578633887e-09
1.1459666922e-08
5.61731937019e-09
2.12995133361e-08
3.03440082943e-08
1.25740311483e-08
1.19318991128e-08
2.59095947183e-08
6.5048319013e-09
1.15209675748e-08
5.74111899321e-09
1.23695019601e-08
1.28672190887e-08
2.69381122679e-09
8.47620878777e-09
1.38057218725e-08
1.08861871829e-08
2.47676564671e-08
1.72517651639e-08
6.57654239142e-09
2.3059838623e-08
6.40805618528e-09
4.24647284439e-08
1.83233040402e-08
4.7241892903e-08
5.72915179444e-09
6.89900379451e-09
3.89322137857e-09
3.32264772402e-08
8.36367029107e-08
2.13999685717e-08
5.99986832736e-08
5.33804500965e-08
8.05997471347e-08
2.75692247854e-08
3.58739756965e-08
2.28225774475e-08
8.11148583117e-09
2.11944955674e-08
8.92263373111e-09
8.63760212786e-09
3.23664092184e-09
6.75847408088e-09
1.13547039474e-08
5.62166179211e-09
1.46442858476e-08
7.67440593079e-10
2.48240096181e-09
1.96437366912e-10
5.59720389748e-09
3.91860817074e-09
3.03217335633e-09
3.6391062127e-10
7.80182432296e-09
9.03222217351e-10
2.93201927879e-09
1.23087906667e-08
1.18564859163e-08
3.97152193383e-09
2.35651357956e-10
2.20412936855e-09
2.36420204652e-09
5.43824899777e-09
5.45336601123e-10
1.20843300729e-08
1.27357552055e-09
1.00615225887e-08
3.07750186342e-08
2.1938010354e-08
5.10181943916e-09
1.26197583052e-08
3.26485129647e-09
5.46363454437e-08
3.76278825738e-09
9.62760326191e-09
3.02965454889e-08
6.59434119703e-09
3.29737660289e-08
1.99826843051e-09
8.79317499047e-09
5.97830040762e-09
1.13561983961e-08
1.41581439538e-09
4.01373031282e-09
5.29079920984e-09
3.55936265865e-10
1.69578531063e-10
1.40371501401e-09
2.05326249824e-09
4.0629386721e-09
7.26052776547e-11
2.79768997786e-09
1.73995745307e-09
1.68998443403e-10
3.31086399688e-09
1.2920986919e-09
2.88286924867e-09
2.42641478101e-09
1.24628563397e-10
2.24613698434e-09
1.11583407546e-09
3.287890617e-09
5.64702080464e-10
8.2316286072e-09
1.54024051963e-09
4.46516272717e-09
1.49555624183e-09
2.72289846722e-09
1.17705944308e-09
4.46141837104e-09
2.4270941512e-09
3.24627691886e-09
9.0322962279e-11
2.52989475612e-09
4.52927468694e-09
2.15097467391e-09
3.28756791338e-09
5.90615014276e-09
2.40662708585e-10
1.60626701023e-08
5.88883895585e-09
3.10994929936e-09
8.00201934564e-09
3.52920367541e-09
5.09286935033e-09
6.45010157819e-09
9.29852888524e-09
1.31425374482e-08
9.44228202558e-09
5.28763474631e-10
5.25346151944e-09
6.17178403923e-09
3.09737308567e-09
7.87322336244e-10
6.63401641392e-10
9.24781888052e-10
9.70246484695e-10
7.25882180693e-09
8.53918873579e-09
1.08809547459e-08
1.24466639246e-08
5.92497112231e-10
1.84314984395e-09
1.62979647619e-09
2.722910324e-09
1.17084422863e-09
9.52984618545e-10
1.77836429623e-09
1.12166813489e-09
2.71768903264e-10
7.78831074854e-10
1.83890183785e-09
3.35752869318e-09
1.5520321066e-09
1.35413904854e-09
4.08490799363e-09
5.467883601e-10
3.22563152666e-09
4.58533908528e-09
1.57239735689e-09
7.52342224666e-10
2.49004447973e-09
4.77504783722e-09
1.60184135844e-08
2.3505503307e-08
3.13147688819e-09
1.69291447063e-08
2.6266021874e-08
8.92330375041e-10
3.75344669933e-08
7.93671294988e-09
5.15920099767e-09
5.77114324691e-09
5.58918739981e-09
1.66139951976e-09
4.86730939191e-09
4.50898561577e-09
8.14382686843e-10
2.07163021167e-09
1.83097578778e-09
1.9485511589e-09
2.46156820975e-09
1.9218761518e-09
1.30285391467e-09
6.15194444809e-09
2.66798104754e-09
1.36290548858e-09
4.93894789256e-09
8.04388032327e-10
1.61825588031e-08
1.24083567936e-07
2.76685656771e-09
2.68601517388e-07
4.89351165249e-08
7.29783918546e-08
1.35729864088e-08
1.31166720983e-07
9.23459479774e-09
2.3873270815e-07
1.85042704492e-07
1.90140671523e-07
2.84949125331e-07
1.6972217348e-08
6.32566953574e-08
2.79457337796e-09
1.83296542236e-08
6.89598889503e-09
5.80837212048e-08
2.56241255569e-08
1.19433676643e-07
1.00378472965e-07
1.9557173331e-08
1.60275916419e-07
1.74594880728e-07
1.10557027446e-07
8.29399514273e-08
8.61848491828e-08
1.75923132834e-08
2.89713481365e-09
6.53139489218e-09
2.03189454962e-09
2.92234270435e-09
3.57957896674e-08
2.4292164595e-08
4.75541435773e-08
5.50733909267e-08
1.63260208368e-08
7.31108348398e-08
2.32050920453e-08
4.12909786699e-08
2.41289654572e-08
2.54426560383e-08
4.86184800678e-09
1.37171509558e-09
3.88121263388e-09
1.27182588721e-08
6.67531401443e-09
1.26503015848e-08
1.04367766434e-08
1.12601785168e-08
1.07964195678e-08
9.87274110943e-09
6.4908845756e-09
9.1340221932e-09
2.9816027087e-08
8.68928305207e-09
7.60339350373e-10
7.3953565136e-09
6.76707937919e-09
1.47997661638e-08
1.35188741139e-07
4.61004247024e-08
4.60602885433e-08
5.70437816375e-08
6.95442670446e-09
4.28024763881e-08
2.07827882084e-08
3.56078958935e-08
4.46712112362e-09
8.41444018004e-09
1.69113398743e-08
3.12423713788e-08
7.01237552703e-08
4.87372124649e-08
5.86837083501e-08
9.29309266068e-08
2.48938120155e-07
3.76500866757e-08
7.05585616925e-10
2.1680026845e-07
1.77206674889e-07
1.21659785344e-07
5.45775829314e-08
3.40909294758e-08
1.09882463016e-08
1.67977578632e-08
3.8483254447e-09
7.29673291475e-09
4.30163075433e-09
4.48546369602e-09
1.4491353519e-08
2.36368911457e-08
5.35260716347e-08
3.45470331723e-08
2.69110726912e-09
5.29062315293e-08
1.08471746634e-07
1.27228665515e-07
2.6853691512e-08
6.06501349814e-08
9.68595204094e-09
1.2117093654e-08
2.55573813307e-08
4.02400346873e-09
7.83603194588e-09
1.08405147699e-10
3.97777862013e-10
3.91549563047e-09
3.80368717366e-09
4.83205333947e-09
1.99592355018e-09
3.79106786672e-09
1.21318215863e-09
2.60527381026e-09
3.73680691537e-10
3.41284666268e-09
1.77707115182e-09
5.64875600172e-09
3.38506524217e-09
2.064946449e-10
3.96742364429e-09
3.16811732991e-10
4.34291260105e-10
1.02404496908e-09
2.91467399249e-09
1.59298656681e-09
2.26966339184e-09
3.41395653834e-10
3.85533008712e-09
1.94815718051e-09
3.62659705225e-09
1.58912978897e-09
1.13829430242e-09
1.70566039097e-09
4.48390521027e-10
7.74079495404e-10
3.68644272974e-09
8.12374733569e-09
6.59779408141e-09
6.73416355421e-09
5.60903381474e-10
8.18486718166e-10
2.62223087992e-10
9.38741243196e-10
2.36682226803e-09
2.25681439444e-09
2.6238494022e-09
3.09090269601e-09
2.40071617207e-09
2.18133717372e-09
5.9967302296e-09
8.82662419529e-10
1.36212783979e-11
3.64292288611e-09
3.96407925023e-09
1.53434200927e-09
1.12547055027e-08
9.87295398566e-09
3.43123996999e-10
8.28391827822e-09
5.86019634024e-09
5.56689439335e-09
1.51165342805e-08
1.29122498725e-08
9.78619274533e-09
3.29423594544e-08
6.38563482278e-10
8.56790276822e-10
8.06794071908e-09
3.45658470513e-09
2.03863053074e-09
6.20031637791e-09
4.29292274323e-09
1.64991335407e-08
1.57619761007e-08
1.1776629407e-08
5.65438588997e-09