# vtk DataFile Version 3.0
File Name: Molecule/arg/arg_1.0-2.vtk
ASCII
DATASET UNSTRUCTURED_GRID
FIELD FieldData 1
TIME 1 1 double
0.0
POINTS 205 double
-3.4433333874 0.24837963283 1.4162664413
-3.0907781124 -0.093681588769 0.48400890827
-3.0247716904 -0.43706026673 1.6418305635
-2.7245316505 -0.5251070261 0.46081572771
-2.9925854206 0.087693229318 0.025450689718
-2.3035645485 -0.30704945326 -0.45114162564
-2.2935464382 -0.37390324473 -0.99333667755
-2.1174125671 -0.67372941971 -0.81276482344
-2.5936369896 1.4878064394 -0.69060379267
-2.5148267746 -0.022708542645 -1.0829764605
-2.2269656658 1.1513158083 -1.6019765139
-1.9469820261 1.6579985619 -1.0943257809
-2.6133973598 1.9584269524 -0.40614768863
-1.4631540775 3.1676559448 0.22048003972
-1.7638918161 2.4871180058 -0.622849226
-2.4907484055 2.6515130997 0.64072102308
-3.0370006561 2.3491032124 1.6088875532
-1.8423686028 3.3337779045 1.5009047985
-2.4767177105 3.0714700222 2.2035679817
-2.6950619221 2.5902221203 2.5653870106
-2.984161377 2.0315988064 2.5972294807
-3.4244935513 1.7923252583 1.7771316767
-3.387696743 0.77440196276 1.94746387
-3.1034321785 1.7930603027 3.0216181278
-3.1478736401 0.79735636711 2.8823580742
-3.04641366 0.42172303796 2.2817373276
-3.1126115322 0.11112142354 1.8537118435
-2.8670945168 0.242279917 3.2266018391
-2.768830061 -0.037562474608 2.4840211868
-2.9694695473 -0.23192892969 1.9380846024
-2.5066480637 -0.7214512229 2.4178497791
-2.3384587765 -0.23606528342 3.3906219006
-1.7300548553 -1.7063933611 1.3902556896
-1.9752467871 -1.3295660019 3.2715091705
-0.97982269526 -2.2623624802 2.1258704662
-2.3035566807 -1.0117540359 0.32883119583
-0.98912006617 -2.2068908215 0.29741418362
-1.90683043 -1.3287832737 -0.44426959753
-1.9101349115 -1.2754280567 -1.0789048672
-2.09714818 -0.6867685318 -1.2214913368
-1.7539348602 -0.78766286373 -2.0414237976
-2.2264347076 -0.44709339738 -0.87019747496
-2.2212491035 -0.43151733279 -1.8868222237
-1.5878045559 -1.5341373682 -1.7978417873
-2.1185927391 0.21442818642 -2.3856539726
-1.5570579767 0.14337444305 -2.7023181915
-1.853090167 0.96515023708 -2.3751091957
-1.0794439316 0.55365008116 -3.3730478287
-1.5704060793 1.4534811974 -2.2404119968
-1.8707455397 1.4508764744 -1.7728071213
-1.2987145185 1.500235796 -2.7521209717
-1.1042648554 2.0515139103 -2.2210338116
-1.4854558706 1.8268120289 -1.7281205654
-1.2402410507 2.4553296566 -1.3351502419
-0.53022992611 2.5405983925 -2.32913661
-0.82513684034 3.0263538361 -1.221678853
0.47568139434 3.1450867653 -0.94473910332
-0.16469456255 2.9471979141 -1.947430253
1.1451021433 2.6079726219 -2.0163860321
0.70789366961 3.2535836697 -2.6382069588
0.78840398788 2.6971571445 -1.6973741055
0.36714076996 3.4414064884 -2.7531876564
-0.051192816347 3.3321423531 -3.0061128139
0.24971024692 3.2491178513 -2.4317960739
1.0623203516 2.4650874138 -0.46398323774
1.5112043619 1.9589277506 -1.0938638449
0.929248631 2.7967455387 0.34478658438
1.5394067764 1.9167671204 0.065229572356
1.2184820175 2.2062432766 1.0083539486
0.27743580937 3.0722234249 0.98401618004
1.2607806921 2.2473418713 1.9865894318
0.70600032806 2.7827851772 2.4497468472
-0.060485646129 3.2757062912 2.1022679806
-0.5443572998 3.2654571533 3.527782917
0.8301192522 2.8145098686 3.3546364307
-0.77813225985 2.8178141117 3.9356417656
-1.2921313047 3.5814523697 3.4862616062
-1.8712351322 2.8449873924 3.7707071304
-2.0438694954 3.2411360741 3.3758254051
-2.2632365227 2.6892075539 3.583925724
-1.0757436752 2.1366820335 4.3749313354
0.030737962574 2.5902314186 4.0632920265
-0.50332713127 1.6658875942 4.613761425
-2.4491417408 2.2239611149 4.1058821678
-1.5642402172 1.7739272118 4.5544500351
-0.4413138926 1.0490683317 4.7067856789
-1.4822909832 1.1055067778 4.6556921005
-0.28177461028 0.49701064825 4.882188797
-1.5202864408 0.53360760212 4.5937657356
-0.40947824717 -0.007088907063 4.9253296852
-0.8784558773 -0.40606659651 4.7748823166
-1.6984450817 -0.74704229832 4.2756800652
-2.3459291458 0.25043854117 4.2402734756
0.15867348015 -1.1773872375 5.082095623
0.3837402463 -0.4548420608 5.1849584579
1.2535645962 -0.80307906866 5.3377256393
1.5816643238 -1.8299566507 4.6717877388
0.55931890011 -2.2830872536 4.4982504845
1.0688396692 -2.4715371132 3.2697284222
1.9546564817 -2.1062073708 3.4774823189
1.0490843058 -1.8457012177 2.1533942223
1.9582724571 -1.9158991575 2.8112323284
0.21141177416 -2.4796648026 2.1349875927
0.75999122858 -1.6803828478 1.4002970457
0.0026704473421 -2.1751718521 1.2205133438
1.0485869646 -1.8257111311 0.34484738111
0.047171905637 -2.4807333946 0.29847854376
-0.78456300497 -1.9831024408 1.1852582693
1.4180197716 -1.0274227858 0.18253789842
1.2403885126 -1.2139604092 1.4463158846
1.4874254465 -0.78136748075 1.2872576714
2.3366434574 -0.7153455615 1.9872744083
1.9167845249 -1.4785944223 2.3022203445
1.7020401955 -0.10606505722 0.67976462841
1.7686617374 0.21401003003 -0.22395330667
1.6518466473 -0.65368795395 -0.71105390787
1.5313653946 -1.5980144739 -1.5020062923
2.196202755 -0.15738126636 -1.4380190372
2.0737245083 -1.1078835726 -2.2477436066
1.0492713451 -1.4617333412 -2.8898408413
0.49129989743 -2.1643753052 -2.1395254135
-0.28270369768 -1.4168080091 -2.6489579678
0.10461574793 -0.70289736986 -3.5236508846
-0.38043099642 -0.71856474876 -3.0186591148
-0.99825876951 -0.69906949997 -2.6581556797
-0.70543277264 -0.30307242274 -3.194075346
-0.99115341902 -1.3287278414 -2.3963394165
-0.025482993573 0.53483521938 -4.0351986885
0.53712219 0.37719109654 -4.2339134216
-0.42387157679 1.9552172422 -3.5526149273
0.014374181628 3.0105471611 -3.6663441658
0.90118932724 3.090795517 -3.6723213196
0.15820454061 2.1384418011 -4.0310058594
0.93562358618 2.1950936317 -4.0351810455
0.94608855247 3.224976778 -2.8536982536
1.5750502348 2.5251638889 -3.3355121613
1.6678140163 2.6802761555 -2.5242063999
2.1890175343 2.1648991108 -2.5130677223
2.1137180328 1.6408079863 -1.9471976757
2.0266005993 0.9013235569 -1.1866939068
2.3502254486 0.60667073727 -1.6177041531
2.4292879105 1.2547807693 -2.2916522026
1.9724533558 0.9323195219 0.010238904506
1.8533331156 2.0311691761 -3.4114089012
1.8587291241 1.3204916716 -3.8024721146
1.1473829746 1.6390885115 -4.2004652023
1.4154026508 1.5830125809 -3.9400625229
1.884354353 1.3136050701 1.3399401903
2.5444777012 0.95046246052 2.5864622593
1.843411088 1.5788055658 2.3232188225
1.7643213272 2.1223642826 3.1699202061
2.5048754215 1.3952559233 3.4963502884
1.6877691746 2.0121674538 3.7032375336
1.44249475 1.7259320021 4.3000349998
2.1961493492 1.2008141279 4.6210360527
1.5242815018 0.6612662673 5.2065453529
0.36406031251 1.7524424791 4.7264723778
0.61094909906 0.98959243298 4.9120035172
0.74593651295 1.1068375111 -4.3672523499
0.23708389699 1.0457097292 -4.1956892014
-3.5270655155 2.2046132088 0.82234621048
-3.5323591232 1.6286206245 -0.079011075199
-3.9372570515 1.1596621275 0.84753733873
-2.6784996986 -1.2418484688 1.3418998718
0.54673576355 3.3678503036 -0.07608897239
-1.1100332737 4.0086584091 2.5016820431
-2.1240561008 3.6435749531 2.5107352734
-2.8517565727 1.3466615677 4.3420367241
-0.63139641285 -2.6088469028 4.291695118
-0.80184441805 -1.6602180004 4.9324674606
-1.5653196573 -1.8384850025 4.2543745041
-0.83450579643 -2.8518321514 3.3434672356
0.276933074 -2.9098088741 3.3880839348
0.49028345942 -2.7842555046 -0.76455837488
-0.91619747877 -2.7086760998 -0.74389255047
-0.72958987951 -2.4702951908 -1.8420650959
1.3683847189 -2.1121895313 -0.74396348
-0.46857607365 1.2094134092 -3.8702545166
1.3082431555 2.5537655354 2.7259800434
0.89744973183 2.4823100567 4.0355277061
3.6677811146 -0.31231930852 3.7016012669
3.3333482742 0.74542337656 3.699835062
3.3332259655 0.19193936884 4.6282978058
3.335588932 -0.88496762514 4.5787844658
3.2569508553 -1.4516781569 3.5677411556
3.3376176357 -0.87535059452 2.8214538097
3.3372952938 0.18387815356 2.7805526257
2.4571504593 0.27690455317 5.3164510727
2.4703056812 -0.82700073719 5.3325080872
2.4938232899 -1.7050774097 4.6675739288
2.7460436821 -1.6878936291 2.910782814
2.9142606258 0.1167576462 -2.611374855
2.5695431232 -0.62201189995 -3.3727304935
2.5694246292 0.51460522413 -3.744551897
1.8054021597 -1.2283118963 -3.3982226849
1.797025919 -0.45901277661 -4.1869454384
0.74539852142 -0.7660369873 -4.0059714317
1.3133333921 0.82880300283 -4.3032407761
0.37032550573 1.4289572239 -4.3827300072
0.96741771698 3.4204521179 -3.2910265923
0.22262738645 3.4906077385 -3.6878099442
-0.14980924129 1.6031022072 -3.9991445541
1.3663125038 2.4115486145 3.6205079556
1.1849371195 2.1767985821 4.1829061508
2.744484663 -1.8899337053 3.5529892445

CELLS 406 1624
3 0 1 2
3 2 1 3
3 1 4 3
3 5 6 7
3 4 8 9
3 9 8 10
3 8 11 10
3 12 11 8
3 13 14 15
3 12 15 14
3 15 16 17
3 17 16 18
3 19 16 20
3 21 20 16
3 21 22 23
3 23 22 24
3 25 22 26
3 0 26 22
3 24 25 27
3 28 27 25
3 28 26 29
3 29 26 2
3 2 30 29
3 30 31 28
3 30 32 33
3 33 32 34
3 32 35 36
3 36 35 37
3 35 5 37
3 3 5 35
3 37 7 38
3 38 39 40
3 39 41 6
3 9 6 5
3 9 42 6
3 43 38 40
3 42 44 40
3 45 40 44
3 44 46 45
3 45 46 47
3 48 46 49
3 10 49 46
3 50 48 51
3 52 51 48
3 52 11 53
3 53 11 14
3 51 53 54
3 55 54 53
3 55 56 57
3 58 59 60
3 61 62 63
3 56 64 60
3 60 64 65
3 64 66 67
3 67 66 68
3 66 69 68
3 70 69 71
3 72 69 17
3 13 17 69
3 72 73 71
3 71 73 74
3 75 76 77
3 78 77 76
3 77 78 79
3 18 19 78
3 75 80 81
3 81 80 82
3 83 84 77
3 79 83 77
3 83 79 23
3 20 23 19
3 85 82 86
3 84 86 82
3 87 85 88
3 87 88 89
3 90 88 91
3 92 91 88
3 92 31 91
3 91 31 33
3 90 93 89
3 89 93 94
3 95 93 96
3 97 96 93
3 97 98 96
3 96 98 99
3 98 100 101
3 100 102 103
3 103 102 104
3 103 104 105
3 105 104 106
3 102 34 104
3 104 34 107
3 104 107 106
3 106 107 36
3 105 108 109
3 109 108 110
3 111 112 110
3 109 110 112
3 113 108 114
3 115 114 108
3 115 116 117
3 117 116 118
3 118 116 119
3 120 119 116
3 120 121 119
3 119 121 122
3 123 121 124
3 125 123 124
3 124 126 40
3 43 40 126
3 124 45 125
3 125 45 47
3 127 122 125
3 122 127 128
3 129 54 130
3 130 54 62
3 130 131 132
3 132 131 133
3 131 134 135
3 135 134 136
3 134 59 58
3 63 60 59
3 136 58 137
3 138 137 58
3 139 140 138
3 141 138 140
3 139 65 142
3 142 65 67
3 142 114 139
3 114 117 139
3 137 141 143
3 144 143 141
3 145 133 146
3 143 133 135
3 113 147 111
3 111 147 148
3 149 147 70
3 68 70 147
3 150 151 149
3 148 149 151
3 152 153 151
3 154 153 155
3 156 157 153
3 156 85 157
3 157 85 87
3 157 94 155
3 155 94 95
3 26 0 2
3 5 3 4
3 4 9 5
3 49 10 11
3 14 11 12
3 17 13 15
3 19 18 16
3 23 20 21
3 25 24 22
3 27 28 31
3 33 31 30
3 107 34 32
3 107 32 36
3 7 37 5
3 7 39 38
3 42 40 39
3 50 47 46
3 48 50 46
3 53 51 52
3 62 54 63
3 57 54 55
3 57 60 63
3 56 60 57
3 67 65 64
3 70 68 69
3 72 71 69
3 75 81 73
3 84 82 80
3 86 88 85
3 90 89 88
3 95 94 93
3 109 112 100
3 109 100 103
3 109 103 105
3 113 111 110
3 113 110 108
3 117 114 115
3 123 122 121
3 126 124 121
3 158 128 159
3 130 132 129
3 135 133 131
3 58 136 134
3 141 137 138
3 140 139 117
3 149 148 147
3 155 153 157
3 160 161 162
3 162 161 4
3 0 162 1
3 162 0 22
3 162 22 21
3 162 21 160
3 160 21 16
3 160 16 15
3 161 160 12
3 15 12 160
3 161 12 8
3 161 8 4
3 4 1 162
3 3 35 163
3 3 163 2
3 2 163 30
3 28 29 30
3 30 163 32
3 32 163 35
3 41 39 7
3 41 7 6
3 10 44 9
3 42 9 44
3 39 6 42
3 46 44 10
3 11 52 49
3 49 52 48
3 13 69 164
3 56 55 164
3 13 55 14
3 53 14 55
3 13 164 55
3 56 164 64
3 64 164 66
3 66 164 69
3 76 165 166
3 76 166 78
3 73 76 75
3 76 73 165
3 165 73 72
3 165 72 17
3 165 17 166
3 166 17 18
3 166 18 78
3 80 77 84
3 19 79 78
3 79 19 23
3 77 80 75
3 24 27 167
3 24 167 23
3 23 167 83
3 83 167 84
3 84 167 86
3 167 92 86
3 88 86 92
3 92 167 27
3 92 27 31
3 26 28 25
3 168 169 170
3 168 170 171
3 168 171 172
3 168 172 97
3 168 97 169
3 169 97 93
3 169 93 90
3 169 90 91
3 169 91 170
3 170 91 33
3 170 33 171
3 171 33 34
3 171 34 102
3 171 102 172
3 172 102 98
3 172 98 97
3 98 102 100
3 173 174 175
3 173 175 120
3 173 120 176
3 173 176 105
3 173 105 106
3 173 106 174
3 174 106 36
3 174 36 37
3 174 37 38
3 174 38 43
3 174 43 175
3 175 43 126
3 175 126 121
3 175 121 120
3 105 176 108
3 108 176 115
3 115 176 116
3 116 176 120
3 45 124 40
3 50 51 129
3 47 50 177
3 47 127 125
3 123 125 122
3 129 51 54
3 65 139 138
3 65 138 58
3 65 58 60
3 68 147 67
3 67 147 142
3 114 142 113
3 147 113 142
3 150 149 178
3 156 179 81
3 156 81 82
3 156 82 85
3 89 94 87
3 87 94 157
3 180 181 182
3 180 182 183
3 180 183 184
3 180 184 185
3 180 185 186
3 180 186 181
3 182 187 188
3 183 182 188
3 183 188 189
3 184 183 189
3 112 111 190
3 185 111 186
3 186 111 148
3 186 148 181
3 181 148 151
3 181 151 154
3 181 154 182
3 182 154 187
3 187 154 155
3 187 155 95
3 187 95 188
3 188 95 96
3 188 96 189
3 189 96 99
3 191 192 193
3 192 194 195
3 193 192 195
3 195 194 196
3 195 196 128
3 144 193 197
3 193 144 141
3 193 141 191
3 191 141 140
3 191 140 117
3 191 117 118
3 191 118 192
3 192 118 194
3 194 118 119
3 194 119 196
3 196 119 122
3 196 122 128
3 132 133 198
3 198 133 145
3 136 137 135
3 135 137 143
3 59 61 63
3 57 63 54
3 144 197 146
3 146 197 145
3 197 128 158
3 158 145 197
3 145 158 198
3 144 146 143
3 143 146 133
3 134 131 199
3 59 134 61
3 199 61 134
3 199 200 61
3 200 199 131
3 61 200 62
3 62 200 130
3 200 131 130
3 128 197 195
3 195 197 193
3 112 101 100
3 98 101 99
3 127 177 159
3 177 201 159
3 177 129 201
3 159 201 198
3 198 201 132
3 201 129 132
3 150 152 151
3 154 151 153
3 129 177 50
3 47 177 127
3 179 74 81
3 81 74 73
3 71 74 178
3 74 202 178
3 74 179 202
3 178 202 150
3 71 178 70
3 70 178 149
3 150 202 152
3 202 203 152
3 202 179 203
3 152 203 153
3 153 203 156
3 203 179 156
3 99 204 189
3 189 204 184
3 184 204 190
3 101 190 99
3 204 99 190
3 190 101 112
3 184 190 185
3 185 190 111
3 127 159 128
3 158 159 198

CELL_TYPES 406
5
5
5
5
5
5
5
5
5
5
5
5
5
5
5
5
5
5
5
5
5
5
5
5
5
5
5
5
5
5
5
5
5
5
5
5
5
5
5
5
5
5
5
5
5
5
5
5
5
5
5
5
5
5
5
5
5
5
5
5
5
5
5
5
5
5
5
5
5
5
5
5
5
5
5
5
5
5
5
5
5
5
5
5
5
5
5
5
5
5
5
5
5
5
5
5
5
5
5
5
5
5
5
5
5
5
5
5
5
5
5
5
5
5
5
5
5
5
5
5
5
5
5
5
5
5
5
5
5
5
5
5
5
5
5
5
5
5
5
5
5
5
5
5
5
5
5
5
5
5
5
5
5
5
5
5
5
5
5
5
5
5
5
5
5
5
5
5
5
5
5
5
5
5
5
5
5
5
5
5
5
5
5
5
5
5
5
5
5
5
5
5
5
5
5
5
5
5
5
5
5
5
5
5
5
5
5
5
5
5
5
5
5
5
5
5
5
5
5
5
5
5
5
5
5
5
5
5
5
5
5
5
5
5
5
5
5
5
5
5
5
5
5
5
5
5
5
5
5
5
5
5
5
5
5
5
5
5
5
5
5
5
5
5
5
5
5
5
5
5
5
5
5
5
5
5
5
5
5
5
5
5
5
5
5
5
5
5
5
5
5
5
5
5
5
5
5
5
5
5
5
5
5
5
5
5
5
5
5
5
5
5
5
5
5
5
5
5
5
5
5
5
5
5
5
5
5
5
5
5
5
5
5
5
5
5
5
5
5
5
5
5
5
5
5
5
5
5
5
5
5
5
5
5
5
5
5
5
5
5
5
5
5
5
5
5
5
5
5
5
5
5
5
5
5
5
5
5
5
5
5
5
5
5
5
5
5
5
5
5
5
5
5
5
5
5
5
5
5
5
5
5
5
5
5
5

CELL_DATA 406
SCALARS cell_data_0 double
LOOKUP_TABLE default
1.91313970182e-08
1.16760205499e-07
1.02479302208e-07
1.62737252932e-07
2.3057846889e-07
3.42019993771e-07
8.78681864639e-07
1.57246829387e-08
4.60588147546e-08
2.0368502311e-07
1.8392062581e-07
1.66592512332e-08
5.05522826255e-08
3.25333942998e-08
5.05628224708e-08
1.01610928242e-08
3.9359481802e-08
1.32360733583e-08
9.07583976478e-09
3.05163499177e-08
1.23325842813e-09
4.46822634759e-09
1.94451218849e-09
1.62027275707e-07
6.3054787729e-06
6.9209083663e-06
1.33487953781e-07
2.64996353118e-07
3.4332119688e-07
1.04215708965e-07
1.01028919152e-07
1.31903588863e-07
1.61370542785e-07
3.33907525544e-07
1.77500821362e-08
3.48715320688e-07
3.74005227295e-07
4.07958738645e-08
2.43271345999e-07
1.57449313079e-07
2.50325262476e-07
8.39398430704e-08
1.37021117295e-07
1.73037817132e-07
1.17851752713e-07
3.23864593188e-07
2.3831827233e-07
2.50078540396e-07
3.68364675272e-07
1.9934966462e-07
1.69173029429e-06
8.1418696439e-08
1.11168243794e-09
2.24352836884e-07
4.61106853954e-08
1.42901466151e-07
2.86011666763e-07
1.66639103475e-07
1.75207954932e-07
1.79523263641e-07
1.7261487485e-06
6.98203467626e-08
4.2379797628e-08
2.44325759086e-08
1.53073871596e-07
1.00914011411e-07
6.59266592149e-08
2.20266799332e-08
7.36776575213e-08
2.91002984857e-08
3.37825278763e-09
1.75422120654e-08
5.14319682286e-08
1.36646356221e-08
6.3108458037e-08
9.12741106661e-08
1.05386845952e-07
9.43648776172e-07
2.03068859357e-06
2.11306464199e-07
8.46965744074e-08
2.12831614915e-06
9.58350592561e-07
2.74406967189e-06
3.5269074724e-06
1.52102976579e-06
4.0924157039e-07
3.84952994401e-07
1.12730893252e-06
3.19823803266e-07
4.39872205467e-07
1.15383500766e-07
2.8029661158e-07
7.04677353909e-07
1.20910411645e-06
5.92776630204e-08
5.69703539061e-07
7.58999400161e-08
1.06177059182e-07
6.22117378971e-07
1.18687934285e-06
2.2348620699e-06
3.84280721888e-07
9.53135535172e-07
1.38445721917e-06
4.05327317165e-08
2.74342786906e-07
1.01583905021e-07
2.33282336829e-08
5.14407480515e-08
2.49844480278e-08
1.45904770823e-07
1.54622282782e-06
2.54349149332e-07
5.26076084339e-09
2.77856071126e-06
4.8512561854e-07
5.9861234004e-06
1.0038981456e-06
4.77469064234e-06
1.25507720684e-06
2.33715959249e-07
2.09939048516e-07
1.1533006549e-05
1.91245064281e-07
7.3931240429e-07
1.06302332696e-06
8.98562091828e-08
1.70566132494e-07
1.21227976276e-06
8.57749627663e-06
1.00933974298e-05
1.23439318752e-07
5.94541724855e-06
6.10671891803e-07
1.71387119949e-06
2.70897866855e-07
2.7944032518e-07
2.93579202192e-06
1.381955725e-06
1.84760393613e-06
9.17834193115e-07
3.36716067427e-07
5.8879447824e-08
7.1191936807e-09
5.05662364346e-08
1.89427698554e-07
6.96014841748e-08
1.1630287946e-07
8.82170664266e-07
2.46839672781e-08
1.04212332475e-07
3.25842555537e-07
9.9824710953e-08
6.04290638116e-08
9.43025287306e-08
3.16430660215e-07
9.46806071591e-07
1.36332935074e-06
2.3718781181e-07
4.48154082197e-07
1.32914256405e-07
9.72370927587e-08
2.02454651654e-07
1.64948387692e-07
5.83499596449e-07
2.31610187691e-06
1.40998299296e-07
9.14810435531e-07
1.31204455593e-06
3.62518398359e-07
1.48811549751e-07
4.83332999803e-07
1.39078484999e-08
3.46155635148e-09
7.26623798984e-08
7.22977675488e-08
9.31836546749e-08
3.83780042768e-07
1.52992841731e-07
2.96865800371e-07
6.89028067224e-08
4.61617348727e-07
1.80973122595e-06
4.29681037602e-10
1.15236273512e-07
1.94562238082e-06
4.48224218471e-06
6.05843294376e-06
2.76819579503e-06
5.84017656175e-06
3.7446135298e-07
8.07624324e-07
4.75368113183e-07
9.42589152325e-08
2.40549515507e-08
1.52699484044e-07
9.92130979212e-08
4.25080082416e-08
2.55382866749e-09
3.92133247905e-08
9.00667973064e-08
1.58362012095e-08
2.81714523704e-07
2.73071184039e-07
6.77316757035e-08
1.39376994973e-07
3.7571823901e-08
6.44189158542e-08
4.69934155701e-08
9.79117377224e-08
1.57720548767e-06
6.73581814757e-08
2.60413266777e-07
1.24704983933e-07
1.97340288059e-06
3.75138674899e-07
1.62109895829e-07
4.14448653721e-07
1.59265263067e-07
1.30822305673e-08
3.01363965309e-07
2.41089472809e-07
2.45039776741e-07
1.7226557767e-07
2.89242713912e-07
1.24639792776e-07
1.95877571579e-07
3.47749129056e-07
6.22886709818e-09
3.15221317292e-08
5.52985414174e-09
1.1469071783e-08
1.76698973267e-07
4.5216116768e-08
4.26836093975e-08
3.35792808304e-08
2.23862871294e-08
5.29324998141e-08
4.88579951353e-08
8.4646688523e-08
8.80362800242e-08
1.53681100117e-07
4.38837542121e-08
1.34932560816e-07
2.82836267245e-08
3.17804152258e-08
1.22671198721e-09
6.85124586646e-08
9.83909851807e-08
5.73368348229e-08
8.98346536377e-08
1.11602713908e-06
2.52081459673e-07
7.03438176652e-06
2.77298937129e-06
4.72889874009e-06
1.83952888611e-06
1.58443122861e-07
5.70309717781e-07
7.1991339374e-08
1.62808221867e-07
1.4428437066e-06
2.75733112991e-07
2.63923115322e-07
5.9953516329e-06
3.73745242665e-06
4.48794441915e-06
3.2365430464e-06
7.04717884132e-08
7.9546662424e-08
7.27183234357e-08
9.99037208487e-09
1.05007132512e-06
1.56937322132e-07
7.64775618807e-07
5.00608480385e-07
2.1807921921e-07
2.59005653887e-07
1.15293267989e-07
1.19027761666e-07
9.4943435938e-08
1.62528966721e-09
9.76201200019e-07
2.6993523623e-08
7.91326434513e-07
1.85214526756e-07
4.17246183937e-07
3.17448336139e-07
3.54564761177e-07
6.08300666842e-07
5.2962887953e-07
1.42638055196e-06
2.70666910913e-09
4.04248582759e-06
1.13891177503e-06
8.13334588972e-08
1.54298257766e-07
1.20893591894e-08
4.62040393819e-07
3.79370240725e-06
2.19723114178e-07
6.91212883209e-08
4.31991244077e-08
4.63111887951e-09
2.16118970974e-07
8.88050879662e-08
5.37877645025e-07
1.34309493421e-07
2.41550462945e-08
3.36533791705e-07
1.62162616244e-07
3.54598254979e-07
2.98345814269e-07
3.83383937305e-06
8.08661754137e-06
3.82644891002e-07
3.71292800453e-07
8.33014175134e-07
4.15620655319e-06
4.1880383767e-06
6.08747218097e-06
7.83726891307e-06
1.98866241011e-06
7.21137229491e-07
4.06401989782e-07
1.9794732577e-07
1.95112499354e-06
6.71659154603e-06
7.73833902926e-06
7.24845312068e-09
8.86147777332e-09
1.81790847601e-07
1.42756929289e-07
2.06872872672e-07
3.96827309629e-07
9.22156320742e-07
2.08424984637e-07
7.07238294743e-07
9.31116776317e-07
5.41653418942e-08
4.36359207245e-07
1.28899646918e-07
1.50028535934e-08
1.48971686417e-07
3.73678018086e-07
5.47434421475e-07
4.15308068092e-06
7.00362020774e-06
4.70079159692e-06
9.4686011629e-06
3.9091912021e-07
3.96105975898e-07
1.14867204168e-06
3.70062688428e-06
9.5149679936e-07
4.78133826405e-06
2.93495585317e-06
2.02661965889e-06
2.05529738881e-06
2.78201963414e-08
5.03138750397e-08
3.23411863879e-06
3.19311416844e-06
4.962183948e-06
1.65456508515e-06
7.83780714674e-07
5.05140955724e-06
1.0681381171e-07
7.09261165107e-07
3.09878018172e-07
9.35413248332e-07
2.18476988145e-07
1.25481286162e-06
1.69565793553e-07
3.02977786011e-06
4.74354007972e-06
1.41956998088e-06
2.16115072202e-06
7.50668716981e-07
1.41706942209e-07
3.08324512798e-07
1.20528927259e-06
1.04683911012e-07
9.67432038733e-08
1.66017582256e-06
7.92678956895e-07
1.08582777598e-06
1.64512022587e-08
7.48630888469e-07
9.54123190989e-07
1.45803869792e-07
1.23547690363e-06
1.85437466366e-07
7.82770206276e-07
2.28947017183e-08
2.7096725768e-06
1.45184931443e-06
3.56307299603e-07
1.47327709702e-06
2.90137933035e-07
5.02765365004e-07
8.60000532773e-08
1.69840710411e-07
7.80980686014e-07
6.47602823403e-07

