# vtk DataFile Version 3.0
File Name: Molecule/arg/arg_0.5-2.vtk
ASCII
DATASET UNSTRUCTURED_GRID
FIELD FieldData 1
TIME 1 1 double
0.0
POINTS 149 double
-3.4390721321 0.24336338043 1.4172462225
-3.0824692249 -0.11948821694 0.48187750578
-3.0203478336 -0.53222876787 1.5186686516
-2.5387706757 -0.99525904655 0.54657679796
-2.9720430374 0.080017670989 -0.021178055555
-2.4922771454 -0.46731814742 0.13858574629
-2.2696995735 -0.38777297735 -1.0451915264
-2.2273547649 -0.44575643539 -0.87643939257
-2.4043574333 -0.22482335567 -1.1489607096
-2.3723530769 1.0688142776 -1.4427313805
-2.810000658 1.7146733999 -0.44307428598
-2.3183481693 1.8835698366 -0.61327958107
-1.9581725597 1.4548976421 -1.5125738382
-1.7036528587 1.9223610163 -1.09271276
-2.5479564667 2.6205513477 0.4883403182
-1.7566312551 2.4964916706 -0.61875087023
-1.4317220449 3.2421278954 0.082800514996
-3.1730964184 2.3007807732 1.4981352091
-1.8581819534 3.3298609257 1.4768221378
-2.4524590969 3.0959160328 2.2012574673
-2.9263319969 2.1731452942 2.7321972847
-2.7084920406 2.5552630424 2.3766536713
-3.412112236 1.7864984274 1.8328684568
-3.1565132141 0.75726634264 3.0687861443
-3.0989444256 1.7784440517 3.0387496948
-3.3840436935 0.77461385727 1.9646960497
-3.0429477692 0.41449555755 2.2852551937
-3.1105339527 0.12756228447 1.8783670664
-2.8943109512 0.27125090361 2.9430887699
-2.8744990826 0.034160725772 2.27592659
-3.0000579357 -0.21253475547 1.8634440899
-2.5121695995 -0.70581710339 2.4378502369
-2.4675767422 -0.06299379468 3.5592260361
-1.9731572866 -1.24619174 3.4541380405
-0.97516787052 -2.2555537224 2.0963737965
-1.6184738874 -1.6906170845 1.2656328678
-0.95301502943 -2.2291166782 0.28504365683
-1.9560195208 -1.2437121868 -0.2468033433
-2.2941703796 -0.31332594156 -0.4786760211
-2.0476870537 -0.78090888262 -0.80710917711
-1.9310742617 -1.2634363174 -1.0423116684
-2.0866129398 -0.70270043612 -1.2154989243
-1.6798706055 -1.5681897402 -1.5897005796
-1.7566437721 -0.7716012001 -2.053175211
-1.5538635254 0.14999172091 -2.7084255219
-2.1257927418 0.21217729151 -2.3733921051
-2.1922924519 -0.50619876385 -1.7816334963
-1.8765997887 0.96286839247 -2.3459012508
-1.0601425171 0.56009018421 -3.3893463612
-1.6522459984 1.4208741188 -2.1693284512
-1.2797363997 1.5257556438 -2.7595221996
-1.1032743454 2.0659620762 -2.2054371834
-1.4979803562 1.8251056671 -1.7091579437
-1.3173384666 2.412109375 -1.2753884792
-0.42110583186 2.6010665894 -2.4358029366
-0.80353558064 3.0131249428 -1.2846025229
0.78424352407 2.7033560276 -1.7188024521
0.70870608091 3.4041883945 -2.787314415
-0.022863183171 3.2582221031 -2.8297030926
0.42984244227 3.2999083996 -0.64632332325
1.0712993145 2.4592711926 -0.48752754927
1.5521602631 2.0206274986 -1.2123898268
0.94136190414 2.787607193 0.29325848818
1.5388045311 1.9157477617 0.066578708589
1.2135500908 2.2118172646 1.0418326855
0.38901001215 3.09999156 0.84098851681
0.56331831217 2.768155098 2.2702355385
-0.1710858345 3.3991076946 2.035089016
-0.60192906857 3.2874350548 3.5137820244
0.15434077382 2.6894490719 3.9282884598
-0.65470004082 2.7094359398 4.0047154427
-1.9000489712 2.7252552509 3.8566808701
-2.0247685909 3.2622225285 3.367328167
-2.2874827385 2.658210516 3.5956244469
-0.55326586962 1.818487525 4.5339884758
-1.0887517929 2.1397469044 4.3755731583
-2.4456839561 2.2287814617 4.1062841415
-1.563704133 1.756144762 4.563305378
-0.28593093157 1.0714156628 4.7784004211
-1.2164939642 1.0748548508 4.6452794075
-0.60395926237 0.1658923924 4.812087059
-1.6626039743 0.71548891068 4.6323270798
-1.0418465137 -0.47770231962 4.7474632263
0.13885256648 -1.2010815144 5.0773067474
0.35182446241 -0.4782038331 5.1838383675
0.91160178185 -2.4453494549 3.9293653965
1.2606122494 -0.82558488846 5.3339600563
2.027315855 -2.0700001717 4.0841975212
1.9184997082 -1.4894613028 2.3142166138
1.0064542294 -1.8600534201 2.1314156055
0.95407444239 -1.7831279039 0.53082960844
1.393712163 -1.1869207621 0.27266785502
2.3434801102 -0.47242411971 1.9526077509
1.7012809515 -0.1218707636 0.85012799501
1.7628649473 0.20833390951 -0.21236678958
1.6800413132 -0.8020914793 -0.77892190218
1.0948733091 -2.0138216019 -1.8232949972
1.6604890823 -1.3824135065 -2.6823625565
2.1937768459 -0.17495673895 -1.4569135904
-0.41933226585 -1.5675060749 -2.5336358547
0.13419264555 -0.8037250042 -3.40797472
-0.99361813068 -1.2819759846 -2.4371023178
-0.39317074418 -0.74125599861 -2.9955332279
-0.60749441385 -0.28916749358 -3.3343837261
-1.1058109999 -0.58358609676 -2.6959354877
-0.02708240971 0.56222069263 -4.0405621529
0.55099713802 0.40438070893 -4.2394104004
-0.41060256958 1.9301277399 -3.5807693005
0.36916351318 1.3393691778 -4.3978176117
0.12393783033 2.0163543224 -4.1249728203
0.023851979524 3.0193696022 -3.6697382927
0.92549562454 2.2057130337 -4.0323991776
0.90749490261 3.1023852825 -3.671574831
1.1315072775 3.1322536469 -2.9317963123
1.6423321962 2.6236252785 -3.261744976
1.6769789457 2.6734485626 -2.5367395878
1.269281745 2.586378336 -2.1719737053
2.1900112629 2.1639506817 -2.5157735348
2.1222007275 1.629997611 -1.9587516785
2.4131093025 1.3005071878 -2.3175799847
2.3888115883 0.71852636337 -1.6830044985
2.0349962711 0.89365744591 -1.2036323547
1.9739096165 0.92776471376 0.015085263178
1.8453332186 2.0371830463 -3.4166862965
1.9557585716 1.1742737293 -3.8941161633
1.1762831211 1.6429919004 -4.1894221306
1.8847151995 1.3142422438 1.349267602
2.5556476116 0.9372407794 2.6131794453
1.8372888565 1.6631259918 2.486582756
1.284730196 2.318510294 2.1379594803
0.71995478868 1.6405557394 4.7034807205
2.1222717762 1.495646596 4.0531759262
0.59149670601 0.8604388237 4.9778642654
-0.062955610454 0.41033411026 5.036113739
1.3443071842 0.77512049675 5.0742397308
-3.9358329773 1.1856507063 0.81503868103
-1.7153761387 3.9041039944 2.5068421364
-2.7294929028 1.4792354107 4.4153289795
-1.1192573309 -1.9596407413 4.6343212128
0.76873010397 -2.6404697895 -0.84420162439
3.6522831917 -0.40988892317 3.5501029491
2.7979393005 0.48188811541 5.0123705864
2.7562258244 -1.1221649647 5.0513086319
2.1533238888 0.64289486408 5.2118067741
2.1002881527 -0.50129872561 -3.991341114
-0.018057877198 -2.9215905666 2.9139604568
-1.3303210735 -2.5501077175 3.4000542164
-0.19816672802 -2.556718111 4.4477701187
3.0224080086 1.043284893 4.0166969299

CELLS 294 1176
3 0 1 2
3 2 1 3
3 1 4 5
3 6 7 8
3 8 4 9
3 10 9 4
3 10 11 9
3 12 11 13
3 11 14 15
3 15 14 16
3 14 17 18
3 18 17 19
3 20 21 22
3 17 22 21
3 23 24 25
3 22 25 24
3 26 25 27
3 0 27 25
3 23 26 28
3 29 28 26
3 29 27 30
3 2 30 0
3 2 31 30
3 28 31 32
3 33 31 34
3 35 34 31
3 36 35 37
3 3 37 35
3 3 5 37
3 5 38 37
3 37 39 40
3 40 41 42
3 41 7 6
3 38 8 7
3 6 8 41
3 43 42 41
3 44 43 45
3 46 45 43
3 45 47 44
3 44 47 48
3 9 12 47
3 49 47 12
3 50 49 51
3 52 51 49
3 52 13 53
3 53 13 15
3 54 51 55
3 53 55 51
3 55 56 54
3 57 58 56
3 59 60 56
3 56 60 61
3 60 62 63
3 63 62 64
3 62 65 64
3 65 66 64
3 65 16 67
3 67 16 18
3 67 68 66
3 66 68 69
3 70 68 71
3 72 71 68
3 71 72 73
3 19 21 72
3 69 70 74
3 75 74 70
3 76 77 71
3 73 76 71
3 76 73 24
3 20 24 73
3 78 74 79
3 77 79 74
3 79 80 78
3 81 80 79
3 81 32 82
3 82 32 33
3 83 84 82
3 80 82 84
3 83 85 86
3 86 85 87
3 87 85 88
3 89 88 85
3 89 34 90
3 90 34 36
3 90 91 88
3 92 88 93
3 93 91 94
3 95 94 91
3 96 97 95
3 98 95 97
3 96 99 97
3 97 99 100
3 99 101 102
3 103 102 104
3 104 101 43
3 42 43 101
3 104 44 103
3 103 44 48
3 105 100 103
3 100 105 106
3 105 107 108
3 108 107 109
3 107 54 110
3 110 54 58
3 109 110 111
3 112 111 110
3 112 113 114
3 114 113 115
3 113 57 116
3 116 57 56
3 115 116 117
3 118 117 116
3 119 118 120
3 121 120 118
3 121 61 122
3 122 61 63
3 122 94 121
3 94 98 121
3 117 119 123
3 124 123 119
3 124 106 125
3 125 106 108
3 125 111 123
3 123 111 114
3 93 126 92
3 92 126 127
3 128 126 129
3 64 129 126
3 130 131 69
3 130 78 132
3 132 78 133
3 132 84 134
3 134 84 86
3 27 0 30
3 38 5 4
3 4 8 38
3 12 9 11
3 15 13 11
3 18 16 14
3 21 19 17
3 24 20 22
3 26 23 25
3 28 29 31
3 33 32 31
3 36 34 35
3 39 37 38
3 39 41 40
3 46 43 41
3 50 48 47
3 49 50 47
3 53 51 52
3 58 54 56
3 59 56 55
3 63 61 60
3 129 64 66
3 67 66 65
3 70 69 68
3 77 74 75
3 133 78 80
3 82 80 81
3 86 84 83
3 90 88 89
3 91 93 88
3 98 94 95
3 102 100 99
3 101 104 102
3 108 106 105
3 110 109 107
3 114 111 112
3 116 115 113
3 119 117 118
3 120 121 98
3 125 123 124
3 128 127 126
3 132 134 130
3 0 25 135
3 0 135 1
3 4 1 135
3 4 135 10
3 10 135 14
3 10 14 11
3 14 135 17
3 17 135 22
3 22 135 25
3 5 3 1
3 2 3 35
3 2 35 31
3 29 30 31
3 7 41 39
3 7 39 38
3 9 45 8
3 46 8 45
3 46 41 8
3 47 45 9
3 13 52 12
3 12 52 49
3 16 65 59
3 16 59 55
3 16 55 15
3 53 15 55
3 59 65 62
3 59 62 60
3 72 68 136
3 72 136 19
3 19 136 18
3 18 136 67
3 67 136 68
3 75 71 77
3 21 73 72
3 73 21 20
3 71 75 70
3 137 23 32
3 23 137 24
3 24 137 76
3 76 137 77
3 79 77 81
3 137 81 77
3 81 137 32
3 28 32 23
3 27 29 26
3 33 138 82
3 82 138 83
3 37 40 36
3 36 40 42
3 36 42 139
3 36 139 90
3 90 139 91
3 91 139 95
3 96 95 139
3 96 139 99
3 99 139 42
3 99 42 101
3 44 104 43
3 51 54 50
3 50 107 48
3 48 107 105
3 48 105 103
3 102 103 100
3 107 50 54
3 57 113 112
3 58 57 110
3 112 110 57
3 61 121 118
3 61 118 116
3 61 116 56
3 64 126 63
3 63 126 122
3 94 122 93
3 126 93 122
3 66 69 129
3 129 69 128
3 128 69 131
3 130 69 74
3 130 74 78
3 80 84 133
3 133 84 132
3 140 141 142
3 140 142 87
3 140 87 88
3 140 88 92
3 140 92 127
3 86 142 143
3 142 86 87
3 100 106 144
3 100 144 97
3 97 144 98
3 119 120 144
3 98 144 120
3 119 144 124
3 124 144 106
3 109 111 108
3 108 111 125
3 115 117 114
3 114 117 123
3 85 145 89
3 89 145 34
3 34 145 146
3 145 147 146
3 145 85 147
3 146 147 138
3 34 146 33
3 146 138 33
3 138 147 83
3 83 147 85
3 134 131 130
3 128 131 127
3 127 148 140
3 140 148 141
3 143 141 131
3 148 131 141
3 148 127 131
3 143 131 134
3 141 143 142
3 143 134 86

CELL_TYPES 294
5
5
5
5
5
5
5
5
5
5
5
5
5
5
5
5
5
5
5
5
5
5
5
5
5
5
5
5
5
5
5
5
5
5
5
5
5
5
5
5
5
5
5
5
5
5
5
5
5
5
5
5
5
5
5
5
5
5
5
5
5
5
5
5
5
5
5
5
5
5
5
5
5
5
5
5
5
5
5
5
5
5
5
5
5
5
5
5
5
5
5
5
5
5
5
5
5
5
5
5
5
5
5
5
5
5
5
5
5
5
5
5
5
5
5
5
5
5
5
5
5
5
5
5
5
5
5
5
5
5
5
5
5
5
5
5
5
5
5
5
5
5
5
5
5
5
5
5
5
5
5
5
5
5
5
5
5
5
5
5
5
5
5
5
5
5
5
5
5
5
5
5
5
5
5
5
5
5
5
5
5
5
5
5
5
5
5
5
5
5
5
5
5
5
5
5
5
5
5
5
5
5
5
5
5
5
5
5
5
5
5
5
5
5
5
5
5
5
5
5
5
5
5
5
5
5
5
5
5
5
5
5
5
5
5
5
5
5
5
5
5
5
5
5
5
5
5
5
5
5
5
5
5
5
5
5
5
5
5
5
5
5
5
5
5
5
5
5
5
5
5
5
5
5
5
5
5
5
5
5
5
5
5
5
5
5
5
5
5
5
5
5
5
5

CELL_DATA 294
SCALARS cell_data_0 double
LOOKUP_TABLE default
1.68559851421e-07
2.70542676108e-08
2.82827164713e-08
2.29699463881e-08
2.81994190528e-09
3.38304823041e-07
5.62329315751e-07
8.39814817045e-09
2.92392426037e-07
2.1410115349e-07
6.94577347776e-08
9.53174803911e-08
2.68648996292e-08
1.4722469755e-08
6.1728302494e-08
3.22773027386e-08
8.4547510612e-09
2.10836564074e-08
3.31235865028e-08
2.06929996769e-07
8.56458339661e-08
7.110048069e-08
2.32221118455e-07
6.12296284318e-07
4.06773634805e-06
6.14278531229e-07
4.58018278673e-08
3.19505891812e-07
3.10661239504e-07
3.24476968242e-07
1.48119282102e-07
3.67998418282e-07
9.34470819217e-08
1.60341743416e-07
2.48321710465e-08
2.81221848865e-07
6.09064852997e-08
3.15522510265e-07
1.46824735548e-08
1.14585950128e-07
3.05072937464e-07
4.3679290668e-07
3.49384164951e-07
3.070534963e-07
8.1230974789e-08
1.99703513804e-07
7.04231975208e-07
8.16303240148e-09
2.41637501266e-06
2.01580942794e-05
3.47906082087e-07
2.49248574385e-06
1.2021490277e-07
1.73186143688e-08
2.13779844706e-07
4.03360187294e-07
3.23185149299e-07
1.1466129848e-09
5.46400521142e-07
1.13317551956e-06
3.99250391001e-07
5.32850785316e-08
1.0647669157e-07
1.60239489333e-07
1.11080075582e-06
2.03586301937e-07
5.54040757955e-09
7.13705498114e-08
4.72442676295e-08
7.76723987249e-08
7.28781005609e-09
3.1348046548e-07
1.21354428891e-07
4.9276781159e-08
1.87384782433e-06
2.0380914292e-07
6.0671082981e-08
1.42075626601e-07
1.69412705662e-05
3.35897044093e-05
2.33540957922e-05
6.96843924269e-06
1.87565986635e-06
2.06498425414e-06
2.53323930751e-06
2.68569714161e-06
4.07915766392e-07
6.73841609432e-07
6.72719702918e-06
7.88679229482e-06
4.64338582374e-06
1.63365976661e-06
1.41817831389e-07
7.69597279889e-08
1.76415840064e-07
1.74770886516e-08
2.56059726357e-08
5.38541086552e-07
2.06595097058e-06
1.34568505639e-06
1.71584660782e-05
1.23341057351e-06
5.49511893133e-06
1.02143169619e-05
1.10844992338e-05
1.50904864037e-05
4.44805506924e-06
1.82026879257e-06
1.49396463224e-06
3.89477308978e-06
3.21371515612e-07
1.13363429704e-05
2.43551396899e-06
1.00166750509e-06
5.88349436923e-07
8.48776778058e-07
5.0920574259e-07
2.18389304307e-06
6.38509328139e-06
7.08586334652e-06
6.54116489735e-06
1.58578892036e-05
3.99571503336e-06
2.19073574519e-06
5.91869864523e-07
2.01934205738e-06
8.95344895155e-06
1.50542358474e-07
1.02076388865e-05
2.24245108114e-07
1.86619891354e-08
3.16396836747e-07
8.83932604529e-07
1.04182811428e-08
8.85921436578e-08
1.10158165073e-06
1.3995728913e-07
1.77837891768e-07
3.36473716908e-07
8.27664000362e-08
8.16692574541e-08
2.36256938103e-07
5.58315975403e-08
3.19337124099e-06
2.51502824793e-06
1.23228144572e-07
9.77308457536e-08
3.79571423954e-07
1.44172119871e-06
2.94017950904e-07
3.4592495748e-08
3.77636268758e-06
1.74761463972e-07
9.47236308229e-07
1.41613753628e-06
3.1334904368e-07
4.27197561264e-07
1.30025993595e-08
7.2616944762e-08
1.07866845084e-07
3.3447453983e-07
3.20242246236e-06
2.59309538389e-06
2.02993535528e-06
1.48388584111e-07
1.50324489331e-07
1.3398047973e-05
7.75994151993e-06
9.02825917618e-06
2.16554248922e-06
6.02789531145e-06
2.21145711347e-06
1.22624793779e-06
8.48722469175e-06
1.20265264481e-07
8.2712491864e-08
5.38458022514e-09
5.03126708784e-08
5.90626909076e-07
1.19179602476e-07
2.49528353419e-08
7.09452882564e-09
1.33218828087e-07
7.05283292674e-08
1.1770610442e-07
1.71003877299e-07
2.77582299358e-06
2.7202853871e-07
6.53465535739e-08
1.11108092432e-07
2.21542945294e-06
4.3025582392e-07
9.65678622553e-08
2.66377085305e-07
1.08710486077e-07
3.81546386585e-08
7.39781325947e-07
8.83037367767e-07
3.64442049971e-07
1.13486434202e-07
3.26287378962e-07
8.37951610793e-08
7.59319101611e-08
1.4672194964e-07
1.05375459473e-07
1.40457586717e-07
8.08681327826e-09
1.11467133808e-07
6.63922849676e-08
1.0906271987e-07
6.13775434309e-08
1.07325541922e-07
1.04139033828e-08
1.29420739894e-07
8.77904014543e-09
1.57632073825e-08
1.88461347749e-07
5.74989422915e-07
1.29413794803e-07
3.50931598621e-08
1.88932280942e-05
2.8041971512e-07
8.39460115869e-07
1.04830673266e-06
1.34528733957e-07
7.07600825037e-06
3.40201834588e-07
7.20260832371e-07
1.40642915927e-06
1.08413825762e-06
7.5006956069e-07
3.73962941302e-07
5.92988701218e-07
4.8407966197e-07
4.1664961788e-07
5.35913253334e-06
7.15735724675e-07
3.50992530437e-07
2.91027417056e-06
6.00220622726e-06
4.51075273512e-05
0.000116823686485
5.60044003896e-07
3.44872688597e-06
4.07633428749e-06
1.46966681222e-06
8.9476365496e-07
5.67056670956e-07
8.1933629434e-07
4.67815257889e-06
1.72024904855e-05
7.34111770979e-05
4.70973035233e-07
3.60020937424e-07
2.07545479175e-08
8.45246801702e-08
4.46512602755e-06
6.72686061774e-05
0.000121983426265
8.36795254831e-06
4.22012529203e-06
2.99849125193e-06
6.72300336758e-05
3.36771242961e-06
3.43036488453e-06
1.80208533662e-06
3.67365644821e-06
3.3949728167e-06
2.448170831e-06
4.86547099862e-06
9.99766653306e-06
3.58193143593e-06
8.39617296071e-07
1.2560066407e-05
1.72027973457e-05
4.60443602401e-06
7.40548322066e-08
7.82291253966e-07
1.04435423784e-05
4.77757487182e-06
1.19795797153e-05
1.04290439405e-05
5.41475361965e-07
1.37813685946e-05
2.90644520751e-06
1.06158745359e-05
6.51671712779e-05
1.43351604222e-05
2.44969948756e-06
8.41198014994e-06
3.5895489914e-06
1.05478660467e-06
6.03938809778e-07
6.53714914356e-07

