# vtk DataFile Version 3.0
File Name: Molecule/arg/arg_1.0-1.vtk
ASCII
DATASET UNSTRUCTURED_GRID
FIELD FieldData 1
TIME 1 1 double
0.0
POINTS 194 double
-3.4051725864 0.27115178108 1.3782321215
-2.9863357544 0.027071107179 0.43275010586
-2.9554617405 -0.44089898467 1.6132745743
-2.6266257763 -0.54591941833 0.46245330572
-3.0052075386 0.13413996994 0.010473784059
-2.2214384079 -0.44095012546 -0.91345608234
-2.3247983456 -0.37772074342 -0.46318843961
-2.4518074989 -0.11387547851 -1.0982255936
-2.723038435 1.5498627424 -0.68602633476
-2.2514414787 1.0990173817 -1.5672183037
-1.9586138725 1.7432067394 -1.0883290768
-2.5729167461 2.0067434311 -0.4016341567
-1.407677412 3.1744186878 0.19739687443
-1.7520345449 2.4703469276 -0.62613672018
-2.4854233265 2.6425635815 0.59246122837
-3.1015162468 2.3683419228 1.5466111898
-1.8493119478 3.3390247822 1.5130372047
-2.4733698368 3.0319302082 2.2845184803
-2.6263492107 2.5744161606 2.496617794
-2.9167444706 2.0816726685 2.6791117191
-3.4316852093 1.7747447491 1.7787913084
-3.4001812935 0.68104958534 1.9030377865
-3.1085348129 1.709717989 3.0504758358
-3.1629431248 0.75796478987 2.9471161366
-3.0684649944 0.43472528458 2.2818543911
-3.1269404888 0.13168986142 1.8300356865
-2.8823878765 0.29172033072 3.1940438747
-2.8505134583 0.0018342509866 2.3455321789
-2.950956583 -0.1569006741 1.9716455936
-2.4984769821 -0.73951011896 2.4002330303
-2.4444074631 -0.24002480507 3.4491021633
-1.6369075775 -1.6669456959 1.3631607294
-1.9309648275 -1.2369207144 3.2882475853
-0.97703397274 -2.2599458694 2.1632230282
-2.2981796265 -1.0082068443 0.34992700815
-1.0368864536 -2.1647224426 0.26749780774
-1.9054868221 -1.2956175804 -0.45739790797
-2.0360620022 -0.76933974028 -0.88818585873
-1.8959976435 -1.2674008608 -1.1362344027
-2.0971324444 -0.68316310644 -1.1838754416
-1.7661648989 -0.82211303711 -1.9811829329
-2.2519631386 -0.42014023662 -1.0801128149
-2.1626684666 -0.44369053841 -1.8735007048
-1.5385710001 -1.4752621651 -1.8026783466
-2.0233309269 0.25336301327 -2.3431117535
-1.5837152004 0.10544514656 -2.6505672932
-1.9367518425 1.0133672953 -2.2778656483
-1.3053232431 1.4333634377 -2.7684082985
-1.6315648556 1.4162372351 -2.2203421593
-1.8645801544 1.4285722971 -1.6728348732
-1.1168187857 2.0471901894 -2.2095508575
-1.5105576515 1.8311502934 -1.6872285604
-1.2908053398 2.5075755119 -1.3361186981
-0.5056656003 2.5526745319 -2.3540570736
-0.83518195152 3.0367076397 -1.1828883886
0.4477712512 3.1497981548 -0.97357684374
-0.11756349355 2.9810898304 -1.9783265591
1.1660602093 2.5971877575 -2.0322122574
0.71385091543 3.3610019684 -2.5938491821
0.81440973282 2.6913414001 -1.7045454979
0.37852177024 3.4412975311 -2.8168478012
-0.11335602403 3.3155548573 -2.9458236694
0.28554263711 3.2671718597 -2.4424746037
1.0656714439 2.5718798637 -0.4262574017
1.5526561737 1.998203516 -1.1411794424
0.84295636415 2.7548429966 0.42016220093
1.5332735777 1.9209492207 0.10507693142
1.2208391428 2.2036149502 1.0265215635
0.37438219786 3.1027679443 0.98321020603
1.214733839 2.342051506 2.0284602642
0.70124620199 2.6802535057 2.4320135117
-0.12210580707 3.28687644 2.0472061634
-0.59543353319 3.2413327694 3.5058786869
0.022559011355 2.5899343491 4.0598363876
-0.7431935668 2.7996766567 3.8741052151
-1.2188795805 3.5866777897 3.4393413067
-1.8568042517 2.8065643311 3.7521262169
-1.9887341261 3.2070429325 3.35405159
-2.1937787533 2.6649055481 3.6537418365
-1.1110980511 2.0640792847 4.2831659317
-0.50580346584 1.7036255598 4.5945897102
-1.5458441973 1.712878108 4.5273633003
-2.3911156654 2.2248322964 4.0305428505
-0.45946985483 1.1260859966 4.6852593422
-1.4029824734 1.1293802261 4.6748242378
-0.32219740748 0.55786120892 4.869383812
-1.5566298962 0.48208421469 4.681573391
-0.40796649456 -0.032101109624 4.8656334877
-0.87744379044 -0.50087994337 4.7619376183
-1.7284423113 -0.82996332645 4.3271403313
-2.3520274162 0.25124004483 4.2339696884
0.11596053094 -1.1933777332 5.0680317879
0.38550555706 -0.47655558586 5.1151428223
1.2036048174 -0.75293028355 5.2610354424
1.5815193653 -1.8153458834 4.6722478867
0.58188354969 -2.2280666828 4.4654917717
1.0847536325 -2.4528431892 3.2735481262
2.0425679684 -2.0470929146 3.4930024147
1.9669367075 -1.4583928585 2.3976774216
1.0286051035 -1.853276968 2.1410605907
0.21821390092 -2.4813528061 2.1837639809
0.74241685867 -1.6928886175 1.3200560808
0.0091272648424 -2.1771726608 1.22940135
1.0264358521 -1.84283638 0.33563414216
0.032970741391 -2.4808056355 0.27752524614
-0.78119462729 -1.9861290455 1.137721777
1.4840480089 -1.0782686472 0.15693086386
1.2435319424 -1.2281221151 1.4364269972
1.4818203449 -0.73908603191 1.1981803179
2.338228941 -0.66661059856 1.952545166
1.7096751928 -0.08461188525 0.74617511034
1.8661516905 0.19020560384 -0.13271872699
1.6441987753 -0.71895951033 -0.65283417702
1.5706062317 -1.6263958216 -1.5006974936
2.1774532795 -0.20810090005 -1.4007000923
2.0908241272 -1.0711206198 -2.2955443859
1.074567318 -1.4931364059 -2.9533305168
0.50647372007 -2.1025512218 -2.1205022335
-0.38559037447 -1.3907800913 -2.6681575775
0.20009890199 -0.73018431664 -3.4626300335
-0.39987963438 -0.71026027203 -3.088975668
-1.0301339626 -0.6930642128 -2.6327400208
-0.62466859818 -0.29141166806 -3.177734375
-0.94119352102 -1.3240754604 -2.3706123829
-1.0383099318 0.53541094065 -3.2945320606
-0.043460465968 0.64067620039 -4.0114655495
0.56155538559 0.3385990262 -4.2315530777
-0.45724505186 1.8965790272 -3.5506467819
0.34406882524 1.3928971291 -4.3754649162
0.14043192565 2.0773346424 -4.1008939743
-0.012289815582 2.9758477211 -3.6653232574
0.90840011835 3.0589206219 -3.6748995781
0.96118766069 2.1560122967 -4.087471962
0.90379083157 3.3180000782 -2.9130144119
1.6337339878 2.52359128 -3.3197383881
1.6738532782 2.6749660969 -2.5258755684
2.0543048382 1.7337794304 -1.9658015966
2.2277739048 2.0891046524 -2.5635251999
2.4411461353 1.2010552883 -2.3518867493
2.3562829494 0.60441380739 -1.6093453169
2.0059304237 0.96606886387 -1.2153488398
1.9635081291 0.96827459335 -0.0094243334606
1.913007021 2.0470430851 -3.434163332
1.8864578009 1.3025006056 -3.7605316639
1.1022030115 1.6644608974 -4.2219605446
1.4206309319 1.5824223757 -3.9362928867
1.9225319624 1.3540278673 1.2607028484
2.5454785824 0.94116854668 2.5633018017
1.8480325937 1.5742518902 2.3289363384
1.6957571507 2.1102106571 3.1383001804
2.4716403484 1.4299731255 3.4801664352
1.4395245314 1.8179738522 4.2697916031
2.1423945427 1.1813758612 4.5581278801
1.4624933004 0.66275495291 5.0912671089
0.43271252513 1.6295944452 4.6796994209
0.6513813138 0.93876159191 4.9303994179
0.74916940928 1.04248631 -4.3622322083
-3.5475597382 2.1819579601 0.83977508545
-3.5310130119 1.6525723934 -0.057477913797
-3.9288544655 1.1240187883 0.85016149282
-2.6865749359 -1.2336416245 1.3084154129
0.5887812376 3.2822337151 -0.034103211015
-1.0932371616 4.0058193207 2.4976637363
-2.0712416172 3.6630001068 2.5432112217
-2.8316378593 1.4185910225 4.3263335228
-0.69722276926 -2.5607776642 4.3136334419
-0.80809569359 -1.6614769697 4.9275221825
-1.5992443562 -1.7820646763 4.1974391937
-0.8646402359 -2.8377304077 3.3090491295
0.34766706824 -2.8725850582 3.3985376358
0.48317620158 -2.7788095474 -0.79247164726
-0.83128815889 -2.7206070423 -0.73599338531
-0.68908822536 -2.4575464725 -1.8911556005
1.3612372875 -2.1138417721 -0.72184497118
0.93683338165 2.4545702934 4.0464644432
3.6677591801 -0.31357482076 3.7003359795
3.3237059116 0.76174402237 3.6928374767
3.3225016594 0.19652250409 4.6397171021
3.3331134319 -0.89021104574 4.5794248581
3.2635366917 -1.4301160574 3.618044138
3.3106327057 -0.87306421995 2.7481873035
3.3341457844 0.17440284789 2.7685706615
2.4129633904 0.28446781635 5.3277168274
2.4666776657 -0.83667045832 5.3260207176
2.5416023731 -1.6858495474 4.640235424
2.9122424126 0.14716863632 -2.6646406651
2.5712122917 -0.62108129263 -3.3706977367
2.5657815933 0.49951839447 -3.7495884895
1.8311629295 -1.2226947546 -3.3094553947
1.7813761234 -0.50303333998 -4.1439189911
0.77782857418 -0.70853215456 -4.0463266373
1.2990064621 0.84206950665 -4.2663879395
0.88211369514 3.4384465218 -3.2927348614
0.23981557786 3.5106229782 -3.6485102177

CELLS 384 1536
3 0 1 2
3 2 1 3
3 1 4 3
3 5 6 7
3 4 8 7
3 7 8 9
3 8 10 9
3 11 10 8
3 12 13 14
3 11 14 13
3 14 15 16
3 16 15 17
3 18 15 19
3 20 19 15
3 20 21 22
3 22 21 23
3 24 21 25
3 0 25 21
3 23 24 26
3 27 26 24
3 27 25 28
3 28 25 2
3 2 29 28
3 29 30 27
3 29 31 32
3 32 31 33
3 31 34 35
3 35 34 36
3 34 6 36
3 3 6 34
3 36 37 38
3 38 39 40
3 39 5 41
3 41 5 7
3 7 42 41
3 43 38 40
3 44 45 42
3 40 42 45
3 44 46 45
3 46 47 45
3 48 46 49
3 9 49 46
3 47 48 50
3 51 50 48
3 51 10 52
3 52 10 13
3 50 52 53
3 54 53 52
3 54 55 56
3 57 58 59
3 60 61 62
3 55 63 59
3 59 63 64
3 63 65 66
3 66 65 67
3 65 68 67
3 69 68 70
3 68 12 71
3 71 12 16
3 71 72 70
3 70 72 73
3 74 75 76
3 77 76 75
3 76 77 78
3 17 18 77
3 74 79 73
3 73 79 80
3 81 79 82
3 78 82 76
3 82 78 22
3 19 22 78
3 83 80 84
3 81 84 80
3 83 84 85
3 85 86 87
3 88 86 89
3 90 89 86
3 90 30 89
3 89 30 32
3 88 91 87
3 87 91 92
3 93 91 94
3 95 94 91
3 95 96 94
3 94 96 97
3 97 96 98
3 99 98 96
3 99 100 101
3 101 100 102
3 101 102 103
3 103 102 104
3 100 33 102
3 102 33 105
3 102 105 104
3 104 105 35
3 103 106 107
3 107 106 108
3 98 107 109
3 108 109 107
3 110 106 111
3 112 111 106
3 112 113 114
3 114 113 115
3 115 113 116
3 117 116 113
3 117 118 116
3 116 118 119
3 120 118 121
3 122 120 121
3 121 123 40
3 43 40 123
3 121 45 122
3 122 45 124
3 125 119 122
3 119 125 126
3 125 127 128
3 128 127 129
3 127 53 130
3 130 53 61
3 130 131 129
3 129 131 132
3 131 133 134
3 134 133 135
3 133 58 57
3 62 59 58
3 57 136 135
3 135 136 137
3 138 136 139
3 140 139 136
3 140 64 141
3 141 64 66
3 141 111 140
3 111 114 140
3 137 138 142
3 143 142 138
3 144 132 145
3 142 132 134
3 110 146 109
3 109 146 147
3 148 146 69
3 67 69 146
3 149 150 148
3 147 148 150
3 149 151 150
3 150 151 152
3 152 151 153
3 154 155 151
3 154 83 155
3 155 83 85
3 155 92 153
3 153 92 93
3 25 0 2
3 6 3 4
3 4 7 6
3 49 9 10
3 13 10 11
3 16 12 14
3 18 17 15
3 22 19 20
3 24 23 21
3 26 27 30
3 32 30 29
3 105 33 31
3 105 31 35
3 37 36 6
3 37 39 38
3 42 40 39
3 124 45 47
3 48 47 46
3 52 50 51
3 61 53 56
3 56 53 54
3 56 59 62
3 55 59 56
3 66 64 63
3 69 67 68
3 71 70 68
3 74 73 72
3 81 80 79
3 86 85 84
3 88 87 86
3 93 92 91
3 107 98 99
3 107 99 101
3 107 101 103
3 110 109 108
3 110 108 106
3 114 111 112
3 120 119 118
3 123 121 118
3 126 125 156
3 130 129 127
3 134 132 131
3 57 135 133
3 138 137 136
3 139 140 114
3 148 147 146
3 153 151 155
3 157 158 159
3 159 158 4
3 0 159 1
3 159 0 21
3 159 21 20
3 159 20 157
3 157 20 15
3 157 15 14
3 157 14 158
3 158 14 11
3 158 11 8
3 158 8 4
3 4 1 159
3 3 34 160
3 3 160 2
3 2 160 29
3 27 28 29
3 29 160 31
3 31 160 34
3 5 39 37
3 5 37 6
3 9 44 7
3 42 7 44
3 39 41 42
3 46 44 9
3 10 51 49
3 49 51 48
3 12 68 161
3 55 54 161
3 12 54 13
3 52 13 54
3 12 161 54
3 55 161 63
3 63 161 65
3 65 161 68
3 75 162 163
3 75 163 77
3 72 75 74
3 75 72 162
3 162 72 71
3 162 71 16
3 162 16 163
3 163 16 17
3 163 17 77
3 79 76 82
3 18 78 77
3 78 18 19
3 76 79 74
3 23 26 164
3 23 164 22
3 22 164 82
3 82 164 81
3 81 164 84
3 86 84 90
3 164 90 84
3 90 164 26
3 90 26 30
3 25 27 24
3 165 166 167
3 165 167 168
3 165 168 169
3 165 169 95
3 165 95 166
3 166 95 91
3 166 91 88
3 166 88 89
3 166 89 167
3 167 89 32
3 167 32 168
3 168 32 33
3 168 33 100
3 168 100 169
3 169 100 96
3 169 96 95
3 96 100 99
3 170 171 172
3 170 172 117
3 170 117 173
3 170 173 103
3 170 103 104
3 170 104 171
3 171 104 35
3 171 35 36
3 171 36 38
3 171 38 43
3 171 43 172
3 172 43 123
3 172 123 118
3 172 118 117
3 103 173 106
3 106 173 112
3 112 173 113
3 113 173 117
3 45 121 40
3 47 50 127
3 47 127 124
3 124 127 125
3 124 125 122
3 120 122 119
3 127 50 53
3 64 140 136
3 64 136 57
3 64 57 59
3 67 146 66
3 66 146 141
3 111 141 110
3 146 110 141
3 70 73 174
3 70 174 149
3 70 149 69
3 69 149 148
3 149 174 151
3 151 174 154
3 154 174 73
3 154 73 80
3 154 80 83
3 87 92 85
3 85 92 155
3 175 176 177
3 175 177 178
3 175 178 179
3 175 179 180
3 175 180 181
3 175 181 176
3 177 182 183
3 178 177 183
3 178 183 184
3 179 178 184
3 179 184 97
3 179 97 98
3 179 98 180
3 180 98 109
3 180 109 181
3 181 109 147
3 181 147 176
3 176 147 150
3 176 150 152
3 176 152 177
3 177 152 182
3 182 152 153
3 182 153 93
3 182 93 183
3 183 93 94
3 183 94 184
3 184 94 97
3 185 186 187
3 186 188 189
3 187 186 189
3 189 188 190
3 189 190 126
3 143 187 191
3 187 143 138
3 187 138 185
3 185 138 139
3 185 139 114
3 185 114 115
3 185 115 186
3 186 115 188
3 188 115 116
3 188 116 190
3 190 116 119
3 190 119 126
3 129 132 128
3 128 132 144
3 135 137 134
3 134 137 142
3 58 60 62
3 56 62 61
3 143 191 145
3 145 191 144
3 191 126 156
3 156 144 191
3 144 156 128
3 128 156 125
3 143 145 142
3 142 145 132
3 133 131 192
3 58 133 60
3 192 60 133
3 192 193 60
3 193 192 131
3 60 193 61
3 61 193 130
3 193 131 130
3 126 191 189
3 189 191 187

CELL_TYPES 384
5
5
5
5
5
5
5
5
5
5
5
5
5
5
5
5
5
5
5
5
5
5
5
5
5
5
5
5
5
5
5
5
5
5
5
5
5
5
5
5
5
5
5
5
5
5
5
5
5
5
5
5
5
5
5
5
5
5
5
5
5
5
5
5
5
5
5
5
5
5
5
5
5
5
5
5
5
5
5
5
5
5
5
5
5
5
5
5
5
5
5
5
5
5
5
5
5
5
5
5
5
5
5
5
5
5
5
5
5
5
5
5
5
5
5
5
5
5
5
5
5
5
5
5
5
5
5
5
5
5
5
5
5
5
5
5
5
5
5
5
5
5
5
5
5
5
5
5
5
5
5
5
5
5
5
5
5
5
5
5
5
5
5
5
5
5
5
5
5
5
5
5
5
5
5
5
5
5
5
5
5
5
5
5
5
5
5
5
5
5
5
5
5
5
5
5
5
5
5
5
5
5
5
5
5
5
5
5
5
5
5
5
5
5
5
5
5
5
5
5
5
5
5
5
5
5
5
5
5
5
5
5
5
5
5
5
5
5
5
5
5
5
5
5
5
5
5
5
5
5
5
5
5
5
5
5
5
5
5
5
5
5
5
5
5
5
5
5
5
5
5
5
5
5
5
5
5
5
5
5
5
5
5
5
5
5
5
5
5
5
5
5
5
5
5
5
5
5
5
5
5
5
5
5
5
5
5
5
5
5
5
5
5
5
5
5
5
5
5
5
5
5
5
5
5
5
5
5
5
5
5
5
5
5
5
5
5
5
5
5
5
5
5
5
5
5
5
5
5
5
5
5
5
5
5
5
5
5
5
5
5
5
5
5
5
5
5
5
5
5
5
5
5
5
5
5
5
5
5
5
5
5
5
5

CELL_DATA 384
SCALARS cell_data_0 double
LOOKUP_TABLE default
5.84866774775e-08
1.63534492296e-07
4.82326440238e-08
1.04338596582e-07
2.32186815285e-07
2.91100699938e-07
1.21703406497e-06
9.47970130432e-08
2.96925628905e-08
1.69565097052e-07
1.98797837742e-07
3.28318555459e-09
2.99174698775e-09
3.17732868036e-09
4.16094717074e-08
2.16196026324e-08
3.83227913726e-08
2.00925617814e-08
4.7476372945e-08
3.97599959715e-08
2.76783150776e-08
2.14580995695e-09
5.27770113698e-08
2.59989232636e-07
8.57960834991e-06
1.12686331951e-05
2.04178174874e-08
1.07822112809e-07
2.87688411971e-07
1.67063472792e-07
1.16746705275e-07
1.33394809657e-09
3.9296294535e-10
6.36578026473e-09
1.77200039404e-07
3.35008827387e-07
3.35497974011e-07
3.43737079735e-07
2.13531613571e-07
7.37342066178e-07
2.27553922052e-07
8.93556018968e-08
4.50101591049e-08
2.01513871165e-07
4.91407211543e-08
3.54149448052e-07
3.07128946996e-07
6.09924830668e-08
2.88355711884e-07
3.98950691501e-07
2.36007339109e-06
2.58980352926e-07
2.65903401146e-07
2.70730066575e-07
1.45617120433e-08
1.96698603762e-07
1.35204452501e-06
7.18503357302e-07
3.75626547267e-07
3.50834657857e-07
4.53268895349e-06
1.58076406797e-08
2.96894505117e-08
4.56338105158e-08
1.41193461076e-07
1.43634698812e-07
3.00788052977e-08
6.57642921559e-08
8.91558749762e-08
1.36373003449e-08
1.01921757501e-07
2.1228199749e-08
1.58931697225e-08
6.24502037575e-10
9.4991447123e-09
1.58235708602e-07
7.33709386458e-08
2.22276903266e-07
2.79031354794e-06
1.76891501912e-07
1.36846451634e-07
2.47911426578e-06
1.40206331792e-06
3.36827386336e-06
1.72865217499e-06
6.94861590779e-06
2.45588310183e-06
5.91111170538e-07
2.98588657746e-07
1.40098731317e-06
1.85399608343e-07
4.21418618588e-07
1.75993453839e-07
2.7921544353e-07
7.52633050493e-07
4.33443754876e-07
4.55884119028e-08
6.37875207275e-07
1.92062118838e-07
7.27405054442e-08
5.96275112079e-07
1.41336024718e-06
2.37891146657e-06
2.30483634734e-07
6.74336600243e-07
1.52907607378e-06
2.16285107317e-07
1.65331166712e-07
5.17421039122e-08
3.42235093408e-08
3.18673791042e-08
3.26749041192e-08
5.68008792227e-07
3.13959295451e-06
2.75046091482e-07
1.4557569359e-05
3.21251561917e-06
4.06418211097e-08
9.92178334528e-07
2.20670393213e-06
5.04158628259e-06
6.17318566104e-07
4.94085701211e-06
1.33925617803e-06
2.17118756083e-07
6.80779520614e-06
2.14387390913e-06
1.11284457867e-06
6.91327066317e-07
9.48075456357e-07
4.03992633933e-08
2.03951547976e-07
1.69576489218e-06
1.96482653318e-06
1.00390921182e-05
4.0942214489e-07
4.6440808276e-06
1.42959295512e-07
1.79399791976e-06
9.8627493305e-08
2.748569532e-07
6.58338370664e-06
8.68530513269e-08
7.87063305265e-06
4.73419507995e-06
1.62878529047e-06
3.67533729028e-07
4.82650578046e-08
1.13169083255e-07
9.25589836135e-08
9.39404193395e-08
6.23413385948e-08
2.71129049507e-09
7.49880817279e-07
7.58474171421e-08
1.37357960081e-07
4.21373194121e-07
1.28763778546e-07
7.74417755567e-08
8.38242650531e-08
1.23877940763e-07
2.88425864948e-06
1.74614225759e-06
1.27607939926e-07
2.01105571118e-07
7.02634350051e-08
1.33227682622e-08
1.94046574706e-07
4.30547945402e-07
6.1276876019e-07
1.36935229825e-06
7.63846266676e-07
1.28485595171e-06
8.37223375176e-07
1.64779315356e-07
2.27128821726e-07
1.02133429113e-06
7.79113229493e-08
2.67979413643e-08
9.62100423693e-08
7.46357738851e-08
1.7558262185e-07
8.7224494233e-08
1.05431431114e-07
1.28375930258e-07
1.21619145122e-07
5.61733845826e-07
1.68465849192e-06
2.58194439808e-07
1.59683218946e-07
5.08736310479e-07
5.15117257411e-06
6.97180827146e-06
3.12742431753e-06
7.91753971886e-06
4.33131249428e-07
1.67408424569e-07
6.03717449548e-07
1.06965758398e-07
7.21234123386e-08
2.93975975068e-07
1.22220123228e-07
3.83751619929e-08
2.07766875942e-08
3.06508105566e-08
1.00459942635e-08
6.26352298591e-08
5.63638219352e-08
2.53855482697e-07
1.87665236915e-07
1.9640996481e-07
6.6020763692e-08
3.09983307849e-08
5.88965188823e-08
8.95282087688e-08
1.84176835962e-06
7.10751883409e-08
7.31653272681e-08
1.40895716829e-07
2.69023589411e-06
4.95414495546e-07
1.1376147701e-07
7.05080984572e-07
2.37691584362e-08
1.85371065976e-07
5.28802011239e-07
2.15273622435e-07
2.85660337139e-07
1.23255587893e-09
1.12285030515e-07
3.45931890698e-07
1.05436697842e-07
2.98184835876e-07
4.17959972759e-08
4.90466166661e-08
2.64384553049e-08
4.10470241368e-08
5.75486008838e-07
1.93348977761e-07
6.48459616502e-08
1.03060669549e-08
4.33561506561e-08
1.23770561971e-07
8.75929739775e-08
1.00100658021e-07
3.87229860016e-08
2.15297877126e-07
1.05566106046e-07
9.63858451632e-08
2.09547373564e-08
3.40508081416e-08
5.15931868605e-08
2.71267471296e-08
1.36113924959e-07
5.3600539045e-08
4.80031190556e-08
6.72355941722e-07
4.24588036794e-07
1.09649316548e-05
4.09854645764e-06
4.73702381625e-06
2.25482745342e-06
1.35537444681e-07
4.36209179056e-07
5.22147035988e-08
1.48511441863e-06
4.25932842592e-06
1.37656300566e-06
3.69058628941e-07
7.07356065217e-06
5.90395918732e-06
3.65892027898e-06
1.21432777455e-06
4.76798766939e-08
1.55055337507e-07
1.46720637635e-07
1.80758541158e-08
9.90696833767e-07
3.44991917393e-07
7.94126964253e-07
4.00327884025e-07
1.34548659796e-07
3.22254882104e-07
1.60425027242e-08
2.03212782068e-07
1.96307703989e-07
3.50943119236e-08
4.01025475343e-07
5.3253312731e-07
1.0004365037e-06
1.61162155314e-07
4.4160483492e-07
3.10191029424e-07
1.17017189221e-07
3.97041045476e-06
1.93734017465e-07
5.17854824684e-07
2.0547810282e-06
5.43710745738e-07
1.39767084146e-06
9.76526414501e-07
2.37819574331e-08
2.62866982789e-07
6.52339693665e-08
3.87475199117e-07
6.00834467767e-07
1.62364844069e-05
5.73377344348e-06
5.43454131247e-06
1.26241920315e-05
1.57265124908e-06
1.7065056548e-07
3.51671028478e-08
2.86401628299e-08
9.06139871982e-08
1.14311495913e-07
1.84035340265e-07
8.05120206393e-07
1.7775556549e-07
1.59184984479e-07
4.51242988312e-07
5.87479271474e-07
3.45465699768e-07
4.23380302307e-07
3.56554772727e-06
4.86943309962e-06
8.08229299345e-06
1.26823404761e-05
2.7365893154e-06
2.06924608699e-07
1.4407298807e-07
2.88309603192e-07
4.39376852138e-06
2.28648746778e-06
4.21200267934e-06
6.27044168219e-06
3.23606139343e-06
6.18064828224e-07
4.54236710749e-07
2.16386437741e-07
2.0956991254e-06
7.76252392923e-06
1.11160513636e-05
1.81844086664e-08
1.00201078999e-08
1.47792730508e-07
1.80426919654e-07
1.04777340086e-07
2.51666144459e-07
1.36905554321e-06
9.2612065061e-08
5.47532278436e-07
1.14767762711e-06
1.34704995184e-07
4.29041926826e-07
4.18898430238e-08
5.40258356345e-08
1.92769094754e-07
4.27775354506e-07
5.65715454559e-07
8.605489238e-06
8.61686606048e-07
7.88882937612e-06
6.94964147463e-06
3.55139079568e-07
4.1191952868e-07
1.32790059933e-06
5.29008718587e-06
8.87301927132e-07
5.72080121743e-06
1.86984721857e-06
8.23283914565e-06
1.23315822362e-06
2.11200534327e-06
7.37382394063e-07
9.64129176462e-07
1.77020126566e-06
7.61128952898e-07
3.67993887963e-06
5.84637537575e-07
8.35036202702e-07
6.0378570287e-06
2.08513513326e-07
8.96517570847e-07

