# vtk DataFile Version 3.0
File Name: Molecule/arg/arg_5.0-3.vtk
ASCII
DATASET UNSTRUCTURED_GRID
FIELD FieldData 1
TIME 1 1 double
0.0
POINTS 888 double
-3.107237339 -0.061867218465 1.7013853788
-3.3876423836 0.29359483719 1.6042431593
-3.1491231918 -0.25833317637 1.2700090408
-3.4402246475 0.096545577049 1.1179736853
-2.979776144 -0.38050460815 1.8274824619
-2.9856820107 -0.72095763683 1.3732329607
-3.0505576134 -0.2606280148 0.62716203928
-3.2850284576 0.015322898515 0.47665548325
-2.845553875 -0.70217841864 0.74597215652
-2.8673677444 -0.11283916235 0.18480198085
-2.6834490299 -0.36399257183 0.27347609401
-2.5643501282 -0.6106108427 0.27637219429
-2.6971693039 0.081606164575 -0.33081078529
-2.5368318558 -0.13359856606 -0.16161552072
-2.9976532459 0.073171406984 0.034225095063
-2.5558664799 0.030926628038 -0.59521871805
-2.4008045197 -0.20719972253 -0.34139552712
-2.3598122597 -0.21368309855 -0.51510369778
-2.2408056259 -0.45260977745 -0.37248808146
-2.18603158 -0.48964861035 -0.66489881277
-2.23828578 -0.41794085503 -0.87409394979
-2.8927247524 0.45790019631 -0.55867624283
-3.2490725517 0.52449464798 -0.21977803111
-2.6766598225 0.31631651521 -0.94761168957
-2.4615192413 -0.071342617273 -0.78101634979
-2.4025115967 -0.24785323441 -1.1326481104
-2.6063694954 0.13808056712 -1.3895595074
-3.1502120495 1.2524608374 -0.46590512991
-2.8196372986 1.0683333874 -0.74568271637
-2.6061389446 0.88706219196 -1.1319313049
-2.5336596966 0.78315156698 -1.5711655617
-2.7763938904 1.7130399942 -0.51326298714
-2.5190999508 1.4289445877 -0.78314816952
-2.3216552734 1.2429362535 -1.1659548283
-2.20307374 1.1579123735 -1.6471954584
-2.3906729221 1.5569535494 -0.76668292284
-2.2497396469 1.7490625381 -0.69121152163
-2.4418251514 1.9979143143 -0.42722550035
-2.000395298 1.6953316927 -0.96788322926
-2.1978609562 1.4607486725 -1.0268820524
-1.7209005356 1.7661014795 -1.3319047689
-1.9594250917 1.4630328417 -1.4975856543
-1.9651231766 2.1684918404 -0.59721851349
-2.1671526432 2.4336647987 -0.22285947204
-2.6196248531 2.3174030781 -0.1276538074
-1.6310580969 2.4235842228 -0.87497025728
-1.656396389 2.8149523735 -0.55866849422
-2.4432704449 2.5350499153 0.15946343541
-1.9631611109 2.7060987949 -0.01820833236
-1.602604866 3.0353355408 -0.24419522285
-1.9935281277 2.7615702152 0.47840407491
-2.4906613827 2.6566202641 0.66001874208
-1.5083708763 3.1522731781 0.22317448258
-2.8687939644 2.6000890732 1.0036982298
-2.2398519516 2.7783215046 1.029797554
-2.5729517937 2.7243318558 1.3432695866
-2.0352864265 2.9796354771 1.2563918829
-2.3715276718 2.9293529987 1.5616734028
-1.867343545 3.333691597 1.5163583755
-2.228297472 3.2799568176 1.8631029129
-3.1936416626 2.2804069519 1.4901938438
-2.8300390244 2.4695155621 1.7536928654
-2.6486752033 2.6563556194 1.9876477718
-2.5175433159 2.9867811203 2.321480751
-3.4225327969 1.7999284267 1.7759085894
-2.906160593 2.3336954117 1.916723609
-3.1052339077 1.91474998 2.180659771
-2.733099699 2.529225111 2.3681607246
-2.9690446854 2.0394449234 2.6408658028
-3.3127863407 1.2518168688 2.2303984165
-3.1984884739 1.7060849667 2.1801598072
-3.5763123035 1.260178566 1.794645071
-3.1032571793 1.7052314281 2.5421845913
-3.2217853069 1.1036369801 2.5843462944
-3.1057882309 1.8016736507 3.0049982071
-3.2470402718 1.2778601646 3.0461726189
-3.4068698883 0.59003633261 1.8224139214
-3.1770470142 0.67090708017 2.230193615
-3.0987689495 0.68318510056 2.5549607277
-3.1093633175 0.61467921734 2.9775879383
-3.1221725941 0.3750616014 2.0669107437
-3.0825035572 0.062433741987 1.8827883005
-2.9558360577 0.10151356459 2.1874690056
-3.0254297256 0.49090182781 2.5069224834
-2.8999199867 0.29454028606 2.6225924492
-2.963135004 0.36432206631 3.1091537476
-2.8524346352 -0.35260242224 2.1375100613
-2.4617676735 -0.37216663361 2.7360811234
-2.7563774586 -0.072401896119 2.4686598778
-2.5351712704 -0.68051028252 2.410895586
-2.7903294563 0.13277931511 2.7379295826
-2.5346000195 -0.11265335232 2.9794614315
-2.6457676888 0.048196174204 3.39803195
-2.1756732464 -0.75563836098 2.8914604187
-2.1440927982 -1.0506483316 2.7681486607
-2.0425922871 -1.3552491665 2.686671257
-2.4401555061 -1.1344028711 2.2225949764
-1.8909116983 -1.6386218071 2.355083704
-2.2766809464 -1.4429892302 1.874600172
-1.9318275452 -1.6021113396 3.1269333363
-1.7302755117 -1.9597899914 2.772639513
-1.9496302605 -1.673568964 1.5881445408
-1.5689092875 -1.8693981171 2.0913360119
-1.3881036043 -2.2082929611 2.4540047646
-1.2960312366 -1.8454908133 1.6684997082
-1.5833948851 -1.7248176336 1.25837183
-0.99267363548 -2.2627949715 2.1070029736
-1.3054325581 -1.7882106304 0.87803930044
-1.7055038214 -1.6668919325 0.59444051981
-2.0016434193 -1.6025115252 0.98473149538
-1.1602817774 -1.9171886444 0.58796977997
-1.5447643995 -1.8001215458 0.29826557636
-0.95263457298 -2.2408919334 0.28142786026
-1.3862382174 -2.1203527451 -0.051030948758
-2.3702220917 -1.2133703232 0.58148616552
-2.0494971275 -1.3088730574 0.23344266415
-1.8996981382 -1.4247050285 -0.080232180655
-1.793389082 -1.6950935125 -0.46507886052
-2.4599215984 -0.8252491951 0.3256072402
-2.1471819878 -0.93641626835 0.0028439443558
-2.0190796852 -1.0023196936 -0.3147815764
-1.9427741766 -1.2048021555 -0.72475022078
-2.2461619377 -0.65985399485 -0.061048999429
-2.3927674294 -0.39115250111 -0.055234745145
-2.1326136589 -0.64502549171 -0.38769233227
-2.0547482967 -0.77198284864 -0.80059295893
-2.0156903267 -0.86542093754 -1.2266750336
-1.8810749054 -1.4481837749 -1.1337385178
-2.3086903095 -0.43576416373 -1.3983181715
-2.1429364681 -0.62143361568 -1.0386670828
-1.8582577705 -0.86638492346 -1.7662742138
-2.1285247803 -0.50009512901 -1.9078143835
-1.679795146 -1.3612383604 -1.7337510586
-1.9822285175 -0.25436338782 -2.3138587475
-1.748241663 -0.8052521944 -2.0370900631
-1.6615916491 -0.41936653852 -2.4406409264
-1.903173089 0.1849565804 -2.5189671516
-1.5172740221 0.12195141613 -2.7281572819
-1.996001482 0.6439242959 -2.441432476
-1.4952505827 0.33781963587 -2.7771656513
-1.6185284853 0.79862999916 -2.6624691486
-1.3220584393 0.98220264912 -3.0447571278
-1.2125811577 0.38240671158 -3.1375212669
-2.0180599689 1.0335639715 -2.1730802059
-1.6059744358 1.214930892 -2.4245855808
-1.3160721064 1.5227053165 -2.7207114697
-1.6753122807 1.4219363928 -2.1301674843
-1.1307309866 2.0285279751 -2.2090556622
-1.4773931503 1.81965518 -1.7487661839
-1.3718924522 2.1262125969 -1.4103921652
-1.6452128887 2.0313975811 -1.086433053
-1.3146811724 2.5907030106 -1.1751881838
-0.82522195578 2.9958119392 -1.2846857309
-1.0799350739 2.2474713326 -1.7082865238
-0.60546714067 2.6413180828 -1.8066868782
-0.55205214024 2.5223689079 -2.3215484619
-0.42369499803 2.9305052757 -1.578499794
-0.75297254324 3.3410019875 -0.99531251192
0.29651045799 3.0276927948 -1.3048005104
0.47004657984 3.1446347237 -0.89649057388
0.039366550744 3.5591754913 -0.60337090492
-0.10758708417 2.9674384594 -2.1131494045
0.32490503788 2.9942145348 -1.8327159882
0.0066797882318 3.119399786 -2.5690808296
0.45638003945 3.1594057083 -2.4159781933
0.82731568813 2.9159963131 -0.6346039772
0.59550559521 2.838561058 -1.2979593277
1.0006300211 2.5532333851 -1.1540507078
0.87955951691 2.6920661926 -1.8739776611
1.3060334921 2.4192824364 -1.5681059361
1.0590621233 2.5557801723 -0.32556456327
1.2290691137 2.1950585842 -0.84828400612
1.5606738329 2.0105617046 -1.2233324051
0.98154181242 2.7630493641 0.20159898698
1.2696734667 2.1689167023 -0.095523960888
1.2057440281 2.3542218208 0.39511796832
1.5396608114 1.9160810709 0.0746768713
1.4760919809 2.1088616848 0.57450914383
0.91902774572 2.5200214386 0.75498598814
0.7285887599 2.8507740498 0.68917393684
1.2188340425 2.2092339993 1.002201438
0.816614151 2.4649648666 1.1074236631
0.43054434657 2.7977020741 1.2354669571
0.39588338137 3.0996077061 0.83770614862
0.83581680059 2.4401896 1.6879738569
0.43441987038 2.7075712681 1.7863298655
1.1325929165 2.4065992832 2.0991518497
0.74296492338 2.7018530369 2.2666559219
0.047771662474 3.4287188053 0.69458788633
0.11238866299 3.066439867 1.2448027134
-0.20140890777 3.3584780693 1.1059144735
0.073069438338 3.0125238895 1.6372464895
-0.29069080949 3.3888959885 1.4775637388
-0.031638965011 3.2617805004 2.0714278221
-0.39491844177 3.6032779217 1.946477294
-0.42441314459 3.593423605 0.48358282447
-0.73414605856 3.4943916798 0.91144537926
-0.70463126898 3.5327699184 1.3270869255
-0.99061912298 3.747171402 1.6921280622
-1.0770562887 3.4781241417 0.32167866826
-1.1651834249 3.3863925934 0.80810004473
-1.2504234314 3.4390892982 1.1696679592
-1.4702589512 3.6353363991 1.5883545876
-1.5079709291 3.1167414188 0.71770966053
-1.6114929914 3.1718966961 1.1031080484
-0.05782463029 3.4076719284 2.5171539783
0.30052530766 2.9211716652 2.2145683765
0.28547984362 3.0590331554 2.6512544155
0.73083561659 2.8537678719 2.7698309422
-0.16574190557 3.4318702221 2.9645719528
0.18378198147 3.0774054527 3.0972993374
0.62452030182 2.8701548576 3.274971962
-0.080931819975 3.0346946716 3.4698209763
-0.41676956415 3.3827781677 3.3389291763
0.31277650595 2.8280179501 3.6901762486
-0.67894464731 3.1942090988 3.6516568661
-0.3130351007 2.8420577049 3.776267767
-0.017559278756 2.6256341934 4.0402331352
-1.1113735437 2.769942522 4.0304851532
-0.60587358475 2.8025081158 3.8945715427
-1.1304877996 3.1920456886 3.7545480728
-1.6023187637 2.8796253204 3.869781971
-1.5909597874 3.1789476871 3.6908950806
-1.9891825914 3.1247518063 3.5134887695
-2.0553963184 2.8322246075 3.6550867558
-2.2931954861 3.0869853497 3.1936120987
-2.3997278214 2.7897188663 3.2919895649
-2.4721810818 3.0465369225 2.7849626541
-2.6096577644 2.7331035137 2.82564044
-0.80571937561 2.3791167736 4.2724575996
-0.25145471096 2.1761748791 4.4352254868
-0.96395504475 1.9553310871 4.4536542892
-0.42786377668 1.6214622259 4.6396126747
-1.3425991535 2.2417323589 4.350605011
-1.4385988712 1.6121237278 4.6052060127
-1.7184182405 1.9773017168 4.4906125069
-1.733637929 2.5229492188 4.1065311432
-2.0439345837 2.2301335335 4.2726049423
-2.20084548 2.5421829224 3.8284873962
[...]
CELL_DATA 1772
SCALARS cell_data_0 double
LOOKUP_TABLE default
3.91868998394e-09
1.12896352491e-08
1.83262583883e-08
1.65641430417e-08
8.32631513547e-09
1.67854719086e-08
5.55772094222e-09
2.24101743033e-08
2.83381955194e-08
2.2304083859e-08
3.66666503835e-08
9.68197636406e-09
1.38223789276e-08
9.40278543886e-09
1.68389079823e-08
2.99694574443e-08
1.01787903567e-08
1.07390063212e-08
1.27949928496e-08
3.72062051462e-08
5.45971990653e-08
5.72995507432e-08
4.56192129769e-08
3.94434051506e-08
1.6503537413e-08
7.15915093189e-09
1.40399844713e-08
2.26247232041e-08
5.23551571289e-08
6.8961867569e-08
1.59945569299e-08
3.93895026121e-08
1.53283691009e-09
5.57178822515e-08
4.89453868108e-08
4.12910734636e-08
3.12840662389e-09
1.61925443445e-08
1.66717143216e-08
1.13898039072e-08
2.51380160961e-09
1.5948602227e-09
1.77958447358e-08
1.91522280589e-08
2.90132331792e-09
1.90606090029e-08
3.60027458075e-09
4.4073657174e-11
3.20190178126e-09
5.05562076492e-09
1.38577689006e-08
9.12145563629e-09
5.42501325699e-09
1.64783999208e-08
1.12624668989e-08
1.39544232345e-08
8.24543151512e-09
4.32534125086e-09
5.45652063168e-10
1.02065139276e-08
6.61279306738e-09
7.90095253625e-09
2.19526889301e-09
1.0425003367e-08
6.69787033359e-09
1.05135302848e-08
6.67935916036e-09
9.34115154282e-09
1.27269488458e-08
1.45222580807e-09
4.56237511407e-09
4.07298088544e-09
1.3294500143e-08
8.05854556557e-09
3.06305786692e-09
8.01502716506e-09
1.68257259082e-08
2.19414305058e-08
1.01032455284e-08
1.06936538189e-10
3.53146522847e-09
2.36439782237e-09
5.86805236065e-10
7.74349368594e-09
1.97552962698e-09
6.53189033733e-09
8.0020322831e-09
1.02595727708e-08
1.94915525377e-09
2.26626261265e-09
1.6745894053e-08
1.44696660049e-08
2.44550125277e-09
7.0192351473e-09
3.88260365212e-08
1.83220651532e-08
1.80985452848e-07
1.12420732333e-07
5.18505189455e-09
3.64247911993e-07
3.70290538838e-07
4.37756844852e-09
2.61306474398e-08
1.14710742652e-07
5.01807602463e-08
1.79213620656e-08
3.77414569379e-08
4.36441411481e-08
1.20564585812e-07
2.03016173125e-08
6.04507739562e-08
4.06160834508e-08
2.00416620881e-09
5.88771328807e-08
3.62966142836e-10
2.8239352888e-08
1.15607692939e-08
3.05243207576e-08
2.20395485241e-08
1.72104406661e-08
1.96149383189e-08
4.84455248263e-08
2.41100512827e-08
3.29715609615e-08
1.86821465106e-08
4.64319816e-08
2.44820591409e-08
1.07934058938e-08
8.89926903513e-09
7.22900609451e-09
1.49022426902e-08
6.11657176688e-09
9.06494347688e-09
2.47768905753e-08
9.34301542917e-08
1.53593222274e-08
2.69527874481e-08
7.31410625035e-08
5.72118133251e-09
1.75888500596e-08
7.33794401336e-08
3.49324137424e-08
2.04400464478e-09
3.2702805392e-09
7.21267372825e-08
8.05844457488e-09
4.53392579316e-08
7.63732095521e-09
2.67975467498e-08
8.65446580267e-08
8.85097984207e-08
2.33907165984e-08
6.21941312937e-08
2.51477625597e-08
2.85212278497e-08
6.72344672853e-08
6.9225482043e-09
2.54956564657e-08
5.52289223395e-08
3.18184215202e-08
9.89030059384e-09
1.09506685361e-07
1.23796681209e-07
1.75610049823e-07
2.97477332068e-07
1.18229743426e-07
5.81734619585e-08
3.81110782349e-08
3.20827523459e-07
1.36324652186e-07
7.83268260763e-08
2.56094287959e-08
1.72513033562e-08
2.23941544843e-07
7.49236232247e-08
5.84262933316e-08
1.40763087426e-07
9.5549853297e-08
2.00487933347e-08
5.01040163079e-08
5.38133830007e-08
3.24427614066e-08
9.69326432338e-09
9.13578161234e-09
2.08935574239e-09
5.26902239998e-09
1.50505690768e-08
6.18269046726e-09
4.58398988654e-09
7.55900511451e-09
1.24637125593e-09
2.91916288615e-08
4.33628885041e-08
5.97901898995e-09
4.72220421722e-09
1.96866365296e-08
1.02003564586e-08
5.62520807763e-09
1.39805519429e-08
2.8589500779e-09
1.0105600296e-09
9.84966798192e-10
1.69981427195e-09
1.83370505825e-09
9.46491232902e-10
4.00119898653e-10
4.38809559985e-10
4.42407613271e-09
1.50746947143e-09
3.01180184312e-09
3.37843814803e-09
7.88840871468e-09
6.22170316422e-09
2.12241835293e-09
8.36129267597e-09
6.81610478824e-09
2.67925262292e-09
1.51167117336e-09
1.93450846919e-08
2.03815676517e-08
2.41787014729e-08
4.43337449045e-09
1.84456244826e-08
3.43922138213e-08
4.05376374096e-08
1.03221198033e-08
4.5066518412e-09
1.30623436418e-07
1.00554939207e-08
4.71421593614e-09
6.40645747248e-09
4.51156430198e-09
4.70310441677e-08
6.14195298846e-10
4.48978064272e-09
2.15296842686e-10
1.21514682057e-09
1.88333688331e-09
2.87577469932e-09
2.94196144734e-09
3.1008624388e-09
4.11284983477e-11
4.10354611777e-09
5.52945925515e-09
2.46216218501e-09
1.82950313982e-08
3.21518114234e-08
1.17319782555e-09
1.9741858435e-08
5.05442557614e-09
6.5938642589e-10
1.1595303483e-09
1.26404439407e-09
9.72011923408e-10
2.31222437466e-09
2.66338295933e-10
3.56939823471e-09
1.16125353519e-09
2.11248363455e-09
2.29252489233e-09
1.94650736027e-09
6.64968681526e-09
2.52542567135e-09
2.98657344791e-08
1.53136492599e-08
4.34595544479e-09
7.13496903453e-09
2.49841360152e-09
7.15178609165e-10
1.68787998719e-09
6.54332281258e-09
7.05475970676e-09
3.55191483054e-09
1.54542953497e-08
4.50269180604e-09
2.37626763982e-08
6.14448825077e-09
3.9046403177e-09
1.33918273186e-08
1.35464959957e-08
1.76131408276e-08
7.38356517813e-08
2.13496447465e-08
3.08825164877e-08
2.2048358557e-08
2.63577757478e-08
4.58044062581e-08
4.03676623045e-08
4.36428241907e-08
3.7252927603e-08
3.93397396463e-08
1.82016798876e-07
2.58458774229e-07
1.41050644053e-07
1.81325175482e-07
2.2417346747e-08
1.06146799358e-08
3.18552505367e-09
1.24121942859e-08
2.48753312018e-08
8.07926379836e-09
1.94098461449e-08
1.61987749114e-08
2.08562510093e-08
2.39061362833e-09
6.53526540355e-09
5.99976799626e-08
2.21961441834e-08
4.26318138901e-08
7.6300790343e-08
1.74560704972e-07
3.17852436309e-08
1.0278626391e-07
1.22063530027e-07
6.42834085239e-07
1.75397040759e-07
2.18657947652e-08
2.61170632027e-07
2.4026016033e-09
2.28869746817e-07
2.90384706939e-07
8.58212173219e-08
7.03433866531e-08
2.0406274575e-07
6.60927138107e-08
7.81624904804e-08
3.95926997382e-08
3.0688164812e-08
1.23531095704e-07
1.17704465429e-08
7.13653326677e-09
1.17149328238e-08
6.5575026919e-09
5.68072349871e-08
4.04231201916e-08
2.6361870552e-08
3.20200057965e-08
6.94411209091e-08
3.69448893198e-08
1.45134160124e-07
1.01221298692e-07
3.09196472394e-08
3.94466821564e-08
4.78255022564e-08
1.03966679712e-08
2.81310243981e-08
1.85617142485e-08
5.53232271762e-08
9.5730898667e-08
4.24730280252e-08
1.48806455282e-08
1.50427464567e-08
1.24812067103e-08
3.54502798555e-08
2.85317294825e-08
5.57907560586e-08
8.48528575508e-09
2.8411487929e-09
9.03629525929e-09
2.99092737831e-08
2.29620668727e-08
2.76237141632e-08
7.41352723809e-08
5.64462209721e-08
3.6188721888e-08
3.87116474547e-07
1.36531072204e-07
3.99401479839e-08
8.48323848371e-08
4.95764195169e-09
1.18473127207e-08
1.40912547145e-08
4.08935731094e-08
1.39648664141e-08
1.08632504756e-08
7.77215971868e-08
3.97182508245e-08
1.39482097141e-08
1.92948212152e-09
1.02746717511e-08
6.55732919307e-08
1.75576243671e-07
8.04442425683e-08
7.09273607841e-08
5.19110366986e-08
1.05678572005e-07
5.34895587091e-08
4.50402886432e-09
7.28005134298e-08
2.73060921586e-08
1.12636316538e-07
2.27422227928e-08
1.01802415225e-07
9.37149733613e-09
3.91542159164e-08
7.43556232165e-08
7.08082618587e-08
3.89258815308e-08
3.04765686189e-08
1.56241120868e-08
1.86262919696e-08
7.20507428848e-09
5.34094316744e-08
3.03759856919e-08
3.50058218907e-08
1.70941470466e-07
2.57803500192e-09
9.99735317172e-08
4.56840837533e-08
1.38436721443e-07
7.69521746258e-08
3.59978461448e-08
1.05303287976e-08
3.16837324176e-08
1.06465516534e-08
2.01643083569e-08
9.36281989912e-09
1.65612690114e-08
2.20765066112e-08
2.28323753298e-08
2.29420297682e-09
2.8668871807e-09
1.93055288412e-08
6.74458202786e-08
8.11301962058e-08
2.3597947294e-07
1.05256310737e-08
3.39038133298e-07
1.15743422626e-07
1.1603191107e-06
2.15756651471e-07
3.16905538498e-07
1.64648264532e-08
4.94593436385e-08
1.17045279554e-07
7.93006678134e-08
5.42768866088e-09
3.81426099056e-07
2.80002591994e-07
3.18059596462e-07
4.47438252991e-08
3.19614067938e-08
3.01983728796e-08
1.09034529699e-07
7.93929621752e-08
2.87976420541e-08
1.23178721195e-07
3.13540403205e-09
1.57529409045e-08
1.68534686974e-08
1.57676661591e-09
5.1055796084e-09
7.52302935982e-09
4.56714032115e-08
3.10903266731e-09
1.68354661196e-08
2.36538399267e-08
2.24060600201e-08
1.72436966733e-08
6.82289649079e-09
1.43351128568e-08
5.40831571516e-09
6.58319728879e-10
1.06326368807e-08
1.14052915861e-07
6.53273587818e-10
1.66573146697e-07
3.14233520299e-08
1.55204858902e-07
1.14522575894e-07
1.39384049083e-08
1.36712032306e-08
1.42550216953e-07
2.32002488148e-08
8.26663190318e-09
1.31365694699e-07
3.33076901045e-07
1.28772129713e-07
7.09572988883e-08
2.71362482615e-07
2.75883244993e-07
1.58445313127e-07
3.51671919913e-07
1.07317622507e-08
4.29145306676e-08
1.27515725151e-09
1.39145238042e-08
2.41034738651e-08
6.17528336343e-09
1.17230270483e-08
2.37207201135e-08
1.02657014765e-08
5.57202030359e-09
7.64898364736e-09
7.83416295137e-09
1.43737127394e-08
8.12766432601e-09
2.48285777192e-08
8.43914756862e-08
2.24130746365e-08
9.6332292787e-09
1.38203106762e-08
5.48311681882e-09
2.12174160054e-09
5.90708775954e-09
2.42472464352e-08
5.09216589753e-08
1.20208960448e-08
6.10713482573e-08
7.14697824904e-08
2.43445050056e-08
1.79625692804e-08
2.60423786542e-09
9.52952180052e-08
6.43054957207e-08
8.26129921873e-08
1.99467763174e-07
4.62893040921e-08
6.26094743135e-09
2.14770491149e-08
3.17765770477e-07
1.93767622831e-07
7.39721896698e-08
8.69687925558e-08
4.58360908319e-08
2.84309400197e-08
2.93715430116e-07
1.83885642432e-07
2.36713767804e-08
2.81370814901e-07
3.34034684381e-08
1.51455555872e-08
7.61280726461e-08
3.08348215855e-08
1.02738265234e-07
1.71705529785e-08
1.94845175375e-08
3.87922682999e-08
4.12101460092e-08
1.89093542624e-08
4.78180447246e-09
1.24857984711e-08
2.2305974109e-08
2.01353868226e-08
3.00334895514e-09
3.70584743134e-09
2.77524236225e-09
1.16252989473e-08
1.06728739782e-08
5.59549363929e-09
2.07720834796e-09
2.5089723381e-08
1.62143104394e-08
1.97206148884e-08
1.02189635888e-08
5.4471235347e-09
1.17038798434e-08
3.41697051277e-09
5.21204686931e-09
2.41089204897e-08
9.67164007025e-09
8.03937127155e-09
5.12484603255e-09
1.78381676848e-08
1.55784017762e-08
3.76497098842e-09
1.71391210281e-08
3.91524301644e-08
1.10619826481e-08
3.84594280025e-08
1.29364628012e-08
3.29317607299e-10
1.51834166383e-08
1.4900513947e-08
3.442893426e-09
1.31122690888e-08
3.96805443009e-09
2.42110247748e-09
1.14294991076e-08
1.27736076929e-09
1.26077124578e-09
3.6425192641e-10
1.85628993325e-09
9.19978144576e-09
1.77985118553e-09
1.78259240826e-09
4.13868869017e-09
8.6144329991e-09
8.63178699251e-09
5.89043040489e-09
8.03400621511e-09
1.13859055125e-08
3.6253983821e-09
7.12523409846e-09
7.80765205914e-09
1.5740437854e-08
2.27939594019e-08
1.03571586694e-08
2.63423236825e-07
1.77631332862e-07
3.95815261526e-07
6.43422327427e-09
1.15226163374e-08
9.45293996051e-09
1.59016241854e-09
4.451211198e-08
3.80516496456e-08
3.16084805354e-08
3.00100455496e-08
8.50257210472e-09
6.94779817822e-09
8.51872948475e-09
6.17709600666e-09
5.0775149417e-08
6.00668501067e-08
2.4832226088e-08
1.45723541343e-08
2.55372543181e-08
1.3017098389e-08
8.42359066619e-08
3.82259866499e-08
2.80207705734e-09
1.20562563979e-07
6.57257316248e-08
4.95670833303e-08
2.09111489255e-07
1.91134171178e-07
5.56878149732e-08
3.63779797657e-08
1.81749246057e-07
3.85487186557e-07
1.17073883603e-07
1.89790930324e-07
1.17816327742e-07
1.11603514104e-08
1.09892561058e-08
8.50944627538e-08
9.22110617209e-08
2.56060550218e-08
2.49025717409e-08
7.57379793374e-09
7.52794377594e-09
4.128938945e-08
5.61628898149e-09
3.2962383262e-09
2.61268967993e-08
6.94615510847e-10
3.86589080367e-09
1.0821036481e-08
1.0555585891e-08
4.41225334972e-09
6.63588227049e-09
2.91845992227e-09
3.56876537284e-09
1.00355040791e-08
3.59087235376e-09
1.32143480994e-08
8.94992675824e-10
4.67219950079e-09
2.01680924562e-08
2.23080869541e-09
1.80726541139e-09
2.36952673429e-09
9.61200835463e-09
6.2615030471e-09
2.05052882819e-09
2.986097407e-09
4.52151790816e-09
3.61804850883e-08
7.09384028041e-08
6.64673164175e-08
1.96246062523e-08
4.3805645212e-08
8.17847722247e-08
3.06636395396e-08
2.30358293006e-08
1.81232014617e-09
3.80783272657e-08
7.23520329225e-09
5.15856852618e-09
3.85697112117e-09
3.27121994112e-08
6.16897269255e-08
1.39596213782e-07
1.11948349484e-07
4.66946264648e-08
1.4955121019e-08
6.08014238425e-08
1.69568860351e-08
6.23691217748e-08
8.29096549597e-08
1.12822954144e-07
1.47098637032e-08
1.34523387489e-08
2.96998111252e-08
6.05495536715e-08
2.60958515034e-08
8.11281180345e-09
8.63168921065e-09
8.71821742094e-08
6.08465585884e-08
2.87463172413e-07
1.39911917972e-08
9.91676556485e-08
1.66391967394e-08
5.60835204134e-08
8.81593314979e-09
1.21779490497e-08
3.01545542797e-08
7.54304785209e-08
2.38733584624e-07
1.73252907504e-08
2.2074222119e-08
6.75678519689e-09
7.67720039725e-08
9.71265636639e-09
1.08510818718e-08
6.32697379803e-09
2.11627833842e-08
3.82817122232e-09
4.11270520713e-09
5.56753786381e-09
1.86974835375e-10
1.50168761413e-09
2.65197400249e-09
6.68230740951e-10
6.2898105943e-10
2.51566283281e-09
1.54911432997e-11
1.10405529497e-09
1.78271282627e-09
9.45014524669e-10
5.77912496435e-10
8.49764694624e-10
7.19711973287e-10
6.65550436793e-09
1.26744274539e-09
2.29595579666e-09
2.78699279923e-09
1.96107714612e-09
2.74707441619e-09
7.80145918691e-10
1.36997621211e-09
1.90374876119e-09
2.10604665848e-09
2.36056473494e-09
7.66064921979e-10
1.87509502848e-09
4.88443435445e-09
4.51615547231e-09
4.8607074089e-10
1.22137764915e-09
1.03997174046e-08
1.97478729821e-09
3.52652374347e-09
4.90635413107e-09
7.0812207588e-09
2.13508218209e-09
1.27849422286e-08
4.67844993579e-09
2.26693856243e-09
6.06360048929e-09
3.23482047965e-09
1.4959151625e-08
4.21744856934e-09
1.89195008699e-08
3.96361578528e-09
2.81049322628e-09
1.44282173546e-08
1.18940254781e-08
2.25934829129e-08
6.36890996154e-09
1.43444496723e-08
7.65276007888e-09
7.95855696728e-09
2.29637708403e-09
7.99232251672e-10
1.47708869793e-08
1.4759514e-08
2.91913787459e-10
9.47542383368e-09
9.73189561833e-11
4.23545622612e-09
1.07290315405e-08
8.38221447207e-09
1.93171867034e-08
3.07067800703e-08
1.43558820528e-08
1.18261142673e-09
2.5520977509e-08
1.33331824415e-08
1.25640560167e-08
2.48158794732e-10
1.137177058e-08
2.14224057151e-08
3.57814839796e-09
8.41916753964e-09
1.83325767124e-08
2.514018401e-09
2.96429598556e-08
1.67965259536e-08
4.6323810451e-09
7.35396837344e-09
3.92462943786e-09
4.54969090205e-08
3.18854084092e-08
5.77478126996e-08
4.60771426259e-09
7.34775119662e-09
1.36643718504e-08
3.39769005948e-08
9.53235186947e-08
2.59820166919e-08
6.8381320315e-08
4.52778565601e-08
8.91487377994e-08
2.46429170575e-08
2.45004403432e-08
3.61941962603e-08
2.2821049391e-08
5.00215988982e-08
1.2193397865e-08
3.55039152081e-09
4.44119077971e-10
8.16590905258e-09
6.8228427781e-09
1.6816247658e-09
5.37674483419e-09
4.22002645376e-09
2.82311704996e-09
2.63012659308e-10
7.90281733718e-10
3.24675068939e-09
2.24667070229e-09
2.79357778873e-09
8.47530571987e-09
2.01982567759e-09
7.90736892801e-09
1.0824557829e-08
1.6354092753e-08
3.47560044683e-09
6.09823436259e-10
3.01453541248e-09
1.96311469111e-09
6.26646405944e-09
2.42696095652e-10
1.3518438595e-08
1.02286198752e-09
1.52485282543e-08
2.96175868229e-08
1.64012262546e-08
9.70492182374e-09
3.89679513501e-09
8.73276688611e-10
2.04148924012e-07
2.75113133367e-08
1.49425204726e-08
7.19879420455e-08
2.63216744245e-09
2.8586042151e-08
4.65870382117e-09
1.49307370297e-08
6.80586430864e-09
1.11397481461e-08
1.05024388445e-09
3.57976612348e-09
7.92425149712e-09
1.57620908571e-09
2.92750882942e-09
9.83796233743e-12
2.35347512769e-09
9.60032827929e-10
2.52114011796e-09
2.51207517998e-09
1.8496020993e-09
3.39897813209e-10
5.52764776397e-10
3.42280950677e-11
1.63182183871e-09
6.94643529532e-10
8.74071848288e-10
1.47841532756e-09
1.21846599212e-09
5.78967078428e-09
7.53795505554e-10
1.00406653793e-08
5.16125152341e-09
3.95994169257e-09
3.00474446135e-09
4.11328038111e-09
2.3648166186e-09
2.83043250786e-09
4.70402932439e-10
2.89165552922e-09
3.45321972212e-09
2.48820423188e-09
3.58682637472e-09
5.68263878175e-09
2.71060558644e-09
8.62711488363e-09
1.11505233301e-09
1.69644121954e-08
6.59827887625e-09
9.2608002412e-10
1.08996743511e-08
3.86745292772e-09
5.67073518176e-09
5.86077488682e-09
9.50709494229e-09
1.20951342225e-08
1.00274688339e-08
2.54053340168e-09
2.60262018568e-09
9.50918901313e-10
3.73391686525e-09
2.4462676338e-09
5.6174533541e-10
1.73648653126e-09
3.14400388307e-09
5.46958146343e-09
7.72563030957e-09
8.72248549767e-09
1.31098644933e-08
3.78375475585e-10
2.61294165356e-09
5.40385763516e-10
3.30901696387e-09
5.84070684118e-10
4.68319548401e-11
2.10502789732e-09
1.75792577899e-09
2.44798924012e-10
4.60115487255e-11
1.10946375104e-10
2.91516819484e-09
2.1895435274e-09
1.74993224303e-09
3.43366187799e-09
2.04226220365e-09
2.05070808505e-09
3.29321443404e-09
4.11187316825e-10
1.12220222166e-09
3.96550417643e-09
3.5668653137e-09
1.26243714469e-08
1.4956204324e-08
3.01588369578e-09
1.7841973384e-08
2.65305100877e-08
7.58964981527e-10
4.10650812274e-08
7.84604653832e-09
3.89369700667e-09
4.47930732956e-09
6.82009256067e-09
2.99834779158e-09
4.93879904595e-09
1.9856351e-09
1.60926125966e-09
2.74004031062e-09
2.31020595167e-09
1.68092463817e-09
3.08991667532e-09
2.07172853432e-09
2.60353042968e-10
6.27703313785e-09
1.6234854137e-09
2.2514421315e-09
7.36788538558e-09
2.28314505535e-09
1.91790957085e-08
4.47634741637e-08
6.13256297867e-09
2.92763830037e-07
6.35803066267e-08
6.64349424883e-08
1.36202660923e-08
1.15449761645e-07
3.18517966401e-08
3.74985278149e-07
2.25201111756e-07
4.42201298058e-08
4.71869981149e-07
3.66167601508e-07
2.05375815337e-07
3.04624006502e-07
2.4712243391e-08
6.20830155004e-08
3.6225771424e-09
1.88822709007e-08
6.975508612e-09
6.30194020874e-08
3.25598074674e-08
1.3137498915e-07
1.22144462995e-07
8.84581362842e-08
2.66910279833e-07
1.64900520182e-07
1.91330924365e-07
1.3084330981e-07
9.93433554818e-08
8.86105762299e-08
1.25076026118e-08
1.52351766999e-09
7.18334388038e-09
3.27916324926e-09
2.70273349256e-09
3.4946084747e-08
2.58130198417e-08
5.30201790062e-08
6.1535085212e-08
1.77605273365e-08
7.13698180928e-08
2.48165108447e-08
4.42467433851e-08
2.18759347797e-08
2.51646270121e-08
3.50806302456e-10
1.21603213162e-09
5.1645026734e-09
1.26024848291e-08
6.00355962233e-09
1.08316421543e-08
1.17183713496e-08
1.28887184177e-08
7.91077616313e-09
1.09671886429e-08
3.78160613041e-09
7.20941194779e-09
3.03425351952e-08
9.28998312169e-09
5.5563634511e-09
3.76188438955e-09
4.17519315284e-09
5.34777022509e-10
1.92142646645e-07
8.09328083506e-09
1.75301465688e-07
3.5239991692e-08
1.00029048065e-07
5.4455754664e-09
4.62132834128e-08
2.16604762739e-08
3.49385691074e-08
9.40682253671e-10
2.74500781488e-08
4.35635810127e-08
5.53579877916e-08
8.57124927853e-08
6.85499716252e-08
6.81243779908e-08
8.55644675644e-08
3.14280626445e-07
6.20160314624e-08
1.51571687403e-07
3.74937999488e-07
3.87300270926e-07
5.64023770616e-07
2.9547838264e-07
2.35155841748e-07
1.14704282151e-07
4.8908265336e-08
3.70419399474e-08
1.37698560795e-08
1.3839631845e-08
6.27747669001e-09
8.21237301081e-09
8.86116602112e-09
4.81802578551e-09
2.51296451193e-08
2.59262265973e-08
5.31168124914e-08
3.91374307938e-08
4.49735902718e-09
5.82453873558e-08
1.0316942635e-07
1.24184671853e-07
1.38977356704e-08
1.04889485187e-07
5.8756059734e-08
3.48217561665e-09
7.76897015304e-09
2.92069586135e-08
1.93050572568e-09
9.48468804623e-09
8.45462705377e-10
2.35532864438e-09
2.27299488756e-09
4.98133557379e-09
7.7317794738e-09
1.66951277047e-10
4.4562370442e-09
1.94143254075e-09
3.59460014834e-09
1.48655315595e-09
4.89647668298e-09
1.10748439953e-09
3.42910922162e-09
4.43207724303e-09
2.72897453509e-09
3.67759759282e-09
1.24123881028e-10
4.27329801626e-10
7.57257272739e-10
2.67350405226e-09
1.82230890495e-09
2.07407728754e-09
2.12752769454e-09
3.21130028241e-09
3.58017906363e-09
2.92744215302e-09
3.44090530554e-09
1.45350928547e-09