# vtk DataFile Version 3.0
File Name: Molecule/arg/arg_4.0-3.vtk
ASCII
DATASET UNSTRUCTURED_GRID
FIELD FieldData 1
TIME 1 1 double
0.0
POINTS 720 double
-3.3924496174 0.31189200282 1.6172722578
-3.4453213215 0.10395015031 1.1439529657
-3.1000893116 0.070292890072 1.8292599916
-3.0510499477 -0.54125869274 1.3723738194
-3.2492189407 -0.04954008013 0.50077801943
-2.8497927189 -0.69445645809 0.73847109079
-2.8348333836 -0.13707914948 0.15751415491
-2.6327798367 -0.46826249361 0.28741782904
-2.623695612 0.058223664761 -0.4498077035
-2.5160617828 -0.1555788368 -0.16902993619
-2.9932713509 0.067525833845 0.032765716314
-2.3777348995 -0.19400216639 -0.48383104801
-2.3265202045 -0.4053208828 -0.18462856114
-2.2195973396 -0.44386044145 -0.9136928916
-2.2499790192 -0.37898206711 -0.69109177589
-2.42105937 -0.16498723626 -0.99894237518
-3.2220346928 0.51554280519 -0.25905388594
-2.7289693356 0.36679938436 -0.82241606712
-2.6087191105 0.13976089656 -1.3854892254
-2.7410337925 1.0047528744 -0.85492396355
-3.1576781273 1.2758425474 -0.45286369324
-2.5492610931 0.80847406387 -1.412507534
-2.7891695499 1.713357687 -0.50234729052
-2.3540394306 1.2941612005 -1.0591188669
-2.3991525173 1.5561856031 -0.75801128149
-2.2091245651 1.1540486813 -1.6379542351
-2.5883493423 1.9703845978 -0.42335090041
-1.9626020193 1.7518366575 -0.91073840857
-1.9929329157 2.1512176991 -0.58538389206
-1.9608643055 1.4651501179 -1.4941468239
-1.7135204077 1.7753322124 -1.3311858177
-2.0184276104 2.6024565697 -0.14939400554
-2.6462836266 2.429084301 0.050930384547
-1.6068514585 2.9492838383 -0.4184127152
-1.6200833321 2.4602389336 -0.84238296747
-1.9819977283 2.7585446835 0.44639545679
-2.5111358166 2.6445195675 0.66455644369
-1.5067286491 3.1527242661 0.22082948685
-2.7613554001 2.627648592 1.1384476423
-2.1388030052 2.8779428005 1.1814012527
-2.5418171883 2.786138773 1.5755566359
-1.8552336693 3.3282761574 1.4754186869
-2.2262423038 3.2785987854 1.84476161
-3.1913878918 2.2800724506 1.5015188456
-2.7475366592 2.5412480831 1.8652281761
-2.5207796097 2.98305583 2.3229196072
-2.901473999 2.3377788067 1.9313002825
-3.0780768394 2.0158116817 2.1240580082
-3.4178965092 1.8001734018 1.7944765091
-2.7281937599 2.5339972973 2.3791055679
-2.9640238285 2.0486776829 2.6305818558
-3.573035717 1.2534132004 1.8016065359
-3.2694160938 1.256526947 2.3697299957
-3.1279261112 1.7205533981 2.4006586075
-3.1030535698 1.8036645651 3.0148072243
-3.2535207272 1.2734475136 3.0186431408
-3.4012014866 0.59337204695 1.8431373835
-3.1238107681 0.67478370667 2.4024198055
-3.1064026356 0.60472548008 2.98630476
-3.118550539 0.37708234787 2.078555584
-2.9476938248 0.07974126935 2.1827492714
-3.0216331482 0.48196303844 2.5091805458
-2.9021747112 0.30869540572 2.6382949352
-2.9614598751 0.35270357132 3.0912461281
-2.9870893955 -0.35430467129 1.8490250111
-2.8412969112 -0.36515671015 2.1515109539
-2.4788918495 -0.24741175771 2.8738019466
-2.7661287785 0.01483175531 2.5733480453
-2.5298323631 -0.67254400253 2.4404149055
-2.6272234917 0.014246249571 3.3938393593
-2.1855444908 -0.7461809516 2.8761386871
-2.1456418037 -1.0464960337 2.7676680088
-2.0420534611 -1.3548709154 2.6876511574
-2.4394142628 -1.1352831125 2.2248096466
-1.8915333748 -1.6379994154 2.3552012444
-2.2826952934 -1.4375531673 1.8645501137
-1.7195637226 -1.9722657204 2.7939651012
-1.93136096 -1.6044276953 3.1225385666
-1.945930481 -1.6754202843 1.5782129765
-1.5689054728 -1.8691682816 2.0909450054
-1.3905541897 -2.1968455315 2.4219317436
-1.2959442139 -1.8451031446 1.6656332016
-1.5691788197 -1.7328182459 1.2593737841
-0.99606108665 -2.2459602356 2.0586009026
-1.9708344936 -1.6192692518 0.93236070871
-1.2448385954 -1.8323904276 0.75900495052
-1.5984665155 -1.7436643839 0.43636459112
-0.97538399696 -2.2217817307 0.30454394221
-1.4217932224 -2.0792713165 -0.020472429693
-1.9618251324 -1.369143486 0.089371919632
-2.3668882847 -1.2146503925 0.57020133734
-1.8156504631 -1.6648569107 -0.47184383869
-2.463791132 -0.80423039198 0.29093396664
-2.0634713173 -0.97587257624 -0.18213179708
-1.9661284685 -1.1576657295 -0.73498493433
-2.1782255173 -0.64454442263 -0.23903805017
-2.1013150215 -0.65552014112 -0.66441619396
-2.12870121 -0.65917229652 -1.0047215223
-1.8807742596 -1.4429394007 -1.1472555399
-2.0210053921 -0.86278384924 -1.2095420361
-2.3134174347 -0.43319648504 -1.383882165
-1.9105670452 -0.89248967171 -1.6469064951
-2.1287741661 -0.49649441242 -1.9091391563
-1.6913983822 -1.3180406094 -1.7595134974
-1.9930636883 -0.25490558147 -2.3004636765
-1.7718743086 -0.76360589266 -2.0375287533
-1.6629616022 -0.42866888642 -2.434627533
-1.9021360874 0.1901268512 -2.5207345486
-1.519870162 0.12399496138 -2.72849226
-1.4835739136 0.34665298462 -2.7905809879
-1.6118049622 0.79683786631 -2.6702468395
-2.0137372017 0.64174437523 -2.4181745052
-1.1848889589 0.40355673432 -3.166485548
-1.3095724583 0.98262071609 -3.0574896336
-2.0191257 1.0342366695 -2.1709971428
-1.6266195774 1.2061339617 -2.4012308121
-1.3711982965 1.4760499001 -2.677533865
-1.6857682467 1.4139351845 -2.1252202988
-1.0903395414 2.0295815468 -2.4196734428
-1.4710322618 1.8180238008 -1.7613637447
-1.3705115318 2.1267831326 -1.4128894806
-1.6378563643 2.0416734219 -1.0810447931
-1.2953267097 2.5818407536 -1.2123788595
-1.0721367598 2.2287170887 -1.7508655787
-0.6162533164 2.6407868862 -1.7923367023
-0.82530790567 3.0333361626 -1.2161215544
-0.52251315117 2.5340447426 -2.350769043
-0.42327740788 2.9325025082 -1.567165494
-0.12585134804 3.5402019024 -0.75606566668
0.30770123005 3.0213484764 -1.3262280226
0.46229618788 3.1498925686 -0.89197564125
-0.10685344785 2.9681715965 -2.1128008366
0.32493519783 2.9943523407 -1.8335981369
0.0091671952978 3.1227648258 -2.573833704
0.45675432682 3.1639657021 -2.423078537
-0.053154885769 3.3282566071 -2.9810006618
0.19739043713 3.4072856903 -2.7288560867
0.82699257135 2.9170746803 -0.62843692303
0.59633302689 2.8383543491 -1.297629714
0.99943560362 2.5539724827 -1.1531231403
0.87840485573 2.6929373741 -1.8722691536
1.3027791977 2.4191257954 -1.559273839
1.075573802 2.5372302532 -0.31756803393
1.2265429497 2.2018852234 -0.88188195229
1.5590770245 2.0086174011 -1.210547924
1.0631771088 2.588612318 0.26773223281
1.4039077759 2.0263373852 -0.0061383321881
1.4503225088 2.1427483559 0.5464938879
1.0953854322 2.3074805737 0.92039561272
0.73734778166 2.8506011963 0.64018410444
0.41581422091 2.8070385456 1.2667690516
0.72541904449 2.5757136345 1.1010508537
0.38984367251 3.0994877815 0.8702814579
0.84137821198 2.4356970787 1.6614493132
0.53796124458 2.6620762348 1.8272110224
1.1343210936 2.4037208557 2.0858588219
0.76449865103 2.6874730587 2.3088154793
0.077288851142 3.0527095795 1.4749722481
-0.24434237182 3.36130476 1.2965648174
0.028760967776 3.4376924038 0.71658539772
-0.026808273047 3.2618761063 2.0939030647
-0.38916525245 3.5994653702 1.9364278316
-0.65095037222 3.5005965233 1.1374967098
-0.41945999861 3.592594862 0.4762738049
-0.97286790609 3.7436032295 1.6618109941
-1.078943491 3.4819819927 0.33540487289
-1.2119519711 3.4080963135 1.0235722065
-1.4592876434 3.6393463612 1.5908019543
-1.5646669865 3.1235222816 0.88878297806
0.30694127083 2.9166507721 2.20713377
0.23864641786 3.0925927162 2.7886059284
-0.15132260323 3.5109996796 2.6489384174
0.66893428564 2.8933310509 2.9492716789
-0.32343932986 3.4059011936 3.2259271145
0.01852068305 3.0584220886 3.3538789749
0.43469908834 2.8430821896 3.5758590698
-0.70125991106 3.205728054 3.6422958374
-0.31180807948 2.848426342 3.7683010101
0.029900334775 2.60247159 4.0529894829
-1.2872103453 3.1885142326 3.7523672581
-1.2552895546 2.7812621593 4.0222702026
-0.58571702242 2.7833676338 3.9080164433
-1.7629833221 2.8833372593 3.7996015549
-1.7289297581 3.154766798 3.6564626694
-2.1854999065 3.1234762669 3.3028461933
-2.2868647575 2.8213403225 3.4200744629
-2.4214034081 3.0677621365 2.9184186459
-2.5549957752 2.7637469769 2.9659712315
-0.26445674896 2.2004153728 4.4215040207
-0.85321825743 2.3928675652 4.2640008926
-0.9804148674 1.9617928267 4.4504203796
-0.47340765595 1.6169964075 4.6372442245
-1.4544209242 2.3459339142 4.2871856689
-1.4479705095 1.6255979538 4.5997533798
-1.8343225718 2.0554316044 4.4345679283
-1.8761663437 2.5758035183 4.0036692619
-2.1638257504 2.2853219509 4.1758828163
-2.4401583672 2.5176308155 3.5982937813
-2.5877890587 2.3119237423 3.7914626598
-2.874281168 2.1806871891 3.4233174324
-2.7203388214 2.4525814056 3.1124691963
-1.4179419279 1.0963476896 4.6724309921
-0.98118120432 1.5671963692 4.5371956825
-0.93649345636 1.1140488386 4.5923418999
-0.43930110335 1.0328754187 4.712264061
-0.85449516773 0.79266709089 4.6174798012
-1.0557961464 0.44960454106 4.5852475166
-1.6566334963 0.7253574729 4.6334166527
-0.34880149364 0.52557164431 4.8649973869
-0.56551301479 0.05919521302 4.8291959763
-2.1191523075 0.36559724808 4.4476947784
-1.246281147 0.15519809723 4.5376396179
-1.6943634748 -0.17165760696 4.356719017
-0.88859564066 -0.38910609484 4.7794828415
-1.4285676479 -0.73795449734 4.5680880547
-2.0491166115 -0.35510328412 3.9358484745
-2.4939711094 0.13688738644 3.9977319241
-1.8533163071 -0.99531435966 4.0467658043
-2.1670055389 -0.48494303226 3.3661425114
-2.0032446384 -1.1279265881 3.3810298443
-0.45117306709 -0.72456008196 5.0426459312
0.012800351717 -0.29544237256 5.1293106079
0.12551885843 -1.1589975357 5.0828356743
0.51748043299 -0.70945698023 5.1454391479
0.36606502533 -1.606728673 4.9751214981
0.61785167456 -0.99820804596 5.0856976509
0.80592781305 -1.4160584211 4.9696974754
1.0482872725 -0.81165063381 5.2630329132
1.2173048258 -1.2716478109 5.1355037689
0.62445157766 -2.0986049175 4.6215386391
1.0709522963 -1.8554786444 4.6466898918
1.5392762423 -1.7271307707 4.7983398438
0.84107977152 -2.3494973183 4.221060276
1.2417908907 -2.1063570976 4.2556915283
1.6912761927 -2.0007603168 4.3855481148
0.9961822629 -2.4992742538 3.6162748337
1.4379690886 -2.2251842022 3.6890375614
2.027785778 -2.1097457409 3.8074672222
1.4943561554 -2.1789674759 3.1941244602
1.0685477257 -2.4539153576 3.1065001488
[...]
CELL_DATA 1436
SCALARS cell_data_0 double
LOOKUP_TABLE default
1.79055940394e-08
5.38869533697e-08
1.31529413702e-09
3.00620576045e-08
2.4929737153e-08
2.33173621154e-08
2.49677164112e-08
2.92451681963e-08
2.5234824482e-08
2.50128502801e-08
5.1470384988e-08
6.0122003031e-08
9.73252540783e-08
7.80541385727e-08
2.70930018387e-08
4.79941411556e-08
9.80778573716e-08
5.0012009821e-08
4.39389274543e-08
5.0465476164e-08
1.69738321175e-07
8.28965706402e-08
8.99085276158e-09
1.41305813784e-08
1.97905679721e-08
1.68760784018e-08
1.10328344543e-08
4.36593173707e-08
3.37129557721e-08
5.01048202356e-08
1.09994647761e-08
1.99562289154e-08
2.75877852834e-09
4.56026086401e-08
5.38790659566e-09
7.70247188247e-10
1.3528848635e-08
1.60433088266e-08
2.47769495925e-10
5.32404692705e-09
4.08356810605e-09
4.94756776692e-09
2.17347550245e-09
6.0823933543e-09
5.00667376152e-09
8.22528584065e-09
4.69372713767e-09
2.15289246475e-08
9.74866835565e-09
5.30103546757e-09
1.70563209084e-08
3.69920185044e-08
1.09070907359e-08
1.1981484747e-08
2.82762688659e-09
9.0529569551e-09
1.80452398103e-09
6.48621571894e-09
1.33750064649e-08
1.20185399091e-08
1.97618998168e-09
1.54162192338e-10
7.68653275484e-08
2.17383367725e-08
5.47413177359e-08
4.12013047749e-08
1.76531285674e-07
1.22965853947e-07
4.29290167289e-09
4.36884637568e-07
4.22080225431e-07
1.7034363284e-08
3.2281036546e-08
1.40207722909e-07
6.89965703031e-08
4.76332708844e-09
3.35436648976e-08
2.95552900167e-08
1.0428781732e-07
1.04987427451e-08
8.75809371205e-08
8.53778910689e-08
4.58841155229e-08
2.03292021449e-08
3.47925137131e-09
5.85496499143e-08
1.18432856268e-08
5.1199208001e-08
2.87657776155e-08
8.29013410484e-11
1.80788042149e-09
1.42513263091e-08
1.43056588778e-08
9.06844011423e-09
7.6391676383e-09
1.15687505862e-08
7.39704703383e-08
5.00834855556e-09
2.89556305824e-09
6.19020350469e-08
1.28300437728e-08
2.89346748943e-10
1.12351682162e-09
1.62173796361e-08
1.90427175039e-10
3.34043217863e-08
6.22828280082e-08
8.43798122078e-08
1.01493096368e-07
1.34676666402e-08
1.75384362807e-08
6.74961492706e-08
7.67756004674e-08
1.11631036118e-08
1.01059659826e-07
3.87995393697e-09
5.19137160159e-08
4.9015926041e-08
2.68095938256e-08
2.76281070948e-08
4.49225141453e-08
3.05960146879e-08
4.55558158756e-08
1.04241239145e-07
2.57687567693e-08
2.02232666e-07
3.41712898435e-07
3.23910711071e-08
6.75358355874e-08
9.84304783788e-08
3.62408466527e-07
1.81005848483e-07
4.64194388029e-08
3.54656594222e-08
9.8305362858e-09
1.88799633669e-08
2.42320635294e-07
9.59253229945e-08
5.78089269944e-08
1.02586500821e-07
6.52317167325e-08
1.91265587244e-08
5.04678176007e-08
3.89553568311e-08
1.09886060498e-09
7.80858301273e-09
1.62181800556e-08
7.03579300111e-09
9.87613706744e-09
1.06217127802e-08
5.05131687947e-08
4.84525908525e-08
9.51366962047e-09
7.38925810203e-09
3.9855488564e-09
2.23726886708e-08
1.33241798176e-08
2.11734223068e-08
1.6763668723e-09
1.21515238764e-09
4.16427778089e-09
7.27435720462e-09
9.83962837565e-09
5.68489585016e-09
1.57306645143e-08
5.90488441402e-09
4.69901625534e-09
3.92280493284e-09
8.58311518776e-09
2.83579507475e-08
2.0935543066e-08
1.40504383387e-08
6.14990168118e-09
2.3022272698e-08
7.35218604213e-08
1.75608211922e-07
1.13245048166e-08
4.11588497597e-09
2.62302292646e-08
1.21178202919e-07
3.31090269876e-10
1.89757715471e-08
2.62491710912e-10
1.03734661777e-09
2.97874880626e-09
9.7400590948e-09
6.42072939637e-09
2.22314478096e-09
1.1758296117e-08
2.74352917907e-09
2.59687979381e-08
2.27680875709e-09
1.14485490859e-08
1.51148061279e-08
1.03621059902e-08
1.26302077021e-09
1.02078335938e-09
4.16794354416e-09
6.93746116555e-09
5.71163700127e-09
7.49594130381e-10
7.0985584339e-10
4.30500104702e-09
5.53728596925e-09
1.06036755817e-08
1.70631997244e-08
5.3285013794e-09
2.65676633234e-08
5.39457428931e-09
4.52877280456e-11
7.61681055861e-09
1.50061290575e-09
3.12080817819e-10
2.77180205656e-08
4.20788017792e-10
3.05423765678e-08
5.63038200431e-08
7.37551551934e-08
1.41757075401e-07
1.22202780034e-07
7.91102746096e-08
3.20531816458e-07
9.72463276715e-08
2.2555879505e-07
3.73106358761e-08
9.58613609093e-09
4.38535373859e-08
1.37855643266e-08
1.40493534094e-08
9.10122173035e-09
3.20945605075e-08
1.00265158365e-08
9.83317749262e-09
8.87968196216e-08
1.59627341834e-08
9.81386357881e-08
1.40947881804e-07
3.4531369332e-07
9.04200756311e-08
1.53817205594e-07
2.55224815492e-07
1.86332547499e-07
1.54063844679e-07
3.86937252298e-07
1.24984922409e-07
3.2849969444e-07
8.12366223716e-07
7.95446462245e-08
9.87443168086e-08
9.17797970843e-08
5.45509404086e-08
4.96025735019e-09
3.46227053022e-08
8.31311271755e-09
6.71757084543e-08
3.78267547541e-08
4.38714775599e-08
5.50169298618e-08
1.89218530309e-08
1.91788485806e-08
2.56000440616e-07
8.69545380967e-08
6.02723619516e-08
2.26999066785e-08
2.59453416968e-08
4.6292063013e-08
1.38114882364e-07
1.01004165921e-07
3.94616846079e-08
7.25916933482e-08
2.76578129129e-08
6.54448485388e-08
1.06617438903e-07
4.98392629817e-09
5.1894205927e-08
8.0899356274e-09
4.41685671232e-08
6.68944381543e-08
8.65177188588e-08
5.48842892988e-08
3.96003038683e-07
2.31767697395e-07
3.09588354405e-08
4.42643960781e-08
5.98957279857e-08
2.53138343303e-08
1.38610716271e-09
4.30398374932e-08
5.83856949543e-08
4.13163873555e-08
8.35032609202e-09
1.39094246188e-08
7.82426550258e-09
9.05813547038e-08
1.79405577298e-07
7.91006375194e-08
1.62884620155e-07
1.06182306439e-07
1.61550207823e-07
1.14190063149e-07
7.87863363991e-09
8.21247525019e-08
5.94641044065e-08
6.55187224287e-08
5.91631981252e-08
1.19991904959e-07
1.2999788641e-08
3.48312906395e-08
4.09217146947e-09
1.38459608051e-08
3.62738052239e-08
3.98593988815e-08
4.59880081251e-08
7.998457e-08
1.33170110877e-07
2.72082466877e-09
3.89283446576e-08
2.70265109398e-08
7.02608210554e-08
1.04946614723e-07
1.89601949413e-08
4.06801722935e-08
4.59781507122e-08
2.07884685514e-08
3.39905822547e-09
2.60569290248e-08
1.95088756579e-08
6.20985362932e-08
1.85668077438e-08
4.65638505493e-09
9.7804178795e-09
1.07985366632e-08
1.15475918693e-07
7.74650350091e-08
2.49103017535e-07
5.51050503285e-08
3.35284695422e-07
7.929405732e-08
1.08410131181e-06
1.05945343615e-06
5.36654523749e-07
2.89678059018e-07
5.0055711867e-07
2.97430153762e-08
4.61663176756e-07
3.91441886274e-08
3.47890151608e-07
3.35122733512e-07
9.48768909485e-08
6.57773059246e-08
5.07040339963e-07
6.75303786089e-08
7.4436011331e-09
4.71688295767e-08
2.30835002351e-08
6.44206465629e-08
3.90459051e-08
1.8875901493e-08
5.86398272204e-09
1.03804807697e-07
2.50656322308e-08
1.11760936979e-08
2.36001805725e-08
1.98559474727e-08
5.70320040416e-08
1.28992058353e-07
7.30677852064e-08
2.66281482057e-07
9.70372797689e-08
1.47270988435e-09
1.31270882573e-07
6.94311814262e-08
2.92199191588e-07
2.45896545637e-07
1.86755029758e-08
3.61372055409e-08
7.25596955055e-09
1.54574097709e-08
1.16030150056e-09
7.58234698185e-09
2.49197721711e-08
2.02128807352e-08
2.64040115388e-08
3.22852910772e-08
7.18144335357e-09
8.14642467997e-08
1.52819117616e-08
1.39559454196e-08
1.70859352212e-08
1.91189197155e-08
7.5430240308e-09
5.11228613103e-08
1.00582932893e-08
6.29471957383e-08
5.47052665223e-08
4.15230124866e-08
2.92489686859e-08
5.3238587542e-09
7.34325622143e-08
3.77478330302e-08
7.35808309183e-08
2.1339566764e-07
1.64194620403e-08
2.77573430347e-08
3.24461731663e-08
3.22816943752e-07
1.37582932501e-07
9.93602494152e-09
2.34094328886e-07
2.32722394201e-08
4.78554299958e-07
1.02441774966e-07
1.71449718055e-07
5.21568169746e-08
2.41501036428e-07
5.84003376522e-08
2.87354223068e-08
2.27961653128e-08
1.65149796994e-08
5.97865346907e-08
8.44771355965e-09
2.03195229122e-10
1.20970243716e-08
5.43035140103e-09
1.68005445334e-08
6.7697633469e-09
9.72302936878e-09
1.11591201579e-08
1.63381668978e-08
2.34783195887e-09
1.84577783312e-09
5.06951119066e-09
2.59173627996e-08
1.0544624456e-08
2.78275387362e-08
2.66919358047e-08
1.42278679696e-09
7.50281897374e-09
6.89530619599e-08
3.83103776183e-08
8.01782699225e-09
2.32438284312e-08
1.56295978227e-08
3.32315404288e-08
4.00511036388e-08
2.29562769671e-08
6.83626241536e-08
8.19213994855e-08
2.20042317379e-08
2.71870190874e-08
3.6752909742e-08
2.50429316634e-10
1.71638514897e-09
9.19097896053e-09
9.69446886256e-09
1.53678196924e-08
1.17646056335e-08
4.5740691525e-09
1.33248490703e-08
1.10982152286e-08
1.6650691008e-08
2.3420475985e-08
2.34118931863e-08
3.20844346413e-08
1.94931783378e-08
1.51861031562e-08
3.96567609013e-07
4.43908924858e-07
5.3604786185e-07
1.22096664294e-08
4.91886528273e-08
8.63783911162e-08
1.30102947821e-07
8.98983905875e-09
4.5905349801e-09
3.4150026309e-09
3.01973222942e-08
6.55673398176e-08
4.47260945895e-08
4.23268775423e-08
2.55309050828e-08
2.75428970348e-08
1.57432925772e-08
2.29891887306e-08
5.40776278672e-08
3.68081974536e-08
3.68357355876e-08
1.68121632248e-08
1.53402409916e-07
1.56972194796e-07
4.1279094214e-07
2.54195819217e-07
3.18478726698e-07
2.19467309535e-07
2.97570395629e-08
6.83170087381e-08
1.64725226475e-07
4.42022155628e-07
2.5481976595e-07
1.9983087042e-07
1.12184639741e-07
5.25892802168e-09
5.52257419533e-08
9.05342314711e-08
5.86550700465e-08
2.11017843203e-08
1.72899134685e-08
3.05246276693e-08
3.56734372641e-10
3.94215116049e-08
9.49268617419e-09
4.63916684277e-09
2.74287487048e-08
1.49733261516e-08
2.75668537475e-09
1.5138103573e-09
5.51073448673e-09
3.30688757671e-09
1.43417819922e-08
2.18604279125e-10
3.01513458634e-09
1.57496577743e-08
9.8010669258e-09
2.24183619142e-10
1.01279018832e-08
1.75360165138e-09
9.15701760314e-09
1.02486671445e-08
2.49712554981e-08
1.14461790807e-08
5.81368668003e-08
2.25273605415e-07
8.85393543866e-08
6.12113333246e-08
4.20121535352e-10
1.55185085674e-08
3.50148076246e-08
3.6344422621e-08
4.26081817206e-08
2.13380586605e-07
1.194327021e-07
6.13876119496e-08
3.08881811738e-08
7.26920717221e-08
3.00330523492e-08
1.06365523935e-07
4.69989729783e-08
1.91858544984e-08
2.60751304636e-08
2.88499607538e-08
4.28483593321e-08
7.91249678661e-09
1.63707147555e-08
7.0022540658e-09
1.38842824372e-07
7.37228336029e-08
1.67309697013e-07
5.46913019992e-07
3.17341888377e-07
4.17474680939e-08
6.24908044574e-07
7.12421203337e-07
9.08497037455e-09
2.69402751798e-07
5.17080902112e-08
6.63316927236e-08
2.94484854183e-08
2.00921213082e-09
3.50744524977e-08
8.46804149131e-08
1.27874692368e-10
1.15113420955e-07
1.01673828126e-08
1.33771113252e-08
1.49711414668e-08
1.38406899588e-08
6.36125938755e-09
5.75091860471e-09
3.80357244867e-09
4.9679570074e-09
5.55040746448e-09
1.24159354909e-09
3.82648621175e-09
2.8919393268e-09
2.12515474666e-10
3.74895478453e-09
5.43296682027e-09
2.00343696901e-09
3.43820463312e-09
3.10110148453e-09
2.51420665954e-09
2.35236597231e-09
7.11460034035e-10
2.97266675096e-09
2.26343495979e-09
3.59472770456e-09
1.26995345838e-08
1.6794809537e-10
9.43198904855e-09
5.77162783915e-09
5.68301043931e-09
1.06008442321e-09
2.3399385487e-09
4.94728577415e-09
5.50215906888e-09
3.89040852503e-09
4.21197574418e-09
1.41415089123e-08
3.01420590179e-09
1.06104458522e-08
2.22246681529e-08
5.53955861218e-09
2.62536928191e-08
8.22854225634e-09
1.72805963625e-08
1.54220760369e-08
1.01868982485e-08
1.04072873532e-08
2.57904057454e-08
1.32850169333e-08
2.25126074558e-08
3.61271962212e-09
7.15634480026e-09
1.73154917877e-08
1.31575522573e-08
5.89708647068e-09
3.18630381281e-08
1.34298468244e-08
7.55383860308e-09
2.28777935425e-08
1.3299390918e-08
1.23820958388e-08
1.90876845987e-09
2.14882669903e-08
9.89318423337e-09
3.1979647524e-08
2.63032344905e-08
2.40242654472e-08
2.63527172326e-08
2.006809653e-09
3.68691063853e-08
1.97363754076e-08
2.65499280258e-09
1.09888662845e-08
3.36003670993e-08
3.03403705258e-08
2.32257877795e-08
1.19684647428e-07
1.15106085355e-07
1.01843572788e-07
1.2891257716e-07
1.26356806885e-09
6.1636445225e-08
5.34865731425e-08
5.46842776353e-08
2.64410637188e-08
1.98093845759e-07
1.14121488659e-07
2.57726500852e-09
1.55187213843e-08
9.115102627e-08
1.17206196213e-08
1.87445587742e-08
9.51839814212e-09
1.66511242994e-08
3.38402117999e-09
9.9798135616e-09
1.993477395e-08
6.28268505719e-09
8.93185560478e-09
1.34821712402e-08
1.72424422545e-08
1.02726202452e-08
2.18220796303e-08
1.51683206314e-08
1.36962227667e-08
5.55061944291e-09
1.52982209995e-09
1.09605898316e-08
5.62706031158e-09
6.12462892095e-09
3.56011506085e-09
5.04559902838e-08
4.60195797315e-08
3.00181625499e-10
2.28283096599e-10
3.54215049069e-09
2.09597863576e-07
3.22816558836e-08
2.47764816617e-08
1.64384992413e-08
2.27515094565e-08
1.92811724473e-08
4.0520786344e-09
4.13850046822e-08
1.47449900495e-09
8.59120921397e-09
1.30098535945e-08
1.53358464844e-09
5.3648841547e-09
1.65257374451e-09
7.23935049683e-10
7.0923493952e-09
1.63631232238e-09
1.19815523957e-09
2.69719170836e-09
1.90439886601e-09
1.80295964603e-09
1.10828143905e-08
8.17442771967e-12
1.20235906926e-08
1.48174665102e-09
5.18699617416e-09
4.13065471405e-09
3.14963401365e-09
3.64384232083e-09
1.78219461862e-09
3.97608215943e-09
6.00912374989e-09
1.09944674775e-08
6.63133624117e-09
1.19061596356e-08
3.98117028655e-09
1.27590946277e-08
9.96808449258e-09
1.43513939401e-08
7.12953192263e-09
1.28933346646e-10
9.29652456667e-09
5.79752984535e-09
2.4451972756e-08
1.52975699713e-08
6.96599991608e-09
3.95856592789e-09
3.72985187314e-09
1.13275310511e-08
4.22721718996e-09
2.23646817574e-09
8.37830143593e-10
7.73219948091e-09
1.0329734859e-08
2.06761328726e-08
1.33663839065e-08
1.43381942989e-09
6.94101679572e-09
1.95854433725e-09
6.55884218088e-09
2.25582113441e-09
5.04949886252e-09
4.93274227304e-09
1.11646216725e-09
9.22964223029e-11
8.36686400015e-09
2.31441942231e-09
1.11038566825e-08
7.69297924355e-09
3.53448048557e-09
4.54166411761e-09
4.13310843873e-09
1.3773824685e-09
8.80435143052e-09
2.15897453231e-08
9.16412858137e-09
4.62642520764e-09
3.00674629172e-09
5.94164355044e-09
2.71650177354e-09
1.04627764512e-08
6.64304116919e-09
3.06954274435e-08
2.73269660162e-09
5.05252235747e-09
8.91142463715e-09
4.18606503414e-09
2.5859369544e-08
2.57303841688e-10
4.42820746399e-09
3.26774345264e-09
2.52840851641e-09
9.03484276156e-09
2.86851394744e-09
1.04518178518e-09
9.03389756393e-09
4.82271821933e-09
2.37796569506e-08
1.18761494955e-07
4.08217382582e-08
1.24829450709e-08
3.07781447745e-07
2.0489564006e-07
7.60243941858e-09
7.96433594969e-08
2.36101350619e-07
1.26890591489e-07
2.33041738555e-07
1.12350177036e-07
3.02643112533e-08
2.14449990878e-09
1.59147010498e-08
4.21110836245e-09
1.04025549932e-07
5.10822788091e-08
1.22370469652e-07
1.39298182014e-07
4.20204287637e-08
7.78702004723e-08
2.71281729193e-08
5.22238639591e-09
2.28703593607e-08
7.6635907134e-09
1.03828220753e-08
1.13632226088e-08
2.79873008506e-09
5.17556368665e-09
2.32663321288e-09
1.57393628287e-08
1.63566564619e-08
1.28936953659e-08
1.91507934426e-09
4.8940423983e-09
2.34004541056e-09
8.63155094226e-09
4.72971844171e-08
7.028577159e-09
1.9584630465e-08
1.9112172952e-08
2.32278835871e-08
1.28996889701e-07
1.16815333624e-07
2.71415386761e-07
4.41533747877e-07
5.26007091926e-08
2.8517271918e-08
5.60372634854e-08
3.15102646102e-09
4.42886167262e-08
1.26766941603e-08
2.11538080179e-08
1.4168358059e-08
8.52003433681e-08
1.58058351964e-07
2.3309627741e-07
1.33247189849e-07
2.14718518568e-07
1.10554360831e-08
2.62556437566e-07
2.35482061702e-07
4.24102740847e-07
4.09077416751e-07
1.15521549813e-07
1.61021858738e-07
1.17848734895e-07
1.46165834885e-07
3.90163355479e-08
9.39582335314e-08
8.97169288585e-09
3.11677970077e-08
8.15273802643e-09
2.32582923307e-08
7.40712757784e-08
1.37122110603e-08
2.59429562776e-08
6.8984347408e-08
1.96863792781e-07
2.14428132349e-07
1.24131363205e-07
7.82400027669e-08
2.94633791265e-08
3.07738769327e-08
9.62785128728e-09
9.79661082593e-09
2.23392913337e-08
6.64826890227e-10
1.6138243645e-09
3.30570640546e-09
1.21017513064e-09
1.90207372403e-09
3.2501827155e-08
5.08018454137e-09
1.98967134826e-09
1.17945744893e-11
1.0684145045e-08
5.13139116691e-09
8.05936173732e-09
3.11032815332e-08
6.58899350619e-09
1.45547379665e-08
1.61890591019e-08
1.56261132608e-09
7.46400262716e-09
3.25810033278e-09
2.57340994633e-09
8.4711909398e-09
1.50491212851e-08
2.38840116132e-09
1.80744663995e-08
6.88266203347e-10
1.31932955459e-08
9.53024909476e-10
5.88354090842e-09
4.00068787364e-10
4.19215148699e-09
4.50003995181e-09
9.2469534581e-10
2.29499404653e-09
8.48057173209e-11
3.65413335872e-09
6.25187184522e-09
1.75155636972e-10
1.29486100291e-08
2.11559284781e-09
6.96676807132e-09
1.25314372364e-08
3.46832547016e-09
1.27931388191e-08
9.88616290824e-09
2.92675281104e-08
4.29458347027e-09
3.41823160039e-08
7.01995365127e-09
1.17033763709e-08
1.8530463234e-08
1.41531704251e-08
1.54064695863e-08
6.08240502163e-09
1.05419040726e-08
9.56025372468e-09
2.69979896983e-08
1.23497978546e-08
1.41696393632e-08
4.01180471694e-08
5.72393460489e-08
5.25183581695e-09
2.38533608877e-09
5.40454884883e-08
8.43759950873e-08
1.58520707924e-07
1.53757490206e-07
2.48896959895e-07
2.49803707209e-08
2.8324001218e-08
4.76500698445e-08
3.006695942e-08
3.23803813235e-08
1.4733294848e-08
5.08723757267e-08
1.03606158811e-08
1.85826517753e-09
2.19514589964e-08
9.65509880345e-09
1.85314704264e-08
1.85758229546e-08
1.11520010008e-08
2.39860300115e-08
1.06748698265e-08
1.53866188013e-08
5.08955538784e-08
7.81353643104e-08
7.7155285455e-08
4.13231568344e-08
1.64203896468e-07
1.04472968378e-07
1.18122948548e-07
3.1145876396e-07
4.18709908811e-08
1.38443114921e-08
1.48474511971e-07
5.6816748744e-08
8.64139557145e-08
5.33239686115e-08
1.36956829037e-07
2.95206780504e-08
1.37993650593e-07
1.74616247154e-08
3.55172345368e-09
1.51696069885e-09
3.02427697326e-08
2.76066586686e-08
4.25806249841e-07
2.65927862087e-08
7.86493144061e-08
3.19384323052e-08
2.20930447035e-08
5.05928717609e-08
9.37942122548e-08
1.0308989969e-08
3.14196177841e-08
2.06637830373e-08
1.45002679209e-08
5.37141209184e-08
4.25831355771e-08
1.58370219388e-08
4.07815753592e-08
2.7344710114e-08
1.36554134359e-08
4.31335769802e-09
1.16877150762e-08
1.42017360529e-09
3.59274523406e-07
4.70684306498e-07
3.79778787017e-07
2.93478032355e-07
1.4737054438e-07
1.06738345477e-07
5.30875865918e-08
2.75352947476e-08
1.30652426867e-08
1.96796327044e-09
1.90216239063e-08
3.966621089e-08
3.04093601861e-08
7.41759599866e-08
1.76115720125e-07
5.52085354534e-07
6.57154235067e-07
2.75312153754e-07
6.64146678264e-07
5.03883378798e-09
1.40513056746e-07
6.2982251676e-07
1.584752351e-07
2.04506282702e-08
4.6752324147e-08
3.62610204147e-07
4.71253030544e-08
1.23109669552e-08
1.46227792771e-08
6.15874453294e-08
8.27002201947e-09
2.33713943046e-09
1.82472732784e-08
1.85807268454e-09
3.68448830931e-08
1.78927150448e-07
2.25618980956e-07
1.64569745717e-08
1.70960519884e-08
4.39088893428e-08
3.40511228101e-08
3.81636167353e-08
1.44361166136e-08
4.44879203469e-08
5.99733958841e-09
8.1256904218e-09
6.81202427423e-09
1.08459681378e-08
4.57264690895e-08
1.57844060969e-07
1.03194322247e-07
1.75905291792e-08
4.8996528303e-09
1.12693233988e-09
4.61509634108e-08
7.22776813281e-09
3.28726979159e-08
5.45023345432e-09
1.1160615608e-08
1.72507374512e-08
4.15345301499e-08
3.79313660947e-08
6.21695370047e-08
1.4809043127e-07
1.7591125368e-07
1.23500333836e-07
2.47160643427e-07
5.32959882477e-07
1.36186348567e-07
7.33957399244e-08
1.5741754183e-08
1.4369818818e-08
1.23579505646e-08
2.07032459298e-08
5.96796034834e-08
1.115282006e-07
2.14498192327e-07
2.8676077715e-07
1.55897602383e-08
3.49933566909e-08
4.95010223178e-08
7.00982504665e-09
4.5779223785e-09
1.63589471982e-08
3.52843971443e-09
8.60642736323e-08
2.52326029202e-08
5.46671906527e-08
3.84195353446e-08
1.67106028614e-07
5.56045102711e-07
3.11176844216e-08
2.15296441115e-07
6.68634076599e-08
4.91747783253e-07
2.60941558742e-07
2.17695141295e-08
2.17826533591e-08
1.33329991561e-08
2.38154002702e-09
3.15451365311e-09
1.27969666285e-09
3.30571523699e-09
2.52971017696e-08
6.64644329156e-09
1.40553778205e-07
1.92626941885e-07
1.29260646471e-07
4.74492642383e-07
5.86568803546e-07
2.4706982513e-08
8.87052361811e-08
7.05490412795e-08
2.41992084807e-08
2.04055534249e-08
2.32027183044e-08
5.81905127843e-09