# vtk DataFile Version 3.0
File Name: Molecule/arg/arg_0.5-5.vtk
ASCII
DATASET UNSTRUCTURED_GRID
FIELD FieldData 1
TIME 1 1 double
0.0
POINTS 166 double
-3.4393291473 0.24424605072 1.4261804819
-3.0825078487 -0.12032164633 0.48087418079
-3.0079660416 -0.55181008577 1.50928545
-2.5453591347 -0.98781055212 0.5525636673
-2.9734363556 0.084350667894 -0.024264600128
-2.4941592216 -0.46612110734 0.14383943379
-2.2554757595 -0.40110376477 -1.0607913733
-2.2162775993 -0.4601945281 -0.88396757841
-2.3977031708 -0.24222993851 -1.1585338116
-2.3745613098 1.0699868202 -1.4354559183
-2.8099942207 1.7145391703 -0.44258165359
-2.3206691742 1.882507205 -0.61170887947
-1.959528923 1.4541201591 -1.5117115974
-1.7040566206 1.9220837355 -1.0925531387
-2.5479991436 2.6206793785 0.48852029443
-1.7565711737 2.4963238239 -0.61882698536
-1.4315919876 3.2422664165 0.083461046219
-3.1706585884 2.3026611805 1.4964132309
-1.8583374023 3.3297929764 1.4768396616
-2.4520523548 3.0961122513 2.2011222839
-2.9263379574 2.1731767654 2.7320165634
-2.7086529732 2.5551102161 2.3772687912
-3.4145543575 1.7895640135 1.8225946426
-3.156771183 0.75849568844 3.0688841343
-3.0987384319 1.7788764238 3.0400063992
-3.3838455677 0.77515399456 1.9654010534
-3.0430102348 0.41433778405 2.2852056026
-3.1102502346 0.12676134706 1.8789181709
-2.8958904743 0.28202664852 2.9464719296
-2.8753859997 0.038305073977 2.2781381607
-2.9993679523 -0.21405829489 1.8626967669
-2.5003709793 -0.72415727377 2.4243438244
-2.4676139355 -0.063110128045 3.5595011711
-1.9728907347 -1.2463982105 3.4541966915
-0.97525835037 -2.2554452419 2.0957648754
-1.6210731268 -1.6897598505 1.2425178289
-0.95323681831 -2.2283751965 0.2843490243
-1.9903725386 -1.1833001375 -0.12758249044
-2.2953519821 -0.31375914812 -0.47319301963
-2.052138567 -0.7768445015 -0.79751032591
-1.9332863092 -1.2747962475 -0.99538397789
-2.0961332321 -0.69091153145 -1.2142829895
-1.6803015471 -1.5693873167 -1.5866680145
-1.7569793463 -0.77289062738 -2.051646471
-1.5461857319 0.14020818472 -2.7148213387
-2.1248102188 0.21142151952 -2.3743636608
-2.192637682 -0.50661468506 -1.7804008722
-1.8641867638 0.96659553051 -2.3619365692
-1.0602473021 0.5635253191 -3.3912887573
-1.6459702253 1.4253851175 -2.1745967865
-1.2405976057 1.6073803902 -2.8491091728
-1.1244850159 2.0665299892 -2.1685705185
-1.5007013083 1.8239797354 -1.7055563927
-1.3188128471 2.4120032787 -1.2738000154
-0.42465281487 2.6026334763 -2.4305598736
-0.80572170019 3.0141060352 -1.2804816961
0.7872518301 2.7018861771 -1.7208411694
0.70393610001 3.4051625729 -2.7450602055
-0.019638048485 3.2494206429 -2.8436715603
0.43438374996 3.2976961136 -0.65804505348
1.0696338415 2.4611256123 -0.48291155696
1.5526510477 2.0193071365 -1.2133816481
0.94034999609 2.7871718407 0.29509449005
1.5392613411 1.9169310331 0.062150277197
1.2140946388 2.2118797302 1.0384619236
0.38953045011 3.0998101234 0.83846306801
0.58392649889 2.7555401325 2.2802872658
-0.17016386986 3.3994538784 2.0336463451
-0.59956383705 3.2833557129 3.5241453648
0.2634536922 2.6819236279 3.9501826763
-0.65153622627 2.7065007687 4.0068640709
-1.8965127468 2.7199537754 3.8595924377
-2.0240652561 3.257953167 3.3811011314
-2.2871944904 2.656680584 3.597471714
-0.4961835444 1.8006004095 4.5431818962
-1.0583581924 2.091375351 4.4123177528
-2.4452605247 2.2283296585 4.1069054604
-1.5741738081 1.7536199093 4.5588417053
-0.26807457209 1.0641952753 4.7823991776
-1.0922991037 1.0931978226 4.6058225632
-0.60365748405 0.167381078 4.8106331825
-1.6598479748 0.71501606703 4.6336989403
-1.0423048735 -0.47720187902 4.7472634315
0.1303780973 -1.1973438263 5.0721464157
0.33212929964 -0.4580475688 5.1823511124
0.90324318409 -2.4629666805 3.8869895935
1.017758131 -1.8565284014 2.147030592
1.9912415743 -2.0283770561 3.1244635582
0.95537054539 -1.7875543833 0.5234349966
1.3892140388 -1.1752785444 0.20384524763
1.7922233343 -1.3947640657 2.12647295
2.3437018394 -0.47560936213 1.9540022612
1.7031391859 -0.12301790714 0.84902781248
1.7625648975 0.20755298436 -0.21122606099
1.6837025881 -0.79265588522 -0.80901271105
1.0945938826 -2.0144367218 -1.8220347166
1.6647274494 -1.3808112144 -2.668585062
2.1926801205 -0.17525865138 -1.4471487999
-0.41957521439 -1.5675038099 -2.5336401463
0.13441181183 -0.80383878946 -3.4078791142
-0.99364560843 -1.2819715738 -2.437091589
-0.39319446683 -0.74126249552 -2.9956097603
-0.60753703117 -0.28697213531 -3.3352150917
-1.1050701141 -0.58409404755 -2.6963186264
-0.025343913585 0.56101590395 -4.0401406288
0.55084776878 0.40424653888 -4.2394380569
-0.40909963846 1.9272428751 -3.5824522972
0.37023323774 1.3390682936 -4.3981256485
0.12162065506 2.0214726925 -4.1228647232
-0.00095722638071 3.0044236183 -3.6488518715
0.92535042763 2.2120666504 -4.0293283463
0.46049189568 3.1443784237 -3.870433569
0.92874097824 3.0777957439 -3.6694915295
1.1240389347 3.1335437298 -2.9293315411
1.638360858 2.6293334961 -3.2629182339
1.6571626663 2.6945402622 -2.5530822277
1.265283227 2.5894031525 -2.1651792526
2.1876912117 2.1686573029 -2.519051075
2.1224024296 1.6293079853 -1.9606193304
2.4123284817 1.3016319275 -2.3183920383
2.3888561726 0.7182379365 -1.6830054522
2.0348124504 0.89386606216 -1.2033144236
1.9737733603 0.92824584246 0.015798753127
1.8466442823 2.0345976353 -3.416261673
1.9558571577 1.1738154888 -3.8939144611
1.1785932779 1.63803792 -4.188852787
1.885851264 1.3145923615 1.3449971676
2.5285906792 0.96714186668 2.5544109344
1.868418932 1.6746577024 2.4454059601
1.2888653278 2.3135380745 2.1378746033
0.69818258286 1.6435403824 4.7088541985
0.59216564894 0.86484587193 4.9765238762
-0.063978731632 0.4100651741 5.0363078117
1.3420557976 0.77788674831 5.0738697052
1.2144860029 -0.80165106058 5.3383140564
-3.93577528 1.1855939627 0.81494486332
-1.7133905888 3.9046506882 2.5084991455
-2.7305941582 1.4773093462 4.4128289223
-1.1180535555 -1.9619563818 4.6345310211
0.76822805405 -2.6407647133 -0.84328377247
1.289842248 2.5767867565 3.3194284439
3.6505968571 -0.40449604392 3.6035211086
2.7947266102 0.50377035141 5.0135293007
2.7839539051 -1.1111960411 5.0319471359
3.1298136711 -1.1338572502 2.7032175064
3.3366084099 0.42069530487 2.9544427395
2.100477457 -0.50133442879 -3.991024971
-0.018308224156 -2.9218127728 2.9133918285
-1.3315811157 -2.5492506027 3.3970427513
-0.17274808884 -2.5469398499 4.4656119347
1.0943340063 -1.7144237757 4.7709565163
2.1490011215 1.456751585 4.082921505
2.14376688 0.65758055449 5.2093157768
3.0095193386 1.0551145077 4.0258131027
2.0180084705 -1.0862658024 5.3297324181
0.9740473628 3.4156513214 -3.2976670265
-0.0048652626574 3.4377965927 -3.1344065666
3.128534317 -1.5950950384 3.8583283424
2.0462007523 -2.0590517521 4.1091589928
1.3111823797 2.1798858643 4.0652604103
2.0898103714 1.64506495 3.3387479782
2.888658762 1.1076271534 3.234859705
3.4918146133 0.45956525207 3.8525335789
1.7070600986 -1.6365333796 4.9366755486
1.5031130314 -2.1302642822 4.0342860222
2.462318182 -1.7141498327 4.6871213913

CELLS 328 1312
3 0 1 2
3 2 1 3
3 1 4 5
3 6 7 8
3 8 4 9
3 10 9 4
3 10 11 9
3 12 11 13
3 11 14 15
3 15 14 16
3 14 17 18
3 18 17 19
3 20 21 22
3 17 22 21
3 23 24 25
3 22 25 24
3 26 25 27
3 0 27 25
3 23 26 28
3 29 28 26
3 29 27 30
3 2 30 0
3 2 31 30
3 28 31 32
3 33 31 34
3 35 34 31
3 36 35 37
3 3 37 35
3 3 5 37
3 5 38 37
3 37 39 40
3 40 41 42
3 41 7 6
3 38 8 7
3 6 8 41
3 43 42 41
3 44 43 45
3 46 45 43
3 45 47 44
3 44 47 48
3 9 12 47
3 49 47 12
3 50 49 51
3 52 51 49
3 52 13 53
3 53 13 15
3 54 51 55
3 53 55 51
3 55 56 54
3 57 58 56
3 59 60 56
3 56 60 61
3 60 62 63
3 63 62 64
3 62 65 64
3 65 66 64
3 65 16 67
3 67 16 18
3 67 68 66
3 66 68 69
3 70 68 71
3 72 71 68
3 71 72 73
3 19 21 72
3 69 70 74
3 75 74 70
3 76 77 71
3 73 76 71
3 76 73 24
3 20 24 73
3 78 74 79
3 77 79 75
3 79 80 78
3 81 80 79
3 81 32 82
3 82 32 33
3 83 84 82
3 80 82 84
3 85 86 87
3 86 34 88
3 88 34 36
3 88 89 90
3 91 90 92
3 92 89 93
3 94 93 89
3 95 96 94
3 97 94 96
3 95 98 96
3 96 98 99
3 98 100 101
3 102 101 103
3 103 100 43
3 42 43 100
3 103 44 102
3 102 44 48
3 104 99 102
3 99 104 105
3 104 106 107
3 107 106 108
3 106 54 109
3 109 54 58
3 110 108 111
3 112 113 114
3 114 113 115
3 113 57 116
3 116 57 56
3 115 116 117
3 118 117 116
3 119 118 120
3 121 120 118
3 121 61 122
3 122 61 63
3 122 93 121
3 93 97 121
3 117 119 123
3 124 123 119
3 124 105 125
3 125 105 107
3 125 110 123
3 123 110 114
3 92 126 91
3 91 126 127
3 128 126 129
3 64 129 126
3 130 78 131
3 131 78 132
3 131 84 133
3 133 84 134
3 27 0 30
3 38 5 4
3 4 8 38
3 12 9 11
3 15 13 11
3 18 16 14
3 21 19 17
3 24 20 22
3 26 23 25
3 28 29 31
3 33 32 31
3 36 34 35
3 39 37 38
3 39 41 40
3 46 43 41
3 50 48 47
3 49 50 47
3 53 51 52
3 58 54 56
3 59 56 55
3 63 61 60
3 129 64 66
3 67 66 65
3 70 69 68
3 74 75 79
3 132 78 80
3 82 80 81
3 134 84 83
3 88 90 86
3 89 92 90
3 97 93 94
3 101 99 98
3 100 103 101
3 107 105 104
3 109 108 106
3 114 110 112
3 116 115 113
3 119 117 118
3 120 121 97
3 125 123 124
3 128 127 126
3 131 133 130
3 0 25 135
3 0 135 1
3 4 1 135
3 4 135 10
3 10 135 14
3 10 14 11
3 14 135 17
3 17 135 22
3 22 135 25
3 5 3 1
3 2 3 35
3 2 35 31
3 29 30 31
3 7 41 39
3 7 39 38
3 9 45 8
3 46 8 45
3 46 41 8
3 47 45 9
3 13 52 12
3 12 52 49
3 16 65 59
3 16 59 55
3 16 55 15
3 53 15 55
3 59 65 62
3 59 62 60
3 72 68 136
3 72 136 19
3 19 136 18
3 18 136 67
3 67 136 68
3 75 71 77
3 21 73 72
3 73 21 20
3 71 75 70
3 137 23 32
3 23 137 24
3 24 137 76
3 76 137 77
3 79 77 81
3 137 81 77
3 81 137 32
3 28 32 23
3 27 29 26
3 33 138 82
3 82 138 83
3 37 40 36
3 36 40 42
3 36 42 139
3 36 139 88
3 88 139 89
3 89 139 94
3 95 94 139
3 95 139 98
3 98 139 42
3 98 42 100
3 44 103 43
3 51 54 50
3 50 106 48
3 48 106 104
3 48 104 102
3 101 102 99
3 106 50 54
3 61 121 118
3 61 118 116
3 61 116 56
3 64 126 63
3 63 126 122
3 93 122 92
3 126 92 122
3 129 66 140
3 130 69 74
3 130 74 78
3 80 84 132
3 132 84 131
3 141 142 143
3 144 91 145
3 99 105 146
3 99 146 96
3 96 146 97
3 119 120 146
3 97 146 120
3 119 146 124
3 124 146 105
3 108 110 107
3 107 110 125
3 115 117 114
3 114 117 123
3 85 147 86
3 86 147 34
3 34 147 148
3 147 149 148
3 147 85 149
3 148 149 138
3 34 148 33
3 148 138 33
3 138 149 83
3 83 149 150
3 133 151 130
3 152 142 151
3 153 151 142
3 152 151 133
3 143 142 154
3 152 133 134
3 90 87 86
3 109 111 108
3 110 111 112
3 112 155 113
3 113 155 57
3 57 156 58
3 58 156 109
3 112 111 155
3 111 156 155
3 111 109 156
3 155 156 57
3 143 157 141
3 141 157 144
3 157 87 144
3 157 158 87
3 144 87 90
3 144 90 91
3 151 159 130
3 130 159 69
3 69 140 66
3 129 140 128
3 128 140 160
3 140 159 160
3 140 69 159
3 160 159 151
3 128 160 127
3 127 160 161
3 127 161 145
3 161 162 145
3 161 153 162
3 145 162 141
3 141 162 142
3 162 153 142
3 153 161 151
3 151 161 160
3 127 145 91
3 144 145 141
3 85 150 149
3 83 150 134
3 134 150 163
3 150 164 163
3 150 85 164
3 163 164 158
3 134 154 152
3 152 154 142
3 143 154 165
3 154 163 165
3 154 134 163
3 165 163 158
3 158 164 87
3 87 164 85
3 143 165 157
3 157 165 158

CELL_TYPES 328
5
5
5
5
5
5
5
5
5
5
5
5
5
5
5
5
5
5
5
5
5
5
5
5
5
5
5
5
5
5
5
5
5
5
5
5
5
5
5
5
5
5
5
5
5
5
5
5
5
5
5
5
5
5
5
5
5
5
5
5
5
5
5
5
5
5
5
5
5
5
5
5
5
5
5
5
5
5
5
5
5
5
5
5
5
5
5
5
5
5
5
5
5
5
5
5
5
5
5
5
5
5
5
5
5
5
5
5
5
5
5
5
5
5
5
5
5
5
5
5
5
5
5
5
5
5
5
5
5
5
5
5
5
5
5
5
5
5
5
5
5
5
5
5
5
5
5
5
5
5
5
5
5
5
5
5
5
5
5
5
5
5
5
5
5
5
5
5
5
5
5
5
5
5
5
5
5
5
5
5
5
5
5
5
5
5
5
5
5
5
5
5
5
5
5
5
5
5
5
5
5
5
5
5
5
5
5
5
5
5
5
5
5
5
5
5
5
5
5
5
5
5
5
5
5
5
5
5
5
5
5
5
5
5
5
5
5
5
5
5
5
5
5
5
5
5
5
5
5
5
5
5
5
5
5
5
5
5
5
5
5
5
5
5
5
5
5
5
5
5
5
5
5
5
5
5
5
5
5
5
5
5
5
5
5
5
5
5
5
5
5
5
5
5
5
5
5
5
5
5
5
5
5
5
5
5
5
5
5
5
5
5
5
5
5
5
5
5
5
5
5
5
5
5
5
5
5
5

CELL_DATA 328
SCALARS cell_data_0 double
LOOKUP_TABLE default
1.6126352121e-07
2.80502871803e-08
1.66924205831e-08
2.13521004225e-08
3.79450393798e-08
3.26978279156e-07
5.61590066171e-07
4.39969225978e-08
3.15506602085e-07
2.98659633285e-07
1.0455551757e-07
6.55332596988e-08
2.94359832867e-08
2.18789484487e-08
5.75565125383e-08
3.79077354201e-08
3.61322993109e-09
2.29571944283e-08
3.38918588506e-08
1.96919389251e-07
7.94634412809e-08
7.20847248953e-08
2.16555377778e-07
6.77303414463e-07
4.38354155339e-06
2.61473951749e-09
8.68004811714e-08
2.68357503878e-07
3.05607323162e-07
2.87318078757e-07
1.71766242059e-07
3.8255205194e-07
9.27563223743e-08
1.52895529448e-07
1.95370420732e-08
2.67700123686e-07
4.32375381864e-08
3.00182832355e-07
9.33440121644e-08
4.47815396276e-09
2.40986643803e-07
3.27522218666e-07
1.15801612188e-07
2.82775702309e-07
8.82202239334e-08
9.09910370216e-08
1.2824558901e-06
3.67975874886e-07
3.02822515131e-06
2.11934699858e-06
8.3972341781e-07
8.74101597432e-07
9.09358032426e-08
7.55878554026e-09
7.99106545548e-08
1.17904054764e-07
2.44934045835e-07
4.51537367384e-08
2.3086838146e-07
1.1124753821e-06
3.83378024436e-08
5.55380403315e-08
7.74216557483e-08
1.82407508772e-07
2.56894162469e-08
3.66505439501e-08
6.21915283524e-08
6.64567568714e-08
1.16450692425e-08
6.69096312595e-08
2.13005067834e-08
3.6159072128e-08
4.4238564222e-08
5.49403173618e-08
1.80887798007e-06
1.37064867329e-07
1.30928101212e-07
3.7955589433e-08
2.39256607474e-05
1.80272294445e-06
2.5921020735e-06
7.43323639407e-08
1.81443335394e-07
7.90165750083e-07
6.20058914411e-07
6.42579219812e-06
7.49360555796e-06
4.58845876638e-06
1.51971269964e-06
1.43015138484e-07
6.39015176955e-08
1.84010211266e-07
3.74236547e-08
1.40096600136e-07
4.41892413877e-07
2.34709126259e-06
1.23731339082e-06
1.77183456325e-05
1.98033286255e-06
1.2198662728e-06
2.82895139878e-06
9.04243429251e-06
1.08126198444e-06
2.69777186625e-06
2.10268106759e-06
1.91356180678e-06
2.97102872032e-07
1.36527445328e-05
2.35795454704e-06
8.75723529122e-07
1.01745682105e-06
9.43400622076e-08
6.60641097633e-07
1.9370599211e-06
5.21572489718e-06
6.78494922726e-06
5.98389223111e-06
1.56380802809e-05
4.24962620881e-06
5.72396747681e-06
4.30687405319e-07
3.61481397321e-07
2.42954456293e-06
4.43935151121e-07
6.86337023923e-08
3.44444368445e-08
7.10993078707e-08
5.84466345025e-09
1.08654466126e-08
9.36217230462e-08
1.10456824932e-06
1.08456568186e-07
1.72351207775e-07
3.928015853e-07
1.02926097541e-07
7.87810028697e-08
2.34442805922e-07
5.3750348888e-08
2.80437289618e-06
2.75301075131e-06
1.34056412213e-07
1.06417979133e-07
3.81612119471e-07
5.96726694682e-07
3.98595832007e-07
1.82779398399e-08
6.74836470207e-07
4.31953602392e-07
2.96699374365e-07
9.42094798042e-07
4.99701068393e-07
1.18418939279e-07
2.45116606888e-08
7.09841228313e-08
1.87130102709e-07
6.63433687498e-08
3.27560791523e-06
2.35791019171e-07
2.16730276332e-06
1.66113484287e-07
1.70823792592e-07
1.26468186759e-05
2.48677520573e-06
3.13064780559e-06
7.59845243189e-07
5.56380478141e-06
2.24249902651e-06
1.33358019259e-06
1.94605428565e-06
3.23316857498e-08
8.6936761986e-08
7.55091853558e-09
6.71273637701e-08
5.79088903671e-07
1.02368022979e-07
4.38881526273e-08
5.14355436331e-08
1.20690441752e-07
6.39457375892e-08
1.28406413674e-07
1.77299841271e-07
2.46051141111e-06
2.82886726298e-07
6.67351387823e-08
1.1599901054e-07
2.31431530659e-06
4.39886619333e-07
1.06073038067e-07
3.93007835362e-07
1.68505668106e-07
1.02316810231e-07
8.33244483335e-07
2.06020966703e-07
8.73041476062e-08
1.65002753581e-07
2.87782465428e-07
1.13034445134e-08
1.48478956783e-09
7.53748808596e-08
7.56345678737e-08
2.93914939413e-07
1.65709790688e-07
2.72554578568e-08
6.34092477734e-08
1.05152963285e-07
4.4787294564e-08
1.60558643559e-07
2.43851825589e-08
1.4033154911e-07
2.63155198902e-08
4.93894203853e-08
1.7738123065e-07
6.41216151171e-07
1.17241272784e-07
3.63255035923e-08
1.82531629388e-05
1.1111103093e-08
8.53586498791e-07
1.03383074031e-06
7.66806985096e-08
6.84696317691e-06
3.2725902503e-07
1.24343928192e-06
1.56571534742e-06
1.1204194879e-06
6.3541318635e-07
3.80793805046e-07
5.60856185271e-07
7.25197174481e-07
7.61692364402e-08
5.45330328006e-06
5.03391887828e-07
3.73014934792e-07
7.77132018573e-07
1.35299999793e-07
3.30915570936e-06
1.06345014615e-06
2.05003884424e-07
9.60408717985e-08
2.5754494293e-07
5.02987766143e-07
5.41558228442e-06
1.65553934573e-07
1.64003156294e-07
3.49683274269e-08
5.38313194332e-08
7.05774656207e-09
1.80336650823e-06
4.03617892332e-06
3.4106788608e-06
1.79060689271e-06
3.7265821388e-06
3.04919975878e-06
2.68962570642e-06
5.29728633798e-06
7.72637291471e-06
4.40305315555e-06
1.68011628566e-06
1.24763579718e-05
9.08601953848e-06
2.75612212262e-06
7.55639618376e-07
2.37628254702e-06
1.3633030614e-05
4.20940624038e-06
1.016000943e-05
9.63526557533e-06
2.93233721537e-07
2.41066850427e-06
8.7526608887e-07
1.83740672401e-08
2.35514577013e-06
2.63974462265e-06
5.79315151085e-07
6.16453275929e-07
2.46767883638e-07
2.71611096643e-06
1.67183071595e-07
2.90196494862e-07
4.09741662212e-06
1.14559184146e-06
3.60864673544e-06
5.21752734405e-06
2.20308566182e-05
9.52995718949e-07
2.09598305458e-06
3.65024812689e-06
7.47270717578e-07
2.04704714633e-06
7.9350029556e-06
3.9754099922e-07
6.88350174775e-07
9.47011446343e-07
1.07978082163e-06
7.16724991139e-07
2.68701240603e-06
4.02638950921e-06
6.71869348986e-07
6.10389945791e-06
2.06201776216e-06
1.14249453808e-06
1.85480206243e-06
2.01307268819e-06
2.47914953382e-06
1.99873674456e-06
1.22307160979e-06
6.05103708594e-07
5.875008957e-06
3.80217805723e-06
2.4978225591e-07
9.58177330427e-07
3.27200760073e-07
1.12717400408e-05
3.1592266077e-07
2.89835383323e-07
7.71094286754e-08
1.54841739537e-06
1.44078751621e-06
3.3399176961e-07
3.23394352022e-07
1.55478210056e-06
1.63710183252e-06
3.94249251648e-07
3.2987615013e-06
2.23682962295e-06
1.56982005221e-06
2.08570782794e-06
2.71865194624e-06

