# vtk DataFile Version 3.0
File Name: Molecule/arg/arg_9.0-4.vtk
ASCII
DATASET UNSTRUCTURED_GRID
FIELD FieldData 1
TIME 1 1 double
0.0
POINTS 1613 double
-3.403 0.327 1.604
-3.456 0.18 1.295
-3.138 0.005 1.702
-3.188 -0.134 1.407
-2.981 -0.361 1.858
-3.034 -0.507 1.549
-3.435 0.072 0.968
-3.169 -0.238 1.095
-3.014 -0.616 1.222
-3.344 0.007 0.641
-3.081 -0.299 0.784
-2.922 -0.68 0.895
-3.186 -0.009 0.334
-2.93 -0.315 0.491
-2.764 -0.697 0.588
-2.971 0.024 0.066
-2.725 -0.284 0.235
-2.549 -0.664 0.32
-2.984 0.046 0.042
-2.699 -0.017 -0.133
-2.712 0.004 -0.155
-2.471 -0.12 -0.363
-2.484 -0.099 -0.385
-2.302 -0.279 -0.611
-2.316 -0.256 -0.635
-2.2 -0.483 -0.862
-2.216 -0.458 -0.889
-3.183 0.343 -0.145
-2.753 0.07 -0.229
-2.923 0.323 -0.389
-2.57 0.022 -0.532
-2.724 0.253 -0.678
-2.446 -0.093 -0.847
-2.6 0.138 -0.992
-2.39 -0.269 -1.153
-2.559 -0.016 -1.312
-3.263 0.702 -0.308
-2.991 0.63 -0.528
-2.786 0.532 -0.805
-2.663 0.417 -1.12
-2.628 0.291 -1.452
-3.216 1.083 -0.43
-2.951 0.955 -0.632
-2.75 0.829 -0.899
-2.626 0.714 -1.214
-2.587 0.616 -1.556
-3.047 1.443 -0.495
-2.807 1.262 -0.688
-2.618 1.109 -0.95
-2.495 0.993 -1.265
-2.443 0.924 -1.611
-2.776 1.74 -0.497
-2.575 1.516 -0.689
-2.407 1.34 -0.951
-2.283 1.225 -1.266
-2.211 1.177 -1.613
-2.622 1.932 -0.429
-2.515 1.601 -0.663
-2.37 1.782 -0.599
-2.287 1.501 -0.894
-2.142 1.682 -0.83
-2.106 1.446 -1.176
-1.952 1.639 -1.108
-1.982 1.439 -1.492
-1.81 1.654 -1.416
-2.663 2.202 -0.218
-2.227 2.054 -0.482
-2.264 2.299 -0.29
-1.881 2.228 -0.637
-1.918 2.473 -0.445
-1.615 2.438 -0.879
-1.656 2.708 -0.668
-2.655 2.421 0.048
-2.257 2.498 -0.049
-1.911 2.672 -0.204
-1.647 2.927 -0.402
-2.597 2.577 0.351
-2.204 2.639 0.226
-1.858 2.813 0.071
-1.59 3.083 -0.1
-2.495 2.657 0.67
-2.111 2.713 0.516
-1.765 2.886 0.361
-1.488 3.163 0.22
-2.797 2.625 0.927
-2.251 2.77 1.005
-2.52 2.741 1.234
-2.033 3.002 1.293
-2.299 2.974 1.519
-1.863 3.333 1.507
-2.155 3.302 1.755
-3.035 2.497 1.22
-2.731 2.627 1.494
-2.507 2.861 1.775
-2.385 3.178 2.038
-3.186 2.284 1.521
-2.865 2.437 1.761
-2.64 2.674 2.039
-2.53 2.972 2.328
-3.324 2.06 1.667
-2.975 2.319 1.779
-3.111 2.099 1.924
-2.815 2.412 2.059
-2.958 2.183 2.21
-2.717 2.558 2.345
-2.872 2.307 2.509
-3.419 1.801 1.788
-3.205 1.843 2.043
-3.055 1.917 2.334
-2.979 2.017 2.644
-3.552 1.393 1.822
-3.202 1.735 2.161
-3.319 1.374 2.191
-3.094 1.732 2.585
-3.21 1.376 2.614
-3.107 1.793 3.017
-3.235 1.399 3.05
-3.548 0.964 1.825
-3.316 0.994 2.194
-3.206 1.001 2.617
-3.231 0.984 3.053
-3.408 0.559 1.798
-3.191 0.635 2.17
-3.084 0.647 2.593
-3.095 0.593 3.027
-3.105 0.348 2.085
-3.1 0.088 1.867
-2.97 0.105 2.152
-3.031 0.459 2.387
-2.908 0.238 2.449
-3.027 0.542 2.707
-2.911 0.332 2.766
-2.978 0.383 3.085
-2.865 -0.346 2.113
-2.52 -0.7 2.425
-2.789 -0.06 2.411
-2.48 -0.378 2.69
-2.828 0.19 2.745
-2.523 -0.123 3.02
-2.645 0.041 3.387
-2.483 -1.039 2.238
-2.249 -0.827 2.688
-2.214 -1.15 2.51
-2.072 -0.978 3.011
-2.036 -1.312 2.826
-2.003 -1.142 3.367
-1.962 -1.514 3.162
-2.359 -1.33 2.011
-2.096 -1.427 2.294
-1.914 -1.599 2.602
-1.826 -1.833 2.912
-2.159 -1.55 1.761
-1.905 -1.637 2.055
-1.716 -1.817 2.356
-1.606 -2.075 2.638
-1.897 -1.684 1.507
-1.655 -1.765 1.813
-1.457 -1.949 2.105
-1.318 -2.222 2.359
-1.592 -1.721 1.268
-1.365 -1.8 1.585
-1.156 -1.986 1.869
-0.984 -2.263 2.097
-1.863 -1.667 1.068
-1.351 -1.766 0.91
-1.605 -1.715 0.723
-1.133 -1.941 0.578
-1.396 -1.889 0.384
-0.96 -2.23 0.303
-1.258 -2.17 0.083
-2.101 -1.536 0.862
-1.827 -1.593 0.529
-1.627 -1.762 0.183
-1.519 -2.027 -0.144
-2.291 -1.337 0.66
-2.006 -1.406 0.34
-1.812 -1.569 -0.013
-1.728 -1.808 -0.365
-2.422 -1.081 0.476
-2.129 -1.167 0.168
-1.939 -1.32 -0.192
-1.872 -1.528 -0.567
-2.487 -0.785 0.321
-2.189 -0.889 0.022
-2.002 -1.032 -0.342
-1.943 -1.202 -0.738
-2.264 -0.668 -0.026
-2.322 -0.554 -0.027
-2.141 -0.611 -0.433
-2.203 -0.492 -0.433
-2.131 -0.618 -0.861
-2.114 -0.682 -1.181
-2.003 -0.9 -0.803
-1.987 -0.962 -1.114
-1.927 -1.264 -1.052
-2.312 -0.441 -1.376
-2.242 -0.501 -1.651
-2.116 -0.68 -1.269
-2.044 -0.743 -1.552
-1.985 -0.96 -1.159
-1.906 -1.028 -1.469
-1.837 -1.343 -1.406
-2.121 -0.506 -1.916
-1.92 -0.747 -1.824
-1.77 -1.033 -1.766
-1.682 -1.348 -1.746
-1.975 -0.256 -2.322
-1.864 -0.768 -1.888
-1.672 -0.441 -2.421
-1.897 0.192 -2.527
-1.57 0.147 -2.691
-1.971 0.497 -2.491
-1.495 0.306 -2.776
-1.576 0.637 -2.736
-1.198 0.386 -3.152
-1.296 0.786 -3.104
-2.011 0.787 -2.372
-1.619 0.951 -2.607
-1.347 1.167 -2.948
-2.011 1.039 -2.18
-1.619 1.224 -2.399
-1.348 1.496 -2.696
-1.72 1.257 -2.235
-1.631 1.561 -2.005
-1.505 1.361 -2.45
-1.417 1.659 -2.224
-1.259 1.801 -2.466
-1.479 1.817 -1.75
-1.268 1.91 -1.974
-1.107 2.057 -2.211
-1.379 2.028 -1.517
-1.683 1.878 -1.211
-1.325 2.288 -1.323
-1.617 2.145 -1.029
-1.319 2.584 -1.178
-1.091 2.821 -1.245
-1.159 2.356 -1.471
-0.94 2.583 -1.535
-1.087 2.175 -1.825
-0.858 2.412 -1.893
-0.852 2.322 -2.287
-0.816 3.013 -1.267
-0.676 2.767 -1.557
-0.583 2.604 -1.915
-0.543 2.537 -2.312
-0.463 3.323 -1.084
-0.539 2.942 -1.474
-0.291 3.16 -1.345
-0.306 2.923 -1.738
-0.135 3.073 -1.649
-0.131 2.956 -2.042
-0.005 3.067 -1.976
-0.026 3.04 -2.368
0.091 3.143 -2.307
0.002 3.17 -2.695
0.146 3.297 -2.62
-0.048 3.337 -3.001
0.158 3.517 -2.895
0.018 3.374 -0.943
0.047 3.196 -1.246
0.098 3.097 -1.58
0.167 3.085 -1.926
0.251 3.16 -2.26
0.343 3.317 -2.562
0.438 3.547 -2.812
0.466 3.148 -0.891
0.362 3.037 -1.209
0.315 2.988 -1.555
0.328 3.005 -1.907
0.4 3.085 -2.243
0.526 3.225 -2.541
0.699 3.415 -2.782
0.725 3.006 -0.709
0.553 2.897 -1.196
0.801 2.761 -1.021
0.699 2.74 -1.539
0.958 2.598 -1.356
0.892 2.689 -1.891
1.182 2.53 -1.686
0.926 2.805 -0.509
0.994 2.568 -0.829
1.159 2.397 -1.156
1.407 2.305 -1.463
1.057 2.557 -0.305
1.12 2.33 -0.634
1.29 2.148 -0.952
1.553 2.026 -1.234
1.025 2.711 0.026
1.24 2.204 -0.113
1.21 2.35 0.201
1.539 1.918 0.039
1.507 2.071 0.37
0.916 2.809 0.362
1.106 2.444 0.521
1.398 2.17 0.706
0.737 2.845 0.68
0.936 2.478 0.823
1.22 2.206 1.024
0.406 3.093 0.833
0.701 2.629 1.02
0.405 2.851 1.157
0.756 2.48 1.392
0.466 2.698 1.526
0.897 2.411 1.765
0.584 2.646 1.91
1.112 2.426 2.108
0.748 2.699 2.276
0.16 3.357 0.714
0.198 3.058 1.115
-0.02 3.292 1.009
0.05 3.076 1.433
-0.157 3.299 1.333
-0.029 3.146 1.769
-0.243 3.376 1.665
-0.034 3.266 2.099
-0.271 3.52 1.984
-0.152 3.531 0.588
-0.298 3.447 0.896
-0.422 3.446 1.225
-0.515 3.528 1.554
-0.572 3.688 1.862
-0.504 3.599 0.465
-0.612 3.508 0.787
-0.72 3.504 1.122
-0.823 3.588 1.447
-0.913 3.754 1.744
-0.865 3.557 0.357
-0.933 3.47 0.691
-1.026 3.468 1.03
-1.137 3.551 1.353
-1.261 3.713 1.639
-1.202 3.407 0.273
-1.234 3.337 0.616
-1.312 3.341 0.958
-1.432 3.42 1.279
-1.587 3.569 1.558
-1.488 3.12 0.569
-1.554 3.135 0.914
-1.681 3.207 1.233
-0.038 3.383 2.443
0.177 3.023 2.187
0.173 3.139 2.526
0.443 2.83 2.247
0.439 2.952 2.602
0.743 2.833 2.666
-0.112 3.436 2.794
0.099 3.191 2.873
0.361 3.007 2.966
0.658 2.893 3.065
-0.253 3.42 3.128
-0.039 3.176 3.204
0.216 2.991 3.311
0.499 2.875 3.445
-0.449 3.338 3.421
-0.233 3.094 3.494
0.013 2.905 3.616
0.276 2.781 3.779
-0.687 3.194 3.654
-0.468 2.951 3.724
-0.233 2.756 3.857
0.006 2.617 4.044
-1.016 3.185 3.753
-0.58 2.815 3.881
-0.962 2.805 3.996
-1.359 3.167 3.763
-1.359 2.784 4.008
-1.693 3.142 3.685
-1.746 2.755 3.917
-1.995 3.111 3.523
-2.096 2.719 3.73
-2.244 3.076 3.289
-2.384 2.678 3.458
-2.423 3.039 2.998
-2.593 2.636 3.121
-2.521 3.004 2.671
-2.706 2.595 2.741
-0.749 2.537 4.164
-0.29 2.688 3.939
-0.455 2.418 4.213
-0.16 2.345 4.321
-0.912 2.194 4.368
-0.613 2.086 4.412
-0.321 2.009 4.521
-1.061 1.806 4.483
-0.757 1.709 4.523
-0.466 1.628 4.634
-1.28 2.135 4.399
-1.452 1.611 4.604
-1.641 1.894 4.531
-1.543 2.398 4.242
-1.868 2.121 4.396
-1.833 2.577 4.025
-2.118 2.276 4.208
-2.128 2.66 3.763
-2.373 2.347 3.982
-2.409 2.64 3.473
-2.615 2.33 3.732
-2.655 2.52 3.176
-2.827 2.227 3.476
-2.849 2.307 2.894
-2.995 2.043 3.232
-1.464 1.095 4.666
-1.124 1.592 4.538
-1.135 1.082 4.6
-0.789 1.598 4.548
-0.801 1.064 4.613
-0.48 1.041 4.705
-1.655 0.731 4.634
-1.177 0.938 4.601
-1.359 0.592 4.57
-0.882 0.784 4.614
-1.066 0.434 4.582
-0.595 0.641 4.705
-0.793 0.265 4.671
-0.333 0.517 4.869
-0.555 0.096 4.831
-1.956 0.515 4.553
-1.452 0.461 4.543
-1.733 0.259 4.468
-1.246 0.178 4.538
-1.527 -0.025 4.463
-1.051 -0.1 4.621
-1.352 -0.318 4.54
-0.878 -0.357 4.785
-1.219 -0.603 4.693
-2.226 0.322 4.369
-1.985 0.079 4.295
-1.78 -0.205 4.29
-1.624 -0.511 4.354
-1.526 -0.822 4.484
-2.442 0.172 4.097
-2.187 -0.062 4.041
-1.982 -0.346 4.035
-1.841 -0.663 4.081
-1.772 -0.993 4.174
-2.586 0.075 3.76
-2.321 -0.152 3.726
-2.117 -0.436 3.72
-1.986 -0.76 3.742
-1.935 -1.103 3.791
-2.377 -0.184 3.377
-2.172 -0.468 3.371
-2.045 -0.795 3.367
-0.642 -0.546 4.955
-0.314 -0.097 5.005
-0.383 -0.749 5.065
-0.05 -0.304 5.117
-0.111 -0.96 5.11
0.227 -0.52 5.163
0.164 -1.171 5.088
0.507 -0.734 5.141
0.313 -1.496 5.018
0.465 -1.039 5.071
0.607 -1.35 5.005
0.763 -0.915 5.131
0.905 -1.226 5.065
1.043 -0.806 5.264
1.192 -1.132 5.195
0.466 -1.795 4.876
0.753 -1.635 4.869
1.051 -1.511 4.928
1.345 -1.43 5.052
0.615 -2.054 4.667
0.895 -1.882 4.669
1.194 -1.758 4.729
1.494 -1.689 4.843
0.754 -2.261 4.401
1.028 -2.08 4.415
1.327 -1.956 4.475
1.633 -1.896 4.577
0.877 -2.406 4.09
1.145 -2.219 4.118
1.444 -2.095 4.178
1.756 -2.041 4.267
0.978 -2.484 3.749
1.242 -2.293 3.792
1.54 -2.169 3.852
1.857 -2.119 3.925
1.052 -2.491 3.392
1.313 -2.3 3.451
1.611 -2.176 3.511
1.931 -2.126 3.568
1.096 -2.426 3.036
1.355 -2.237 3.111
1.654 -2.114 3.171
1.975 -2.061 3.213
1.109 -2.292 2.698
1.367 -2.11 2.788
1.665 -1.986 2.848
1.988 -1.927 2.874
1.089 -2.096 2.391
1.348 -1.922 2.495
1.646 -1.798 2.555
1.968 -1.731 2.567
1.037 -1.846 2.131
1.299 -1.683 2.246
1.597 -1.56 2.306
1.916 -1.481 2.307
0.796 -2.146 2.122
0.866 -1.735 1.801
0.66 -1.991 1.794
0.779 -1.673 1.428
0.591 -1.907 1.421
0.784 -1.666 1.039
0.596 -1.899 1.033
0.88 -1.714 0.666
0.674 -1.97 0.659
1.061 -1.813 0.337
0.819 -2.113 0.328
0.482 -2.37 2.114
0.391 -2.182 1.787
0.347 -2.08 1.414
0.352 -2.073 1.026
0.406 -2.161 0.652
[...]
CELL_DATA 3222
SCALARS cell_data_0 double
LOOKUP_TABLE default
1.63775463985e-11
9.23372261061e-10
1.54210608633e-09
2.10303421158e-09
8.66570437745e-10
2.71119478672e-09
5.4050996064e-10
1.28695353218e-09
3.25039596182e-09
2.31707213006e-09
2.65011808578e-09
1.42805440738e-09
1.2641973231e-10
5.9432884444e-10
3.00859806515e-10
5.96232897564e-11
1.78697067385e-09
1.84461902924e-09
1.04267678419e-09
5.0695243752e-10
6.60586804877e-11
4.39583919332e-11
8.9731022387e-11
1.29108314554e-10
2.1196283791e-10
3.48911434713e-11
5.64606721289e-11
4.70320800244e-11
9.43543794589e-10
1.65666113742e-09
2.36464610051e-09
9.72791424927e-10
4.17233128006e-10
5.21322969331e-11
5.38319618741e-10
2.54835169993e-10
6.54286022283e-10
8.94131442666e-10
6.91020030625e-10
1.65831071019e-12
2.4186939425e-11
1.21024201453e-10
6.13699689145e-10
9.11160180272e-11
7.37370066272e-10
1.18866730169e-09
3.42579369727e-10
1.53057695981e-10
6.06198699861e-10
2.51089007107e-10
5.10637773063e-11
3.82845912091e-10
7.23958770219e-10
6.44513603684e-10
7.18703333988e-10
3.23474417921e-10
2.56524945905e-10
5.97889777579e-10
6.67180483091e-10
7.26711161464e-10
7.06922932886e-10
2.8270445759e-10
1.01575338349e-10
8.22180909868e-10
2.04152130114e-10
2.3988362406e-10
1.02548512073e-09
5.32774612885e-10
1.06943060058e-09
8.13771683192e-10
9.44366867175e-11
9.99513378922e-11
4.31827835072e-10
4.36664289244e-10
1.24531439015e-09
1.09740606446e-09
8.60026089428e-10
1.55235769158e-10
2.94751786628e-10
4.9913155346e-11
1.42832983537e-10
4.11771987615e-10
1.10628966232e-10
1.22110003012e-10
1.12860272885e-10
1.05889091475e-09
1.1315479388e-09
2.1018061918e-09
2.4564811343e-09
6.91403527488e-09
1.01496546403e-08
1.2844622119e-08
3.99743161251e-10
1.13591303999e-10
1.13901138584e-08
1.33041275354e-08
1.26442328593e-08
5.53272383071e-10
3.66197884372e-10
9.76594173855e-09
3.83441633189e-09
2.54998089713e-09
3.0305556113e-09
9.41504532852e-10
1.80892859182e-09
1.12839037797e-09
1.04735883391e-09
4.14350093382e-10
2.67244885991e-11
2.94814090834e-09
2.87942193605e-09
2.23177445235e-09
1.09890421063e-08
1.21645402135e-08
5.40182759177e-11
7.46136759421e-10
2.61447488903e-09
1.30677536267e-09
8.03369206235e-09
1.72885728699e-10
1.89504180608e-09
3.46493749462e-09
1.22020040965e-08
1.15757676726e-08
9.32629142004e-09
1.01790374129e-08
2.2832407812e-09
9.46614458555e-10
2.28397112907e-10
1.12093903488e-08
2.20201963758e-08
3.61877656481e-09
4.23608071625e-09
6.74342155392e-10
1.27765273539e-08
1.60668892348e-08
1.48853273393e-09
5.4844934896e-09
2.78553848834e-09
4.22719559573e-09
1.06037055103e-09
6.48387858436e-10
1.32190661758e-08
1.86290258278e-08
1.42151632093e-11
3.79771730137e-09
2.27087896299e-09
9.45316849217e-10
1.21552571751e-08
8.68868053831e-10
2.14225239292e-09
1.39686387882e-09
7.20123727894e-10
1.10293403069e-09
1.07673517962e-09
2.55776517179e-09
2.5818161305e-09
6.12180029515e-10
2.14524721164e-09
1.05430935469e-09
4.28007035819e-10
1.59466895776e-09
4.08774307851e-09
7.35755784469e-09
1.91152913412e-10
1.68695756579e-09
1.5662904266e-09
8.66605636632e-10
1.92221446586e-09
5.38220673717e-09
2.72257665024e-09
7.05328109142e-10
8.83908872512e-10
2.02270692334e-10
8.04697608223e-10
1.35572903056e-09
1.84689690194e-09
1.34335800233e-09
1.35301844382e-09
2.00581436609e-09
4.2759022253e-10
2.05277843777e-09
2.49532776012e-09
1.25568771246e-09
1.60403062204e-09
2.47609934511e-09
4.00303953699e-09
3.2485240187e-09
2.20610569219e-09
2.3761888117e-09
2.70978813274e-09
8.91510149916e-09
7.21239543869e-09
4.14310408354e-09
2.61325325343e-09
3.58248952013e-09
4.88894688728e-09
3.70005150457e-09
7.8420493906e-10
7.44463013569e-10
2.93416831497e-09
2.96739627868e-09
2.57512932054e-09
4.15106089063e-09
3.15137551421e-09
7.9095861739e-09
1.66333723252e-08
1.48878380955e-08
3.43280272803e-09
1.98114518324e-09
7.8121053544e-09
1.23257396129e-08
1.04281133417e-08
4.09935270967e-09
3.71076056735e-10
1.41522578561e-08
1.44041609003e-08
2.57658871406e-08
2.90761936932e-09
8.12775495609e-10
1.32542730049e-08
1.35083050792e-08
2.22407526997e-08
8.48463162819e-09
6.978820506e-10
2.37049954948e-10
1.49012763076e-10
4.04625629914e-10
6.99054169641e-10
9.16709417475e-10
7.00379128037e-10
1.01052172993e-09
8.50512401295e-10
1.44081850555e-10
2.83267308639e-09
1.44316265446e-09
1.50155821151e-09
1.03932912749e-09
2.40703918926e-10
1.53369573474e-10
1.02731140615e-09
7.6978037219e-12
6.43631111046e-10
3.02204705035e-10
9.40661063446e-11
6.23349587093e-11
8.56588215598e-10
1.21215499735e-10
5.57339528636e-10
1.54449497084e-09
2.4032953253e-10
3.2000505882e-10
6.75010183191e-10
8.85875531032e-10
9.81077698234e-10
1.30072774352e-10
2.71901452129e-10
1.35304162834e-11
2.85699989877e-10
6.91279289367e-10
4.16747523032e-10
4.1464651246e-10
3.33495459822e-10
1.48841387742e-10
3.05677302175e-09
4.6612442165e-10
8.64263220418e-11
5.29424001849e-10
3.36897417075e-11
5.45435046698e-10
7.27419324117e-10
7.85252466327e-10
3.22542563184e-11
2.8364372159e-10
1.87497703304e-09
6.82216769428e-12
4.02442731147e-10
1.73383294818e-10
1.12686098313e-09
1.11354421191e-09
2.09115988967e-09
1.09507996365e-10
3.97947101106e-10
2.3986145095e-11
7.94832956752e-10
8.13939949817e-10
1.50141460486e-10
4.57198321874e-11
3.89387225851e-10
5.16077964784e-10
3.61514505131e-11
3.59716222988e-10
4.42464667327e-10
5.14429358648e-10
3.52764945066e-10
2.92971546811e-10
4.81946514961e-10
8.93907250842e-11
1.47893511443e-10
1.48361468347e-10
1.1874431902e-11
1.46512770615e-10
6.70584069605e-11
2.68687096706e-10
3.66525330099e-10
3.23549544401e-10
3.06720249015e-10
3.27437116161e-10
6.23917667853e-11
9.54707793108e-11
3.4894077815e-10
2.85705490079e-10
2.34638580253e-10
1.21824169394e-11
1.12774919253e-10
1.79271494851e-10
9.08717971223e-10
1.57785651874e-10
5.82604178007e-11
2.05666617019e-10
1.13867873882e-10
1.86932543063e-11
5.4191395533e-11
1.25426892641e-10
7.43343274444e-12
4.0455507286e-10
3.66619053519e-10
2.8858946159e-10
3.49109040977e-10
2.28929120636e-10
2.51619722812e-10
1.63180886776e-10
9.01858735344e-10
1.04757965025e-09
2.53250610507e-10
1.70111053038e-10
5.68065905671e-10
5.37941068472e-10
1.13030543747e-10
3.21833752787e-10
1.00112679836e-09
1.04152648313e-09
2.11396572517e-10
3.87453339611e-10
2.98992047517e-11
2.00793703054e-09
1.11015523617e-09
9.21117885159e-10
1.15868629402e-09
1.78145059079e-09
1.20679147701e-09
5.8980711076e-10
8.34595262727e-10
8.43669277804e-10
1.24986623971e-09
3.37085858976e-10
3.86319917249e-10
8.63956212207e-10
1.02999044982e-09
9.71443082006e-10
2.56353963947e-10
3.32114514998e-10
3.79550862872e-10
2.53176787716e-10
2.11784187253e-10
1.22832540583e-09
8.27560291186e-10
3.923131863e-10
4.43739805981e-10
8.02544722401e-10
4.70883550385e-10
5.23201799779e-10
1.61386326639e-09
1.03582713094e-09
3.40402880114e-10
2.00760191582e-11
4.89219744299e-10
3.48318268278e-10
3.09498680635e-10
1.29259528087e-09
9.24944659552e-10
3.44955682285e-10
6.63854208494e-10
6.68843233733e-10
2.42448794173e-10
4.43755524958e-10
7.08225134845e-11
7.88882436388e-12
1.08132348331e-10
3.29853173794e-10
1.0042449863e-10
6.76889044057e-11
4.62368336302e-11
9.90919378528e-11
3.92030403524e-10
1.83674467832e-10
2.15128453763e-10
4.9085814843e-10
1.60333272615e-10
8.69914523238e-12
1.39342142543e-10
8.00159530229e-12
3.49369423563e-10
3.62488472254e-10
4.09862566277e-10
3.07234246093e-11
4.6356716558e-09
4.94075933992e-09
4.96374108051e-10
5.97097472539e-10
1.25382781682e-10
2.24783854554e-10
3.76161543204e-10
1.34812976153e-09
3.61698998184e-10
5.15195111855e-10
2.7432828548e-10
3.47269212526e-10
9.97913084999e-10
2.03801254327e-11
3.33578690463e-11
2.42533958013e-11
6.79095420318e-11
1.378493393e-10
6.56223226051e-10
1.0478709331e-09
2.61680252049e-10
1.46689085686e-10
2.88645189908e-10
6.79122068238e-10
5.06654375133e-10
3.0163160297e-10
5.34865844178e-10
3.77072488105e-10
9.64870618504e-10
5.91180316201e-10
2.85475667238e-11
3.88166657559e-10
6.86250183446e-10
8.27440857082e-11
4.98717117386e-10
6.18424588477e-10
1.07710842557e-10
4.31935933017e-10
1.20854941607e-09
1.01839794461e-09
4.07299627868e-10
1.94243107328e-10
2.40330112594e-10
2.35267577424e-10
5.03208331568e-10
7.18783572934e-10
6.01050120473e-10
8.04516372183e-10
2.65136114544e-10
6.47487465668e-10
3.91146603928e-10
5.929145402e-10
3.97041382764e-09
1.82493732433e-08
3.19156912666e-10
1.1458655382e-09
8.38732557547e-10
2.34972417131e-10
1.17449219557e-09
9.77107558547e-11
1.11914699226e-09
2.46600989337e-09
4.32921653404e-10
3.06819330486e-10
6.95868890271e-10
8.76799419167e-10
2.30664983736e-09
9.51155936158e-10
5.68413929647e-10
3.16998105708e-09
4.97902942583e-09
3.5470584577e-09
6.15556343775e-10
1.11531778881e-10
1.50581146793e-10
3.91239149599e-10
2.42765146497e-10
4.34393760857e-10
8.87921829901e-10
1.15141142196e-09
1.21120059841e-08
2.14544323916e-08
1.52631230938e-09
7.17801231409e-10
3.13328182868e-10
4.09884095447e-12
1.0689180513e-09
1.62345726861e-09
7.97359661779e-10
2.34899190026e-10
1.733458568e-10
3.68188340237e-10
5.35992941222e-11
6.39091474393e-10
1.2967425516e-09
1.68271294215e-09
5.64002499218e-11
6.11079044159e-10
1.0393762538e-09
2.20453517201e-09
8.14341653955e-10
7.10336356321e-10
1.29694686834e-09
8.28425543273e-10
1.50411519653e-09
1.08646700193e-09
1.49542802145e-09
1.34446672803e-09
5.44951858975e-10
6.73922223324e-10
1.26406840819e-09
7.40603645183e-10
1.7520217989e-09
2.95530977717e-09
2.20116217967e-09
3.28363906785e-09
1.22031736237e-09
2.69452485586e-09
1.34003810607e-09
1.3644767679e-09
4.44816636324e-09
2.2515167138e-09
2.15913849272e-09
6.43359261597e-10
2.9498169142e-09
8.40946634343e-10
2.10680296178e-09
2.81510437826e-09
1.67993935628e-09
1.86953178168e-10
1.07289877213e-09
5.45395983067e-10
2.22052023438e-10
8.70094726603e-10
7.83657558238e-10
1.3653701171e-09
1.05442904282e-09
1.10637037958e-09
9.41383462755e-10
3.25690343139e-10
1.38836133221e-09
1.28350708451e-09
5.42153939667e-11
3.75083377816e-10
2.27559096797e-10
6.51294494351e-11
4.09064099037e-10
7.27393732757e-10
1.08056527627e-09
1.40966533156e-09
4.15225399532e-10
6.3948662109e-10
1.44564283649e-09
1.04439317495e-09
5.90429784247e-10
6.13858140732e-10
8.75554955697e-10
1.00183771159e-09
3.16490958405e-10
1.00758731951e-09
2.47745475121e-10
6.03078421688e-11
6.72276693102e-11
3.86946011985e-11
4.17102943073e-10
3.80727123175e-11
2.72082820424e-10
4.33478260407e-11
5.88897824819e-11
1.69584832608e-10
4.15034562138e-10
1.78913076232e-10
3.35147555653e-10
6.20745010086e-11
4.65771060282e-10
2.41286773503e-10
2.43071313144e-10
1.8643227915e-10
1.51628362503e-10
1.49177563875e-10
1.02797548426e-09
1.65608379468e-09
5.06625924998e-10
3.41928277459e-10
6.42094492825e-10
1.15633686557e-09
1.88603151639e-09
1.29747430371e-10
4.0195663623e-10
1.19252610621e-09
8.80236143019e-10
5.86048685121e-10
9.60577470683e-10
1.80163700947e-09
1.85150320519e-09
9.77358245461e-10
2.35640787871e-11
3.82201500215e-10
1.25461857747e-09
4.90593002134e-10
7.79497660871e-10
3.11971061459e-09
1.7855546103e-09
1.39806845984e-09
1.11520690959e-09
1.00212268205e-09
2.75057685676e-09
1.43366302262e-09
1.37325829582e-09
4.2411701526e-11
3.13752032113e-10
4.13130258329e-10
7.2415277688e-10
7.43238879641e-10
9.36420246649e-10
5.94480343328e-10
9.82981469366e-10
8.18157288415e-10
8.20297254291e-10
2.18507082963e-10
2.98912502057e-10
1.81040503384e-10
2.20260557331e-10
3.01588576507e-11
4.70353382827e-10
5.33632177719e-10
4.41451007458e-10
5.96743367292e-10
1.34075480738e-09
2.13843549221e-09
8.95694796469e-10
4.20382861659e-10
4.01033478661e-10
3.48057056932e-10
4.7315985842e-11
5.86256753144e-10
1.5615335202e-10
3.43114188947e-10
7.76238217023e-10
1.74024786809e-10
1.06911373603e-09
2.94315019006e-10
1.14429327155e-10
1.42021130364e-10
4.22036239673e-10
3.56505596478e-10
6.65170613884e-10
8.7557723525e-10
1.33031300804e-09
1.22009414786e-09
4.78929206071e-10
4.50370047101e-10
5.18722552305e-10
9.27927095898e-10
5.09166374844e-10
3.14224209147e-10
2.76582136741e-10
1.57846410234e-10
7.08633916893e-11
7.6231454663e-10
5.96116722533e-10
9.80197408293e-10
5.61254146027e-10
1.07855281731e-09
1.31263781333e-09
1.35251851919e-09
6.57236509665e-11
1.00509087909e-09
1.38422981335e-09
2.21335715842e-09
1.40756350515e-10
1.6776644268e-11
2.68668639373e-10
2.12889989727e-10
3.32817802547e-10
4.41320510706e-11
2.55429360715e-11
1.8577958118e-10
1.09988985399e-10
2.01680743232e-10
9.97163443698e-10
6.67779779947e-10
6.99537643788e-10
9.42124220482e-11
4.38883509241e-10
7.29857283061e-10
9.31052637245e-10
6.3535074765e-10
4.14825802698e-10
2.80107134259e-10
1.6822988329e-10
3.45579480688e-10
2.81490469202e-10
2.20145578432e-11
1.37896001158e-10
2.39486938511e-10
6.18312707015e-11
2.53136270147e-11
1.61669636613e-10
4.04366623763e-10
5.17956704411e-10
4.29236693102e-10
6.11768430966e-10
5.30510021998e-10
2.88732723015e-10
3.97742556614e-10
2.36127355611e-10
2.69771537526e-10
3.87840046686e-10
2.74830425788e-10
4.43767418981e-11
7.0495067235e-10
5.63925246615e-10
2.81096525233e-10
1.05926509171e-10
1.0692101883e-10
3.33329018513e-10
7.33531382993e-10
8.33811808631e-10
1.07598110833e-09
5.42674989295e-10
8.07071222174e-10
5.80113868674e-10
7.99108958465e-10
1.29388626472e-09
1.23072397028e-09
1.29868448627e-09
7.4403701244e-10
2.78270493292e-10
3.61821403019e-10
8.30528858441e-10
4.4483338752e-10
2.30259267036e-10
5.55004762124e-10
5.85664933254e-10
1.10341348185e-09
1.72014620359e-09
2.3831587193e-09
3.68513685347e-11
2.1420101206e-09
2.95623224744e-09
3.69466912716e-09
2.75182127604e-09
6.21047822889e-10
2.82259602947e-09
4.93200464571e-09
1.20192600878e-09
3.20849940265e-10
5.31051163993e-10
4.95090945208e-10
2.39760552392e-09
2.62140052571e-11
2.60411732992e-09
2.53108404326e-10
3.0286793845e-09
2.32377229657e-09
1.37507090608e-09
2.01955910078e-10
2.18461943208e-09
1.5369660581e-09
7.27171392152e-11
3.72070479618e-09
3.00362314624e-09
4.28268129004e-09
3.84438888705e-09
1.24381833449e-09
2.73212999483e-09
2.50427321172e-09
4.22116145737e-09
4.35677204944e-09
1.23247159382e-10
1.85456441323e-09
6.1599065518e-10
1.20474336969e-09
4.75141144024e-09
2.97871956336e-09
6.48435384808e-09
8.49335699375e-09
1.17412052335e-08
5.56148129479e-09
4.19095533583e-09
2.19977716301e-09
4.12147090353e-09
3.5091639994e-09
5.04533729666e-09
4.95921811742e-09
7.99657412755e-09
5.16383854846e-09
8.82276308118e-09
1.50456342848e-08
2.91548539296e-09
4.68866129935e-10
8.16100761473e-09
6.00855072045e-09
2.55541379631e-09
3.97203533823e-09
9.63426328343e-11
4.91315154085e-10
4.02724545522e-09
6.67487860015e-10
3.52347795146e-10
8.13559500428e-10
2.33519200409e-11
5.87633443096e-10
1.71488853447e-09
1.16544488954e-09
8.21246089667e-10
8.76470065579e-10
3.96794645836e-09
7.51330370128e-09
1.29372566021e-08
1.37055189851e-08
1.57108630798e-08
1.49866318605e-08
1.44012038722e-08
1.05473620184e-08
8.25367483883e-09
2.73507871909e-09
1.71643109257e-08
2.18406660117e-08
1.35374171006e-08
5.37038752016e-09
1.96681960862e-08
7.78493297062e-10
5.73454913926e-10
4.14359200184e-09
3.01407117287e-08
2.50173808759e-08
1.25642745013e-09
1.20797359956e-08
9.12704489084e-09
1.67669719208e-09
1.25051835364e-08
2.48328267245e-08
2.62501806353e-08
3.09754091662e-08
1.41679497576e-08
9.90631800524e-09
2.98862445166e-08
3.06082599994e-09
1.72729574201e-08
1.3025191725e-09
1.37261237661e-08
2.49527785123e-09
2.43320195047e-08
2.36462514307e-08
1.5614424384e-08
4.15651880017e-09
3.80888402564e-10
6.09745839553e-09
4.21014527918e-09
3.0614277933e-09
1.182956714e-08
2.0983622593e-08
1.89683423573e-08
1.19870086211e-08
1.49604284562e-08
5.26506732316e-09
3.31079384005e-09
1.03859555287e-08
2.68975692661e-09
1.57303154703e-08
6.24320012785e-09
6.62742409919e-09
4.60900589169e-09
1.32574866379e-08
1.21005536586e-08
8.17314968526e-09
2.00964605245e-09
3.48711015411e-09
2.7902281892e-09
1.65473746537e-09
2.38906055329e-10
2.08348518732e-10
5.99843402823e-10
5.98028361273e-11
1.221006766e-09
8.73165702987e-10
2.27733700961e-10
1.51219130506e-09
1.60438799198e-09
7.56771313223e-10
1.66835817392e-09
1.41425594252e-09
1.21033197534e-09
2.4466292267e-10
1.60807264154e-09
9.33504695221e-10
4.26176603187e-10
2.70296519824e-09
2.56115786232e-09
1.66641568819e-09
2.91920922219e-10
1.46928974004e-10
1.74470180797e-09
1.77018416227e-10
1.39270913912e-09
6.74783705808e-10
1.21911603353e-09
7.81614530662e-10
1.85005015649e-09
1.54381222407e-09
1.55168248527e-09
3.33839863167e-10
1.23575763123e-09
1.64054704061e-09
6.13987397245e-10
4.92458031392e-10
5.364485104e-10
1.68991687624e-09
1.46502225563e-09
3.31999651689e-09
2.76540727116e-09
1.57151806845e-09
6.11140612574e-10
9.0930710883e-10
4.41657307018e-10
3.45140646014e-09
4.62109331548e-09
6.7992094562e-09
3.03772220123e-09
2.18499159412e-08
1.76183510086e-08
3.53112075043e-08
1.4348311561e-08
3.26423066683e-08
3.3038237242e-09
2.67351958689e-08
3.39865884218e-08
4.17791362704e-08
3.31919061761e-08
4.1339609389e-09
1.24615046106e-08
6.37677676694e-09
3.63502589361e-08
1.8454028757e-08
4.46014177666e-08
1.69500594229e-07
1.35850696308e-07
5.91425400929e-08
9.42690236572e-08
1.7749472074e-08
3.02657052656e-08
1.1725964584e-08
4.67489639244e-09
1.73887527773e-09
1.7149234397e-10
5.70124817665e-10
6.25378819229e-10
2.44350904932e-10
8.08758864932e-11
2.68658632258e-10
4.74179288454e-10
1.48435877367e-10
3.31737371749e-10
5.07318155168e-10
2.68021800545e-10
3.25102903659e-10
8.96221594767e-12
3.70674177833e-10
3.1957781788e-10
3.06514245046e-10
4.2810488609e-10
4.73716993654e-10
2.15851291809e-10
2.08271204415e-10
1.5624854914e-10
4.15710712326e-10
2.14326633606e-10
1.06496569443e-10
4.03944367383e-10
6.32010577988e-11
1.08290076851e-09
1.17419766277e-09
1.2249296747e-09
3.10204838244e-10
1.51532376186e-10
1.66353078412e-10
6.10466621807e-11
1.28754189226e-10
4.9561076302e-10
8.56532718849e-10
8.20222921246e-10
7.72607604093e-10
1.34160179247e-09
1.13507633987e-10
1.424309733e-10
3.66115371882e-10
2.07092650033e-10
1.14083285069e-10
1.21074093829e-09
2.24979523035e-09
2.15491124781e-10
1.36634540974e-09
2.23234748778e-09
4.08409077609e-10
5.26912194098e-10
1.74795427396e-09
8.87163982305e-10
5.03434823997e-10
3.15499076583e-10
1.51250420582e-09
2.52169659516e-09
1.62869532468e-09
1.71564773941e-09
1.04829129312e-09
6.31730607533e-10
3.01400357058e-10
1.42143950986e-10
1.45325597519e-09
1.75838477971e-09
1.07805438655e-09
6.09253385369e-10
6.25888340636e-10
1.70918225939e-10
7.89742064667e-10
1.96668681229e-09
2.97690116827e-10
4.77685799899e-10
6.03850901727e-10
1.08956804346e-09
7.17883460583e-10
3.22306261043e-10
1.85437621963e-09
1.42199856245e-09
4.07937284603e-10
1.4416055601e-09
1.61637323645e-09
1.56632375809e-09
2.51714181622e-09
2.73306569721e-09
8.59069437223e-11
5.16749481272e-10
1.70234934577e-09
1.30969993673e-09
1.91024690317e-09
2.02548888092e-09
2.49259134338e-09
8.64465409886e-10
8.19784952595e-10
1.40116196069e-09
1.02922626604e-09
6.97902503648e-10
2.11603592329e-09
1.73086187198e-09
1.51254705597e-09
7.31620961886e-10
1.49484046255e-11
1.98221752992e-09
2.45547545685e-09
1.90794187476e-10
3.77878017997e-11
1.13643368687e-09
7.01877421253e-10
3.24455028122e-12
5.18530643983e-10
2.6609454102e-10
9.35566784154e-10
2.18877424899e-09
7.22234515616e-10
4.58093378209e-11
5.29732880437e-10
2.13286606285e-10
1.1185179173e-09
8.70751584121e-10
1.21370637071e-10
6.66566160335e-11
1.75804142703e-10
4.90825691821e-11
2.1108047094e-10
6.16894848239e-10
9.55382061368e-11
2.18197971567e-10
2.67807940984e-11
5.07338859818e-10
9.8182792916e-11
4.69477931122e-10
1.4850243836e-10
1.43788846371e-09
1.49996603164e-09
1.6054104456e-09
9.74664269073e-10
1.55428067482e-09
3.99924964439e-10
3.35911985088e-10
1.5989067758e-10
6.31622334514e-10
4.99545310873e-11
2.21298017103e-10
3.70600261659e-09
4.01272318518e-09
5.428024393e-09
3.42148435115e-10
2.24338759387e-10
1.46830643281e-10
4.56954549849e-10
8.41521179387e-10
1.04108444231e-09
1.08919836823e-09
1.21000070601e-10
8.31285163738e-10
2.16511133776e-10
4.19228068741e-10
1.37991350906e-09
4.15375269721e-10
7.17527804777e-10
2.09064741565e-09
1.08809545255e-09