# vtk DataFile Version 3.0
File Name: Molecule/arg/arg_1.0-5.vtk
ASCII
DATASET UNSTRUCTURED_GRID
FIELD FieldData 1
TIME 1 1 double
0.0
POINTS 245 double
-3.4415333271 0.24673581123 1.423550725
-3.1696746349 -0.10204336792 0.59973335266
-3.0445334911 -0.49550002813 1.516331315
-2.722266674 -0.52755951881 0.45137840509
-2.9969425201 0.098306596279 0.0283342693
-2.2940831184 -0.368067801 -0.31421166658
-2.2834146023 -0.3782851398 -1.0174232721
-2.0562446117 -0.77136421204 -0.80233323574
-2.5955147743 1.4942193031 -0.68366777897
-2.5153563023 -0.028169631958 -1.0808995962
-2.2200360298 1.1509002447 -1.6117277145
-1.9459841251 1.6586070061 -1.0943102837
-2.6527831554 2.0862436295 -0.303021878
-1.4619377851 3.1667327881 0.20658484101
-1.7643259764 2.4880771637 -0.62035787106
-2.4897193909 2.6577427387 0.65928393602
-3.0416109562 2.3454272747 1.6046543121
-1.8431330919 3.3330147266 1.5013246536
-2.4770672321 3.0713605881 2.2034721375
-2.7146933079 2.5632684231 2.5678274632
-3.0591957569 1.8948116302 2.3368918896
-3.428435564 1.7833240032 1.7480612993
-3.3907659054 0.78365892172 1.9431868792
-3.1509664059 0.82386541367 2.8760330677
-3.0277452469 0.45699179173 2.3950054646
-3.105045557 0.10667150468 1.8752737045
-2.868070364 0.24146664143 3.2284395695
-2.7641506195 -0.03156067431 2.502679348
-2.8834393024 -0.19596244395 2.115165472
-2.5240228176 -0.70715677738 2.3952503204
-2.2536127567 -0.33943662047 3.375991106
-1.7283302546 -1.7123707533 1.3230988979
-2.2753696442 -1.1360679865 0.39325812459
-0.98672324419 -2.2118535042 0.30424007773
-1.8689165115 -1.4686869383 -0.38159483671
-1.910279274 -1.2781745195 -1.071380496
-2.0959606171 -0.6906785965 -1.3084152937
-1.5979663134 -1.5272585154 -1.7929528952
-2.1193275452 -0.66673642397 -1.0338836908
-2.2354152203 -0.43340429664 -1.8562138081
-1.7627298832 -0.76047801971 -2.0529389381
-2.237716198 0.21279674768 -2.3181633949
-1.5569679737 0.13351525366 -2.6997990608
-1.7260071039 1.0190519094 -2.4491677284
-1.0861088037 0.53978335857 -3.3693437576
-1.5385017395 1.4755377769 -2.2703406811
-1.8640040159 1.4564105272 -1.7787123919
-1.1641683578 1.6523537636 -2.9873335361
-1.1266429424 2.0457615852 -2.1949746609
-1.4856517315 1.82655406 -1.726975441
-1.2445243597 2.4602425098 -1.32299757
-0.53377467394 2.5345692635 -2.333034277
-0.82435381413 3.0269412994 -1.2227063179
0.47807362676 3.1444747448 -0.94434040785
-0.16822245717 2.9460151196 -1.9346528053
1.1293309927 2.6390471458 -2.0632145405
0.71062761545 3.2536098957 -2.6474153996
0.7997033 2.691123724 -1.7167131901
0.36772823334 3.4413330555 -2.7515878677
-0.051125649363 3.3319678307 -3.0056426525
0.24942657351 3.2490136623 -2.4311814308
1.0628207922 2.4651260376 -0.46422359347
1.509265542 1.9548001289 -1.0742738247
0.92924296856 2.7964198589 0.34464854002
1.5393823385 1.9170188904 0.066839233041
1.2184791565 2.2060875893 1.0087478161
0.27651649714 3.072958231 0.98718172312
1.2538661957 2.2499575615 1.9624559879
0.74118733406 2.773806572 2.4082853794
-0.05584000051 3.2712607384 2.1182100773
0.66739141941 2.8768336773 3.3339028358
-0.46880716085 3.3248825073 3.4433364868
-0.77182137966 2.8252291679 3.9285612106
-1.2874165773 3.5822839737 3.4886927605
-1.7439911366 2.849514246 3.8406515121
-2.0422759056 3.2363972664 3.3909554482
-2.2813775539 2.6559853554 3.6078481674
-1.0511722565 2.2482466698 4.3547358513
-0.016441710293 2.6173918247 4.0463018417
-0.62000787258 1.6874063015 4.5588245392
-2.4460582733 2.2253432274 4.1074461937
-1.636423111 1.8805272579 4.5285873413
-3.0462241173 1.9138044119 3.1423370838
-0.47899258137 1.0450698137 4.7038559914
-1.4797703028 1.0945470333 4.659473896
-0.22591391206 0.45223930478 4.9510993958
-1.3123418093 0.27836698294 4.5428147316
-0.32814049721 -0.089869968593 4.9914431572
-0.87168580294 -0.4181843996 4.775021553
-1.6924628019 -0.75405371189 4.2763009071
-2.3347201347 0.23729428649 4.247420311
-1.9540638924 -1.3367697001 3.3169004917
0.16945068538 -1.1762778759 5.0843482018
0.406347543 -0.32474866509 5.2168698311
1.2447583675 -0.81399786472 5.3360295296
1.3742660284 -1.8576536179 4.6187167168
0.57821196318 -2.2823035717 4.4936785698
1.6036041975 -2.1255142689 4.0485577583
1.0784243345 -2.4716134071 3.2650518417
1.031656146 -1.8569928408 2.1579113007
1.8002510071 -1.9320948124 2.8035824299
0.2099994123 -2.4663486481 2.0649926662
0.7556822896 -1.6840142012 1.4055305719
0.0025284485891 -2.174844265 1.2133047581
1.0475956202 -1.8265709877 0.34808158875
0.047542892396 -2.4803218842 0.29845941067
-0.95681399107 -2.272459507 2.1353242397
-0.78695243597 -1.9807596207 1.1955817938
1.4180370569 -1.0274509192 0.1829354465
1.2217388153 -1.2227345705 1.4293342829
1.4869893789 -0.78216606379 1.2873904705
2.3372609615 -0.7183611393 1.9887942076
1.899747014 -1.4763425589 2.2682168484
1.7020882368 -0.10613010079 0.68019849062
1.7669844627 0.21255385876 -0.2171433717
1.6528971195 -0.65234565735 -0.71598505974
1.5614603758 -1.5041674376 -1.5924514532
2.1975462437 -0.15521861613 -1.4405436516
2.0720572472 -1.109164238 -2.2478554249
1.0494334698 -1.4600493908 -2.8917043209
0.49286028743 -2.1638045311 -2.1396813393
-0.28237748146 -1.4166580439 -2.6492347717
0.094705201685 -0.71488851309 -3.5139286518
-0.38398349285 -0.7140853405 -3.0172045231
-0.99606877565 -0.69407820702 -2.6640558243
-0.72718966007 -0.24146896601 -3.266056776
-0.99155217409 -1.3283861876 -2.3955953121
-0.16364885867 0.2600941956 -3.9338953495
0.73847162724 -0.74892812967 -4.0155096054
-0.40650707483 1.9577531815 -3.5710644722
0.016979258507 3.0114481449 -3.6687765121
0.89625245333 3.1041498184 -3.6626312733
0.94662588835 3.2261581421 -2.8505117893
1.4450918436 2.6073825359 -3.3442943096
1.6517903805 2.6978018284 -2.5445652008
1.9591466188 0.90118527412 -1.0729266405
2.3485643864 0.61591607332 -1.6120070219
2.142250061 1.5106039047 -1.80504632
1.9723627567 0.93031394482 0.019905082881
1.1277575493 1.7094148397 -4.1855115891
0.96272730827 2.1690535545 -4.0343651772
1.4138729572 1.5992233753 -3.9337363243
1.884251833 1.313634634 1.3396209478
2.5436563492 0.95161229372 2.5841839314
1.843996048 1.5792440176 2.3263192177
1.7634497881 2.123087883 3.1840970516
2.5120565891 1.3893954754 3.4862179756
1.8532649279 1.7704622746 3.7647843361
2.1679363251 1.2261611223 4.6229157448
1.5125504732 1.6371524334 4.3216080666
1.5154073238 0.6706353426 5.2057080269
0.37291038036 1.8798382282 4.6788053513
0.6006398797 1.0022000074 4.9084157944
0.71848124266 1.1119493246 -4.3640370369
0.53572320938 0.38789561391 -4.2348914146
0.2354709506 1.0353914499 -4.1952705383
0.14728009701 2.1216082573 -4.0344567299
-3.5276441574 2.203920126 0.82258230448
-3.5321815014 1.6304063797 -0.077926009893
-3.936876297 1.1582000256 0.84707218409
-2.6750464439 -1.246553421 1.337661624
0.5470905304 3.3678095341 -0.076658703387
-1.1099742651 4.0090985298 2.5007619858
-2.123650074 3.6433615685 2.5115654469
-2.8502221107 1.3461998701 4.3437042236
-0.83180940151 -1.6195991039 4.9368534088
-1.5665000677 -1.8448852301 4.2394647598
-0.99675518274 -2.7799539566 3.16639328
-1.6302816868 -1.9551100731 2.5949165821
-0.36196884513 -2.9590501785 3.2370154858
-0.063426271081 -2.8204689026 2.5821635723
0.35298976302 -2.8921151161 3.4021449089
0.3439206481 -2.8070652485 2.7543160915
0.4902946949 -2.7842414379 -0.76479619741
-0.91478133202 -2.7100124359 -0.74039304256
-0.73185944557 -2.4710655212 -1.8411285877
1.3738677502 -2.1067249775 -0.75696057081
-0.50225663185 1.1026229858 -3.8783967495
1.7237925529 2.2253775597 -1.8791664839
1.308175087 2.5538415909 2.7287378311
0.69544094801 2.5448517799 4.0716915131
3.66766572 -0.31405314803 3.703879118
3.329164505 0.16740432382 4.6357498169
3.3414955139 -0.85092246532 4.5870289803
3.2468948364 -1.4597929716 3.5242338181
3.3376238346 -0.87491899729 2.8202257156
3.3374164104 0.18422204256 2.7800571918
3.3312208652 0.74810576439 3.6597278118
2.458370924 0.2791211307 5.316614151
2.479339838 -0.82665646076 5.3293905258
2.7361011505 -1.6910729408 2.8943214417
2.0001180172 -1.8147749901 4.7079114914
2.9146165848 0.12885373831 -2.6188876629
2.5694050789 -0.62205940485 -3.3727755547
2.5639975071 0.50733691454 -3.7527062893
1.8058226109 -1.2282733917 -3.3974905014
1.799507618 -0.4646051228 -4.185239315
1.8548443317 1.3009797335 -3.819113493
1.4159324169 0.69370853901 -4.3261275291
2.4379451275 1.2421786785 -2.2594549656
2.5030505657 1.2098044157 -3.1840641499
0.54823815823 2.2042577267 -4.2271060944
1.2335039377 1.227918148 -4.2520680428
1.8626410961 2.0290117264 -3.405156374
1.590844512 2.3150420189 -3.451321125
0.96292114258 3.4174406528 -3.292869091
0.22198407352 3.4912388325 -3.6889710426
1.9701544046 -2.1019415855 3.4569559097
-0.15020307899 1.5965470076 -3.9999196529
0.33395642042 1.539124012 -4.4489879608
1.3656203747 2.4084420204 3.622944355
1.1701813936 2.186892271 4.1828846931
2.7499885559 -1.8853833675 3.5483474731
1.7680896521 2.4518845081 -2.2550063133
2.1813476086 2.1786031723 -2.5247821808
2.0968811512 1.8999271393 -2.2477710247
2.2122445107 1.5178263187 -2.1182148457
2.2329463959 2.1400079727 -3.0248889923
2.3226997852 1.6725447178 -2.919110775
2.2401468754 1.6903049946 -2.4258704185
1.8380237818 1.5924425125 -3.5907924175
0.86575502157 2.6130409241 -3.8004364967
2.0558645725 2.5814194679 -2.9887502193
0.49315527081 2.6626605988 -3.9585361481
-0.80479878187 -2.7716112137 3.8471415043
-0.65311825275 -2.5216765404 4.3987050056
-0.17316007614 -2.860001564 3.9285540581
3.4180760384 0.484131217 4.1749315262
3.341801405 -1.2693802118 4.1002464294
2.4949822426 -1.7033624649 4.6731958389
3.0134499073 -1.340182662 4.6485710144
3.0002365112 -1.6618976593 4.0997881889
2.8955671787 1.1016453505 4.178331852
2.8933928013 0.77151435614 4.731112957
2.3199265003 -2.023245573 4.1002497673
-2.288949728 -1.4229021072 1.9013003111
-2.1222777367 -1.0660669804 2.8118486404
-1.9318777323 -1.5994933844 2.2384579182
-1.3501749039 -1.9123309851 1.8801298141
-0.79598927498 -2.0997827053 4.7264404297
-0.17881260812 -2.0557487011 4.8806009293
-0.039273831993 -2.4813864231 4.5304398537
1.0218567848 0.90577763319 -4.3369002342
0.93123143911 1.3816848993 -4.3928432465
-0.0078174294904 -2.9626443386 3.3520474434

CELLS 486 1944
3 0 1 2
3 2 1 3
3 1 4 3
3 5 6 7
3 4 8 9
3 9 8 10
3 8 11 10
3 12 11 8
3 13 14 15
3 12 15 14
3 15 16 17
3 17 16 18
3 19 16 20
3 21 20 16
3 21 22 20
3 22 23 20
3 24 22 25
3 0 25 22
3 23 24 26
3 27 26 24
3 25 28 24
3 28 25 2
3 2 29 28
3 29 30 27
3 31 32 33
3 33 32 34
3 32 5 34
3 3 5 32
3 34 7 35
3 35 36 37
3 36 38 6
3 9 6 5
3 9 39 6
3 40 37 36
3 39 41 40
3 42 40 41
3 41 43 42
3 42 43 44
3 45 43 46
3 10 46 43
3 47 45 48
3 49 48 45
3 49 11 50
3 50 11 14
3 48 50 51
3 52 51 50
3 52 53 54
3 55 56 57
3 58 59 60
3 53 61 57
3 57 61 62
3 61 63 64
3 64 63 65
3 63 66 65
3 67 66 68
3 69 66 17
3 13 17 66
3 68 69 70
3 71 70 69
3 72 73 74
3 75 74 73
3 74 75 76
3 18 19 75
3 72 77 78
3 78 77 79
3 80 81 74
3 76 80 74
3 80 76 82
3 20 82 19
3 83 79 84
3 81 84 79
3 85 83 86
3 85 86 87
3 88 86 89
3 90 89 86
3 90 30 89
3 89 30 91
3 88 92 87
3 87 92 93
3 94 92 95
3 96 95 92
3 95 96 97
3 98 99 100
3 99 101 102
3 102 101 103
3 102 103 104
3 104 103 105
3 101 106 103
3 103 106 107
3 103 107 105
3 105 107 33
3 104 108 109
3 109 108 110
3 111 112 110
3 109 110 112
3 113 108 114
3 115 114 108
3 115 116 117
3 117 116 118
3 118 116 119
3 120 119 116
3 120 121 119
3 119 121 122
3 123 121 124
3 125 123 124
3 124 126 40
3 37 40 126
3 124 42 125
3 125 42 44
3 127 122 125
3 122 127 128
3 129 51 130
3 130 51 59
3 131 132 133
3 133 132 134
3 132 56 55
3 60 57 56
3 135 136 137
3 135 62 138
3 138 62 64
3 138 114 135
3 114 117 135
3 139 140 141
3 113 142 111
3 111 142 143
3 144 142 67
3 65 67 142
3 145 146 144
3 143 144 146
3 146 147 148
3 148 149 150
3 151 152 149
3 151 83 152
3 152 83 85
3 152 93 150
3 150 93 94
3 25 0 2
3 5 3 4
3 4 9 5
3 46 10 11
3 14 11 12
3 17 13 15
3 19 18 16
3 82 20 23
3 24 23 22
3 26 27 30
3 107 31 33
3 7 34 5
3 36 35 38
3 39 40 36
3 47 44 43
3 45 47 43
3 50 48 49
3 59 51 60
3 54 51 52
3 54 57 60
3 53 57 54
3 64 62 61
3 67 65 66
3 69 68 66
3 72 78 71
3 81 79 77
3 84 86 83
3 88 87 86
3 94 93 92
3 109 112 99
3 109 99 102
3 109 102 104
3 113 111 110
3 113 110 108
3 117 114 115
3 123 122 121
3 126 124 121
3 153 154 155
3 130 156 129
3 55 134 132
3 136 135 117
3 144 143 142
3 150 149 152
3 157 158 159
3 159 158 4
3 0 159 1
3 159 0 22
3 159 22 21
3 159 21 157
3 157 21 16
3 157 16 15
3 158 157 12
3 15 12 157
3 158 12 8
3 158 8 4
3 4 1 159
3 3 32 160
3 3 160 2
3 2 160 29
3 27 28 29
3 31 160 32
3 7 38 35
3 38 7 6
3 10 41 9
3 39 9 41
3 36 6 39
3 43 41 10
3 11 49 46
3 46 49 45
3 13 66 161
3 53 52 161
3 13 52 14
3 50 14 52
3 13 161 52
3 53 161 61
3 61 161 63
3 63 161 66
3 73 162 163
3 73 163 75
3 71 73 72
3 73 71 162
3 162 71 69
3 162 69 17
3 162 17 163
3 163 17 18
3 163 18 75
3 77 74 81
3 19 76 75
3 76 19 82
3 74 77 72
3 23 26 164
3 23 164 82
3 82 164 80
3 80 164 81
3 81 164 84
3 164 90 84
3 86 84 90
3 90 164 26
3 90 26 30
3 27 24 28
3 165 92 88
3 165 88 89
3 165 89 166
3 166 89 91
3 167 166 168
3 169 167 170
3 171 98 96
3 101 99 172
3 173 174 175
3 173 175 120
3 173 120 176
3 173 176 104
3 173 104 105
3 173 105 174
3 174 105 33
3 174 33 34
3 174 34 35
3 174 35 37
3 174 37 175
3 175 37 126
3 175 126 121
3 175 121 120
3 104 176 108
3 108 176 115
3 115 176 116
3 116 176 120
3 42 124 40
3 129 47 51
3 44 47 177
3 44 127 125
3 123 125 122
3 48 51 47
3 62 135 137
3 55 57 178
3 65 142 64
3 64 142 138
3 114 138 113
3 142 113 138
3 145 144 179
3 151 180 78
3 151 78 79
3 151 79 83
3 87 93 85
3 85 93 152
3 181 182 183
3 181 184 185
3 181 185 186
3 181 186 187
3 182 188 189
3 183 182 189
3 112 111 190
3 185 111 186
3 186 111 143
3 186 143 187
3 187 143 146
3 188 148 150
3 188 150 94
3 188 94 189
3 189 94 191
3 192 193 194
3 193 195 196
3 194 193 196
3 196 195 128
3 196 128 154
3 197 194 198
3 199 192 200
3 192 199 136
3 192 136 117
3 192 117 118
3 192 118 193
3 193 118 195
3 195 118 119
3 195 119 128
3 128 119 122
3 154 128 127
3 140 139 201
3 56 58 60
3 54 60 51
3 141 197 202
3 203 141 204
3 132 131 205
3 56 132 58
3 205 58 132
3 205 206 58
3 206 205 131
3 58 206 59
3 59 206 130
3 206 131 130
3 154 198 196
3 196 198 194
3 112 100 99
3 98 100 207
3 127 177 155
3 177 208 155
3 177 129 208
3 155 208 209
3 209 208 156
3 208 129 156
3 145 147 146
3 149 148 147
3 129 177 47
3 44 177 127
3 180 70 78
3 78 70 71
3 68 70 179
3 70 210 179
3 70 180 210
3 179 210 145
3 68 179 67
3 67 179 144
3 145 210 147
3 210 211 147
3 210 180 211
3 147 211 149
3 149 211 151
3 211 180 151
3 184 212 190
3 100 190 207
3 212 207 190
3 190 100 112
3 184 190 185
3 185 190 111
3 127 155 154
3 153 155 209
3 55 213 134
3 134 213 214
3 137 215 178
3 215 213 178
3 215 214 213
3 178 213 55
3 136 199 137
3 216 137 199
3 217 214 218
3 219 218 214
3 219 199 218
3 217 218 203
3 197 220 200
3 220 218 200
3 220 203 218
3 200 218 199
3 133 204 221
3 140 204 141
3 199 219 216
3 219 215 216
3 219 214 215
3 216 215 137
3 137 178 62
3 62 178 57
3 197 200 194
3 194 200 192
3 214 222 134
3 134 222 133
3 133 222 204
3 204 222 203
3 222 214 217
3 217 203 222
3 203 220 141
3 141 220 197
3 207 97 98
3 98 97 96
3 131 223 130
3 130 223 156
3 156 223 201
3 223 221 201
3 223 131 221
3 201 221 140
3 140 221 204
3 133 221 131
3 167 224 166
3 166 224 225
3 225 224 226
3 224 169 226
3 224 167 169
3 226 171 96
3 187 227 181
3 181 227 182
3 183 228 181
3 181 228 184
3 229 230 189
3 189 230 183
3 184 228 231
3 228 230 231
3 228 183 230
3 231 230 229
3 148 232 146
3 146 232 187
3 187 232 227
3 232 233 227
3 232 148 233
3 227 233 182
3 182 233 188
3 233 148 188
3 95 191 94
3 189 191 229
3 229 191 234
3 191 97 234
3 191 95 97
3 234 97 207
3 156 201 209
3 209 201 139
3 229 234 231
3 212 234 207
3 184 231 212
3 212 231 234
3 29 235 236
3 235 237 236
3 235 31 237
3 91 236 168
3 237 168 236
3 237 238 168
3 237 31 238
3 168 238 106
3 29 236 30
3 30 236 91
3 106 238 107
3 107 238 31
3 31 235 160
3 160 235 29
3 225 239 166
3 239 165 166
3 239 225 240
3 241 240 225
3 241 96 240
3 239 240 165
3 165 240 92
3 240 96 92
3 91 168 166
3 167 168 106
3 171 172 98
3 98 172 99
3 198 202 197
3 141 202 139
3 153 242 154
3 154 242 198
3 153 243 242
3 243 202 242
3 243 139 202
3 242 202 198
3 139 243 209
3 243 153 209
3 169 244 226
3 226 244 171
3 96 241 226
3 226 241 225
3 171 244 172
3 244 170 172
3 244 169 170
3 172 170 101
3 101 170 106
3 106 170 167

CELL_TYPES 486
5
5
5
5
5
5
5
5
5
5
5
5
5
5
5
5
5
5
5
5
5
5
5
5
5
5
5
5
5
5
5
5
5
5
5
5
5
5
5
5
5
5
5
5
5
5
5
5
5
5
5
5
5
5
5
5
5
5
5
5
5
5
5
5
5
5
5
5
5
5
5
5
5
5
5
5
5
5
5
5
5
5
5
5
5
5
5
5
5
5
5
5
5
5
5
5
5
5
5
5
5
5
5
5
5
5
5
5
5
5
5
5
5
5
5
5
5
5
5
5
5
5
5
5
5
5
5
5
5
5
5
5
5
5
5
5
5
5
5
5
5
5
5
5
5
5
5
5
5
5
5
5
5
5
5
5
5
5
5
5
5
5
5
5
5
5
5
5
5
5
5
5
5
5
5
5
5
5
5
5
5
5
5
5
5
5
5
5
5
5
5
5
5
5
5
5
5
5
5
5
5
5
5
5
5
5
5
5
5
5
5
5
5
5
5
5
5
5
5
5
5
5
5
5
5
5
5
5
5
5
5
5
5
5
5
5
5
5
5
5
5
5
5
5
5
5
5
5
5
5
5
5
5
5
5
5
5
5
5
5
5
5
5
5
5
5
5
5
5
5
5
5
5
5
5
5
5
5
5
5
5
5
5
5
5
5
5
5
5
5
5
5
5
5
5
5
5
5
5
5
5
5
5
5
5
5
5
5
5
5
5
5
5
5
5
5
5
5
5
5
5
5
5
5
5
5
5
5
5
5
5
5
5
5
5
5
5
5
5
5
5
5
5
5
5
5
5
5
5
5
5
5
5
5
5
5
5
5
5
5
5
5
5
5
5
5
5
5
5
5
5
5
5
5
5
5
5
5
5
5
5
5
5
5
5
5
5
5
5
5
5
5
5
5
5
5
5
5
5
5
5
5
5
5
5
5
5
5
5
5
5
5
5
5
5
5
5
5
5
5
5
5
5
5
5
5
5
5
5
5
5
5
5
5
5
5
5
5
5
5
5
5
5
5
5
5
5
5
5
5
5
5
5
5
5
5
5
5
5
5
5
5
5
5
5
5
5
5
5
5
5
5
5
5
5
5
5
5
5
5
5
5
5
5
5
5

CELL_DATA 486
SCALARS cell_data_0 double
LOOKUP_TABLE default
1.70116118997e-08
9.70870781444e-08
9.59258055737e-08
1.65525159073e-07
1.88865656292e-07
6.55096871722e-07
9.14693261305e-07
1.99876792177e-08
7.18032837562e-08
1.46718840728e-07
1.91002260985e-07
8.80965573897e-09
5.59680070699e-08
2.63004210964e-08
2.41545796016e-08
5.4135320928e-08
3.9376242806e-08
1.88839551455e-08
9.55516425125e-10
3.18349994021e-08
7.96478044157e-09
3.52982073695e-08
2.34196190199e-08
3.91043934359e-07
6.27870196357e-08
1.80866230597e-07
2.9997378441e-07
1.82549336442e-07
1.9255611508e-07
1.06132129641e-07
7.53082476136e-08
1.35037773141e-07
3.50921372855e-08
8.18470721749e-08
3.18599623394e-07
5.64792051626e-08
3.26002788673e-07
2.79209606034e-07
3.04148711121e-07
1.83027966605e-08
2.80072006148e-07
3.01940039069e-07
2.46746268761e-08
3.43025526132e-07
7.14429766337e-07
3.45818582576e-07
4.43930838581e-07
1.02174790353e-08
1.82439881338e-06
2.6183945348e-07
1.26384088186e-08
1.61009014022e-07
1.92722537506e-08
1.39414152699e-07
2.77171805186e-07
2.07089491631e-07
2.10655220564e-07
3.05285388509e-07
6.73071552813e-07
4.66100906573e-08
4.02073284868e-08
2.55724436366e-08
1.56431102125e-07
7.75845154426e-08
7.99970640322e-08
2.04426837921e-08
4.33169607793e-08
3.09769696375e-10
6.48060664768e-08
1.14195904957e-08
7.82554149045e-08
1.40984582472e-08
4.41123956297e-08
2.89546713575e-08
9.79608784615e-08
7.62395961371e-07
1.60506304879e-07
8.32198427062e-08
4.32431401786e-08
6.78199702415e-07
1.62729636141e-06
2.11978991213e-06
2.32000627321e-06
3.06382182331e-07
3.93465977856e-07
1.12613772961e-06
3.90668265176e-07
1.15554971831e-07
3.07130274857e-07
2.57165234505e-07
7.44241101847e-07
1.16803970707e-06
2.17271801394e-08
3.24750058235e-07
1.19864888758e-07
5.57221231309e-08
6.88722891866e-07
1.44210030336e-06
1.60993197535e-06
2.13336622386e-07
6.13255800552e-07
1.40446569628e-06
2.45645952207e-07
2.83222336203e-07
1.35844185362e-07
1.87397060114e-08
1.25826444409e-07
6.11575078741e-08
2.94534744601e-07
1.34500213364e-06
1.73045362393e-06
2.43527797393e-07
2.19894885525e-06
8.01039912651e-07
5.75643379818e-07
7.24833017397e-07
2.52157753798e-07
3.18352338349e-07
9.92177127094e-07
1.56651486241e-08
2.30705813846e-07
1.58579183635e-06
5.64641260177e-07
7.57416662513e-07
1.91909920446e-06
2.77262676772e-07
2.58857883447e-07
3.01722788076e-06
1.38925959677e-06
2.14715582353e-06
3.92228615842e-07
1.68062342856e-07
3.25431469573e-08
5.85904494576e-08
9.18908800071e-09
8.08995278419e-08
5.1597890384e-08
6.3419372358e-08
9.53105200394e-07
4.76631325378e-08
1.8154065085e-07
3.30747547278e-07
9.48879213596e-08
2.17492674195e-08
1.41737523848e-07
4.30905183448e-07
2.89088991299e-07
2.58785663545e-07
3.88920272118e-09
1.91958200672e-07
1.90636186459e-07
3.94468381001e-07
5.65984868614e-07
2.27551412237e-06
2.20392251994e-07
9.6498173918e-07
1.4284582614e-06
2.57167549488e-07
1.81016098434e-07
3.89553814785e-07
1.12085087925e-09
1.75644643728e-08
6.0728456695e-08
3.15920429139e-08
7.06907009781e-08
3.18134007941e-07
1.08407683557e-07
2.7651865158e-07
7.30210046923e-08
4.04444253717e-07
1.79638209363e-06
7.86760200187e-08
1.24959310116e-07
1.03867423674e-06
1.92948059087e-06
1.82395182961e-06
6.98109725214e-07
8.47224927579e-07
3.61258698925e-07
8.83008222869e-08
2.91824348473e-08
1.01801333138e-07
9.74266590595e-08
1.17944371089e-08
1.40770296069e-09
4.42974361414e-08
5.77858009531e-08
1.58793279542e-08
1.79302449394e-07
2.72720631742e-07
2.03360860752e-08
1.16262273527e-07
1.32037981149e-07
3.64766291219e-08
9.63392837604e-09
7.85722280083e-09
5.63042477461e-08
2.76591785267e-08
2.81434852973e-08
1.60214195587e-06
2.93342254183e-07
1.08981360136e-07
3.22687732666e-07
1.54900629765e-07
7.85159071314e-08
2.56761451992e-07
2.97092952024e-07
2.47660515421e-07
1.83058521953e-07
2.86826326073e-07
1.16876831321e-07
2.45441735381e-07
3.30099685162e-07
6.70259929257e-09
2.28271338105e-08
3.15242102084e-08
1.1143241065e-08
1.86981912345e-07
2.90981139193e-08
4.48453239917e-08
4.52663321116e-08
3.30427553669e-08
2.65268274998e-08
1.54825535142e-08
6.54289859635e-08
6.62623572132e-08
1.28055707587e-07
3.01927518261e-08
1.15327604253e-07
3.53113448123e-08
2.93496637152e-08
3.16336196336e-08
5.18364095919e-08
7.59072965662e-08
7.13302656e-08
4.90293753096e-08
2.43080307056e-07
2.50909585123e-07
2.4924939401e-07
1.08966476016e-06
1.53242889617e-06
8.81169820601e-08
8.74074503371e-07
2.89546875908e-07
8.92284831527e-08
8.7406042904e-08
4.85096182023e-08
5.14774589296e-08
1.09550694779e-06
1.87207134139e-07
7.11643877124e-07
3.79807213304e-07
1.8876590468e-07
3.25445490938e-07
1.09941895543e-07
1.01003865479e-07
7.84585076254e-08
1.25078900822e-08
9.19086257179e-07
3.83084112858e-09
8.29299444964e-07
1.76689352889e-07
4.30017194815e-07
1.12583877389e-06
1.2553094818e-07
2.05089210273e-07
5.06728764948e-07
2.51585146187e-07
4.96147482606e-07
6.55654199473e-07
6.76563734662e-08
2.57693552393e-07
5.56167477122e-08
3.93894078636e-07
3.91310890121e-06
8.24526709315e-08
5.98363273375e-08
7.91649105743e-08
1.26974882358e-08
1.92226302247e-07
1.22750554002e-07
5.06876692848e-08
2.53931556996e-07
1.23779415873e-07
7.31645747681e-07
4.01568359683e-08
4.03154194882e-07
4.40424660005e-07
7.71788391511e-07
3.00137924095e-06
5.77095077143e-06
5.87030994354e-07
4.31344962742e-07
2.47035486185e-07
3.37895173328e-06
1.75910088102e-08
5.22572829365e-09
1.53720305716e-07
1.37590119536e-07
1.36835252431e-07
8.07683338321e-07
3.36929209873e-07
1.19888665062e-06
8.51541380729e-07
3.43289995281e-08
3.7519221078e-07
1.12774613354e-07
4.28544235794e-08
1.42722080257e-07
3.88173253283e-07
2.32766398599e-06
1.40448726694e-06
3.93969157251e-07
4.1523614061e-07
3.20862851442e-07
2.53756503652e-09
7.71060999794e-07
1.86300486242e-07
3.29477701358e-06
1.21790595406e-06
5.62532714077e-06
1.80643696203e-06
4.71372938422e-07
2.72283612535e-06
3.81999402208e-07
3.45546849799e-07
7.33001253885e-08
5.62807737967e-07
7.60214320878e-07
4.89440157593e-07
1.04346071006e-06
1.29284187007e-06
1.08252326007e-06
1.34443350277e-06
2.41410111643e-06
5.41708263865e-07
6.1252953832e-08
2.04610123858e-07
4.21822652653e-07
4.71400888954e-08
6.66514581871e-07
2.68515898387e-06
1.56644165169e-06
1.28261170121e-06
1.20786076132e-09
8.80671356153e-07
1.15833219754e-06
3.39049266471e-07
1.61538324947e-06
3.82055539131e-07
4.96522601694e-07
2.00594559658e-07
9.19085641023e-08
1.33008002468e-06
1.05654237037e-06
1.56326438861e-07
2.72866888482e-07
3.74697916062e-07
1.41911654922e-06
5.96747335883e-07
5.35868007935e-07
1.16952779694e-06
7.48820505471e-07
5.08084147431e-07
3.83896923834e-07
3.85782520959e-07
2.39008387894e-07
4.51067691072e-08
1.15432886763e-06
9.02766050713e-07
2.51561114414e-07
1.62443612065e-06
5.24714255096e-07
5.80974665014e-07
1.25527974578e-06
7.8552794936e-08
3.15560004735e-07
8.14747186401e-07
2.04206912457e-07
2.95483089298e-07
3.96918418015e-07
8.91429206854e-08
5.07704202745e-07
3.02991549755e-07
3.5842564091e-07
3.36452141516e-07
6.7072035134e-07
1.68153889914e-06
7.89091505292e-07
1.75203005276e-06
7.9128697775e-07
3.52667289314e-07
1.81039902767e-06
5.42791814794e-08
2.15709089661e-06
2.09500432118e-06
2.69816851158e-06
1.72382455431e-06
3.180082528e-07
1.42459349397e-06
1.9424549656e-07
2.68507434094e-07
2.96559440467e-07
1.79198315277e-06
4.7590228636e-07
4.07923432309e-07
1.79016230979e-08
4.70118454143e-07
1.78748834447e-07
1.34537343923e-06
2.56734308601e-06
1.9205496544e-07
6.30217499573e-08
1.74490310319e-07
1.11352341715e-06
4.63204553737e-08
1.65819088066e-07
1.00473508323e-07
1.19449324237e-07
3.59488116791e-07
2.04069746958e-06
2.65533567512e-06
9.00395593644e-07
1.74493164599e-06
3.1368817394e-06
3.35101803367e-07
5.89617998723e-07
8.41449772708e-07
4.60449344907e-06
2.19008267662e-06
3.10503749162e-07
1.47542020879e-06
1.11278379754e-06
6.62022177508e-08
2.29596075833e-07
2.56048589039e-06
2.030566267e-06
1.05821648467e-06
6.88819819692e-07
1.11010861825e-06
6.93593239072e-07
6.89666793032e-07
1.55988884584e-08
2.7224089594e-06
4.6033943483e-07
2.2772063862e-08
1.02368141149e-08
1.06461199152e-07
2.12153828589e-08
4.1419859185e-07
3.42120504779e-07
4.30078796404e-09
5.09283251884e-08
1.78948019327e-08
2.41390172641e-07
8.05993120813e-08
8.68420792649e-08
6.74386893405e-08
7.37789998447e-07
5.25587603971e-08
1.003158382e-07
1.54288883387e-06
6.51639867895e-07
3.36170635529e-07
3.00371811128e-06
6.32763618777e-07
4.28648290836e-08
8.74188575113e-07
4.98870223256e-07
4.91871842958e-07
1.81793376225e-07
2.24405424476e-09
4.8846736253e-07
2.134535899e-07
1.79834197567e-07
4.49290932949e-07
3.03808328051e-07
2.64751776379e-07
2.28079494071e-07
6.97886511695e-07
1.04383465473e-06
4.43487093406e-07
4.62078339504e-07
1.51468145762e-08
3.32673865037e-09
1.31438574452e-08

