# vtk DataFile Version 3.0
File Name: Molecule/arg/arg_4.0-5.vtk
ASCII
DATASET UNSTRUCTURED_GRID
FIELD FieldData 1
TIME 1 1 double
0.0
POINTS 821 double
-3.3885922432 0.30924788117 1.6258348227
-3.440226078 0.094889707863 1.1499708891
-3.0917975903 0.04626705125 1.8137962818
-3.0595376492 -0.52993375063 1.3623389006
-3.2336833477 -0.079759925604 0.51449114084
-2.8489027023 -0.69488090277 0.73653024435
-2.8138067722 -0.16163532436 0.1530674547
-2.6495952606 -0.46688199043 0.32314929366
-2.6392343044 0.076316803694 -0.43890702724
-2.5421183109 -0.12363330275 -0.16623418033
-3.0043365955 0.087074026465 0.02990436554
-2.3813734055 -0.1966393888 -0.46829259396
-2.4078834057 -0.38146921992 -0.033763002604
-2.2228791714 -0.43314698339 -0.93156051636
-2.2484428883 -0.37665009499 -0.69995707273
-2.4338026047 -0.14846561849 -0.98410707712
-3.2084126472 0.51672041416 -0.28272372484
-2.7260563374 0.36956441402 -0.83096718788
-2.6089749336 0.14500451088 -1.3882325888
-2.744528532 1.0099482536 -0.84779471159
-3.1676967144 1.2806009054 -0.43873599172
-2.5567696095 0.80369770527 -1.4007430077
-2.7979958057 1.6945514679 -0.5066614747
-2.3175792694 1.2549710274 -1.1594637632
-2.3971188068 1.5530745983 -0.76279240847
-2.2051725388 1.137378335 -1.660420537
-2.5668575764 1.9984405041 -0.41587328911
-1.9653820992 1.7218776941 -0.93909829855
-2.0033233166 2.1343877316 -0.59203159809
-1.9396157265 1.4772862196 -1.5140268803
-1.6955988407 1.7909718752 -1.3391853571
-2.0226249695 2.5966506004 -0.15328583121
-2.6385014057 2.4360096455 0.052836708724
-1.5810273886 2.9660768509 -0.42435786128
-1.6196727753 2.4798202515 -0.81598764658
-1.9730350971 2.7591304779 0.4303881228
-2.5227072239 2.6358640194 0.66177141666
-1.5179011822 3.145377636 0.21785229445
-2.7590565681 2.6304352283 1.1561120749
-2.1431808472 2.8804750443 1.1998763084
-2.516408205 2.8120582104 1.5993555784
-1.8463233709 3.326631546 1.4520441294
-2.2223315239 3.2833414078 1.8534849882
-3.1958956718 2.2762942314 1.488035202
-2.74873209 2.5431175232 1.8478513956
-2.5150492191 2.9900901318 2.3175234795
-2.9096124172 2.324678421 1.941365242
-3.0775499344 2.01796031 2.1235716343
-3.4173514843 1.7972626686 1.8019343615
-2.7340283394 2.5207500458 2.3996834755
-2.9544229507 2.0673987865 2.6262693405
-3.5786850452 1.2391687632 1.7844368219
-3.2782280445 1.2492591143 2.3397340775
-3.1244385242 1.7152245045 2.4253368378
-3.0998551846 1.8138347864 3.0103123188
-3.2597954273 1.2674967051 2.9861907959
-3.3976445198 0.62287890911 1.8752243519
-3.1262338161 0.69617521763 2.4152681828
-3.114500761 0.61007100344 2.9531576633
-3.1155946255 0.37170282006 2.0816950798
-2.9147632122 0.089093841612 2.2375013828
-3.0197103024 0.46200090647 2.4848957062
-2.8986740112 0.31251591444 2.6636521816
-2.945166111 0.32413947582 3.0983836651
-2.8427972794 -0.34963965416 2.1664974689
-2.9710159302 -0.38902306557 1.8421812057
-2.4847216606 -0.21976161003 2.8982048035
-2.7473254204 -0.020954869688 2.5753614902
-2.5307302475 -0.66349613667 2.4524550438
-2.6111028194 -0.0053157005459 3.4050383568
-2.2314105034 -0.61654102802 2.8573670387
-2.2104127407 -0.97537541389 2.6734592915
-2.2972662449 -1.4261689186 1.836063385
-1.9777747393 -1.5537192822 2.2193288803
-2.4365255833 -1.1414048672 2.2184779644
-1.9405964613 -1.6800040007 1.5803973675
-1.5743784904 -1.8638657331 2.0834927559
-1.4001529217 -2.1856219769 2.4113936424
-1.7721002102 -1.7772738934 2.4867520332
-1.2935980558 -1.8456027508 1.6612889767
-1.5566821098 -1.7392205 1.2526667118
-1.0016739368 -2.2350277901 2.0313796997
-1.9585648775 -1.6267334223 0.90624904633
-1.2531300783 -1.8271534443 0.77155029774
-1.5910420418 -1.7504328489 0.42596623302
-0.99057757854 -2.2139098644 0.30501252413
-1.4436343908 -2.0563163757 -0.018016131595
-1.9590857029 -1.3755147457 0.10089125484
-2.3743767738 -1.2126064301 0.59241193533
-1.8223676682 -1.6543807983 -0.47415027022
-2.4510872364 -0.81356781721 0.27254542708
-2.0529794693 -0.98837941885 -0.1976673305
-1.9753012657 -1.1390601397 -0.73655158281
-2.203397274 -0.59790349007 -0.25025373697
-2.0904479027 -0.68332606554 -0.64008885622
-2.1239528656 -0.67237752676 -0.99382430315
-1.8747234344 -1.4499946833 -1.1547425985
-2.0081510544 -0.89212673903 -1.2058604956
-2.3145802021 -0.42740625143 -1.3895566463
-1.914468646 -0.88763862848 -1.6443660259
-2.1341371536 -0.49040541053 -1.9040789604
-1.6942960024 -1.3018946648 -1.7698918581
-2.0059452057 -0.25658598542 -2.2836279869
-1.7742135525 -0.75171983242 -2.0433766842
-1.6647012234 -0.40670391917 -2.4442358017
-1.9033260345 0.17281869054 -2.5142538548
-1.4348763227 0.12952491641 -2.7760870457
-1.6069133282 0.81802105904 -2.670468092
-1.5051180124 0.36375880241 -2.7695474625
-2.028437376 0.63473796844 -2.3994705677
-1.2004132271 0.39358723164 -3.1514828205
-1.2872499228 0.96986621618 -3.0821852684
-2.022351265 1.0313991308 -2.1679801941
-1.6324945688 1.193145752 -2.4034633636
-1.3765150309 1.45814991 -2.6825840473
-1.6807712317 1.4230931997 -2.1231124401
-1.1852220297 1.931445241 -2.5013077259
-1.4648787975 1.8125542402 -1.7809897661
-1.3795207739 2.1139104366 -1.4166624546
-1.6359666586 2.0642678738 -1.0562974215
-1.2807209492 2.582531929 -1.2333391905
-1.0603921413 2.2296702862 -1.7729556561
-0.62759590149 2.6334569454 -1.7881234884
-0.82007545233 3.0445885658 -1.1937173605
-0.87705594301 2.3187263012 -2.3273193836
-0.40745863318 2.9378323555 -1.5641553402
-0.129355371 3.4658689499 -0.8946737051
0.28554236889 3.028999567 -1.317363143
0.45431813598 3.1520600319 -0.89978647232
-0.11171041429 2.9657168388 -2.1111147404
0.32936051488 2.9940330982 -1.8381345272
0.0087163308635 3.1251971722 -2.5815711021
0.44704437256 3.1617367268 -2.4150807858
-0.056396745145 3.323135376 -2.9789881706
0.19361940026 3.396364212 -2.7103672028
0.82184708118 2.9207129478 -0.64049607515
0.60081130266 2.8365013599 -1.3026040792
0.99014616013 2.5614800453 -1.1448632479
0.86957532167 2.6945824623 -1.8578264713
1.3033674955 2.4120461941 -1.5391876698
1.089025259 2.5230395794 -0.32882136106
1.2258145809 2.2049005032 -0.89274477959
1.5688353777 1.9930099249 -1.2058931589
1.0788265467 2.5718541145 0.27024063468
1.4020502567 2.0287129879 0.0059311650693
1.4435142279 2.1513445377 0.55242115259
1.0941903591 2.3109588623 0.9053248167
0.73621106148 2.8550043106 0.61589986086
0.42374429107 2.7988231182 1.2934197187
0.73375117779 2.5695266724 1.1026582718
0.38888451457 3.0980718136 0.88514178991
0.83693516254 2.4386527538 1.6743177176
0.50983405113 2.6810889244 1.8203316927
1.1501617432 2.386361599 2.0698246956
0.74106824398 2.7046868801 2.3048501015
-0.27177852392 3.3749451637 1.3674529791
0.084929868579 3.0522258282 1.4602870941
-0.050004024059 3.3902859688 0.85014218092
-0.029611684382 3.263866663 2.0867488384
-0.40820398927 3.6068887711 1.9535527229
-0.64053481817 3.4945306778 1.0753240585
-0.41335582733 3.5920119286 0.46852985024
-0.92258286476 3.6542327404 1.5491021872
-1.0831905603 3.4861660004 0.37001848221
-1.2127637863 3.4137153625 1.0484143496
-1.4491381645 3.6409044266 1.5888521671
-1.5716581345 3.1163070202 0.87188667059
0.30069229007 2.9207792282 2.1969571114
0.22253242135 3.1015257835 2.7794208527
-0.16828849912 3.5207886696 2.6401722431
0.66759639978 2.8915014267 2.9609544277
-0.33594149351 3.4164910316 3.2115852833
0.01642389223 3.0602836609 3.3501644135
0.43919491768 2.8363399506 3.586638689
-0.70675837994 3.2091739178 3.6387457848
-0.26260495186 2.8383581638 3.7648506165
0.074385195971 2.5952966213 4.0869278908
-1.2913577557 3.2010190487 3.7394509315
-1.2385011911 2.7784647942 4.0251636505
-0.56571632624 2.7449214458 3.9404921532
-1.739025712 2.883382082 3.811873436
-1.7497558594 3.1650636196 3.6286871433
-2.2600984573 2.8571581841 3.4061994553
-2.1383094788 3.2349562645 3.3055288792
-2.3962674141 3.0970814228 2.9121797085
-2.5552387238 2.7717378139 2.9474804401
-0.28425839543 2.2130813599 4.4148168564
-0.86554151773 2.4034347534 4.2570223808
-0.9595515728 1.9662138224 4.4500436783
-0.47987532616 1.6100878716 4.6391673088
-1.4369956255 2.3400957584 4.2930717468
-1.4451891184 1.63890028 4.595764637
-1.8498637676 2.0384671688 4.4381275177
-1.8841472864 2.5628838539 4.0085625648
-2.1796021461 2.2822051048 4.1686472893
-2.4390733242 2.5099921227 3.6063642502
-2.5886449814 2.2894210815 3.8165683746
-2.8790106773 2.1675860882 3.4312593937
-2.7314634323 2.4340360165 3.1146359444
-1.3814742565 1.0988804102 4.6774516106
-0.99590355158 1.5525587797 4.5397462845
-0.9018419385 1.1421142817 4.5911169052
-0.40991270542 1.0298062563 4.7169160843
-0.82979232073 0.80318582058 4.6203432083
-1.0441453457 0.46388742328 4.5887961388
-1.6564714909 0.72262656689 4.6335334778
-0.36177185178 0.52440714836 4.8625473976
-0.57450062037 0.033783983439 4.8275361061
-2.1001131535 0.34775385261 4.4536046982
-1.2473398447 0.13601879776 4.5371770859
-1.6911338568 -0.19101303816 4.3544726372
-0.89655524492 -0.41392144561 4.775370121
-1.4286549091 -0.72951263189 4.5688490868
-2.0622110367 -0.33193159103 3.9347631931
-2.4923994541 0.14231950045 4.0037698746
-1.8678981066 -0.96065801382 4.0413298607
-2.1624269485 -0.49599087238 3.3659923077
-2.0054264069 -1.1112699509 3.3938744068
-0.45174387097 -0.73344039917 5.0420880318
0.014763734303 -0.25261554122 5.1264028549
0.10444955528 -1.1440871954 5.0811076164
0.52570730448 -0.6883494854 5.149081707
0.35659328103 -1.6046330929 4.9756612778
0.61941438913 -1.0185414553 5.0798830986
0.79831117392 -1.4373115301 4.9565982819
1.0535024405 -0.81686121225 5.26212883
1.1986920834 -1.2891010046 5.124663353
0.60986685753 -2.0955319405 4.6274561882
1.0708905458 -1.8533329964 4.6488275528
1.5457946062 -1.7199721336 4.8048443794
0.86833614111 -2.3114213943 4.2614207268
1.2277632952 -2.1101748943 4.2566561699
1.621971488 -2.0044574738 4.401705265
1.0025919676 -2.5026717186 3.5769224167
1.374835372 -2.2515485287 3.6607573032
1.0193644762 -2.4141123295 3.9325523376
1.4936751127 -2.1734721661 3.1729133129
1.0566567183 -2.4585745335 3.1010799408
1.0719434023 -2.2084765434 2.543926239
[...]
CELL_DATA 1638
SCALARS cell_data_0 double
LOOKUP_TABLE default
1.99358139498e-08
5.05093256738e-08
3.15898977387e-09
2.72582668772e-08
2.22665738804e-08
2.25688722807e-08
2.19940092935e-08
3.03699685125e-08
1.41767859064e-08
2.60757594778e-08
4.54082768703e-08
6.1895404857e-08
8.69247786326e-08
6.68590577243e-08
2.91350199905e-08
4.90421735623e-08
8.33677108216e-08
4.19589082768e-08
4.16684366578e-08
1.3450504794e-08
1.82010130182e-07
8.80615461821e-08
7.34595396779e-09
1.66855218669e-08
5.22953639985e-08
1.34387282496e-08
7.03291625539e-09
4.52531456796e-08
3.24446235814e-08
4.87115644833e-08
1.50294913287e-08
2.02384259888e-08
5.57787846878e-09
4.36110081727e-08
7.60719854217e-09
3.85911044625e-09
1.52127317294e-08
1.41071585525e-08
1.77849169501e-09
3.45377364129e-09
2.60948246045e-09
5.11828272787e-09
4.96992783909e-09
4.27584202158e-09
4.56540059111e-09
6.42468318612e-09
1.51739922671e-09
1.61676344288e-08
1.08426992237e-08
6.13117396732e-09
1.61064389077e-08
3.38197171057e-08
6.94884034694e-09
1.26942780931e-08
2.09446566364e-09
6.27812765695e-09
2.28948491072e-09
6.79057387049e-09
9.53610117151e-09
8.29957510789e-09
4.23251521195e-09
2.97630073483e-09
7.6179880396e-08
1.59313745096e-08
4.73609937997e-08
4.53462979534e-08
1.87158004182e-08
3.62106297014e-09
2.86847637824e-09
5.34692737591e-08
9.16479696968e-08
1.65671333277e-08
2.86114069535e-08
3.03487000594e-08
1.00278813074e-07
1.39237036081e-09
8.14256601116e-08
7.53894883161e-08
3.79401231264e-08
1.47134580654e-08
1.11586684642e-09
5.8288068958e-08
4.6077526659e-09
4.94890099719e-08
3.00944957366e-08
5.36406216324e-09
6.18964840821e-09
5.64561702992e-09
1.50521840162e-08
5.55672308422e-10
4.6372741874e-09
2.05306733524e-08
6.43860196602e-08
3.38606710685e-09
4.35518218345e-09
5.75611624589e-08
2.24349964149e-08
2.75042055962e-09
7.58514250043e-10
1.25510820428e-08
8.05488200589e-09
2.20639791395e-08
3.53092659016e-08
3.92946586738e-08
8.22420601938e-08
2.99504273464e-08
3.00989601945e-08
8.89956575491e-08
6.85862065338e-08
1.68843632054e-08
7.16885886534e-08
2.99345738379e-09
2.08667523346e-08
7.14654340341e-08
5.07047991852e-08
3.12799671405e-08
4.69493124587e-08
1.20696656781e-08
6.28954055343e-08
4.83314926762e-08
3.53636870608e-08
3.02753471647e-07
6.50124810047e-08
3.35672908841e-08
6.00339571569e-08
3.16906014417e-07
1.74712895059e-09
7.0953500284e-08
1.62407580749e-07
4.14962946657e-09
1.92225906269e-09
2.37996695973e-07
8.1062640231e-08
4.99619367796e-08
1.00112481418e-07
5.84167528788e-08
5.24406035005e-08
5.21556713517e-08
3.39113370008e-08
1.77988790363e-09
6.81038700769e-09
1.14978736161e-08
1.23242086185e-08
8.87770923263e-09
1.68313418784e-08
9.69937211194e-09
4.84621000923e-08
5.98403107001e-09
1.44779013701e-08
1.17976629779e-08
2.61610464388e-08
5.25187942386e-09
1.53081689222e-08
1.3669602644e-08
5.06953668767e-09
3.60235907695e-09
2.71942694189e-09
7.87601451695e-09
1.41551044135e-10
1.30529824317e-08
3.24458691376e-09
4.69675844735e-09
8.98835239736e-09
4.75423076526e-09
2.48250290628e-08
2.45155556268e-08
4.18570743394e-08
5.03530704066e-09
2.70707477742e-08
6.68940398277e-08
1.67181761354e-07
6.71296617219e-09
6.71905570777e-09
2.43315799899e-08
1.2204400434e-07
5.30100534083e-09
1.97580422641e-08
8.17971348797e-10
1.25868416306e-09
1.02167899841e-08
3.69296277278e-09
6.77744363481e-09
4.90208972512e-09
1.15241292584e-08
1.30761218761e-09
2.54077942058e-08
3.20253812572e-09
1.25717385428e-08
1.50630261464e-08
1.22245329939e-08
4.57830831202e-10
5.0830564538e-10
3.31646883285e-09
7.26123835976e-09
5.56612906178e-09
4.45019848602e-10
7.70469917892e-10
5.65289542365e-09
2.03968959462e-09
1.28709816985e-08
1.7213269504e-08
6.25113007989e-09
2.84781039232e-08
1.8272484575e-09
1.12539000713e-09
8.92493791414e-09
4.02359982611e-10
2.19325063229e-09
2.68682077065e-08
2.68194055471e-09
2.41340528641e-08
5.13629278507e-08
7.08197609829e-08
1.24976579547e-07
1.17532796519e-07
7.28290994628e-08
3.09852436397e-07
7.70265950502e-08
2.22193067044e-07
2.99703014521e-08
2.29191552436e-08
4.30615709728e-08
2.07959011144e-08
2.04771845406e-08
5.53275967005e-09
2.80948941297e-08
3.31389491868e-09
1.20432611403e-08
1.01143211442e-07
2.5339755043e-08
1.64986185335e-07
5.13212269955e-08
1.74791656922e-07
6.72526257413e-08
1.00391193305e-07
5.67121340422e-08
1.42653184792e-07
2.15443374458e-07
1.21052308891e-07
5.80518488493e-08
1.19569296316e-07
2.47864571429e-08
3.76520072839e-08
1.45719442021e-08
6.75294346839e-08
2.88007732515e-08
4.06110390774e-08
5.78023377635e-08
3.34973061466e-08
6.82232645511e-09
2.34689064148e-07
1.09402958981e-07
6.4722340953e-08
2.14338993846e-08
3.13184292823e-08
4.01476885904e-08
1.37994329826e-07
1.03278780436e-07
3.87128206039e-08
7.44071007717e-08
1.61994990382e-08
3.78388307149e-08
9.07724763548e-08
1.8236253197e-09
5.43090892171e-08
9.86866221542e-09
4.09613609702e-08
8.26816228548e-08
9.3709167908e-08
6.21669619725e-08
3.67111821753e-07
2.28553421197e-07
2.7685713322e-08
4.0345391022e-08
6.80066368342e-08
2.61170724949e-08
3.55587009209e-09
3.36566415277e-08
6.8299409833e-08
2.8736123724e-08
8.65990189165e-10
1.3878795566e-08
2.30339100009e-08
8.24364483024e-08
1.7929155824e-07
7.66617221879e-08
1.39489581015e-07
9.28429228315e-08
1.48176167263e-07
9.56043456094e-08
2.83762688395e-09
7.67135693228e-08
5.54597590897e-08
7.34807903166e-08
4.9813938682e-08
1.16330646865e-07
6.01963559239e-09
2.999164028e-08
7.89387742272e-09
1.18796420219e-08
3.73163076279e-08
4.68464339106e-08
4.42175880355e-08
8.40414099432e-08
1.18306035809e-07
7.51168515114e-09
4.22450869953e-08
2.39949528902e-08
7.81697166741e-08
9.66673088136e-08
1.22793822543e-08
4.05958661912e-08
4.77086840841e-08
2.2324512084e-08
1.96209341095e-09
2.44822956252e-08
2.12726156833e-08
5.82917057841e-08
1.05265165798e-08
5.70248078019e-11
3.00316709223e-09
2.15979059299e-08
1.10876232884e-07
5.14751517338e-08
2.45937239274e-07
4.04593818003e-08
2.81188561754e-07
6.85641838553e-08
4.75894383385e-08
1.8861029044e-07
2.36608353899e-07
1.86798786017e-08
2.24593984419e-07
7.154490862e-08
1.0235018966e-08
5.39144181287e-08
2.08882911714e-08
6.88849385107e-08
3.32703411427e-08
6.55242246821e-09
3.30605143666e-08
9.59480145292e-08
2.93919479242e-08
1.55808334359e-08
2.85570513574e-08
2.27580470318e-08
4.46357762731e-08
1.13886866587e-07
6.37539942383e-08
2.32425078643e-07
1.20933870209e-07
2.34807483686e-07
1.33822896889e-07
1.40056903663e-07
3.62835366484e-07
7.18936932605e-09
3.64258295436e-08
7.81246231304e-09
1.70657456286e-08
1.79152600579e-09
5.7335938246e-09
1.62199936813e-08
1.41770540027e-08
2.02932531361e-08
2.36805483906e-08
8.35731738695e-09
6.83073911805e-08
8.99167645242e-09
1.06536065147e-08
1.64815309233e-08
2.76134036361e-08
3.42255667477e-09
7.39478737491e-08
4.04312754148e-09
5.29457256517e-08
4.90797959312e-08
1.28464429126e-08
2.16320653512e-08
1.62667142143e-09
1.10503929876e-07
5.73976397956e-08
1.08513431133e-07
2.09565386367e-08
8.26932062785e-08
1.43527396716e-07
2.05614909024e-10
3.80033047396e-07
4.16063592799e-08
4.12580292078e-09
1.33764496296e-07
1.53165088054e-07
9.36475983145e-08
5.13289553924e-08
1.86415683975e-07
4.59082656161e-09
5.21256024409e-09
5.49808111484e-08
4.06337229697e-08
1.45018055518e-08
1.07966923342e-08
1.67561016822e-08
3.46834354884e-08
4.02059270832e-08
1.87643255584e-08
6.93544220354e-09
7.49636541657e-09
1.08786134466e-08
1.5117180299e-08
3.33418136062e-09
9.63892057729e-10
3.09094307432e-09
2.30741848597e-08
1.31009156271e-08
2.93258851579e-08
2.14845740308e-08
2.03112435046e-08
2.6429100771e-08
6.89208582817e-08
3.53611220055e-08
5.38153824124e-10
3.19290307457e-09
2.37381718837e-08
2.94442188561e-08
3.61062588507e-08
1.75410879703e-08
7.38357222375e-08
7.32073579399e-08
1.89742903469e-08
2.61576187832e-08
4.01994084397e-08
5.36064648495e-09
1.90252902724e-09
1.0203304764e-08
9.99924561338e-09
1.65542046011e-08
1.19521676436e-08
4.15113449027e-09
1.97964733145e-08
1.40647670251e-08
1.24447481001e-08
2.42498269088e-08
2.36322543064e-08
3.75615500197e-08
2.48275230935e-08
1.32994953286e-08
3.94301196344e-07
2.8009028066e-07
3.24320065408e-07
1.8257201392e-08
4.66984785693e-08
9.11901509117e-08
1.21665820002e-07
1.70315483962e-09
3.68938864662e-09
2.05633025527e-11
1.9618830739e-08
7.06931737485e-08
5.00367804189e-08
4.2517346834e-08
3.28086224611e-08
3.10388852064e-08
1.59965342651e-08
5.78999270626e-09
4.76866607788e-09
5.27409182938e-09
3.11263233467e-08
6.25549911159e-08
1.29211475096e-07
2.4001790163e-07
1.81655233685e-08
2.46877978904e-07
1.75813335715e-07
2.08624047459e-07
2.41756447609e-09
1.02170219207e-07
2.0590284531e-07
3.76016163665e-07
1.72756189943e-07
1.42301997512e-07
1.04939975752e-07
1.90357048114e-09
3.74888409906e-08
8.62384917045e-08
4.28812299416e-08
2.40941357956e-08
1.18717961621e-08
4.72194582163e-08
6.58240024682e-11
2.910361672e-08
1.11628112419e-08
3.81732741263e-09
2.70003997715e-08
1.19324953339e-08
1.01828474476e-08
1.56492070437e-09
8.90339410881e-09
4.94698603335e-09
1.26486980659e-08
3.38926334141e-09
2.90968230581e-10
1.57035645543e-08
1.2560035071e-08
2.51518681367e-09
6.35566945812e-09
1.39449716629e-09
1.11251032051e-08
1.36272219032e-08
1.81754488959e-08
2.73996587377e-09
4.03319358402e-08
2.16642283189e-07
9.17696193713e-08
5.70609007662e-08
4.63485673835e-09
2.02789749503e-08
3.05646398262e-08
2.56337450929e-08
5.66134729591e-08
2.03822004892e-07
9.46529979438e-08
7.25120340502e-08
2.9871803306e-08
7.52985458078e-08
3.57160082483e-08
1.11760526846e-07
2.69322350346e-08
2.66310809773e-08
2.13694264918e-08
2.67169583335e-08
4.47961255494e-08
1.38805770367e-08
2.20131333502e-08
8.15100004681e-09
5.2322942597e-08
7.29563313457e-09
1.82384663397e-07
5.5151173228e-08
8.39111410466e-08
3.23962422231e-08
1.62255067117e-09
7.92317710331e-08
7.14892869834e-08
6.78244359267e-09
1.48013639226e-07
8.50435036355e-09
1.61768551379e-08
9.37283770945e-09
2.08777656566e-08
6.55343711857e-09
3.94339033183e-09
1.15822944728e-09
6.09415908878e-09
3.06293639288e-10
1.21242785463e-09
4.84867466619e-09
2.72332803524e-09
9.96457862301e-10
2.17782367339e-09
4.26133345606e-09
3.31433278063e-09
8.73196161525e-10
4.8340324909e-09
1.01243952736e-09
6.94540782755e-10
1.22092665885e-09
1.09510895049e-09
4.33322758768e-09
2.32532473936e-09
1.00079822916e-08
2.23305373896e-09
8.05039422038e-09
6.47359243735e-09
5.04271220453e-09
1.03346230643e-09
2.52060512786e-09
5.73735131273e-09
3.6503913715e-09
2.01603802574e-09
3.91262092898e-09
1.37311382782e-08
2.78760160521e-09
8.97506744058e-09
1.91316727107e-08
5.89635214488e-10
3.05258217079e-08
7.42220864923e-09
1.19355131251e-08
1.4605591395e-08
6.16253982307e-09
6.76344847552e-09
2.92358303978e-08
1.78351621491e-08
2.06699955797e-08
4.7190155104e-09
3.01492378534e-09
1.83740405975e-08
1.25283254944e-08
4.73592304748e-09
1.94201221208e-08
1.35932526012e-08
1.11690661242e-08
2.13195007698e-08
7.90887472833e-09
1.53027984943e-09
4.83033256501e-09
1.51643523818e-08
1.31484412335e-08
2.55011645517e-08
3.87297680259e-08
6.4493181988e-09
1.99323722004e-08
3.47701058686e-09
3.66054333793e-08
1.31084633572e-08
4.83557390985e-09
8.31275447331e-09
2.50306492257e-08
2.59439543881e-08
2.21655863017e-08
1.01475165565e-07
1.41251231163e-07
9.01642106981e-08
1.10751242807e-07
1.96597246301e-08
5.78033021643e-08
5.12541255147e-08
6.75929430949e-08
1.36855708569e-08
1.98081565456e-07
1.12007342339e-07
1.03983546371e-08
2.38982582766e-08
7.05428168795e-08
1.27255249716e-08
1.84827079883e-08
1.11159871875e-08
2.63169648019e-08
4.87023770716e-10
8.7877159477e-09
1.70577217054e-08
2.75998221115e-09
9.34891717162e-09
1.09991077887e-08
1.53296184522e-08
1.0916570233e-08
2.14874359224e-08
1.27506180184e-08
6.96738274941e-09
7.00479827848e-09
3.54482305464e-09
1.47398196433e-08
9.04818381261e-09
5.94307249963e-09
7.63073949474e-09
4.7043720362e-08
4.13738672324e-08
2.55735818706e-10
6.55032107361e-09
4.31480787714e-09
1.27525392131e-07
4.82684003169e-08
1.96712460805e-08
1.29007674382e-08
2.3752408925e-08
1.13640689502e-08
7.7540792713e-10
2.68849628111e-08
3.35961796605e-09
7.04487822584e-09
1.02584922488e-08
7.52446778415e-10
2.8285780334e-09
5.90512612376e-10
1.90285304128e-10
5.38874893195e-09
4.74643667705e-09
1.94671805729e-09
1.73516096136e-09
3.35500953768e-09
1.36372825551e-09
9.9211323271e-09
1.77337773787e-09
1.55960046268e-08
1.0291944031e-09
5.04505232012e-09
1.22119851435e-09
2.10929932983e-09
6.07473477903e-09
5.2415661197e-11
2.68729663837e-09
5.97472135626e-09
1.06208212822e-08
7.06989047402e-09
1.39605540776e-08
2.46490236035e-09
1.29243742265e-08
7.47337753507e-09
9.80228058878e-09
9.75389542926e-09
2.00050303238e-09
1.21848882264e-08
1.06919093135e-08
2.38362380075e-08
1.29989551834e-08
3.45688027437e-09
2.54507053882e-09
3.04579787766e-09
1.02306758168e-08
6.00051765146e-09
1.13524812808e-09
3.1425852166e-09
8.568795132e-09
1.23235253802e-08
1.36241106711e-08
1.28162179048e-08
1.11648636703e-09
5.95760259124e-09
4.41078996497e-10
3.42170378398e-09
2.4261842382e-09
3.4074550982e-09
5.72689041886e-09
7.39056075241e-10
1.58750076375e-09
7.7385637438e-09
8.73514105151e-10
1.26376871091e-08
9.03929213966e-09
5.49704059316e-09
4.84337140846e-09
4.94966660043e-09
1.5942403555e-09
8.30361558966e-09
2.30442146132e-08
8.19345599765e-09
6.4488850714e-09
1.13290961194e-09
4.13516925478e-09
4.40099931665e-09
9.8848006025e-09
7.48824260063e-09
2.83388182616e-08
2.16159161045e-09
4.06663463048e-09
8.65240653641e-09
5.12586599365e-09
2.09875222132e-08
3.51741095986e-10
3.18912615552e-09
5.38416163474e-09
2.13091754656e-09
7.87595542115e-09
1.48525681839e-09
5.16339499906e-10
8.15274669235e-09
2.52768566756e-09
2.32828044361e-08
1.02073944414e-07
4.56831956987e-08
5.006978863e-08
3.09544537253e-07
1.12369473834e-07
3.26654308045e-08
7.11107798933e-08
2.26488990837e-07
1.02241624707e-07
2.48460461474e-07
1.00904544883e-07
2.83739554059e-08
5.30011876151e-10
1.78675381908e-08
3.38177782808e-09
9.4780358007e-08
4.85297521921e-08
1.36725582161e-07
1.50958434673e-07
4.88913855155e-08
6.03558382709e-08
1.76884972648e-08
2.00734572095e-09
1.55926034771e-08
6.9200832409e-09
9.11191101912e-09
1.1615823098e-08
4.45896190451e-09
8.72593875156e-09
2.3736692611e-09
1.05956150672e-08
1.9589040851e-08
1.55850956451e-08
1.98740611247e-09
8.81604637712e-09
1.73498826189e-08
6.94569997899e-09
4.57935708161e-08
3.18322406873e-09
1.6024236282e-08
7.55910155113e-09
1.10869218682e-08
8.17360376994e-08
4.87550268515e-08
2.44628883063e-08
8.00101634725e-08
1.90796151174e-09
4.36135847058e-08
1.4828501611e-08
2.44127084859e-08
1.61636929826e-08
8.63696765265e-08
1.50426640975e-07
2.06478339195e-07
8.11178526226e-08
1.84505956606e-07
8.47787065326e-08
2.49933774109e-07
8.22271850573e-08
2.24194364607e-07
9.70580573601e-08
1.5923757841e-07
4.78697736645e-08
9.50565483648e-08
9.21694655322e-09
2.89396122541e-08
6.81565206078e-09
2.36970656321e-08
6.63269375092e-08
1.38311540498e-08
3.3857788451e-08
8.17895395661e-08
1.93599790163e-07
2.1636731158e-07
1.84929273168e-07
8.55252525325e-08
2.24401474457e-08
2.32597746009e-08
4.1362588973e-09
1.18751745346e-08
1.92502803654e-08
3.34793135742e-09
3.47298577669e-09
1.28160214408e-09
1.00507704233e-09
1.90799138985e-09
2.5132704774e-08
2.30163898943e-09
2.77317859684e-09
1.89286562395e-10
6.43949915635e-09
6.49535837026e-09
7.37253249413e-09
2.86717677e-08
9.68379110822e-09
1.14646188407e-08
1.175129281e-08
3.16025918494e-09
4.71580653123e-09
7.19458702251e-10
1.26687001793e-09
5.31484888329e-09
1.93083682014e-08
5.39948296696e-09
2.15077334482e-08
4.67713665524e-09
1.09271775277e-08
3.35140028102e-09
5.54054170719e-09
7.17019211265e-10
6.02316271448e-09
4.74520292495e-10
2.38448907455e-09
2.30964310734e-09
3.85481080828e-09
4.73874454316e-09
5.69077228668e-09
2.96249440235e-09
1.03587488403e-08
4.67587015527e-10
5.39983823511e-09
9.60543735721e-09
3.31266748164e-09
1.10357355537e-08
1.16638619957e-08
2.57697680707e-08
1.2096275486e-08
3.04725164711e-08
1.19562518035e-08
1.16042364247e-08
1.44589684955e-08
1.3392086404e-08
1.23379853703e-08
3.84725307779e-09
9.65195242672e-09
9.59570869769e-09
2.47564680758e-08
1.25583159944e-08
1.68020991424e-08
3.35044374239e-08
4.06786302028e-08
5.79703361321e-09
1.04899911229e-08
5.97100491202e-08
7.7740918048e-08
1.47589224269e-07
1.3557713868e-07
2.40118588156e-07
2.60550412291e-08
2.1660033871e-08
4.61887838682e-08
2.6434323948e-08
2.56611357209e-08
2.36368719606e-08
6.06260113901e-08
3.46206615429e-09
4.51129258956e-10
2.62023194872e-08
9.23526552956e-09
1.75088392182e-08
2.19953118686e-08
1.2047675322e-08
2.47644971167e-08
7.73762415218e-09
1.65380023063e-08
5.42905410699e-08
7.17261871966e-08
6.71972298598e-08
4.62290181742e-08
1.71924765077e-07
8.57668375718e-08
2.48723554348e-07
8.84228318366e-10
4.09899299165e-08
8.05176421812e-08
1.37550404819e-08
5.41119388927e-08
6.0592859032e-08
4.7655823618e-08
7.07560957092e-08
8.18997825369e-08
6.77418328791e-09
4.82816821043e-09
1.15051302481e-07
3.06232891387e-08
4.69156373348e-08
3.4980142203e-09
4.55410509157e-08
2.77449559981e-09
1.10723218142e-07
1.20297756553e-07
1.18159998091e-08
2.9512830867e-08
2.02715146752e-08
1.28506983033e-08
5.862960165e-08
4.13067736873e-08
1.84776894014e-08
3.79837683588e-08
2.80965657183e-08
1.38217430072e-08
4.70355595907e-09
7.47985587801e-09
2.68654194596e-09
8.96386136867e-08
1.06668850249e-07
5.0124092292e-08
1.95605747566e-08
1.65918485593e-08
1.27732499688e-09
6.31189245434e-09
3.33616886498e-08
3.0146339861e-08
2.81100978313e-08
8.71301590979e-09
3.64035273929e-08
3.71925501129e-09
6.07958993632e-08
2.96768548598e-08
4.88925469968e-09
5.39100678578e-08
1.00522591788e-08
1.58081686058e-09
1.69692622652e-08
1.13191615241e-08
3.00220710461e-08
1.65851413007e-07
2.30575717131e-08
1.41515540856e-08
3.97022794531e-08
3.08828254729e-08
3.96701167875e-08
1.75682621131e-08
3.3472068151e-08
6.06044097738e-09
1.09060241626e-08
8.66506436788e-09
1.24795364534e-08
4.52661316049e-08
1.53584635625e-07
7.6419327808e-08
1.97643173202e-08
5.33363558204e-09
5.19461861843e-09
3.38778446316e-08
7.2354172947e-09
1.94433571001e-08
7.7079581723e-09
6.40656765624e-09
1.74748269514e-08
4.38652774226e-08
3.92565919634e-08
3.84413615486e-08
1.23314192688e-07
3.04251796989e-08
6.53269169888e-08
1.94044477577e-08
1.85149233152e-08
1.58270974603e-08
1.90839024806e-08
5.04631325777e-08
1.05926111742e-07
1.97746084143e-07
2.26651064444e-07
2.28327284718e-08
4.91903135232e-08
3.48279022338e-08
8.10716856991e-09
4.44316912762e-09
1.61738595952e-08
8.33117540594e-09
7.64852837632e-08
2.58465123336e-08
5.14587990661e-08
2.52808511692e-08
3.17500188648e-07
2.77947592646e-08
6.02091996007e-08
2.0148672971e-08
1.60158339047e-08
3.98057785022e-11
1.84749594929e-09
2.67213965296e-09
1.2264792735e-08
3.29185821029e-08
2.65454862827e-08
1.32802725737e-07
1.80867375894e-07
1.06527564378e-07
1.08566967478e-07
7.51908667047e-08
2.61606908765e-08
2.13130569323e-08
2.05126065781e-08
4.75159939281e-09
1.01308790975e-08
6.95335894832e-08
6.61331815272e-09
1.76188118378e-08
6.60632491984e-09
5.26855720868e-09
7.08227024523e-10
2.31097223127e-08
2.14823347025e-08
5.29467510926e-08
2.72903313601e-07
1.71229648244e-08
2.36510382206e-07
2.68819023439e-08
1.81868559811e-08
1.14199585728e-08
3.65492059887e-09
9.21937902912e-09
1.24146365463e-08
3.06481872614e-08
2.29862768328e-07
1.8763655553e-07
1.39716816127e-07
7.81644842125e-08
2.8872939942e-07
1.64079437263e-07
3.28176558469e-08
2.00853930511e-08
3.59741948843e-08
7.38875971381e-09
2.03391934839e-08
1.97474790371e-08
3.58474697872e-08
3.25734086055e-08
3.01129288939e-08
1.89170626577e-08
1.16967223068e-07
2.17846229416e-07
2.14863837332e-07
9.8001983874e-08
8.98168721873e-09
2.83343675261e-08
9.18460054586e-09
3.32928388998e-09
1.99337406772e-08
3.88588601476e-09
1.61990043481e-08
1.64517886384e-08
2.17582674536e-09
4.87108074791e-08
4.71032302877e-09
8.96168741037e-09
2.09430864646e-09
2.57669426066e-09
5.48569393058e-09
8.71544277201e-09
1.89686682905e-08
1.76564360207e-08
3.97116743682e-09
8.22804944475e-10
8.23889083151e-09