# vtk DataFile Version 3.0
File Name: Molecule/arg/arg_1.0-4.vtk
ASCII
DATASET UNSTRUCTURED_GRID
FIELD FieldData 1
TIME 1 1 double
0.0
POINTS 231 double
-3.4470865726 0.25011116266 1.3917074203
-3.1055963039 -0.071021482348 0.54374349117
-3.0230829716 -0.44991075993 1.5881685019
-2.7278280258 -0.52441310883 0.48834145069
-3.0065739155 0.14218938351 0.010630740784
-2.3201565742 -0.30666136742 -0.37743130326
-2.2791903019 -0.37461322546 -1.0370633602
-2.0780165195 -0.70629012585 -0.83753031492
-2.5944828987 1.4461038113 -0.70583885908
-2.5274670124 0.017925221473 -1.0792602301
-2.2351918221 1.1333625317 -1.595374465
-1.9423458576 1.6721103191 -1.084028244
-2.6319057941 1.984724164 -0.33175849915
-1.4381006956 3.1709945202 0.19871228933
-1.7808232307 2.4935572147 -0.58473581076
-2.48326087 2.6558432579 0.637157619
-3.0275845528 2.3606655598 1.6077957153
-1.8245344162 3.3327968121 1.4947549105
-2.4748668671 3.0736973286 2.2037365437
-2.7019610405 2.5634276867 2.6054224968
-3.0432963371 1.9059309959 2.4120926857
-3.4343998432 1.770106554 1.7225071192
-3.3932750225 0.81235128641 1.94647789
-3.1536071301 0.83672207594 2.8735313416
-3.0376551151 0.43371099234 2.3166873455
-3.1195130348 0.13113261759 1.8562617302
-2.8567242622 0.24616363645 3.2514967918
-2.750597477 -0.048966821283 2.5172855854
-2.9442853928 -0.25193655491 1.9934386015
-2.49223876 -0.7452147007 2.4085996151
-2.3108963966 -0.27676472068 3.3985848427
-1.736484766 -1.6978700161 1.4121109247
-1.9486691952 -1.3569130898 3.2613770962
-0.97162228823 -2.2655844688 2.1546375751
-2.272796154 -1.0505921841 0.36789903045
-1.0157675743 -2.1863284111 0.29575911164
-1.8882495165 -1.357927084 -0.40290638804
-1.8950432539 -1.2878191471 -1.0975712538
-2.0731167793 -0.6932528019 -1.2812327147
-1.7558131218 -0.75764155388 -2.0623493195
-2.1181743145 -0.66443705559 -1.0487911701
-2.2446880341 -0.43429127336 -1.8349528313
-1.5784366131 -1.5508481264 -1.7958362103
-2.1543035507 0.22190742195 -2.3311994076
-1.5374512672 0.11891512573 -2.7159016132
-1.8079212904 0.97477918863 -2.4331920147
-1.0719127655 0.56636953354 -3.3825175762
-1.537899971 1.4865767956 -2.2605929375
-1.8555343151 1.456602335 -1.7907460928
-1.1710503101 1.626502037 -2.920019865
-1.1464033127 2.036667347 -2.1761782169
-1.4926218987 1.8313040733 -1.7097764015
-1.2515509129 2.4429416656 -1.3407509327
-0.52946126461 2.5308024883 -2.3487234116
-0.8299343586 3.0399560928 -1.184437871
0.48208105564 3.1414473057 -0.98413217068
-0.16908662021 2.9500644207 -1.8992954493
1.1446589231 2.6271574497 -2.0715870857
0.71954673529 3.2390508652 -2.6050913334
0.7862355113 2.6915206909 -1.6838871241
0.38486918807 3.441734314 -2.779522419
-0.053804229945 3.3279304504 -3.0091004372
0.23167218268 3.2474167347 -2.406211853
1.0559737682 2.474301815 -0.48021295667
1.5108699799 1.9488151073 -1.0704910755
0.93941438198 2.7870361805 0.33547151089
1.5387904644 1.9165241718 0.084457352757
1.2171926498 2.2062063217 0.99589753151
0.25880211592 3.0765464306 1.0029822588
1.253939867 2.2466669083 1.9356417656
0.73469609022 2.7799062729 2.3808202744
-0.074424192309 3.2745566368 2.1422269344
0.73678487539 2.8753983974 3.3177623749
-0.53082984686 3.2780630589 3.5057549477
-0.80805832148 2.821764946 3.9280042648
-1.3043932915 3.5853354931 3.4756524563
-1.8397427797 2.8133482933 3.8108410835
-2.0585930347 3.2480404377 3.3475010395
-2.293418169 2.6703128815 3.5629966259
-1.0364853144 2.1484949589 4.3753046989
0.00051096640527 2.5935437679 4.0635356903
-0.53212326765 1.6917760372 4.5995335579
-2.4546806812 2.2090976238 4.1110653877
-1.5895272493 1.798542738 4.5342078209
-3.0498299599 1.8195815086 3.1156461239
-0.49976021051 1.076125145 4.6926264763
-1.4927920103 1.080037117 4.6560921669
-0.23657654226 0.49272763729 4.8903999329
-1.3269877434 0.2981633544 4.5870866776
-0.37940219045 -0.035069044679 4.9318051338
-0.86096680164 -0.46220102906 4.7702188492
-1.6996520758 -0.75007277727 4.2734775543
-2.3288595676 0.23948198557 4.2523503304
0.16073788702 -1.1826335192 5.0777025223
0.40717104077 -0.41189557314 5.1843719482
1.27212286 -0.79763191938 5.33578825
1.4519842863 -1.8418974876 4.6804776192
0.54412937164 -2.2858726978 4.4858469963
1.6656882763 -2.1446759701 4.0673313141
1.095770359 -2.4641997814 3.2653536797
1.0585722923 -1.8483606577 2.1767539978
1.8990061283 -1.9424530268 2.7815966606
0.22220143676 -2.4823064804 2.1702544689
0.73978495598 -1.6936112642 1.4146362543
0.0067906985059 -2.176223278 1.2280563116
1.03574121 -1.8381632566 0.35673266649
0.039314471185 -2.4806346893 0.28847226501
-0.78672122955 -1.9827405214 1.1726913452
1.4230158329 -1.0198007822 0.19036121666
1.2075237036 -1.2381435633 1.4098519087
1.5000993013 -0.76846045256 1.2951579094
2.3402302265 -0.69261395931 1.9795570374
1.8848519325 -1.4701334238 2.2285029888
1.7064397335 -0.093788139522 0.69458943605
1.7700383663 0.20343291759 -0.25726607442
1.6446322203 -0.67282819748 -0.71862763166
1.542829752 -1.5753266811 -1.5333276987
2.195176363 -0.16832090914 -1.4407129288
2.0812735558 -1.0892553329 -2.2739520073
1.0403134823 -1.4634555578 -2.8822727203
0.48801741004 -2.1745951176 -2.1171135902
-0.25964379311 -1.4212061167 -2.6566298008
0.09465739131 -0.7076535821 -3.5153987408
-0.39815801382 -0.71881240606 -3.0077254772
-1.0018086433 -0.68644624949 -2.6637439728
-0.71016424894 -0.21935325861 -3.2876765728
-1.0056757927 -1.3431401253 -2.3691542149
-0.16072979569 0.37791776657 -3.9538435936
0.54997760057 0.34673693776 -4.2293076515
-0.41563251615 1.9721788168 -3.5510547161
0.0077178962529 2.9957559109 -3.6720716953
0.89515000582 3.1023519039 -3.6544981003
0.97745990753 3.2042438984 -2.8600399494
1.5359796286 2.564214468 -3.3241934776
1.6408156157 2.7102305889 -2.5574703217
2.0104672909 0.88330161572 -1.1166987419
2.355602026 0.62821245193 -1.6537117958
2.1360619068 1.5030654669 -1.7721081972
1.9695191383 0.94253772497 0.012762715109
1.1176841259 1.6373778582 -4.2105956078
0.99487495422 2.13098526 -4.0379853249
1.419593215 1.616153717 -3.9214570522
1.8915798664 1.2962406874 1.3407660723
2.5464653969 0.94397455454 2.5772128105
1.8443270922 1.5808986425 2.3466629982
1.78703475 2.1027386189 3.1706671715
2.4987504482 1.4059095383 3.4779942036
1.8184595108 1.8320059776 3.7531175613
2.1596720219 1.2369718552 4.6173491478
1.4643698931 1.6751993895 4.3307628632
1.5154223442 0.65279167891 5.2090935707
0.34832689166 1.785287261 4.7088599205
0.61380106211 0.97702389956 4.9161200523
0.75260651112 1.0914084911 -4.3676681519
0.21630702913 1.0179258585 -4.1849617958
0.13918809593 2.1241192818 -4.0298013687
-3.5216414928 2.203016758 0.80101168156
-3.5325944424 1.6130427122 -0.087132908404
-3.9327719212 1.1367281675 0.84560316801
-2.6863048077 -1.2325196266 1.3253372908
0.51212060452 3.3768675327 -0.073785215616
-1.1030259132 4.0072836876 2.507175684
-2.1005587578 3.6527211666 2.5206401348
-2.8509738445 1.3246976137 4.3407330513
-0.63296216726 -2.5609462261 4.3520445824
-0.7990052104 -1.6572548151 4.9343180656
-1.5566647053 -1.8534430265 4.2471218109
-0.97058743238 -2.774844408 3.2956619263
-0.3596637249 -2.9586172104 3.2280263901
0.34376230836 -2.8990039825 3.3898761272
0.48260593414 -2.7837586403 -0.77394837141
-0.93118876219 -2.694537878 -0.73805755377
-0.71341437101 -2.4647591114 -1.8626322746
1.3705208302 -2.1067061424 -0.73920434713
-0.5096155405 1.1818553209 -3.8396408558
1.7247134447 2.2059290409 -1.8465253115
1.3299608231 2.5348410606 2.7363374233
0.76482075453 2.5390233994 4.0495433807
3.6673974991 -0.31800448895 3.7043848038
3.3203845024 0.14676658809 4.6489601135
3.3445913792 -0.82843327522 4.5918841362
3.2518978119 -1.4503148794 3.5080769062
3.3368861675 -0.87182837725 2.8145873547
3.3358654976 0.17788396776 2.7733125687
3.3247795105 0.75832867622 3.6217198372
2.4506464005 0.27649313211 5.3204469681
2.4901371002 -0.82832014561 5.3217339516
2.7260057926 -1.6868706942 2.8638722897
2.0273249149 -1.7844827175 4.7192077637
2.9131510258 0.13289171457 -2.6089737415
2.5706777573 -0.61865335703 -3.3731741905
2.5614769459 0.5007443428 -3.7572002411
1.8049423695 -1.2203453779 -3.407715559
1.7893303633 -0.4389526248 -4.1936330795
0.76824134588 -0.777158916 -4.0009989738
1.8792456388 1.2602282763 -3.8121528625
1.3423746824 0.80189687014 -4.2970280647
2.444470644 1.2203584909 -2.2601470947
2.4350893497 1.2763398886 -3.1521372795
0.56347203255 2.1685655117 -4.2390327454
0.36208194494 1.4807323217 -4.3716406822
1.8771703243 2.0140943527 -3.3993647099
1.5794262886 2.2888014317 -3.478161335
0.92914110422 3.4319238663 -3.2879693508
0.23175185919 3.5032715797 -3.670443058
1.9970468283 -2.089874506 3.4665863514
-0.13714158535 1.5994689465 -4.0065317154
1.3555175066 2.4204111099 3.6104202271
1.1871539354 2.1762988567 4.1835727692
2.7460515499 -1.8883122206 3.5518345833
1.7780419588 2.4387021065 -2.2529883385
2.1721572876 2.1932375431 -2.5323600769
2.0820398331 1.9168674946 -2.2319571972
2.2108614445 1.5325336456 -2.1359727383
2.2327616215 2.1417450905 -3.0224733353
2.3062107563 1.7026437521 -2.9211175442
2.2366776466 1.6990680695 -2.4300665855
1.8555988073 1.5750882626 -3.5757696629
0.90076977015 2.5823154449 -3.8022882938
2.056609869 2.5740709305 -2.9951636791
0.4876820147 2.6627089977 -3.9586100578
-0.7891035676 -2.7743415833 3.857083559
-0.16522972286 -2.8613460064 3.927516222
3.4132621288 0.49302878976 4.177587986
3.3454384804 -1.2605816126 4.1051473618
2.5195729733 -1.6924123764 4.6633968353
3.0144364834 -1.3392654657 4.6481795311
2.9886598587 -1.6707934141 4.1019120216
2.8983876705 1.0997689962 4.1750741005
2.895829916 0.76767271757 4.7316074371
2.3362360001 -2.0144224167 4.1019072533

CELLS 458 1832
3 0 1 2
3 2 1 3
3 1 4 3
3 5 6 7
3 4 8 9
3 9 8 10
3 8 11 10
3 12 11 8
3 13 14 15
3 12 15 14
3 15 16 17
3 17 16 18
3 19 16 20
3 21 20 16
3 21 22 20
3 22 23 20
3 24 22 25
3 0 25 22
3 23 24 26
3 27 26 24
3 27 25 28
3 28 25 2
3 2 29 28
3 29 30 27
3 29 31 32
3 32 31 33
3 31 34 35
3 35 34 36
3 34 5 36
3 3 5 34
3 36 7 37
3 38 39 37
3 38 40 6
3 9 6 5
3 9 41 6
3 42 37 39
3 41 43 39
3 44 39 43
3 43 45 44
3 44 45 46
3 47 45 48
3 10 48 45
3 49 47 50
3 51 50 47
3 51 11 52
3 52 11 14
3 50 52 53
3 54 53 52
3 54 55 56
3 57 58 59
3 60 61 62
3 55 63 59
3 59 63 64
3 63 65 66
3 66 65 67
3 65 68 67
3 69 68 70
3 71 68 17
3 13 17 68
3 70 71 72
3 73 72 71
3 74 75 76
3 77 76 75
3 76 77 78
3 18 19 77
3 74 79 80
3 80 79 81
3 82 83 76
3 78 82 76
3 82 78 84
3 20 84 19
3 85 81 86
3 83 86 81
3 87 85 88
3 87 88 89
3 90 88 91
3 92 91 88
3 92 30 91
3 91 30 32
3 90 93 89
3 89 93 94
3 95 93 96
3 97 96 93
3 96 97 98
3 99 100 101
3 100 102 103
3 103 102 104
3 103 104 105
3 105 104 106
3 102 33 104
3 104 33 107
3 104 107 106
3 106 107 35
3 105 108 109
3 109 108 110
3 111 112 110
3 109 110 112
3 113 108 114
3 115 114 108
3 115 116 117
3 117 116 118
3 118 116 119
3 120 119 116
3 120 121 119
3 119 121 122
3 123 121 124
3 125 123 124
3 124 126 39
3 42 39 126
3 124 44 125
3 125 44 46
3 127 122 125
3 122 127 128
3 129 53 130
3 130 53 61
3 131 132 133
3 133 132 134
3 132 58 57
3 62 59 58
3 135 136 137
3 135 64 138
3 138 64 66
3 138 114 135
3 114 117 135
3 139 140 141
3 113 142 111
3 111 142 143
3 144 142 69
3 67 69 142
3 145 146 144
3 143 144 146
3 146 147 148
3 148 149 150
3 151 152 149
3 151 85 152
3 152 85 87
3 152 94 150
3 150 94 95
3 25 0 2
3 5 3 4
3 4 9 5
3 48 10 11
3 14 11 12
3 17 13 15
3 19 18 16
3 84 20 23
3 24 23 22
3 26 27 30
3 32 30 29
3 107 33 31
3 107 31 35
3 7 36 5
3 38 37 40
3 41 39 38
3 49 46 45
3 47 49 45
3 52 50 51
3 61 53 62
3 56 53 54
3 56 59 62
3 55 59 56
3 66 64 63
3 69 67 68
3 71 70 68
3 74 80 73
3 83 81 79
3 86 88 85
3 90 89 88
3 95 94 93
3 109 112 100
3 109 100 103
3 109 103 105
3 113 111 110
3 113 110 108
3 117 114 115
3 123 122 121
3 126 124 121
3 153 128 154
3 130 155 129
3 57 134 132
3 136 135 117
3 144 143 142
3 150 149 152
3 156 157 158
3 158 157 4
3 0 158 1
3 158 0 22
3 158 22 21
3 158 21 156
3 156 21 16
3 156 16 15
3 157 156 12
3 15 12 156
3 157 12 8
3 157 8 4
3 4 1 158
3 3 34 159
3 3 159 2
3 2 159 29
3 27 28 29
3 29 159 31
3 31 159 34
3 7 40 37
3 40 7 6
3 10 43 9
3 41 9 43
3 38 6 41
3 45 43 10
3 11 51 48
3 48 51 47
3 13 68 160
3 55 54 160
3 13 54 14
3 52 14 54
3 13 160 54
3 55 160 63
3 63 160 65
3 65 160 68
3 75 161 162
3 75 162 77
3 73 75 74
3 75 73 161
3 161 73 71
3 161 71 17
3 161 17 162
3 162 17 18
3 162 18 77
3 79 76 83
3 19 78 77
3 78 19 84
3 76 79 74
3 23 26 163
3 23 163 84
3 84 163 82
3 82 163 83
3 83 163 86
3 163 92 86
3 88 86 92
3 92 163 26
3 92 26 30
3 25 27 24
3 164 165 166
3 164 97 165
3 165 97 93
3 165 93 90
3 165 90 91
3 165 91 166
3 166 91 32
3 166 32 167
3 167 32 33
3 167 33 168
3 169 102 99
3 169 99 97
3 99 102 100
3 170 171 172
3 170 172 120
3 170 120 173
3 170 173 105
3 170 105 106
3 170 106 171
3 171 106 35
3 171 35 36
3 171 36 37
3 171 37 42
3 171 42 172
3 172 42 126
3 172 126 121
3 172 121 120
3 105 173 108
3 108 173 115
3 115 173 116
3 116 173 120
3 44 124 39
3 129 49 53
3 46 49 174
3 46 127 125
3 123 125 122
3 50 53 49
3 64 135 137
3 57 59 175
3 67 142 66
3 66 142 138
3 114 138 113
3 142 113 138
3 145 144 176
3 151 177 80
3 151 80 81
3 151 81 85
3 89 94 87
3 87 94 152
3 178 179 180
3 178 181 182
3 178 182 183
3 178 183 184
3 179 185 186
3 180 179 186
3 112 111 187
3 182 111 183
3 183 111 143
3 183 143 184
3 184 143 146
3 185 148 150
3 185 150 95
3 185 95 186
3 186 95 188
3 189 190 191
3 190 192 193
3 191 190 193
3 193 192 194
3 193 194 128
3 195 191 196
3 197 189 198
3 189 197 136
3 189 136 117
3 189 117 118
3 189 118 190
3 190 118 192
3 192 118 119
3 192 119 194
3 194 119 122
3 194 122 128
3 140 139 199
3 58 60 62
3 56 62 53
3 195 196 141
3 141 196 139
3 196 128 153
3 153 139 196
3 139 153 200
3 201 141 202
3 132 131 203
3 58 132 60
3 203 60 132
3 203 204 60
3 204 203 131
3 60 204 61
3 61 204 130
3 204 131 130
3 128 196 193
3 193 196 191
3 112 101 100
3 99 101 205
3 127 174 154
3 174 206 154
3 174 129 206
3 154 206 200
3 200 206 155
3 206 129 155
3 145 147 146
3 149 148 147
3 129 174 49
3 46 174 127
3 177 72 80
3 80 72 73
3 70 72 176
3 72 207 176
3 72 177 207
3 176 207 145
3 70 176 69
3 69 176 144
3 145 207 147
3 207 208 147
3 207 177 208
3 147 208 149
3 149 208 151
3 208 177 151
3 181 209 187
3 101 187 205
3 209 205 187
3 187 101 112
3 181 187 182
3 182 187 111
3 127 154 128
3 153 154 200
3 57 210 134
3 134 210 211
3 137 212 175
3 212 210 175
3 212 211 210
3 175 210 57
3 136 197 137
3 213 137 197
3 214 211 215
3 216 215 211
3 216 197 215
3 214 215 201
3 195 217 198
3 217 215 198
3 217 201 215
3 198 215 197
3 133 202 218
3 140 202 141
3 197 216 213
3 216 212 213
3 216 211 212
3 213 212 137
3 137 175 64
3 64 175 59
3 195 198 191
3 191 198 189
3 211 219 134
3 134 219 133
3 133 219 202
3 202 219 201
3 219 211 214
3 214 201 219
3 201 217 141
3 141 217 195
3 205 98 99
3 99 98 97
3 131 220 130
3 130 220 155
3 155 220 199
3 220 218 199
3 220 131 218
3 199 218 140
3 140 218 202
3 133 218 131
3 167 221 166
3 166 221 164
3 164 221 222
3 221 168 222
3 221 167 168
3 222 168 169
3 164 222 97
3 222 169 97
3 169 168 102
3 102 168 33
3 184 223 178
3 178 223 179
3 180 224 178
3 178 224 181
3 225 226 186
3 186 226 180
3 181 224 227
3 224 226 227
3 224 180 226
3 227 226 225
3 148 228 146
3 146 228 184
3 184 228 223
3 228 229 223
3 228 148 229
3 223 229 179
3 179 229 185
3 229 148 185
3 96 188 95
3 186 188 225
3 225 188 230
3 188 98 230
3 188 96 98
3 230 98 205
3 155 199 200
3 200 199 139
3 225 230 227
3 209 230 205
3 181 227 209
3 209 227 230

CELL_TYPES 458
5
5
5
5
5
5
5
5
5
5
5
5
5
5
5
5
5
5
5
5
5
5
5
5
5
5
5
5
5
5
5
5
5
5
5
5
5
5
5
5
5
5
5
5
5
5
5
5
5
5
5
5
5
5
5
5
5
5
5
5
5
5
5
5
5
5
5
5
5
5
5
5
5
5
5
5
5
5
5
5
5
5
5
5
5
5
5
5
5
5
5
5
5
5
5
5
5
5
5
5
5
5
5
5
5
5
5
5
5
5
5
5
5
5
5
5
5
5
5
5
5
5
5
5
5
5
5
5
5
5
5
5
5
5
5
5
5
5
5
5
5
5
5
5
5
5
5
5
5
5
5
5
5
5
5
5
5
5
5
5
5
5
5
5
5
5
5
5
5
5
5
5
5
5
5
5
5
5
5
5
5
5
5
5
5
5
5
5
5
5
5
5
5
5
5
5
5
5
5
5
5
5
5
5
5
5
5
5
5
5
5
5
5
5
5
5
5
5
5
5
5
5
5
5
5
5
5
5
5
5
5
5
5
5
5
5
5
5
5
5
5
5
5
5
5
5
5
5
5
5
5
5
5
5
5
5
5
5
5
5
5
5
5
5
5
5
5
5
5
5
5
5
5
5
5
5
5
5
5
5
5
5
5
5
5
5
5
5
5
5
5
5
5
5
5
5
5
5
5
5
5
5
5
5
5
5
5
5
5
5
5
5
5
5
5
5
5
5
5
5
5
5
5
5
5
5
5
5
5
5
5
5
5
5
5
5
5
5
5
5
5
5
5
5
5
5
5
5
5
5
5
5
5
5
5
5
5
5
5
5
5
5
5
5
5
5
5
5
5
5
5
5
5
5
5
5
5
5
5
5
5
5
5
5
5
5
5
5
5
5
5
5
5
5
5
5
5
5
5
5
5
5
5
5
5
5
5
5
5
5
5
5
5
5
5
5
5
5
5
5
5
5
5
5
5
5
5
5
5
5
5
5
5
5
5
5
5
5
5
5
5
5
5
5
5
5
5
5
5
5
5
5
5
5
5
5
5
5

CELL_DATA 458
SCALARS cell_data_0 double
LOOKUP_TABLE default
2.5282630306e-08
1.17077231462e-07
8.83205878358e-08
1.46245419283e-07
1.88394088302e-07
3.92919170236e-07
8.07228121387e-07
2.89603971537e-08
5.06575644507e-08
1.74559369634e-07
1.98550060322e-07
5.04174578879e-09
4.8538503694e-08
2.38503487648e-08
2.1689814328e-08
6.69307637719e-08
3.43737765421e-08
1.31655924932e-08
4.22411642217e-09
2.15942936498e-08
1.53786588971e-08
1.38833216904e-08
3.31474772455e-11
1.77174976974e-07
6.31837278221e-06
7.25260022245e-06
1.62711129299e-07
2.49741036753e-07
2.87618846179e-07
1.12689786633e-07
1.79632509081e-07
1.3953942454e-07
7.45335367141e-08
1.49565753228e-07
9.95232680201e-08
3.56866900977e-07
2.74914095929e-07
8.87891331893e-09
2.19377289401e-07
2.08098069576e-07
2.47807542384e-07
3.35561659219e-08
2.4635382175e-07
2.33006673573e-07
4.48648720923e-08
3.09223489318e-07
7.08943818125e-07
3.67415506181e-07
3.25202571485e-07
1.03654682813e-07
2.13520040981e-06
2.4854615051e-07
7.12443957308e-08
1.45364094658e-07
8.91110589195e-09
1.33549421501e-07
2.49662684394e-07
2.14564399239e-07
2.11344623366e-07
2.99121129961e-07
7.2880675242e-07
5.62454848434e-08
4.11294628023e-08
2.1186466027e-08
1.46988482247e-07
9.55153473191e-08
9.39313595131e-08
1.78362303947e-08
6.1201243851e-08
1.64172753503e-08
5.63540557062e-08
1.71193309573e-08
6.40110706848e-08
1.74074482233e-08
3.90802476709e-08
8.61432959704e-09
1.20289867043e-07
9.95772708756e-07
1.85215568397e-06
1.1926751815e-07
6.53911592046e-08
1.19839757972e-06
1.83015969221e-06
2.47562356153e-06
2.00915250155e-06
3.78443255168e-07
3.16992597948e-07
1.00864928415e-06
3.37956614256e-07
6.0672458397e-07
1.85199437378e-07
2.73305247887e-07
7.30412973107e-07
1.22534764245e-06
5.85452808286e-08
3.22541682829e-07
8.01015714581e-08
7.74079945079e-08
6.92683450418e-07
1.27622997835e-06
2.10347600197e-06
1.91718189639e-07
8.05173757063e-07
1.2718514466e-06
1.74814095988e-07
2.90534681908e-07
1.4112607626e-07
2.41746142008e-09
6.21436875937e-08
5.32809725055e-08
1.77530617236e-07
1.22147436645e-06
3.90053814593e-08
6.35975455335e-07
2.02988268115e-06
2.50914272573e-06
2.46927680318e-07
7.30843102098e-07
1.65356741224e-07
3.91260487118e-07
9.95001304396e-07
2.4358688012e-08
1.95419723881e-07
1.21224736296e-06
1.09409456727e-06
7.11026691817e-07
1.75543007163e-06
3.68417780956e-07
2.46588895183e-07
2.72971273181e-06
1.39153528331e-06
2.49739890713e-06
4.27539973474e-07
2.25312097402e-07
1.55680588838e-08
3.66033387088e-08
8.11068961234e-09
1.36611354934e-07
6.39079664084e-08
9.07026774961e-08
8.54013324528e-07
3.38693014593e-08
1.1649694507e-07
3.19018490729e-07
8.99964791743e-08
3.6640687406e-08
1.37653540621e-07
3.73713652269e-07
7.75986246908e-07
1.33142810554e-06
2.19398707822e-07
2.29843353289e-07
1.26048326844e-07
4.73798514194e-08
3.84632572501e-07
3.07662511849e-07
4.94617717533e-07
2.29261714586e-06
2.74840396668e-07
9.32708802562e-07
1.22286910975e-06
2.65892916527e-07
1.32357513509e-07
3.68867825871e-07
1.06381933465e-08
1.17267957039e-08
7.18106573381e-08
5.75498788188e-08
1.17960114217e-07
3.09085781727e-07
1.30249570125e-07
2.33501814115e-07
9.23977837202e-08
3.28807069726e-07
1.78146575328e-06
9.84242815559e-08
1.63273125476e-07
1.52216771306e-06
1.87360769452e-06
1.7329047583e-06
5.93228863566e-07
9.26690772269e-07
3.80561301682e-07
8.00526572792e-08
3.92750474182e-08
1.2900465551e-07
9.43715691545e-08
1.44877201259e-08
3.03150266365e-09
4.06347840221e-08
7.52729758442e-08
2.38291465278e-08
2.44205946196e-07
2.9329592851e-07
1.74277653445e-08
1.69549507091e-07
2.07828969893e-08
2.77557297139e-08
2.49768807794e-08
7.79795665515e-08
1.52128279288e-06
5.0124111988e-08
3.76339074357e-08
3.87502422944e-08
1.75797489749e-06
2.36068932963e-07
4.55633308203e-08
3.20526851878e-07
1.01094886911e-07
4.31147222961e-08
2.50735973738e-07
3.29061107846e-07
2.08249851126e-07
2.00763531264e-07
2.7597698948e-07
8.14012478198e-08
2.33305805052e-07
3.30478184719e-07
3.45026187748e-09
2.75973849722e-08
2.23940318333e-08
1.37488760359e-08
2.29919828563e-07
1.41021915967e-08
3.30182191818e-08
3.42427450463e-08
2.75726367783e-08
4.97131281776e-08
2.26635857969e-08
7.19279996249e-08
8.55832262941e-08
1.57245341229e-07
1.63363687186e-08
1.48011704232e-07
2.5363242471e-08
4.40183118191e-08
1.50108127576e-08
6.81570322919e-08
9.17136178098e-08
6.83027093811e-08
8.70754285072e-08
6.82215548403e-07
6.00623478356e-06
1.19074903169e-06
2.25916952398e-07
4.17557807131e-07
1.39931126696e-07
2.59941900965e-07
2.51277374017e-06
2.58310989539e-07
9.97655884211e-08
3.10292660019e-06
3.40675573788e-06
3.33457642268e-06
1.10423917705e-07
6.71168803808e-08
5.11363158628e-08
3.48319118658e-08
1.04761572558e-06
1.9361660426e-07
7.47354748804e-07
4.36898270084e-07
1.43505607376e-07
2.56325301615e-07
9.8105490364e-08
1.32527016839e-07
9.3917859902e-08
8.66201047105e-09
9.37179096129e-07
3.1944585105e-08
7.93138447165e-07
1.67956249709e-07
3.70886857484e-07
1.19230710929e-06
2.19800028421e-08
2.0900823628e-07
5.34419934074e-07
2.50182343012e-07
4.17049176445e-07
5.75356839898e-07
7.12598208958e-08
2.45974792895e-07
3.97409937932e-08
3.58730757066e-07
3.71715193295e-06
8.1677257907e-08
4.67002814792e-08
4.86805212073e-08
2.32103898547e-09
2.36745939764e-07
1.03704702028e-07
3.83697179813e-08
2.36780111209e-07
3.04233180843e-07
6.83235661776e-07
4.73591554042e-08
4.32151728651e-07
4.30777922027e-07
7.14630832155e-07
2.72760915117e-06
5.27307660442e-06
6.33469254978e-07
4.19485317538e-07
2.27340073441e-07
3.24824148977e-06
2.31290471701e-08
5.24912932302e-09
1.55649719564e-07
1.22224656627e-07
6.51253676142e-08
5.18445190738e-07
1.45792918097e-07
1.01724417298e-06
8.4236331981e-07
3.98960970574e-08
3.65653098341e-07
1.04976752701e-07
3.61151355123e-08
1.24373994794e-07
3.8585152516e-07
6.43985716796e-07
1.32365253778e-06
2.42958391032e-07
5.51577827299e-07
1.56118670992e-06
4.79529973007e-06
9.11416588126e-07
5.28914639499e-06
4.16855491442e-06
1.05168914806e-07
4.45013435408e-07
3.70972328539e-07
2.26470604484e-06
2.02870350382e-07
4.72952507396e-06
1.00350155897e-06
5.82823286083e-07
3.24471727984e-06
4.50879086643e-07
4.79231291035e-07
1.53512125474e-07
4.34846124989e-07
1.65179425517e-07
9.5298924845e-08
6.64229984538e-07
2.19042668781e-06
5.95761584992e-07
1.09339844942e-06
2.21556705476e-06
4.98456530199e-07
1.31250087816e-07
4.22124877551e-09
6.50786524104e-07
1.30136487436e-07
6.38591306353e-07
2.3450901438e-06
1.20940670589e-06
1.29313540685e-06
1.8644141323e-08
9.20242601057e-07
1.15222244719e-06
3.17491030233e-07
1.54949536178e-06
3.87029654068e-07
5.22013557513e-07
4.50873376793e-08
1.23088318623e-07
1.20612307592e-06
1.27957692453e-06
1.57085768594e-07
2.26519997617e-07
3.83021697711e-07
1.10344313115e-06
7.35785365072e-08
5.36696560846e-07
1.28881562138e-06
6.69757261754e-07
4.13163076283e-07
3.68953670911e-07
5.07922327339e-07
2.53755265935e-07
5.02834402486e-08
1.11269695753e-06
8.05968729206e-07
3.67706684519e-07
1.28598311701e-06
3.76426796437e-07
7.18246454611e-07
6.67914594441e-07
4.02591057534e-07
6.54435136637e-07
6.85813627294e-08
2.50711697151e-07
3.11438105437e-07
3.70346845825e-07
4.4575709511e-08
4.64355338717e-07
4.08111761364e-07
1.42205705094e-07
3.64062868926e-07
3.49683247261e-07
1.61951598413e-06
4.14164183869e-07
1.60795811302e-06
7.37804398045e-07
3.61286835795e-07
1.71139350547e-06
1.16763769168e-07
2.02640336781e-06
2.53789647633e-06
2.15023150143e-06
1.56145154866e-06
8.65110894256e-07
1.63764664395e-06
6.35815970434e-08
4.85654065137e-07
3.60649468203e-07
1.98528945658e-06
7.52906226239e-07
5.64754358335e-07
4.59532497982e-07
3.67207952232e-07
6.81848244922e-07
8.22212106781e-07
1.78668044892e-06
1.54579455331e-06
5.87469189625e-06
4.82002278153e-07
2.61641029733e-06
1.65806223178e-07
4.12716541502e-08
1.90604721863e-07
1.00418059249e-06
3.40173139857e-08
2.06114598572e-07
8.4944500704e-08
1.1967509493e-07
3.47219332106e-07
2.14762263089e-06
2.74603419552e-06
1.05597040828e-06
1.82802154474e-06
3.20436225342e-06
3.14195717733e-07
5.63944181263e-07
8.63590000151e-07
4.32104291625e-06
2.29059854337e-06
3.32716532005e-07
1.59841734702e-06
1.2320762755e-06
2.32492334743e-07
7.43016154756e-08
3.90648296939e-06
1.797527637e-06
9.36855608544e-07
6.45559406596e-07
9.83454908998e-07

