# vtk DataFile Version 3.0
File Name: Molecule/arg/arg_2.0-3.vtk
ASCII
DATASET UNSTRUCTURED_GRID
FIELD FieldData 1
TIME 1 1 double
0.0
POINTS 335 double
-2.9627361298 -0.40176078677 1.8288155794
-3.3805558681 0.27666273713 1.5832519531
-2.9778571129 -0.64725893736 1.0282334089
-3.3851909637 0.020604379475 0.78019714355
-2.8572728634 -0.12340904772 0.19047036767
-2.5103371143 -0.44000715017 0.13877114654
-2.6153116226 0.042847275734 -0.44296327233
-2.2194440365 -0.44502192736 -0.90257608891
-2.290150404 -0.32525005937 -0.55570107698
-2.4188494682 -0.15123267472 -1.0229181051
-3.0250079632 0.11251594126 0.063671827316
-3.2572820187 0.90915280581 -0.36736550927
-2.8077054024 0.69632470608 -0.80947560072
-2.6204094887 0.46334978938 -1.5097054243
-2.4424989223 1.3727327585 -0.88759553432
-2.8830187321 1.7823089361 -0.41849732399
-2.2473852634 1.1607062817 -1.5712214708
-2.440974474 1.9934780598 -0.42843201756
-1.8282291889 1.7658673525 -1.1149835587
-1.5228421688 3.1569316387 0.26351025701
-1.7500571012 2.501691103 -0.61877781153
-2.4753656387 2.6606395245 0.63780611753
-3.1580328941 2.3183891773 1.5110411644
-1.9414310455 3.1846556664 1.4395060539
-2.5420351028 2.9640569687 2.2800161839
-3.4233887196 1.7876267433 1.7888916731
-2.7450699806 2.5237009525 2.3197844028
-2.9740571976 2.0406610966 2.621332407
-3.4078407288 0.58875364065 1.8196284771
-3.1186010838 1.7705595493 2.9964444637
-3.106161356 0.62212783098 3.013209343
-3.1049866676 0.35017475486 2.0877487659
-3.0774145126 0.062294751406 1.8975465298
-2.8597798347 0.18979904056 2.5141694546
-2.9441151619 0.34648367763 3.1269862652
-2.8877513409 -0.17361934483 2.1391370296
-2.5187811852 -0.69743281603 2.4347524643
-2.4825334549 -0.099287047982 3.3917994499
-2.2443447113 -1.4715805054 1.9241793156
-2.0369369984 -1.052271843 3.1933379173
-1.7381222248 -1.9519869089 2.7789876461
-0.9809820652 -2.260073185 2.0886826515
-1.5817314386 -1.7274714708 1.2751642466
-2.1910991669 -1.4587427378 0.76117986441
-1.0352586508 -2.0975682735 0.42952564359
-1.6862169504 -1.788967371 -0.09719195962
-2.3193602562 -0.98942160606 0.24657763541
-1.9785699844 -1.1089581251 -0.52688515186
-2.0470116138 -0.78231787682 -0.81716889143
-1.890740633 -1.3140500784 -1.0580005646
-2.1927320957 -0.56596791744 -1.3453900814
-2.1219851971 -0.66384714842 -1.0288536549
-1.662537694 -1.3491383791 -1.7725695372
-1.8614127636 -0.74917584658 -1.9049255848
-2.1378314495 -0.47213107347 -1.9124307632
-1.9491943121 0.19641666114 -2.4545943737
-1.5771968365 0.1379185617 -2.6762325764
-2.0423808098 1.01328969 -2.143928051
-1.6932364702 1.2513546944 -2.2661731243
-1.1755282879 0.42343083024 -3.1704509258
-1.9553505182 1.4401940107 -1.5269693136
-1.3320250511 1.4874529839 -2.7190730572
-1.0808180571 2.0518162251 -2.2490565777
-1.4932950735 1.8130573034 -1.7346748114
-1.2399054766 2.4692871571 -1.3145661354
-0.52357381582 2.543299675 -2.3313150406
-0.66982752085 2.9832382202 -1.3490108252
0.45773208141 3.1512863636 -0.90883541107
-0.10647961497 2.9733200073 -2.082711935
0.64642041922 3.2926771641 -2.6327528954
0.26016077399 3.2490887642 -2.4391436577
0.78727096319 2.6986396313 -1.7078789473
0.36730578542 3.4410626888 -2.7554507256
-0.064404167235 3.3320145607 -2.9877984524
1.057071209 2.5658342838 -0.34733045101
1.5493670702 2.0194935799 -1.2099612951
0.85335129499 2.8170592785 0.48259267211
1.5409754515 1.9158656597 0.023464344442
1.2413375378 2.1815237999 1.0550347567
0.40497997403 3.0933265686 0.87632226944
0.72779875994 2.5289759636 1.2122427225
0.48149949312 2.6835699081 1.687486887
1.1407819986 2.3980021477 2.0907957554
0.70420318842 2.7251520157 2.3063464165
-0.20158326626 3.4739003181 0.81128406525
-0.035608705133 3.1996941566 1.915468812
-0.52805227041 3.6689052582 1.8598121405
-1.2391943932 3.6111810207 1.4622974396
-0.9108876586 3.5409150124 0.33387985826
-0.15796920657 3.4282429218 2.9621860981
0.55215930939 2.9168365002 3.2464017868
-0.65960389376 3.1877081394 3.657610178
0.10192410648 2.5808999538 4.0927324295
-1.2956800461 3.1911375523 3.7410354614
-1.2794671059 2.8024625778 3.9979643822
-0.65041983128 2.6864588261 4.0192222595
-2.0408332348 2.8679308891 3.6243429184
-1.9765976667 3.153771162 3.4889302254
-2.4101889133 3.0746729374 2.9258522987
-2.5315797329 2.7818887234 2.9891438484
-0.63308751583 1.7016038895 4.5516638756
-1.0481523275 1.977357626 4.4362897873
-1.4708516598 2.3515110016 4.2817564011
-1.8445193768 2.0461113453 4.4358639717
-1.4320600033 1.614159584 4.6055774689
-2.2074589729 2.5016050339 3.8553357124
-2.4604232311 2.2038905621 4.1135134697
-2.7841441631 2.235200882 3.5504057407
-2.7019588947 2.4635848999 3.1272978783
-1.2424179316 1.0023545027 4.6428365707
-0.29538863897 1.0830641985 4.772128582
-0.69452995062 0.24446088076 4.7319874763
-1.5405198336 0.54171693325 4.5862059593
-0.89411360025 -0.38181266189 4.7751846313
-1.7406440973 -0.67932158709 4.2593894005
-2.3364372253 0.22599793971 4.242855072
-0.02027114667 -0.3286908865 5.125415802
-0.43232560158 -0.73229086399 5.0447230339
0.18241451681 -1.1667306423 5.0922455788
0.52733391523 -0.54944300652 5.1918177605
1.0710430145 -0.80173957348 5.265815258
1.2185207605 -1.5491529703 4.9271011353
0.49027681351 -1.8879386187 4.8109941483
1.0201225281 -2.2263169289 4.2472300529
1.7174249887 -1.9791686535 4.4099216461
1.8479713202 -2.1535420418 3.7693359852
1.0247637033 -2.4914441109 3.6031126976
1.1499247551 -2.3248724937 2.8190712929
1.964396596 -1.982257843 2.9572184086
1.0404148102 -1.8481087685 2.1404550076
1.8981404305 -1.4761945009 2.2800853252
0.20608204603 -2.4690845013 2.0791163445
0.75750255585 -1.6778267622 1.2641661167
0.00096134888008 -2.1751234531 1.2127181292
1.045702219 -1.8242931366 0.34412282705
0.03818148002 -2.4743039608 0.34030708671
-0.77934151888 -1.9842675924 1.1941150427
1.4688439369 -1.0971419811 0.029431829229
1.0760126114 -1.3328830004 0.97641330957
1.3541833162 -0.84854841232 0.82375597954
1.3696242571 -1.2311415672 1.7300723791
1.6612120867 -0.77155429125 1.5760029554
2.3381159306 -0.73391795158 2.0005192757
1.6575227976 -0.65772908926 -0.54254859686
1.6873867512 -0.15260638297 0.64807105064
1.8443535566 0.2272104919 0.10678995401
1.6697945595 -1.4019606113 -1.0152190924
2.060138464 -0.23129872978 -1.3343137503
2.2020459175 -0.84843635559 -1.8536769152
1.3700604439 -1.755271554 -1.7108033895
1.7496453524 -1.3501442671 -2.2860410213
0.89208036661 -1.9206473827 -2.1317551136
1.4398705959 -1.4208555222 -2.8895413876
0.62095588446 -1.3667033911 -3.0590641499
0.12165888399 -1.8911087513 -2.462241888
-0.38958069682 -1.2745617628 -2.6782963276
0.12726904452 -0.8258060813 -3.3889870644
-0.34697762132 -0.59849596024 -3.186248064
-1.1505469084 -0.7204592824 -2.5833268166
-0.78442966938 -0.31568062305 -3.1290643215
-0.98680728674 -1.358477354 -2.3803958893
-0.46345517039 0.046187758446 -3.7023863792
0.18991476297 -0.25746271014 -3.9472050667
0.23383297026 0.53918761015 -4.096303463
0.024388872087 0.72874057293 -4.0545449257
-0.39930149913 1.9411697388 -3.5815417767
0.27336287498 1.1356985569 -4.2063846588
0.026017639786 3.011285305 -3.6728520393
0.12102492154 1.991637826 -4.1347808838
0.92653405666 2.2033371925 -4.0354099274
0.90394198895 3.0967080593 -3.6650261879
0.84299975634 3.3616492748 -2.8896830082
1.5640259981 2.5248336792 -3.3377728462
1.641864419 2.7043466568 -2.5425550938
1.1446329355 2.6184818745 -2.0351815224
2.0304386616 1.1098307371 -1.2988847494
2.3415920734 0.59308260679 -1.5686504841
2.2154157162 1.456166029 -2.0470569134
1.8648774624 0.76834017038 -0.73624545336
1.9724972248 0.93349504471 0.040934048593
1.7802141905 0.1522013098 -0.69137573242
1.1946386099 1.6379244328 -4.182097435
1.6201193333 2.2784404755 -3.4479122162
1.8064036369 1.6355009079 -3.602543354
2.0721433163 0.65595042706 0.81906616688
1.8567880392 -0.26914814115 1.4473506212
2.1804289818 0.37591421604 1.6056621075
2.7309985161 0.12575033307 2.1538798809
1.8931019306 1.4218925238 1.2219986916
2.0407071114 1.0118411779 1.9546306133
2.5338087082 0.9663233161 2.5864150524
1.812579155 1.6085395813 2.2665183544
1.9572976828 1.7969434261 3.1110818386
2.5685179234 1.3171395063 3.3356165886
2.2035746574 1.4984302521 3.9120800495
1.5600630045 2.0564279556 3.8178765774
1.929735899 1.2253750563 4.6711001396
1.3573595285 1.6922246218 4.4035549164
1.3277392387 0.80520814657 5.0675282478
0.6484271884 1.4254214764 4.772064209
0.60345256329 0.83749359846 4.9851899147
-0.058354508132 0.40119460225 5.038667202
0.57024598122 0.14303430915 5.2204909325
1.1690365076 0.0091676199809 5.3571681976
-3.7248342037 1.9544991255 0.85273116827
-3.1599268913 2.2651882172 0.12443976849
-3.7188298702 1.5638456345 0.1618540585
-3.7241256237 0.78402620554 0.18338784575
-3.730533123 0.42526736856 0.85784041882
-3.9384753704 1.183708787 0.87175476551
-2.7652084827 -1.1326783895 1.4710166454
-2.4502899647 0.020197777078 -2.0080842972
0.33842837811 3.5273051262 -0.052651327103
-0.29154467583 3.6905481815 -0.29467329383
-1.2216603756 3.2958655357 -0.66987121105
-0.50224614143 3.8236775398 2.5020058155
-1.1126087904 4.011464119 2.4692249298
-1.1124708652 3.7849731445 3.2507712841
-1.8790192604 3.8307936192 2.4708845615
-1.8888523579 3.573769331 3.2291872501
-2.3422808647 3.3998920918 2.4954628944
-1.8376876116 1.2908465862 4.7268466949
-2.5712661743 1.6382077932 4.4827017784
-2.5797801018 0.86202871799 4.5058107376
-3.0511851311 1.595983386 4.0138173103
-3.0638222694 0.81349182129 3.9878253937
0.56016480923 -2.647330761 4.0052514076
-0.17046554387 -2.442643404 4.5829916
-0.18098910153 -2.8634438515 3.9187259674
0.44976463914 -2.8596775532 3.3660433292
-0.17969638109 -2.973151207 3.3032443523
-0.18187260628 -2.8614268303 2.6634371281
0.58922666311 -2.6477835178 2.5977137089
-0.18918402493 -1.7893269062 5.0012798309
-0.80764293671 -1.4966887236 4.9748210907
-0.80429494381 -2.2195699215 4.6350569725
-0.9446837306 -2.6449892521 4.0053253174
-0.81365925074 -2.8584389687 3.3646211624
-0.94203317165 -2.6548826694 2.6326990128
-1.4833598137 -1.359085083 4.5656275749
[...]
CELL_DATA 666
SCALARS cell_data_0 double
LOOKUP_TABLE default
2.18622928414e-08
9.4083866279e-09
1.25476181362e-07
1.86998756477e-08
2.30832138601e-08
4.0411370872e-08
1.67664941893e-07
3.12476433538e-09
2.28180281054e-07
1.91455770952e-07
2.49941692672e-09
1.04999351713e-07
6.08988180197e-08
3.70837712549e-07
1.05302310802e-07
8.71121357273e-08
5.44095107197e-08
2.09866285536e-07
1.03223651524e-07
2.39048572358e-08
1.64255177634e-08
5.17200065737e-08
6.41476367216e-08
9.47436272745e-08
2.5989201792e-08
3.00149873487e-08
4.62181037481e-08
6.36255909159e-08
3.37714687108e-08
2.55224225366e-08
2.64612535659e-09
6.47385220575e-09
1.95364122759e-06
3.0716747187e-06
1.67911506109e-07
4.34526605997e-07
1.20537900138e-07
1.09084646428e-07
2.3604547027e-07
8.00048459724e-08
2.21396145992e-07
7.48156830981e-08
5.03049142808e-08
1.435885326e-07
1.48719443613e-08
7.25848472716e-08
1.37485678427e-07
1.5149395243e-09
1.22593921637e-07
1.12917782548e-07
1.04289073187e-07
1.86702165576e-07
2.18260292719e-07
5.01903088118e-08
4.31760030093e-07
9.01707178769e-08
1.35018089275e-07
2.62754568312e-07
1.19242927402e-07
2.44416863499e-07
6.70856420535e-07
7.26337652355e-07
1.84189032146e-06
5.91167328933e-08
4.89278968646e-07
1.6606806794e-07
1.99310824656e-08
6.98194010416e-09
3.33990480934e-08
6.51021705402e-08
1.78404936075e-07
3.42858349243e-09
8.45472622087e-08
2.05935325332e-09
5.43631961324e-08
8.49396504963e-08
2.28572405341e-08
1.95748962069e-08
2.49603987224e-07
1.5649571734e-08
3.59905469039e-07
3.08101065383e-09
3.92058229643e-08
8.83807940078e-10
5.58721320815e-09
1.38640942604e-09
1.056300175e-08
3.96492207345e-08
7.26013907421e-09
7.21720009769e-08
5.39133023181e-10
1.25755626744e-08
7.03603403801e-09
2.14085395208e-08
7.55172739758e-09
1.52723150395e-08
1.09242094316e-08
2.33894801765e-08
3.09919542736e-08
8.90326002583e-08
5.20277759811e-08
2.55305881464e-08
3.40750390222e-09
1.92562254597e-08
8.81407908872e-08
5.67372355755e-07
2.86492786979e-06
2.90481910261e-08
1.47043773478e-08
2.48928867349e-08
8.53939470683e-09
1.29004358449e-07
4.10186257085e-08
9.77291028802e-08
1.01067189581e-06
6.99807463246e-07
1.1588234239e-06
1.55419782887e-06
1.98988277215e-06
8.91393399185e-08
1.05289414362e-07
1.56640662106e-07
3.44618604761e-07
1.22700731665e-06
1.09012694228e-07
5.58455282949e-07
9.62589158585e-09
2.99810872878e-07
6.34864222648e-07
5.55545573317e-07
4.78695191324e-07
1.02125177512e-07
5.72650244954e-08
1.02615495246e-07
7.24860838314e-08
6.74132279587e-09
6.24969006342e-08
2.46029132301e-07
1.05658362956e-06
1.37429542133e-07
2.11448129396e-07
2.69916813739e-07
7.88749394602e-07
3.39998326982e-07
1.69383803597e-07
6.69193739062e-07
2.4582343144e-07
1.9283575905e-07
6.86276255806e-08
1.42626973202e-07
6.78435218585e-08
2.455665753e-08
2.63491959605e-07
2.28836334758e-07
1.56053519302e-07
5.71866446231e-07
4.96035656666e-06
8.27905487461e-07
3.60244553783e-06
6.46358619745e-06
1.48856911815e-06
2.29028301339e-06
1.07371646e-06
1.85330833473e-06
6.52284754182e-08
1.12226609287e-08
7.44081889273e-07
2.05852418693e-07
1.33662641491e-07
1.61474233413e-07
5.93635337349e-07
4.84240259357e-07
1.20113484617e-06
1.22207585633e-07
2.18658512765e-08
1.54790578819e-07
9.80647971666e-08
1.67096106645e-08
1.88241824864e-07
6.87654155681e-08
1.39310124509e-07
3.32032640149e-07
1.39576543188e-06
7.25315504377e-07
1.42585987265e-06
2.18428773622e-06
1.57517333612e-06
4.41244994004e-07
5.43875123349e-07
1.7607663998e-07
2.73880314552e-07
4.37254295082e-08
1.72636142521e-08
1.96057087157e-08
1.0312569267e-07
4.3551283391e-08
3.86247738505e-08
4.85928349882e-08
5.66514937043e-08
4.9709000621e-08
2.5997020153e-08
2.6029948011e-07
1.78235913434e-08
2.94303126696e-08
9.05882948472e-08
8.01581190357e-08
8.19348008766e-08
1.31646846244e-07
7.58952382806e-08
2.88926171748e-06
1.75967215746e-07
4.15599820181e-08
1.29674178498e-07
2.71502228689e-08
3.13696419317e-08
4.1416397944e-07
2.3293721816e-07
4.47799593963e-07
2.89154011886e-06
5.45865168413e-07
1.09820841789e-06
1.22788715022e-06
4.52883493409e-07
9.991809583e-08
1.44480912992e-08
1.7408323595e-08
3.82154892298e-08
2.10161384612e-08
1.76221594597e-08
5.95967960453e-08
3.33026766128e-08
1.9140060013e-08
2.38051230761e-08
7.40784281843e-08
2.21894895809e-07
8.99463394431e-08
1.03631052616e-07
4.25633134307e-08
1.57706169323e-07
5.08809920333e-08
1.33500439336e-07
4.8964068284e-07
1.96952636964e-07
7.37091407707e-08
5.76498751408e-06
5.92543107109e-06
2.46171041278e-07
3.977996962e-08
2.12230706068e-07
1.9256470498e-07
4.50213005633e-07
1.24168779543e-08
2.08139900443e-08
1.52521088986e-08
1.82431269653e-09
2.08758874238e-08
3.21283017338e-08
7.2197469105e-08
2.37736190209e-08
2.80716540474e-08
3.51544039927e-08
5.96774119504e-08
1.32698326476e-07
6.10838210828e-08
2.56254136157e-09
8.4254022003e-09
2.86752877772e-08
1.01549871949e-07
1.53281128533e-08
2.61352845512e-08
2.09675454633e-08
1.04735063124e-08
3.48241370312e-08
5.58400179252e-08
2.53205980525e-08
4.9693332446e-08
6.17533277815e-08
1.66162299181e-07
6.46275448408e-09
4.81019519637e-07
2.02258927738e-07
1.15569960578e-07
3.43296876575e-08
4.91744256318e-08
3.31343055917e-07
1.77289227206e-07
6.04827795275e-08
3.13671351334e-07
9.02928128182e-08
2.21960627976e-07
1.09604746799e-07
1.45176772309e-07
1.28919561497e-07
5.82515473666e-08
1.32017597199e-08
6.13797273247e-08
2.99470870477e-08
4.60392307462e-08
1.26346304109e-07
8.96456055008e-08
9.38867302224e-08
5.1187528196e-07
5.92553505723e-08
2.51090368731e-07
1.41693272137e-07
2.75810094082e-08
1.22540689676e-07
1.14887754266e-08
5.46404806071e-09
1.18827057243e-08
2.97559414482e-08
1.04334637756e-08
1.04457241261e-08
1.68154148434e-10
5.60374613421e-09
9.03532856909e-09
4.83049956717e-08
1.61037372616e-08
2.1677291818e-08
2.42738839716e-08
3.49854947916e-08
6.2526630774e-08
2.35001849357e-08
3.96354301833e-08
1.32933835619e-09
6.40692779237e-08
4.14044984615e-08
2.6603974022e-08
9.76599443251e-09
1.68736926637e-09
3.1685297752e-09
9.45214596249e-09
1.28294669197e-08
2.08517996997e-08
6.4033159782e-08
3.21978131926e-09
1.11232616534e-08
2.25233458371e-08
9.63126183727e-08
2.44124423999e-08
1.51113877613e-08
3.56051739637e-09
3.68233116566e-10
7.4825561452e-09
1.81743560535e-08
2.40279278255e-09
1.39047507883e-08
8.61549935564e-09
1.35729799397e-08
5.4501147897e-08
1.23771176785e-07
1.2108462465e-07
1.04446955851e-07
1.5530788947e-08
1.26440341653e-08
1.92011066209e-06
2.09199399752e-06
5.58841135707e-07
1.46939956425e-06
1.94815637545e-06
3.02419411493e-08
2.30370130735e-07
1.53937916e-07
1.10975015708e-06
1.29360779631e-06
5.55847511749e-07
2.18124474741e-07
1.10742037987e-07
6.24103498392e-09
4.86978745367e-08
9.56576908923e-08
2.466316458e-08
9.84325873031e-08
3.13670276616e-08
2.16608586485e-08
1.19993802172e-07
7.81429313608e-08
1.258084282e-06
1.44761498384e-07
8.0058715252e-08
8.57952558757e-08
2.37792396754e-07
4.2472798444e-08
1.13622314614e-07
1.88321247095e-07
9.39570159528e-08
6.32029855253e-07
9.12678645165e-07
1.27592414954e-06
5.0418546401e-07
4.20609457141e-06
4.30366548964e-06
3.93457388371e-07
1.40537154376e-08
1.48417711629e-08
4.41169902931e-08
4.86505328523e-08
1.7287727263e-07
7.73308781279e-08
6.79278149797e-07
2.82840040293e-06
1.86437025449e-06
4.81426998351e-10
1.79513009587e-08
2.35480578392e-08
1.05694522929e-07
3.36011673941e-09
2.73360962575e-08
8.15317625269e-09
9.79788402952e-09
1.39408827157e-08
2.07209902018e-09
5.08383221684e-10
1.33672607382e-08
1.25221016749e-09
1.6524149269e-08
4.25683893276e-08
3.69430491267e-08
1.35754143459e-08
6.07683542163e-08
7.37292591905e-10
6.15099311602e-08
1.26555861116e-07
1.6930899488e-07
6.36022062905e-08
7.67120666712e-08
4.80220271733e-08
9.13301998849e-09
4.84435696188e-08
1.34298880028e-07
1.12436058193e-07
5.40363485298e-07
8.72952039888e-07
2.16882363444e-07
2.38627210158e-07
1.04750652831e-07
8.62318212103e-08
1.06437865764e-07
2.56340912074e-08
5.23013777724e-08
1.4040214e-08
8.5547357191e-08
6.99031250474e-08
2.06723914473e-08
7.27794767882e-08
2.07682325618e-07
2.73208814468e-08
1.95084313733e-07
2.06665033135e-07
3.81035573478e-07
1.31726006423e-07
3.34167736688e-07
1.56678742566e-07
1.49889862529e-08
2.5131965033e-08
3.65358733893e-07
1.10632694217e-06
4.59393525952e-07
1.78270988831e-06
1.03192826189e-07
1.31401881293e-06
6.20259110339e-08
4.10795330289e-08
1.79323997147e-07
3.57638890839e-08
9.15746771236e-09
6.19473633991e-08
3.81598692902e-08
6.26862168278e-07
1.34579442617e-07
2.52848002966e-06
2.31772262014e-07
1.23619947848e-06
1.20058376569e-06
3.49726523636e-06
4.40954002371e-06
1.33582475963e-06
1.3424244485e-06
1.01040216708e-07
1.08388755074e-07
1.3716818551e-07
3.68893850678e-08
7.33031864467e-08
2.53110941476e-07
2.6284414966e-07
3.73396014745e-08
2.82359765081e-09
3.90975487441e-08
5.08423093041e-08
8.57936392438e-08
1.38331259746e-08
6.23671667918e-08
2.99497749999e-08
3.58298600997e-08
6.83959791833e-08
2.66258991169e-07
4.21153177491e-07
1.17802736626e-07
1.67492306745e-08
1.60829155649e-08
4.23692580865e-08
1.6690505071e-07
1.69754944244e-07
5.48883893436e-08
4.22706530378e-08
2.68461747107e-08
1.10689536692e-07
1.35030283416e-08
1.49143516043e-07
5.38278368706e-07
5.63886519834e-07
7.1602207119e-07
4.38107322138e-07
1.95952308954e-07
1.13402257915e-07
1.42081510811e-07
1.26345063428e-08
8.13594972903e-08
5.03810529607e-08
3.16444980381e-07
7.2206117915e-07
2.4128169504e-06
1.69143065836e-06
5.18674808646e-08
5.21111107784e-07
1.72758884563e-07
1.74775391448e-09
1.14420748592e-07
2.16442427874e-08
4.96895378979e-08
2.45109094211e-08
2.33471954142e-07
2.71288586775e-07
2.87902180809e-06
1.32304352933e-07
2.14884392927e-06
1.33986434902e-06
7.72662073169e-07
1.72877618048e-06
3.65802168637e-07
1.43022296441e-07
1.0996854135e-07
1.27400203624e-07
5.24191575499e-08
1.54431482719e-07
1.06637363923e-07
1.8831342548e-07
5.15105537787e-07
1.7228165772e-06
8.4309600344e-07
1.41723266932e-06
2.2733761076e-06
4.68137915073e-08
7.5648302929e-07
6.45921033114e-07
2.90677743198e-07
5.3133014266e-08
1.61164523571e-08
6.95177794962e-08
9.92692454898e-08
9.04623711116e-08
2.30551324063e-07
5.44727742629e-07
7.30344474577e-08
6.02431323379e-09
5.9180535282e-09
6.91986717846e-09
2.22610504877e-08
1.62851845603e-08
2.94756892852e-09
2.28044725471e-08
1.81837086073e-08
2.23417464309e-08
2.89577578572e-08
7.98241882216e-09
7.71771816976e-09
3.22810034806e-09
4.31830445923e-08
1.23956017171e-07
1.93994813367e-07
1.32269980753e-07
1.60833502005e-07
1.10638954698e-07
4.52202744408e-08
1.83247397238e-07
8.23426521574e-07
1.42774348202e-07
1.07635405164e-08
6.22715480086e-09
1.48376037463e-07
1.34196606491e-09
1.03330710324e-07
8.82416008953e-08
1.00623036419e-08
2.9858913495e-07
2.74440983883e-07
3.74805978735e-07
1.13181272579e-08
1.92992321505e-07
1.54226449189e-06
1.68698243635e-07
2.86941122311e-07
5.54211197928e-07
3.30995475413e-07
3.74104292686e-06
2.55855513828e-06
5.43996438778e-06
2.02708074021e-06
3.24088837584e-07
5.0375495303e-06
2.23837422727e-08
1.61830608406e-08
3.25161914857e-07
2.86679294821e-06
7.26525806159e-07
1.14079788387e-07
2.1369146438e-06
1.67802153351e-07
2.26673910174e-06
2.84711645822e-06
3.18169013649e-07
1.56561024902e-06
2.31183120295e-07
2.18591821733e-09
1.11864430032e-07
1.57171499213e-06
4.52401576785e-08
9.56418446939e-08
1.93667450571e-07
1.38010338129e-06
3.89883147116e-06
5.28741513009e-06
5.17028591037e-07
4.74621697872e-07
1.75259803091e-07
5.3241850492e-07
6.9835689627e-07
1.85135964982e-07
3.03535975618e-07
1.3199068658e-08
1.40602000922e-06
5.93571141828e-07
5.3986414621e-07
1.92871815446e-06
4.4203692005e-07
3.59196100642e-07
6.89840129244e-07
5.56464723827e-07
6.2372625519e-07
5.73215553908e-07
1.71293956735e-07
3.94012485087e-07
5.31819270853e-07
1.80326187993e-07
3.20070837707e-07
7.8410893227e-07
2.14392400811e-07
2.42585443063e-07
7.04023315319e-08
4.26708687614e-07
1.55389354099e-06
3.01795099027e-06
6.78477766008e-07
3.83509220794e-07
8.84658801859e-07
1.13867689015e-06

