# vtk DataFile Version 3.0
File Name: Molecule/arg/arg_3.0-3.vtk
ASCII
DATASET UNSTRUCTURED_GRID
FIELD FieldData 1
TIME 1 1 double
0.0
POINTS 551 double
-3.403 0.327 1.604
-3.398 0.034 0.803
-2.981 -0.361 1.858
-2.976 -0.654 1.057
-2.971 0.024 0.066
-2.549 -0.664 0.32
-2.984 0.046 0.042
-2.471 -0.12 -0.363
-2.484 -0.099 -0.385
-2.2 -0.483 -0.862
-2.216 -0.458 -0.889
-3.255 0.893 -0.375
-2.57 0.022 -0.532
-2.781 0.681 -0.857
-2.39 -0.269 -1.153
-2.621 0.454 -1.509
-2.776 1.74 -0.497
-2.407 1.34 -0.951
-2.211 1.177 -1.613
-2.622 1.932 -0.429
-2.287 1.501 -0.894
-2.142 1.682 -0.83
-1.982 1.439 -1.492
-1.81 1.654 -1.416
-2.655 2.421 0.048
-2.046 2.135 -0.548
-2.075 2.574 -0.12
-1.615 2.438 -0.879
-1.647 2.927 -0.402
-2.495 2.657 0.67
-1.932 2.785 0.438
-1.488 3.163 0.22
-3.186 2.284 1.521
-2.137 2.872 1.156
-2.739 2.546 1.897
-1.863 3.333 1.507
-2.53 2.972 2.328
-3.419 1.801 1.788
-2.717 2.558 2.345
-2.979 2.017 2.644
-3.567 1.179 1.827
-3.133 1.725 2.369
-3.262 1.186 2.403
-3.107 1.793 3.017
-3.25 1.192 3.055
-3.408 0.559 1.798
-3.123 0.649 2.378
-3.095 0.593 3.027
-3.105 0.348 2.085
-3.1 0.088 1.867
-2.97 0.105 2.152
-2.978 0.383 3.085
-2.865 -0.346 2.113
-2.52 -0.7 2.425
-2.794 0.071 2.575
-2.491 -0.24 2.849
-2.645 0.041 3.387
-2.41 -1.24 2.09
-2.148 -0.9 2.844
-2.042 -1.418 2.522
-2.003 -1.142 3.367
-1.882 -1.734 2.999
-2.078 -1.605 1.676
-1.723 -1.769 2.124
-1.517 -2.136 2.544
-1.592 -1.721 1.268
-1.257 -1.88 1.733
-0.984 -2.263 2.097
-2.203 -1.444 0.759
-1.237 -1.838 0.739
-1.813 -1.578 0.259
-0.96 -2.23 0.303
-1.631 -1.926 -0.256
-2.487 -0.785 0.321
-2.08 -0.956 -0.154
-1.943 -1.202 -0.738
-2.189 -0.632 -0.224
-2.248 -0.516 -0.225
-2.131 -0.618 -0.861
-2.114 -0.682 -1.181
-1.927 -1.264 -1.052
-2.312 -0.441 -1.376
-2.121 -0.506 -1.916
-1.682 -1.348 -1.746
-1.897 0.192 -2.527
-1.864 -0.768 -1.888
-1.57 0.147 -2.691
-2.011 1.039 -2.18
-1.198 0.386 -3.152
-1.348 1.496 -2.696
-1.72 1.257 -2.235
-1.479 1.817 -1.75
-1.107 2.057 -2.211
-1.319 2.584 -1.178
-0.816 3.013 -1.267
-1.111 2.259 -1.642
-0.623 2.675 -1.729
-0.543 2.537 -2.312
0.466 3.148 -0.891
-0.306 2.923 -1.738
0.315 2.988 -1.555
-0.026 3.04 -2.368
0.4 3.085 -2.243
-0.048 3.337 -3.001
0.699 3.415 -2.782
1.057 2.557 -0.305
0.619 2.806 -1.364
1.192 2.232 -0.796
0.892 2.689 -1.891
1.553 2.026 -1.234
0.737 2.845 0.68
1.539 1.918 0.039
1.22 2.206 1.024
0.406 3.093 0.833
0.756 2.48 1.392
0.466 2.698 1.526
1.112 2.426 2.108
0.748 2.699 2.276
-0.152 3.531 0.588
0.05 3.076 1.433
-0.422 3.446 1.225
-0.034 3.266 2.099
-0.572 3.688 1.862
-0.865 3.557 0.357
-1.026 3.468 1.03
-1.261 3.713 1.639
-1.554 3.135 0.914
-0.08 3.426 2.677
0.695 2.881 2.933
-0.313 3.4 3.231
0.431 2.852 3.563
-0.687 3.194 3.654
0.006 2.617 4.044
-1.359 3.167 3.763
-0.58 2.815 3.881
-1.359 2.784 4.008
-1.995 3.111 3.523
-2.096 2.719 3.73
-2.423 3.039 2.998
-2.593 2.636 3.121
-0.832 2.373 4.277
-0.242 2.183 4.431
-1.061 1.806 4.483
-0.466 1.628 4.634
-1.543 2.398 4.242
-1.452 1.611 4.604
-1.868 2.121 4.396
-2.128 2.66 3.763
-2.373 2.347 3.982
-2.655 2.52 3.176
-2.827 2.227 3.476
-1.464 1.095 4.666
-0.48 1.041 4.705
-1.655 0.731 4.634
-0.882 0.784 4.614
-1.066 0.434 4.582
-0.333 0.517 4.869
-0.555 0.096 4.831
-2.14 0.383 4.441
-1.246 0.178 4.538
-1.7 -0.148 4.358
-0.878 -0.357 4.785
-1.429 -0.753 4.566
-2.498 0.133 3.99
-2.035 -0.382 3.936
-1.836 -1.037 4.053
-2.172 -0.468 3.371
-0.383 -0.749 5.065
-0.05 -0.304 5.117
0.164 -1.171 5.088
0.507 -0.734 5.141
0.44 -1.748 4.904
1.043 -0.806 5.264
1.319 -1.383 5.081
0.709 -2.198 4.495
1.588 -1.833 4.672
0.93 -2.454 3.923
1.809 -2.089 4.099
1.07 -2.477 3.273
1.949 -2.112 3.449
1.108 -2.263 2.644
1.987 -1.899 2.82
1.037 -1.846 2.131
1.916 -1.481 2.307
0.482 -2.37 2.114
0.798 -1.688 1.555
0.356 -2.104 1.542
0.806 -1.676 0.912
0.365 -2.092 0.898
1.061 -1.813 0.337
0.505 -2.337 0.32
-0.266 -2.524 2.101
-0.238 -2.226 1.532
1.48 -1.078 0.031
1.043 -1.422 0.814
1.323 -0.93 0.61
1.797 -0.747 1.701
2.335 -0.746 2.002
1.639 -0.712 -0.547
1.476 -0.549 0.311
1.615 -0.229 -0.195
1.697 -0.118 0.66
1.842 0.216 0.134
1.085 -2.024 -1.812
0.547 -2.053 -2.217
1.309 -1.6 -2.199
-0.032 -1.836 -2.488
0.827 -1.627 -2.562
-0.548 -1.409 -2.576
0.31 -1.432 -2.805
-0.152 -1.05 -2.884
0.599 -1.22 -3.306
0.104 -0.811 -3.39
-0.822 -1.287 -2.506
-0.336 -0.591 -3.197
-0.616 -0.466 -3.125
-1.31 -1.347 -2.194
-0.988 -0.705 -2.664
-1.485 -0.767 -2.346
0.377 1.347 -4.4
-0.398 1.946 -3.588
0.117 1.987 -4.134
-0.106 2.463 -3.53
-0.202 2.855 -2.684
0.028 3.029 -3.665
0.9 3.106 -3.671
0.173 2.486 -3.833
0.85 2.546 -3.838
0.989 2.064 -4.14
1.267 2.733 -3.406
0.819 3.383 -2.845
1.204 2.948 -2.765
1.749 2.404 -3.353
1.668 2.681 -2.526
0.902 2.914 -2.485
0.749 2.956 -2.405
1.123 2.627 -2.01
2.133 1.624 -1.992
2.194 2.159 -2.516
2.042 0.907 -1.262
2.428 1.273 -2.257
2.342 0.599 -1.57
1.855 0.911 -0.632
1.44 1.861 -0.608
1.976 0.918 0.014
1.861 0.778 -0.544
1.751 0.201 -0.446
1.991 0.665 -1.105
1.878 0.074 -1.004
2.201 -0.141 -1.444
2.497 1.237 -3.182
2.232 2.14 -3.028
1.83 1.363 -3.817
1.863 2.209 -3.379
1.382 0.739 -4.338
1.103 1.869 -4.167
0.855 1.524 -4.455
0.516 0.418 -4.238
1.404 2.01 -3.684
1.315 2.161 -3.664
1.861 -0.287 1.473
2.073 0.663 0.819
2.18 0.376 1.607
2.748 0.111 2.175
1.884 1.434 1.198
2.02 1.032 1.93
2.541 0.959 2.592
1.755 1.469 1.75
1.11 2.216 1.58
1.842 1.579 2.299
1.881 1.886 2.857
2.58 1.266 3.15
1.754 2.03 3.466
2.452 1.41 3.759
1.478 1.99 4.04
2.177 1.37 4.333
1.093 1.773 4.5
1.791 1.153 4.793
0.651 1.408 4.781
1.35 0.788 5.074
0.073 1.245 4.841
0.82 0.891 4.947
0.23 0.725 5.008
0.613 0.111 5.233
1.146 0.023 5.355
-1.909 1.923 -0.799
-0.808 -2.019 1.528
-0.8 -2.007 0.885
1.517 -1.238 1.905
1.099 -1.46 1.828
1.205 -1.217 1.373
1.805 -0.426 -1.067
0.101 0.716 -4.098
-3.022 2.038 -0.231
-3.504 1.618 -0.113
-3.504 2.066 0.275
-3.022 2.419 0.247
-3.504 2.232 0.843
-3.504 2.066 1.411
-3.827 1.75 0.843
-3.827 1.466 1.336
-3.504 1.031 -0.198
-3.504 0.492 0.048
-3.827 0.896 0.35
-3.827 1.466 0.35
-3.94 1.181 0.843
-3.827 0.896 1.336
-3.827 0.612 0.843
-2.634 -1.246 1.071
-2.634 -1.246 1.663
-2.419 0.645 -2.059
-2.419 -0.001 -2.059
0.193 3.598 -0.086
-0.376 3.598 -0.655
-0.376 3.711 -0.086
-0.945 3.598 -0.086
-0.945 3.462 -0.682
-1.427 3.109 -0.654
0.675 3.275 -0.086
-0.333 3.709 2.497
-0.889 3.977 2.497
-0.889 3.843 3.084
-1.507 3.843 3.084
-1.507 3.468 3.554
-0.889 3.468 3.554
-1.507 3.843 1.91
-1.507 3.977 2.497
-2.063 3.709 2.497
-2.063 3.537 3.083
-2.204 0.906 4.671
-2.76 1.053 4.426
-2.76 0.497 4.173
-2.76 1.657 4.339
-2.76 2.119 3.939
-3.145 1.508 3.874
-3.145 0.906 3.874
0.732 -2.729 3.297
0.137 -2.837 3.911
0.137 -2.945 3.297
0.137 -2.837 2.683
0.732 -2.608 2.693
0.137 -2.047 4.853
-0.497 -2.047 4.853
-0.497 -2.525 4.452
0.137 -2.525 4.452
-0.497 -2.837 3.911
-0.497 -2.945 3.297
-0.497 -2.837 2.683
-0.497 -1.461 5.066
-1.092 -1.149 4.877
-1.092 -1.753 4.756
-1.092 -2.266 4.414
-1.092 -2.608 3.901
-1.092 -2.729 3.297
-1.092 -2.608 2.693
-1.577 -1.735 4.312
-1.577 -2.164 3.883
-1.577 -2.321 3.297
-1.894 -1.461 3.837
1.271 -2.245 -0.834
1.271 -2.088 -0.248
0.786 -2.532 -0.23
0.786 -2.653 -0.834
0.786 -2.532 -1.438
0.191 -2.761 -0.22
0.191 -2.869 -0.834
0.191 -2.761 -1.448
0.191 -2.449 -1.989
-0.443 -2.761 -0.22
-0.443 -2.869 -0.834
-0.443 -2.761 -1.448
-0.443 -2.449 -1.989
-1.038 -2.532 -0.23
-1.038 -2.653 -0.834
-1.038 -2.532 -1.438
-1.038 -2.19 -1.951
-0.443 -1.971 -2.39
-1.038 -1.677 -2.293
-1.523 -2.245 -0.834
-1.523 -2.088 -1.42
1.488 -1.753 -1.343
1.588 -1.385 -0.294
-0.243 -2.491 0.308
-1.152 1.82 -2.825
-1.152 1.343 -3.239
-0.729 0.877 -3.763
-0.729 0.286 -3.645
-0.251 0.008 -3.791
0.159 3.677 -3.268
1.993 1.475 0.623
1.632 2.291 3.029
1.147 2.699 3.029
1.147 2.578 3.633
1.147 2.236 4.146
0.552 2.495 4.184
0.552 2.017 4.585
0.025 0.329 5.098
3.668 -0.309 3.703
3.558 0.315 3.703
3.558 0.003 4.243
3.558 -0.621 4.243
3.558 -0.933 3.703
3.558 -0.621 3.163
3.558 0.003 3.163
3.241 0.706 4.289
3.241 0.277 4.718
3.241 -0.309 4.875
3.241 -0.895 4.718
3.241 -1.324 4.289
3.241 -1.481 3.703
3.241 -1.324 3.117
3.241 -0.895 2.688
3.241 -0.309 2.531
3.241 0.277 2.688
3.241 0.706 3.117
3.241 0.863 3.703
2.756 1.15 4.307
2.756 0.808 4.82
2.756 0.295 5.162
2.756 -0.309 5.283
2.756 -0.913 5.162
2.756 -1.426 4.82
2.756 -1.768 4.307
2.756 -1.889 3.703
2.756 -1.768 3.099
2.756 -1.426 2.586
2.756 -0.913 2.244
2.161 1.067 4.858
2.161 0.003 5.472
2.161 -0.621 5.472
2.161 -1.207 5.259
2.161 -1.685 4.858
2.161 -1.997 4.317
2.161 0.589 5.259
1.527 0.003 5.472
1.527 -0.621 5.472
2.923 0.206 -2.769
2.823 0.774 -2.769
2.823 0.49 -2.277
2.823 -0.078 -2.277
2.823 -0.362 -2.769
2.823 -0.078 -3.261
2.823 0.49 -3.261
2.535 0.054 -1.712
2.535 -0.493 -1.962
2.535 -0.819 -2.468
2.535 -0.819 -3.07
2.535 -0.493 -3.576
2.535 0.054 -3.826
2.535 0.65 -3.74
2.093 -1.201 -3.068
2.093 -0.958 -3.615
2.093 -0.513 -4.015
2.093 0.056 -4.2
2.093 0.651 -4.137
1.55 -1.185 -3.63
1.55 -0.78 -4.075
1.55 -0.242 -4.343
1.55 0.357 -4.398
0.974 -1.185 -3.63
0.974 -0.78 -4.075
0.974 -0.242 -4.343
0.431 -0.513 -4.015
0.185 -0.248 -3.95
2.245 -0.694 -1.778
1.154 -1.428 -3.046
1.684 -1.288 -0.895
1.7445 -0.857 -0.981
1.8255 -0.6835 -1.223
1.765 -1.1145 -1.137
1.846 -0.941 -1.379
2.0455 -0.8175 -1.5785
1.586 -1.5205 -1.119
1.667 -1.347 -1.361
1.758 -1.1495 -1.5795
1.579 -1.5555 -1.5615
1.67 -1.358 -1.78
1.9575 -1.026 -1.779
2.151 -0.917 -1.9925
1.8635 -1.249 -1.9935
2.057 -1.14 -2.207
1.4895 -1.479 -1.9895
1.683 -1.37 -2.203
1.8635 -1.27 -2.432
1.4895 -1.5 -2.428
1.67 -1.4 -2.657
1.068 -1.6135 -2.3805
1.2485 -1.5135 -2.6095
1.412 -1.414 -2.8515
0.9905 -1.5275 -2.804
0.8595 3.2445 -3.258
0.489 3.53 -3.0565
0.5295 3.3915 -3.4695
2.075 -1.1705 -2.6375
1.8815 -1.3005 -2.8625
1.6235 -1.3145 -3.057
0.138 -2.2755 0.604
0.131 -2.414 0.314
-0.236 -2.3525 0.598
-0.229 -2.214 0.888
-0.5145 -2.1105 0.8865
-0.5215 -2.249 0.5965
1.264 -1.0735 0.9915
1.3205 -1.0145 1.289
1.3795 -0.871 0.9075
1.436 -0.812 1.205
1.361 -1.2275 1.639
1.4765 -1.025 1.555
1.657 -0.9925 1.803
1.6165 -0.7795 1.453
-0.1485 1.331 -3.843
1.779 -0.2025 1.0665
[...]
CELL_DATA 1098
SCALARS cell_data_0 double
LOOKUP_TABLE default
6.81548522494e-08
3.46896141633e-07
1.99915751013e-08
8.91788598225e-07
1.14547081424e-08
3.1438863174e-07
9.5663551775e-08
3.01002169413e-07
5.9920115132e-07
1.27320652349e-06
1.80746156831e-06
3.03084509025e-06
1.80651395622e-09
1.3271185776e-06
2.03365694159e-06
5.13868239699e-06
3.86042034278e-08
1.00860162417e-06
1.25326443415e-06
1.66899670568e-06
1.52414893179e-06
2.37726349092e-06
2.35181922088e-06
1.51715236822e-06
9.01883542147e-07
5.99835067619e-07
5.4591041335e-07
1.75074015243e-07
4.84320156487e-07
1.42554816218e-07
4.96757062332e-07
6.63001629861e-06
9.35309869086e-06
1.40759796395e-05
2.75229950982e-06
5.92044168444e-07
1.58114197253e-06
2.1715289761e-06
4.13319808952e-07
1.19982381054e-07
9.57127053207e-07
5.61535993179e-07
3.98645420789e-07
7.36832712638e-08
1.69588037487e-07
7.0314425171e-07
9.11086401214e-08
1.43373091075e-07
1.46273300069e-06
1.98928561687e-06
1.03249071787e-06
2.26406647889e-07
1.9814115689e-06
2.51436592048e-06
4.95785121616e-06
4.00669686034e-06
1.54905705404e-06
2.73785768269e-06
2.89076928894e-06
2.75358961861e-06
2.46509450982e-06
2.93175193287e-06
2.58938957817e-06
2.46952282979e-06
4.15714672025e-06
2.57601760422e-06
2.69091472865e-06
1.54883717562e-06
1.98637668993e-06
1.74837990119e-06
1.0606946938e-06
3.10634048153e-06
4.26136486835e-07
5.73608037908e-07
8.76756819694e-07
8.80410746696e-07
1.8535097804e-06
1.81447325967e-06
1.30510625003e-06
7.20854622194e-07
5.501231961e-06
5.73940287608e-06
3.50575354363e-06
4.6085816452e-06
1.07288210788e-05
1.59789129608e-05
2.69459653229e-06
3.26766147011e-06
7.60429712206e-06
8.31358489962e-06
4.54299539462e-06
1.54304971187e-06
3.30519011631e-06
5.4420801098e-06
7.27221110902e-06
5.63697906191e-06
1.02735312416e-05
8.20633697261e-06
2.31486908738e-06
1.44255078375e-06
2.31788186996e-06
8.94204767619e-06
6.25633741957e-06
8.32862180636e-06
1.23103044052e-05
2.27249788167e-05
1.17276766942e-06
7.99106649072e-07
6.25894352704e-07
7.92219790434e-07
1.03672927133e-06
8.53715137722e-07
1.75004899549e-05
2.24947804393e-05
1.39433218657e-05
1.32347819335e-05
1.11810131893e-05
4.14516135402e-06
1.25177108856e-05
1.00837905772e-05
3.55991644126e-06
1.97816603092e-06
4.21952144517e-07
1.57685527708e-06
1.81670291062e-06
1.18894859545e-06
9.00934207028e-07
7.0359298026e-06
1.0876560664e-05
1.72487763394e-05
8.1182779644e-06
1.50738710497e-05
1.43865374388e-05
9.75610677242e-06
2.97343394788e-06
4.2448459305e-06
7.81851907154e-06
1.01047836265e-05
1.49904679321e-05
1.91542923233e-05
1.71617102238e-05
1.02405597225e-05
4.41063406292e-06
1.81644671144e-06
2.51349773459e-06
5.72264970379e-06
1.25036610067e-05
9.97731844443e-06
8.16511276018e-06
6.95241585703e-06
1.03737836194e-05
1.14047351984e-05
5.5671781548e-06
3.02949871675e-06
2.83814298395e-06
4.71114635089e-06
2.09964414176e-06
3.2646879062e-07
1.3985461475e-06
1.51017963763e-06
2.40402924536e-07
4.66260037845e-07
7.59211571453e-07
8.43547270744e-07
3.00617556473e-07
2.5400556738e-07
9.19240590149e-08
7.80753469776e-07
3.79102565523e-06
3.14005973053e-06
2.64423976039e-06
6.96700620687e-06
7.18074811851e-06
6.02298116799e-06
1.53353852389e-06
1.46628277139e-06
4.72218144557e-06
1.09025511839e-05
1.89509778403e-05
9.14532419064e-05
7.71101436275e-05
8.58992730116e-05
2.16919235373e-05
1.59824096825e-05
3.95501065072e-05
3.72328514724e-05
4.96855898178e-05
4.52476997365e-05
4.85509843971e-05
3.55662323069e-05
2.05301200468e-05
6.8934617549e-06
2.48855944315e-06
4.61324317374e-06
2.34515280289e-06
1.86681765984e-06
2.41669844639e-06
5.55888885425e-06
2.15904996137e-05
9.2683014607e-06
9.27973593403e-06
1.29863299676e-05
2.55553811757e-05
1.10727063697e-05
1.0996751837e-05
1.28552957177e-05
5.81397061836e-06
7.34571587784e-08
6.11383408283e-07
1.96297282279e-06
9.02685813954e-07
4.05878709506e-06
6.46251681434e-06
2.05077514399e-05
1.1051890218e-05
1.64287688504e-05
1.89876038746e-05
1.8367320693e-05
5.9843813481e-06
3.68898460077e-06
8.65964339414e-06
1.81610225983e-05
1.80716313894e-05
2.80832784445e-05
2.7695008907e-06
4.85651746781e-06
4.55512728357e-06
6.2485355904e-06
2.49773583771e-05
1.32187285869e-05
6.55428383424e-07
5.2842487443e-07
7.22523533695e-06
5.83683042234e-06
8.12443747917e-06
1.56196712857e-06
3.47435512098e-06
2.16434575034e-07
1.67366505183e-06
1.71515038547e-06
4.72381378751e-07
4.72647467162e-06
1.6564028288e-06
1.40669964601e-06
2.07719561887e-07
3.56583424514e-06
4.96258756207e-06
6.67734627027e-06
1.33924381116e-06
2.63551518248e-06
2.63409801792e-06
1.20637702195e-06
1.07890901325e-06
2.18278237351e-06
3.71159253235e-06
5.80630238912e-06
1.13648764658e-05
2.13784080379e-07
2.66790456986e-07
2.55911825147e-06
4.4219383894e-07
3.70392535692e-07
1.75562709487e-07
2.64101353747e-06
4.10840853018e-06
3.28974241228e-06
3.09608086674e-06
4.19610412211e-06
4.92696488141e-06
4.17938768924e-06
3.91703997559e-06
2.38374388951e-06
2.11408400176e-06
8.78949053041e-07
6.78417492667e-08
3.00435295727e-08
7.56185846288e-08
1.42108663166e-06
4.16983431042e-06
4.48871096886e-07
6.1127785242e-07
2.74877367299e-06
4.65061096579e-06
1.08583529419e-07
1.39129583372e-06
1.69380006496e-06
9.02463551476e-07
1.11518565304e-06
6.31327689276e-07
1.8424258956e-07
1.83886373184e-06
8.54256034073e-07
6.70860236214e-07
2.83051790029e-06
1.73509199917e-06
1.00606029573e-06
1.94006831501e-06
1.89505896616e-06
4.15388402184e-07
2.45007671126e-07
5.47196610511e-07
2.34413951205e-07
1.91190939659e-06
5.56157407273e-07
2.32625376449e-06
2.87640237431e-06
8.9311310158e-08
1.97405013636e-07
1.36266402019e-08
5.16757284219e-07
1.6169285905e-07
1.74637728664e-07
1.11477772284e-07
3.01849673584e-06
9.10019687066e-07
1.19517434214e-06
2.05940347654e-06
3.68867633704e-06
1.16709506114e-06
3.23374174561e-06
2.05579560873e-06
1.50366766191e-06
5.87810593679e-07
6.09177792723e-07
9.06966406418e-07
1.46284825894e-06
6.97617592247e-06
4.68320149289e-06
3.63611525251e-06
2.45919233129e-06
5.33920887846e-06
2.47671453946e-06
1.82880192355e-06
5.919962122e-06
9.73227661114e-06
1.17202753075e-05
5.30897826084e-06
4.19589690175e-06
4.51339401355e-06
3.28922676729e-06
2.37914567715e-06
2.81912406453e-07
4.69612063268e-08
1.60909615778e-06
2.7028133695e-06
9.02515973662e-06
7.67240622434e-06
4.95777382693e-06
3.70920378039e-06
5.0246818719e-06
5.10811227307e-06
4.45219577734e-06
1.31113921371e-06
1.31085601536e-06
4.86380875105e-06
2.44497421383e-05
6.99329366356e-06
9.9176612619e-06
4.08845901648e-05
1.02995738377e-05
9.47079273533e-06
8.9709244589e-06
1.04680391676e-06
6.63944308112e-07
4.79474661838e-07
8.2849247955e-07
2.51821238523e-06
3.04604861535e-06
4.08508595632e-06
4.03452330841e-06
8.75189387029e-06
4.43300473157e-06
1.71449788721e-06
3.91001404388e-06
3.46593014676e-06
1.18375238935e-06
5.0831965364e-06
7.44813275572e-06
5.38795121595e-06
1.40544228732e-05
8.38560616657e-06
9.90323321101e-06
1.55678968916e-06
1.15338422065e-07
1.187965917e-06
7.86303246424e-07
1.60681323596e-06
5.39691050298e-06
6.01246604055e-06
2.44740779462e-06
9.35166542098e-07
2.23726649353e-07
2.5961569027e-07
3.89204517647e-07
9.50393713178e-08
6.83878724049e-07
1.33882303096e-06
1.28913252783e-06
3.32129216395e-06
2.06887181626e-06
1.75806716946e-06
7.50148622862e-07
8.84532810838e-07
1.01138583698e-06
4.88677277183e-07
4.75925477006e-07
6.04886218113e-07
6.39399543337e-07
4.64140912058e-07
4.20175920367e-07
2.1829340809e-06
3.41238366748e-06
1.09831310391e-06
9.67573903701e-07
7.48616884631e-07
1.18133023296e-06
5.4323047339e-07
3.51182122389e-06
4.03080044745e-06
2.53923632466e-06
1.0792523662e-06
2.26520233486e-06
7.61024394795e-07
2.35553204708e-07
3.8947606267e-07
3.96545692645e-07
3.87921044162e-07
1.30306950862e-06
2.32924503821e-06
5.15049891156e-07
1.19845884922e-06
1.68033530051e-06
3.89647474304e-06
2.15893526305e-08
3.25236612987e-07
1.45828297598e-06
8.31230696426e-07
1.33581710577e-06
7.37962791948e-07
1.84684735375e-06
6.96653956134e-07
8.33165722532e-07
1.51287543109e-06
2.24683363257e-06
3.23493353176e-06
2.20714135888e-06
5.14941016874e-07
2.18143319722e-08
3.38985025387e-06
4.12670002925e-06
2.39459829624e-06
4.85208591989e-06
1.91890371515e-06
3.01519338358e-06
4.01490806762e-06
3.62809455911e-06
5.10026047662e-06
1.29372061514e-06
5.72584203684e-06
1.20789429171e-06
1.2824555701e-06
1.09299698022e-06
1.31192823812e-06
9.69006504785e-07
8.90650101781e-07
1.85922466581e-07
3.78418110266e-06
1.0755912112e-06
2.77746014762e-06
9.12178916277e-07
8.65037231629e-07
2.34418469534e-06
4.23249513549e-06
2.45607177e-06
2.34704884696e-06
2.41420164638e-06
1.06693381271e-06
8.54832932744e-07
3.69598690225e-07
8.54167978553e-07
1.79348084103e-06
4.80027164868e-07
4.18880132231e-07
1.55599757761e-05
3.27153839672e-05
6.78143288298e-06
1.80148675075e-05
4.29148842433e-05
5.68388972468e-05
2.90377987203e-05
3.66740108778e-05
2.69399296982e-05
1.17990510621e-05
2.26113661328e-05
1.24614661446e-05
4.39139798649e-06
4.38239243324e-06
1.46455773545e-05
1.40015339099e-05
8.59250617565e-06
3.21994003001e-06
8.97504594494e-07
2.9183703199e-07
2.17066102453e-08
4.51264233376e-08
6.85793861514e-09
5.19289055239e-06
4.32524977309e-06
8.58874088867e-06
1.35151299863e-06
2.50048699042e-06
1.01890959316e-05
1.33312704284e-05
6.41179845706e-06
4.97874024481e-07
1.17973671398e-06
3.81554048474e-06
3.02969639297e-06
9.51227422296e-06
2.12400790788e-05
4.11749006604e-06
8.82047359761e-06
3.73353682292e-06
7.30248442919e-07
1.74930288458e-06
6.96444108976e-07
1.12484863267e-06
7.53688840398e-07
1.32332389873e-06
1.52464066029e-06
1.28123822202e-05
1.00960507103e-05
8.00392750154e-06
6.67967799549e-06
2.86038166933e-06
7.5453698688e-08
2.55521426154e-08
3.76288667787e-07
1.05967571967e-06
2.14599754641e-08
7.40382953667e-07
1.21937360792e-07
1.38152786336e-07
2.13605322819e-07
1.07113811589e-06
1.78904529808e-06
2.79492666468e-06
2.74257750889e-06
2.84571864209e-06
2.13420855734e-06
1.40659381331e-06
1.83095059723e-06
2.00749784103e-06
2.32897552017e-06
1.08908164169e-06
1.5707723632e-07
3.84803313973e-07
6.29206123749e-07
7.68796934778e-07
1.04002203782e-06
6.49255710994e-07
2.02030188688e-06
8.85060510009e-07
3.10917822936e-07
2.61767408242e-07
6.43867071352e-07
4.69443637499e-07
6.00640067645e-07
2.00721149871e-06
1.27978585067e-06
2.30988728876e-06
1.14528881759e-06
1.14306108467e-06
5.22573429932e-07
1.47973431266e-05
9.50687794189e-06
2.00344691767e-05
4.31775173671e-07
4.1294927323e-06
2.89743000243e-06
8.47350000557e-07
2.88769802971e-06
7.25098497733e-06
7.49908227979e-06
5.79865876675e-06
1.54217819441e-06
4.68181831464e-07
1.66863365064e-06
3.24216249048e-06
7.64913536622e-07
1.79662917994e-06
2.86144876297e-07
2.03979000668e-06
1.78034405094e-06
7.83815633841e-07
2.15241094108e-06
9.18846738061e-08
3.43072446745e-07
1.61573760231e-06
3.25785904005e-06
1.32890309802e-05
1.28246458183e-06
6.15760674563e-07
4.40910266833e-07
6.28916596624e-07
9.43570385857e-08
1.4813246263e-06
1.94256072449e-06
4.25950273017e-06
6.93054714786e-06
2.64423072001e-06
6.0777383165e-06
3.8017800114e-06
6.56252403485e-06
6.40555085726e-06
2.27111562866e-06
7.74672600563e-06
6.18233642933e-06
2.53798363045e-05
3.0276276593e-05
3.80673084104e-05
1.02949885029e-05
1.61788504819e-05
2.27107123142e-07
2.11502076516e-05
1.89271243321e-05
2.82335887664e-05
5.00630998271e-06
5.0634592316e-06
8.71917041659e-06
8.09257166036e-06
6.71617741588e-06
7.0602867075e-06
2.90891779084e-09
8.30045909811e-07
4.98756747992e-06
5.29278932465e-07
1.33000514535e-06
2.49446637964e-05
3.35413103616e-05
3.07774626793e-05
2.33017128816e-06
1.52931394326e-06
5.00724727533e-06
2.93851063571e-06
4.20958090466e-05
4.61896224356e-05
1.26505912786e-06
3.02081665557e-06
1.0550558702e-06
2.61348852023e-06
2.17898811374e-06
1.13043507664e-06
2.73600466484e-06
9.03947169965e-07
1.18258978112e-06
2.06524650241e-06
3.99317260974e-06
4.30123027826e-06
2.85490165692e-06
6.99159132763e-06
6.9347890483e-06
3.11979283514e-06
2.08086833984e-06
1.83591815624e-06
3.35234881652e-06
3.41027248889e-06
2.18320053202e-05
1.0000993758e-05
8.62594037966e-06
1.4791941356e-05
8.01057715814e-06
3.58793909104e-05
1.24649074256e-05
1.6236415765e-06
2.39507253974e-06
1.32048076722e-06
1.13333793652e-07
4.34915164089e-06
9.12745134004e-06
9.09600890204e-07
2.59500443525e-06
1.22289020375e-06
1.14226068268e-06
9.89904768603e-08
1.36747482239e-06
2.33741416126e-06
4.33101424035e-06
4.43958468182e-06
2.30328762997e-06
5.7690841122e-06
5.32230834049e-06
2.14793033584e-06
1.22936028969e-06
2.21272992775e-07
2.44288089317e-06
8.58527077587e-07
6.22332471321e-06
8.07342386744e-06
5.14191287526e-06
8.54149215013e-06
1.62562819353e-06
5.68085575746e-08
2.16056646298e-07
3.17021613437e-06
6.2246938086e-06
4.67672773078e-06
9.28348057041e-07
3.66822497694e-06
3.05701134108e-06
1.06444622222e-06
8.85270409988e-08
7.57862462367e-08
3.53086068278e-07
4.49217702336e-07
3.8976452499e-07
9.32324552083e-07
5.36107319764e-06
3.92014908043e-06
3.65140365747e-06
5.45583477412e-06
4.84875993418e-07
4.21983063404e-08
7.42664471513e-08
6.52053434516e-08
1.6515414236e-08
4.13945956752e-08
6.58304966519e-06
8.01098021465e-06
2.13199151857e-05
1.24390885792e-05
8.13317240671e-06
4.56079706053e-06
7.16215361787e-07
1.16196356468e-07
3.36583607863e-07
8.56306932084e-06
1.52593576788e-06
2.12492681128e-06
2.56421414438e-06
4.06080703752e-07
1.2095409516e-07
3.94897247029e-06
2.51311334552e-06
2.22272357359e-05
1.16223018864e-05
3.99844832367e-06
2.40097385796e-06
2.35816372056e-06
1.04183484226e-06
2.7716238785e-06
1.78462926972e-06
1.32328106438e-05
3.8892100577e-06
8.74794499376e-06
1.17019852347e-06
8.79105260743e-07
2.1883866294e-06
2.93842266706e-06
2.28081088578e-06
1.90393273669e-05
6.0925944595e-06
2.23994623694e-07
6.90035957486e-06
6.0194588403e-06
4.68810298648e-06
5.576788043e-06
5.94229438354e-06
5.99830326197e-06
3.81656941557e-06
1.73158158771e-06
5.77076192215e-07
1.21367766827e-06
2.33504895306e-06
8.69912223415e-06
4.64046014488e-06
1.08505528235e-05
3.84854770087e-05
3.18444614718e-06
6.20007979178e-06
2.51192922272e-06
4.52615813046e-06
3.1324470201e-06
2.08880264648e-06
1.43518962604e-06
5.72753823907e-07
1.5522431298e-07
1.55085524928e-06
1.25235203274e-05
2.76214576665e-05
2.26973264402e-05
3.35929829154e-06
9.11081999055e-07
6.16921519661e-07
1.76845718383e-06
8.61969916493e-07
3.29395314522e-06
6.26318166803e-07
1.69840589449e-06
1.25022061508e-06
1.93217971591e-06
1.98272949897e-06
1.56157317056e-06
1.65692186988e-06
1.22275600187e-06
1.1641221295e-06
2.04016603125e-06
1.43242724467e-06
1.86986520963e-06
2.05065396997e-06
1.48089408371e-06
1.52517945424e-07
9.33652449343e-08
1.51386695473e-06
1.03259142003e-06
3.92366448189e-07
6.57108253455e-07
2.53177933433e-06
2.96738319618e-06
2.62758762882e-06
2.14301781851e-06
2.00857646568e-06
4.72402010449e-07
8.73568293474e-07
9.70485705772e-07
2.66900379146e-06
2.21728124857e-08
2.75527953894e-06
1.04006378567e-06
5.9132043258e-07
2.02070535852e-07
1.61582603129e-06
3.63467464597e-06
3.40378355123e-06
5.50543859624e-06
1.85979380708e-06
2.11105200194e-06
9.15165238658e-06
1.09458366498e-05
3.77757226049e-06
3.7610248812e-06
5.57376740002e-07
7.86906662953e-07
1.84000592061e-06
1.49161366932e-06
1.24418536249e-06
1.82346479718e-06
1.48048056755e-06
1.82322835859e-06
1.36022139982e-06
6.12945449612e-07
2.67237940895e-06
1.97110580639e-06
3.87729683749e-06
5.51809777072e-07
1.12965993601e-06
3.63106592681e-05
3.96122339287e-05
1.2512862473e-05
7.17108853362e-07
1.4919477136e-05
1.87658090016e-05
7.94156847282e-06
1.73481274177e-06
1.43063734468e-05
3.11355291609e-05
1.43098985927e-06
9.17905100324e-07
6.96231617566e-07
9.51254476431e-08
1.46625058646e-07
3.8723599532e-08
2.19074692139e-07
2.29356950143e-06
3.65709098315e-06
3.45925854853e-06
3.3308342481e-06
2.67578571681e-07
6.35122755355e-07
2.48788774088e-07
2.13096688588e-07
2.61524016854e-07
3.61374062339e-07
5.17098613173e-07
1.29728733254e-07
2.64155673663e-07
3.61706911607e-07
2.18427626679e-07
1.38354504671e-07
1.47304441827e-07
2.32350494623e-07
5.14618694305e-09
3.59001555448e-07
1.04325310264e-05
1.27047045057e-05
9.52328221442e-06
7.85935064026e-06
5.97127093366e-07
2.15398901968e-07
8.53830805928e-08
3.6176570605e-07
5.2931904458e-07
1.8948663304e-08
2.45724698179e-07
2.42588207048e-06
4.9435178669e-06
1.02422146377e-06
2.7998885684e-07
8.09370566786e-06
1.72893738009e-05
1.65492253705e-05
3.69337144961e-05
0.000113893215732
1.94722222652e-06
6.23422544657e-06
4.06960411701e-07
5.37428478014e-08
6.95134079509e-08
2.3974473036e-05
2.12379618984e-05
2.38202813616e-07
8.78056602239e-07
3.03576656027e-07
1.55508422299e-06
3.02200477213e-06
2.95713336309e-06
1.857477594e-07
5.89610995046e-06
2.27743454785e-06
1.25174201373e-05
1.84493608495e-05
2.31345593475e-05
3.50358512601e-06
3.55385518397e-05
1.91893162016e-05
1.73676678208e-06
1.0112218691e-07
9.46587008126e-06
1.16976422166e-05
3.77954707015e-06
7.0279299598e-06
8.47852493638e-08
1.63059333954e-06
8.96704524367e-06
1.75282456864e-05
2.61191788716e-06
8.79449956678e-07
3.08364772817e-06
2.5007280741e-07
9.1476026344e-08
2.72064717824e-07
9.00652867241e-08
2.21675361911e-07
3.12113913821e-08
1.5228700932e-07
7.33062619645e-07
2.37349933972e-06
2.06001217372e-06
1.39259852601e-06
1.63705782803e-06
7.80481729635e-06
2.92181794309e-07
3.53881465218e-06
8.92673288658e-06
9.24956282718e-07
1.56865169936e-06
1.56665324855e-07
2.04587287779e-06
6.63330141303e-07
1.74208027343e-06
1.38163677734e-06
2.04816112965e-06
1.54892114056e-06
1.33295929476e-06
4.58765065011e-07
1.93540653156e-07
2.0784247651e-07
1.39549475467e-08
3.29724461542e-07
4.36254748362e-07
1.62657466608e-07
7.90402628898e-07
1.42333669586e-07
1.22461059826e-06
1.63288628845e-07
8.3621056099e-07
1.46515558558e-06
3.86530180741e-07
4.21924563708e-07
8.46532253206e-07
3.00500007708e-06
2.16043907596e-05
1.48752909726e-06
2.78950480713e-06
7.56909523798e-07
1.92037268934e-06
4.1529040545e-06
3.57792556168e-06
2.99242910145e-06
4.77185514512e-06
4.45241925602e-06
4.95272503508e-06
3.36513674663e-08
2.73372566565e-07
1.52166644056e-06
1.38902764719e-06
3.12752412314e-07
2.15714108468e-07
1.65752787096e-07
1.88435181047e-07
4.57422708466e-07
7.8661033079e-07
2.15956539846e-07
1.59041496373e-07
7.76761948046e-06
2.13199929177e-05
8.45562047255e-06
9.96928750322e-06
2.78148766255e-06
4.0283313023e-07
1.35646915373e-06
6.88443704068e-06
6.62835864455e-06
1.29254556338e-07
1.0607338596e-06
8.28767307956e-06
2.95615015479e-07
3.2373931252e-07
2.33286042057e-06
1.18160003366e-07
1.06560734553e-07
5.19272710083e-06
3.89355174524e-06
5.4533582643e-06
2.54087374326e-05
1.4377308111e-05
7.58216304132e-07
2.09665656492e-06
3.97933903198e-08
2.78460413851e-07
2.1546403644e-07
7.49598430606e-07
4.83602238278e-07
5.19825800118e-09
5.03824039562e-08
5.48114670983e-07
1.36541609041e-06
1.58843478863e-06
9.38361089774e-07
2.34509827991e-06
1.51708519975e-06
7.86704206243e-07
1.72693795654e-06
1.5982757459e-06
1.84879257573e-07
1.26768412004e-08
6.02585737841e-07
5.15101272883e-08
1.37748406675e-07
2.42939345407e-06
1.11179389884e-06
2.14697724567e-06
4.65090200008e-07
6.165574362e-08
6.25571968886e-08
7.30099035062e-07
5.59890130722e-06
2.51725755102e-06
5.99563644953e-07
1.53395304449e-07
4.69045317356e-07
3.02385498317e-07
8.47979615783e-06
3.8949372151e-05
3.57050324039e-05
8.6440013706e-06
3.12739160686e-06
4.85123650056e-10
2.12239206269e-05
1.37138468157e-06
2.11102877194e-06
1.06197559553e-07
2.11954100968e-05
8.52364920523e-07
1.53439301331e-05
1.32130980883e-05
1.84347642075e-05
4.9413690088e-06
1.01616219445e-05
1.33037515509e-05
1.11531491397e-05
1.47224717498e-05
1.30785580001e-05
1.20952993423e-05
5.41646556845e-06
5.57704881402e-06
7.62017097198e-09
5.23293660554e-06

