# vtk DataFile Version 3.0
File Name: Molecule/arg/arg_2.0-4.vtk
ASCII
DATASET UNSTRUCTURED_GRID
FIELD FieldData 1
TIME 1 1 double
0.0
POINTS 350 double
-2.96261549 -0.40175420046 1.8293926716
-3.3805787563 0.27693548799 1.5837012529
-2.977809906 -0.64721632004 1.0286509991
-3.3853459358 0.021007440984 0.78050160408
-2.8575623035 -0.12377457321 0.19159564376
-2.5017631054 -0.45506393909 0.14733606577
-2.6200830936 0.055654712021 -0.44476857781
-2.219230175 -0.44833061099 -0.89552998543
-2.2763464451 -0.34711062908 -0.48316511512
-2.4197144508 -0.15174975991 -1.0197365284
-2.80778265 0.69628882408 -0.80939751863
-3.2568690777 0.89971846342 -0.36658897996
-3.0246419907 0.11195278168 0.062913894653
-2.6204710007 0.4633462429 -1.5095762014
-2.4422647953 1.3726836443 -0.8879507184
-2.8832867146 1.7820689678 -0.41826814413
-2.2474565506 1.1606267691 -1.5711772442
-2.44099617 1.9934421778 -0.42845529318
-1.8283686638 1.7660226822 -1.1147823334
-1.5228433609 3.1569311619 0.26351127028
-1.750271678 2.5016951561 -0.61866420507
-2.4753534794 2.6606504917 0.63779854774
-3.1580345631 2.3183894157 1.5110249519
-1.9414310455 3.1846556664 1.4395071268
-2.5420341492 2.9640576839 2.2800168991
-3.4234378338 1.7875020504 1.7887836695
-2.7450664043 2.5237066746 2.3197796345
-2.9740586281 2.0406606197 2.6213293076
-3.4078607559 0.58881539106 1.8194895983
-3.1185357571 1.7705717087 2.9965641499
-3.1061730385 0.62220072746 3.0131790638
-3.0829954147 0.065097406507 1.8850618601
-3.105463028 0.35059913993 2.0867352486
-2.8598361015 0.18985325098 2.5140202045
-2.9441289902 0.34650078416 3.1269772053
-2.8889536858 -0.17251627147 2.1371536255
-2.5188350677 -0.69740861654 2.4346077442
-2.4825425148 -0.099279269576 3.3917894363
-2.2444503307 -1.4715094566 1.9239897728
-2.0369460583 -1.0522619486 3.1933279037
-1.7381269932 -1.9519836903 2.7789778709
-0.98098176718 -2.2600734234 2.0886802673
-1.5817576647 -1.7274552584 1.2751085758
-2.1911449432 -1.4587084055 0.7611489296
-1.0352232456 -2.0975875854 0.42947402596
-1.6861063242 -1.7890776396 -0.097416736186
-2.3195207119 -0.98956263065 0.24948717654
-1.9776595831 -1.1101373434 -0.52783221006
-2.0484755039 -0.78161001205 -0.81204259396
-1.8908112049 -1.3140614033 -1.0579875708
-2.1930689812 -0.56556141376 -1.3449543715
-2.1216928959 -0.66470742226 -1.0278241634
-1.6626195908 -1.3490445614 -1.7725650072
-1.8614403009 -0.74913531542 -1.9048932791
-2.1378662586 -0.47211331129 -1.912391901
-1.949231267 0.19639495015 -2.4545433521
-1.5772106647 0.13792049885 -2.6762011051
-1.7120534182 1.2403434515 -2.244985342
-1.1759792566 0.42297181487 -3.1695079803
-2.0443506241 1.0125234127 -2.141503334
-1.955493331 1.4405335188 -1.5262984037
-1.4853737354 1.8052988052 -1.7528004646
-1.3362612724 1.4968472719 -2.7089440823
-1.0765761137 2.0526866913 -2.2557189465
-1.2388439178 2.4691641331 -1.3155851364
-0.52103376389 2.5462362766 -2.3305299282
-0.67069029808 2.9834206104 -1.3477590084
0.45800077915 3.1511855125 -0.90862345695
-0.10907752812 2.973294735 -2.0843343735
0.64622038603 3.2935659885 -2.6298239231
0.26024949551 3.2498848438 -2.4408388138
0.78719842434 2.6990749836 -1.7079586983
0.35590299964 3.4424114227 -2.7439935207
-0.069126449525 3.3241722584 -2.9939923286
1.0570603609 2.5658116341 -0.34731703997
1.5469269753 2.0225777626 -1.2098027468
0.85337311029 2.8170955181 0.48280417919
1.5409171581 1.9159687757 0.023419905454
1.2413617373 2.1814908981 1.0549838543
0.40496921539 3.0933330059 0.8763371706
0.7278085351 2.5289671421 1.2122502327
0.4814992249 2.6835699081 1.6874862909
1.1407835484 2.3980009556 2.0907952785
0.7042028904 2.7251520157 2.3063461781
-0.20158742368 3.473900795 0.81128543615
-0.035607594997 3.1996934414 1.9154707193
-0.52805244923 3.6689050198 1.8598130941
-1.2391945124 3.6111807823 1.4623006582
-0.9108864069 3.5409147739 0.33387869596
-0.15796908736 3.4282429218 2.9621860981
0.55215930939 2.9168365002 3.2464020252
-0.65960395336 3.1877081394 3.657610178
0.10192409158 2.5808999538 4.0927324295
-1.2956800461 3.1911373138 3.7410356998
-1.2794669867 2.8024628162 3.9979643822
-0.65041977167 2.6864588261 4.0192222595
-2.0408334732 2.8679308891 3.6243429184
-1.9765976667 3.1537714005 3.4889302254
-2.4101893902 3.0746729374 2.9258520603
-2.5315804482 2.781888485 2.9891438484
-0.63308751583 1.7016038895 4.5516638756
-1.0481523275 1.977357626 4.4362897873
-1.4649505615 2.3684229851 4.2715716362
-1.84291327 2.0494663715 4.4348053932
-1.4338786602 1.6134985685 4.605615139
-2.2074170113 2.5020103455 3.8550775051
-2.460354805 2.2040205002 4.1134738922
-2.7841324806 2.2352128029 3.5504176617
-2.7019655704 2.4635672569 3.1273145676
-1.2424156666 1.0023579597 4.6428399086
-0.29539000988 1.0830664635 4.772128582
-0.6945297122 0.24446433783 4.7319874763
-1.5405271053 0.54173153639 4.586204052
-0.8941129446 -0.38181084394 4.775185585
-1.7406438589 -0.67931944132 4.2593884468
-2.3364379406 0.22599831223 4.2428545952
-0.020271247253 -0.32869067788 5.125415802
-0.43232560158 -0.73229080439 5.0447230339
0.18241456151 -1.1667306423 5.0922460556
0.52733385563 -0.54944294691 5.1918172836
1.0710430145 -0.80173951387 5.265815258
1.2185207605 -1.5491528511 4.9271011353
0.49027684331 -1.8879384995 4.8109941483
1.0201226473 -2.2263169289 4.2472300529
1.717425108 -1.9791685343 4.409922123
1.8479713202 -2.1535420418 3.7693359852
1.0247638226 -2.4914441109 3.6031126976
1.1499247551 -2.3248724937 2.8190712929
1.964396596 -1.982257843 2.9572184086
1.0404148102 -1.8481087685 2.1404550076
1.8981404305 -1.4761945009 2.2800853252
0.20608197153 -2.4690845013 2.0791163445
0.75750261545 -1.6778267622 1.2641661167
0.00096133630723 -2.1751234531 1.2127181292
1.045702219 -1.8242931366 0.34412252903
0.038183987141 -2.4743041992 0.34030422568
-0.77934211493 -1.9842675924 1.1941109896
1.4688439369 -1.0971419811 0.029431806877
1.0760126114 -1.3328830004 0.97641330957
1.3541833162 -0.84854841232 0.82375597954
1.3696242571 -1.2311415672 1.7300723791
1.6612120867 -0.77155429125 1.5760029554
2.3381159306 -0.73391801119 2.0005192757
1.6572186947 -0.65842527151 -0.5428082943
1.6873790026 -0.15263471007 0.64809954166
1.8443694115 0.22737210989 0.10671754926
1.6696867943 -1.4021141529 -1.0153101683
2.0604262352 -0.23084571958 -1.3341356516
2.2021737099 -0.84828323126 -1.8535302877
1.3700567484 -1.7552753687 -1.7108060122
1.7496538162 -1.3501360416 -2.2860469818
0.89208060503 -1.9206470251 -2.1317555904
1.4398702383 -1.4208556414 -2.8895413876
0.62095600367 -1.3667032719 -3.0590641499
0.12165889144 -1.8911087513 -2.462241888
-0.38957670331 -1.2745683193 -2.678289175
0.1272687763 -0.82580626011 -3.3889870644
-0.34703052044 -0.59844112396 -3.1862938404
-1.150722146 -0.72026014328 -2.583316803
-0.78319191933 -0.31680041552 -3.1297540665
-0.98683816195 -1.3584327698 -2.3804147243
-0.46328818798 0.045509912074 -3.7021579742
0.18999156356 -0.25742894411 -3.9472534657
0.24087527394 0.53397130966 -4.0978689194
-0.080452084541 1.9343520403 -3.8544502258
0.24391710758 1.1067945957 -4.1961693764
-0.45330613852 1.8915164471 -3.5438942909
-0.14450551569 2.4024386406 -3.5077431202
0.8477050066 3.3593890667 -2.849306345
1.6392217875 2.7102816105 -2.5468492508
1.1987556219 2.7958464622 -3.4230878353
1.1418404579 2.617836237 -2.0289502144
2.0355319977 1.1069819927 -1.3003692627
2.3416626453 0.5930403471 -1.568805337
2.2046046257 1.4680683613 -2.0299968719
1.8649109602 0.76818460226 -0.73592287302
1.9724795818 0.9335718751 0.040706321597
1.7801903486 0.15210208297 -0.69115066528
1.6262118816 2.294624567 -3.4317417145
1.7934062481 1.6641913652 -3.5977702141
1.243997097 2.3006565571 -3.5992670059
2.0721414089 0.65595406294 0.81905174255
1.856788516 -0.26914855838 1.4473525286
2.1804287434 0.37591484189 1.605661273
2.7309985161 0.12575033307 2.1538798809
1.8931028843 1.4218908548 1.2219973803
2.0407071114 1.0118409395 1.9546304941
2.5338087082 0.9663233161 2.5864152908
1.8125786781 1.6085395813 2.266518116
1.9572974443 1.7969435453 3.1110818386
2.5685179234 1.3171395063 3.3356165886
2.2035746574 1.4984301329 3.9120800495
1.5600628853 2.0564279556 3.8178765774
1.929735899 1.2253750563 4.6711001396
1.3573596478 1.6922245026 4.4035549164
1.3277392387 0.80520814657 5.0675282478
0.64842641354 1.4254227877 4.7720637321
0.6034526825 0.83749324083 4.9851903915
-0.058354537934 0.40119487047 5.038667202
0.57024586201 0.14303432405 5.2204909325
1.1690365076 0.0091675845906 5.3571681976
-3.7248404026 1.9544858932 0.85272544622
-3.1599357128 2.2651777267 0.12443929911
-3.718775034 1.5637997389 0.1617398113
-3.7241547108 0.7839564085 0.1835796982
-3.7305309772 0.4252692759 0.85783934593
-3.938472271 1.1836959124 0.87173968554
-2.76527071 -1.1326334476 1.4708104134
-2.4503180981 0.020245719701 -2.0083398819
0.33845618367 3.5272817612 -0.052796714008
-0.29149264097 3.6905062199 -0.29456377029
-1.2218462229 3.29591012 -0.66965711117
-0.50224608183 3.8236775398 2.5020060539
-1.1126090288 4.011464119 2.4692246914
-1.1124711037 3.7849733829 3.2507703304
-1.8790193796 3.8307938576 2.4708843231
-1.8888523579 3.5737698078 3.229186058
-2.3422811031 3.3998920918 2.495462656
-1.8378690481 1.290918231 4.726764679
-2.5712256432 1.6382689476 4.4827051163
-2.579785347 0.86203503609 4.5058083534
-3.0511815548 1.5959857702 4.0138216019
-3.0638232231 0.81349337101 3.9878208637
0.56016486883 -2.647330761 4.0052514076
-0.17046551406 -2.442643404 4.5829920769
-0.18098910153 -2.8634438515 3.9187259674
0.44976463914 -2.8596775532 3.3660435677
-0.17969636619 -2.9731509686 3.3032441139
-0.18187263608 -2.8614268303 2.6634371281
0.58922666311 -2.6477835178 2.5977137089
-0.18918405473 -1.7893269062 5.0012798309
-0.80764299631 -1.4966887236 4.9748210907
-0.80429494381 -2.2195699215 4.6350574493
-0.9446837306 -2.6449892521 4.0053253174
-0.81365931034 -2.8584389687 3.3646211624
-0.94203305244 -2.6548826694 2.6326990128
-1.4833600521 -1.3590848446 4.5656275749
-1.4575051069 -1.982390523 4.2936420441
-1.4807549715 -2.3874223232 3.6185638905
-1.4528377056 -2.4080824852 2.9758441448
[...]
CELL_DATA 696
SCALARS cell_data_0 double
LOOKUP_TABLE default
2.03608918606e-08
2.29870026406e-09
1.09399098454e-07
2.48246188112e-08
3.44815414603e-08
3.65697833574e-08
3.89435105261e-09
1.60574915115e-07
2.35562226844e-07
1.77550902785e-07
1.31373922906e-08
1.09041506776e-07
5.19754260807e-08
3.64613053678e-07
1.10130445825e-07
8.75065054049e-08
5.07526209253e-08
2.07426861765e-07
1.02093278205e-07
2.37203568486e-08
1.59762683799e-08
5.36552758482e-08
6.55817697194e-08
9.80137487049e-08
2.93285163809e-08
2.19764620666e-08
4.86281106548e-08
6.41867274784e-08
3.73941419143e-08
2.62733369626e-08
6.2988912644e-09
8.20722411169e-09
1.9596905277e-06
3.0693925555e-06
1.66417391763e-07
4.34853874185e-07
1.22629959345e-07
9.88379256117e-08
2.28483671891e-07
7.37935715001e-08
2.14431025994e-07
7.83803098949e-08
4.75203851618e-08
1.38668326776e-07
1.04768725406e-08
7.71841819838e-08
1.48558453536e-07
1.43891511129e-09
1.20345626964e-07
1.11934054928e-07
2.39395457393e-07
7.52573425902e-08
2.21914619279e-07
4.32618874044e-08
3.08752028385e-07
1.58504807542e-07
8.54931662009e-08
2.35640733261e-07
1.74615303901e-07
2.70891432463e-07
6.75575931638e-07
8.659861822e-07
2.00193951057e-06
5.42712643927e-08
5.07937173847e-07
1.64412366503e-07
1.89712477085e-08
5.78862660569e-09
3.56065047564e-08
6.40826462297e-08
1.78506851675e-07
9.26401644247e-09
8.82403154809e-08
1.79215056198e-09
5.74629604438e-08
8.70597906318e-08
2.28445005194e-08
1.98938515606e-08
2.49385494966e-07
2.00278273591e-08
3.56866375887e-07
1.04326035248e-09
3.68292188458e-08
3.27814515162e-10
5.88875824857e-09
4.37072490505e-10
1.24249836273e-08
3.94627500129e-08
7.92419801314e-09
7.24789065162e-08
2.22252482958e-09
1.37950303231e-08
4.98934594371e-09
2.07489802135e-08
7.93782279139e-09
1.7526715163e-08
1.35377303275e-08
2.52902598363e-08
2.94654266995e-08
8.94096020201e-08
5.37987380872e-08
2.39730410779e-08
4.40187143673e-09
2.09617713457e-08
8.48254614376e-08
5.65871409e-07
2.85564297985e-06
2.82366800534e-08
1.74855003901e-08
2.35763835838e-08
8.37756750833e-09
1.28739819837e-07
4.0075708294e-08
9.55188698003e-08
1.01073449747e-06
7.02655753694e-07
1.16045997483e-06
1.54168424145e-06
1.99306841081e-06
8.50470854964e-08
1.04845115487e-07
1.57460129757e-07
3.39753448029e-07
1.24044212834e-06
1.19315993202e-07
5.59765591673e-07
8.5387561078e-09
2.90972093236e-07
6.21195065812e-07
5.49637162542e-07
4.71930782311e-07
1.061197106e-07
5.45783071733e-08
9.94455830379e-08
7.259288494e-08
7.75626734473e-09
5.5647795385e-08
2.5254815668e-07
1.06983700537e-06
1.41130288595e-07
2.12741989123e-07
2.6814050992e-07
7.91211649477e-07
3.40539225673e-07
1.71237904215e-07
6.70898572735e-07
2.38190348324e-07
1.91433964964e-07
7.38938906801e-08
1.42035535152e-07
6.76317216387e-08
2.58282302426e-09
2.69650048948e-07
2.14876919732e-07
1.7306388715e-07
6.41137334114e-07
5.05285836979e-07
2.63326349927e-06
4.69143709399e-06
1.84012953223e-06
3.26523469762e-08
8.27696063069e-08
7.74526631757e-07
2.16493908843e-07
1.29986176825e-07
1.54581319741e-07
6.038570583e-07
4.90948240126e-07
1.30803033755e-06
1.29014934033e-07
2.33651567381e-08
1.48545789168e-07
9.54593325562e-08
1.55851544589e-08
1.87239830684e-07
6.98553604997e-08
1.42531771292e-07
3.35610554826e-07
1.40008323814e-06
7.25158306369e-07
1.42607811956e-06
2.1853297134e-06
1.57533241232e-06
4.32799151069e-07
5.40508476797e-07
1.76279333075e-07
2.73600493328e-07
4.34162810821e-08
1.67625544511e-08
2.04681721672e-08
1.03313014308e-07
4.25033553201e-08
3.79524564267e-08
4.68356228755e-08
5.35166696266e-08
8.26811805326e-08
2.44181353058e-08
2.55549090874e-07
2.46997644348e-08
3.33814721083e-08
9.35925194435e-08
7.76774096999e-08
8.11889599216e-08
1.32201190893e-07
7.62098977478e-08
2.89397998239e-06
1.7828885002e-07
4.58303684131e-08
1.25073389925e-07
2.77494639297e-08
3.03985205417e-08
2.70009438936e-07
9.54980342726e-08
4.89211119685e-07
2.52930415331e-06
5.14318722935e-07
1.21166694821e-06
1.2206780667e-06
4.43554772902e-07
9.41674689131e-08
1.14580367277e-08
1.46991631582e-08
4.00455588373e-08
2.04032940886e-08
1.80383349533e-08
5.53040122448e-08
3.13315039964e-08
1.9393696199e-08
2.47145919888e-08
7.34112515732e-08
2.21312988089e-07
9.39962139102e-08
1.04983747069e-07
4.21911987614e-08
1.58633030052e-07
4.44603448971e-08
1.33560741163e-07
4.91185505954e-07
1.95439771105e-07
7.40281329344e-08
1.2226035391e-07
5.79008647258e-08
2.19408952783e-07
1.93769621589e-07
4.48782760685e-07
1.19532321291e-08
2.02638789354e-08
1.35281578039e-08
3.59100206089e-09
2.31963449155e-08
3.06251307391e-08
7.14212979484e-08
2.27504952498e-08
2.91450770599e-08
3.07858955799e-08
5.97562580032e-08
1.33844891401e-07
6.13571127202e-08
2.97868952669e-09
6.97503771806e-09
2.60829221648e-08
9.92792544545e-08
1.83442342043e-08
2.28949375365e-08
2.34607959326e-08
1.04986805943e-08
3.17864603929e-08
5.66854656087e-08
3.01736138245e-08
6.02086398657e-08
6.31807484819e-08
1.61150815788e-07
3.60880769414e-09
4.88978520664e-07
2.02648421167e-07
1.15920197253e-07
3.38443125993e-08
4.375637568e-08
3.36626575177e-07
1.73586456936e-07
5.34858028691e-08
3.15668989509e-07
9.23628551249e-08
2.29497081436e-07
1.05315524275e-07
1.36819268692e-07
1.77466065116e-07
5.23248672375e-08
7.93577249024e-09
6.20218237185e-08
4.55968948899e-08
4.85685454679e-08
1.41587726748e-07
9.33388172548e-08
1.18699007272e-07
5.40577649163e-07
9.58445308422e-08
2.51985802101e-07
1.39071860861e-07
2.74654288353e-08
1.23416393474e-07
1.21017549547e-08
4.96741174012e-09
1.37947667398e-08
3.07457008344e-08
1.04263035547e-08
1.01534663913e-08
6.73602395841e-10
7.15101420219e-09
5.50613862783e-09
4.64814957495e-08
1.73313279996e-08
2.25116998356e-08
2.59733116202e-08
3.71063123968e-08
6.21589209475e-08
2.71068413187e-08
4.21279853128e-08
7.0978755406e-09
6.22624122274e-08
4.06252541339e-08
2.57337003202e-08
1.03517091898e-08
3.38985151235e-10
3.53695650055e-09
1.51721506647e-08
1.0104780894e-08
1.95851270119e-08
5.84203105983e-08
3.90465762821e-09
9.5350455955e-09
2.32025613864e-08
9.6646197723e-08
2.55955729084e-08
1.659976114e-08
4.37096589933e-09
8.40797182109e-10
6.22627886117e-09
2.07631009628e-08
2.17617628377e-09
1.2017055085e-08
7.24100289395e-09
1.46370319494e-08
5.15534610454e-08
1.22251515467e-07
1.22557577097e-07
1.09609676584e-07
1.70694582191e-08
1.65758612316e-08
1.92105361038e-06
2.08735598375e-06
5.57142530662e-07
1.47149352888e-06
1.94397788493e-06
3.10790294411e-08
2.2677049933e-07
1.49982468676e-07
1.1172004392e-06
1.29695223221e-06
5.63171515451e-07
2.1741720983e-07
1.09057105198e-07
6.88526263441e-09
4.72966320008e-08
9.54394714337e-08
2.62112947245e-08
9.66386800703e-08
3.00631727857e-08
2.00713426059e-08
1.20604487602e-07
7.86351802062e-08
1.25675518214e-06
1.45489807986e-07
7.89555056874e-08
8.98110547295e-08
2.39037360626e-07
4.4888146232e-08
1.13355113975e-07
1.91417949313e-07
9.63163113145e-08
6.32703015426e-07
9.02994649069e-07
1.27697397913e-06
5.02451975195e-07
4.20467440047e-06
4.3001015074e-06
3.90741829079e-07
1.30732658227e-08
1.41703680066e-08
4.16394676579e-08
4.75828957411e-08
1.73050399273e-07
7.75169129655e-08
6.77270609934e-07
2.82725609144e-06
1.86797428469e-06
3.64101607544e-09
1.70637676066e-08
2.17746666096e-08
1.16488498649e-07
2.34379564206e-09
2.74850809306e-08
7.40171054629e-09
1.15151584496e-08
1.39677624268e-08
1.21595344258e-09
2.85565778253e-09
1.04661681496e-08
6.58573412903e-10
1.566456278e-08
4.24722407837e-08
3.68241323665e-08
9.37232973594e-09
5.84744016785e-08
4.70008536087e-09
6.72035336442e-08
1.24493590221e-07
1.68966972903e-07
6.4535074531e-08
7.49080305426e-08
4.95712001266e-08
1.01477310294e-08
4.71025827761e-08
1.32042401168e-07
1.15435691523e-07
5.39186607713e-07
8.77004451358e-07
2.19816134969e-07
2.44249054384e-07
9.34607276554e-08
8.16468841627e-08
1.03815695847e-07
3.67239310335e-08
4.36737753132e-08
1.38208475915e-08
8.26260748502e-08
6.09725497337e-08
2.31016848389e-08
6.77830702678e-08
2.10712551877e-07
2.8829640554e-08
2.29304999058e-07
1.37359071587e-07
2.58427592737e-07
2.12265601495e-07
1.26000342652e-07
1.87247086762e-07
4.10773806752e-08
2.2771264406e-08
2.07555695964e-07
1.40157842629e-06
3.07652557509e-07
8.63650016546e-07
3.14492229764e-08
1.22686323928e-06
6.01343829437e-08
4.25658016755e-08
1.75431555375e-07
3.12316458774e-08
6.38842764841e-09
6.4743448048e-08
3.01627871448e-08
6.27033798828e-07
1.35857705243e-07
2.53403079034e-06
2.37108624591e-07
1.23490704464e-06
1.19772459284e-06
3.50306048866e-06
4.40416102203e-06
1.3388208716e-06
1.33878963465e-06
9.99295969769e-08
1.11562780097e-07
1.35944913806e-07
3.90397823986e-08
7.29023390776e-08
2.55330909275e-07
2.65306432587e-07
3.74773361576e-08
3.97353038225e-09
4.22839805826e-08
4.8961460321e-08
8.89249204992e-08
1.15742904e-08
6.24966677732e-08
2.90988420578e-08
3.6717878798e-08
6.7898922403e-08
2.64571239646e-07
4.18462130446e-07
1.18374081447e-07
1.77535700008e-08
1.46019976959e-08
4.36914776e-08
1.66131777765e-07
1.65782795386e-07
5.35763643424e-08
4.36224921372e-08
2.81909725644e-08
1.09412245877e-07
1.54322924443e-08
1.45829405216e-07
5.38748987622e-07
5.64184004288e-07
7.13523154516e-07
4.44269256438e-07
1.97820533157e-07
1.13941470633e-07
1.40389528503e-07
9.93783671125e-09
8.39430842225e-08
5.14412908432e-08
3.15839169547e-07
7.21969347113e-07
2.41199784432e-06
1.67979995228e-06
4.80320233418e-08
5.23906936741e-07
1.72062533386e-07
1.44729984529e-09
1.15368587573e-07
2.04081126524e-08
4.98189469967e-08
2.53090925612e-08
2.33047177377e-07
2.70371796839e-07
2.8788927574e-06
1.30306353998e-07
2.14698556444e-06
1.32436625101e-06
7.74403578995e-07
1.72787661002e-06
3.69042980405e-07
1.43349121709e-07
1.07826161385e-07
1.28133129434e-07
5.16124860943e-08
1.52368818037e-07
1.04867794251e-07
1.90022100142e-07
5.11168894673e-07
1.72284198924e-06
8.39024253068e-07
1.41727488423e-06
2.27120873486e-06
4.55134256619e-08
7.54003845131e-07
6.49028821891e-07
2.89666003098e-07
5.21983776132e-08
1.72101115628e-08
6.9699315136e-08
1.00357361412e-07
8.81694031364e-08
2.29502730503e-07
5.45881818831e-07
6.21947532731e-08
1.79444408275e-08
2.56407088639e-08
2.47567755795e-08
1.6199471017e-08
1.63900784588e-08
4.56874251195e-09
1.47003368304e-08
5.56987322265e-08
2.0606244654e-08
2.72770269899e-08
1.87728598064e-08
1.31140378804e-08
5.02386711615e-10
5.6347438244e-08
6.33209055637e-08
6.23994256661e-08
1.20623338758e-07
1.37904555996e-07
2.04296946614e-07
7.02095274726e-08
1.63634700863e-07
8.02971705134e-07
1.36218847531e-07
3.19461311574e-08
4.14145125465e-09
1.46605459118e-07
1.38046233133e-09
1.06134311121e-07
8.72487203853e-08
9.6059427597e-09
2.97920789725e-07
2.75128454723e-07
3.62497000861e-07
3.13572666664e-08
1.84974983964e-07
1.14730958826e-06
1.17132137588e-07
3.43914371866e-07
1.05339680943e-06
9.53428856991e-07
1.01018938272e-07
2.42878655009e-08
5.37138981612e-08
8.24952611009e-08
9.34028327716e-07
2.2659865904e-06
1.29540130368e-07
1.46509725415e-06
4.97502372501e-07
4.11996095351e-07
9.26665908211e-07
6.04242863212e-07
1.16192590886e-06
1.34710777211e-07
2.96706175247e-08
9.87296320333e-08
4.80223619529e-08
1.37506105094e-07
2.03372934557e-06
5.3684244463e-07
5.83896381642e-07
3.60899656007e-07
6.42271508691e-07
9.41739001285e-07
2.96005637671e-07
3.65162356695e-07
3.69459414728e-08
1.20393122202e-06
5.32826912021e-07
4.7979265803e-07
2.01954730568e-06
6.51754885246e-07
2.98511518263e-07
1.03387076407e-06
5.35840569329e-07
1.25472472234e-06
1.34942437089e-07
4.09125932242e-07
5.41617416722e-07
1.24074396646e-07
1.51377806178e-07
1.54568479274e-06
3.16735088573e-07
1.14318738243e-07
1.15499241212e-08
1.57109540246e-07
2.61640547939e-06
1.91010483732e-06
1.54549074432e-06
4.81985309081e-07
7.69937527349e-07
8.66291667332e-07
2.90113190718e-06
4.08118456085e-07
7.77976735045e-09
4.96343520989e-08
3.44257655474e-08
2.36843503433e-07
1.3889289507e-07
2.62186380113e-07
5.13871178604e-07
2.37422473284e-07
1.74783034853e-06
2.05982233758e-06
1.8623378118e-06
7.81069540109e-07
1.05363734443e-06
1.27002457383e-06
1.79251507789e-06
6.00138878579e-07
8.85511616028e-07
3.81771519522e-07
1.3338206021e-07
4.66536831438e-07
1.38318285994e-06
1.46004029057e-06
2.77084018134e-06
2.88277396244e-07
7.20995767316e-07
6.3852659852e-07
7.41889308281e-07
1.52553081341e-06
7.50424930741e-07
8.55374413877e-07
4.45059544871e-07
3.15192151307e-07
1.12019838992e-06
1.96061994792e-07
4.16889945495e-06
2.4148524518e-06
1.25842024262e-07
4.72340587091e-08
1.15605484715e-07
5.99871715182e-07
1.35965377701e-07
4.28677855056e-07
1.43710370278e-06
1.88209093449e-07

