# vtk DataFile Version 3.0
File Name: Molecule/sphere_test/sphere_test_0-s2.vtk
ASCII
DATASET UNSTRUCTURED_GRID
FIELD FieldData 1
TIME 1 1 double
0.0
POINTS 45 double
0.850650808352 -0.525731112119 0.0
0.809016994375 -0.309016994375 -0.5
1.0 0.0 0.0
0.809016994375 0.309016994375 -0.5
0.525731112119 0.0 -0.850650808352
0.850650808352 0.525731112119 0.0
0.5 0.809016994375 -0.309016994375
0.309016994375 0.5 -0.809016994375
0.0 0.850650808352 -0.525731112119
0.5 0.809016994375 0.309016994375
0.0 1.0 0.0
0.0 0.850650808352 0.525731112119
-0.5 0.809016994375 0.309016994375
-0.309016994375 0.5 0.809016994375
-0.809016994375 0.309016994375 0.5
-0.850650808352 0.525731112119 0.0
-0.525731112119 0.0 0.850650808352
0.309016994375 0.5 0.809016994375
0.0 0.0 1.0
0.525731112119 0.0 0.850650808352
-0.309016994375 -0.5 0.809016994375
0.309016994375 -0.5 0.809016994375
0.0 -0.850650808352 0.525731112119
0.809016994375 -0.309016994375 0.5
0.5 -0.809016994375 0.309016994375
0.309016994375 -0.5 -0.809016994375
0.0 0.0 -1.0
-0.309016994375 -0.5 -0.809016994375
0.0 -0.850650808352 -0.525731112119
-0.525731112119 0.0 -0.850650808352
0.809016994375 0.309016994375 0.5
-0.809016994375 -0.309016994375 -0.5
-0.809016994375 0.309016994375 -0.5
-1.0 0.0 0.0
-0.850650808352 -0.525731112119 0.0
-0.309016994375 0.5 -0.809016994375
-0.5 0.809016994375 -0.309016994375
-0.5 -0.809016994375 -0.309016994375
-0.5 -0.809016994375 0.309016994375
0.0 -1.0 0.0
-0.809016994375 -0.309016994375 0.5
0.5 -0.809016994375 -0.309016994375
-0.25 0.904508497187 0.154508497188
-0.25 0.904508497187 -0.154508497188
-0.5 0.809016994375 0.0

CELLS 86 344
3 0 1 2
3 1 3 2
3 1 4 3
3 2 3 5
3 5 3 6
3 3 7 6
3 3 4 7
3 6 7 8
3 5 6 9
3 6 10 9
3 6 8 10
3 9 10 11
3 11 12 13
3 12 14 13
3 12 15 14
3 13 14 16
3 11 13 17
3 13 18 17
3 13 16 18
3 17 18 19
3 16 20 18
3 20 21 18
3 20 22 21
3 18 21 19
3 19 21 23
3 21 24 23
3 21 22 24
3 23 24 0
3 4 25 26
3 25 27 26
3 25 28 27
3 26 27 29
3 0 2 23
3 2 30 23
3 2 5 30
3 23 30 19
3 5 9 30
3 9 17 30
3 9 11 17
3 30 17 19
3 29 31 32
3 31 33 32
3 31 34 33
3 32 33 15
3 8 35 36
3 35 32 36
3 35 29 32
3 36 32 15
3 34 37 38
3 37 39 38
3 37 28 39
3 38 39 22
3 34 38 40
3 38 20 40
3 38 22 20
3 40 20 16
3 16 14 40
3 14 33 40
3 14 15 33
3 40 33 34
3 29 27 31
3 27 37 31
3 27 28 37
3 31 37 34
3 28 41 39
3 41 24 39
3 41 0 24
3 39 24 22
3 4 1 25
3 1 41 25
3 1 0 41
3 25 41 28
3 4 26 7
3 26 35 7
3 26 29 35
3 7 35 8
3 10 42 11
3 11 42 12
3 10 43 42
3 43 44 42
3 43 36 44
3 42 44 12
3 36 43 8
3 8 43 10
3 12 44 15
3 44 36 15

CELL_TYPES 86
5
5
5
5
5
5
5
5
5
5
5
5
5
5
5
5
5
5
5
5
5
5
5
5
5
5
5
5
5
5
5
5
5
5
5
5
5
5
5
5
5
5
5
5
5
5
5
5
5
5
5
5
5
5
5
5
5
5
5
5
5
5
5
5
5
5
5
5
5
5
5
5
5
5
5
5
5
5
5
5
5
5
5
5
5
5

CELL_DATA 86
SCALARS cell_data_0 double
LOOKUP_TABLE default
0.00015042842427
0.000198194411543
3.85069001679e-05
0.000120135269668
2.05960994873e-05
0.000217055348458
0.000171974168807
0.000141131133833
6.81472408026e-05
0.000808397048332
0.000510005893441
0.000543334492007
6.64350361642e-05
0.000140794755354
0.000104344851711
6.44993564132e-05
6.87064564363e-05
0.000242116697984
0.000195113662484
0.000143674228471
0.000116934563398
0.000123140794323
5.25088680625e-05
0.000100190726916
4.34145240437e-05
3.87031809366e-05
3.60976893975e-05
1.47005530628e-05
2.48198641438e-05
3.19581074566e-05
1.39738941297e-06
3.41935498866e-05
7.41892948547e-05
1.24524530887e-05
3.96616245194e-05
3.80968651675e-05
2.60130592768e-05
8.71174121041e-06
4.36822785043e-06
7.0635518158e-05
1.37918081393e-05
3.38091122644e-06
9.35384055864e-07
4.60310495042e-06
0.000115876503701
0.00013457807852
1.11540839773e-05
0.000123025299999
1.1472822623e-06
5.00393010892e-07
1.00461744262e-06
1.25379533709e-05
1.2451059605e-06
5.10470994527e-05
4.12703834179e-05
7.3594322582e-05
4.73474241635e-05
9.87226742975e-06
1.57439625361e-06
4.48501391195e-06
9.97400925378e-06
7.27789022286e-06
1.94958777658e-06
5.40012605018e-06
1.0066233798e-06
1.0157545702e-05
3.52331817804e-06
1.86372735265e-05
9.20567773121e-06
1.08666395528e-05
3.04897984096e-05
2.65287371676e-07
0.000180601090767
0.000226476329565
3.64553427188e-05
0.000140070817931
0.000186306436375
2.30032646365e-05
0.000137965413436
2.06879478235e-07
2.86953262961e-05
2.71349029752e-05
5.37806005816e-05
0.000246157460622
5.14983332561e-05
5.60005560026e-05

