# vtk DataFile Version 3.0
File Name: Molecule/sphere_cent/sphere_cent_0-s4.vtk
ASCII
DATASET UNSTRUCTURED_GRID
FIELD FieldData 1
TIME 1 1 double
0.0
POINTS 2562 double
0.85063952208 -0.52574938536 2.4609347747e-05
0.85930943489 -0.50776737928 -0.061042908579
0.88258612156 -0.47011488676 0.00020952628984
0.89169090986 -0.44816425443 -0.063545703888
0.86460953951 -0.48661443591 -0.12500111759
0.91233330965 -0.4094107151 0.00015003673616
0.89646196365 -0.42398330569 -0.12880305946
0.92067563534 -0.38482102752 -0.065309748054
0.92406004667 -0.3591042459 -0.13097853959
0.86594325304 -0.46290761232 -0.18925349414
0.89642637968 -0.39849317074 -0.19396710396
0.86312234402 -0.43638950586 -0.2540910542
0.93822228909 -0.34597277641 0.00010748770728
0.94535273314 -0.31933605671 -0.065825052559
0.96017128229 -0.27937272191 5.6921493524e-05
0.89226812124 -0.36953988671 -0.25940918922
0.92279517651 -0.33094537258 -0.1972874105
0.91680008173 -0.3007170856 -0.26276445389
0.94444972277 -0.26146322489 -0.19912354648
0.94748848677 -0.29097396135 -0.132657215
0.96602392197 -0.22108484805 -0.13385671377
0.93651425838 -0.22982467711 -0.26480287313
0.96109127998 -0.19006827474 -0.20044068992
0.95103752613 -0.15684764087 -0.26630654931
0.96575975418 -0.25064077973 -0.06695176661
0.85609441996 -0.40785956383 -0.31738367677
0.88342994452 -0.33951085806 -0.32292935252
0.84473514557 -0.3769466877 -0.37990188599
0.87011778355 -0.30690252781 -0.38562214375
0.90604066849 -0.26885318756 -0.32681378722
0.89056771994 -0.23464599252 -0.38964644074
0.82911300659 -0.34408405423 -0.44064998627
0.85220879316 -0.27223619819 -0.44679245353
0.80902564526 -0.30901905894 -0.49998360872
0.92363095284 -0.19619846344 -0.3292452991
0.97731816769 -0.21172748506 3.6417637602e-05
0.98109102249 -0.18150137365 -0.067208558321
0.98983806372 -0.14217025042 1.6264848455e-05
0.9794973731 -0.14999979734 -0.13447640836
0.99159109592 -0.11035919935 -0.067576356232
0.98782020807 -0.077291578054 -0.13502293825
0.97249233723 -0.11713775992 -0.20131509006
0.99741983414 -0.071752719581 -2.7260830393e-06
0.99697393179 -0.03800066188 -0.067783974111
0.99999946356 -8.801112017e-06 -2.7097096336e-06
0.82872968912 -0.23411104083 -0.50832539797
0.86924445629 -0.19664569199 -0.45359033346
0.84282249212 -0.15724669397 -0.51470148563
0.88069838285 -0.11886600405 -0.45852065086
0.90497237444 -0.158171013 -0.39497664571
0.91371768713 -0.079931385815 -0.39840972424
0.85126394033 -0.078972361982 -0.51875156164
0.8864813447 -0.039941009134 -0.4610363543
0.85412245989 7.2767099482e-05 -0.52006471157
0.93534135818 -0.11905397475 -0.33310890198
0.88640880585 0.040240783244 -0.46115005016
0.91669327021 0.00015905660985 -0.39959087968
0.91367077827 0.080213367939 -0.39846041799
0.94144320488 0.040244914591 -0.33476054668
0.94146591425 -0.0399434641 -0.33473274112
0.96317303181 0.00012883910676 -0.26888090372
0.93530863523 0.11931796372 -0.33310696483
0.96009671688 0.079208813608 -0.26821556687
0.95103013515 0.15687854588 -0.26631468534
0.960095644 -0.07896026969 -0.26829180121
0.85130625963 0.079127371311 -0.51865845919
0.88075202703 0.11913844943 -0.4583465457
0.84287983179 0.15740591288 -0.51455914974
0.86924153566 0.19682762027 -0.45351722836
0.90500760078 0.15838214755 -0.39481157064
0.89060986042 0.23462297022 -0.38956385851
0.8288077116 0.23425726593 -0.50813055038
0.85228437185 0.27222388983 -0.44665572047
0.80902057886 0.30901524425 -0.49999418855
0.92364621162 0.19616273046 -0.32922327518
0.97852754593 -0.039133116603 -0.20236600935
0.97851008177 0.039443843067 -0.2023910135
0.99080497026 0.00011901040853 -0.13529679179
0.98780274391 0.07734438777 -0.13511987031
0.97247189283 0.11715760082 -0.20140169561
0.99696272612 0.038100015372 -0.067891076207
0.78489226103 -0.27227807045 -0.55660033226
0.80203807354 -0.19649122655 -0.56402564049
0.75700491667 -0.23471564054 -0.60978984833
0.77145451307 -0.1579708308 -0.6163623333
0.81347477436 -0.11872255802 -0.56935280561
0.78027576208 -0.079602003098 -0.62034797668
0.72540402412 -0.1960722059 -0.65979146957
0.73745256662 -0.1188018024 -0.6648645997
0.69057381153 -0.15697209537 -0.7060071826
0.8191819191 -0.039775058627 -0.57215178013
0.69929599762 -0.079026974738 -0.71045041084
0.74311864376 -0.039864763618 -0.66796982288
0.70233595371 7.6460579294e-05 -0.71184438467
0.74311262369 0.040126673877 -0.66796088219
0.78299057484 0.00013486843091 -0.62203216553
0.78031921387 0.079838916659 -0.62026274204
0.69930195808 0.079185143113 -0.71042722464
0.73749399185 0.11901509762 -0.66478079557
0.690536201 0.15702615678 -0.70603221655
0.81921637058 0.03999883309 -0.57208681107
0.65232628584 -0.11684104055 -0.74885094166
0.65877103806 -0.039034925401 -0.75132721663
0.61174917221 -0.077151536942 -0.78726059198
0.61499190331 8.1026570115e-05 -0.78853577375
0.65882629156 0.039302956313 -0.75126570463
0.61164408922 0.077264241874 -0.78733170033
0.56895262003 -0.037621334195 -0.8214892745
0.5688021183 0.03776787594 -0.82158702612
0.52574914694 1.2214726667e-05 -0.85063964128
0.65224945545 0.11693302542 -0.74890393019
0.81351488829 0.11893267184 -0.56925159693
0.77144902945 0.158064574 -0.61634516716
0.8020979166 0.19665573537 -0.5638833642
0.75699400902 0.23473225534 -0.60979712009
0.72537088394 0.19610449672 -0.65981823206
0.7848919034 0.27228331566 -0.5565983057
0.99742919207 0.071624308825 -0.00016430483083
0.9915946722 0.11022224277 -0.067749544978
0.98985558748 0.14204719663 -0.00017130971537
0.97948348522 0.14990274608 -0.13468550146
0.98111772537 0.1812723428 -0.067437082529
0.96603316069 0.22096481919 -0.13398776948
0.96110993624 0.18987604976 -0.20053288341
0.97735106945 0.21157737076 -0.00017455712077
0.96575677395 0.25060504675 -0.067126974463
0.96019870043 0.27927979827 -0.00010770620429
0.93647152185 0.22973389924 -0.26503220201
0.94444531202 0.26135954261 -0.1992803067
0.91677558422 0.30064621568 -0.26293084025
0.9227938056 0.33081954718 -0.19750513136
0.94750481844 0.2908603251 -0.1327893734
0.92410391569 0.35890993476 -0.13120156527
0.89227503538 0.36948415637 -0.25946456194
0.89650148153 0.39827275276 -0.19407185912
0.86314976215 0.43632283807 -0.25411301851
0.94538789988 0.31916797161 -0.06613188982
0.90606552362 0.26868385077 -0.32688400149
0.8701274395 0.30673620105 -0.3857332468
0.88346475363 0.33931797743 -0.32303652167
0.84478461742 0.37679305673 -0.37994411588
0.82915425301 0.34390929341 -0.44070926309
0.8561514616 0.40771639347 -0.31741422415
0.93827867508 0.34582170844 -0.000206755416
0.92068439722 0.38474977016 -0.065600052476
0.91239243746 0.40927866101 -0.00016536112526
0.8964908123 0.42387956381 -0.1289447844
0.89178061485 0.44794330001 -0.063854858279
0.86462372541 0.48658671975 -0.12501320243
0.86600196362 0.4627905488 -0.18927446008
0.88267070055 0.46995732188 -0.00017540174304
0.85929608345 0.50778913498 -0.061052199453
0.85066366196 0.52571028471 -5.8351411099e-06
0.8215624094 0.56885319948 -0.037524659187
0.82805633545 0.55112576485 -0.10288372636
0.78734385967 0.61164748669 -0.077112480998
0.83104848862 0.52985811234 -0.1691274792
0.79185438156 0.59326004982 -0.14493237436
0.7930405736 0.57109975815 -0.21196685731
0.8305631876 0.50506645441 -0.23467603326
0.7489784956 0.65217542648 -0.11686255783
0.75137466192 0.63320112228 -0.18572211266
0.70608752966 0.69048893452 -0.1569827199
0.82528293133 0.47797140479 -0.3007427752
0.79011917114 0.54563564062 -0.2792698741
0.7829053998 0.51739543676 -0.34548428655
0.74529582262 0.58371788263 -0.32218936086
0.75014996529 0.61027890444 -0.25462314487
0.70324105024 0.64628005028 -0.2962642014
0.73602968454 0.55423539877 -0.38869300485
0.69625812769 0.61858171225 -0.36411571503
0.68470883369 0.58777880669 -0.43090903759
0.70634508133 0.67038416862 -0.22728157043
0.81622862816 0.4482447207 -0.36448159814
0.80255883932 0.41622722149 -0.42737874389
0.77153968811 0.48650515079 -0.40992456675
0.75553745031 0.45313537121 -0.47310191393
0.78442788124 0.38190287352 -0.48869094253
0.72229516506 0.52197366953 -0.45367786288
0.65994006395 0.72525632381 -0.19611673057
0.65815365314 0.70402663946 -0.26679521799
0.60993272066 0.75687032938 -0.23477892578
0.65265876055 0.67883783579 -0.3364738822
0.60596114397 0.73432219028 -0.3059091866
0.5981657505 0.70776665211 -0.37584322691
0.64322471619 0.6499055028 -0.40481504798
0.55676025152 0.78475511074 -0.27234572172
0.55017703772 0.76093363762 -0.34391990304
0.50000780821 0.80901241302 -0.30901476741
0.76088118553 0.34382674098 -0.55030786991
0.73390293121 0.41560810804 -0.5372672677
0.70771723986 0.37579780817 -0.59825253487
0.67823028564 0.44643732905 -0.58369278908
0.70251768827 0.48574459553 -0.52011615038
0.64465504885 0.5152733326 -0.56472343206
0.6498554945 0.40482133627 -0.643271029
0.61804139614 0.47426864505 -0.62697136402
0.58773392439 0.4309296608 -0.68473422527
0.66693276167 0.55334591866 -0.49900704622
0.55316895247 0.49893897772 -0.66713064909
0.58171182871 0.54184418917 -0.60664302111
0.51508426666 0.56470692158 -0.64482039213
0.54161757231 0.60668438673 -0.58187973499
0.60649520159 0.58193457127 -0.54177063704
0.56457453966 0.64481681585 -0.51523399353
0.47406709194 0.62698554993 -0.61818182468
0.49885374308 0.66709840298 -0.55328470469
0.43089658022 0.68471646309 -0.5877789855
0.62683838606 0.6181820035 -0.47426110506
0.5219284296 0.45380142331 -0.72224998474
0.48563939333 0.52015900612 -0.70255863667
0.45311439037 0.47323912382 -0.75546425581
0.41553550959 0.5372812748 -0.73393386602
0.44638109207 0.58368903399 -0.67827051878
0.37587660551 0.59823477268 -0.70769047737
0.38191249967 0.48883312941 -0.78433430195
0.34393593669 0.55030488968 -0.76083403826
0.30901730061 0.50001263618 -0.80900835991
0.40486335754 0.64324694872 -0.64985311031
0.58345973492 0.6783669591 -0.44653397799
0.51988857985 0.7026219368 -0.48583760858
0.53711622953 0.73396539688 -0.41569292545
0.47308385372 0.75548905134 -0.45323494077
0.45369195938 0.7222469449 -0.52202785015
0.48863786459 0.78438735008 -0.38205373287
0.73439133167 0.30592018366 -0.60587209463
[...]
CELL_DATA 5120
SCALARS cell_data_0 double
LOOKUP_TABLE default
1.45317212951e-08
3.89526268699e-09
7.36570382038e-09
1.91360376718e-08
7.24190505638e-09
1.07016841868e-08
2.76603984966e-08
1.52103890565e-08
1.70739963096e-08
5.5831373699e-09
9.23418089336e-09
2.03703803805e-08
1.3345691737e-08
2.90022045654e-08
1.69122658699e-08
5.46891503038e-09
1.23904238946e-08
9.85978578574e-10
1.49769936877e-08
5.83881701681e-11
2.18856964525e-08
3.72790515149e-08
4.92554142844e-09
1.9555494446e-09
1.90229372699e-08
1.79473146525e-08
3.75377557877e-08
3.50381341205e-08
1.28573630413e-08
7.58754293291e-09
2.16834767826e-11
1.30575518157e-08
9.97086349392e-09
1.6827690141e-08
2.61615213507e-08
7.58494827295e-09
1.50805178961e-08
3.15579716377e-08
4.60349699602e-08
3.22978785988e-09
2.56184696746e-08
3.11748166991e-08
3.63286640376e-09
2.8459129514e-08
1.07975516578e-08
1.69483749286e-08
2.45542005674e-08
1.73311081836e-08
1.87838749896e-08
1.50247445379e-09
2.26714107044e-08
1.03043785321e-08
2.65387033855e-08
1.80312503396e-08
3.35288486417e-09
8.05131881173e-09
4.48402804614e-09
2.76130584342e-08
1.41124512417e-08
3.08394436892e-08
1.5633326179e-08
1.45623168929e-08
4.25930792862e-09
1.72628740045e-08
1.97799893166e-09
5.59411201867e-11
4.73725818997e-10
2.86765607719e-08
2.07259960934e-08
1.96922992451e-08
4.48944716845e-09
8.72818426698e-09
1.06638702456e-08
2.44439995409e-08
3.21699667373e-08
4.68743913735e-09
2.01574379008e-09
2.57861704192e-08
5.12703155509e-09
8.80650403245e-09
2.04352728931e-08
1.13678469655e-08
1.10413277523e-08
1.76099340996e-09
2.18043158447e-09
1.46653806665e-08
9.10943300611e-11
2.1688145204e-09
2.34453555686e-08
1.30325898815e-10
1.49613594057e-08
2.45654615233e-08
9.80987325237e-09
2.64243362748e-08
1.41907432151e-08
1.2074280712e-08
1.30923869769e-08
1.55154591115e-08
9.13889401143e-09
1.86447936041e-08
5.12087113458e-09
7.02773803834e-09
2.25784633816e-08
4.84099293769e-09
4.93002173334e-09
1.44347574098e-08
8.15344327619e-09
1.63222713297e-08
1.01544865157e-08
1.79741126045e-09
1.78192626918e-08
9.55230314754e-09
4.0745247011e-09
2.96154608182e-09
6.55089204109e-09
9.47786461965e-10
4.48443847005e-09
8.36513183002e-09
1.90360683899e-09
9.362913033e-09
8.8653272823e-09
3.76572705485e-09
2.12819537045e-09
1.06345212992e-08
5.90442167864e-09
1.71470714202e-08
1.16979476825e-08
3.15199874259e-08
2.46456671005e-08
1.11918614981e-10
1.21331989103e-08
2.67112598492e-09
9.18930694245e-09
1.34869596723e-09
2.42556262595e-08
1.92897782485e-08
8.22452981841e-09
3.87062783832e-09
1.28946425164e-08
2.4138873559e-08
7.0563682351e-09
1.77403909611e-08
9.03026719769e-09
1.2971098456e-08
1.35999575897e-09
3.37242994541e-08
5.35716305922e-09
2.64515788221e-08
1.58176147857e-08
1.11572461454e-09
2.89045855452e-08
1.02990925056e-09
8.96119526006e-09
1.47342190122e-09
1.86892028558e-08
8.57077463509e-10
6.76950905631e-09
6.13743798971e-10
1.76221763924e-08
5.822137064e-09
6.10739663251e-09
1.76263051463e-08
1.82400279946e-08
4.64983824552e-09
1.81030280105e-10
6.54672728103e-09
1.49690863492e-08
9.0649036645e-09
9.19333437878e-09
1.90325559862e-09
4.52922541185e-09
1.67775977232e-08
6.83893373892e-09
1.4211507132e-08
2.17758245197e-08
1.44809360116e-08
7.59211838667e-09
2.67868662738e-08
1.72715724733e-08
2.58424953791e-08
1.10946163717e-09
7.39188743233e-09
3.28947661158e-09
6.71849079182e-09
2.16178424712e-09
6.06181666442e-10
8.13178439879e-09
3.90687391962e-09
1.19536070723e-08
1.18388728623e-09
4.67062641711e-09
5.2397989415e-10
3.03882134928e-08
4.17474374921e-08
3.03917246813e-10
2.59138990461e-08
2.59755602929e-08
2.9269130766e-08
6.8607542163e-09
5.89891766228e-09
6.09115917192e-09
6.65749298479e-09
1.9680155597e-09
1.47946158927e-08
3.75453563575e-08
1.82178806675e-08
2.210460616e-08
2.55255731819e-08
6.43507916491e-10
1.74605432033e-08
2.3290925686e-08
6.04752907764e-09
7.80236746886e-09
1.72831485619e-08
2.45274765134e-08
1.19789368793e-09
1.51214477544e-08
1.15081218433e-08
3.30700194561e-08
1.86245438618e-08
1.14380440662e-08
2.31120464264e-08
3.26134661735e-08
3.06731004879e-09
1.4977226841e-08
2.50979298251e-08
6.93965736697e-09
8.90514854054e-09
8.58632025955e-09
1.11331719903e-08
1.96777171111e-08
1.89054424341e-08
1.28600620378e-08
1.66002628472e-09
2.22500938284e-08
8.36116724782e-10
1.89237253237e-08
2.64292303888e-08
1.0971886576e-08
4.65443859515e-09
3.68413285464e-08
1.3444244661e-08
1.68056346279e-09
1.17840992729e-08
1.94634225472e-09
4.82457609251e-09
1.08357963224e-08
5.86915584415e-09
2.2411691198e-08
4.10230917811e-09
1.29616575116e-08
4.04645055238e-09
7.73631644663e-09
7.00900480711e-09
1.02826777872e-09
2.05216794148e-08
3.64331105935e-08
4.00659383923e-09
1.52288272099e-08
3.18642230302e-09
1.1426829008e-08
1.54451456315e-08
5.14891491979e-09
7.79589161023e-09
1.58401706475e-08
1.92179491738e-08
4.04983275564e-09
4.88931951257e-09
1.05694956706e-08
2.00085267258e-08
1.12240974066e-09
1.54513407961e-08
1.638266253e-08
7.05044577483e-09
3.46415789336e-08
1.36180131374e-08
6.51840088826e-09
3.74392971021e-09
2.16382014166e-08
2.77722629164e-09
6.93946903118e-09
4.40014707503e-09
3.90423615199e-08
1.74692767858e-08
2.59219631805e-09
1.13612756783e-08
2.8431235754e-08
5.21731956343e-09
8.18433463557e-09
5.85717994368e-09
2.05549689037e-09
2.04682709197e-08
1.90365562551e-08
3.94239455679e-09
5.39807498928e-09
8.55356391046e-09
4.92360045281e-09
5.09200911684e-09
2.13475369836e-08
4.69364760293e-09
1.25130979126e-08
1.02413367902e-09
6.28103101701e-09
2.3943006203e-08
1.24431541384e-08
8.42322824455e-09
2.15630275955e-08
2.6193348785e-09
3.01063755695e-08
9.57558043381e-09
1.64935348645e-08
7.88171163303e-09
3.73874173756e-08
1.28811322317e-08
7.22155924244e-09
3.62090683715e-09
3.44236213016e-10
1.19158279274e-08
1.37347014009e-08
6.89242776767e-09
1.38484310017e-08
2.18042164803e-08
1.16809762742e-08
1.57076807921e-09
3.34825095669e-08
7.65972160973e-09
1.51749103327e-08
7.83209275779e-09
2.09716280562e-08
7.03050351346e-09
1.06205632586e-08
4.00293092131e-08
6.54882656135e-09
5.65505503305e-10
3.1097360799e-09
1.12644672872e-09
4.54089608533e-09
1.23071436068e-10
6.80409632134e-09
2.29247276229e-09
2.18832234971e-08
1.15922620142e-08
7.36658207509e-09
6.93922719573e-09
2.45192913043e-08
7.84866947988e-09
6.3346291284e-08
8.66356772507e-09
2.14497516708e-08
3.70407752164e-08
5.00444518743e-09
1.66567086089e-08
9.13356079158e-09
8.11722849497e-09
1.49413658828e-09
8.51618063384e-09
1.00807078304e-08
1.19224389522e-08
1.47086487948e-08
1.0188686849e-08
2.20175998068e-08
8.36170363005e-09
7.52517501475e-09
1.80292368262e-08
1.56138190729e-08
2.66995061235e-08
2.10750198596e-08
2.80082163516e-08
1.47103468063e-08
2.38717796198e-08
2.59923101703e-09
6.65520800845e-09
1.21540631992e-08
3.52137815247e-08
1.03533069515e-09
7.79749717479e-09
2.99393102706e-08
1.59586630982e-08
1.58643565967e-08
7.68716735615e-09
3.25524173838e-08
2.3065448004e-08
2.19647197306e-08
1.40118811003e-08
1.68931869402e-08
6.80829348614e-09
6.72146965647e-10
2.54480479133e-08
3.73759105105e-08
1.96822817021e-08
8.77095638502e-09
8.88966282386e-09
1.43200963136e-08
6.50847547318e-09
1.23900476261e-09
1.13739620414e-08
4.3665969437e-09
3.86374396787e-08
4.97591483712e-08
2.70094409342e-09
2.88655468098e-08
1.60298903528e-08
1.5064454997e-09
2.37320748848e-08
1.16215534711e-08
2.55506120912e-08
2.7665909011e-08
1.96215851131e-09
9.0928340205e-09
1.87625149087e-08
1.89769447914e-08
4.6558270693e-08
4.912155867e-09
2.41721587832e-09
9.18978200125e-09
1.71186992818e-09
6.93872684325e-09
2.23001457705e-08
2.22927736854e-08
4.74654987881e-10
9.53020994359e-09
3.61882433972e-09
8.38421261905e-09
5.74768918581e-09
1.26939631632e-08
1.07150840252e-08
3.07930343234e-09
2.90724232154e-09
6.97451302206e-09
1.67153136031e-08
1.42543210762e-08
7.23724164316e-09
2.94781505144e-09
1.39128799717e-08
6.67609182955e-09
4.40201804285e-09
5.40926862258e-09
1.14420634377e-09
2.79994047339e-08
3.34905043853e-09
4.84006184116e-08
6.5642469374e-09
1.317586739e-08
2.85543053525e-08
6.34253030103e-09
1.88960248517e-08
3.1399914636e-08
1.19504882834e-08
9.5752191326e-10
6.41077895817e-09
5.2479484748e-08
4.5642925447e-10
5.86724392717e-09
2.77132469746e-08
1.23012922918e-08
9.82567192825e-09
3.28865520621e-08
1.2898315901e-08
1.32274222662e-09
3.97888723376e-08
2.20012099539e-09
9.08956485015e-09
4.46970116657e-08
4.3260089727e-08
9.47449062469e-10
4.42671990881e-09
1.15604742989e-09
9.90015015203e-10
7.067218435e-09
3.61419546796e-09
2.04251116854e-08
2.47602708443e-08
7.9497922625e-09
3.08052221268e-09
2.37008728356e-09
2.07575125098e-09
3.94352345268e-08
3.39503949036e-08
3.62923443044e-09
1.68406024016e-09
1.05068742554e-08
2.48909011169e-09
1.41305329788e-08
1.9925838854e-09
1.46807193081e-09
8.85099520588e-09
1.20051546642e-08
1.3888166006e-08
2.06097739088e-08
5.74110521201e-09
2.53721614011e-09
4.98194334346e-09
3.79070951019e-09
6.81568143512e-09
3.56213246382e-09
1.33232130257e-08
8.98387069419e-09
1.86103113645e-08
1.40724735272e-08
3.6253587619e-09
1.68284882367e-08
1.69591478475e-09
5.70822453979e-09
3.22329044199e-08
8.96056548014e-09
3.01279578838e-09
1.0287416601e-09
8.44841595806e-09
3.68695090012e-08
2.7972948393e-08
3.17945480784e-08
1.75905357075e-08
1.71345839035e-08
2.06508511456e-08
2.67073165564e-08
1.39916562269e-08
2.96667975989e-08
6.21814803097e-08
3.94084312431e-08
7.21662624255e-09
1.08110452855e-08
3.0126604369e-08
6.86989570458e-09
1.51456362583e-08
9.97098195623e-10
3.63518344342e-08
9.12339580725e-09
1.1829232009e-08
7.91647397356e-09
9.33093614721e-09
4.5249112218e-09
5.77705761363e-08
4.67903362923e-08
3.48378990274e-10
1.61710152546e-09
8.95418511821e-09
1.03210643145e-08
7.45116375442e-09
1.03815492386e-08
2.72708944558e-09
5.37538199609e-09
1.70030894184e-08
2.20650578045e-09
2.09743269393e-08
3.50406623372e-09
6.553013275e-09
2.42019080432e-08
2.7056523692e-08
6.69653063643e-09
9.33172334549e-09
1.1079755607e-08
1.91353569381e-08
4.2200029335e-09
9.11141865217e-09
1.25396771454e-08
1.23704717445e-08
1.76212749581e-08
2.39534178954e-08
1.02987343161e-08
2.28636786035e-10
3.79733110367e-08
1.26679488032e-08
1.14121295249e-09
1.41005872089e-08
8.30629418308e-09
7.1289581912e-09
1.1895675001e-08
5.91983333058e-09
1.85358013042e-09
6.71548931646e-09
8.26920623252e-09
1.10198083953e-08
6.70520036945e-09
2.592557201e-08
3.25967041691e-08
3.71400599092e-09
7.87235262695e-10
2.2227838883e-09
1.03413325094e-08
1.56028609864e-08
7.15835789358e-09
1.17452715522e-08
7.94863580564e-09
2.32453694695e-09
3.99999989557e-09
3.71832771006e-09
2.4898009666e-10
5.98385105946e-09
1.91123826347e-08
4.75378983194e-09
4.2553237816e-13
2.51186354442e-08
7.53411633984e-09
1.39039742715e-09
5.03516434984e-09
1.51971378459e-08
1.8470393737e-09
3.94283016886e-09
4.00487854102e-09
1.32364377727e-08
9.69449698784e-09
1.23536990228e-08
1.14099137271e-08
1.64662537586e-08
1.78248651282e-08
3.47830491408e-09
1.47724134092e-08
2.45264121456e-09
8.37272974269e-09
3.61021615109e-08
1.4836357896e-08
1.70014326681e-10
1.09958017926e-08
4.16171529792e-08
2.10360844583e-08
3.28656641874e-08
1.93922600345e-08
4.34950846921e-09
1.7643204306e-08
9.26586545916e-09
2.57801070028e-08
3.55084816003e-09
2.6232960961e-08
1.17731179333e-08
2.43895420247e-08
1.73667253e-08
8.65751702361e-09
1.05291435931e-09
1.02334984091e-08
1.98362043751e-08
2.99372993806e-08
2.77997472354e-08
1.85003001142e-08
6.59757110609e-09
9.95981847242e-09
2.5192038709e-08
2.02599719743e-09
4.30021113069e-09
1.39539095185e-08
8.47080407124e-09
1.87956947421e-09
2.11208273111e-08
2.69843842849e-09
1.32091979861e-08
9.80818502497e-09
2.0096955077e-09
9.30852002869e-09
8.54434848552e-09
9.2975741036e-10
1.10391554803e-08
2.26127866463e-08
1.86178825391e-08
1.23208942643e-08
6.41913495486e-09
2.1347311843e-08
8.18626871189e-09
9.84648095225e-09
2.32612491923e-08
2.05483452937e-08
3.38330597053e-09
7.15105112509e-09
1.56662916181e-11
1.02486473466e-09
3.0326734677e-08
1.46565992932e-08
1.65166452969e-08
1.0100999599e-08
2.72068702851e-09
2.92585113411e-08
1.99031080016e-08
2.03570250899e-08
1.14969019345e-08
6.65932737754e-09
1.42423266485e-08
3.39410215326e-09
1.64552675495e-08
2.16041488164e-09
4.39445457168e-09
2.13503115625e-08
1.37342669063e-09
1.07335836214e-08
5.49991888315e-10
2.95662178796e-08
7.88691334518e-09
5.70953487791e-10
9.17701362794e-09
2.82930651604e-08
7.54021005475e-09
1.87718664528e-08
1.1025603563e-08
1.07703005885e-08
7.92607042173e-09
1.6501261306e-08
6.58388010409e-09
5.66975036315e-11
3.34441606769e-09
2.54548466235e-09
2.30556156399e-09
7.28371228374e-10
1.07316130762e-09
1.04250810284e-08
2.22713192012e-08
8.25017292949e-09
2.84176398527e-08
1.11366202664e-09
3.16249384297e-08
6.63930766292e-08
5.46331638532e-09
3.72247024313e-08
2.00815529494e-08
1.7167002987e-08
3.25296299247e-08
5.15045537878e-09
6.15164543063e-08
1.77453526665e-08
4.01534283492e-08
1.50673368634e-08
1.3612567564e-09
1.19314993628e-08
5.42340422797e-09
1.42964471314e-08
8.78328411223e-09
5.09960945072e-11
2.18007304588e-08
9.92638712812e-09
5.906585346e-09
2.1177940514e-09
6.63721059821e-09
7.93793921453e-10
3.4248638731e-09
2.96136225429e-08
3.07965064199e-09
6.08083371811e-09
2.11657040932e-09
5.76057034579e-09
4.94322169446e-09
1.06753321605e-08
1.03452968398e-08
1.17803693297e-08
1.14777824302e-08
3.26548628511e-09
5.99610591585e-09
1.48747666713e-09
8.15358266901e-09
1.8483183901e-08
3.39936156401e-08
3.09092834563e-08
6.69254706985e-09
9.66911498859e-09
7.70891217913e-09
9.99418990389e-09
2.49411091868e-09
3.1978641377e-09
1.14184570045e-11
2.82748301376e-09
3.40321926221e-09
7.62720410176e-09
2.10117990736e-09
4.79848874942e-09
7.86289915819e-10
2.88020719836e-09
2.90798498618e-09
4.23791902787e-09
1.08807533257e-08
2.35743308831e-08
1.36655972494e-08
1.43302225553e-08
6.52036008204e-09
2.83487034045e-08
2.52288503425e-09
1.87758970591e-08
1.24741165536e-08
2.37932780352e-08
3.6322497057e-10
2.97683559263e-08
9.84767959636e-09
6.07457146038e-09
7.04119246988e-11
1.95535982983e-08
1.3876407547e-08
3.49102122793e-09
2.19489573732e-08
1.02574177454e-08
9.07741745574e-09
6.20076552559e-09
4.0900248429e-09
1.6954149742e-09
1.2592587527e-08
1.26893845313e-08
1.91617469994e-08
1.02779549556e-08
1.84099140457e-08
8.20777620854e-09
5.87104365104e-09
4.53748536318e-08
3.02115800526e-08
1.9706822522e-08
7.29882172085e-09
1.58217819072e-08
1.09871871861e-08
2.08102005042e-08
1.04574653053e-08
1.9028237002e-09
1.77832469441e-09
5.26494939665e-09
8.59104540312e-09
6.04695273981e-09
2.25246677607e-09
5.19396547293e-09
8.51576667712e-09
6.59236024448e-09
8.08869746165e-09
5.59455012527e-09
5.0993232995e-09
1.02631344852e-09
8.04341225127e-09
9.76007155112e-09
2.3239437255e-09
1.64594629976e-08
4.10168407025e-08
2.11227050545e-08
2.91995029624e-08
1.13298951336e-08
1.24976074419e-08
2.99871393362e-08
2.9313412297e-08
1.30232410771e-08
9.75682603457e-10
1.79252783875e-08
9.82671119042e-09
1.32676843376e-08
1.37109394278e-08
1.18089230268e-08
2.10353484905e-08
1.20791451867e-08
2.55615300676e-08
2.21601483469e-08
2.04742306355e-08
1.89843106991e-08
1.31868886088e-08
1.8787976875e-08
1.61468209304e-08
9.389542859e-09
5.1579908751e-09
5.49485300158e-09
6.76340214261e-09
1.13623260102e-08
5.86566453824e-09
1.30565230164e-08
7.85136229318e-09
3.70394544441e-09
9.11057960914e-09
7.2927331089e-09
8.51591105707e-09
1.06682554405e-08
1.33947981222e-09
6.80738240294e-09
9.59044131606e-09
5.7251518496e-09
8.48201731367e-11
4.63128042003e-09
6.98902058225e-09
2.01053740692e-08
1.67270618676e-08
2.34507001412e-08
1.32923976445e-08
1.38525563737e-08
2.33013568428e-09
9.16446035428e-10
1.85558645337e-08
1.39236865099e-08
9.22982067331e-09
8.68180060623e-09
1.8462569986e-08
2.08378258851e-08
9.58161956615e-09
9.33469061678e-10
2.03853586188e-09
1.54639424025e-10
1.52855847447e-08
4.90836358572e-10
7.58284734742e-09
9.85949364094e-10
5.05040917833e-10
3.05073087102e-09
1.40421643083e-09
1.66709267702e-09
7.8346639906e-09
7.07898663239e-09
1.9513840477e-09
7.15661519502e-09
1.51039296209e-08
1.13529805667e-08
6.51771150026e-09
2.9685850895e-09
1.13505663579e-09
1.64727445377e-08
2.99852637298e-08
5.57265309182e-09
2.25693347502e-08
4.33985200819e-09
7.61240905107e-09
1.88109034254e-09
8.08858218293e-09
5.65016585401e-09
1.55672882911e-08
1.3192961514e-08
1.03292878495e-08
2.8240591838e-09
1.45947488515e-08
1.62316005732e-08
6.3850286113e-09
2.08241430014e-08
8.4831310127e-09
1.77113316061e-08
2.08419123967e-08
1.26466100578e-09
9.68829999596e-10
1.41961838217e-08
7.08593536455e-09
1.48911470227e-08
1.61828908858e-09
6.87229387688e-09
5.34081158209e-09
1.00074832164e-08
1.27621384588e-08
1.64259455885e-08
1.13935940093e-08
7.60306226096e-09
2.90856637509e-08
2.6910432354e-08
7.63756757807e-09
1.60281487805e-08
9.27195920909e-09
1.08895266879e-08
8.51649396954e-09
1.60529433476e-08
4.39788442704e-11
1.6004283555e-08
6.46384510515e-09
1.44153916485e-08
1.39023253669e-08
5.94378189553e-09
6.23087447743e-09
1.81098360927e-08
6.49757390914e-09
1.16653895714e-08
2.38941837088e-08
8.3831735359e-09
2.32389953185e-08
2.39512586895e-08
4.56684323328e-09
5.86561640913e-09
2.70278084544e-08
6.6755325063e-09
1.26891666195e-08
3.46221915023e-08
8.18262103811e-09
1.56850396725e-08
3.32201752303e-08
3.76554400242e-09
3.14932608493e-09
1.37869163375e-08
8.43212828273e-09
1.89601898309e-08
5.76462601444e-09
5.83639231588e-09
1.19657209506e-09
8.66894937267e-09
2.58114284533e-09
4.82213893997e-09
7.57718744765e-10
2.0617900559e-09
6.84368653438e-09
5.5098907273e-09
4.38212552468e-08
6.41774590416e-09
1.33814007681e-10
8.78811418437e-09
1.08086250574e-09
6.73823315191e-09
8.23911213657e-09
1.44747763309e-08
1.79033073968e-08
3.13723999329e-09
7.16212447862e-09
1.45909134689e-08
1.00963622587e-08
7.02858260565e-09
9.49850796178e-09
9.58185307772e-09
5.86375357282e-08
2.82259447128e-09
5.53551434134e-09
1.15303669422e-08
7.94178188218e-09
1.02153316515e-08
9.35531206601e-09
5.55829580074e-09
8.1379641538e-09
1.53349459647e-08
3.35244807356e-08
1.90910319527e-08
5.3903195656e-09
3.65158180253e-09
2.46871773285e-09
1.58528505943e-10
1.37649030218e-09
1.67054506254e-08
6.42763601306e-08
2.20680599729e-08
2.93371605296e-08
3.19284265776e-08
2.07403603831e-08
5.52391853755e-08
2.5657031487e-08
1.05569229939e-08
3.58645851959e-08
1.07468036755e-08
3.88606061856e-08
5.81871676137e-09
2.66320993238e-08
4.37351731453e-08
3.04317635146e-08
2.06096025592e-08
7.65094088658e-09
3.62892135882e-09
8.21050289875e-09
1.07948565554e-08
5.41025607191e-09
1.3724307603e-08
1.8886058234e-08
5.92560450895e-09
7.50411022301e-09
2.1949720835e-08
8.3762706442e-09
4.75896875032e-10
1.50686567536e-08
1.8423586762e-08
1.26323979859e-08
1.55900476719e-08
3.87013352925e-08
1.81867495637e-08
9.75451438326e-09
8.20963443377e-09
8.2926369639e-09
5.8504176789e-10
8.80460809645e-09
1.15940880219e-08
3.75655019354e-09
1.04960659535e-08
6.30793408062e-09
7.73611089447e-09
1.11292388479e-08
7.43257801631e-09
1.87239470174e-08
1.30065350152e-08
2.53964309723e-08
1.28537409322e-08
1.40010214899e-08
5.54042449647e-09
2.60585210932e-08
5.28496201707e-08
9.76284963345e-09
1.56257274539e-08
1.2281862728e-09
9.30705173545e-11
9.59987893857e-09
9.91428951788e-09
6.5521705468e-09
3.35255730442e-08
1.21386696872e-08
1.07585976617e-08
1.79279469009e-08
6.32935062685e-10
2.15782807986e-08
3.84445826679e-09
1.32539486702e-09
2.15984197979e-08
1.0860306303e-08
4.9828874495e-09
1.37738601435e-08
5.2017057097e-09
2.59893484722e-08
1.1555767104e-08
2.26956463706e-08
2.88583901885e-08
2.84264216251e-08
8.45872731482e-09
2.45220238791e-08
1.15224528614e-08
1.31706608235e-08
2.32011161983e-08
1.60082179731e-08
1.04474517052e-08
2.49579268999e-08
2.06445344049e-08
3.28694065906e-09
1.75325801674e-08
3.29594889526e-08
5.04566924974e-09
3.27482327675e-08
4.64556639875e-08
6.46600202662e-08
1.40273513052e-08
3.06077038699e-09
1.61927366219e-08
1.98866738404e-08
2.40801047169e-09
1.90363695341e-08
1.73917355787e-08
3.97001376373e-09
2.36374065778e-08
3.60695204883e-08
3.74239837541e-08