# vtk DataFile Version 3.0
File Name: Molecule/sphere_cent/sphere_cent_0-s2.vtk
ASCII
DATASET UNSTRUCTURED_GRID
FIELD FieldData 1
TIME 1 1 double
0.0
POINTS 162 double
0.85065078735 -0.52573114634 -2.2690307411e-09
0.86284852028 -0.43502771854 -0.25720086694
0.9610838294 -0.27609294653 6.5552689193e-05
0.95103728771 -0.15983994305 -0.26447436213
0.80900675058 -0.30901306868 -0.49999368191
0.99998736382 -2.1392114746e-09 3.7592252511e-07
0.85227286816 7.5050862506e-05 -0.5230628252
0.95103538036 0.15986897051 -0.26445966959
0.80900639296 0.30901372433 -0.49999392033
0.69232952595 -0.15888024867 -0.70380908251
0.69228124619 0.15892602503 -0.70384633541
0.52573114634 6.9694121585e-09 -0.85065078735
0.96110725403 0.2760129869 -0.00013291853247
0.86287927628 0.43496111035 -0.25721418858
0.85065078735 0.52573114634 9.4334930978e-09
0.7038872242 0.69224691391 -0.158892259
0.6865593791 0.58777433634 -0.42793032527
0.4999935329 0.8090069294 -0.30901280046
0.58772903681 0.42793554068 -0.68659424782
0.42790490389 0.6865748167 -0.58777350187
0.30901244283 0.49999344349 -0.80900716782
0.43506920338 0.25725007057 -0.86281388998
0.25729557872 0.8627782464 -0.43511259556
0.15903243423 0.7038872242 -0.69221556187
-2.7318694862e-08 0.85065078735 -0.52573108673
0.7039270997 0.69218200445 0.15899884701
0.52310281992 0.85224997997 5.5912382777e-06
0.49999383092 0.80900657177 0.3090133965
0.26442581415 0.95105183125 -0.15982925892
0.26445877552 0.95103603601 0.1598662585
-7.919167615e-07 0.99998736382 1.0191691935e-09
6.7304055847e-05 0.96109968424 -0.27603980899
0.25721335411 0.86291128397 0.43489730358
6.5256703238e-05 0.96110153198 0.27603414655
-1.9061672241e-09 0.85065078735 0.52573108673
-0.25719627738 0.86281889677 0.4350899756
-0.26447758079 0.95103561878 0.15984281898
-0.49999377131 0.80900651217 0.3090134263
-0.26451176405 0.95101934671 -0.15988013148
-0.52313023806 0.852232337 -1.429183726e-06
-0.49999392033 0.80900639296 -0.30901372433
-0.25720927119 0.86287969351 -0.4349630177
-0.70381170511 0.69232594967 0.15888437629
-0.70384687185 0.69228082895 -0.1589268446
-0.85065078735 0.52573108673 -3.5719802671e-09
-0.15889012814 0.70388561487 0.69224923849
-0.42793160677 0.68655598164 0.58777719736
-0.30901280046 0.4999935329 0.8090069294
-0.68659418821 0.58773076534 0.42793342471
-0.58777356148 0.42790478468 0.6865748167
-0.80900710821 0.30901247263 0.49999347329
-0.86281329393 0.43507045507 0.25724977255
-0.43511256576 0.25729554892 0.86277830601
-0.69221556187 0.15903241932 0.7038872242
-0.52573108673 -2.7903437783e-08 0.85065078735
0.15893273056 0.70392453671 0.69220006466
3.089475058e-06 0.52310150862 0.85225081444
0.30901309848 0.49999365211 0.80900681019
-0.15982919931 0.26442590356 0.95105183125
0.15986597538 0.26445844769 0.95103615522
7.5038713021e-09 -7.9597703007e-07 0.99998736382
-0.27603977919 6.7312859755e-05 0.96109968424
0.43489700556 0.25721338391 0.86291146278
0.27603417635 6.52446397e-05 0.96110153198
0.52573114634 -1.5240511075e-08 0.85065078735
-0.43509078026 -0.25719624758 0.86281853914
-0.15984253585 -0.26447740197 0.95103561878
-0.3090134263 -0.49999380112 0.80900657177
7.4063937063e-05 -0.52306324244 0.85227262974
0.15991191566 -0.26440998912 0.95104312897
0.30901372433 -0.49999392033 0.80900639296
-0.15888044238 -0.70380920172 0.69232934713
0.15892624855 -0.70384627581 0.69228136539
6.0789480116e-09 -0.85065078735 0.52573114634
0.43496340513 -0.25720953941 0.86287951469
0.69224709272 -0.15889184177 0.7038872242
0.5877738595 -0.4279306829 0.6865593791
0.80900675058 -0.30901309848 0.49999368191
0.42793574929 -0.68659424782 0.5877289772
0.68657386303 -0.58777409792 0.42790535092
0.49999344349 -0.80900716782 0.30901247263
0.25725004077 -0.86281388998 0.43506920338
0.86274719238 -0.43517664075 0.25729310513
0.70388752222 -0.69221609831 0.15903104842
0.43498766422 -0.25715607405 -0.86288255453
0.27611833811 2.1969267436e-06 -0.96107697487
0.15983696282 -0.26447623968 -0.95103722811
0.30901280046 -0.4999935627 -0.8090069294
-8.1434547994e-09 -1.8846344929e-08 -0.99998736382
-7.5432872109e-05 -0.52306264639 -0.85227292776
-0.15986901522 -0.26446002722 -0.95103526115
-0.30901375413 -0.49999389052 -0.80900639296
0.15888006985 -0.70380890369 -0.69232976437
-0.15892603993 -0.70384633541 -0.69228124619
-1.2744436617e-08 -0.85065078735 -0.52573108673
-0.27601289749 -0.00013325741747 -0.96110731363
-0.43496111035 -0.25721415877 -0.86287927628
-0.52573114634 -6.1789151573e-10 -0.85065078735
0.95103341341 -0.15984562039 0.26448276639
0.95102053881 0.15987934172 0.26450771093
0.85220181942 -1.7404974642e-05 0.52318179607
0.80900675058 0.30901309848 0.49999368191
0.86291611195 0.43491724133 0.25716543198
0.69229531288 0.15886121988 0.70384800434
0.68656265736 0.58776724339 0.42793399096
0.42784258723 0.68656754494 0.58782923222
0.58777213097 0.42779695988 0.68664598465
-0.69224685431 -0.1588922739 -0.70388716459
-0.69218242168 0.15899826586 -0.70392686129
-0.8522503376 4.9079699238e-06 -0.52310264111
-0.8090069294 -0.30901277065 -0.4999935329
-0.80900675058 0.30901309848 -0.49999365211
-0.95105779171 -0.15976202488 -0.26444044709
-0.9510358572 0.15986743569 -0.26445898414
-0.99998736382 -1.5321439673e-09 3.7933980934e-07
-0.86291438341 -0.43489173055 -0.25721263885
-0.96110141277 -0.27603381872 -6.663709064e-05
-0.85065078735 -0.52573114634 2.0790674071e-08
-0.86294591427 0.43485602736 -0.25716882944
-0.96109467745 0.27605965734 -0.00012858424452
-0.15892934799 0.70392346382 -0.6922019124
-0.42793250084 0.68655997515 -0.58777189255
-0.30901309848 0.4999936223 -0.80900675058
-0.58784621954 0.42789244652 -0.68652009964
-0.68664836884 0.58776903152 -0.4277972877
-0.43513172865 0.25724753737 -0.86278378963
-0.70388787985 -0.69224607944 -0.15889264643
-0.70392686129 -0.69218242168 0.15899828076
-0.52310264111 -0.852250278 5.2008977036e-06
-0.49999344349 -0.80900716782 -0.30901244283
-0.49999368191 -0.80900675058 0.30901309848
-0.26444020867 -0.95105791092 -0.15976086259
-0.26445898414 -0.95103591681 0.15986734629
3.8998479113e-07 -0.99998736382 6.6347061178e-09
-0.25716862082 -0.86294859648 -0.43485066295
-6.5358246502e-05 -0.96110147238 -0.27603450418
-0.25716850162 -0.86294531822 0.43485730886
-0.00012857024558 -0.96109467745 0.27605968714
-0.86285436153 -0.4350463748 0.25715279579
-0.6865593195 -0.58777028322 0.42793557048
-0.80900675058 -0.30901309848 0.49999368191
-0.42783877254 -0.6865683198 0.58783125877
-0.58775603771 -0.42786169052 0.68661767244
-0.69216990471 -0.15906532109 0.70392531157
-0.8522477746 -2.5162732982e-06 0.52310597897
-0.95106011629 0.15987230837 0.26437306404
-0.95103865862 -0.1599714458 0.26439252496
-0.58777344227 -0.42793086171 -0.6865593791
-0.42788550258 -0.68664312363 -0.58770984411
-0.68664443493 -0.5877738595 -0.42779693007
0.25715279579 -0.86285233498 -0.43505001068
0.26447582245 -0.95103645325 -0.15983994305
0.49999365211 -0.80900675058 -0.30901312828
0.52311700583 -0.85224044323 9.5249924925e-05
0.26439195871 -0.95103818178 0.15997651219
0.70384377241 -0.69230151176 -0.15885287523
0.58777409792 -0.42792892456 -0.68656003475
0.68656384945 -0.58783572912 -0.4278396666
0.42779773474 -0.686642766 -0.58777529001
0.15984109044 0.2644777298 -0.95103549957
-0.1599483788 0.26449218392 -0.95101422071
-8.6418663159e-07 0.52323746681 -0.85216861963

CELLS 320 1280
3 0 1 2
3 1 3 2
3 1 4 3
3 2 3 5
3 4 6 3
3 6 7 3
3 6 8 7
3 3 7 5
3 4 9 6
3 9 10 6
3 9 11 10
3 6 10 8
3 5 7 12
3 7 13 12
3 7 8 13
3 12 13 14
3 14 13 15
3 13 16 15
3 13 8 16
3 15 16 17
3 8 18 16
3 18 19 16
3 18 20 19
3 16 19 17
3 8 10 18
3 10 21 18
3 10 11 21
3 18 21 20
3 17 19 22
3 19 23 22
3 19 20 23
3 22 23 24
3 14 15 25
3 15 26 25
3 15 17 26
3 25 26 27
3 17 28 26
3 28 29 26
3 28 30 29
3 26 29 27
3 17 22 28
3 22 31 28
3 22 24 31
3 28 31 30
3 27 29 32
3 29 33 32
3 29 30 33
3 32 33 34
3 34 33 35
3 33 36 35
3 33 30 36
3 35 36 37
3 30 38 36
3 38 39 36
3 38 40 39
3 36 39 37
3 30 31 38
3 31 41 38
3 31 24 41
3 38 41 40
3 37 39 42
3 39 43 42
3 39 40 43
3 42 43 44
3 34 35 45
3 35 46 45
3 35 37 46
3 45 46 47
3 37 48 46
3 48 49 46
3 48 50 49
3 46 49 47
3 37 42 48
3 42 51 48
3 42 44 51
3 48 51 50
3 47 49 52
3 49 53 52
3 49 50 53
3 52 53 54
3 34 45 55
3 45 56 55
3 45 47 56
3 55 56 57
3 47 58 56
3 58 59 56
3 58 60 59
3 56 59 57
3 47 52 58
3 52 61 58
3 52 54 61
3 58 61 60
3 57 59 62
3 59 63 62
3 59 60 63
3 62 63 64
3 54 65 61
3 65 66 61
3 65 67 66
3 61 66 60
3 67 68 66
3 68 69 66
3 68 70 69
3 66 69 60
3 67 71 68
3 71 72 68
3 71 73 72
3 68 72 70
3 60 69 63
3 69 74 63
3 69 70 74
3 63 74 64
3 64 74 75
3 74 76 75
3 74 70 76
3 75 76 77
3 70 78 76
3 78 79 76
3 78 80 79
3 76 79 77
3 70 72 78
3 72 81 78
3 72 73 81
3 78 81 80
3 77 79 82
3 79 83 82
3 79 80 83
3 82 83 0
3 11 84 85
3 84 86 85
3 84 87 86
3 85 86 88
3 87 89 86
3 89 90 86
3 89 91 90
3 86 90 88
3 87 92 89
3 92 93 89
3 92 94 93
3 89 93 91
3 88 90 95
3 90 96 95
3 90 91 96
3 95 96 97
3 0 2 82
3 2 98 82
3 2 5 98
3 82 98 77
3 5 99 98
3 99 100 98
3 99 101 100
3 98 100 77
3 5 12 99
3 12 102 99
3 12 14 102
3 99 102 101
3 77 100 75
3 100 103 75
3 100 101 103
3 75 103 64
3 14 25 102
3 25 104 102
3 25 27 104
3 102 104 101
3 27 105 104
3 105 106 104
3 105 57 106
3 104 106 101
3 27 32 105
3 32 55 105
3 32 34 55
3 105 55 57
3 101 106 103
3 106 62 103
3 106 57 62
3 103 62 64
3 97 107 108
3 107 109 108
3 107 110 109
3 108 109 111
3 110 112 109
3 112 113 109
3 112 114 113
3 109 113 111
3 110 115 112
3 115 116 112
3 115 117 116
3 112 116 114
3 111 113 118
3 113 119 118
3 113 114 119
3 118 119 44
3 24 120 41
3 120 121 41
3 120 122 121
3 41 121 40
3 122 123 121
3 123 124 121
3 123 111 124
3 121 124 40
3 122 125 123
3 125 108 123
3 125 97 108
3 123 108 111
3 40 124 43
3 124 118 43
3 124 111 118
3 43 118 44
3 117 126 127
3 126 128 127
3 126 129 128
3 127 128 130
3 129 131 128
3 131 132 128
3 131 133 132
3 128 132 130
3 129 134 131
3 134 135 131
3 134 94 135
3 131 135 133
3 130 132 136
3 132 137 136
3 132 133 137
3 136 137 73
3 117 127 138
3 127 139 138
3 127 130 139
3 138 139 140
3 130 141 139
3 141 142 139
3 141 67 142
3 139 142 140
3 130 136 141
3 136 71 141
3 136 73 71
3 141 71 67
3 140 142 143
3 142 65 143
3 142 67 65
3 143 65 54
3 54 53 143
3 53 144 143
3 53 50 144
3 143 144 140
3 50 145 144
3 145 146 144
3 145 114 146
3 144 146 140
3 50 51 145
3 51 119 145
3 51 44 119
3 145 119 114
3 140 146 138
3 146 116 138
3 146 114 116
3 138 116 117
3 97 96 107
3 96 147 107
3 96 91 147
3 107 147 110
3 91 148 147
3 148 149 147
3 148 129 149
3 147 149 110
3 91 93 148
3 93 134 148
3 93 94 134
3 148 134 129
3 110 149 115
3 149 126 115
3 149 129 126
3 115 126 117
3 94 150 135
3 150 151 135
3 150 152 151
3 135 151 133
3 152 153 151
3 153 154 151
3 153 80 154
3 151 154 133
3 152 155 153
3 155 83 153
3 155 0 83
3 153 83 80
3 133 154 137
3 154 81 137
3 154 80 81
3 137 81 73
3 11 9 84
3 9 156 84
3 9 4 156
3 84 156 87
3 4 157 156
3 157 158 156
3 157 152 158
3 156 158 87
3 4 1 157
3 1 155 157
3 1 0 155
3 157 155 152
3 87 158 92
3 158 150 92
3 158 152 150
3 92 150 94
3 11 85 21
3 85 159 21
3 85 88 159
3 21 159 20
3 88 160 159
3 160 161 159
3 160 122 161
3 159 161 20
3 88 95 160
3 95 125 160
3 95 97 125
3 160 125 122
3 20 161 23
3 161 120 23
3 161 122 120
3 23 120 24

CELL_TYPES 320
5
5
5
5
5
5
5
5
5
5
5
5
5
5
5
5
5
5
5
5
5
5
5
5
5
5
5
5
5
5
5
5
5
5
5
5
5
5
5
5
5
5
5
5
5
5
5
5
5
5
5
5
5
5
5
5
5
5
5
5
5
5
5
5
5
5
5
5
5
5
5
5
5
5
5
5
5
5
5
5
5
5
5
5
5
5
5
5
5
5
5
5
5
5
5
5
5
5
5
5
5
5
5
5
5
5
5
5
5
5
5
5
5
5
5
5
5
5
5
5
5
5
5
5
5
5
5
5
5
5
5
5
5
5
5
5
5
5
5
5
5
5
5
5
5
5
5
5
5
5
5
5
5
5
5
5
5
5
5
5
5
5
5
5
5
5
5
5
5
5
5
5
5
5
5
5
5
5
5
5
5
5
5
5
5
5
5
5
5
5
5
5
5
5
5
5
5
5
5
5
5
5
5
5
5
5
5
5
5
5
5
5
5
5
5
5
5
5
5
5
5
5
5
5
5
5
5
5
5
5
5
5
5
5
5
5
5
5
5
5
5
5
5
5
5
5
5
5
5
5
5
5
5
5
5
5
5
5
5
5
5
5
5
5
5
5
5
5
5
5
5
5
5
5
5
5
5
5
5
5
5
5
5
5
5
5
5
5
5
5
5
5
5
5
5
5
5
5
5
5
5
5
5
5
5
5
5
5
5
5
5
5
5
5
5
5
5
5
5
5

CELL_DATA 320
SCALARS cell_data_0 double
LOOKUP_TABLE default
2.42671827314e-08
3.29119346835e-08
3.38446451333e-07
4.51962607641e-07
4.30043620043e-07
1.14944880158e-07
4.47910606944e-07
4.79483361074e-07
1.77350096445e-07
1.32567256036e-07
2.27480353378e-08
4.19949259069e-07
4.42108136713e-07
2.03387748976e-08
3.03022572799e-07
1.63427571129e-07
1.00649270992e-07
1.27937245275e-07
4.36318629666e-07
3.31104680635e-07
4.57201884187e-07
2.27660097151e-07
4.19539482255e-07
5.42122125464e-07
2.29929710223e-07
2.71004200688e-07
1.14583719345e-07
2.44592185998e-07
3.40286961017e-07
1.31324581626e-07
4.76322340872e-07
2.50000354901e-08
2.51019578017e-08
2.62556607969e-08
3.69127400166e-07
3.08126423427e-07
4.28762233781e-07
1.1617468645e-07
3.97916941451e-07
5.67013827822e-07
3.70782686682e-07
1.32489968527e-07
1.16458826759e-07
2.66051677447e-07
2.74473852116e-07
1.59643962752e-07
3.99574841962e-07
1.15486906291e-07
7.57639638237e-08
3.15458467965e-08
5.17503218899e-07
2.76730700677e-07
4.78699798696e-07
2.71241255526e-07
4.84311263156e-07
4.42743961007e-07
1.94703832958e-07
1.76839841272e-07
1.72888637945e-07
2.9270584697e-07
5.65181555182e-07
2.77610957207e-08
2.84063691048e-07
9.12210774387e-08
1.00958916772e-07
7.46438861987e-08
4.00398813943e-07
3.70372355978e-07
3.35754397002e-07
2.50704278308e-07
4.69116752227e-07
3.80249895635e-07
4.82027384294e-07
2.43089803894e-07
4.97165480489e-08
4.33544520737e-07
3.48576109599e-07
7.65699105354e-08
3.13339973026e-07
6.53789982533e-08
4.32200320971e-08
1.19784075348e-07
3.18072091854e-07
2.66344511815e-07
3.92753452924e-07
1.80183903243e-07
4.67197595717e-07
4.09959532127e-07
2.43575997314e-07
2.36994149893e-07
1.33021284581e-07
3.44578717332e-07
4.32180463031e-07
4.38320664657e-08
4.47346689022e-07
1.55398003533e-07
2.56919644788e-08
7.84962626153e-08
3.04007947775e-07
2.69119656749e-07
2.70005907652e-07
1.53861250963e-07
5.58586754712e-07
6.21260381025e-07
4.14830774711e-07
2.34495301304e-07
6.6520718515e-08
4.02102822486e-07
3.74563555184e-07
2.2146047271e-08
4.28417070116e-07
4.94052630113e-08
9.9683968785e-08
1.40156260551e-07
3.8650448255e-07
2.78592520267e-07
3.88898858158e-07
7.47182892974e-08
5.21130684819e-07
5.25655945027e-07
3.67939116002e-07
2.43974495725e-07
5.89246194216e-08
2.97361907988e-07
3.70888593362e-07
4.92256633918e-08
2.99377450819e-07
2.96945565382e-08
2.5846655645e-08
2.84497734992e-07
4.73606557764e-07
4.03944420637e-07
4.12276028153e-07
1.10338907987e-07
4.18361128744e-07
4.10995197079e-07
3.35179769983e-07
9.94251318887e-08
6.81074463455e-08
2.1517065704e-07
3.37680022128e-07
3.49174307458e-07
4.73573437188e-07
1.76859600054e-07
6.21231344985e-10
1.6486146365e-07
2.99987149379e-07
2.60287066371e-07
4.48514496358e-07
5.55863645945e-08
4.42702938299e-07
4.20341019104e-07
3.8141818281e-07
7.95390497882e-08
7.88675643084e-08
2.64522857496e-07
2.24947304978e-07
1.27167973478e-07
3.07504434384e-07
2.30686504176e-08
1.77127071364e-07
1.58895872391e-07
4.24611509911e-07
2.89020958653e-07
5.73256446619e-07
2.75127137947e-07
4.07320623218e-07
4.01941601961e-07
3.75801000627e-07
6.05033607732e-08
2.55426242074e-07
4.0128108782e-07
3.65238344357e-07
9.13122028279e-08
3.15771648753e-07
1.8550187706e-08
3.92872398426e-08
8.3250676342e-08
2.97989035292e-07
2.47883944066e-07
4.76238337438e-07
1.27909087675e-07
5.34924785248e-07
3.45381210816e-07
4.07019131777e-07
6.94597435332e-08
4.72796397449e-08
2.14150629448e-07
3.8620766622e-07
7.02365434935e-08
5.01522094064e-07
1.13858877171e-07
9.22411592023e-09
5.98738521636e-08
2.44761632131e-07
2.20774294946e-07
3.41174665612e-07
5.36283682896e-08
4.59521954605e-07
4.2989164356e-07
4.15646730136e-07
1.63073783744e-07
1.06387518501e-07
1.87751880656e-07
3.91088262331e-07
5.83652828372e-08
3.14789070521e-07
9.46535316148e-08
1.16774645439e-08
5.64145862598e-08
3.33006469264e-07
3.0884174105e-07
3.75886610393e-07
8.25560970687e-08
4.88187886375e-07
4.33160658466e-07
3.82326828992e-07
1.65225586255e-07
1.34252652901e-07
2.81520106204e-07
2.88145605611e-07
9.87894348457e-08
3.06701518311e-07
5.61545840003e-08
9.72157139344e-08
7.44274987677e-08
3.11053429024e-07
2.53601842082e-07
4.95225118271e-07
5.61106877216e-08
5.09586467277e-07
3.52075443449e-07
3.5600489862e-07
2.05267658317e-07
1.41751959051e-07
2.83846852723e-07
4.23502465983e-07
9.52163897431e-08
4.3923169048e-07
1.71203118087e-07
1.41957729338e-07
6.40145938204e-08
4.16370937156e-07
3.48238064463e-07
5.04917690177e-07
2.74840202469e-07
5.47404313774e-07
5.88589326572e-07
3.43505925405e-07
1.78612885224e-09
3.33234425424e-09
2.90749050986e-07
2.74387288693e-07
1.05459436515e-07
3.59180125931e-07
2.19849618893e-07
1.7498569367e-07
8.25567245567e-08
6.26746217407e-07
3.05596409454e-07
6.72237789022e-07
1.82203045754e-07
3.97824172207e-07
3.55340317596e-07
2.80039055208e-07
1.00129892248e-07
7.75692704273e-08
4.21559175462e-07
3.99369126191e-07
1.43062230436e-07
2.79876451353e-07
2.25425319841e-07
1.64596987779e-07
1.35276479935e-07
3.4522690929e-07
2.8290448735e-07
6.09249414331e-07
5.23998018732e-08
4.21809256305e-07
3.8216631454e-07
3.44991292626e-07
7.46172749558e-08
1.51188645169e-07
3.24394937169e-07
3.16946171022e-07
1.80315007137e-07
3.10150451404e-07
1.26287080018e-07
2.40205042671e-09
1.94003218957e-07
4.1439637447e-07
3.80431073363e-07
3.28882044384e-07
2.337040185e-07
4.30313938572e-07
4.70084347844e-07
4.10533877543e-07
4.83815122815e-08
1.63839709671e-07
4.56545333186e-07
2.53723910885e-07
1.26959859661e-07
3.71730092924e-07
7.38499513685e-08
8.04089906407e-10
4.01856609819e-08
3.01106239097e-07
4.08985057265e-07
4.94175371665e-07
1.67102986918e-07
4.52775239974e-07
4.57275830662e-07
4.04378179547e-07
1.29421931415e-07
2.22436461587e-07
4.02250700646e-07
3.78286502911e-07
8.96243675024e-08
3.30412052612e-07
1.17602678437e-07

