# vtk DataFile Version 3.0
File Name: Molecule/sphere_cent/sphere_cent_0-s3.vtk
ASCII
DATASET UNSTRUCTURED_GRID
FIELD FieldData 1
TIME 1 1 double
0.0
POINTS 642 double
0.85064631701 -0.5257383585 9.8827749753e-06
0.86465489864 -0.48610129952 -0.12642037868
0.91291218996 -0.40803781152 0.00017612497322
0.92398387194 -0.35938534141 -0.13078197837
0.86300653219 -0.4358535111 -0.2552960515
0.96051609516 -0.27808913589 5.8356472437e-05
0.91674202681 -0.30071559548 -0.26294782758
0.9660680294 -0.22092290223 -0.13376533985
0.95102900267 -0.15783947706 -0.26570290327
0.84457337856 -0.37659034133 -0.38056987524
0.89065974951 -0.23547209799 -0.38891246915
0.80901765823 -0.30901694298 -0.49999389052
0.98993104696 -0.1414026618 1.2845001038e-05
0.98778146505 -0.078327231109 -0.13463699818
0.9999974966 -3.7430620523e-06 2.1690632366e-06
0.84226828814 -0.15701720119 -0.51565825939
0.91362655163 -0.080227404833 -0.39855462313
0.85350203514 6.6048851295e-05 -0.52105778456
0.91356605291 0.080550566316 -0.3986299336
0.96327155828 0.0001503090607 -0.26852291822
0.95102626085 0.15785939991 -0.26569959521
0.84234410524 0.1571816802 -0.51548248529
0.89071673155 0.23543164134 -0.38880574703
0.80901330709 0.30901998281 -0.49999904633
0.98775982857 0.078397013247 -0.13474979997
0.75734484196 -0.23511664569 -0.60918778181
0.78032410145 -0.079775348306 -0.62025785446
0.69123876095 -0.15771302581 -0.70515263081
0.7021137476 6.5745363827e-05 -0.71207147837
0.78038048744 0.080032221973 -0.62015491724
0.6911970377 0.15775881708 -0.70518350601
0.6126588583 -0.078019186854 -0.78642731905
0.61252599955 0.078135885298 -0.78651922941
0.52573919296 4.7147868827e-06 -0.85064578056
0.75732845068 0.23512640595 -0.60920387506
0.9899533987 0.1412550658 -0.00020127027528
0.96608066559 0.22078989446 -0.13390137255
0.96053630114 0.27801945806 -0.00011229408119
0.91671198606 0.30064445734 -0.2631393075
0.92404055595 0.3591568172 -0.13101281226
0.86303156614 0.43579521775 -0.25531134009
0.84463763237 0.37640035152 -0.38061869144
0.91297650337 0.40789702535 -0.00018017576076
0.86465883255 0.48609495163 -0.12641902268
0.85065633059 0.52572214603 -2.6140776299e-06
0.78651452065 0.61255437136 -0.077950775623
0.79317116737 0.57104492188 -0.21164835989
0.70522099733 0.69116574526 -0.15772800148
0.78293043375 0.51726943254 -0.34559988976
0.70310300589 0.64641195536 -0.2962859571
0.68531823158 0.58776909113 -0.42992311716
0.75602048635 0.45332872868 -0.47212353349
0.60935938358 0.75718098879 -0.23519393802
0.59886473417 0.70760852098 -0.37500104308
0.50000119209 0.80901485682 -0.30901265144
0.70754414797 0.37493982911 -0.59897971153
0.64489263296 0.51503759623 -0.56466406584
0.58773356676 0.42993065715 -0.68534374237
0.51481151581 0.56464082003 -0.6450945735
0.56449502707 0.64508378506 -0.51498442888
0.42991039157 0.6853248477 -0.5877700448
0.4533123374 0.47227445245 -0.75593429804
0.37504035234 0.59895128012 -0.70751416683
0.30901455879 0.50000059605 -0.80901443958
0.47209629416 0.75596475601 -0.4534484446
0.64643597603 0.29639241099 -0.70303732157
0.57112586498 0.21177689731 -0.79307872057
0.51710355282 0.34594151378 -0.78289157152
0.43588754535 0.25534078479 -0.86297619343
0.48610264063 0.12640698254 -0.86465668678
0.37670013309 0.38074433804 -0.84444707632
0.38076114655 0.84443861246 -0.3767029345
0.34579613805 0.78285211325 -0.51725924015
0.25537955761 0.86294722557 -0.43592205644
0.29644551873 0.70296943188 -0.64648610353
0.21194185317 0.79304367304 -0.57111406326
0.15785042942 0.7052231431 -0.6911354661
0.23542569578 0.60933679342 -0.75712859631
0.12654639781 0.86457145214 -0.48621827364
0.078138366342 0.78652638197 -0.61251574755
8.5128021965e-06 0.85065227747 -0.52572864294
0.7866217494 0.61238116026 0.078234218061
0.71231752634 0.70186299086 6.9122637797e-05
0.70525491238 0.69111013412 0.15782000124
0.62044233084 0.78018265963 -0.079707957804
0.62042784691 0.78017902374 0.079860590398
0.52109915018 0.8534771204 9.2739519459e-06
0.51565533876 0.84224790335 -0.15713874996
0.60936677456 0.7571683526 0.2352155
0.51565247774 0.84224647284 0.15715581179
0.50000160933 0.80901312828 0.30901646614
0.38879027963 0.89069646597 -0.23553596437
0.39855119586 0.91362506151 -0.080261960626
0.26567193866 0.95103853941 -0.15783286095
0.26842778921 0.96329832077 5.1892500778e-05
0.39853414893 0.9136121273 0.080499000847
0.26569664478 0.9510281086 0.15785335004
0.13471136987 0.9877820015 -0.078176043928
0.13474282622 0.98776054382 0.078407332301
-4.0539566726e-06 0.9999974966 -3.5625430428e-07
0.38881537318 0.89071571827 0.23541718721
0.26306831837 0.91671216488 -0.30070450902
0.13097673655 0.92397409678 -0.35933962464
0.13380432129 0.96613538265 -0.22061190009
5.6798271544e-05 0.96052932739 -0.27804350853
-6.7840664997e-07 0.91293895245 -0.40798041224
0.00018816828378 0.98995053768 -0.14127199352
0.38063383102 0.84464150667 0.37637653947
0.26303958893 0.91675466299 0.30060049891
0.25530737638 0.86306035519 0.43574032187
0.13381525874 0.96610975266 0.22071626782
0.1309709847 0.9240565896 0.35913071036
5.4629817896e-05 0.96053105593 0.27803766727
0.00018707818526 0.98994970322 0.14128014445
0.12643063068 0.86475247145 0.48592627048
4.5393389883e-06 0.91294485331 0.40796643496
4.8069841796e-06 0.850654006 0.52572590113
-0.12639823556 0.86456876993 0.48625987768
-0.13080245256 0.92397576571 0.35939863324
-0.25529494882 0.86298179626 0.43590345979
-0.13381080329 0.96604901552 0.22097724676
-0.26296412945 0.9167175293 0.30077636242
-0.2657096386 0.95102626085 0.15784445405
-0.13463462889 0.98778146505 0.078331559896
-0.38057151437 0.84456086159 0.37661704421
-0.38891661167 0.89065527916 0.23548145592
-0.49999636412 0.80901503563 0.30901989341
-0.1346553266 0.98776787519 -0.078472226858
-0.26871854067 0.96321648359 -2.1206184101e-05
-0.26573699713 0.95101428032 -0.15786968172
-0.39874336123 0.9135222435 -0.080486409366
-0.39877519011 0.91352015734 0.080349311233
-0.52111524343 0.85346692801 -3.8783555283e-06
-0.3890183568 0.89064538479 -0.23534524441
-0.51567548513 0.84225720167 -0.15702149272
-0.50000101328 0.80901390314 -0.30901539326
-0.5156635046 0.84226405621 0.15702068806
-0.13381834328 0.96608614922 -0.2208160013
-0.13084219396 0.92403143644 -0.35924133658
-0.26324740052 0.91669303179 -0.30060854554
-0.25530558825 0.86303281784 -0.43579608202
-0.12640576065 0.86465424299 -0.48610767722
-0.3806270659 0.8446366787 -0.37639340758
-0.60919219255 0.75733953714 0.23512196541
-0.62028455734 0.7802991271 0.07981146127
-0.70515650511 0.69123274088 0.15772198141
-0.62026685476 0.78030180931 -0.07992707938
-0.71209895611 0.70208543539 -2.5623183319e-05
-0.7051871419 0.6911945343 -0.15775218606
-0.60921686888 0.75732296705 -0.23511068523
-0.78643000126 0.61265397072 0.078031383455
-0.78652590513 0.61251729727 -0.078130573034
-0.85064965487 0.52573287487 -2.0480670173e-06
-0.077945783734 0.78650981188 0.61256176233
-0.21163965762 0.79313009977 0.57110530138
-0.15772603452 0.7052180171 0.69116926193
-0.34559103847 0.78289210796 0.51733338833
-0.29628616571 0.70309495926 0.64642071724
-0.42992511392 0.68531227112 0.58777457476
-0.4721237123 0.75601220131 0.45334234834
-0.23519317806 0.60935819149 0.75718224049
-0.37500166893 0.59886217117 0.70761030912
-0.30901271105 0.50000101328 0.80901497602
-0.59897810221 0.70754623413 0.37493848801
-0.5646649003 0.64489126205 0.51503831148
-0.68534344435 0.58773654699 0.42992696166
-0.64509481192 0.51481223106 0.56463986635
-0.51498508453 0.56449300051 0.64508497715
-0.58777016401 0.42991021276 0.6853248477
-0.75593447685 0.45331332088 0.47227329016
-0.70751446486 0.37504035234 0.59895092249
-0.80901736021 0.30901381373 0.49999645352
-0.45344856381 0.47209596634 0.75596493483
-0.70302438736 0.64645862579 0.29637369514
-0.79306447506 0.57115602493 0.21174904704
-0.78289061785 0.51710814238 0.3459366262
-0.86297619343 0.4358894825 0.2553370297
-0.86465537548 0.4861060977 0.12640051544
-0.84444761276 0.37670266628 0.38074022532
-0.3767029345 0.38076108694 0.84443867207
-0.51725924015 0.34579601884 0.78285217285
-0.43592196703 0.25537952781 0.86294728518
-0.64648658037 0.29644489288 0.70296931267
-0.57111430168 0.21194155514 0.79304355383
-0.6911405921 0.15784442425 0.70521944761
-0.75713461637 0.23542265594 0.60933065414
-0.48621833324 0.12654593587 0.86457151175
-0.6125177145 0.078132972121 0.78652536869
-0.52573251724 5.8166388044e-06 0.85064989328
0.078054137528 0.78661298752 0.61241436005
3.1825336919e-05 0.71230691671 0.7018737793
0.15776057541 0.70525121689 0.69112759829
-0.07971213758 0.62043869495 0.78018516302
0.079828999937 0.62042272091 0.78018629551
5.4077813729e-06 0.521096766 0.85347855091
-0.15714019537 0.51565414667 0.84224832058
0.2351808548 0.60936617851 0.75717961788
0.15715102851 0.51565146446 0.84224790335
0.30900973082 0.50000041723 0.80901646614
-0.23553611338 0.38879016042 0.89069652557
-0.08026316762 0.39855033159 0.91362529993
-0.15783289075 0.26567193866 0.95103853941
5.1689392421e-05 0.26842755079 0.96329843998
0.080497562885 0.39853325486 0.91361260414
0.15785306692 0.26569634676 0.9510281682
-0.078176051378 0.13471156359 0.9877820015
0.078407339752 0.13474290073 0.98776048422
1.3516444142e-06 -6.6865675308e-07 0.9999974966
0.23541638255 0.38881489635 0.8907161355
-0.30070444942 0.26306834817 0.91671216488
-0.35933968425 0.13097675145 0.92397409678
-0.22061190009 0.1338044107 0.96613538265
-0.27804487944 5.7897424995e-05 0.96052885056
-0.4079850018 3.4210679587e-06 0.91293674707
-0.14127078652 0.00019035846344 0.9899507165
0.37637063861 0.38062995672 0.84464585781
0.30059981346 0.2630391717 0.91675502062
0.43573862314 0.25530457497 0.86306190491
0.22071607411 0.13381548226 0.96610975266
0.35913056135 0.1309709847 0.92405664921
0.27803725004 5.8879355493e-05 0.96053111553
0.14128293097 0.00019276962848 0.98994922638
0.48593103886 0.12642981112 0.86474978924
0.40796259046 6.776463124e-07 0.91294670105
0.52572602034 2.0743734694e-06 0.8506539464
-0.48626226187 -0.1264026314 0.86456722021
[...]
CELL_DATA 1280
SCALARS cell_data_0 double
LOOKUP_TABLE default
1.9433296318e-08
3.20419904708e-08
9.87812486177e-09
2.19860913017e-08
1.18025168306e-07
6.91894525354e-09
1.17336665903e-08
2.48782192256e-08
8.01304092022e-09
9.24399747021e-09
3.03969889553e-08
3.68715584042e-09
2.87591921888e-08
8.13362708742e-09
6.34901195535e-08
7.6937743407e-08
6.29668768114e-08
2.79814164974e-08
2.57708028739e-08
7.12813317186e-08
1.24577522144e-08
2.46977714451e-08
4.09033191514e-08
9.68457255957e-08
2.94999904228e-08
4.44082910286e-08
3.35512070409e-08
3.11314188032e-08
1.62168293866e-09
2.56743340731e-08
1.09552747824e-07
9.1184788429e-08
2.11977923119e-09
5.4852205165e-08
5.20126320063e-08
1.78707327886e-08
9.32970529435e-08
2.46553423024e-09
3.45099187768e-08
2.52781886334e-08
4.25490372136e-08
2.07168409897e-08
2.74939866391e-08
2.36941037438e-08
3.70840258375e-08
3.66273116848e-08
2.54498714326e-08
3.48367200347e-08
5.29343273118e-08
9.71191534738e-08
1.66200757494e-08
1.52516826295e-08
5.66857704499e-08
1.73368997047e-09
2.21174812787e-08
6.62746766031e-08
6.17928109644e-08
1.25553358098e-08
3.10682540038e-09
2.17532231773e-09
2.53528555424e-08
2.11493079813e-08
1.48976203002e-08
3.35053265347e-08
2.83246900246e-08
3.34328842412e-08
1.4592750914e-08
1.56120369908e-08
7.23685619283e-09
2.44858473087e-08
3.987472369e-08
1.14335796412e-08
7.75193321426e-10
5.55963845168e-08
6.58273454896e-09
1.17981248623e-07
3.66902487742e-08
7.54422466513e-08
7.57008346344e-08
4.08057702429e-08
1.59116552978e-08
2.79032258255e-08
2.14882884192e-08
5.55459407912e-08
2.05485547725e-09
5.53690556024e-08
9.63948107445e-08
6.90225952881e-08
1.06629474022e-07
7.71512032713e-10
8.93000509147e-09
8.82217729113e-08
5.45131410387e-08
4.52757492206e-08
1.64810047793e-08
1.99686003514e-09
1.39009826826e-08
8.84898788812e-09
5.32845476706e-08
2.29941727109e-09
1.24622650874e-08
2.26864679711e-08
1.62660875827e-08
3.36650674832e-08
1.22091270874e-08
1.59560384237e-08
1.59188119685e-09
2.97795702645e-08
2.6400128614e-09
3.92201329402e-08
3.82788870734e-08
6.93844594897e-08
1.35830493212e-08
8.8298066781e-09
1.9941047229e-08
4.01906280453e-08
3.53260538342e-08
3.17749755658e-08
2.05583360743e-08
1.85714382725e-08
1.59170751971e-08
4.58284915093e-09
3.28403270633e-09
2.76475805054e-08
1.18243690766e-08
3.39598802422e-08
2.35156462231e-08
5.51301556074e-08
7.40842538409e-09
1.3558111066e-08
5.36392621054e-08
4.2868203494e-08
1.40126125245e-08
7.36069943562e-08
6.45485219148e-08
3.72751169583e-08
4.63388944682e-08
3.99480382768e-08
1.70758181948e-08
6.64760140218e-08
9.078129413e-09
1.87722740891e-08
1.22715079622e-07
5.30488008511e-08
4.51579739197e-09
3.19732900068e-08
7.05612526507e-08
1.80306075847e-08
5.10693804037e-08
1.81366184406e-08
6.95422210557e-08
6.95335495811e-08
8.20248852412e-09
2.01915229535e-08
1.29033743911e-07
6.08078915898e-08
8.32697643367e-08
7.0632296264e-08
1.27588669104e-07
1.14000841809e-08
3.33549419289e-08
1.15563401684e-08
5.23050782649e-09
4.38689710417e-08
1.48474139334e-08
2.70366425529e-08
1.24632710477e-07
1.3081543404e-08
8.85197177654e-08
4.96522267958e-08
2.32610520832e-09
1.17182170202e-08
7.90900263249e-08
4.3196400106e-08
3.4513403043e-08
4.32249159551e-08
1.54856497843e-07
4.5694427804e-08
7.66003740067e-08
4.03344279124e-08
6.87431191476e-08
2.73492697113e-08
5.69425073764e-09
4.81413099504e-08
5.26317216125e-08
5.11682311885e-08
3.66674003126e-08
8.77727027638e-09
1.32410556485e-09
4.26945831598e-09
2.91579238715e-08
3.29523290768e-08
4.1248815812e-09
1.52229506749e-08
6.3307902374e-09
7.90711081741e-08
3.82920951651e-08
1.75420358968e-08
2.04707166248e-08
2.7369481616e-08
1.64432334571e-08
2.89120416611e-08
7.94009810263e-09
2.32353551681e-08
2.38688917691e-08
7.31602091713e-08
1.61499707383e-08
1.6812753574e-08
1.57223474532e-07
3.59810996073e-08
1.86496088335e-08
1.39131360587e-08
9.22636751258e-08
2.38478860799e-08
1.51858807081e-08
4.60689467007e-08
2.35875741166e-08
6.54500115569e-09
8.94740351656e-08
3.88607436114e-08
3.89539419313e-09
9.08799186933e-09
2.11925552446e-08
1.17380815022e-08
4.31124863142e-08
5.28003302285e-08
2.26147130529e-08
6.76711854032e-08
2.60122075167e-08
5.70301573208e-08
1.49608501346e-08
1.87671013135e-08
1.58976449624e-08
3.49650473199e-08
1.43671150587e-09
9.83893222715e-09
1.69503567539e-08
9.76648338552e-09
7.87452951392e-09
8.22785628696e-09
6.98310125469e-08
4.35614611955e-08
1.04209166209e-08
2.72856591681e-08
1.35704370555e-08
1.63142826424e-08
8.79003081003e-08
4.85548639084e-08
8.36506697417e-08
7.08102091723e-08
1.42216601927e-08
6.85397705053e-08
1.2884543687e-08
9.77803063445e-08
1.05141441072e-08
2.27617063893e-08
3.62580393731e-08
3.63653788261e-08
7.84420935818e-08
1.00904660685e-07
1.59563605468e-08
5.92041821514e-09
2.19270272111e-09
3.0487155022e-08
5.23368318566e-09
3.15977948479e-08
2.16138616065e-08
1.08919778029e-08
2.01900731445e-08
7.6497758769e-08
1.41069941366e-07
1.41798283929e-07
1.0767410198e-07
8.64775756412e-09
1.00534534428e-07
1.04289356659e-07
2.01891117631e-08
1.07587078765e-07
1.17828639561e-07
6.45400818828e-08
3.53025293029e-09
1.58707401043e-08
1.30232803772e-07
5.30013207817e-08
2.09624960253e-08
1.0837447452e-07
9.36496364859e-08
1.73769177548e-08
7.68421662376e-08
1.74414677873e-08
4.18325194155e-08
6.23639254892e-08
4.27779430447e-08
2.32186276747e-08
5.64035950813e-08
9.84832255435e-09
8.68706907526e-08
8.21091076078e-09
2.88007556137e-08
8.50779314691e-08
2.40661055434e-09
2.81212487442e-09
4.84930934717e-09
3.32638101442e-08
3.1295376483e-08
8.01748567367e-09
4.59460272321e-08
3.95876562697e-09
2.84829913895e-08
2.19858715442e-08
5.77140860292e-08
6.27807027026e-08
2.00627508878e-08
9.86422975194e-08
3.88783881232e-08
2.96578664629e-08
3.54368516529e-09
6.25010648062e-08
9.38777243973e-08
5.54333044876e-08
4.77930285686e-08
2.89082905854e-09
3.22226912309e-08
4.03330962416e-09
7.64855367794e-08
6.83620771843e-08
2.253091601e-08
5.5666666281e-08
5.51371420499e-08
2.94944987271e-08
7.25797129794e-08
1.26667532325e-09
2.27769041307e-08
9.89709230385e-08
3.77380157595e-08
4.14306547185e-08
4.79201346099e-08
3.83746079774e-08
2.21880635353e-08
1.51970563625e-08
6.71267639286e-08
4.8561162213e-08
3.40247293502e-08
1.23153233671e-08
4.1983745896e-08
2.57726155458e-08
1.5396648956e-08
1.50084767556e-08
2.94673422417e-08
6.33754196592e-08
3.61107417456e-08
8.96841014685e-08
3.36064327373e-08
7.32003282667e-08
3.72686308154e-08
2.15784376995e-08
1.55163585713e-08
5.52584343968e-09
4.86626820673e-08
4.00347699479e-08
3.88336892232e-08
1.23750421655e-08
3.55210962123e-08
3.17996523973e-08
2.55824170154e-08
8.54131936281e-09
1.42348458448e-08
9.02117534635e-08
3.31886613252e-08
1.49518265607e-08
9.46490726823e-08
2.41086911263e-08
2.82232233774e-08
4.2930923773e-08
1.80841725383e-08
3.04945284025e-08
2.84546847265e-08
9.72746741099e-09
9.19169226904e-09
1.20874239349e-08
3.2167896904e-08
2.45212860562e-08
5.77201329027e-08
1.2258175578e-08
8.47032812339e-08
1.13245389726e-08
6.71430477689e-08
2.21015863884e-08
5.27837175331e-09
4.51646607781e-08
5.56757596304e-08
4.33313035375e-08
3.59163738249e-08
5.29513584503e-08
4.39972863814e-08
5.68475898812e-09
2.15293469893e-08
2.32599903895e-08
4.95398452152e-09
2.50266053197e-08
1.61680969237e-08
6.26285449166e-09
2.54968806631e-08
3.62898383641e-08
2.48427248889e-09
5.54953742976e-08
6.08369717574e-09
5.51817473547e-08
4.82099271903e-08
7.45207209329e-08
4.0582072205e-08
2.59643703584e-08
6.99355955302e-08
1.87707638346e-08
7.1477642838e-08
5.7306623223e-08
1.36068206005e-08
2.6003736834e-09
3.88308651308e-08
2.40072699917e-08
1.08968244293e-07
6.46132081166e-08
3.98288747725e-09
9.35648201936e-08
6.44481975784e-09
1.0345162081e-08
2.64325195767e-08
2.0418041339e-08
8.89526072677e-09
7.73408816041e-09
7.2936574033e-08
3.48769413958e-08
2.03148096007e-08
2.09430320584e-08
7.29157254254e-08
1.08959457802e-08
6.78159836564e-08
5.02392114391e-08
1.43923134087e-08
9.79376497297e-09
4.24115069484e-08
7.09412581058e-09
9.64473947747e-10
3.15716432565e-08
1.86288377235e-08
3.235839392e-08
4.08877270821e-08
1.80528589849e-09
9.76612143002e-09
4.86503576924e-08
5.2997450452e-08
1.05907408614e-08
3.06349839711e-08
3.59568866214e-08
4.58598293429e-08
1.37325151034e-08
8.30542498614e-08
1.68079101186e-08
4.33633178707e-08
8.14942157327e-08
1.86072298249e-08
1.34213335399e-09
3.08284935465e-08
1.86060056261e-08
1.73313165526e-08
2.40707213936e-08
2.3257217702e-08
1.68824639848e-08
2.29805630229e-08
9.27134142616e-08
2.34837302572e-08
2.46347955152e-08
1.15069321935e-07
1.77463656076e-08
1.85360641665e-08
9.66932578744e-08
5.86276414979e-08
5.91573121136e-08
3.72643486309e-09
1.39492867618e-07
7.83209726775e-08
4.49467123906e-08
1.36822396684e-08
5.79937033919e-09
1.36697713756e-08
2.7238476986e-08
2.8216990083e-08
3.05926216634e-08
8.38114518637e-09
7.8510339495e-08
3.11057507875e-08
3.8868977626e-09
9.0099342721e-09
9.15298415439e-08
2.68714032596e-08
1.27737278689e-08
6.16239775128e-08
5.71899737051e-08
3.58527817756e-08
1.99899312656e-08
6.98651626781e-10
1.93381911823e-08
5.91061869578e-09
6.39008823128e-08
4.87145883178e-08
1.20039013993e-08
2.82150692092e-08
1.66708892119e-08
6.32614655594e-08
3.648368536e-09
1.91985527621e-08
6.5133337511e-08
1.69137132147e-08
2.62436928359e-08
2.34253842376e-08
1.24227549873e-08
6.28541155468e-08
4.27486815778e-08
8.38102640559e-08
8.11731347005e-09
2.86070213015e-08
1.60593112849e-08
2.98300143757e-08
9.31759154627e-08
2.05304690617e-09
2.5831145461e-08
3.08479968751e-08
2.05854913805e-08
2.57909536041e-08
5.48417984851e-08
9.20852987419e-08
6.59031904853e-08
6.01217013494e-08
2.6991657145e-08
3.78390755365e-09
6.89592922614e-09
6.02496891331e-08
6.95748857404e-09
1.3544372698e-07
9.99475621445e-08
5.01607904988e-08
5.89673558265e-08
1.96279399007e-08
6.54234387185e-08
5.85970207896e-08
1.14654626525e-08
8.70601286745e-09
6.61837789604e-09
4.48186739519e-08
3.29421278142e-08
4.70225167054e-08
3.87240170825e-09
1.75522619875e-08
3.38927577409e-08
3.38616741616e-08
5.98617955117e-08
1.34042316585e-08
2.68573796093e-08
5.75114465351e-09
9.07660498477e-09
9.51456625313e-08
5.74584701313e-08
8.49415631101e-08
2.07887906975e-08
5.19421815296e-08
3.51734615593e-08
6.98631433573e-08
4.38408609323e-08
8.58441487244e-10
4.15275836735e-08
7.87711102571e-08
3.55115483508e-09
9.09832750387e-08
5.82777843053e-09
6.88407942858e-08
7.85402820988e-09
5.2524132969e-08
2.99747994701e-09
8.75290819586e-08
4.98524926236e-08
5.73750849375e-08
7.82510735975e-08
7.16952695741e-09
2.47193305978e-08
1.70756733925e-08
4.90223089377e-09
8.31372084164e-08
6.23321896782e-08
1.7079762508e-08
3.5498235013e-08
6.15806459642e-08
3.64680762581e-08
2.73694108155e-08
8.86051042051e-08
3.65990356512e-08
1.20337071953e-08
1.01680911104e-08
2.41796367833e-08
3.53241393353e-08
1.5599720699e-07
2.15781340591e-08
4.81449115722e-08
6.33564558112e-08
5.71438310385e-08
1.19142680237e-07
3.88446865395e-08
7.11742328189e-08
2.59150174865e-08
1.34738213567e-08
5.61883822059e-08
4.65975627645e-08
5.71022026096e-08
1.09243232606e-08
5.69486816569e-08
8.52008395295e-08
3.52032852461e-09
1.58179390558e-08
3.23379451278e-08
7.54164060494e-09
2.03433356777e-08
5.4158315947e-08
9.761565068e-08
2.57589558256e-08
1.08525706996e-07
2.25573700071e-08
5.62322202136e-08
5.73889940978e-08
5.41437140941e-09
6.17549062673e-09
8.0017308544e-09
2.73268850831e-08
2.6426432772e-08
3.45537155001e-08
2.64340744355e-08
2.19034202007e-08
7.36799191669e-09
1.86800251436e-08
2.96773067974e-08
2.23863698557e-08
2.16453770833e-08
2.92234464645e-08
4.16740759904e-08
4.18223949331e-08
2.68292730341e-08
6.92116180764e-08
1.79344718657e-08
2.37195122032e-08
1.25277044444e-07
4.64924087059e-08
2.97271714535e-08
5.05621501787e-08
5.26544098393e-08
2.36215846639e-08
4.30758616388e-08
7.27322419404e-08
2.32827152438e-08
6.18029970973e-08
7.16962272785e-09
6.06666829534e-08
7.00368531741e-08
3.99284852705e-08
6.02934870892e-08
3.8178451472e-08
1.25909382076e-08
2.16560582832e-08
8.49054126233e-09
1.44019684489e-08
7.8499932463e-08
5.32996224243e-08
4.20051978939e-08
1.22506431782e-08
2.81455586386e-08
3.96257630831e-08
3.45947165419e-08
3.48523303245e-08
5.43742440106e-09
9.73091829595e-09
1.37154267903e-08
7.46444969993e-09
2.81339654748e-08
1.27079486921e-08
7.01372898893e-08
4.8138406594e-08
3.67627835625e-08
6.27833989137e-09
9.91247099322e-08
3.14312217248e-08
2.11227586674e-08
4.28190742915e-08
2.24452442641e-08
5.02335817755e-08
8.98996045777e-09
9.03786189013e-08
8.39667544804e-09
1.60622727158e-08
2.8571465755e-08
6.97022460626e-09
2.23458999077e-08
6.3877328252e-08
2.17824895427e-08
8.19829026636e-09
1.20563569295e-08
8.01248683318e-08
7.02557382511e-09
2.44331461875e-08
3.15738857124e-09
6.6345109657e-08
2.81074308964e-08
1.63437169029e-08
2.00475303823e-08
1.77081779058e-08
8.62316509457e-09
8.84720914179e-08
3.06829420468e-08
2.05148982485e-08
2.61491893973e-08
3.01696500077e-08
4.15148002905e-08
8.99585579521e-09
3.27818104026e-08
4.68079498137e-09
4.71980536217e-08
2.72626349437e-08
4.89811815876e-08
1.23573489708e-08
3.22473334349e-09
4.78157542977e-08
2.38979618489e-08
6.88720236634e-08
4.34594834453e-09
6.32245061486e-08
1.02182132694e-08
8.32885449144e-08
2.77931648329e-08
2.58289856818e-09
1.83233122837e-08
7.65248272595e-08
2.35748121405e-08
2.98941904997e-08
6.42474312528e-08
6.52392441906e-08
2.17850731169e-08
4.2556099593e-09
3.01725570894e-08
1.030201344e-07
1.76661413923e-08
6.55280180843e-08
2.63187941345e-08
3.08713994497e-08
4.91429750531e-08
5.3811612464e-08
3.01852103112e-08
1.24486680816e-08
6.49659020628e-08
8.92465015181e-08
4.46557855561e-09
2.30161730881e-08
3.81666725464e-09
2.70643892966e-08
1.96277506794e-08
1.32280248493e-09
4.48028595965e-08
4.32939073e-09
3.92637742323e-08
2.22931833711e-08
1.87540978547e-08
1.14940275049e-08
2.4487771949e-08
3.62581613047e-09
1.34115498812e-08
1.27769653778e-07
3.17779034974e-08
1.34903873224e-08
7.0657739717e-08
1.48097015646e-08
3.46557426389e-08
3.92396556337e-08
9.38001817516e-09
3.41910843562e-08
7.09377564951e-08
4.55652360856e-08
2.25698423886e-08
9.85101214108e-08
3.37068788452e-08
6.42594329966e-08
4.22633654489e-08
8.30273826604e-08
2.42405552589e-09
5.54946069541e-08
3.88465780004e-08
5.34532390149e-09
1.86663751601e-08
3.8693423882e-08
4.10129241227e-08
2.72709390459e-08
3.1264573478e-08
9.26828693002e-09
1.51869714155e-08
2.7373920346e-08
7.7655523784e-08
3.92834357181e-08
5.64983644145e-09
1.65514145792e-08
1.84481187833e-08
5.49929563653e-08
1.01623961504e-08
1.56628768604e-09
6.35704984779e-08
1.07223331167e-08
2.45201894467e-08
3.93070125943e-09
8.33621154777e-09
5.21225031996e-08
6.56124010145e-08
8.22048334996e-08
2.86858694731e-08
5.53301692637e-08
4.40035949965e-08
4.40780833373e-08
4.67417018549e-08
1.73241927042e-08
6.32635722085e-08
4.38680487649e-08
9.47614690954e-09
7.99890828778e-08
1.46112201674e-08
1.24710007461e-08
2.80180373336e-08
2.35691607515e-08
2.68833081442e-09
1.15190818806e-08
6.60958423054e-08
1.64377940211e-08
1.46427558933e-08
4.61672822058e-08
3.14056154705e-08
3.11318869351e-08
4.58169977413e-08
5.64922095436e-08
4.85806343184e-08
3.52260121427e-08
9.41368439156e-09
7.38088898526e-10
2.09639345139e-09
1.56946360265e-08
9.46501783763e-08
6.5368147153e-08
1.0226664898e-07
5.53480670842e-08
6.17881797336e-08
5.08936576794e-10
4.80396199969e-09
1.28894213915e-08
7.64674760455e-09
2.68270920345e-08
1.90902475366e-08
5.60967483147e-08
1.43598555065e-08
8.14329919215e-08
2.14495609214e-08
7.44587532183e-09
1.42953536236e-08
4.29732878217e-08
2.23944392575e-08
3.51990749926e-08
2.82027910412e-08
1.25782252164e-08
4.93784487366e-08
5.7736870688e-09
4.32404357772e-08
4.41412347389e-08
3.26569998551e-08
3.47537250594e-08
1.7748006983e-08
3.89925203501e-08
1.88200006275e-08
1.01992204746e-08
9.00135696913e-09
3.2000417547e-08
1.04244451556e-08
5.61203242229e-08
3.85175777455e-08
5.12472951684e-09
4.52014036344e-08
1.83749001243e-08
2.52175619314e-08
6.11543522512e-08
2.62288115407e-08
7.94676529708e-08
9.7883722218e-09
9.73059566716e-09
1.14877492214e-08
1.34008881199e-08
3.98213414543e-08
4.06237096564e-08
6.974938035e-08
1.4926018215e-08
4.77988795406e-08
1.10388374704e-07
6.74536954794e-08
6.58014870547e-08
4.47476750471e-08
2.68293257657e-08
3.00618181436e-08
9.1206788136e-09
1.35732401201e-07
3.4115511388e-08
5.37037808443e-08
3.68427939509e-08
3.36410296236e-08
8.51646318048e-08
2.41224513704e-08
4.68894740837e-08
1.55210762994e-09
3.7952042162e-08
2.21400788238e-08
6.79941804146e-08
4.24674886392e-08
3.68723084995e-08
5.62772419587e-08
4.94129718253e-08
9.92735726461e-09
3.48591810535e-09
7.75378205135e-08
3.77450086682e-08
9.08403530674e-08
7.00636989956e-08
2.37631985542e-08
5.0354417457e-08
5.64121328094e-08
7.8079554641e-08
2.26330358639e-08
2.67607406113e-08
3.36751048266e-08
9.04420150818e-08
2.2881074462e-09
4.96484906059e-08
4.0823007518e-08
5.09493739999e-08
1.78989528672e-08
7.1934346286e-08
3.08372425583e-08
3.89308454893e-08
5.15350676008e-09
6.7972003511e-08
4.20325090429e-08
2.26650114326e-08
9.64053434964e-10
4.44545414211e-08
4.12515392411e-09
1.31775225927e-09
4.45230323213e-08
4.31716359986e-08
6.68228211019e-08
8.09138667487e-08
9.35505630852e-08
6.80023948599e-08
1.4755815738e-07
8.44739047766e-08
5.2479522223e-08
4.49974581591e-08
1.7568387194e-08
2.43220225087e-08
2.06645769789e-08
3.64739894416e-08
2.87819831741e-08
7.62773258651e-09
3.1496635903e-08
3.33293361895e-08
3.34667102194e-08
8.34240168275e-08
1.05705540602e-08
1.12205015341e-08
6.97457725839e-08
3.2350428577e-08
1.87266463223e-08
5.53339182579e-08
2.1723376713e-08
2.03722094676e-08
2.55979982316e-08
3.42092790038e-08
1.04507178853e-08
2.95823851682e-08
3.17498674755e-08
1.15293767364e-08
1.85879306741e-08
2.81693949345e-08
8.00880442074e-08
1.12836167004e-07
1.25546173782e-08
5.81464269261e-08
1.48717158058e-08
1.95998311808e-08
2.23613740369e-08
1.80752616299e-08
9.57840683755e-08
3.91804249737e-08
3.95471803768e-08
4.1435660753e-08
6.67965102615e-08
7.69131120436e-08
1.45826504528e-08
2.11539266547e-08
1.12007718547e-08
1.74727934624e-09
6.484901207e-10
4.49812887524e-08
1.03022659836e-08
4.3333967847e-08
3.37714470435e-08
1.32830392957e-07
9.30558983486e-08
5.12284777145e-08
4.73265853342e-08
7.94208428582e-09
2.04093196968e-08
1.3935295206e-08
6.27841818704e-08
2.10984625481e-08
1.60295421637e-08
1.45015578008e-08
7.83117454031e-08
3.25744180795e-08
5.52333922049e-09
1.20045640546e-08
7.30186668797e-09
7.66156880457e-08
1.40138110004e-08
1.6842758954e-08
1.47018762536e-09
2.22929296868e-08
3.82594500175e-08
3.56413850336e-08
4.56114942501e-08
5.08066987283e-08
6.13607320878e-09
2.02690097967e-08
2.28738311988e-08
9.65648904679e-08
6.32208281108e-08
7.49580013017e-08
1.50386657371e-08
1.03389103767e-07
4.3106158594e-09
6.55207719081e-08
8.49369781395e-08
1.17643894015e-08
1.83599007862e-08
6.75032297508e-08
8.01075456454e-08
3.42274320639e-08
5.40164049367e-08
3.40880353522e-09
4.25903159008e-08
5.11042305358e-09
7.06156597209e-08
3.71379917789e-09
4.98716215557e-08
4.00269787689e-08
2.24357122646e-08
2.53567267187e-08
1.06801673791e-08
1.35583631642e-08
8.26721049715e-09
1.20987064455e-08
4.82915807287e-08
2.98345634275e-08
4.0459719423e-09
7.24287216092e-08
5.87860013363e-08
9.17941339461e-09
7.28287779804e-08
2.4747750935e-08
5.91070580393e-08
2.90245811021e-10
1.1591485704e-07
1.599645009e-08
7.43575113318e-08
4.48258675399e-08
5.78382398537e-08
1.4427535486e-08
1.21773410118e-09
6.66762560049e-08
1.75723738101e-08
9.14188629286e-08
8.04117583037e-08
5.29246547165e-08
4.00369439361e-08
3.33188558122e-08
6.47831776553e-09
2.47156624317e-08
3.36214643489e-08
3.87342338605e-08
3.11110254042e-08
3.65883639412e-08
3.5954232855e-08
1.15589177906e-08
4.86292976349e-08
4.49992284267e-08
3.09044686389e-09
2.60960911792e-08
1.3464940636e-09
5.55735492058e-08
2.6021238673e-08
1.39935480235e-08
1.7112684927e-08
7.88933944003e-09
1.67173095681e-08
3.85550583521e-08
7.44301488374e-08
2.74090055914e-09
4.01598986871e-08
1.83855914532e-08
4.19225387188e-08