# vtk DataFile Version 3.0
File Name: Molecule/methanol/methanol_13.5-0.vtk
ASCII
DATASET UNSTRUCTURED_GRID
FIELD FieldData 1
TIME 1 1 double
0.0
POINTS 658 double
1.611 0.0 -0.359
1.585 -0.292 -0.356
1.475 0.0 -0.634
1.451 -0.274 -0.632
1.403 0.0 -0.933
1.38 -0.266 -0.93
1.51 -0.576 -0.349
1.38 -0.539 -0.625
1.311 -0.525 -0.924
1.386 -0.842 -0.336
1.265 -0.788 -0.613
1.198 -0.767 -0.912
1.219 -1.083 -0.32
1.108 -1.014 -0.598
1.046 -0.986 -0.897
1.012 -1.29 -0.299
0.915 -1.208 -0.579
0.857 -1.175 -0.878
0.773 -1.459 -0.275
0.691 -1.366 -0.556
0.639 -1.329 -0.857
0.508 -1.583 -0.249
0.443 -1.482 -0.532
0.398 -1.442 -0.833
0.226 -1.659 -0.221
0.179 -1.553 -0.505
0.141 -1.511 -0.807
-0.065 -1.684 -0.192
-0.094 -1.577 -0.478
-0.124 -1.534 -0.781
-0.356 -1.659 -0.163
-0.366 -1.553 -0.451
-0.389 -1.511 -0.754
-0.639 -1.583 -0.135
-0.631 -1.482 -0.425
-0.646 -1.442 -0.729
-0.903 -1.459 -0.108
-0.878 -1.366 -0.4
-0.887 -1.329 -0.705
-1.143 -1.29 -0.085
-1.102 -1.208 -0.378
-1.105 -1.175 -0.683
-1.349 -1.083 -0.064
-1.296 -1.014 -0.358
-1.294 -0.986 -0.664
-1.517 -0.842 -0.047
-1.453 -0.788 -0.343
-1.446 -0.767 -0.649
-1.64 -0.576 -0.035
-1.568 -0.539 -0.331
-1.559 -0.525 -0.638
-1.716 -0.292 -0.028
-1.639 -0.274 -0.324
-1.628 -0.266 -0.631
-1.742 -0.0 -0.025
-1.663 -0.0 -0.322
-1.651 -0.0 -0.629
-1.716 0.292 -0.028
-1.639 0.274 -0.324
-1.628 0.266 -0.631
-1.64 0.576 -0.035
-1.568 0.539 -0.331
-1.559 0.525 -0.638
-1.517 0.842 -0.047
-1.453 0.788 -0.343
-1.446 0.767 -0.649
-1.349 1.083 -0.064
-1.296 1.014 -0.358
-1.294 0.986 -0.664
-1.143 1.29 -0.085
-1.102 1.208 -0.378
-1.105 1.175 -0.683
-0.903 1.459 -0.108
-0.878 1.366 -0.4
-0.887 1.329 -0.705
-0.639 1.583 -0.135
-0.631 1.482 -0.425
-0.646 1.442 -0.729
-0.356 1.659 -0.163
-0.366 1.553 -0.451
-0.389 1.511 -0.754
-0.065 1.684 -0.192
-0.094 1.577 -0.478
-0.124 1.534 -0.781
0.226 1.659 -0.221
0.179 1.553 -0.505
0.141 1.511 -0.807
0.508 1.583 -0.249
0.443 1.482 -0.532
0.398 1.442 -0.833
0.773 1.459 -0.275
0.691 1.366 -0.556
0.639 1.329 -0.857
1.012 1.29 -0.299
0.915 1.208 -0.579
0.857 1.175 -0.878
1.219 1.083 -0.32
1.108 1.014 -0.598
1.046 0.986 -0.897
1.386 0.842 -0.336
1.265 0.788 -0.613
1.198 0.767 -0.912
1.51 0.576 -0.349
1.38 0.539 -0.625
1.311 0.525 -0.924
1.585 0.292 -0.356
1.451 0.274 -0.632
1.38 0.266 -0.93
1.907 0.0 0.656
1.885 0.281 0.656
1.885 0.141 0.899
1.885 -0.141 0.899
1.885 -0.281 0.656
1.885 -0.141 0.412
1.885 0.141 0.412
1.823 0.482 0.934
1.823 0.278 1.137
1.823 -0.0 1.212
1.823 -0.278 1.137
1.823 -0.482 0.934
1.823 -0.556 0.656
1.823 -0.482 0.377
1.823 -0.278 0.174
1.823 -0.0 0.099
1.823 0.278 0.174
1.823 0.482 0.377
1.823 0.556 0.656
1.72 0.77 0.936
1.72 0.627 1.182
1.72 0.409 1.365
1.72 0.142 1.462
1.72 -0.142 1.462
1.72 -0.409 1.365
1.72 -0.627 1.182
1.72 -0.77 0.936
1.72 -0.819 0.656
1.72 -0.77 0.376
1.72 -0.627 0.129
1.72 -0.409 -0.054
1.72 -0.142 -0.151
1.72 0.142 -0.151
1.72 0.409 -0.054
1.72 0.627 0.129
1.72 0.77 0.376
1.72 0.819 0.656
1.579 1.027 0.931
1.579 0.921 1.187
1.579 0.752 1.407
1.579 0.532 1.576
1.579 0.275 1.683
1.579 0.0 1.719
1.579 -0.275 1.683
1.579 -0.532 1.576
1.579 -0.752 1.407
1.579 -0.921 1.187
1.579 -1.027 0.931
1.579 -1.063 0.656
1.579 -1.027 0.38
1.579 -0.921 0.124
1.579 -0.752 -0.096
1.579 0.752 -0.096
1.579 0.921 0.124
1.579 1.027 0.38
1.579 1.063 0.656
1.403 1.254 0.932
1.403 1.165 1.195
1.403 1.022 1.433
1.403 0.831 1.634
1.403 0.601 1.79
1.403 0.343 1.893
1.403 0.07 1.938
1.403 -0.208 1.923
1.403 -0.475 1.848
1.403 -0.72 1.718
1.403 -0.932 1.538
1.403 -1.1 1.317
1.403 -1.217 1.066
1.403 -1.276 0.794
1.403 -1.276 0.517
1.403 -1.217 0.246
1.403 -1.1 -0.006
1.403 1.022 -0.121
1.403 1.165 0.117
1.403 1.254 0.38
1.403 1.284 0.656
1.196 1.449 0.935
1.196 1.37 1.204
1.196 1.241 1.453
1.196 1.068 1.674
1.196 0.856 1.858
1.196 0.613 1.998
1.196 0.348 2.09
1.196 0.07 2.13
1.196 -0.21 2.116
1.196 -0.483 2.05
1.196 -0.738 1.934
1.196 -0.966 1.771
1.196 -1.16 1.568
1.196 -1.312 1.332
1.196 -1.416 1.071
1.196 -1.469 0.796
1.196 -1.469 0.515
1.196 -1.416 0.24
1.196 -1.312 -0.021
1.196 1.241 -0.142
1.196 1.37 0.107
1.196 1.449 0.376
1.196 1.476 0.656
0.963 1.611 0.932
0.963 1.541 1.2
0.963 1.427 1.453
0.963 1.272 1.683
0.963 1.08 1.883
0.963 0.857 2.048
0.963 0.609 2.172
0.963 0.344 2.254
0.963 0.069 2.289
0.963 -0.208 2.277
0.963 -0.479 2.219
0.963 -0.736 2.115
0.963 -0.972 1.97
0.963 -1.18 1.787
0.963 -1.354 1.571
0.963 -1.49 1.329
0.963 -1.582 1.067
0.963 -1.629 0.794
0.963 -1.629 0.517
0.963 -1.582 0.244
0.963 -1.49 -0.018
0.963 1.427 -0.142
0.963 1.541 0.111
0.963 1.611 0.379
0.963 1.635 0.656
0.709 1.735 0.93
0.709 1.671 1.199
0.709 1.566 1.453
0.709 1.421 1.688
0.709 1.242 1.898
0.709 1.033 2.077
0.709 0.798 2.221
0.709 0.543 2.327
0.709 0.275 2.391
0.709 -0.0 2.413
0.709 -0.275 2.391
0.709 -0.543 2.327
0.709 -0.798 2.221
0.709 -1.033 2.077
0.709 -1.242 1.898
0.709 -1.421 1.688
0.709 -1.566 1.453
0.709 -1.671 1.199
0.709 -1.735 0.93
0.709 -1.757 0.656
0.709 -1.735 0.381
0.709 -1.671 0.113
0.709 1.671 0.113
0.709 1.735 0.381
0.709 1.757 0.656
0.439 1.819 0.937
0.439 1.754 1.211
0.439 1.649 1.472
0.439 1.505 1.714
0.439 1.326 1.932
0.439 1.116 2.119
0.439 0.879 2.272
0.439 0.622 2.387
0.439 0.35 2.462
0.439 0.07 2.494
0.439 -0.211 2.484
0.439 -0.488 2.43
0.439 -0.753 2.335
0.439 -1.0 2.2
0.439 -1.224 2.029
0.439 -1.42 1.826
0.439 -1.582 1.596
0.439 -1.707 1.343
0.439 -1.792 1.075
0.439 -1.835 0.796
0.439 -1.835 0.515
0.439 -1.792 0.236
0.439 -1.707 -0.032
0.439 1.754 0.1
0.439 1.819 0.375
0.439 1.84 0.656
0.16 1.861 0.936
0.16 1.799 1.21
0.16 1.696 1.472
0.16 1.555 1.716
0.16 1.38 1.936
0.16 1.174 2.127
0.16 0.941 2.286
0.16 0.688 2.408
0.16 0.419 2.491
0.16 0.141 2.533
0.16 -0.141 2.533
0.16 -0.419 2.491
0.16 -0.688 2.408
0.16 -0.941 2.286
0.16 -1.174 2.127
0.16 -1.38 1.936
0.16 -1.555 1.716
0.16 -1.696 1.472
0.16 -1.799 1.21
0.16 -1.861 0.936
0.16 -1.882 0.656
0.16 -1.861 0.375
0.16 -1.799 0.101
0.16 1.799 0.101
0.16 1.861 0.375
0.16 1.882 0.656
-0.122 1.861 0.936
-0.122 1.799 1.21
-0.122 1.696 1.472
-0.122 1.555 1.716
-0.122 1.38 1.936
-0.122 1.174 2.127
-0.122 0.941 2.286
-0.122 0.688 2.408
-0.122 0.419 2.491
-0.122 0.141 2.533
-0.122 -0.141 2.533
-0.122 -0.419 2.491
-0.122 -0.688 2.408
-0.122 -0.941 2.286
-0.122 -1.174 2.127
-0.122 -1.38 1.936
-0.122 -1.555 1.716
-0.122 -1.696 1.472
-0.122 -1.799 1.21
-0.122 -1.861 0.936
-0.122 -1.882 0.656
-0.122 -1.861 0.375
-0.122 -1.799 0.101
-0.122 1.799 0.101
-0.122 1.861 0.375
-0.122 1.882 0.656
-0.401 1.84 0.656
-0.401 1.819 0.937
-0.401 1.754 1.211
-0.401 1.649 1.472
-0.401 1.505 1.714
-0.401 1.326 1.932
-0.401 1.116 2.119
-0.401 0.879 2.272
-0.401 0.622 2.387
-0.401 0.35 2.462
-0.401 0.07 2.494
-0.401 -0.211 2.484
-0.401 -0.488 2.43
-0.401 -0.753 2.335
-0.401 -1.0 2.2
-0.401 -1.224 2.029
-0.401 -1.42 1.826
-0.401 -1.582 1.596
-0.401 -1.707 1.343
-0.401 -1.792 1.075
-0.401 -1.835 0.796
-0.401 -1.835 0.515
-0.401 -1.792 0.236
-0.401 1.754 0.1
-0.401 1.819 0.375
-0.671 1.757 0.656
-0.671 1.735 0.93
-0.671 1.671 1.199
-0.671 1.566 1.453
-0.671 1.421 1.688
-0.671 1.242 1.898
-0.671 1.033 2.077
-0.671 0.798 2.221
-0.671 0.543 2.327
-0.671 0.275 2.391
-0.671 -0.0 2.413
-0.671 -0.275 2.391
-0.671 -0.543 2.327
-0.671 -0.798 2.221
-0.671 -1.033 2.077
-0.671 -1.242 1.898
-0.671 -1.421 1.688
-0.671 -1.566 1.453
-0.671 -1.671 1.199
-0.671 -1.735 0.93
-0.671 -1.757 0.656
-0.671 -1.735 0.381
-0.671 -1.671 0.113
-0.671 1.671 0.113
-0.671 1.735 0.381
-0.925 1.635 0.656
-0.925 1.611 0.932
-0.925 1.541 1.2
-0.925 1.427 1.453
-0.925 1.272 1.683
-0.925 1.08 1.883
-0.925 0.857 2.048
-0.925 0.609 2.172
-0.925 0.344 2.254
-0.925 0.069 2.289
-0.925 -0.208 2.277
-0.925 -0.479 2.219
-0.925 -0.736 2.115
-0.925 -0.972 1.97
-0.925 -1.18 1.787
-0.925 -1.354 1.571
-0.925 -1.49 1.329
-0.925 -1.582 1.067
-0.925 -1.629 0.794
-0.925 -1.629 0.517
-0.925 -1.582 0.244
-0.925 1.541 0.111
-0.925 1.611 0.379
-1.158 1.476 0.656
-1.158 1.449 0.935
-1.158 1.37 1.204
-1.158 1.241 1.453
-1.158 1.068 1.674
-1.158 0.856 1.858
-1.158 0.613 1.998
-1.158 0.348 2.09
-1.158 0.07 2.13
-1.158 -0.21 2.116
-1.158 -0.483 2.05
-1.158 -0.738 1.934
-1.158 -0.966 1.771
-1.158 -1.16 1.568
-1.158 -1.312 1.332
-1.158 -1.416 1.071
-1.158 -1.469 0.796
-1.158 -1.469 0.515
-1.158 -1.416 0.24
-1.158 1.37 0.107
-1.158 1.449 0.376
-1.365 1.284 0.656
-1.365 1.254 0.932
-1.365 1.165 1.195
-1.365 1.022 1.433
-1.365 0.831 1.634
-1.365 0.601 1.79
-1.365 0.343 1.893
-1.365 0.07 1.938
-1.365 -0.208 1.923
-1.365 -0.475 1.848
-1.365 -0.72 1.718
-1.365 -0.932 1.538
-1.365 -1.1 1.317
-1.365 -1.217 1.066
-1.365 -1.276 0.794
-1.365 -1.276 0.517
-1.365 -1.217 0.246
-1.365 1.165 0.117
-1.365 1.254 0.38
-1.541 1.063 0.656
-1.541 1.027 0.931
-1.541 0.921 1.187
-1.541 0.752 1.407
-1.541 0.532 1.576
-1.541 0.275 1.683
-1.541 0.0 1.719
-1.541 -0.275 1.683
-1.541 -0.532 1.576
-1.541 -0.752 1.407
-1.541 -0.921 1.187
-1.541 -1.027 0.931
-1.541 -1.063 0.656
-1.541 -1.027 0.38
-1.541 -0.921 0.124
-1.541 0.921 0.124
-1.541 1.027 0.38
-1.682 0.819 0.656
-1.682 0.77 0.936
-1.682 0.627 1.182
-1.682 0.409 1.365
-1.682 0.142 1.462
-1.682 -0.142 1.462
-1.682 -0.409 1.365
-1.682 -0.627 1.182
-1.682 -0.77 0.936
-1.682 -0.819 0.656
-1.682 -0.77 0.376
-1.682 -0.627 0.129
-1.682 0.627 0.129
-1.682 0.77 0.375
-1.785 0.556 0.656
-1.785 0.482 0.934
-1.785 0.278 1.137
-1.785 -0.0 1.212
-1.785 -0.278 1.137
-1.785 -0.482 0.934
-1.785 -0.556 0.656
-1.785 -0.482 0.377
-1.785 -0.278 0.174
-1.785 0.278 0.174
-1.785 0.482 0.377
-1.847 0.281 0.656
-1.847 0.141 0.899
-1.847 -0.141 0.899
-1.847 -0.281 0.656
-1.847 -0.141 0.412
-1.847 0.141 0.412
-1.868 0.0 0.656
1.312 -0.277 -1.217
1.185 -0.619 -1.257
1.185 -0.404 -1.437
1.185 -0.14 -1.533
1.312 -0.0 -1.292
1.185 0.14 -1.533
1.312 0.277 -1.217
1.185 0.404 -1.437
1.185 0.619 -1.257
1.015 -0.949 -1.149
1.015 -0.802 -1.39
1.015 -0.596 -1.582
1.015 -0.346 -1.712
1.015 -0.071 -1.769
1.015 0.21 -1.75
1.015 0.476 -1.655
1.015 0.706 -1.493
1.015 0.884 -1.275
0.805 -1.151 -1.156
0.805 -1.023 -1.41
0.805 -0.841 -1.628
0.805 -0.612 -1.798
0.805 -0.351 -1.911
[...]
CELL_DATA 1312
SCALARS cell_data_0 double
LOOKUP_TABLE default
1.36283406353e-09
2.6856272451e-09
1.89371760524e-09
1.35963692108e-10
1.62915205918e-09
1.28810464585e-09
3.30297098496e-10
4.99304215624e-10
1.46511920144e-10
3.10777702948e-10
7.13390748601e-10
1.65841497811e-10
7.93685172848e-11
8.48297905581e-11
9.44175314413e-11
7.62769205226e-11
2.75068665496e-11
3.31274848947e-11
1.48163121829e-10
9.26713963839e-11
4.80044637808e-12
1.06266193269e-11
2.51357023129e-11
9.8866793631e-12
7.16212770526e-12
6.01205801154e-12
1.31364558914e-11
3.05667218391e-11
2.75544461565e-11
1.85563244496e-11
1.69622442655e-11
6.97228245594e-11
3.18350006428e-11
1.37390862107e-11
8.45136835188e-11
5.853811967e-11
2.4826809975e-11
2.29091257498e-11
1.56589777916e-11
5.120972939e-11
9.44767134243e-11
1.07584103109e-10
3.35882235018e-11
1.57326277923e-10
1.14334064007e-10
7.02062175716e-11
5.41517997471e-11
2.73728433833e-10
6.92852942687e-11
1.02033347844e-10
1.0996123786e-10
1.95372184359e-10
1.32637235239e-10
3.80705414032e-11
7.48483867595e-11
3.32419542292e-10
1.19575206873e-10
8.79730909291e-11
2.54473055402e-10
2.83904037117e-10
3.44861775374e-10
1.84975124541e-10
1.07929610771e-10
1.35346094618e-10
2.66357554891e-10
3.04831883011e-11
8.01045508404e-11
1.34756402428e-10
1.10946555631e-10
2.42146484376e-11
1.15830556432e-10
7.91522682862e-11
1.7246125019e-10
2.03605293386e-11
1.48115926387e-10
1.67550721275e-10
2.07752707532e-10
4.72602681559e-11
2.18148158591e-10
3.36386103447e-11
3.2537284454e-10
1.53368366011e-10
4.58983534472e-11
2.29612431644e-10
2.86899430901e-10
1.45565453847e-10
2.59665675899e-10
3.04892430263e-10
2.91266920621e-10
1.42378044688e-10
5.47605081558e-11
1.44184278639e-10
2.43534290188e-10
1.55973983102e-11
1.86735849346e-10
1.69663658938e-10
1.22130545597e-10
3.9775124113e-11
1.49389870395e-10
1.44993777308e-10
5.99904674958e-11
2.46647342238e-11
1.34944002743e-10
1.04728113352e-10
6.73149076821e-11
1.0426834319e-11
6.37975109547e-11
8.5184947889e-11
8.13281598045e-11
3.31294413572e-11
6.41393145508e-11
8.57239937054e-11
2.00694578284e-11
7.42639262115e-12
3.34808111047e-12
6.63619373635e-11
1.65023194763e-11
9.54463469194e-12
4.45326825922e-11
3.96038733641e-11
1.06781313107e-11
2.56063429505e-11
9.47387999538e-12
1.35503341023e-11
4.34669103968e-12
1.0267002729e-11
5.71344506252e-11
6.26038529504e-11
1.153419905e-10
7.89160945271e-11
1.2232693793e-10
1.66814565089e-10
3.11352152886e-10
5.61990386208e-11
6.85754847677e-10
2.00631459632e-10
1.98907032249e-10
1.2442318913e-10
4.71353608541e-10
1.32853762975e-09
6.31043433502e-10
1.00190935597e-09
1.3576127682e-09
1.54080534281e-09
9.64818633635e-12
8.67124520268e-12
9.776368508e-12
2.55083567659e-11
6.64786771128e-11
2.97280096045e-11
3.26757917441e-12
2.45261872023e-11
2.61519121844e-11
1.80159116898e-11
1.85384854073e-11
2.01652733902e-11
1.83435912196e-11
2.39117615256e-13
5.70589023808e-12
4.81221667713e-11
5.44434086896e-11
9.47848427673e-11
6.14432618316e-11
2.86413559318e-11
8.72062171292e-11
7.86674673236e-11
1.9487241412e-11
5.94178467288e-12
5.48777807766e-12
1.9366639372e-12
3.2444820538e-11
1.38670633356e-11
3.65107595253e-12
1.50949483398e-11
1.90510634609e-11
7.03106245101e-11
5.20135861969e-12
6.71340921456e-12
7.48311592633e-11
2.90530779565e-11
4.9602331298e-12
5.90893039011e-12
7.04300521e-12
3.49979138017e-12
7.53979249994e-12
9.76003954359e-11
1.24376000337e-11
5.64411875649e-11
1.08266529615e-10
9.64404397886e-11
5.88219265188e-11
7.50385358543e-11
5.52705824262e-12
3.88491838123e-11
7.4798155168e-12
9.21582995237e-12
1.37903527875e-11
7.03862259289e-12
2.3453136201e-12
2.00315365827e-12
4.22021687922e-12
9.61812459625e-12
2.4571950608e-11
1.50124792559e-11
3.45512733207e-12
2.282834274e-11
4.87837276079e-12
1.99434728622e-11
4.5578878276e-12
5.45264500307e-11
7.91256476336e-11
4.32961058612e-11
1.51150111678e-11
2.5579116004e-11
1.20236236414e-11
1.46218471579e-11
4.32029691448e-13
6.10119544297e-12
3.78069230439e-11
5.02368478393e-11
4.07708841538e-12
6.94264762596e-11
1.03426208457e-10
1.68731426582e-10
4.84083372056e-11
7.36358140465e-12
1.9079302232e-11
1.74781120658e-11
1.37330501956e-11
5.42944468107e-13
9.36338549706e-12
4.32085726744e-12
5.04501696124e-12
8.30866555131e-12
9.84951114676e-12
1.83764424822e-12
9.18254397651e-12
9.71267910353e-12
1.2384914855e-11
3.25019611455e-12
9.23898164612e-12
3.35732676938e-12
1.0627875877e-11
6.3381681855e-12
2.30696274882e-11
3.50380418057e-11
3.77728296983e-11
1.15223308424e-11
2.29191251728e-12
2.46571188457e-12
3.25938898899e-12
6.98813293271e-12
3.38009858142e-12
4.47114436178e-12
1.04686252061e-11
6.68758591617e-12
4.71917922127e-12
1.34072183433e-11
4.18594120923e-12
3.12717316586e-11
1.31939417601e-10
1.47794554044e-11
3.9978318264e-12
1.69748565556e-11
1.36435056309e-11
2.42171040208e-12
3.86295507958e-12
1.07748305626e-11
1.51515747849e-11
4.20793343183e-12
3.12532178406e-13
1.79462471861e-12
1.05143161721e-12
5.4102534774e-12
1.67391617083e-11
2.08397897621e-11
1.72074340822e-11
1.26917277209e-12
1.20163048964e-11
7.95582856766e-12
8.18336835315e-12
8.47099970107e-12
7.27599675243e-12
4.80738455086e-12
9.13965095587e-12
2.70856952799e-12
6.73053655099e-12
1.30128253494e-12
3.49629227018e-12
1.40619484405e-11
1.20837043722e-12
6.24890950777e-12
7.38279067986e-12
4.84595535851e-14
8.4986832485e-13
1.16063978296e-11
8.86424229158e-12
2.36948901137e-12
1.36698005064e-11
1.49018442666e-12
1.49444217559e-11
3.72611455454e-12
7.89651589977e-11
6.38659642685e-12
6.78132615393e-12
1.74151004269e-11
7.81728907374e-12
5.1999863784e-12
8.39106158265e-12
2.47050473629e-12
4.14300096011e-13
1.02156213488e-12
1.4669567143e-11
1.77168825228e-11
1.32361495292e-12
5.69473029501e-12
1.00274020499e-11
2.69906070129e-12
6.30139264312e-12
1.78703921665e-11
1.55318892617e-11
2.73864568266e-12
5.80370374725e-12
5.67166733189e-12
2.02720002272e-11
4.24039365336e-11
6.47598977082e-12
1.76611355316e-11
3.715479353e-11
1.78560973312e-11
5.66386427423e-12
6.65387513945e-12
2.72902339291e-12
5.00603625227e-12
8.70654934468e-12
2.2483655169e-11
1.87547443596e-11
1.74918985879e-12
9.28881506834e-12
3.14879701222e-13
4.28738617021e-12
3.58835146708e-12
1.10923681768e-12
5.17276487622e-12
7.29809067189e-12
1.77957166272e-12
1.25593950466e-11
2.13564335274e-11
2.42564687395e-11
1.98609039096e-11
2.21778815033e-12
9.73176999242e-12
2.85269277069e-12
3.23466590623e-12
6.39330425436e-12
8.59134001754e-12
2.68595416488e-12
1.34804557796e-12
5.89826644489e-12
4.70568642545e-12
3.04394853524e-12
1.89658666115e-11
1.17941171399e-11
1.31667903981e-11
4.70169514359e-13
1.322322234e-11
4.32033177828e-12
2.8978621135e-12
7.29727692334e-12
3.55559156024e-11
2.08005290504e-11
9.94313050942e-12
5.93431132265e-11
3.00037648551e-11
2.35472466337e-11
2.51901774076e-11
1.5928672433e-11
2.2947116005e-11
1.38455853216e-11
1.01581736607e-11
1.52195906642e-11
4.40669417716e-13
1.50815181532e-11
2.52962711382e-11
9.1590366651e-12
8.58708106205e-12
2.07166258838e-11
3.4252725176e-12
1.14219953312e-12
1.87109282294e-12
2.19189366666e-12
1.04794521469e-12
1.43860334265e-11
1.35590353989e-11
2.35758899542e-12
8.40525822178e-12
4.38754590895e-12
6.76154118914e-12
7.17107206694e-12
5.27375373277e-12
3.76032166678e-12
1.30236600804e-11
1.12452387318e-11
6.83868978779e-12
1.36658443433e-12
1.87264526769e-12
3.11919410118e-12
7.84239222209e-12
7.23080260188e-12
1.57851980496e-11
1.03120551821e-11
1.5034265164e-11
9.27584347282e-12
1.38000207719e-12
1.23444299673e-11
2.31151760329e-11
4.03954912144e-11
8.46784798338e-12
2.11965966207e-12
5.10114713471e-12
2.06298476767e-11
2.39363037446e-12
2.68465151799e-11
3.10414398976e-12
1.29806171429e-11
2.32607792155e-11
1.3327229919e-11
9.44144844367e-12
2.67060934613e-13
1.30671426597e-11
6.04813488089e-12
9.99486164034e-12
1.20211914915e-11
2.06874332342e-12
9.8941657895e-12
1.55968563939e-11
1.78770552966e-12
3.48888195338e-12
1.28430088877e-12
2.67900983162e-12
7.32590327256e-13
7.51496932398e-12
4.52429862519e-12
2.82406303708e-12
1.92768261573e-12
2.12946796503e-12
6.08955359502e-12
5.40684844723e-12
1.0553928473e-12
2.91971180793e-12
1.54919112531e-12
3.56907602517e-12
1.62203015014e-12
8.43611073749e-12
9.0923545774e-12
2.87702673321e-12
9.83758629252e-12
1.21192144404e-11
2.8334251079e-13
2.62856184148e-12
1.42016202627e-12
1.45102939596e-12
1.08038461851e-11
1.44172756554e-11
2.28818103854e-12
1.92473720972e-12
2.94554867391e-11
2.69868859942e-12
1.83716747979e-11
6.48663857128e-12
7.5854443703e-12
1.03222323702e-11
6.81024343378e-12
6.24843183829e-12
3.38927911891e-12
4.64083361412e-12
1.55618259373e-12
2.45005024721e-12
4.26079453066e-12
6.20633268512e-13
1.44988937107e-11
7.19826428893e-12
3.20313007287e-12
4.88944190258e-12
1.15291734123e-12
7.98658017911e-12
5.38019908109e-12
2.00505577122e-13
6.70796221986e-12
3.68077340341e-12
9.90253955808e-13
1.70251493072e-12
8.89652385262e-13
4.21296208161e-12
1.08786791954e-11
2.01109174575e-11
1.67847811121e-11
1.53807183386e-12
1.67804186412e-12
5.05585911848e-12
5.38882959839e-13
2.05837974719e-12
1.00991496465e-12
4.26477758126e-12
1.00607428246e-11
9.02515211711e-12
4.62088599772e-12
3.05210957177e-12
3.14811426334e-12
7.38259439873e-12
4.494752e-12
6.61485157059e-12
1.970401356e-12
1.98846276894e-13
1.41625139335e-13
2.12239342059e-12
1.17532340719e-11
4.01550265728e-12
1.71821156466e-11
3.95960457121e-14
9.49705026215e-12
8.49026089945e-12
8.93458422359e-12
4.5149272604e-12
1.54599827242e-12
4.40524298487e-12
1.70084609118e-12
1.46257880102e-11
9.63710473114e-12
5.48877458829e-12
8.33832722319e-12
5.79740032601e-12
6.36574554586e-12
8.4804979419e-12
1.49255723325e-12
2.97719117912e-12
5.80484952656e-12
2.50655777577e-12
4.63980832262e-13
8.3791446867e-13
1.19566138365e-12
3.19799328481e-12
5.13354423634e-12
6.32143501107e-12
6.44091873559e-13
2.20628317286e-12
1.75668409006e-11
2.72372071647e-12
1.03722074809e-12
3.39095291478e-13
1.30478510284e-12
2.03787443928e-12
2.13729331147e-13
9.73359059247e-14
2.57664746113e-12
1.71549411687e-13
9.23043214059e-13
2.39330097641e-12
1.50546523237e-11
3.46123732387e-13
1.05338390887e-11
2.30484142369e-11
8.57575060648e-12
3.0133415326e-13
3.86745527399e-12
1.64914275447e-11
1.52582012497e-11
6.87801675089e-12
8.74919754873e-12
2.51389390562e-12
1.40353394012e-11
3.01233531596e-12
1.51745442163e-13
1.13673958118e-11
7.50591387627e-12
8.31355927027e-13
9.61680667174e-12
1.52701376139e-11
1.41992254827e-11
7.71002518053e-12
3.36632599566e-12
1.06519667985e-11
9.65151414862e-12
8.15474294186e-12
6.51240006537e-12
4.98578172303e-12
4.65797558156e-12
9.04485958773e-13
3.75004552194e-12
5.34079395775e-12
8.43247734372e-13
5.23262285642e-13
7.81661463338e-12
1.57295701855e-11
9.86608687037e-12
7.87083142607e-12
9.54691687088e-12
2.24083845319e-11
1.71785030567e-12
2.6745059752e-13
1.98435640024e-12
1.23286586545e-12
1.02642829427e-12
8.55699759954e-13
1.2218170115e-12
2.03387287314e-12
9.93399896969e-12
6.44844331177e-13
6.44696238847e-12
4.74774022246e-12
6.19852845905e-13
9.20592993927e-12
9.81934238939e-12
1.06278807912e-11
2.79215536383e-12
1.33013463661e-13
4.58253900211e-12
4.15576418517e-12
1.69938020159e-11
8.33463506568e-12
4.18753470894e-12
1.79449157029e-11
1.61969449626e-11
1.7403965973e-12
1.37012770329e-12
6.6861839231e-12
3.43776913714e-12
5.20683574626e-12
3.34080652988e-12
8.02609290465e-12
1.70548773272e-12
2.68406192113e-12
8.11660707964e-13
5.49476299803e-12
3.70183188699e-12
2.08862974008e-12
2.30879175592e-12
4.83543851478e-13
2.70400313336e-12
1.64319933976e-13
8.12677152386e-12
5.20606848978e-12
2.56961817716e-12
2.22122208895e-11
2.49509678608e-11
1.90673949269e-12
1.8935245856e-11
2.61707927844e-12
4.07165875105e-12
4.63997030749e-12
6.08469371623e-12
1.48293730206e-12
7.87135661787e-13
2.67724282882e-12
5.29997628693e-12
1.9264439796e-11
1.18621717921e-11
9.85150165839e-13
9.26532627597e-12
1.15140395433e-11
6.78261868953e-12
1.13001623769e-11
6.30001604947e-12
3.79281533973e-12
7.49674537537e-13
1.21044930584e-11
2.53290301046e-12
2.77066612666e-12
9.87770674378e-12
7.77682777162e-12
8.09574456819e-12
1.51687004097e-11
6.12537528492e-12
4.5239346301e-12
1.20354362365e-11
1.33222630009e-12
1.52278191844e-12
1.3351705103e-12
1.30767416028e-13
3.77613743713e-12
1.72835069779e-12
3.44048286757e-12
6.89724131103e-12
3.58967804038e-12
1.2817914562e-12
3.14080204714e-12
9.45392237218e-12
7.09788910014e-12
2.26055879398e-12
1.44102688567e-11
1.27829012473e-11
2.76614918548e-11
2.12407353865e-11
5.78785006398e-12
8.79875248047e-13
8.42891751227e-12
9.66057869871e-12
5.8621562286e-12
4.12724275902e-12
7.04307889895e-13
1.8089620931e-12
1.70133884135e-12
4.79070104172e-12
4.37412022791e-12
1.6403554504e-12
1.54815495732e-12
3.36257176592e-12
3.73016300332e-12
2.82838199272e-12
1.96652887075e-12
3.74322487866e-12
9.95991560123e-12
6.14146268268e-12
1.91388516591e-12
5.36541194612e-12
7.58513415531e-12
1.81827477134e-12
8.65683493822e-13
2.5730586084e-12
1.14886546532e-12
2.32946774527e-12
2.90224432387e-12
2.97227534561e-12
4.89219468924e-13
2.30271463674e-12
8.60543151605e-13
1.33455859947e-12
3.10155644506e-12
5.50608313422e-12
1.99942235597e-11
3.07575668543e-11
8.98325120457e-12
4.0148185989e-12
9.03072597876e-11
8.99341761218e-12
2.32568357734e-11
3.24346668946e-12
1.57778770024e-11
1.82240690174e-11
8.98636366638e-12
6.03413371044e-12
5.08557870376e-13
5.37951906024e-12
8.92503209454e-12
4.67450842202e-12
9.38544090819e-12
5.55647277361e-12
1.60937741079e-12
2.58958651772e-12
3.78562922541e-12
1.21440881392e-13
3.0482133393e-12
4.78734360445e-12
7.99246415555e-12
7.49321184398e-12
1.5506618483e-12
7.33234497351e-14
1.10136373342e-12
1.60470741986e-12
1.41205056616e-12
4.34431087134e-14
4.26929071698e-13
7.57696726884e-13
2.67384486891e-12
3.64947338044e-12
6.55230120105e-12
3.11359798628e-12
9.87515201861e-12
2.73741116316e-11
3.42793058003e-11
1.54531277304e-11
8.96422572793e-11
8.29965219774e-12
3.76860117287e-11
8.07754463084e-12
2.8922268028e-11
2.21548253519e-11
9.59548215829e-12
5.96986848866e-12
1.48065034278e-12
1.07938391066e-12
6.33924515074e-13
3.87097523336e-12
1.36155486842e-12
6.76193605338e-12
1.91567085416e-12
6.14010094129e-13
5.58935607446e-13
4.62506724797e-12
5.68586394385e-12
8.41686992065e-12
7.47052474394e-12
9.60960679068e-14
2.87015664054e-12
3.60947495751e-12
1.82372481244e-12
1.63324021706e-12
4.93082017946e-12
1.63678064106e-11
1.43815165749e-11
1.7126905583e-11
1.51007135884e-11
4.84953826805e-12
9.02903342398e-12
2.85911316674e-11
8.2380074954e-11
3.23688732903e-11
4.21208585374e-11
4.5165281482e-12
5.47401699353e-11
4.73710563019e-11
1.08538934177e-11
1.03204028722e-11
6.40762208013e-12
5.90868846872e-12
1.05856643718e-12
2.75384167305e-12
3.53129541249e-13
1.93461053925e-12
2.6201789248e-13
3.57596663462e-12
2.22624325952e-12
2.24471098935e-12
1.0483751183e-12
5.38434999286e-13
2.24231305132e-12
5.76184932196e-12
2.37301250955e-12
7.39891369382e-12
1.78705066736e-11
9.5320066578e-12
2.8126910592e-11
3.80969757328e-12
9.83056617313e-11
9.2852290639e-11
2.4038883794e-11
2.74990366179e-11
3.46858408457e-11
2.71275749025e-11
2.40837984012e-12
1.0218114248e-11
1.24825658858e-11
7.72594985991e-12
2.46127282844e-12
3.10577550004e-12
1.17197918883e-12
1.98374585771e-12
1.53756571963e-12
1.71540916748e-12
2.2017766022e-12
1.3426025648e-11
1.77692753574e-11
1.98679789563e-11
4.12127457615e-12
2.73923313183e-11
2.21286681794e-11
9.92315736237e-11
1.52857810337e-10
3.09735164279e-11
6.39463804961e-11
2.12617306785e-11
8.92922931706e-12
1.40522465227e-11
1.00634270729e-11
3.99684472649e-12
1.44574780088e-12
1.31208302667e-12
2.27285559078e-12
2.77529372187e-11
3.2020369298e-11
2.1775467122e-11
4.2054059941e-11
4.27796095129e-11
7.52247575712e-11
4.11087387635e-11
4.32393595491e-12
1.78873962533e-11
1.28166677096e-11
3.60612720551e-11
2.30738904789e-12
2.04864318445e-11
2.86404155603e-11
2.86169990354e-11
1.47413689766e-10
7.25306551853e-11
3.9891827002e-11
6.90887314168e-11
9.14343040427e-11
1.15504924383e-10
2.64514230506e-11
5.42953103727e-11
2.98711775076e-11
7.536563544e-11
4.7410115509e-11
7.35216718806e-11
6.36191460717e-11
4.41066625878e-11
4.48901839494e-11
6.02382387354e-11
4.44000076419e-11
3.1736380429e-11
2.73814913758e-11
1.16139796588e-11
2.09871048972e-11
3.4402033184e-12
1.36359960424e-11
1.2187257312e-12
5.92331727732e-12
7.89412199756e-13
1.24043845723e-11
9.21031202596e-12
5.6990204632e-11
1.07135227213e-10
9.82148532289e-11
1.24331402316e-10
1.53677891494e-10
6.47586377826e-11
2.94001119314e-10
1.15326640569e-10
8.11417317404e-11
3.15697822618e-10
6.66864979066e-11
2.31147387137e-10
1.63012123995e-10
5.21694051641e-10
2.35512482757e-10
2.3404705169e-10
1.14162471819e-10
1.37252484326e-10
4.09398688012e-11
1.00164189491e-11
2.12953425344e-11
1.0424677421e-11
4.37237565721e-12
4.2192384979e-12
8.71533024733e-13
4.3551538479e-13
2.60211300329e-11
2.05174748868e-11
5.71399146596e-11
1.9581942231e-11
7.68262609283e-11
2.13852951479e-11
6.25333182922e-11
1.83334835586e-11
1.88200424506e-13
5.43546071831e-11
5.78447808872e-11
9.98470029575e-11
6.0778233471e-12
1.19250409714e-10
5.88352980855e-11
5.74723767079e-11
5.06957935023e-11
1.31134934011e-10
1.22050335658e-10
3.98685924965e-11
6.07045816424e-11
4.81869087289e-09
4.64113093877e-09
2.21403864209e-09
2.49025371182e-09
6.81870347136e-10
6.54583240801e-10
9.55545219285e-10
8.00734395738e-10
5.9340194275e-10
5.2292357823e-09
5.26657643384e-09
4.71735899057e-09
1.58949161191e-09
2.49714500421e-09
2.85177601321e-10
5.94087166285e-10
1.12321206952e-09
4.11444624468e-10
3.25492978416e-11
3.86645580243e-10
3.67565270232e-12
1.14915307773e-10
1.49887580053e-10
1.35391190794e-11
1.89482594734e-10
3.19494791475e-10
7.20723003e-10
7.71454341596e-10
6.95793302481e-11
1.60505859872e-10
5.55662679806e-10
5.05562549736e-10
1.23688288234e-10
5.55546090819e-10
6.94430932911e-10
7.65851003669e-12
6.32414611465e-11
3.27797200577e-11
5.06917903031e-11
6.01848094108e-11
4.96405840174e-11
4.25726730043e-11
6.15877235971e-11
1.59866898885e-10
7.72870579661e-11
4.14255588014e-10
2.5164141842e-10
9.33016720829e-12
1.88807614695e-10
2.44884150891e-10
2.43220280681e-11
2.48040486704e-10
4.18171661242e-10
8.46824352741e-11
9.9474926066e-11
9.01223930698e-11
7.92419461641e-11
1.15559109617e-11
9.16354916298e-12
5.0832351992e-11
7.24311053013e-11
2.506507911e-11
4.71094790635e-12
6.46755606296e-12
6.48962597183e-12
3.88068031804e-11
1.32967482864e-11
6.32365201089e-11
1.05445791344e-11
1.05766780669e-11
2.14938202858e-11
3.55495313182e-11
2.75361955672e-11
5.71397489813e-11
1.71476961723e-11
2.01235673966e-11
1.5011741676e-11
2.00086802811e-11
1.19003605947e-11
1.80945137127e-12
2.80892269059e-12
6.04500758137e-12
3.40994222527e-12
1.22352794959e-11
3.12183413041e-11
1.71888044445e-11
4.39748413425e-11
7.88175735916e-12
4.1162442259e-11
2.95521311584e-11
1.28373552607e-11
2.61739555154e-11
4.99580653536e-12
1.38431095773e-11
1.05509095267e-11
3.61749411494e-11
2.279289774e-11
6.06620198663e-12
1.76464871353e-12
2.43339558534e-11
1.26768614967e-11
2.18768780522e-12
2.6526709238e-13
2.07631203337e-12
4.21815214642e-12
1.74383962513e-11
5.10307160901e-12
6.6405756339e-12
1.16651166808e-11
2.55034247621e-12
6.29545520047e-12
2.10235526888e-11
7.34553235249e-12
2.72572800626e-11
3.0063761198e-11
4.31187484659e-11
2.29349993021e-11
6.2552361923e-11
6.45548685645e-11
6.56136243322e-11
4.94752650072e-11
1.17152330523e-12
3.95295694464e-11
1.50347863326e-11
2.20621509737e-11
5.04364147367e-11
3.26915056049e-11
1.13454952144e-11
3.57346189092e-12
2.46067456915e-11
6.01867269548e-12
4.68612959726e-12
3.25039834213e-11
1.46649050886e-11
4.4547651779e-11
2.4268614124e-12
2.03520085962e-11
4.2731354014e-11
1.95392633724e-13
1.95193736136e-11
3.31866483226e-11
3.08566860587e-11
3.91241241448e-11
4.89106397264e-11
1.68331650666e-11
3.88873479839e-11
5.49169313275e-11
3.74282643677e-11
1.12656275722e-10
4.04489049181e-11
1.78180201359e-11
2.22764017654e-11
4.78356772066e-11
3.45233751833e-11
7.78116753032e-11
4.78890786684e-11
3.01778379467e-11