# vtk DataFile Version 3.0
File Name: Molecule/methanol/methanol_5.0-0.vtk
ASCII
DATASET UNSTRUCTURED_GRID
FIELD FieldData 1
TIME 1 1 double
0.0
POINTS 240 double
1.611 0.0 -0.359
1.543 -0.475 -0.352
1.403 0.0 -0.933
1.341 -0.432 -0.927
1.345 -0.911 -0.332
1.16 -0.83 -0.909
1.032 -1.273 -0.301
0.876 -1.16 -0.88
0.631 -1.532 -0.261
0.51 -1.396 -0.844
0.173 -1.667 -0.216
0.093 -1.519 -0.802
-0.304 -1.667 -0.168
-0.341 -1.519 -0.759
-0.762 -1.532 -0.123
-0.758 -1.396 -0.718
-1.163 -1.273 -0.083
-1.124 -1.16 -0.681
-1.475 -0.911 -0.051
-1.408 -0.83 -0.653
-1.674 -0.475 -0.032
-1.589 -0.432 -0.635
-1.742 -0.0 -0.025
-1.651 -0.0 -0.629
-1.674 0.475 -0.032
-1.589 0.432 -0.635
-1.475 0.911 -0.051
-1.408 0.83 -0.653
-1.163 1.273 -0.083
-1.124 1.16 -0.681
-0.762 1.532 -0.123
-0.758 1.396 -0.718
-0.304 1.667 -0.168
-0.341 1.519 -0.759
0.173 1.667 -0.216
0.093 1.519 -0.802
0.631 1.532 -0.261
0.51 1.396 -0.844
1.032 1.273 -0.301
0.876 1.16 -0.88
1.345 0.911 -0.332
1.16 0.83 -0.909
1.543 0.475 -0.352
1.341 0.432 -0.927
1.907 0.0 0.656
1.852 0.452 0.656
1.852 0.226 1.047
1.852 -0.226 1.047
1.852 -0.452 0.656
1.852 -0.226 0.264
1.852 0.226 0.264
1.69 0.76 1.094
1.69 0.439 1.415
1.69 -0.0 1.533
1.69 -0.439 1.415
1.69 -0.76 1.094
1.69 -0.877 0.656
1.69 -0.76 0.217
1.69 -0.439 -0.104
1.69 0.439 -0.104
1.69 0.76 0.217
1.69 0.877 0.656
1.432 1.167 1.108
1.432 0.925 1.499
1.432 0.558 1.776
1.432 0.115 1.902
1.432 -0.343 1.859
1.432 -0.754 1.654
1.432 -1.064 1.315
1.432 -1.23 0.886
1.432 -1.23 0.426
1.432 -1.064 -0.003
1.432 1.167 0.203
1.432 1.252 0.656
1.091 1.484 1.113
1.091 1.283 1.531
1.091 0.969 1.87
1.091 0.568 2.102
1.091 0.116 2.205
1.091 -0.346 2.17
1.091 -0.777 2.001
1.091 -1.139 1.712
1.091 -1.4 1.33
1.091 -1.536 0.887
1.091 -1.536 0.424
1.091 -1.4 -0.018
1.091 1.484 0.198
1.091 1.553 0.656
0.688 1.705 1.112
0.688 1.528 1.538
0.688 1.248 1.904
0.688 0.882 2.184
0.688 0.457 2.36
0.688 0.0 2.42
0.688 -0.457 2.36
0.688 -0.882 2.184
0.688 -1.248 1.904
0.688 -1.528 1.538
0.688 -1.705 1.112
0.688 -1.765 0.656
0.688 -1.705 0.199
0.688 1.705 0.199
0.688 1.765 0.656
0.247 1.815 1.122
0.247 1.642 1.558
0.247 1.366 1.938
0.247 1.004 2.238
0.247 0.579 2.438
0.247 0.118 2.526
0.247 -0.351 2.496
0.247 -0.798 2.351
0.247 -1.194 2.099
0.247 -1.516 1.757
0.247 -1.742 1.345
0.247 -1.859 0.89
0.247 -1.859 0.421
0.247 1.815 0.19
0.247 1.874 0.656
-0.209 1.815 1.122
-0.209 1.642 1.558
-0.209 1.366 1.938
-0.209 1.004 2.238
-0.209 0.579 2.438
-0.209 0.118 2.526
-0.209 -0.351 2.496
-0.209 -0.798 2.351
-0.209 -1.194 2.099
-0.209 -1.516 1.757
-0.209 -1.742 1.345
-0.209 -1.859 0.89
-0.209 -1.859 0.421
-0.209 1.815 0.19
-0.209 1.874 0.656
-0.65 1.765 0.656
-0.65 1.705 1.112
-0.65 1.528 1.538
-0.65 1.248 1.904
-0.65 0.882 2.184
-0.65 0.457 2.36
-0.65 0.0 2.42
-0.65 -0.457 2.36
-0.65 -0.882 2.184
-0.65 -1.248 1.904
-0.65 -1.528 1.538
-0.65 -1.705 1.112
-0.65 -1.765 0.656
-0.65 -1.705 0.199
-0.65 1.705 0.199
-1.053 1.553 0.656
-1.053 1.484 1.113
-1.053 1.283 1.531
-1.053 0.969 1.87
-1.053 0.568 2.102
-1.053 0.116 2.205
-1.053 -0.346 2.17
-1.053 -0.777 2.001
-1.053 -1.139 1.712
-1.053 -1.4 1.33
-1.053 -1.536 0.887
-1.053 -1.536 0.424
-1.053 1.484 0.198
-1.394 1.252 0.656
-1.394 1.167 1.108
-1.394 0.925 1.499
-1.394 0.558 1.776
-1.394 0.115 1.902
-1.394 -0.343 1.859
-1.394 -0.754 1.654
-1.394 -1.064 1.315
-1.394 -1.23 0.886
-1.394 -1.23 0.426
-1.394 1.167 0.203
-1.652 0.877 0.656
-1.652 0.76 1.094
-1.652 0.439 1.415
-1.652 -0.0 1.533
-1.652 -0.439 1.415
-1.652 -0.76 1.094
-1.652 -0.877 0.656
-1.652 -0.76 0.217
-1.652 0.76 0.217
-1.814 0.452 0.656
-1.814 0.226 1.047
-1.814 -0.226 1.047
-1.814 -0.452 0.656
-1.814 -0.226 0.264
-1.814 0.226 0.264
-1.868 -0.0 0.656
1.122 -0.781 -1.188
0.783 -1.147 -1.212
0.783 -0.878 -1.615
1.122 -0.451 -1.519
0.783 -0.475 -1.885
1.122 -0.0 -1.639
0.783 0.0 -1.979
0.783 0.475 -1.885
1.122 0.451 -1.519
0.783 0.878 -1.615
1.122 0.781 -1.188
0.783 1.147 -1.212
0.355 -1.284 -1.432
0.355 -0.989 -1.811
0.355 -0.586 -2.074
0.355 -0.121 -2.192
0.355 0.358 -2.152
0.355 0.798 -1.959
0.355 1.152 -1.634
0.355 1.381 -1.211
-0.12 -1.383 -1.403
-0.12 -1.125 -1.781
-0.12 -0.767 -2.067
-0.12 -0.342 -2.234
-0.12 0.115 -2.268
-0.12 0.561 -2.166
-0.12 0.957 -1.937
-0.12 1.268 -1.602
-0.12 1.467 -1.19
-0.594 -1.44 -0.977
-0.594 -1.284 -1.432
-0.594 -0.989 -1.811
-0.594 -0.586 -2.074
-0.594 -0.121 -2.192
-0.594 0.358 -2.152
-0.594 0.798 -1.959
-0.594 1.152 -1.634
-0.594 1.381 -1.211
-1.022 -1.147 -1.212
-1.022 -0.878 -1.615
-1.022 -0.475 -1.885
-1.022 0.0 -1.979
-1.022 0.475 -1.885
-1.022 0.878 -1.615
-1.022 1.147 -1.212
-1.362 -0.781 -1.188
-1.362 -0.451 -1.519
-1.362 -0.0 -1.639
-1.362 0.451 -1.519
-1.362 0.781 -1.188
-1.58 -0.237 -1.148
-1.58 0.237 -1.148

CELLS 476 1904
3 0 1 2
3 2 1 3
3 1 4 3
3 3 4 5
3 4 6 5
3 5 6 7
3 6 8 7
3 7 8 9
3 8 10 9
3 9 10 11
3 10 12 11
3 11 12 13
3 12 14 13
3 13 14 15
3 14 16 15
3 15 16 17
3 16 18 17
3 17 18 19
3 18 20 19
3 19 20 21
3 20 22 21
3 21 22 23
3 22 24 23
3 23 24 25
3 24 26 25
3 25 26 27
3 26 28 27
3 27 28 29
3 28 30 29
3 29 30 31
3 30 32 31
3 31 32 33
3 32 34 33
3 33 34 35
3 34 36 35
3 35 36 37
3 36 38 37
3 37 38 39
3 38 40 39
3 39 40 41
3 40 42 41
3 41 42 43
3 42 0 43
3 43 0 2
3 44 45 46
3 44 46 47
3 44 47 48
3 44 48 49
3 44 49 50
3 44 50 45
3 46 45 51
3 46 51 52
3 46 52 53
3 47 46 53
3 47 53 54
3 47 54 55
3 48 47 55
3 48 55 56
3 48 56 57
3 49 48 57
3 49 57 58
3 50 59 60
3 45 50 60
3 45 60 61
3 45 61 51
3 51 61 62
3 51 62 63
3 52 51 63
3 52 63 64
3 52 64 65
3 53 52 65
3 53 65 66
3 54 53 66
3 54 66 67
3 55 54 67
3 55 67 68
3 55 68 69
3 56 55 69
3 56 69 70
3 57 56 70
3 57 70 71
3 61 60 72
3 61 72 73
3 61 73 62
3 62 73 74
3 62 74 75
3 63 62 75
3 63 75 76
3 64 63 76
3 64 76 77
3 65 64 77
3 65 77 78
3 65 78 79
3 66 65 79
3 66 79 80
3 67 66 80
3 67 80 81
3 68 67 81
3 68 81 82
3 69 68 82
3 69 82 83
3 69 83 84
3 70 69 84
3 70 84 85
3 71 70 85
3 73 72 86
3 73 86 87
3 73 87 74
3 74 87 88
3 74 88 89
3 75 74 89
3 75 89 90
3 76 75 90
3 76 90 91
3 77 76 91
3 77 91 92
3 78 77 92
3 78 92 93
3 79 78 93
3 79 93 94
3 80 79 94
3 80 94 95
3 80 95 96
3 81 80 96
3 81 96 97
3 82 81 97
3 82 97 98
3 83 82 98
3 83 98 99
3 84 83 99
3 84 99 100
3 85 84 100
3 87 86 101
3 87 101 102
3 87 102 88
3 88 102 103
3 88 103 104
3 89 88 104
3 89 104 105
3 90 89 105
3 90 105 106
3 91 90 106
3 91 106 107
3 92 91 107
3 92 107 108
3 93 92 108
3 93 108 109
3 94 93 109
3 94 109 110
3 95 94 110
3 95 110 111
3 96 95 111
3 96 111 112
3 97 96 112
3 97 112 113
3 98 97 113
3 98 113 114
3 99 98 114
3 99 114 115
3 100 99 115
3 102 101 116
3 102 116 117
3 102 117 103
3 103 117 118
3 103 118 119
3 104 103 119
3 104 119 120
3 105 104 120
3 105 120 121
3 106 105 121
3 106 121 122
3 107 106 122
3 107 122 123
3 108 107 123
3 108 123 124
3 109 108 124
3 109 124 125
3 110 109 125
3 110 125 126
3 111 110 126
3 111 126 127
3 112 111 127
3 112 127 128
3 113 112 128
3 113 128 129
3 114 113 129
3 114 129 130
3 115 114 130
3 117 116 131
3 117 131 132
3 117 132 118
3 118 132 133
3 118 133 134
3 119 118 134
3 119 134 135
3 120 119 135
3 120 135 136
3 121 120 136
3 121 136 137
3 122 121 137
3 122 137 138
3 123 122 138
3 123 138 139
3 124 123 139
3 124 139 140
3 125 124 140
3 125 140 141
3 126 125 141
3 126 141 142
3 127 126 142
3 127 142 143
3 128 127 143
3 128 143 144
3 129 128 144
3 129 144 145
3 130 129 145
3 130 145 146
3 133 131 147
3 132 131 133
3 134 133 148
3 134 148 149
3 135 134 149
3 135 149 150
3 136 135 150
3 136 150 151
3 137 136 151
3 137 151 152
3 138 137 152
3 138 152 153
3 139 138 153
3 139 153 154
3 140 139 154
3 140 154 155
3 141 140 155
3 142 141 155
3 142 155 156
3 143 142 156
3 143 156 157
3 144 143 157
3 144 157 158
3 145 144 158
3 145 158 159
3 146 145 159
3 148 147 160
3 133 147 148
3 149 148 161
3 149 161 162
3 150 149 162
3 150 162 163
3 151 150 163
3 151 163 164
3 152 151 164
3 152 164 165
3 153 152 165
3 154 153 165
3 154 165 166
3 155 154 166
3 155 166 167
3 156 155 167
3 156 167 168
3 157 156 168
3 157 168 169
3 158 157 169
3 158 169 170
3 159 158 170
3 161 160 171
3 148 160 161
3 162 161 172
3 162 172 173
3 163 162 173
3 163 173 174
3 164 163 174
3 165 164 174
3 165 174 175
3 166 165 175
3 166 175 176
3 167 166 176
3 167 176 177
3 168 167 177
3 169 168 177
3 169 177 178
3 170 169 178
3 170 178 179
3 172 171 180
3 161 171 172
3 173 172 181
3 173 181 182
3 174 173 182
3 175 174 182
3 175 182 183
3 176 175 183
3 177 176 183
3 177 183 184
3 178 177 184
3 179 178 184
3 179 184 185
3 181 180 186
3 172 180 181
3 182 181 187
3 183 182 187
3 184 183 187
3 185 184 187
3 186 185 187
3 181 186 187
3 186 180 24
3 186 24 22
3 186 22 185
3 185 22 20
3 185 20 179
3 179 20 18
3 179 18 170
3 170 18 16
3 170 16 159
3 159 16 14
3 159 14 146
3 146 14 12
3 146 12 130
3 130 12 10
3 130 10 115
3 115 10 100
3 100 10 8
3 100 8 85
3 85 8 6
3 85 6 71
3 71 6 4
3 71 4 58
3 71 58 57
3 58 4 1
3 58 1 0
3 58 0 49
3 49 0 50
3 50 0 59
3 59 0 42
3 59 42 40
3 59 40 60
3 60 40 72
3 72 40 38
3 72 38 86
3 86 38 36
3 86 36 101
3 101 36 116
3 116 36 34
3 116 34 131
3 131 34 32
3 131 32 147
3 147 32 30
3 147 30 160
3 160 30 28
3 160 28 171
3 171 28 26
3 171 26 180
3 180 26 24
3 188 189 190
3 191 188 190
3 191 190 192
3 193 191 192
3 193 192 194
3 193 194 195
3 196 193 195
3 196 195 197
3 198 196 197
3 198 197 199
3 190 189 200
3 190 200 201
3 192 190 201
3 192 201 202
3 192 202 203
3 194 192 203
3 194 203 204
3 195 194 204
3 195 204 205
3 197 195 205
3 197 205 206
3 199 197 206
3 199 206 207
3 200 208 209
3 201 200 209
3 201 209 210
3 202 201 210
3 202 210 211
3 203 202 211
3 203 211 212
3 204 203 212
3 204 212 213
3 205 204 213
3 205 213 214
3 206 205 214
3 206 214 215
3 207 206 215
3 207 215 216
3 208 217 218
3 209 208 218
3 209 218 219
3 210 209 219
3 210 219 220
3 211 210 220
3 211 220 221
3 212 211 221
3 212 221 222
3 213 212 222
3 213 222 223
3 214 213 223
3 214 223 224
3 215 214 224
3 215 224 225
3 216 215 225
3 218 217 226
3 218 226 227
3 219 218 227
3 219 227 228
3 220 219 228
3 221 220 228
3 221 228 229
3 222 221 229
3 222 229 230
3 223 222 230
3 223 230 231
3 224 223 231
3 224 231 232
3 225 224 232
3 227 226 233
3 227 233 234
3 228 227 234
3 228 234 235
3 229 228 235
3 230 229 235
3 230 235 236
3 231 230 236
3 231 236 237
3 232 231 237
3 234 233 238
3 235 234 238
3 235 238 239
3 236 235 239
3 237 236 239
3 237 239 25
3 237 25 27
3 237 27 29
3 237 29 232
3 232 29 31
3 232 31 225
3 225 31 33
3 225 33 216
3 216 33 35
3 216 35 207
3 207 35 37
3 207 37 199
3 199 37 39
3 199 39 198
3 198 39 41
3 198 41 43
3 198 43 196
3 196 43 2
3 196 2 193
3 193 2 191
3 191 2 3
3 191 3 188
3 188 3 5
3 188 5 7
3 188 7 189
3 189 7 9
3 189 9 200
3 200 9 11
3 200 11 208
3 208 11 13
3 208 13 217
3 217 13 15
3 217 15 226
3 226 15 17
3 226 17 233
3 233 17 19
3 233 19 21
3 233 21 238
3 238 21 23
3 238 23 239
3 239 23 25

CELL_TYPES 476
5
5
5
5
5
5
5
5
5
5
5
5
5
5
5
5
5
5
5
5
5
5
5
5
5
5
5
5
5
5
5
5
5
5
5
5
5
5
5
5
5
5
5
5
5
5
5
5
5
5
5
5
5
5
5
5
5
5
5
5
5
5
5
5
5
5
5
5
5
5
5
5
5
5
5
5
5
5
5
5
5
5
5
5
5
5
5
5
5
5
5
5
5
5
5
5
5
5
5
5
5
5
5
5
5
5
5
5
5
5
5
5
5
5
5
5
5
5
5
5
5
5
5
5
5
5
5
5
5
5
5
5
5
5
5
5
5
5
5
5
5
5
5
5
5
5
5
5
5
5
5
5
5
5
5
5
5
5
5
5
5
5
5
5
5
5
5
5
5
5
5
5
5
5
5
5
5
5
5
5
5
5
5
5
5
5
5
5
5
5
5
5
5
5
5
5
5
5
5
5
5
5
5
5
5
5
5
5
5
5
5
5
5
5
5
5
5
5
5
5
5
5
5
5
5
5
5
5
5
5
5
5
5
5
5
5
5
5
5
5
5
5
5
5
5
5
5
5
5
5
5
5
5
5
5
5
5
5
5
5
5
5
5
5
5
5
5
5
5
5
5
5
5
5
5
5
5
5
5
5
5
5
5
5
5
5
5
5
5
5
5
5
5
5
5
5
5
5
5
5
5
5
5
5
5
5
5
5
5
5
5
5
5
5
5
5
5
5
5
5
5
5
5
5
5
5
5
5
5
5
5
5
5
5
5
5
5
5
5
5
5
5
5
5
5
5
5
5
5
5
5
5
5
5
5
5
5
5
5
5
5
5
5
5
5
5
5
5
5
5
5
5
5
5
5
5
5
5
5
5
5
5
5
5
5
5
5
5
5
5
5
5
5
5
5
5
5
5
5
5
5
5
5
5
5
5
5
5
5
5
5
5
5
5
5
5
5
5
5
5
5
5
5
5
5
5
5
5
5
5
5
5
5
5
5
5
5
5
5
5
5
5
5
5
5
5
5
5
5
5
5
5
5
5
5
5
5
5
5
5
5
5
5
5
5
5
5
5
5
5
5
5
5
5
5
5

CELL_DATA 476
SCALARS cell_data_0 double
LOOKUP_TABLE default
3.47769712637e-08
2.31133921319e-08
1.87384152244e-08
1.19647852215e-09
8.34670899968e-10
2.13237481026e-09
2.16486482136e-11
2.95343828432e-10
4.83954709831e-10
8.56080176714e-10
3.97652636588e-10
3.96434413614e-10
1.60613798811e-10
2.29635270275e-10
1.73873300825e-10
2.85194726894e-10
4.72911148955e-12
8.64176047799e-10
6.56939069099e-10
9.341845109e-10
1.40496130045e-10
2.45963528661e-10
1.50480037444e-10
1.85593636584e-11
1.23334814482e-10
7.72518724195e-10
4.74790378522e-10
7.93566407933e-10
3.24156294691e-11
2.53567655099e-10
8.75804841505e-11
2.61047487752e-10
2.4498163055e-10
3.75657524245e-10
3.19849705824e-10
5.78929119123e-10
4.0334894918e-10
2.16563253363e-10
7.62953154944e-10
1.78847785475e-09
1.12658305563e-09
4.06147941925e-09
2.75856321729e-08
4.65404431203e-08
8.31944290991e-10
5.26919115394e-10
6.12119469461e-10
2.0401791567e-10
1.04440562549e-09
2.2929776607e-10
1.37107952e-10
1.30418916522e-11
1.10649370627e-10
3.33822221831e-10
1.21833620669e-10
3.08951822578e-10
7.73531370883e-10
1.43165891755e-09
6.27822912468e-09
1.10775671642e-08
1.50144263594e-08
4.8319249402e-10
1.6689974848e-09
4.32997512677e-11
3.68267292518e-10
1.50634700194e-10
4.63713747344e-11
1.43358559466e-10
8.39609776013e-11
1.66241322835e-10
1.19201872812e-10
2.30737823503e-11
1.6263898154e-10
1.03948779104e-10
3.23744760068e-10
3.46861322784e-10
7.00430934572e-10
1.02733759292e-09
2.18396094757e-09
5.60551752712e-09
7.62009480633e-09
4.48850347158e-11
2.64531089161e-10
1.47704306488e-10
8.73073427633e-11
4.99658047491e-11
1.80340790215e-11
2.62556861575e-12
2.32642613309e-11
1.08366310243e-11
7.07223956829e-11
3.94081967865e-11
6.58838172955e-11
4.9143227944e-11
6.53980037844e-11
4.66672970296e-11
1.86204221043e-11
8.81430220952e-11
5.4068375437e-11
3.45773532512e-10
2.41363113441e-10
3.64452876336e-10
5.32448664788e-11
3.67670164829e-10
4.70523886923e-10
2.10075784109e-10
7.95050772324e-11
6.42304311849e-11
2.12097783479e-11
5.95311822035e-11
7.42123096242e-11
5.88372042017e-11
1.73159809221e-11
5.10340491589e-11
6.73388217783e-11
5.011764138e-11
3.29101152261e-11
1.11534214183e-13
5.62200766556e-11
9.27840417977e-11
1.21002479721e-10
6.1937987166e-11
1.07802830427e-10
1.20213912522e-10
4.99290441559e-11
9.51237818377e-11
7.88379766345e-12
1.67255835107e-10
1.54358001126e-10
3.18551451016e-11
1.35305037116e-10
1.46518698512e-10
4.73784409578e-11
3.62912017699e-11
2.56357771979e-11
4.71838449993e-11
4.32254256275e-11
5.67942816582e-11
3.04037616301e-11
1.88254913491e-11
3.67027746504e-12
7.11073018767e-11
9.32360989893e-11
5.89706419739e-11
3.30394254651e-11
5.51487427034e-11
5.99586077363e-11
4.46684893827e-11
2.21924811551e-11
1.43011991078e-11
1.56451104609e-11
6.36871455428e-11
4.39211864578e-11
2.3908177183e-11
3.02409889677e-11
1.00491226236e-10
6.0419629265e-11
2.82151096058e-11
5.01298630427e-11
1.96623478402e-11
5.32927933572e-11
4.83695716611e-11
4.74109089311e-11
8.20719807176e-11
3.34735626882e-11
1.59674022733e-11
1.95632547904e-11
1.60097004017e-11
1.98008869651e-11
1.28642230246e-11
7.09280993968e-12
1.12690593263e-11
1.52970736255e-12
5.31681096747e-11
5.49163397198e-11
4.05292729023e-11
3.60616308399e-11
3.26692268931e-11
4.48527723513e-11
3.62429032522e-11
3.53874378172e-11
5.60504882515e-12
1.64947769338e-11
4.35679171594e-11
4.51331498467e-11
5.96469450137e-11
1.20584232245e-10
9.58117925339e-11
3.51748507937e-11
2.1454451494e-11
4.71392975972e-11
3.43839350727e-11
2.9860985822e-11
7.44528013207e-13
4.51418634808e-11
3.74668488238e-11
5.5244082946e-11
9.37564148431e-11
7.87606333403e-11
2.21553875757e-12
2.34482623854e-11
1.79635774236e-11
4.44341472162e-11
3.01419731342e-11
3.69182078387e-11
5.54179630229e-11
2.05418673162e-11
1.46273881961e-11
1.69036365732e-11
1.21784561494e-11
3.08509626261e-11
4.73815881078e-11
2.03531237074e-11
3.91681856433e-11
8.51252327532e-14
2.42177309787e-11
4.09567663292e-11
2.61450961571e-11
4.26919780894e-12
1.02210779768e-11
2.50731613039e-11
1.05008289981e-11
1.39268650405e-11
3.47605740579e-11
4.09142416022e-11
5.03646890267e-11
2.11384015594e-11
5.92631160747e-11
3.88379587679e-11
2.39251060188e-11
3.5734888542e-12
2.70385178588e-11
2.88910795623e-11
6.4931806807e-12
8.13202238566e-12
2.67492308635e-11
3.69779499367e-11
3.17345528897e-11
5.66379870341e-12
3.02985525946e-12
4.80799004693e-11
6.34914935925e-11
1.10901131521e-10
4.45738288733e-11
9.70011261449e-12
8.36740585763e-12
7.9621345826e-12
1.65477366235e-11
1.78967008976e-11
1.11430243063e-11
5.13749062435e-12
7.09330116352e-12
1.37699025019e-11
9.13641807627e-12
3.42876924803e-12
1.67433258019e-11
2.61698380339e-11
3.7140229286e-11
4.68270342336e-11
2.37080646776e-11
9.60986140046e-12
1.80506410424e-12
2.99195271168e-11
4.66000715862e-11
9.88546849532e-11
7.95648825013e-12
7.02310871985e-12
6.24446973344e-13
2.49691997586e-11
1.50578314616e-11
1.6033749101e-11
1.55671644814e-11
8.81375965501e-12
1.99225235953e-11
1.96718947472e-11
1.60236286057e-11
1.86117949679e-11
2.06453773454e-11
1.86205807142e-11
1.60689990648e-13
6.35015061206e-11
4.12696457508e-11
1.05643776439e-10
1.46412750536e-10
8.44974278468e-12
2.52188371524e-11
3.98679209772e-11
7.10286779077e-12
7.97050016458e-12
1.31052789425e-11
2.09653087345e-11
3.05206173716e-11
1.60472137819e-11
3.6720687701e-11
1.90450046913e-12
1.59775607088e-10
1.96380085724e-10
2.52160792362e-11
8.91502958369e-11
2.00498343225e-11
3.44596157722e-11
1.23963745431e-11
1.53160414281e-10
3.84766161345e-12
1.73614721884e-10
8.83514648812e-11
2.08283613811e-10
7.19257495537e-11
1.46425806448e-10
1.31535821473e-10
2.70783539122e-10
3.14313195872e-10
3.31809485241e-10
2.00971190078e-10
2.65998696498e-10
1.19552280164e-10
2.45388859613e-10
7.60813250143e-12
7.00651944906e-11
4.02056341667e-11
1.5370955353e-11
3.44227391768e-11
1.96261742429e-11
5.51519066311e-11
1.46055698147e-09
7.19924738933e-09
1.39002522103e-08
1.42090945899e-08
5.07678836236e-09
2.80859099158e-09
7.58267953092e-09
8.73545187671e-09
9.58649355551e-09
3.3618473397e-09
2.030477689e-09
4.65014564244e-10
4.47719714829e-10
3.37361839048e-11
1.52403596306e-10
1.11858921149e-11
1.20239188941e-12
8.76689968751e-11
3.75104474178e-11
5.52372178153e-11
1.10989973271e-11
5.19727078155e-11
3.25132559621e-11
7.71792225482e-11
7.58258702828e-11
1.63574488543e-10
1.62438700342e-10
9.14604418345e-11
5.96913601764e-09
8.68445387557e-09
2.11824235014e-08
1.64292263769e-08
1.05756514034e-08
3.87186196661e-09
1.36878896754e-09
1.66322832724e-09
9.93625032773e-09
1.55471530881e-08
1.28921396378e-09
3.51410236526e-09
1.94399778086e-08
6.57416319529e-09
6.803581365e-09
2.4428279166e-09
2.02626434515e-08
1.51245873904e-08
5.80058349765e-10
4.99367870838e-09
1.19739671267e-09
2.29592861223e-09
4.23680185265e-10
6.84808414179e-10
7.27882524235e-10
6.72846756789e-11
4.75557684342e-10
5.79572938072e-10
4.1202602116e-10
8.17783691074e-10
6.6408257258e-10
9.20762859957e-10
3.40671510297e-11
3.28575095085e-10
3.38305621115e-10
9.12370268708e-10
3.79878804578e-10
4.51317004486e-10
4.33942199409e-10
9.72394718413e-10
4.4492393644e-10
1.74970480906e-09
7.55618590766e-10
2.02334359675e-09
2.63384818606e-10
1.84115527134e-09
8.16054882991e-11
2.14370431382e-09
3.46258941207e-10
2.16920434501e-09
6.4352181908e-10
1.16340634862e-09
1.35174153507e-10
2.31376103606e-10
1.76104913127e-10
1.05967086421e-10
3.43096687507e-10
6.94819143153e-11
5.96042224644e-10
9.7735825499e-10
4.00886698911e-10
9.75203612629e-10
4.87666438729e-10
1.22420263893e-09
1.5098531533e-11
6.81056212753e-10
1.74768402921e-10
2.08239054008e-10
1.33863412527e-11
7.48931245847e-11
4.93794748755e-10
3.27018840057e-10
8.14118147204e-10
1.14797622819e-09
1.02962673389e-11
7.69631938158e-10
1.33560481902e-10
2.32384927621e-11
5.51653529723e-11
3.15360193409e-10
1.71787400121e-10
3.06602351762e-10
6.21082562795e-11
3.69944805223e-10
6.8681550171e-10
6.91517813189e-10
4.73428393859e-11
3.0089333455e-10
4.22829046143e-10
4.34421088384e-10
3.80896279598e-10
2.40195740916e-10
4.85116188938e-10
5.77459581594e-10
3.98770343622e-10
3.2375439549e-10
6.40537329345e-09
5.14066296432e-09
8.79998279237e-09
6.8121815991e-09
1.59527659107e-08
2.13407984907e-08
2.54814564318e-08
2.28857167049e-08
2.37504382612e-09
5.1159374126e-09
2.49674019341e-09
3.43118004128e-09
3.29897588823e-09
4.90973838788e-09
7.10440273113e-10
4.06640718549e-10
6.22261822273e-10
4.49807916941e-10
1.62553963525e-10
2.97628745805e-10
3.25223435225e-10
1.23509116956e-11
7.48526171816e-10
6.04902668274e-10
3.24171377747e-10
1.46702172386e-10
5.02546212325e-10
1.81946751124e-10

