# vtk DataFile Version 3.0
File Name: Molecule/methanol/methanol_6.0-0.vtk
ASCII
DATASET UNSTRUCTURED_GRID
FIELD FieldData 1
TIME 1 1 double
0.0
POINTS 286 double
1.611 0.0 -0.359
1.554 -0.436 -0.353
1.403 0.0 -0.933
1.351 -0.397 -0.928
1.386 -0.842 -0.336
1.198 -0.767 -0.912
1.12 -1.191 -0.31
0.956 -1.085 -0.888
0.773 -1.459 -0.275
0.639 -1.329 -0.857
0.368 -1.627 -0.235
0.271 -1.482 -0.82
-0.065 -1.684 -0.192
-0.124 -1.534 -0.781
-0.499 -1.627 -0.149
-0.519 -1.482 -0.741
-0.903 -1.459 -0.108
-0.887 -1.329 -0.705
-1.251 -1.191 -0.074
-1.204 -1.085 -0.673
-1.517 -0.842 -0.047
-1.446 -0.767 -0.649
-1.684 -0.436 -0.031
-1.599 -0.397 -0.634
-1.742 0.0 -0.025
-1.651 0.0 -0.629
-1.684 0.436 -0.031
-1.599 0.397 -0.634
-1.517 0.842 -0.047
-1.446 0.767 -0.649
-1.251 1.191 -0.074
-1.204 1.085 -0.673
-0.903 1.459 -0.108
-0.887 1.329 -0.705
-0.499 1.627 -0.149
-0.519 1.482 -0.741
-0.065 1.684 -0.192
-0.124 1.534 -0.781
0.368 1.627 -0.235
0.271 1.482 -0.82
0.773 1.459 -0.275
0.639 1.329 -0.857
1.12 1.191 -0.31
0.956 1.085 -0.888
1.386 0.842 -0.336
1.198 0.767 -0.912
1.554 0.436 -0.353
1.351 0.397 -0.928
1.907 0.0 0.656
1.859 0.42 0.656
1.859 0.21 1.019
1.859 -0.21 1.019
1.859 -0.42 0.656
1.859 -0.21 0.292
1.859 0.21 0.292
1.72 0.709 1.065
1.72 0.409 1.365
1.72 -0.0 1.475
1.72 -0.409 1.365
1.72 -0.709 1.065
1.72 -0.819 0.656
1.72 -0.709 0.246
1.72 -0.409 -0.054
1.72 -0.0 -0.163
1.72 0.409 -0.054
1.72 0.709 0.246
1.72 0.819 0.656
1.495 1.106 1.058
1.495 0.902 1.412
1.495 0.588 1.675
1.495 0.204 1.815
1.495 -0.204 1.815
1.495 -0.588 1.675
1.495 -0.902 1.412
1.495 -1.106 1.058
1.495 -1.177 0.656
1.495 -1.106 0.253
1.495 -0.902 -0.101
1.495 0.902 -0.101
1.495 1.106 0.253
1.495 1.177 0.656
1.196 1.416 1.071
1.196 1.241 1.453
1.196 0.966 1.771
1.196 0.613 1.998
1.196 0.21 2.116
1.196 -0.21 2.116
1.196 -0.613 1.998
1.196 -0.966 1.771
1.196 -1.241 1.453
1.196 -1.416 1.071
1.196 -1.476 0.656
1.196 -1.416 0.24
1.196 1.416 0.24
1.196 1.476 0.656
0.838 1.651 1.063
0.838 1.506 1.446
0.838 1.273 1.783
0.838 0.966 2.055
0.838 0.603 2.246
0.838 0.205 2.344
0.838 -0.205 2.344
0.838 -0.603 2.246
0.838 -0.966 2.055
0.838 -1.273 1.783
0.838 -1.506 1.446
0.838 -1.651 1.063
0.838 -1.701 0.656
0.838 -1.651 0.249
0.838 1.651 0.249
0.838 1.701 0.656
0.439 1.794 1.065
0.439 1.658 1.454
0.439 1.439 1.803
0.439 1.147 2.094
0.439 0.798 2.314
0.439 0.409 2.45
0.439 0.0 2.496
0.439 -0.409 2.45
0.439 -0.798 2.314
0.439 -1.147 2.094
0.439 -1.439 1.803
0.439 -1.658 1.454
0.439 -1.794 1.065
0.439 -1.84 0.656
0.439 -1.794 0.246
0.439 1.794 0.246
0.439 1.84 0.656
0.019 1.843 1.061
0.019 1.713 1.448
0.019 1.503 1.798
0.019 1.222 2.094
0.019 0.884 2.323
0.019 0.505 2.474
0.019 0.102 2.54
0.019 -0.305 2.518
0.019 -0.699 2.409
0.019 -1.059 2.218
0.019 -1.37 1.954
0.019 -1.617 1.629
0.019 -1.789 1.258
0.019 -1.876 0.86
0.019 -1.876 0.452
0.019 -1.789 0.053
0.019 1.843 0.25
0.019 1.888 0.656
-0.401 1.84 0.656
-0.401 1.794 1.065
-0.401 1.658 1.454
-0.401 1.439 1.803
-0.401 1.147 2.094
-0.401 0.798 2.314
-0.401 0.409 2.45
-0.401 0.0 2.496
-0.401 -0.409 2.45
-0.401 -0.798 2.314
-0.401 -1.147 2.094
-0.401 -1.439 1.803
-0.401 -1.658 1.454
-0.401 -1.794 1.065
-0.401 -1.84 0.656
-0.401 -1.794 0.246
-0.401 1.794 0.246
-0.8 1.701 0.656
-0.8 1.651 1.063
-0.8 1.506 1.446
-0.8 1.273 1.783
-0.8 0.966 2.055
-0.8 0.603 2.246
-0.8 0.205 2.344
-0.8 -0.205 2.344
-0.8 -0.603 2.246
-0.8 -0.966 2.055
-0.8 -1.273 1.783
-0.8 -1.506 1.446
-0.8 -1.651 1.063
-0.8 -1.701 0.656
-0.8 -1.651 0.249
-0.8 1.651 0.249
-1.158 1.476 0.656
-1.158 1.416 1.071
-1.158 1.241 1.453
-1.158 0.966 1.771
-1.158 0.613 1.998
-1.158 0.21 2.116
-1.158 -0.21 2.116
-1.158 -0.613 1.998
-1.158 -0.966 1.771
-1.158 -1.241 1.453
-1.158 -1.416 1.071
-1.158 -1.476 0.656
-1.158 -1.416 0.24
-1.158 1.416 0.24
-1.457 1.177 0.656
-1.457 1.106 1.058
-1.457 0.902 1.412
-1.457 0.588 1.675
-1.457 0.204 1.815
-1.457 -0.204 1.815
-1.457 -0.588 1.675
-1.457 -0.902 1.412
-1.457 -1.106 1.058
-1.457 -1.177 0.656
-1.457 -1.106 0.253
-1.457 1.106 0.253
-1.682 0.819 0.656
-1.682 0.709 1.065
-1.682 0.409 1.365
-1.682 -0.0 1.475
-1.682 -0.409 1.365
-1.682 -0.709 1.065
-1.682 -0.819 0.656
-1.682 -0.709 0.246
-1.682 0.709 0.246
-1.821 0.42 0.656
-1.821 0.21 1.019
-1.821 -0.21 1.019
-1.821 -0.42 0.656
-1.821 -0.21 0.292
-1.821 0.21 0.292
-1.868 -0.0 0.656
1.172 -0.719 -1.152
0.886 -0.986 -1.348
0.886 -0.699 -1.663
1.172 -0.415 -1.456
0.886 -0.317 -1.853
1.172 -0.0 -1.567
0.886 0.107 -1.892
1.172 0.415 -1.456
0.886 0.517 -1.776
0.886 0.857 -1.519
1.172 0.719 -1.152
0.886 1.082 -1.156
0.518 -1.328 -1.169
0.518 -1.13 -1.558
0.518 -0.821 -1.867
0.518 -0.431 -2.065
0.518 0.0 -2.133
0.518 0.431 -2.065
0.518 0.821 -1.867
0.518 1.13 -1.558
0.518 1.328 -1.169
0.099 -1.458 -1.165
0.099 -1.278 -1.559
0.099 -0.995 -1.885
0.099 -0.631 -2.119
0.099 -0.216 -2.241
0.099 0.216 -2.241
0.099 0.631 -2.119
0.099 0.995 -1.885
0.099 1.278 -1.559
0.099 1.458 -1.165
-0.338 -1.458 -1.165
-0.338 -1.278 -1.559
-0.338 -0.995 -1.885
-0.338 -0.631 -2.119
-0.338 -0.216 -2.241
-0.338 0.216 -2.241
-0.338 0.631 -2.119
-0.338 0.995 -1.885
-0.338 1.278 -1.559
-0.338 1.458 -1.165
-0.757 -1.328 -1.169
-0.757 -1.13 -1.558
-0.757 -0.821 -1.867
-0.757 -0.431 -2.065
-0.757 0.0 -2.133
-0.757 0.431 -2.065
-0.757 0.821 -1.867
-0.757 1.13 -1.558
-0.757 1.328 -1.169
-1.125 -1.14 -0.95
-1.125 -0.986 -1.348
-1.125 -0.699 -1.663
-1.125 -0.317 -1.853
-1.125 0.107 -1.892
-1.125 0.517 -1.776
-1.125 0.857 -1.519
-1.125 1.082 -1.156
-1.411 -0.719 -1.152
-1.411 -0.415 -1.456
-1.411 -0.0 -1.567
-1.411 0.415 -1.456
-1.411 0.719 -1.152
-1.593 -0.216 -1.112
-1.593 0.216 -1.112

CELLS 568 2272
3 0 1 2
3 2 1 3
3 1 4 3
3 3 4 5
3 4 6 5
3 5 6 7
3 6 8 7
3 7 8 9
3 8 10 9
3 9 10 11
3 10 12 11
3 11 12 13
3 12 14 13
3 13 14 15
3 14 16 15
3 15 16 17
3 16 18 17
3 17 18 19
3 18 20 19
3 19 20 21
3 20 22 21
3 21 22 23
3 22 24 23
3 23 24 25
3 24 26 25
3 25 26 27
3 26 28 27
3 27 28 29
3 28 30 29
3 29 30 31
3 30 32 31
3 31 32 33
3 32 34 33
3 33 34 35
3 34 36 35
3 35 36 37
3 36 38 37
3 37 38 39
3 38 40 39
3 39 40 41
3 40 42 41
3 41 42 43
3 42 44 43
3 43 44 45
3 44 46 45
3 45 46 47
3 46 0 47
3 47 0 2
3 48 49 50
3 48 50 51
3 48 51 52
3 48 52 53
3 48 53 54
3 48 54 49
3 50 49 55
3 50 55 56
3 50 56 57
3 51 50 57
3 51 57 58
3 51 58 59
3 52 51 59
3 52 59 60
3 52 60 61
3 53 52 61
3 53 61 62
3 53 62 63
3 54 53 63
3 54 63 64
3 54 64 65
3 49 54 65
3 49 65 66
3 49 66 55
3 55 66 67
3 55 67 68
3 56 55 68
3 56 68 69
3 56 69 70
3 57 56 70
3 57 70 71
3 58 57 71
3 58 71 72
3 58 72 73
3 59 58 73
3 59 73 74
3 60 59 74
3 60 74 75
3 60 75 76
3 61 60 76
3 61 76 77
3 62 61 77
3 65 64 78
3 65 78 79
3 66 65 79
3 66 79 80
3 66 80 67
3 67 80 81
3 67 81 82
3 68 67 82
3 68 82 83
3 69 68 83
3 69 83 84
3 70 69 84
3 70 84 85
3 70 85 86
3 71 70 86
3 71 86 87
3 72 71 87
3 72 87 88
3 73 72 88
3 73 88 89
3 74 73 89
3 74 89 90
3 75 74 90
3 75 90 91
3 75 91 92
3 76 75 92
3 80 79 93
3 80 93 94
3 80 94 81
3 81 94 95
3 81 95 96
3 82 81 96
3 82 96 97
3 83 82 97
3 83 97 98
3 84 83 98
3 84 98 99
3 85 84 99
3 85 99 100
3 85 100 101
3 86 85 101
3 86 101 102
3 87 86 102
3 87 102 103
3 88 87 103
3 88 103 104
3 89 88 104
3 89 104 105
3 90 89 105
3 90 105 106
3 91 90 106
3 91 106 107
3 91 107 108
3 92 91 108
3 94 93 109
3 94 109 110
3 94 110 95
3 95 110 111
3 95 111 112
3 96 95 112
3 96 112 113
3 97 96 113
3 97 113 114
3 98 97 114
3 98 114 115
3 99 98 115
3 99 115 116
3 100 99 116
3 100 116 117
3 101 100 117
3 101 117 118
3 102 101 118
3 102 118 119
3 103 102 119
3 103 119 120
3 104 103 120
3 104 120 121
3 105 104 121
3 105 121 122
3 106 105 122
3 106 122 123
3 107 106 123
3 107 123 124
3 107 124 125
3 108 107 125
3 110 109 126
3 110 126 127
3 110 127 111
3 111 127 128
3 111 128 129
3 112 111 129
3 112 129 130
3 113 112 130
3 113 130 131
3 114 113 131
3 114 131 132
3 115 114 132
3 115 132 133
3 116 115 133
3 116 133 134
3 117 116 134
3 117 134 135
3 118 117 135
3 118 135 136
3 119 118 136
3 119 136 137
3 120 119 137
3 120 137 138
3 121 120 138
3 121 138 139
3 122 121 139
3 122 139 140
3 123 122 140
3 123 140 141
3 124 123 141
3 124 141 142
3 125 124 142
3 125 142 143
3 127 126 144
3 127 144 145
3 127 145 128
3 128 145 146
3 128 146 147
3 129 128 147
3 129 147 148
3 130 129 148
3 130 148 149
3 131 130 149
3 131 149 150
3 132 131 150
3 132 150 151
3 133 132 151
3 133 151 152
3 134 133 152
3 134 152 153
3 135 134 153
3 135 153 154
3 136 135 154
3 136 154 155
3 137 136 155
3 137 155 156
3 138 137 156
3 138 156 157
3 139 138 157
3 139 157 158
3 140 139 158
3 140 158 159
3 141 140 159
3 141 159 160
3 142 141 160
3 142 160 161
3 143 142 161
3 146 144 162
3 145 144 146
3 147 146 163
3 147 163 164
3 148 147 164
3 148 164 165
3 149 148 165
3 149 165 166
3 150 149 166
3 150 166 167
3 151 150 167
3 151 167 168
3 152 151 168
3 152 168 169
3 153 152 169
3 153 169 170
3 154 153 170
3 154 170 171
3 155 154 171
3 155 171 172
3 156 155 172
3 156 172 173
3 157 156 173
3 157 173 174
3 158 157 174
3 158 174 175
3 159 158 175
3 159 175 176
3 160 159 176
3 161 160 176
3 161 176 177
3 163 162 178
3 146 162 163
3 164 163 179
3 164 179 180
3 165 164 180
3 165 180 181
3 166 165 181
3 166 181 182
3 167 166 182
3 167 182 183
3 168 167 183
3 168 183 184
3 169 168 184
3 169 184 185
3 170 169 185
3 171 170 185
3 171 185 186
3 172 171 186
3 172 186 187
3 173 172 187
3 173 187 188
3 174 173 188
3 174 188 189
3 175 174 189
3 175 189 190
3 176 175 190
3 177 176 190
3 177 190 191
3 179 178 192
3 163 178 179
3 180 179 193
3 180 193 194
3 181 180 194
3 181 194 195
3 182 181 195
3 182 195 196
3 183 182 196
3 183 196 197
3 184 183 197
3 184 197 198
3 185 184 198
3 186 185 198
3 186 198 199
3 187 186 199
3 187 199 200
3 188 187 200
3 188 200 201
3 189 188 201
3 189 201 202
3 190 189 202
3 191 190 202
3 191 202 203
3 193 192 204
3 179 192 193
3 194 193 205
3 194 205 206
3 195 194 206
3 195 206 207
3 196 195 207
3 197 196 207
3 197 207 208
3 198 197 208
3 198 208 209
3 199 198 209
3 200 199 209
3 200 209 210
3 201 200 210
3 201 210 211
3 202 201 211
3 203 202 211
3 203 211 212
3 205 204 213
3 193 204 205
3 206 205 214
3 206 214 215
3 207 206 215
3 208 207 215
3 208 215 216
3 209 208 216
3 210 209 216
3 210 216 217
3 211 210 217
3 212 211 217
3 212 217 218
3 214 213 219
3 205 213 214
3 215 214 220
3 216 215 220
3 217 216 220
3 218 217 220
3 219 218 220
3 214 219 220
3 219 213 26
3 219 26 24
3 219 24 218
3 218 24 22
3 218 22 212
3 212 22 20
3 212 20 203
3 203 20 18
3 203 18 191
3 191 18 16
3 191 16 177
3 177 16 14
3 177 14 161
3 161 14 12
3 161 12 143
3 143 12 10
3 143 10 125
3 125 10 108
3 108 10 8
3 108 8 92
3 92 8 6
3 92 6 76
3 76 6 77
3 77 6 4
3 77 4 1
3 77 1 62
3 62 1 63
3 63 1 0
3 63 0 46
3 63 46 64
3 64 46 78
3 78 46 44
3 78 44 42
3 78 42 79
3 79 42 93
3 93 42 40
3 93 40 109
3 109 40 38
3 109 38 126
3 126 38 144
3 144 38 36
3 144 36 162
3 162 36 34
3 162 34 178
3 178 34 32
3 178 32 192
3 192 32 30
3 192 30 204
3 204 30 28
3 204 28 213
3 213 28 26
3 221 222 223
3 224 221 223
3 224 223 225
3 226 224 225
3 226 225 227
3 228 226 227
3 228 227 229
3 228 229 230
3 231 228 230
3 231 230 232
3 222 233 234
3 223 222 234
3 223 234 235
3 223 235 236
3 225 223 236
3 225 236 237
3 227 225 237
3 227 237 238
3 229 227 238
3 229 238 239
3 230 229 239
3 230 239 240
3 232 230 240
3 232 240 241
3 233 242 243
3 234 233 243
3 234 243 244
3 235 234 244
3 235 244 245
3 236 235 245
3 236 245 246
3 237 236 246
3 237 246 247
3 238 237 247
3 238 247 248
3 239 238 248
3 239 248 249
3 240 239 249
3 240 249 250
3 241 240 250
3 241 250 251
3 242 252 253
3 243 242 253
3 243 253 254
3 244 243 254
3 244 254 255
3 245 244 255
3 246 245 255
3 246 255 256
3 246 256 257
3 247 246 257
3 247 257 258
3 248 247 258
3 248 258 259
3 249 248 259
3 249 259 260
3 250 249 260
3 250 260 261
3 251 250 261
3 253 252 262
3 253 262 263
3 254 253 263
3 254 263 264
3 255 254 264
3 255 264 265
3 256 255 265
3 256 265 266
3 257 256 266
3 257 266 267
3 258 257 267
3 258 267 268
3 259 258 268
3 259 268 269
3 260 259 269
3 260 269 270
3 261 260 270
3 262 271 272
3 263 262 272
3 263 272 273
3 264 263 273
3 265 264 273
3 265 273 274
3 266 265 274
3 266 274 275
3 267 266 275
3 267 275 276
3 268 267 276
3 268 276 277
3 269 268 277
3 269 277 278
3 270 269 278
3 272 271 279
3 273 272 279
3 273 279 280
3 274 273 280
3 274 280 281
3 275 274 281
3 275 281 282
3 276 275 282
3 277 276 282
3 277 282 283
3 278 277 283
3 280 279 284
3 281 280 284
3 281 284 285
3 282 281 285
3 283 282 285
3 283 285 27
3 283 27 29
3 283 29 31
3 283 31 278
3 278 31 33
3 278 33 270
3 270 33 35
3 270 35 261
3 261 35 37
3 261 37 251
3 251 37 39
3 251 39 241
3 241 39 41
3 241 41 232
3 232 41 43
3 232 43 231
3 231 43 45
3 231 45 47
3 231 47 228
3 228 47 2
3 228 2 226
3 226 2 224
3 224 2 3
3 224 3 221
3 221 3 5
3 221 5 7
3 221 7 222
3 222 7 233
3 233 7 9
3 233 9 11
3 233 11 242
3 242 11 13
3 242 13 252
3 252 13 15
3 252 15 262
3 262 15 17
3 262 17 271
3 271 17 19
3 271 19 21
3 271 21 279
3 279 21 23
3 279 23 284
3 284 23 25
3 284 25 285
3 285 25 27

CELL_TYPES 568
5
5
5
5
5
5
5
5
5
5
5
5
5
5
5
5
5
5
5
5
5
5
5
5
5
5
5
5
5
5
5
5
5
5
5
5
5
5
5
5
5
5
5
5
5
5
5
5
5
5
5
5
5
5
5
5
5
5
5
5
5
5
5
5
5
5
5
5
5
5
5
5
5
5
5
5
5
5
5
5
5
5
5
5
5
5
5
5
5
5
5
5
5
5
5
5
5
5
5
5
5
5
5
5
5
5
5
5
5
5
5
5
5
5
5
5
5
5
5
5
5
5
5
5
5
5
5
5
5
5
5
5
5
5
5
5
5
5
5
5
5
5
5
5
5
5
5
5
5
5
5
5
5
5
5
5
5
5
5
5
5
5
5
5
5
5
5
5
5
5
5
5
5
5
5
5
5
5
5
5
5
5
5
5
5
5
5
5
5
5
5
5
5
5
5
5
5
5
5
5
5
5
5
5
5
5
5
5
5
5
5
5
5
5
5
5
5
5
5
5
5
5
5
5
5
5
5
5
5
5
5
5
5
5
5
5
5
5
5
5
5
5
5
5
5
5
5
5
5
5
5
5
5
5
5
5
5
5
5
5
5
5
5
5
5
5
5
5
5
5
5
5
5
5
5
5
5
5
5
5
5
5
5
5
5
5
5
5
5
5
5
5
5
5
5
5
5
5
5
5
5
5
5
5
5
5
5
5
5
5
5
5
5
5
5
5
5
5
5
5
5
5
5
5
5
5
5
5
5
5
5
5
5
5
5
5
5
5
5
5
5
5
5
5
5
5
5
5
5
5
5
5
5
5
5
5
5
5
5
5
5
5
5
5
5
5
5
5
5
5
5
5
5
5
5
5
5
5
5
5
5
5
5
5
5
5
5
5
5
5
5
5
5
5
5
5
5
5
5
5
5
5
5
5
5
5
5
5
5
5
5
5
5
5
5
5
5
5
5
5
5
5
5
5
5
5
5
5
5
5
5
5
5
5
5
5
5
5
5
5
5
5
5
5
5
5
5
5
5
5
5
5
5
5
5
5
5
5
5
5
5
5
5
5
5
5
5
5
5
5
5
5
5
5
5
5
5
5
5
5
5
5
5
5
5
5
5
5
5
5
5
5
5
5
5
5
5
5
5
5
5
5
5
5
5
5
5
5
5
5
5
5
5
5
5
5
5
5
5
5
5
5
5
5
5
5
5
5
5
5
5
5
5
5
5
5
5
5
5
5
5
5
5
5
5
5
5
5
5
5
5
5
5
5
5
5
5
5
5
5
5
5
5
5
5
5
5
5

CELL_DATA 568
SCALARS cell_data_0 double
LOOKUP_TABLE default
3.24024271543e-08
6.95831484161e-09
5.08831988799e-09
6.09925878424e-09
1.01319560162e-09
2.48505404803e-09
3.88868131867e-10
2.04533569619e-10
1.72164991021e-10
3.79010933503e-10
3.45402296334e-10
4.28330548414e-10
2.18844378807e-10
2.10388847144e-10
8.12743646746e-11
3.50776148074e-10
2.07713592615e-11
6.73994435019e-10
3.91109121766e-10
9.34730941065e-10
2.59330502726e-10
4.935485237e-10
2.4857340292e-11
4.54421202544e-11
1.13147315423e-10
1.6191060554e-10
5.59814337847e-11
6.29019144153e-10
4.17180218994e-10
7.70089450032e-10
7.94929581678e-11
2.43993510778e-10
9.24845970986e-12
2.65238023657e-10
1.54219874358e-11
3.01698399153e-10
2.50657594133e-10
3.3691575393e-10
1.39408532986e-10
2.45172947721e-10
1.69745039375e-10
1.20032723383e-10
1.01669888494e-09
1.89131377833e-09
1.09686477364e-09
5.87067151202e-09
2.40811074614e-08
3.04861877602e-08
3.93301971084e-10
1.01840127024e-10
6.06620644268e-10
4.59517666838e-10
1.81002048434e-09
3.06884231354e-10
8.04414294725e-13
5.89790289266e-11
1.80209134182e-11
3.05901062576e-10
2.80814854226e-10
1.95994696201e-10
4.20654186876e-10
3.31930029165e-11
2.26698408301e-09
1.63285009576e-09
7.07055388822e-09
3.39656106132e-09
3.97374076846e-09
1.363514862e-09
7.80425295658e-10
1.07217286795e-09
5.19974330186e-12
1.26831621199e-10
3.88019711569e-11
3.25934804583e-11
7.13071684798e-11
2.46169499713e-11
1.70096984722e-11
6.83263373239e-11
8.19127552236e-12
1.1736163429e-10
1.48958860865e-10
1.46573102987e-10
2.68973284295e-11
4.78680407278e-11
5.49776406718e-10
9.35095695363e-10
7.10431879167e-10
4.13045661968e-09
4.67083681552e-09
9.95910143399e-09
4.34163037109e-11
1.98994201247e-10
1.0285179433e-10
3.47848148647e-11
1.81829031869e-11
6.31334656534e-11
4.544992707e-11
1.05879352405e-12
1.99604910672e-12
7.38332158486e-11
7.49282854043e-11
7.0423131187e-11
1.99236277002e-11
3.38028569415e-11
5.96527046987e-11
4.43164505783e-11
3.78213189094e-11
2.49089482015e-11
2.05897746649e-11
1.83346347342e-11
3.07114760114e-11
1.95910818693e-10
5.24429151983e-10
2.38775670017e-10
4.02152073417e-11
1.21011013429e-09
4.64311746539e-11
5.90004245542e-11
2.57834893044e-11
8.05437458886e-11
2.70057236315e-11
4.77058736761e-11
7.43077828934e-11
1.47147926575e-11
3.19978506346e-11
2.104391771e-11
1.35724642311e-13
5.64570055812e-12
1.4115135238e-11
3.76893643717e-11
5.31077692768e-12
1.19160394186e-11
3.54951179505e-11
3.27988456327e-11
3.18910152379e-11
3.99318676541e-11
1.52706420926e-12
6.52134880468e-11
7.28771690561e-11
1.7893691112e-10
8.48331216629e-11
1.14926668052e-10
2.24068338684e-10
2.19555839987e-10
1.35405675502e-10
5.2258910846e-11
2.05125409827e-11
3.43985768916e-11
4.8079952719e-11
1.50312787097e-11
1.98104257915e-11
4.86073763293e-12
7.27496846584e-11
2.21256237147e-11
4.65671895687e-11
3.83118803072e-11
5.29059723031e-11
3.74097027816e-12
6.2975148878e-12
4.56762164187e-12
3.56213566753e-11
1.22910520678e-11
2.79462504162e-11
2.78156670172e-11
6.39667374797e-12
2.18792393752e-11
2.77777017704e-11
1.90972821951e-11
3.35986957144e-11
3.82264694314e-11
5.22153165203e-11
3.60939379876e-12
3.07906367815e-11
9.84171434784e-12
6.0251390004e-11
6.21570031171e-11
1.73656634005e-11
8.00148618774e-12
2.02799715012e-11
1.04336776104e-11
8.20933346509e-12
6.03798140047e-12
3.15946007363e-11
2.63755929508e-11
4.94448686517e-11
1.66393092593e-11
2.92965020009e-11
1.88540411938e-11
5.11618829178e-11
2.002571713e-11
3.1004414829e-11
2.42886239783e-11
3.09086073067e-11
9.87270847257e-12
2.95747785635e-11
5.55699195275e-12
1.56230612422e-11
2.35512765175e-11
3.20904388141e-12
2.89510102025e-11
3.1583108357e-11
2.53646434304e-11
3.33924305834e-13
4.81780185972e-12
2.56368139148e-12
6.06063508141e-11
1.1820421198e-10
1.37380798147e-10
2.49423949243e-11
8.08888136461e-12
5.94959169347e-13
6.72923627246e-12
1.05418726337e-12
1.82742618152e-11
4.05338256297e-12
2.64910535615e-11
2.50719217448e-11
1.18101446252e-11
1.73537037711e-12
2.081427616e-11
1.14273776223e-11
8.28351154101e-12
4.06965175541e-11
2.31980104073e-11
1.27974413132e-11
2.21726126387e-11
3.36011637642e-11
7.64713736148e-12
2.15424813177e-11
1.55628366964e-11
1.42896200368e-11
5.28967853252e-12
2.13998420546e-11
2.91393114624e-11
4.4713147894e-11
3.47510828553e-11
1.32576111127e-11
5.49897573067e-12
1.13750022153e-12
6.10286770429e-11
1.57466021937e-10
1.57687881413e-10
1.302044874e-11
1.37900828183e-12
2.15749916987e-11
4.13199729206e-12
6.04165370329e-12
2.04447482193e-11
2.80505308401e-11
5.10005265255e-12
6.48819227958e-12
8.12240529455e-12
1.40694548676e-11
1.84177888675e-12
2.37795838763e-11
1.63600321279e-11
2.30123806002e-12
1.97335248202e-12
2.25939649317e-11
2.80761424491e-11
9.7147355123e-12
3.31901861424e-11
6.00791810609e-11
2.42558993643e-11
7.66291646352e-12
4.40159317681e-12
2.2193909705e-11
4.25059235832e-12
2.86666095381e-12
6.98579549729e-12
5.844383485e-12
4.08623128462e-13
1.96979517614e-11
1.80905006121e-11
4.77174904732e-11
3.85620501581e-11
7.92595937293e-12
9.94665476486e-12
6.06106710346e-12
3.56889401878e-12
2.14304729148e-11
1.47918611911e-11
4.04997578511e-11
4.70924109415e-12
8.30573676562e-13
1.41803111427e-11
4.65173247554e-12
2.49814197486e-11
7.39638133382e-12
3.73832675978e-11
1.56065601527e-11
2.25465617493e-12
1.5329582428e-11
2.14514504732e-11
1.41896315907e-11
1.05992260507e-11
1.22218925743e-12
1.75568063351e-11
5.32197371543e-11
6.50862335579e-11
6.06465235265e-11
1.43464993907e-11
3.51833769347e-11
5.15632842007e-13
1.96783224284e-11
1.18763338152e-11
4.49434819688e-12
2.27481417957e-11
6.35467614191e-12
1.63141129056e-11
1.04402538008e-11
2.5717361892e-11
2.33483800883e-11
7.48490133087e-12
5.50344530402e-12
1.0206699736e-11
7.47286029253e-12
5.0155420242e-12
1.56514512209e-11
9.82238347763e-12
6.01021962003e-12
4.23502396879e-12
6.35798958678e-11
3.30113304076e-11
1.09110947378e-10
4.86552064249e-11
4.67421142493e-11
5.88148429817e-11
4.66004195018e-11
3.18771427698e-14
3.29651208409e-12
2.22304236042e-12
6.00523715318e-12
1.38561508237e-11
1.48103718461e-11
4.78365108389e-12
2.07417925298e-11
8.06990732547e-12
1.0711247125e-11
1.57168066617e-11
2.83380057357e-11
6.29027276026e-11
6.06214748438e-11
7.45206902745e-11
1.49613891962e-10
3.56383201247e-11
8.97116730562e-11
1.39532892024e-11
1.01377522077e-11
1.91752514618e-11
2.27235900008e-11
9.01010510309e-12
1.6031148072e-12
3.81678885249e-11
8.0113128609e-11
3.97003519323e-11
1.71699152374e-10
2.56562950958e-10
2.11666246547e-11
7.48619588046e-11
5.05779670558e-11
1.00290465332e-10
3.94464935564e-11
7.8767288861e-11
4.90168709677e-11
2.3576146144e-10
4.93871104153e-11
2.13526232138e-10
1.29416375069e-10
2.13912314882e-10
1.71281084325e-10
2.40946929505e-10
2.26427291287e-10
2.17590307086e-10
1.80869236729e-10
1.6648060552e-10
1.6143513505e-10
1.64436536031e-10
8.07214429482e-12
3.16244099586e-11
7.24339118046e-11
3.754983575e-11
1.1913920206e-11
2.69376091637e-11
9.99635166863e-11
4.3562803939e-11
1.88753108044e-09
2.05319617738e-09
4.38097372757e-10
4.76461826383e-09
1.60232174031e-08
1.21723457233e-08
8.980570004e-09
9.08821910372e-09
1.17985746353e-11
4.91066886494e-10
4.36904481866e-10
3.40621636428e-10
7.13470819421e-11
1.0261192713e-10
9.2161087307e-11
1.13071579676e-10
4.07126034631e-11
4.19523286396e-12
3.19713574865e-11
1.32319818007e-11
6.16923956702e-11
1.34957652145e-10
1.17175410609e-10
1.57268140778e-10
1.10787581999e-10
1.38350669913e-10
1.36750038145e-10
2.28313983438e-10
2.98741317571e-10
1.73784839805e-10
7.53093513961e-09
1.20237713152e-08
8.67534135545e-09
5.7515873313e-10
2.9276537374e-09
9.89480565558e-11
3.22441900257e-09
3.35182258414e-09
1.45836947344e-08
1.34590185415e-08
1.40087864827e-08
5.12261209123e-09
8.05384116214e-09
5.31848202055e-09
2.98169097506e-09
1.2927648236e-08
6.85886576765e-09
1.66245481582e-09
6.7434361649e-09
2.22935622149e-09
6.2673924738e-09
9.96959486543e-11
6.15910277269e-10
8.02311025272e-10
2.4961370228e-10
4.32053944363e-12
5.1937183396e-11
5.44628358925e-11
3.18379588966e-10
1.21424075326e-09
8.19746831011e-10
2.66148252991e-09
7.59348150166e-10
1.6248593825e-09
2.8154141052e-10
6.11467924075e-10
2.67474886651e-10
2.56330564154e-10
1.68661529669e-10
1.63730158321e-10
3.52815366731e-10
2.6263680075e-10
1.78969040476e-10
3.83530534334e-10
3.09603034585e-11
5.37972399005e-10
3.7031641509e-10
1.02250015197e-09
1.43307018467e-10
2.55161642092e-10
6.96650780088e-10
1.88733435582e-10
6.51686771784e-10
1.08937930646e-10
5.53732238775e-10
3.43514206055e-10
7.13202165201e-10
3.44968301111e-10
7.93071955001e-11
1.08076347936e-10
1.30929560204e-10
3.00464819614e-10
4.69546604726e-10
4.45160371116e-11
4.80795323704e-11
5.8126069746e-10
1.78282977656e-10
4.72743079299e-10
3.49274994917e-10
5.22997409269e-10
6.79793411936e-12
1.93643395009e-10
9.76197750158e-13
1.13769380161e-10
1.75968151996e-11
7.59188908905e-11
2.29479252965e-10
3.78378088901e-11
6.75363537415e-11
4.50720457415e-11
4.90158497177e-10
3.24239040251e-11
4.17698250308e-10
2.20053549898e-10
1.94611190518e-10
3.62124709728e-10
4.10965582362e-10
2.46285512975e-10
5.4939034395e-11
5.99673787452e-11
4.72938618403e-14
5.61582513339e-11
1.91402852869e-10
2.62083763548e-10
1.10175095246e-10
7.29665640085e-11
1.02675221358e-11
9.44237996728e-11
3.16942204062e-10
1.0199597084e-10
4.74716226995e-10
3.99847231381e-10
6.80030727494e-11
1.04804333265e-10
9.69274360159e-11
3.50717003241e-11
1.77202988556e-10
1.8828015409e-10
4.85171608598e-10
6.59231354708e-10
7.80907858993e-11
2.5101310741e-10
3.59717004235e-11
1.54135238342e-10
1.21639597357e-10
3.82173514337e-10
3.0252045376e-11
6.07962718109e-11
1.16462052308e-10
2.88822668409e-10
4.02397944729e-10
3.48263789516e-10
6.53161426096e-09
7.27384103068e-09
7.15863654648e-09
6.3106143365e-09
8.28879235571e-09
3.26431983677e-09
1.18147742228e-08
1.13082844413e-08
3.73168569776e-09
3.30201578362e-09
8.10017302665e-10
2.04655386024e-08
1.95332736831e-08
7.29355057458e-11
5.81881136451e-11
1.29973364541e-10
1.21249683452e-10
7.39460650627e-11
2.65246495571e-10
5.09650206338e-12
6.36543318013e-11
5.61541008044e-10
1.00228705424e-10
2.2779282523e-10
3.78053533501e-10
3.18062489863e-10
2.13009440222e-11
6.6866526841e-11
1.10238581038e-10
2.5051290619e-11

