# vtk DataFile Version 3.0
File Name: Molecule/methanol/methanol_12.0-0.vtk
ASCII
DATASET UNSTRUCTURED_GRID
FIELD FieldData 1
TIME 1 1 double
0.0
POINTS 601 double
1.611 0.0 -0.359
1.582 -0.31 -0.356
1.475 0.0 -0.634
1.448 -0.29 -0.632
1.403 0.0 -0.933
1.377 -0.282 -0.93
1.498 -0.608 -0.348
1.369 -0.57 -0.624
1.3 -0.554 -0.923
1.36 -0.887 -0.334
1.24 -0.83 -0.611
1.174 -0.808 -0.91
1.173 -1.135 -0.315
1.066 -1.062 -0.594
1.004 -1.034 -0.893
0.945 -1.344 -0.292
0.852 -1.258 -0.572
0.796 -1.224 -0.872
0.682 -1.508 -0.266
0.605 -1.411 -0.548
0.557 -1.374 -0.849
0.393 -1.62 -0.238
0.335 -1.517 -0.521
0.294 -1.476 -0.822
0.089 -1.677 -0.207
0.051 -1.57 -0.493
0.017 -1.528 -0.795
-0.22 -1.677 -0.176
-0.239 -1.57 -0.464
-0.265 -1.528 -0.767
-0.524 -1.62 -0.146
-0.523 -1.517 -0.435
-0.542 -1.476 -0.739
-0.813 -1.508 -0.117
-0.793 -1.411 -0.408
-0.805 -1.374 -0.713
-1.075 -1.344 -0.091
-1.039 -1.258 -0.384
-1.044 -1.224 -0.689
-1.304 -1.135 -0.069
-1.253 -1.062 -0.363
-1.252 -1.034 -0.668
-1.49 -0.887 -0.05
-1.428 -0.83 -0.345
-1.422 -0.808 -0.651
-1.628 -0.608 -0.036
-1.557 -0.57 -0.332
-1.548 -0.554 -0.639
-1.713 -0.31 -0.028
-1.636 -0.29 -0.324
-1.625 -0.282 -0.631
-1.742 0.0 -0.025
-1.663 0.0 -0.322
-1.651 0.0 -0.629
-1.713 0.31 -0.028
-1.636 0.29 -0.324
-1.625 0.282 -0.631
-1.628 0.608 -0.036
-1.557 0.57 -0.332
-1.548 0.554 -0.639
-1.49 0.887 -0.05
-1.428 0.83 -0.345
-1.422 0.808 -0.651
-1.304 1.135 -0.069
-1.253 1.062 -0.363
-1.252 1.034 -0.668
-1.075 1.344 -0.091
-1.039 1.258 -0.384
-1.044 1.224 -0.689
-0.813 1.508 -0.117
-0.793 1.411 -0.408
-0.805 1.374 -0.713
-0.524 1.62 -0.146
-0.523 1.517 -0.435
-0.542 1.476 -0.739
-0.22 1.677 -0.176
-0.239 1.57 -0.464
-0.265 1.528 -0.767
0.089 1.677 -0.207
0.051 1.57 -0.493
0.017 1.528 -0.795
0.393 1.62 -0.238
0.335 1.517 -0.521
0.294 1.476 -0.822
0.682 1.508 -0.266
0.605 1.411 -0.548
0.557 1.374 -0.849
0.945 1.344 -0.292
0.852 1.258 -0.572
0.796 1.224 -0.872
1.173 1.135 -0.315
1.066 1.062 -0.594
1.004 1.034 -0.893
1.36 0.887 -0.334
1.24 0.83 -0.611
1.174 0.808 -0.91
1.498 0.608 -0.348
1.369 0.57 -0.624
1.3 0.554 -0.923
1.582 0.31 -0.356
1.448 0.29 -0.632
1.377 0.282 -0.93
1.907 0.0 0.656
1.883 0.295 0.656
1.883 0.148 0.911
1.883 -0.148 0.911
1.883 -0.295 0.656
1.883 -0.148 0.4
1.883 0.148 0.4
1.814 0.505 0.947
1.814 0.292 1.161
1.814 -0.0 1.239
1.814 -0.292 1.161
1.814 -0.505 0.947
1.814 -0.583 0.656
1.814 -0.505 0.364
1.814 -0.292 0.15
1.814 -0.0 0.072
1.814 0.292 0.15
1.814 0.505 0.364
1.814 0.583 0.656
1.701 0.805 0.949
1.701 0.656 1.206
1.701 0.428 1.398
1.701 0.149 1.499
1.701 -0.149 1.499
1.701 -0.428 1.398
1.701 -0.656 1.206
1.701 -0.805 0.949
1.701 -0.857 0.656
1.701 -0.805 0.363
1.701 -0.656 0.105
1.701 -0.428 -0.087
1.701 -0.149 -0.188
1.701 0.149 -0.188
1.701 0.428 -0.087
1.701 0.656 0.105
1.701 0.805 0.363
1.701 0.857 0.656
1.546 1.072 0.943
1.546 0.961 1.21
1.546 0.784 1.44
1.546 0.555 1.616
1.546 0.287 1.727
1.546 0.0 1.765
1.546 -0.287 1.727
1.546 -0.555 1.616
1.546 -0.784 1.44
1.546 -0.961 1.21
1.546 -1.072 0.943
1.546 -1.109 0.656
1.546 -1.072 0.368
1.546 -0.961 0.101
1.546 -0.784 -0.129
1.546 0.784 -0.129
1.546 0.961 0.101
1.546 1.072 0.368
1.546 1.109 0.656
1.354 1.301 0.953
1.354 1.202 1.235
1.354 1.043 1.488
1.354 0.832 1.699
1.354 0.579 1.858
1.354 0.297 1.957
1.354 0.0 1.99
1.354 -0.297 1.957
1.354 -0.579 1.858
1.354 -0.832 1.699
1.354 -1.043 1.488
1.354 -1.202 1.235
1.354 -1.301 0.953
1.354 -1.335 0.656
1.354 -1.301 0.359
1.354 -1.202 0.077
1.354 -1.043 -0.177
1.354 1.043 -0.177
1.354 1.202 0.077
1.354 1.301 0.359
1.354 1.335 0.656
1.128 1.499 0.945
1.128 1.418 1.223
1.128 1.285 1.481
1.128 1.105 1.709
1.128 0.886 1.899
1.128 0.634 2.045
1.128 0.36 2.14
1.128 0.073 2.181
1.128 -0.217 2.167
1.128 -0.499 2.099
1.128 -0.764 1.978
1.128 -1.0 1.81
1.128 -1.2 1.6
1.128 -1.357 1.355
1.128 -1.465 1.086
1.128 -1.52 0.801
1.128 -1.52 0.51
1.128 -1.465 0.225
1.128 -1.357 -0.044
1.128 1.285 -0.17
1.128 1.418 0.088
1.128 1.499 0.367
1.128 1.527 0.656
0.876 1.656 0.948
0.876 1.58 1.231
0.876 1.456 1.496
0.876 1.288 1.737
0.876 1.081 1.944
0.876 0.841 2.112
0.876 0.575 2.236
0.876 0.292 2.312
0.876 0.0 2.337
0.876 -0.292 2.312
0.876 -0.575 2.236
0.876 -0.841 2.112
0.876 -1.081 1.944
0.876 -1.288 1.737
0.876 -1.456 1.496
0.876 -1.58 1.231
0.876 -1.656 0.948
0.876 -1.682 0.656
0.876 -1.656 0.364
0.876 -1.58 0.08
0.876 1.58 0.08
0.876 1.656 0.364
0.876 1.682 0.656
0.602 1.771 0.951
0.602 1.698 1.238
0.602 1.579 1.51
0.602 1.417 1.758
0.602 1.216 1.976
0.602 0.982 2.158
0.602 0.721 2.3
0.602 0.441 2.396
0.602 0.148 2.445
0.602 -0.148 2.445
0.602 -0.441 2.396
0.602 -0.721 2.3
0.602 -0.982 2.158
0.602 -1.216 1.976
0.602 -1.417 1.758
0.602 -1.579 1.51
0.602 -1.698 1.238
0.602 -1.771 0.951
0.602 -1.795 0.656
0.602 -1.771 0.36
0.602 -1.698 0.073
0.602 1.698 0.073
0.602 1.771 0.36
0.602 1.795 0.656
0.314 1.841 0.947
0.314 1.773 1.232
0.314 1.661 1.502
0.314 1.508 1.751
0.314 1.318 1.974
0.314 1.096 2.164
0.314 0.846 2.317
0.314 0.576 2.429
0.314 0.292 2.497
0.314 -0.0 2.52
0.314 -0.292 2.497
0.314 -0.576 2.429
0.314 -0.846 2.317
0.314 -1.096 2.164
0.314 -1.318 1.974
0.314 -1.508 1.751
0.314 -1.661 1.502
0.314 -1.773 1.232
0.314 -1.841 0.947
0.314 -1.864 0.656
0.314 -1.841 0.364
0.314 -1.773 0.08
0.314 1.773 0.08
0.314 1.841 0.364
0.314 1.864 0.656
0.019 1.865 0.944
0.019 1.8 1.225
0.019 1.692 1.493
0.019 1.544 1.742
0.019 1.36 1.964
0.019 1.144 2.157
0.019 0.902 2.314
0.019 0.638 2.432
0.019 0.359 2.509
0.019 0.072 2.542
0.019 -0.216 2.531
0.019 -0.5 2.476
0.019 -0.772 2.378
0.019 -1.026 2.24
0.019 -1.256 2.065
0.019 -1.456 1.857
0.019 -1.622 1.62
0.019 -1.751 1.361
0.019 -1.838 1.086
0.019 -1.882 0.8
0.019 -1.882 0.511
0.019 -1.838 0.226
0.019 -1.751 -0.05
0.019 1.8 0.086
0.019 1.865 0.367
0.019 1.888 0.656
-0.276 1.864 0.656
-0.276 1.841 0.947
-0.276 1.773 1.232
-0.276 1.661 1.502
-0.276 1.508 1.751
-0.276 1.318 1.974
-0.276 1.096 2.164
-0.276 0.846 2.317
-0.276 0.576 2.429
-0.276 0.292 2.497
-0.276 -0.0 2.52
-0.276 -0.292 2.497
-0.276 -0.576 2.429
-0.276 -0.846 2.317
-0.276 -1.096 2.164
-0.276 -1.318 1.974
-0.276 -1.508 1.751
-0.276 -1.661 1.502
-0.276 -1.773 1.232
-0.276 -1.841 0.947
-0.276 -1.864 0.656
-0.276 -1.841 0.364
-0.276 -1.773 0.08
-0.276 1.773 0.08
-0.276 1.841 0.364
-0.564 1.795 0.656
-0.564 1.771 0.951
-0.564 1.698 1.238
-0.564 1.579 1.51
-0.564 1.417 1.758
-0.564 1.216 1.976
-0.564 0.982 2.158
-0.564 0.721 2.3
-0.564 0.441 2.396
-0.564 0.148 2.445
-0.564 -0.148 2.445
-0.564 -0.441 2.396
-0.564 -0.721 2.3
-0.564 -0.982 2.158
-0.564 -1.216 1.976
-0.564 -1.417 1.758
-0.564 -1.579 1.51
-0.564 -1.698 1.238
-0.564 -1.771 0.951
-0.564 -1.795 0.656
-0.564 -1.771 0.36
-0.564 -1.698 0.073
-0.564 1.698 0.073
-0.564 1.771 0.36
-0.838 1.682 0.656
-0.838 1.656 0.948
-0.838 1.58 1.231
-0.838 1.456 1.496
-0.838 1.288 1.737
-0.838 1.081 1.944
-0.838 0.841 2.112
-0.838 0.575 2.236
-0.838 0.292 2.312
-0.838 0.0 2.337
-0.838 -0.292 2.312
-0.838 -0.575 2.236
-0.838 -0.841 2.112
-0.838 -1.081 1.944
-0.838 -1.288 1.737
-0.838 -1.456 1.496
-0.838 -1.58 1.231
-0.838 -1.656 0.948
-0.838 -1.682 0.656
-0.838 -1.656 0.364
-0.838 -1.58 0.08
-0.838 1.58 0.08
-0.838 1.656 0.364
-1.09 1.527 0.656
-1.09 1.499 0.945
-1.09 1.418 1.223
-1.09 1.285 1.481
-1.09 1.105 1.709
-1.09 0.886 1.899
-1.09 0.634 2.045
-1.09 0.36 2.14
-1.09 0.073 2.181
-1.09 -0.217 2.167
-1.09 -0.499 2.099
-1.09 -0.764 1.978
-1.09 -1.0 1.81
-1.09 -1.2 1.6
-1.09 -1.357 1.355
-1.09 -1.465 1.086
-1.09 -1.52 0.801
-1.09 -1.52 0.51
-1.09 -1.465 0.225
-1.09 1.418 0.088
-1.09 1.499 0.367
-1.316 1.335 0.656
-1.316 1.301 0.953
-1.316 1.202 1.235
-1.316 1.043 1.488
-1.316 0.832 1.699
-1.316 0.579 1.858
-1.316 0.297 1.957
-1.316 0.0 1.99
-1.316 -0.297 1.957
-1.316 -0.579 1.858
-1.316 -0.832 1.699
-1.316 -1.043 1.488
-1.316 -1.202 1.235
-1.316 -1.301 0.953
-1.316 -1.335 0.656
-1.316 -1.301 0.359
-1.316 -1.202 0.077
-1.316 1.202 0.077
-1.316 1.301 0.359
-1.508 1.109 0.656
-1.508 1.072 0.943
-1.508 0.961 1.21
-1.508 0.784 1.44
-1.508 0.555 1.616
-1.508 0.287 1.727
-1.508 0.0 1.765
-1.508 -0.287 1.727
-1.508 -0.555 1.616
-1.508 -0.784 1.44
-1.508 -0.961 1.21
-1.508 -1.072 0.943
-1.508 -1.109 0.656
-1.508 -1.072 0.368
-1.508 -0.961 0.101
-1.508 0.961 0.101
-1.508 1.072 0.368
-1.663 0.857 0.656
-1.663 0.805 0.949
-1.663 0.656 1.206
-1.663 0.428 1.398
-1.663 0.149 1.499
-1.663 -0.149 1.499
-1.663 -0.428 1.398
-1.663 -0.656 1.206
-1.663 -0.805 0.949
-1.663 -0.857 0.656
-1.663 -0.805 0.363
-1.663 0.805 0.363
-1.776 0.583 0.656
-1.776 0.505 0.947
-1.776 0.292 1.161
-1.776 -0.0 1.239
-1.776 -0.292 1.161
-1.776 -0.505 0.947
-1.776 -0.583 0.656
-1.776 -0.505 0.364
-1.776 0.505 0.364
-1.845 0.295 0.656
-1.845 0.148 0.911
-1.845 -0.148 0.911
-1.845 -0.295 0.656
-1.845 -0.148 0.4
-1.776 -0.292 0.15
-1.776 0.292 0.15
-1.845 0.148 0.4
-1.868 -0.0 0.656
1.298 -0.294 -1.246
1.157 -0.653 -1.285
1.157 -0.426 -1.476
1.157 -0.148 -1.577
1.298 -0.0 -1.325
1.157 0.148 -1.577
1.298 0.294 -1.246
1.157 0.426 -1.476
1.157 0.653 -1.285
0.966 -0.996 -1.17
0.966 -0.842 -1.422
0.966 -0.626 -1.624
0.966 -0.363 -1.76
0.966 -0.074 -1.82
0.966 0.221 -1.8
0.966 0.499 -1.701
0.966 0.741 -1.53
0.966 0.927 -1.301
0.733 -1.199 -1.174
0.733 -1.066 -1.439
0.733 -0.876 -1.666
0.733 -0.638 -1.843
0.733 -0.366 -1.96
0.733 -0.074 -2.011
0.733 0.222 -1.994
0.733 0.506 -1.909
0.733 0.762 -1.761
0.733 0.978 -1.558
0.733 1.141 -1.31
0.468 -1.387 -1.032
0.468 -1.296 -1.314
0.468 -1.147 -1.571
0.468 -0.949 -1.791
0.468 -0.709 -1.965
0.468 -0.438 -2.086
0.468 -0.148 -2.148
0.468 0.148 -2.148
0.468 0.438 -2.086
0.468 0.709 -1.965
0.468 0.949 -1.791
0.468 1.147 -1.571
0.468 1.296 -1.314
0.733 1.242 -1.032
0.468 1.387 -1.032
0.18 -1.477 -1.031
0.18 -1.391 -1.313
0.18 -1.252 -1.574
0.18 -1.065 -1.802
0.18 -0.836 -1.989
0.18 -0.576 -2.128
0.18 -0.294 -2.214
0.18 0.0 -2.243
0.18 0.294 -2.214
0.18 0.576 -2.128
0.18 0.836 -1.989
0.18 1.065 -1.802
0.18 1.252 -1.574
0.18 1.391 -1.313
0.18 1.477 -1.031
-0.12 -1.473 -1.17
-0.12 -1.364 -1.441
-0.12 -1.207 -1.686
-0.12 -1.005 -1.897
[...]
CELL_DATA 1198
SCALARS cell_data_0 double
LOOKUP_TABLE default
1.62483539348e-09
3.35462593428e-09
2.3544586734e-09
3.50283876022e-10
2.01572182814e-09
1.44264738143e-09
5.28866144824e-11
6.27390726218e-10
7.67775104989e-11
1.86012525812e-10
8.50377763138e-10
3.4815192267e-10
1.67156607216e-11
8.01460894026e-11
8.99249383254e-11
3.99184102387e-11
1.45362465812e-11
4.31808325244e-11
1.31810154097e-10
7.05249668434e-11
1.88600280848e-13
8.69822239821e-12
1.41122645024e-11
5.88391400253e-12
2.49339502557e-11
2.21931106166e-11
2.98470760829e-11
4.18065818721e-11
5.30671714569e-11
2.57396284155e-11
7.30781557111e-12
1.12928113423e-10
9.64053589512e-11
2.98642315261e-11
1.64833519202e-10
9.84922148159e-11
1.65427303552e-10
2.01396088969e-11
4.52727812413e-11
2.02776740633e-11
1.39208519692e-10
1.73860207224e-11
1.21272026919e-10
2.09803547677e-10
1.25675952912e-10
4.29323893157e-11
2.01129435463e-10
2.1125129835e-10
1.17750532294e-10
1.95892246965e-11
6.49764920751e-11
2.38295023419e-10
3.04409189142e-10
2.47615793318e-10
2.19980296429e-10
3.06984802685e-10
2.13455106081e-10
7.41457829529e-11
1.24679166005e-10
1.36495876476e-10
2.24028089517e-10
1.56369353747e-10
1.69051979736e-10
2.53374159766e-10
1.79197532643e-10
6.4081230497e-11
1.78725405775e-10
2.9811545863e-11
2.84162737271e-10
1.32282189165e-10
8.62371155151e-11
1.30713683254e-10
1.22774573496e-10
1.82352215381e-10
2.35703466257e-10
1.37263372274e-10
3.66671804124e-11
1.19112403301e-10
9.20699010797e-12
1.37341122278e-10
3.73428302825e-10
1.90805484967e-10
1.96287441069e-10
3.26559950142e-10
2.41135160143e-10
7.22463606608e-11
1.09764426888e-10
1.93634404254e-11
1.88630599048e-10
8.84615471216e-11
1.0696185906e-10
2.19934670014e-10
1.13330529171e-11
2.60016601944e-11
1.60651480946e-10
1.52150014294e-10
1.7537438601e-10
1.07194977381e-10
4.01432417322e-11
1.33496666032e-10
8.98825729685e-11
2.98908381206e-11
1.14482894697e-10
4.13503529354e-11
7.48790426802e-12
1.00093729801e-11
8.79140258567e-12
1.48796655138e-11
3.53791462941e-11
1.63369488666e-12
6.91990759262e-11
6.06855335864e-11
9.24873236446e-12
7.4373790512e-12
2.8581942858e-12
4.19981221844e-12
1.28393518891e-11
4.62471963157e-11
7.59457002351e-11
5.16145023552e-11
2.80548614933e-11
5.97407203655e-11
1.84279090014e-10
9.44104319521e-11
4.67241199576e-10
8.08909607295e-11
9.34962229498e-10
1.05688527046e-10
1.74526562823e-10
5.12987574867e-11
7.23671805933e-10
1.04916418945e-09
5.26466986686e-10
1.04792382044e-09
1.42660228758e-09
1.5597856991e-09
4.70357444142e-11
6.72129090672e-11
3.91941328249e-11
5.02569034476e-11
3.04970130267e-12
7.21399712369e-11
3.04544360911e-12
3.62355444134e-12
2.09695683794e-12
1.64770057923e-11
2.73982186885e-12
9.5969493464e-12
1.20026262629e-11
1.49571723799e-11
2.89073590507e-11
8.94118536184e-11
3.93160711518e-11
3.89224768596e-11
1.62261359737e-11
1.5822365669e-11
3.36983613665e-11
2.0529944088e-11
7.14216801396e-12
3.01124642419e-12
2.23460911766e-11
1.38276214853e-11
3.18736290027e-12
1.27429875722e-11
2.64040169502e-12
7.61814464779e-12
2.61642632178e-12
1.89918406957e-11
1.76621620097e-11
2.39902063835e-11
1.91852664972e-11
1.24744412944e-11
4.21741081686e-11
3.12537009243e-11
2.42280539514e-11
8.98879714426e-11
3.46735855516e-11
1.22001679658e-10
5.99270245214e-11
2.26588242767e-10
3.58010797497e-11
2.72998151397e-10
1.55732958081e-10
1.1780661917e-10
8.79565710178e-12
7.99474292408e-11
7.44737584497e-12
8.05277023637e-12
1.08442152101e-12
8.48298231563e-12
2.15746965255e-11
2.40531408837e-11
7.30654777108e-12
3.42691743694e-13
3.13640302378e-12
1.21799079225e-11
1.78530960636e-12
1.41576711952e-12
1.57805553988e-12
1.36336098545e-12
5.93757612782e-12
2.77700305796e-12
7.28286567431e-12
1.19679685103e-11
1.16971620649e-11
2.67113885586e-12
3.06613880393e-12
8.28999698533e-12
1.82040717333e-11
5.62034432054e-12
1.9434824551e-11
2.69656477774e-11
2.82507408919e-11
9.64903726005e-11
1.80040517113e-10
2.53733716893e-10
8.01412246975e-11
1.73842796603e-11
3.42719829336e-11
1.50958558687e-11
2.44547150076e-14
1.35879167058e-11
2.54429905643e-12
1.93335337568e-11
1.11678046498e-11
6.50190678342e-12
2.02392798018e-11
3.52096560974e-12
6.48214037438e-12
4.69029433807e-12
3.71502929826e-12
7.23426451733e-12
1.39581585125e-11
8.82262266464e-12
9.95092466419e-12
1.85654515097e-12
5.53749610494e-12
2.75953407929e-12
2.44449196912e-12
1.3687459083e-11
2.59434824686e-12
2.95864917361e-11
3.66814924319e-11
3.13659546796e-11
9.75203341835e-12
1.42326266579e-11
2.80209647255e-12
1.94251873735e-11
1.71754991479e-12
3.95506906767e-11
2.48942024945e-11
5.17467082164e-11
1.59210141386e-10
2.31999117845e-10
3.50094354427e-11
1.32277715197e-12
3.42665955417e-11
9.0025771492e-12
3.2804578979e-12
1.71703945807e-12
1.35389366695e-11
3.08296166981e-11
1.92232049778e-11
5.62264852676e-12
1.37043518306e-11
1.1653023764e-11
1.13160000011e-11
6.94136594024e-12
5.54582593272e-12
1.41281269236e-11
1.70283499071e-11
7.00688572298e-13
1.03626227236e-11
5.82322981801e-12
2.93229109637e-12
1.23203448556e-11
5.33424506479e-12
9.55309575954e-13
1.07897741303e-11
1.8911709636e-11
5.81917760427e-13
1.50319114676e-11
3.39714570644e-11
3.64639636907e-11
1.79301377857e-12
2.13525466367e-11
6.98395227511e-12
5.91146990061e-12
1.63891312187e-12
1.07023062354e-11
7.96149665157e-12
8.17542969446e-13
2.01453301542e-11
1.19175930316e-11
3.56443505001e-12
8.3795087733e-11
1.75028783174e-11
1.00218742261e-11
7.77429459211e-12
2.50011635129e-13
3.64164166706e-12
7.35448234408e-12
2.192051258e-11
1.70789601232e-11
1.58143852505e-11
1.07667595422e-11
1.13438561599e-11
1.18000356916e-11
1.21084768348e-11
7.8224080356e-12
3.14579600382e-12
7.85343896369e-12
3.11672177237e-12
1.40361888235e-11
2.68061951519e-12
1.53309898109e-11
2.0893735142e-11
7.68526281667e-12
1.81007540144e-12
3.03779783119e-11
7.68486201831e-12
1.40658733067e-11
5.15315271025e-12
6.61673883282e-13
1.20646536953e-11
1.58829877665e-11
9.59177183353e-12
1.40544930315e-11
4.38327152477e-12
1.41545330902e-11
1.25623562366e-11
3.23163754373e-12
1.44508022298e-11
4.95505655973e-12
1.00921023205e-12
1.10482766259e-11
1.52714710517e-11
2.99386340162e-12
2.31915010713e-12
3.48404521807e-13
8.17379602526e-12
1.3060758597e-11
5.39300428332e-12
1.12568881329e-11
1.2220706858e-11
4.58633534427e-12
1.46042779586e-12
4.11474012333e-12
9.31790608236e-12
1.76757084894e-12
1.35914049879e-11
1.90877374276e-11
1.7562558747e-11
2.37748633105e-12
3.52018022559e-12
2.47765926837e-11
2.0280565046e-11
5.81390900168e-12
3.94082025929e-13
8.57671669012e-12
2.52220258115e-11
1.95799689324e-11
6.16986298857e-12
1.69946109287e-11
2.75953497871e-12
1.36966829834e-11
1.15205471049e-13
6.42193962254e-12
1.28825940759e-11
1.33665334007e-12
2.2040819015e-11
4.95122469506e-12
2.15462589288e-11
8.34484904339e-12
1.06136086349e-11
6.46541070985e-12
1.12961520081e-11
1.05415436216e-11
4.8213490424e-12
9.67113135571e-14
2.32085670376e-12
2.53968045222e-12
4.14629099566e-12
2.99644484334e-12
1.1337451953e-12
1.32986854214e-12
8.23676440944e-12
5.73401213869e-12
1.30266365897e-12
2.24509199865e-12
1.02887196815e-11
1.46833514888e-11
1.75082516251e-12
1.58178192062e-12
2.69815023063e-12
7.95008311462e-12
4.81885906731e-12
9.66235683751e-14
2.21143635477e-11
2.3334181802e-11
1.39001615457e-11
1.52966487736e-11
1.19003824685e-11
3.88732810581e-11
4.51913689383e-11
5.3128510172e-12
3.19864637114e-11
1.38362695516e-11
2.27751675827e-11
6.03881818704e-12
2.72477544835e-12
3.62679514135e-12
1.56513419525e-11
5.65260542806e-12
1.84785117066e-11
5.78511060638e-12
2.22788176434e-11
4.63723654299e-13
1.72739152986e-11
1.02219670109e-11
1.32743665277e-11
4.72621006873e-12
2.13611580426e-12
3.56584647328e-12
5.19500784808e-13
7.6008011915e-13
5.60234969128e-12
4.66806163375e-12
1.26670263666e-12
1.83783344385e-12
1.83145024542e-12
1.99185100505e-11
1.3242500381e-11
4.04855901237e-12
3.15074605568e-13
5.48791119732e-12
2.12762346183e-11
2.60775430135e-11
1.64611088898e-12
3.16501703892e-12
1.18362479878e-11
6.88681549875e-12
8.21746235622e-12
4.20692932483e-12
4.72233062502e-12
1.38462704652e-12
1.00616520083e-11
5.34306664469e-12
1.85968489816e-11
3.28450368668e-11
2.66703609357e-12
2.29740384974e-12
2.41812908992e-11
8.54512377925e-12
3.80186258402e-11
1.22767690171e-11
9.97229256337e-12
2.58391839017e-11
2.44112117964e-12
5.38606503998e-12
6.2496866514e-12
8.86111709175e-12
1.26154406904e-11
1.04584216188e-11
1.09518081432e-11
1.14135169167e-11
1.56551611287e-11
3.89063650905e-12
6.94019282853e-13
1.89899714834e-12
1.41372716069e-11
1.59909534401e-11
5.4872940684e-12
1.53474128406e-12
4.92550328547e-13
1.07366944741e-13
1.13076539893e-12
2.96237867436e-12
3.45421239482e-12
1.72586281903e-11
4.56065331146e-11
4.30960498764e-11
2.23487755401e-12
3.6065321186e-12
6.96635984091e-12
1.4701026913e-12
7.33804249826e-12
1.10460317675e-11
5.33838638023e-12
2.1905146418e-12
9.67989730856e-12
7.90087885082e-12
1.0412358128e-11
1.11969854071e-11
1.27333987176e-12
9.86514905403e-13
3.05170355367e-13
6.51187945854e-12
7.48840795913e-12
6.21913251739e-12
1.02320461307e-12
3.5124239125e-11
2.13387473629e-11
1.49221881972e-11
2.80925610488e-11
1.28282643249e-11
3.05276106711e-11
4.52027751326e-11
9.65608243317e-12
1.32590374758e-11
2.83466883316e-12
9.47886864181e-12
3.87549184231e-12
1.73536693532e-11
3.27899583716e-12
1.75301507026e-11
9.70345193516e-12
2.10282870673e-11
4.80972994827e-12
1.21323111729e-11
1.4468040004e-11
8.07012973387e-12
1.28951665301e-11
9.83420666343e-12
4.60862101027e-12
5.38499323677e-13
7.03153234174e-13
1.70840019915e-12
4.54931714394e-12
1.55977394622e-11
4.27273279368e-11
3.78834813409e-11
1.19866291299e-11
5.41238737275e-12
1.15622223759e-11
1.10590180632e-12
1.23676050699e-12
1.51077484204e-12
1.32854980232e-12
1.25188776938e-12
4.47264016173e-12
7.16629175718e-12
4.91893714231e-12
7.27229771021e-12
1.22633837939e-11
1.1762399344e-12
1.69384145284e-12
3.78885590373e-12
6.35809647433e-12
1.10498873135e-12
4.20601162948e-12
3.47336049034e-13
1.55858674011e-11
9.00338588909e-13
6.51062239251e-12
1.87037104787e-11
7.14609488093e-12
2.05412315487e-12
1.00663879501e-11
4.96200988239e-12
5.23533297663e-12
4.92983053302e-12
7.20517632858e-12
6.28631147226e-13
1.81632190558e-12
7.34031034718e-12
1.11043760852e-12
1.03357172439e-11
1.19037622497e-11
2.59560450751e-12
1.76076414736e-12
1.2243934658e-12
1.87198470359e-12
1.64995817007e-12
3.69313734172e-13
2.54579702457e-12
3.07743577986e-12
6.22233951824e-12
4.89008724624e-11
9.82655407667e-13
4.18431507791e-12
2.44138099217e-11
1.6762298356e-11
2.00168159072e-13
1.73004068715e-12
1.42429287745e-12
3.08845901165e-12
1.93287862877e-12
7.34191117349e-12
1.01516101291e-11
7.58249223626e-13
8.59063753624e-12
2.81925726614e-12
2.60337185709e-12
3.54540649543e-12
3.35754753343e-12
3.55679075082e-12
5.14336534264e-12
1.26432385419e-13
1.08419291762e-11
7.5379975606e-12
9.17202438293e-12
1.01923231233e-13
9.90700884709e-14
2.47699318701e-12
8.95037387776e-12
2.94502769184e-12
6.64765846613e-12
2.0648240661e-12
1.40338677091e-11
1.50138302734e-11
6.91566520375e-12
4.67831337742e-12
4.87445352326e-12
1.33902416599e-12
1.18890181029e-12
4.71420021442e-12
3.65203470641e-12
3.82387385334e-12
6.75258019273e-12
8.84710877611e-13
1.6186165299e-11
1.55960187844e-11
5.49586630748e-11
2.77195364335e-11
3.24434853507e-11
4.37254816839e-13
1.59189361257e-12
8.10457974962e-12
5.76593083952e-12
4.6458678656e-12
4.19350201522e-12
1.20302469133e-12
9.20342363929e-12
1.07609227319e-11
1.92102100687e-12
1.2131214123e-11
6.00865606365e-12
1.15438725647e-12
3.6329613065e-12
6.28723826117e-12
2.56013210581e-12
4.02753963229e-12
4.1031312916e-13
9.81638415242e-13
2.42752392068e-12
3.44976332001e-13
1.50768867672e-12
3.97428632199e-12
1.69047434593e-12
1.37257493673e-11
5.42866802256e-12
5.63937317575e-12
1.06658030631e-11
5.95101270795e-12
1.30667799935e-12
6.11263693036e-13
4.28369396454e-12
1.16831657808e-12
2.24140502004e-12
4.64230367243e-12
6.85706432223e-12
1.59696295257e-11
1.16752860622e-11
9.49704629198e-12
4.79270175817e-12
4.81047469687e-11
3.17692592646e-11
1.06757995916e-11
5.44525993471e-12
1.45886963236e-12
1.48965426193e-12
4.01217283404e-12
2.40226456454e-12
1.36955279028e-12
5.05051646721e-12
5.66491427503e-12
2.31203820576e-12
7.24362157048e-12
2.367529916e-12
2.33746984922e-12
5.27757477867e-12
3.18526830238e-12
2.09674234486e-12
3.17779174186e-12
6.30609415436e-12
1.83718867829e-12
3.81611590963e-12
8.32128578347e-12
1.08177702557e-12
6.78140880053e-13
6.27390474684e-12
1.31340715531e-11
6.41060906757e-12
2.6289161074e-12
3.03008401076e-12
1.66233388915e-12
6.68501963564e-12
6.45382292648e-12
1.40912047847e-11
2.0664232297e-11
2.10965166264e-11
1.19073245036e-11
1.22204948301e-11
6.36309738322e-11
8.2224129222e-12
3.26150249729e-11
1.17161112401e-11
1.23906383168e-11
1.45800591982e-12
6.5630174966e-12
4.22084416718e-12
1.37504395356e-12
2.88980743621e-12
4.32825647361e-12
2.84355259321e-13
4.64681979366e-12
5.18196393547e-12
5.45727289381e-12
3.22953263062e-12
4.27792032966e-12
3.96728767594e-12
2.7647384956e-12
3.04553887972e-12
2.50748017076e-12
5.88144146269e-13
1.795130343e-12
6.86605690056e-12
2.97158718703e-12
2.92344888549e-12
1.57311542872e-12
7.39660682194e-13
8.14923986917e-12
1.48074048528e-11
6.26775751384e-12
2.83990037059e-11
1.82565320394e-11
3.95017308168e-11
1.15617996865e-10
1.1128420628e-11
2.5824152005e-11
2.6393655071e-11
5.2283573524e-12
1.40149891507e-11
5.23968558829e-12
9.12416362938e-12
3.4483182087e-12
2.97308015203e-12
3.30651566816e-12
1.42473669226e-12
8.87356196182e-13
3.46557475132e-12
3.67864164504e-13
6.7584405375e-12
4.35000391595e-12
4.23766262169e-12
6.79202333008e-13
2.2657254207e-12
3.04823218617e-12
6.63136973475e-12
5.18063307674e-12
9.3056305441e-12
8.09494770037e-12
1.33044683466e-11
3.88577181458e-11
4.54029369726e-11
4.44003854743e-11
1.85038804564e-11
2.58392434662e-11
2.74398218389e-11
1.19329001136e-11
6.93045829182e-12
6.79287515933e-12
2.98891439736e-12
1.30768185999e-12
9.23086012752e-13
2.73862233282e-13
1.0135012242e-12
2.79727686329e-12
5.84940614476e-12
7.18633855205e-12
3.11649740376e-12
1.40605251267e-11
4.561208872e-11
9.07290478821e-12
5.39366421727e-11
9.36589464271e-12
1.0501438868e-11
1.16164719473e-11
2.19350203812e-11
1.77890460492e-11
1.26135228139e-11
9.89428078463e-13
9.62714359899e-12
5.30054734411e-12
1.88523256115e-11
5.2743343773e-11
4.99108287187e-11
7.91552070982e-11
2.72892208836e-12
1.17619978868e-11
1.32617393247e-11
1.2295196362e-11
2.42556262287e-11
1.38269924017e-11
2.38097192443e-11
7.83550116378e-11
1.91427717615e-11
5.90141438529e-12
7.6407620437e-12
1.60058214554e-11
1.45196452571e-11
1.84384759131e-10
1.17388879958e-10
6.3666836051e-12
7.16013572232e-11
4.95239298347e-11
7.1631074125e-11
1.26456774681e-10
2.90683078236e-11
3.33925046907e-11
2.68437512704e-11
2.9500980335e-11
8.24597468553e-11
4.6841444314e-12
8.89630770271e-11
3.32180615564e-12
1.0659746337e-10
2.04335187165e-11
5.42039817011e-11
8.47026599047e-13
9.71944647071e-12
1.45921326352e-11
1.48973650514e-11
3.49951704899e-13
5.68138922491e-12
3.48647710857e-13
2.4746129126e-11
8.99177498058e-11
7.14615012047e-11
1.23160968466e-10
1.08944370872e-10
2.96913040991e-10
2.35515664251e-10
6.36824067077e-12
1.34455707607e-10
2.57270169458e-10
1.21735822085e-10
1.9104811702e-10
6.64582448294e-10
3.32110431264e-10
2.8382317017e-10
1.17202229706e-10
1.04120671814e-10
3.51165633125e-11
4.88853545506e-12
1.17035029669e-11
3.31261775177e-11
1.69410898031e-11
7.49943183353e-12
1.02106264712e-11
7.67161774495e-12
4.75485310822e-11
3.75619143662e-11
9.78416993503e-11
7.85608079531e-11
1.20683845509e-10
3.00960983132e-11
1.89935566789e-11
5.91950159468e-12
2.67993521362e-11
4.92112651692e-11
7.88100909166e-12
1.17059454421e-10
1.09105304636e-11
9.11106469443e-11
3.39927535854e-11
6.81428498476e-12
8.16840839816e-11
1.61335481565e-11
7.40940941124e-11
8.47112027127e-11
5.97036929925e-09
5.79383482845e-09
3.07009808133e-09
2.91095763207e-09
3.52556956282e-10
7.71876903624e-10
8.48058833665e-10
9.96219513314e-10
1.00358745573e-09
6.3258495288e-09
6.27490623295e-09
5.61390810473e-09
2.20339966518e-09
2.70308767418e-09
2.36641769229e-10
8.29795236043e-10
1.38030357641e-09
6.15208538867e-10
1.25453025255e-10
2.17515456064e-10
5.32633096274e-11
7.07824095224e-11
5.05578850081e-11
8.36771618949e-11
1.32714230534e-10
4.04529588372e-10
4.66175867457e-10
6.79571673023e-10
1.09427952643e-10
8.84780468267e-11
4.42207417948e-10
3.76938178965e-10
1.79217520768e-10
4.92070628419e-10
5.61116502898e-10
9.6742160384e-11
6.39398033872e-11
2.78900980835e-11
7.45664974458e-12
3.87022049772e-11
6.47734723851e-12
1.10586572856e-10
9.57398101031e-11
7.87430812314e-11
1.09563986718e-10
5.75065151889e-11
7.75896495897e-11
9.85393555622e-11
9.90240081254e-11
1.29491086287e-10
1.40770828495e-11
1.61699278626e-10
2.42066863091e-10
5.29105199682e-11
1.14400548485e-10
9.07550722643e-11
9.74911513979e-11
5.39772445658e-12
2.85597000538e-11
3.78154484892e-11
3.93676835568e-11
4.71219767536e-11
4.97458216788e-11
3.11684934795e-11
2.86406938487e-11
2.18902641324e-11
2.42069937156e-11
8.20899690063e-12
1.63326734158e-11
3.88560363247e-11
1.01337236824e-11
9.96151220553e-12
1.8552047571e-11
4.33298389262e-11
1.43101140819e-11
1.17244385869e-11
3.53716820644e-12
6.58376658357e-12
7.64659035369e-12
8.54647898387e-12
7.85643239652e-12
2.80046791541e-12
2.4480752284e-12
2.56085027279e-11
2.91507465898e-11
1.15729958787e-12
8.73362578741e-11
1.4173370914e-11
4.41869687143e-11
7.13602878467e-11
5.83859785934e-11
2.88066403553e-11
1.39433973068e-11
2.26704028759e-11
5.33048585454e-11
8.78222214761e-13
3.72461355915e-11
1.5068379567e-11
2.98167250052e-11
1.9068806556e-11
2.26745562716e-11
1.48533817354e-11
3.049314046e-11
3.78024338161e-11
2.26100118561e-11
1.9124494008e-12
5.28568927783e-11
1.99907387864e-11
4.2042524471e-11
2.40356230095e-12
3.56795410067e-11
1.82255291977e-11
4.16037709438e-11
6.79076820055e-11
6.11148086674e-11
5.83368438022e-11
1.62863218211e-11
6.23931985908e-11
3.08536586456e-11
2.50676707387e-12
1.73491143551e-11
1.56936942499e-11
8.37881095763e-11
2.56133072064e-11
7.59569425671e-12
1.03435776701e-10
3.73544598614e-11
8.36776119497e-11
5.71275251219e-12
5.51020734767e-11
8.5989115333e-12
3.81268266457e-12
1.51029785243e-11
6.37042274748e-11
4.33690099536e-12
6.42709589891e-11
4.31935953188e-11
1.9183372577e-11
4.61525172969e-11
7.01217574488e-11
8.80217473084e-11
3.23517506958e-11
5.1747341237e-11
1.84941293025e-11
5.41027823926e-11
3.5891320987e-11
9.30500423004e-11
4.66798673046e-11
1.26127668071e-11
3.32913945786e-11
2.28649617207e-11
9.33150352463e-11
1.56909706996e-10
7.91258721261e-11
1.2654340732e-10
1.26439260954e-10
5.31656946196e-11
5.1276143601e-11
9.68192265167e-13
3.8121868729e-12
3.42057906425e-11
2.27554972088e-11
8.68183905752e-11
2.04008164844e-10
1.60933098635e-11
3.96385304057e-11
7.92733308946e-11
7.67269938037e-12
9.0784971464e-12
6.24281992582e-11
4.01271939921e-12
7.2606227751e-11
1.49389660098e-10
5.49462144184e-11
8.42262260803e-12
7.23004550169e-11
1.49622722532e-11
1.31441726398e-10
5.71869735222e-11
1.12778247422e-10
7.36711051317e-11
1.38003378616e-10
2.05629001896e-11
1.66729007866e-10
1.96254137321e-11
5.28674603023e-11
2.97871248071e-11
7.83461870819e-11
7.55026873034e-11
6.96463764752e-12
5.47652319091e-11
8.64253467406e-11
4.86176151671e-11
6.39780860456e-11
9.66811019276e-11
4.45313156831e-12
1.85165798618e-10
1.64188416126e-10
3.47776710977e-11
1.12275211192e-10
8.41127602995e-12
5.04123401671e-11
1.34288103393e-10
3.56019305092e-11
2.15123935036e-10
1.72437628055e-10
6.7392215055e-11
1.15558795946e-10
6.65872694423e-13
2.18153046837e-11
7.90410811529e-11
1.0930097207e-10
3.14388420586e-11
1.69489948631e-11
1.18601197944e-11
9.2494025277e-11
2.48105332153e-11
8.22697344557e-11
1.20606451237e-11
1.20278434583e-10
5.24890358517e-11
2.10276556286e-11
1.45429158266e-10
7.64558594984e-11
1.70673352311e-10
2.52834782582e-10
3.44671700285e-11
1.28931953073e-10
7.53808304525e-11
6.90805108116e-11
1.72765431929e-11