# vtk DataFile Version 3.0
File Name: Molecule/methanol/methanol_4.5-0.vtk
ASCII
DATASET UNSTRUCTURED_GRID
FIELD FieldData 1
TIME 1 1 double
0.0
POINTS 216 double
1.611 0.0 -0.359
1.529 -0.521 -0.351
1.403 0.0 -0.933
1.328 -0.474 -0.925
1.291 -0.99 -0.327
1.111 -0.902 -0.904
0.92 -1.363 -0.29
0.773 -1.241 -0.87
0.453 -1.602 -0.243
0.348 -1.459 -0.828
-0.065 -1.684 -0.192
-0.124 -1.534 -0.781
-0.583 -1.602 -0.14
-0.596 -1.459 -0.734
-1.051 -1.363 -0.094
-1.021 -1.241 -0.691
-1.421 -0.99 -0.057
-1.359 -0.902 -0.658
-1.659 -0.521 -0.033
-1.576 -0.474 -0.636
-1.742 0.0 -0.025
-1.651 0.0 -0.629
-1.659 0.521 -0.033
-1.576 0.474 -0.636
-1.421 0.99 -0.057
-1.359 0.902 -0.658
-1.051 1.363 -0.094
-1.021 1.241 -0.691
-0.583 1.602 -0.14
-0.596 1.459 -0.734
-0.065 1.684 -0.192
-0.124 1.534 -0.781
0.453 1.602 -0.243
0.348 1.459 -0.828
0.92 1.363 -0.29
0.773 1.241 -0.87
1.291 0.99 -0.327
1.111 0.902 -0.904
1.529 0.521 -0.351
1.328 0.474 -0.925
1.907 0.0 0.656
1.842 0.489 0.656
1.842 0.244 1.079
1.842 -0.244 1.079
1.842 -0.489 0.656
1.842 -0.244 0.233
1.842 0.244 0.233
1.654 0.817 1.127
1.654 0.472 1.473
1.654 -0.0 1.599
1.654 -0.472 1.473
1.654 -0.817 1.127
1.654 -0.944 0.656
1.654 -0.817 0.184
1.654 0.817 0.184
1.654 0.944 0.656
1.354 1.245 1.138
1.354 0.986 1.555
1.354 0.595 1.85
1.354 0.123 1.985
1.354 -0.365 1.939
1.354 -0.804 1.721
1.354 -1.135 1.358
1.354 -1.312 0.901
1.354 -1.312 0.41
1.354 -1.135 -0.047
1.354 1.245 0.173
1.354 1.335 0.656
0.963 1.562 1.137
0.963 1.351 1.576
0.963 1.019 1.934
0.963 0.597 2.177
0.963 0.122 2.286
0.963 -0.364 2.249
0.963 -0.817 2.071
0.963 -1.198 1.767
0.963 -1.473 1.365
0.963 -1.616 0.899
0.963 -1.616 0.412
0.963 -1.473 -0.054
0.963 1.562 0.174
0.963 1.635 0.656
0.508 1.761 1.127
0.508 1.579 1.567
0.508 1.289 1.945
0.508 0.912 2.235
0.508 0.472 2.417
0.508 0.0 2.479
0.508 -0.472 2.417
0.508 -0.912 2.235
0.508 -1.289 1.945
0.508 -1.579 1.567
0.508 -1.761 1.127
0.508 -1.823 0.656
0.508 -1.761 0.184
0.508 1.761 0.184
0.508 1.823 0.656
0.019 1.828 1.125
0.019 1.654 1.565
0.019 1.376 1.948
0.019 1.011 2.249
0.019 0.583 2.451
0.019 0.119 2.539
0.019 -0.354 2.51
0.019 -0.804 2.363
0.019 -1.203 2.11
0.019 -1.527 1.765
0.019 -1.755 1.35
0.019 -1.873 0.892
0.019 -1.873 0.419
0.019 1.828 0.186
0.019 1.888 0.656
-0.47 1.823 0.656
-0.47 1.761 1.127
-0.47 1.579 1.567
-0.47 1.289 1.945
-0.47 0.912 2.235
-0.47 0.472 2.417
-0.47 0.0 2.479
-0.47 -0.472 2.417
-0.47 -0.912 2.235
-0.47 -1.289 1.945
-0.47 -1.579 1.567
-0.47 -1.761 1.127
-0.47 -1.823 0.656
-0.47 -1.761 0.184
-0.47 1.761 0.184
-0.925 1.635 0.656
-0.925 1.562 1.137
-0.925 1.351 1.576
-0.925 1.019 1.934
-0.925 0.597 2.177
-0.925 0.122 2.286
-0.925 -0.364 2.249
-0.925 -0.817 2.071
-0.925 -1.198 1.767
-0.925 -1.473 1.365
-0.925 -1.616 0.899
-0.925 -1.616 0.412
-0.925 1.562 0.174
-1.316 1.335 0.656
-1.316 1.245 1.138
-1.316 0.986 1.555
-1.316 0.595 1.85
-1.316 0.123 1.985
-1.316 -0.365 1.939
-1.316 -0.804 1.721
-1.316 -1.135 1.358
-1.316 -1.312 0.901
-1.316 -1.312 0.41
-1.316 1.245 0.173
-1.616 0.944 0.656
-1.616 0.817 1.127
-1.616 0.472 1.473
-1.616 -0.0 1.599
-1.616 -0.472 1.473
-1.616 -0.817 1.127
-1.616 -0.944 0.656
-1.804 0.489 0.656
-1.804 0.244 1.079
-1.804 -0.244 1.079
-1.804 -0.489 0.656
-1.868 0.0 0.656
-1.804 -0.244 0.233
-1.804 0.244 0.233
1.122 -0.591 -1.419
0.783 -1.147 -1.212
0.783 -0.878 -1.615
0.783 -0.475 -1.885
1.122 -0.128 -1.63
0.783 0.0 -1.979
1.122 0.375 -1.558
0.783 0.475 -1.885
0.783 0.878 -1.615
1.122 0.759 -1.225
0.783 1.147 -1.212
0.355 -1.284 -1.432
0.355 -0.989 -1.811
0.355 -0.586 -2.074
0.355 -0.121 -2.192
0.355 0.358 -2.152
0.355 0.798 -1.959
0.355 1.152 -1.634
0.355 1.381 -1.211
-0.12 -1.46 -1.212
-0.12 -1.242 -1.639
-0.12 -0.902 -1.979
-0.12 -0.474 -2.197
-0.12 0.0 -2.272
-0.12 0.474 -2.197
-0.12 0.902 -1.979
-0.12 1.242 -1.639
-0.12 1.46 -1.212
-0.594 -1.44 -0.977
-0.594 -1.284 -1.432
-0.594 -0.989 -1.811
-0.594 -0.586 -2.074
-0.594 -0.121 -2.192
-0.594 0.358 -2.152
-0.594 0.798 -1.959
-0.594 1.152 -1.634
-0.594 1.381 -1.211
-1.022 -1.147 -1.212
-1.022 -0.878 -1.615
-1.022 -0.475 -1.885
-1.022 0.0 -1.979
-1.022 0.475 -1.885
-1.022 0.878 -1.615
-1.022 1.147 -1.212
-1.362 -0.866 -0.991
-1.362 -0.591 -1.419
-1.362 -0.128 -1.63
-1.362 0.375 -1.558
-1.362 0.759 -1.225
-1.58 -0.237 -1.148
-1.58 0.237 -1.148

CELLS 428 1712
3 0 1 2
3 2 1 3
3 1 4 3
3 3 4 5
3 4 6 5
3 5 6 7
3 6 8 7
3 7 8 9
3 8 10 9
3 9 10 11
3 10 12 11
3 11 12 13
3 12 14 13
3 13 14 15
3 14 16 15
3 15 16 17
3 16 18 17
3 17 18 19
3 18 20 19
3 19 20 21
3 20 22 21
3 21 22 23
3 22 24 23
3 23 24 25
3 24 26 25
3 25 26 27
3 26 28 27
3 27 28 29
3 28 30 29
3 29 30 31
3 30 32 31
3 31 32 33
3 32 34 33
3 33 34 35
3 34 36 35
3 35 36 37
3 36 38 37
3 37 38 39
3 38 0 39
3 39 0 2
3 40 41 42
3 40 42 43
3 40 43 44
3 40 44 45
3 40 45 46
3 40 46 41
3 42 41 47
3 42 47 48
3 42 48 49
3 43 42 49
3 43 49 50
3 43 50 51
3 44 43 51
3 44 51 52
3 44 52 53
3 45 44 53
3 41 46 54
3 41 54 55
3 41 55 47
3 47 55 56
3 47 56 57
3 48 47 57
3 48 57 58
3 48 58 59
3 49 48 59
3 49 59 60
3 50 49 60
3 50 60 61
3 51 50 61
3 51 61 62
3 51 62 63
3 52 51 63
3 52 63 64
3 53 52 64
3 53 64 65
3 55 54 66
3 55 66 67
3 55 67 56
3 56 67 68
3 56 68 69
3 57 56 69
3 57 69 70
3 58 57 70
3 58 70 71
3 59 58 71
3 59 71 72
3 59 72 73
3 60 59 73
3 60 73 74
3 61 60 74
3 61 74 75
3 62 61 75
3 62 75 76
3 63 62 76
3 63 76 77
3 63 77 78
3 64 63 78
3 64 78 79
3 65 64 79
3 67 66 80
3 67 80 81
3 67 81 68
3 68 81 82
3 68 82 83
3 69 68 83
3 69 83 84
3 70 69 84
3 70 84 85
3 71 70 85
3 71 85 86
3 72 71 86
3 72 86 87
3 73 72 87
3 73 87 88
3 74 73 88
3 74 88 89
3 74 89 90
3 75 74 90
3 75 90 91
3 76 75 91
3 76 91 92
3 77 76 92
3 77 92 93
3 78 77 93
3 78 93 94
3 79 78 94
3 81 80 95
3 81 95 96
3 81 96 82
3 82 96 97
3 82 97 98
3 83 82 98
3 83 98 99
3 84 83 99
3 84 99 100
3 85 84 100
3 85 100 101
3 86 85 101
3 86 101 102
3 87 86 102
3 87 102 103
3 88 87 103
3 88 103 104
3 89 88 104
3 89 104 105
3 90 89 105
3 90 105 106
3 91 90 106
3 91 106 107
3 92 91 107
3 92 107 108
3 93 92 108
3 93 108 109
3 94 93 109
3 96 95 110
3 96 110 111
3 96 111 97
3 97 111 112
3 97 112 113
3 98 97 113
3 98 113 114
3 99 98 114
3 99 114 115
3 100 99 115
3 100 115 116
3 101 100 116
3 101 116 117
3 102 101 117
3 102 117 118
3 103 102 118
3 103 118 119
3 104 103 119
3 104 119 120
3 105 104 120
3 105 120 121
3 106 105 121
3 106 121 122
3 107 106 122
3 107 122 123
3 108 107 123
3 108 123 124
3 109 108 124
3 109 124 125
3 112 110 126
3 111 110 112
3 113 112 127
3 113 127 128
3 114 113 128
3 114 128 129
3 115 114 129
3 115 129 130
3 116 115 130
3 116 130 131
3 117 116 131
3 117 131 132
3 118 117 132
3 118 132 133
3 119 118 133
3 119 133 134
3 120 119 134
3 121 120 134
3 121 134 135
3 122 121 135
3 122 135 136
3 123 122 136
3 123 136 137
3 124 123 137
3 124 137 138
3 125 124 138
3 127 126 139
3 112 126 127
3 128 127 140
3 128 140 141
3 129 128 141
3 129 141 142
3 130 129 142
3 130 142 143
3 131 130 143
3 131 143 144
3 132 131 144
3 133 132 144
3 133 144 145
3 134 133 145
3 134 145 146
3 135 134 146
3 135 146 147
3 136 135 147
3 136 147 148
3 137 136 148
3 137 148 149
3 138 137 149
3 140 139 150
3 127 139 140
3 141 140 151
3 141 151 152
3 142 141 152
3 142 152 153
3 143 142 153
3 144 143 153
3 144 153 154
3 145 144 154
3 145 154 155
3 146 145 155
3 146 155 156
3 147 146 156
3 148 147 156
3 148 156 157
3 149 148 157
3 140 150 151
3 152 151 158
3 152 158 159
3 153 152 159
3 154 153 159
3 154 159 160
3 155 154 160
3 156 155 160
3 156 160 161
3 157 156 161
3 159 158 162
3 160 159 162
3 161 160 162
3 163 161 162
3 164 163 162
3 158 164 162
3 164 158 22
3 164 22 20
3 164 20 163
3 163 20 18
3 163 18 161
3 161 18 157
3 157 18 16
3 157 16 149
3 149 16 14
3 149 14 138
3 138 14 12
3 138 12 125
3 125 12 10
3 125 10 109
3 109 10 94
3 94 10 8
3 94 8 79
3 79 8 6
3 79 6 65
3 65 6 4
3 65 4 53
3 53 4 1
3 53 1 45
3 45 1 0
3 45 0 46
3 46 0 38
3 46 38 54
3 54 38 36
3 54 36 66
3 66 36 34
3 66 34 80
3 80 34 32
3 80 32 95
3 95 32 110
3 110 32 30
3 110 30 126
3 126 30 28
3 126 28 139
3 139 28 26
3 139 26 150
3 150 26 24
3 150 24 151
3 151 24 22
3 151 22 158
3 165 166 167
3 165 167 168
3 169 165 168
3 169 168 170
3 171 169 170
3 171 170 172
3 171 172 173
3 174 171 173
3 174 173 175
3 167 166 176
3 167 176 177
3 168 167 177
3 168 177 178
3 168 178 179
3 170 168 179
3 170 179 180
3 172 170 180
3 172 180 181
3 173 172 181
3 173 181 182
3 175 173 182
3 175 182 183
3 176 184 185
3 177 176 185
3 177 185 186
3 178 177 186
3 178 186 187
3 179 178 187
3 179 187 188
3 180 179 188
3 180 188 189
3 181 180 189
3 181 189 190
3 182 181 190
3 182 190 191
3 183 182 191
3 183 191 192
3 184 193 194
3 185 184 194
3 185 194 195
3 186 185 195
3 186 195 196
3 187 186 196
3 187 196 197
3 188 187 197
3 188 197 198
3 189 188 198
3 189 198 199
3 190 189 199
3 190 199 200
3 191 190 200
3 191 200 201
3 192 191 201
3 194 193 202
3 194 202 203
3 195 194 203
3 195 203 204
3 196 195 204
3 197 196 204
3 197 204 205
3 198 197 205
3 198 205 206
3 199 198 206
3 199 206 207
3 200 199 207
3 200 207 208
3 201 200 208
3 202 209 210
3 203 202 210
3 204 203 210
3 204 210 211
3 205 204 211
3 205 211 212
3 206 205 212
3 207 206 212
3 207 212 213
3 208 207 213
3 210 209 214
3 211 210 214
3 211 214 215
3 212 211 215
3 213 212 215
3 213 215 23
3 213 23 25
3 213 25 208
3 208 25 27
3 208 27 201
3 201 27 29
3 201 29 31
3 201 31 192
3 192 31 33
3 192 33 183
3 183 33 35
3 183 35 175
3 175 35 37
3 175 37 174
3 174 37 39
3 174 39 171
3 171 39 2
3 171 2 169
3 169 2 3
3 169 3 165
3 165 3 5
3 165 5 166
3 166 5 7
3 166 7 9
3 166 9 176
3 176 9 184
3 184 9 11
3 184 11 193
3 193 11 13
3 193 13 15
3 193 15 202
3 202 15 209
3 209 15 17
3 209 17 19
3 209 19 214
3 214 19 21
3 214 21 215
3 215 21 23

CELL_TYPES 428
5
5
5
5
5
5
5
5
5
5
5
5
5
5
5
5
5
5
5
5
5
5
5
5
5
5
5
5
5
5
5
5
5
5
5
5
5
5
5
5
5
5
5
5
5
5
5
5
5
5
5
5
5
5
5
5
5
5
5
5
5
5
5
5
5
5
5
5
5
5
5
5
5
5
5
5
5
5
5
5
5
5
5
5
5
5
5
5
5
5
5
5
5
5
5
5
5
5
5
5
5
5
5
5
5
5
5
5
5
5
5
5
5
5
5
5
5
5
5
5
5
5
5
5
5
5
5
5
5
5
5
5
5
5
5
5
5
5
5
5
5
5
5
5
5
5
5
5
5
5
5
5
5
5
5
5
5
5
5
5
5
5
5
5
5
5
5
5
5
5
5
5
5
5
5
5
5
5
5
5
5
5
5
5
5
5
5
5
5
5
5
5
5
5
5
5
5
5
5
5
5
5
5
5
5
5
5
5
5
5
5
5
5
5
5
5
5
5
5
5
5
5
5
5
5
5
5
5
5
5
5
5
5
5
5
5
5
5
5
5
5
5
5
5
5
5
5
5
5
5
5
5
5
5
5
5
5
5
5
5
5
5
5
5
5
5
5
5
5
5
5
5
5
5
5
5
5
5
5
5
5
5
5
5
5
5
5
5
5
5
5
5
5
5
5
5
5
5
5
5
5
5
5
5
5
5
5
5
5
5
5
5
5
5
5
5
5
5
5
5
5
5
5
5
5
5
5
5
5
5
5
5
5
5
5
5
5
5
5
5
5
5
5
5
5
5
5
5
5
5
5
5
5
5
5
5
5
5
5
5
5
5
5
5
5
5
5
5
5
5
5
5
5
5
5
5
5
5
5
5
5
5
5
5
5
5
5
5
5
5
5
5
5
5
5
5
5
5
5
5
5
5
5
5
5
5
5
5
5
5
5
5
5
5
5
5
5
5
5
5
5
5
5
5
5
5
5
5

CELL_DATA 428
SCALARS cell_data_0 double
LOOKUP_TABLE default
1.89770959349e-08
1.11904130305e-08
4.56905120485e-09
1.0253290019e-08
8.40920631838e-10
1.53448249036e-09
3.12163187861e-10
1.97419545072e-10
4.53517641363e-10
5.35674257227e-10
6.35292444485e-10
1.34968407638e-09
7.41620638845e-10
8.08187566318e-10
3.087978152e-10
1.15175476289e-09
1.14387390141e-09
1.41289199896e-09
8.82122714352e-10
5.67890841637e-10
5.13035483125e-10
2.3096174624e-10
5.45943797952e-10
5.52413989223e-10
1.93850974591e-10
3.38310722585e-10
1.14953332294e-11
7.25471743075e-10
3.93437297127e-10
8.61475640406e-10
3.55966331873e-10
4.30132279462e-10
2.60973356891e-10
3.90854682433e-10
6.237313701e-12
1.21249785906e-09
1.57737025495e-09
3.27208011626e-09
1.45767418946e-08
2.22441322069e-08
1.74369793554e-09
6.89255326474e-10
2.63396433274e-09
2.01098789774e-10
4.00519505027e-09
3.48938490248e-10
1.13658490511e-10
1.23368830435e-11
2.14204654173e-10
8.59631202775e-10
6.96435391508e-10
5.82048902196e-10
1.62032322472e-09
7.42908112413e-10
7.11759366493e-10
2.17990965764e-09
1.96528323801e-09
3.23259224945e-10
4.71002577038e-10
1.42396787611e-10
3.54911707352e-11
2.66872834358e-10
2.16262550321e-10
1.64178989457e-10
4.31089369523e-10
2.24003219031e-10
6.17639818173e-11
2.24886476755e-11
3.14480525854e-10
3.82637191715e-10
6.65429928342e-10
4.89663147705e-10
1.32945751862e-09
1.83355845109e-09
2.67008578445e-10
1.34551571564e-10
2.36533437793e-10
1.12144958479e-10
9.09088088942e-11
5.87207689317e-11
1.44901340777e-11
1.32646206937e-11
6.84749652072e-12
2.04493951865e-11
8.79743037072e-11
2.38063893978e-11
3.32277586899e-11
8.46320940983e-12
3.14537673964e-11
1.65385852977e-10
2.09981710807e-10
1.30252075932e-10
7.30455456093e-11
2.46013566371e-10
3.46128613861e-10
2.36802669332e-10
1.28389998262e-10
4.82584938686e-10
5.24180634888e-10
2.40976164942e-10
5.31216599361e-11
1.01952671453e-11
4.0861885072e-11
1.04860911465e-10
5.37922944754e-11
3.48051798056e-11
4.31512488646e-11
6.89081583934e-11
3.06179556022e-11
1.22805647811e-11
3.73098119047e-11
4.57726098522e-11
1.15391416531e-10
9.5200737985e-12
4.56623403412e-11
4.84263485252e-11
2.38332422501e-11
4.34441401512e-11
5.21805119298e-11
2.14881046102e-11
5.54170894601e-11
9.83443960565e-11
5.03375575433e-11
8.59504895311e-11
4.3003995695e-11
9.68751618144e-11
5.13433618813e-11
7.69997591873e-13
1.42011993575e-11
4.90097063089e-11
3.54125297324e-11
5.89534095631e-11
3.58181776611e-11
6.75897500457e-11
5.58744876739e-11
5.0466559332e-11
2.25144975467e-11
2.98074687046e-13
1.35801985885e-11
1.21433206869e-11
5.80336970394e-11
4.97999415469e-12
2.45706447701e-11
3.27336224427e-11
6.64640031133e-11
3.51185649883e-11
5.14386759718e-11
1.61243583971e-11
3.43956531624e-11
7.93261174113e-11
5.74241822683e-11
5.67652634029e-11
1.06004906398e-10
8.40041026473e-11
4.4849006314e-11
2.69160991821e-11
2.42496745481e-12
1.23946103974e-11
2.31663937549e-11
1.34283521929e-11
4.46801805166e-11
5.59923783991e-11
5.43114855676e-11
2.4155032087e-11
5.1342881598e-12
8.43545929435e-12
2.59631985291e-11
5.23455748709e-11
6.80396917072e-11
7.38588872639e-11
2.90364195321e-11
3.89575302962e-11
2.17875858307e-11
4.16983597161e-11
5.4062416807e-12
3.42503845085e-11
2.8060955011e-11
5.35868763432e-11
4.21899785288e-12
2.47136760002e-11
1.73033020733e-11
9.0527725944e-12
1.81155461866e-11
2.71045348528e-11
1.83924971339e-11
1.81135764674e-11
3.46798666255e-11
2.65129413639e-11
2.16690525916e-11
3.60304366769e-11
3.8619948758e-11
3.68313913728e-11
4.79481963304e-11
3.06625418193e-11
1.11027377484e-11
1.85585983996e-11
9.11222678335e-12
1.27344697441e-11
3.8428364441e-12
2.51865857635e-12
8.5003685574e-12
5.92129587753e-11
5.26560270285e-11
6.81396957386e-11
9.15804646098e-12
3.30330529007e-12
2.34615002671e-11
2.58450885752e-11
1.22031926244e-10
3.07658120971e-11
6.78108666052e-12
3.4102496951e-11
5.75182206928e-11
1.28742798211e-11
9.9455549799e-13
1.2554438747e-12
3.70321132891e-12
5.34237560093e-11
3.57841938899e-11
6.52629145171e-12
6.2437220654e-12
4.02590943322e-11
3.54171508458e-11
3.14011838706e-11
7.05300454512e-11
4.66301152637e-12
2.89566471141e-12
1.55560650626e-11
4.72494809564e-11
1.01645018991e-10
1.2029915213e-10
2.58178696562e-11
9.9519763155e-11
1.75790845904e-11
9.22453445765e-12
2.98664505585e-11
1.78647428759e-11
2.07508634742e-11
6.98817077144e-12
9.39975929239e-12
4.17472644557e-11
3.3783383746e-12
8.44963264803e-12
3.14279111811e-12
1.11492415614e-11
6.90226247299e-11
5.46509639654e-11
1.25592677998e-10
2.36594004787e-10
1.26561911591e-10
2.24154584901e-11
4.81503423109e-11
1.02223749673e-11
2.97769933046e-13
9.09456312535e-12
3.62407096753e-11
1.38797149881e-11
1.70279359801e-10
4.05715925331e-10
1.97993096374e-10
3.83186041959e-10
1.39042207701e-10
2.86678429086e-10
8.78634345474e-10
5.80623483407e-10
1.81330927514e-11
2.49471799652e-10
6.00043101174e-10
1.32936914047e-10
8.02573029034e-10
8.18827992488e-10
6.2310473885e-10
3.43566593027e-10
3.7428089363e-10
3.77385413502e-10
2.99091087195e-10
9.35406533312e-11
1.02306689408e-10
1.53648043458e-11
1.68911820204e-10
7.33438477361e-11
8.3559027919e-11
5.9742884266e-11
6.9807305143e-10
6.22816015927e-10
1.30373967659e-08
2.33207612955e-08
5.59278678939e-09
2.25230514325e-09
1.25002684785e-08
3.656971554e-09
1.72529514294e-10
1.33790463079e-10
5.814799712e-11
1.00753192405e-10
7.57609041905e-11
6.51467252946e-12
3.20745400159e-11
5.23797597537e-11
1.58764949186e-11
1.50342958287e-10
8.49419709886e-11
7.46971725669e-11
1.22929261039e-10
1.31925386077e-10
5.48855072805e-10
5.57131759672e-10
7.35842920309e-10
3.18842317186e-11
2.0518262907e-08
1.06561122057e-08
1.87951815858e-09
5.29996973889e-09
1.24402040209e-08
1.21127525332e-08
1.82045677929e-08
1.07107681335e-08
7.29158813166e-10
1.12578511008e-08
1.51318318092e-08
9.06536525921e-09
1.5256942025e-08
1.21761493803e-08
2.43869831183e-09
7.94557841576e-09
1.9924920124e-09
8.6041696715e-09
5.50327932424e-10
7.21977309436e-10
3.81698549116e-10
3.95692869367e-10
7.9129921085e-11
1.22810383043e-10
2.92789862765e-10
6.70030352557e-10
4.92304578657e-10
7.50086558965e-10
8.46577363205e-10
9.43371732812e-10
6.70297850327e-11
6.40088688702e-10
4.6044475942e-10
8.36708708738e-11
3.00625567206e-10
1.28988419781e-09
5.16828301663e-10
4.47837605032e-10
3.31402134084e-10
7.44689420784e-10
4.57652692861e-11
1.78694007547e-09
4.80553823182e-10
2.62661182348e-09
4.61294442608e-10
2.21227443083e-09
3.74613500603e-11
1.64606143303e-09
5.83392530802e-10
1.35769585405e-09
1.95051626769e-10
5.78996682773e-11
3.22689482848e-10
6.61856251345e-10
2.04535956046e-10
3.51884678129e-10
3.9588654356e-10
1.39160044476e-09
4.87021239958e-10
1.63102990296e-09
4.35228322329e-10
5.69804250582e-10
2.35930122639e-10
8.13579983664e-10
1.51760138834e-10
1.46605716513e-10
1.75620204872e-10
6.45780934283e-10
6.06446185258e-10
8.79697558728e-12
5.65932129478e-10
1.40226783692e-10
1.41098869389e-09
5.17255230765e-10
4.08308437394e-10
1.3763164644e-10
1.02444149695e-10
7.71513531763e-11
1.08922147738e-10
4.96773688178e-10
4.21678089912e-11
8.62922192771e-10
7.14757388665e-10
5.62891790813e-10
4.60755562307e-10
1.34335130501e-10
6.04119470532e-10
6.89885511933e-10
2.18299106869e-10
3.5628023828e-11
6.53955901869e-10
7.58394401517e-10
6.38148237391e-10
8.51253135399e-10
5.53888682545e-09
7.88912879781e-09
1.03627060272e-08
4.00149118995e-09
8.81153580618e-09
2.25313426653e-08
9.42491534483e-09
1.19368232651e-08
3.74306397789e-08
1.55804252836e-08
1.31632293388e-08
2.03681146603e-08
1.28535980467e-10
3.03030268999e-10
1.19855475506e-10
2.97377736057e-10
8.24200996068e-11
4.66034923318e-10
1.89843862885e-10
4.66086672922e-10
5.10692426493e-10
9.38658813355e-11
1.22112955647e-10
1.21552780096e-10
2.31477327213e-10

