# vtk DataFile Version 3.0
File Name: Molecule/sphere_excent/sphere_excent_0-s7.vtk
ASCII
DATASET UNSTRUCTURED_GRID
FIELD FieldData 1
TIME 1 1 double
0.0
POINTS 68 double
0.85049259663 -0.52590465546 0.00055506627541
0.80894482136 -0.30900064111 -0.49991926551
0.99999773502 -3.5583170757e-06 -0.00046780199045
0.80892241001 0.30898490548 -0.49995830655
0.52572864294 -7.2406010077e-07 -0.85065239668
0.85063588619 0.52582746744 -0.0008151565562
0.49993929267 0.80893647671 -0.30900031328
0.3089787364 0.49994361401 -0.80893188715
-4.2469500841e-06 0.85065293312 -0.52572757006
0.50059235096 0.80920761824 0.30770108104
-4.1171206249e-05 0.99985516071 0.00036359691876
0.016048246995 0.84837597609 0.52533483505
-0.50004470348 0.80884224176 -0.30922096968
-0.51019048691 0.80550521612 0.29610821605
-0.85066324472 0.52590179443 -0.0020093533676
-0.82668375969 0.33535850048 0.45083728433
-0.28583037853 -0.54460650682 0.78508043289
0.00025950928102 -0.85491973162 0.51905304193
0.28761735559 -0.56023275852 0.77505552769
0.30897635221 -0.4999422133 -0.80893540382
-8.6550409151e-07 -2.1055713262e-07 -0.99989145994
-0.30898731947 -0.49994686246 -0.80892676115
-9.143481293e-06 -0.85063391924 -0.52575868368
-0.52573400736 1.5599657672e-06 -0.85064905882
0.81727468967 -0.28464558721 0.49815583229
0.83062463999 0.30904573202 0.46174001694
0.33100652695 0.53555101156 0.77569329739
-0.80894887447 -0.3089748621 -0.49992546439
-0.80892503262 0.30894163251 -0.49998572469
-0.99996596575 4.5501314162e-05 0.00047301524319
-0.85042029619 -0.52619946003 -0.00049229100114
-0.30898302794 0.49994263053 -0.80893182755
-0.49992230535 -0.80893427134 -0.30903181434
-0.49936768413 -0.81019240618 0.30719912052
-0.00043415071559 -0.99993783236 -0.0010174536146
-0.80972296 -0.34175550938 0.47721910477
0.49984222651 -0.80877536535 -0.30967712402
0.48887717724 -0.82536679506 0.27718386054
0.15715670586 0.27044278383 0.94976580143
0.27858510613 -0.012096719816 0.96024727821
0.4584659338 0.28028264642 0.8430493474
0.14619843662 -0.27954363823 0.94865834713
-0.017247896641 0.0034983423539 0.99985092878
0.44278118014 -0.25568571687 0.85929203033
0.55055898428 0.026245681569 0.83375394344
0.0002841053647 0.52900892496 0.84855163097
-0.32334464788 0.53075248003 0.78307765722
-0.16630604863 0.27460432053 0.94704496861
-0.53316903114 0.011791698635 0.84593003988
-0.44389981031 -0.23666135967 0.86254036427
-0.29245516658 0.0021702693775 0.95615595579
-0.18320995569 -0.24270692468 0.95269715786
-0.45012494922 0.26724565029 0.85203778744
-0.59938836098 0.43634626269 0.67078459263
-0.69672441483 0.16615866125 0.69781821966
-0.70124101639 -0.12629523873 0.70159929991
-0.85649907589 0.0012658974156 0.51603382826
0.42484939098 -0.70893472433 0.56297296286
0.58306115866 -0.46650654078 0.66551470757
0.6877939105 -0.59038972855 0.42251136899
0.70370018482 0.17969545722 0.68726080656
0.60405212641 0.43486088514 0.66760092974
-0.25725078583 0.8630271554 0.43474149704
-0.17478905618 0.71795111895 0.67396914959
-0.42283341289 0.7025077343 0.57261073589
-0.57797628641 -0.4650785625 0.66908365488
-0.38503998518 -0.39847180247 0.83238637447
-0.63960510492 -0.3032900393 0.70609349012

CELLS 132 528
3 0 1 2
3 1 3 2
3 1 4 3
3 2 3 5
3 5 3 6
3 3 7 6
3 3 4 7
3 6 7 8
3 5 6 9
3 6 10 9
3 6 8 10
3 9 10 11
3 10 12 13
3 10 8 12
3 13 12 14
3 13 14 15
3 16 17 18
3 4 19 20
3 19 21 20
3 19 22 21
3 20 21 23
3 0 2 24
3 2 25 24
3 2 5 25
3 5 9 25
3 9 11 26
3 23 27 28
3 27 29 28
3 27 30 29
3 28 29 14
3 8 31 12
3 31 28 12
3 31 23 28
3 12 28 14
3 30 32 33
3 32 34 33
3 32 22 34
3 33 34 17
3 30 33 35
3 33 17 16
3 15 14 29
3 35 29 30
3 23 21 27
3 21 32 27
3 21 22 32
3 27 32 30
3 22 36 34
3 36 37 34
3 36 0 37
3 34 37 17
3 4 1 19
3 1 36 19
3 1 0 36
3 19 36 22
3 4 20 7
3 20 31 7
3 20 23 31
3 7 31 8
3 38 39 40
3 18 41 16
3 42 41 39
3 41 43 39
3 41 18 43
3 39 43 44
3 44 43 24
3 11 45 26
3 46 47 45
3 47 38 45
3 47 42 38
3 45 38 26
3 39 38 42
3 48 49 50
3 49 51 50
3 50 51 42
3 42 51 41
3 41 51 16
3 48 50 52
3 47 50 42
3 15 53 13
3 46 53 52
3 53 54 52
3 53 15 54
3 52 54 48
3 48 54 55
3 54 56 55
3 54 15 56
3 55 56 35
3 35 56 29
3 29 56 15
3 46 52 47
3 47 52 50
3 48 55 49
3 18 57 58
3 57 59 58
3 57 37 59
3 58 59 24
3 37 57 17
3 17 57 18
3 24 59 0
3 59 37 0
3 25 60 24
3 24 60 44
3 26 61 9
3 9 61 25
3 25 61 60
3 61 40 60
3 61 26 40
3 60 40 44
3 18 58 43
3 43 58 24
3 44 40 39
3 38 40 26
3 13 62 10
3 10 62 11
3 11 62 63
3 62 64 63
3 62 13 64
3 63 64 46
3 16 65 33
3 33 65 35
3 11 63 45
3 45 63 46
3 49 66 51
3 66 16 51
3 16 66 65
3 66 67 65
3 66 49 67
3 65 67 35
3 46 64 53
3 53 64 13
3 35 67 55
3 55 67 49

CELL_TYPES 132
5
5
5
5
5
5
5
5
5
5
5
5
5
5
5
5
5
5
5
5
5
5
5
5
5
5
5
5
5
5
5
5
5
5
5
5
5
5
5
5
5
5
5
5
5
5
5
5
5
5
5
5
5
5
5
5
5
5
5
5
5
5
5
5
5
5
5
5
5
5
5
5
5
5
5
5
5
5
5
5
5
5
5
5
5
5
5
5
5
5
5
5
5
5
5
5
5
5
5
5
5
5
5
5
5
5
5
5
5
5
5
5
5
5
5
5
5
5
5
5
5
5
5
5
5
5
5
5
5
5
5
5

CELL_DATA 132
SCALARS cell_data_0 double
LOOKUP_TABLE default
6.03181442193e-08
2.5823470395e-07
4.1372121146e-08
5.82839663725e-08
1.81112833531e-07
1.93968370715e-07
1.17634395027e-07
1.31239994781e-07
6.85074764596e-07
3.20003747333e-07
1.76162728844e-07
1.42149819835e-06
1.38363996467e-06
4.16736272346e-07
1.04659090575e-06
9.53708439972e-07
8.30795368287e-07
9.34963160908e-09
5.02213993382e-08
8.89567673657e-09
2.0201804463e-08
7.34808276236e-07
2.33440675185e-06
4.8035189092e-07
1.13195657305e-06
1.08655535273e-06
1.72997769612e-07
2.59803933136e-07
4.74330686547e-07
3.7993015653e-07
7.20557618085e-08
3.16754924521e-08
6.35543375893e-09
1.23373531638e-07
6.16941225729e-07
1.90611467442e-07
1.57478750378e-07
1.1829840305e-06
8.27770529447e-07
1.10050333514e-06
1.47687662617e-06
1.97417263945e-06
3.53196097898e-08
3.64076548797e-08
8.01566598439e-08
1.36028050627e-07
2.08444951288e-07
4.55953936019e-07
2.40882734376e-07
5.86928852775e-07
5.25548731402e-08
1.9089517356e-07
7.88847276744e-08
5.26167577507e-08
4.18609829022e-09
3.44720607607e-08
2.44096664281e-08
1.47342175436e-08
3.10496555686e-06
4.3914779311e-06
2.24142018202e-07
9.47118407797e-07
4.54429024856e-06
1.9643348759e-06
4.15449680367e-06
1.6548253537e-06
3.98588431341e-08
1.06045311121e-06
1.85507569581e-06
2.41645953011e-06
1.89652848972e-06
2.30134362446e-07
8.9400872819e-07
7.82734393755e-07
3.73084391204e-07
2.45893826871e-06
5.40076715924e-07
1.22382634451e-06
1.96866218434e-06
5.0026993726e-07
3.57528534002e-07
1.8110307229e-07
3.02386589434e-07
7.28908007941e-07
2.28435731974e-07
4.64690544842e-07
4.58691277317e-07
8.62261753855e-07
9.90194315163e-07
4.82341941662e-07
1.61194721171e-06
7.87910356723e-07
1.12876290655e-06
5.81273750392e-07
3.76924661745e-07
7.28163204604e-07
1.11891901456e-07
9.57259599158e-08
2.48938681225e-07
1.42193182737e-07
4.03268917936e-07
6.84707943202e-07
1.0206204165e-06
1.82978730427e-07
8.813046602e-07
4.09897318976e-07
9.94418313311e-07
1.37082356394e-06
1.44466965908e-06
3.0564252349e-06
1.05801384325e-06
3.30847551622e-06
5.32088976267e-07
7.83445787718e-07
1.05734745201e-07
3.24148076239e-08
3.24037568654e-07
4.49323677236e-07
2.28892194747e-06
1.08593988543e-07
5.10914006179e-07
4.89601076458e-07
9.91379349713e-07
1.27241144925e-06
1.14010558383e-07
1.61028138547e-08
1.02540594077e-06
3.74259081323e-08
4.10737497455e-07
5.36101709522e-07
3.96988396596e-07
1.52770377985e-07

