# vtk DataFile Version 3.0
File Name: Molecule/sphere_excent/sphere_excent_0-s28.vtk
ASCII
DATASET UNSTRUCTURED_GRID
FIELD FieldData 1
TIME 1 1 double
0.0
POINTS 1243 double
-0.23503731191 0.95460438728 -0.18182741106
-0.43291372061 0.89336127043 -0.11257840693
-0.28741496801 0.95731765032 -0.012884150259
-0.92953962088 0.17559269071 -0.32181072235
-0.94369333982 0.30868303776 -0.11801667511
-0.85808587074 0.42117133737 -0.29016140103
-0.2190400362 -0.68082022667 0.69892334938
-0.26409807801 -0.74206697941 0.61602991819
-0.14433908463 -0.75377625227 0.64070820808
-0.12100856751 -0.68485718966 0.71793854237
-0.28457272053 -0.93783068657 0.19801852107
-0.45131736994 -0.87001311779 0.19849455357
-0.3701992929 -0.92709565163 0.056766621768
0.60919964314 -0.24110358953 0.75547724962
0.64097261429 -0.30754497647 0.70322823524
0.66829872131 -0.22075237334 0.71022593975
0.68619978428 0.50721162558 0.52133208513
0.74460011721 0.56073945761 0.36196753383
0.64928293228 0.61951184273 0.43955418468
-0.41523945332 -0.260977 0.87147712708
-0.33519175649 -0.3144724071 0.8881136775
-0.3641345799 -0.20652094483 0.9081504941
-0.70266890526 -0.32322660089 0.6338070035
-0.70503354073 -0.23258006573 0.66994458437
-0.77798444033 -0.23021106422 0.58446455002
-0.65018630028 -0.29182234406 0.7014067173
-0.74141383171 -0.14153541625 0.65594398975
0.10620255768 -0.057729132473 0.99265754223
0.13632127643 -0.0012619897025 0.99064552784
0.066402964294 -0.0069048893638 0.99777406454
-0.081916466355 -0.44674617052 0.89089888334
-0.094995968044 -0.52174705267 0.84758985043
-0.0027020743582 -0.47981876135 0.87731921673
-0.25573331118 -0.29459640384 0.92074978352
-0.25352782011 -0.35849112272 0.89841157198
-0.31714785099 -0.40414592624 0.85791271925
-0.41503748298 -0.58273220062 0.69867283106
-0.33456686139 -0.61577028036 0.71338808537
-0.381318748 -0.53528928757 0.75369638205
-0.39145117998 -0.37446045876 0.84054964781
-0.19679667056 -0.52533686161 0.82781636715
-0.15156917274 -0.47541648149 0.86647945642
0.45625686646 -0.83661234379 -0.30148261786
0.64205896854 -0.75409942865 -0.13769644499
0.50851583481 -0.85579419136 -0.095262691379
0.61092638969 -0.78859394789 0.05457264185
0.68919950724 0.27741402388 0.66938877106
0.73353815079 0.18255013227 0.65465158224
0.74326735735 0.28632640839 0.60453349352
0.66609477997 0.19900476933 0.71878242493
-0.3246190846 0.87018287182 0.36968791485
-0.44930526614 0.83142179251 0.32666811347
-0.37537780404 0.80356270075 0.46137696505
-0.56817138195 0.77736765146 0.26970329881
-0.48375761509 0.76807826757 0.41930687428
0.045978829265 0.75973451138 0.64858937263
0.041274696589 0.83325695992 0.55128252506
-0.040314994752 0.77358204126 0.63224869967
0.85427695513 0.080321326852 0.51348596811
0.79679977894 0.153031528 0.58450698853
0.77814912796 0.09056930244 0.62131220102
0.17278628051 0.77262657881 0.61087530851
0.1668536365 0.83825343847 0.5190243721
0.2874840498 0.78240287304 0.55179131031
-0.52047389746 0.84143310785 0.14329406619
0.42401224375 0.7521097064 0.50446665287
0.34202641249 0.81517243385 0.46736443043
0.34245631099 0.74255979061 0.57475197315
0.35523161292 -0.26792567968 0.89537137747
0.36372512579 -0.33436605334 0.86940813065
0.42509239912 -0.29811292887 0.85466217995
0.45479738712 -0.37643998861 0.80708247423
0.39292761683 -0.38339754939 0.8357232213
0.49720928073 -0.30608427525 0.81183952093
0.43110525608 -0.49585062265 0.75371545553
0.49538680911 -0.44122371078 0.74827301502
0.41567772627 -0.43774035573 0.79717344046
0.010190857574 0.49071782827 0.87125074863
-0.018594151363 0.55901062489 0.8289347291
-0.063010819256 0.51441395283 0.8552005887
0.075751364231 0.44304567575 0.89328837395
0.095185220242 0.50759422779 0.8563079834
0.98764830828 -0.020723100752 -0.14835233986
0.99662268162 0.076194003224 0.030999837443
0.99365395308 -0.10048118979 0.049175236374
0.97983843088 0.00010416284204 0.19605219364
0.91931003332 0.1166773811 0.37449988723
0.86630582809 0.2209995389 0.44789963961
0.45498901606 0.88908672333 -0.04523421824
0.57555407286 0.81303864717 0.088578239083
0.61969363689 0.78040117025 -0.083469070494
0.72095578909 0.68833661079 0.078558191657
-0.044652760029 0.99315875769 -0.099969908595
0.015034938231 0.95671308041 -0.28921362758
0.84884738922 -0.35854259133 0.38749966025
0.88018870354 -0.23938365281 0.40948626399
0.82574731112 -0.26931941509 0.49545660615
0.53609365225 0.25664439797 0.80414420366
0.62271410227 0.27503183484 0.73257476091
0.5820864439 0.33759582043 0.73960798979
0.63644212484 0.35042104125 0.68686884642
-0.78423422575 -0.3470261991 -0.51434516907
-0.9293385148 -0.14280694723 -0.33690029383
-0.83805531263 -0.0084745511413 -0.54551911354
-0.79274594784 0.29127931595 -0.53521925211
0.80151903629 -0.33980935812 -0.4919629395
0.64567947388 -0.57015037537 -0.50780171156
0.63979977369 -0.38536697626 -0.66444987059
-0.048977028579 -0.8068561554 0.58865582943
-0.037299327552 -0.7503785491 0.65951669216
0.43206343055 -0.88197034597 0.1852875948
0.2735953331 -0.94148594141 0.19470271468
0.4003688693 -0.91233563423 0.081541672349
-0.59989541769 -0.77351105213 0.20441769063
-0.55848312378 -0.82910048962 0.018060404807
-0.72681719065 -0.67273253202 0.1382136941
-0.57553088665 0.065492875874 0.81510925293
-0.62246590853 0.019094249234 0.78212362528
-0.56031090021 -0.0010756417178 0.82828879356
-0.68561840057 -0.66900587082 0.28617408872
0.49263140559 -0.68533849716 0.53629982471
0.56617683172 -0.61863225698 0.5447229147
0.47330054641 -0.62404149771 0.62174105644
0.57803034782 -0.67417126894 0.45970717072
0.48083144426 -0.75416141748 0.44727471471
0.4422197938 -0.8306543231 0.33753415942
0.56363981962 -0.73063927889 0.38430243731
0.088762968779 -0.98140567541 -0.16960693896
0.087278328836 -0.99430376291 0.056691471487
-0.085303142667 -0.9962426424 -0.0006880229339
-0.62215709686 0.22166027129 0.75086116791
-0.57876461744 0.18284021318 0.79466170073
-0.54299622774 0.25424292684 0.80031973124
-0.76225399971 -0.57703351974 0.29320430756
0.66370403767 -0.57542043924 0.47788599133
0.48827415705 -0.53339862823 0.6906979084
0.40137714148 -0.60004746914 0.69176834822
0.9556709528 0.27409306169 -0.10342621058
0.87740582228 0.38067850471 -0.28998523951
0.86317521334 0.48857113719 -0.1271250695
0.29226264358 0.055779676884 0.95469766855
0.33817455173 0.097409449518 0.93602800369
0.25785979629 0.10666709393 0.96027189493
0.35458004475 0.025930086151 0.93462920189
0.40493395925 0.066606789827 0.91171592474
0.12365644425 0.39062878489 0.91220468283
0.14926528931 0.4455935061 0.88269412518
0.18776009977 0.38872933388 0.90199929476
0.057450789958 0.16540035605 0.98455113173
0.098298244178 0.229109779 0.96835291386
0.030164476484 0.22980695963 0.97276729345
-0.42645841837 0.68425840139 0.59145385027
-0.49840795994 0.6622248292 0.55947011709
-0.47785803676 0.61369866133 0.62853419781
-0.58813196421 0.57331728935 0.57041722536
0.2382119 -0.87214899063 0.42678233981
0.17139278352 -0.92063248158 0.35065948963
0.3104172945 -0.89968568087 0.30673757195
0.19550727308 -0.95442026854 0.22486706078
-0.54864889383 0.80078345537 -0.24024154246
-0.37339511514 0.87672990561 -0.30120822787
-0.70271247625 0.66483461857 -0.25047525764
-0.63339662552 0.76688987017 -0.10187585652
0.5814987421 -0.15899471939 0.79784190655
0.54551905394 -0.24117644131 0.80264693499
0.56899505854 -0.30812367797 0.76243370771
0.47945675254 -0.23654311895 0.84508240223
0.52955627441 -0.18186450005 0.8284804225
-0.04691535607 0.11869665235 0.99179822206
0.016173288226 0.10936062038 0.99383819103
-0.006620532833 0.17114958167 0.98522156477
0.80599528551 -0.50696766376 -0.30515065789
0.3016525209 0.15989798307 0.93990904093
0.37298837304 0.16064280272 0.91372078657
-0.36541074514 0.15960519016 0.91685032845
-0.36700174212 0.099379859865 0.92489326
-0.3070076704 0.12444344163 0.94332879782
-0.40233424306 0.045401208103 0.91435986757
-0.44073322415 0.10444363952 0.89143723249
-0.47577786446 0.015334505588 0.8794387579
-0.32114470005 -0.033727925271 0.94642645121
-0.33808788657 0.036781772971 0.94025540352
-0.37071859837 -0.016924617812 0.92858952284
0.032030649483 -0.97598111629 0.21498891711
0.12114416063 -0.96004265547 0.25023335218
0.025854542851 -0.9390784502 0.34278663993
0.084587991238 -0.8914757967 0.44469350576
0.66081446409 -0.68106371164 -0.31445392966
0.45490443707 -0.75735646486 -0.4678889513
0.76952213049 -0.62280631065 -0.14077600837
0.72004902363 -0.12632201612 -0.6822244525
0.69103324413 0.13547371328 -0.70998167992
0.83453375101 0.052434846759 -0.54836809635
0.50617438555 -0.0048248819076 -0.86240011454
0.7935153842 0.26848617196 -0.54531562328
-0.82909578085 0.25782251358 0.49598267674
-0.86603868008 0.30991625786 0.39239415526
-0.88493639231 0.18789337575 0.4254860878
-0.8027959466 0.36464685202 0.47170126438
-0.8313947916 0.43713644147 0.34304356575
-0.74672621489 0.52605998516 0.40672656894
-0.76854157448 0.57224202156 0.28607407212
-0.66869390011 0.56119078398 0.48780450225
-0.68249809742 0.6189135313 0.38872146606
-0.61301010847 0.63905060291 0.46456289291
-0.66666454077 0.68624728918 0.29081451893
-0.59677040577 0.70940828323 0.37497127056
-0.17125885189 0.9063295722 -0.38623899221
-0.26509392262 0.79788553715 -0.53937989473
-0.017500370741 0.80883616209 -0.58708691597
-0.9240500927 0.21745553613 0.31431743503
-0.93721461296 0.081250026822 0.33912390471
-0.97156989574 0.12607973814 0.20039857924
0.006780133117 0.42069023848 0.90717691183
0.055972792208 0.37668204308 0.92465358973
-0.0065296795219 0.35259711742 0.93574875593
-0.055655185133 0.38976243138 0.91922342777
0.05220637098 0.29832497239 0.95303243399
-0.901057899 0.339918226 0.26929458976
-0.87069350481 0.45402520895 0.1889064461
0.92640513182 0.32626765966 0.18798775971
0.8474650383 0.48075759411 0.22483929992
0.88905584812 0.3117698729 0.33417782187
-0.076337970793 0.32982623577 0.94095009565
-0.13334985077 0.368614465 0.91997241974
-0.19630111754 0.40773761272 0.89175087214
-0.1406686902 0.42834541202 0.89258360863
-0.16816969216 0.47525757551 0.8635956049
[...]
CELL_DATA 2482
SCALARS cell_data_0 double
LOOKUP_TABLE default
4.53976019316e-09
2.38106465386e-09
4.83306305712e-09
3.27146224364e-09
5.09443118163e-09
3.99862028913e-09
1.5616114463e-09
8.64081809937e-09
9.69149038148e-09
6.46676214593e-09
8.76312027037e-09
2.33134546995e-09
1.2671357227e-08
1.4171307102e-08
1.73411449055e-09
6.1747157369e-09
2.6677152581e-09
8.29117417639e-09
5.42915306315e-09
8.39579434768e-10
2.21161602243e-10
3.06883390898e-09
1.73589723809e-08
1.01431436517e-08
8.03838700255e-09
1.76574983677e-09
1.20156932391e-09
1.71611830522e-09
3.45214722615e-09
8.8021971807e-09
1.22572703347e-08
9.14937760873e-09
8.01980834877e-09
1.12600493764e-09
6.03563186206e-09
6.83023852303e-09
2.99353869445e-09
6.75857657037e-09
1.19191831604e-10
1.67578935705e-09
2.04649662705e-08
5.7697953666e-09
6.52229114523e-09
1.33306736239e-08
1.49177987945e-09
9.83194067779e-09
8.51641384618e-09
4.96469979197e-09
5.97232869961e-09
1.97460972197e-08
1.28876819619e-08
2.63218421079e-09
2.20240451212e-09
3.71430490955e-09
4.90567614145e-09
2.75847928208e-09
5.45021045322e-09
1.19063410695e-09
4.40281257338e-09
1.8281684641e-09
1.39193266712e-09
3.27620959577e-09
5.2252393397e-09
1.59757020853e-09
7.4319751295e-09
9.28310772171e-09
5.21312987841e-09
1.61962252825e-08
9.45794249836e-09
5.47524577508e-09
1.4386703838e-09
7.80154453824e-09
8.01121739205e-11
8.01512045235e-10
3.43427408322e-09
3.28951150999e-09
9.65206377267e-09
2.15406142199e-09
7.00983793997e-09
1.11309157993e-08
6.99042833659e-09
7.1808124124e-09
1.09381889921e-08
2.6899823855e-09
2.06032508489e-09
4.71934285176e-09
7.57516693057e-09
8.5642547243e-10
7.0487796566e-09
6.14498234862e-10
6.6916503542e-09
1.76293190304e-09
7.04935461231e-09
5.70517443808e-09
2.23288684738e-09
2.89261023981e-10
3.8789620716e-09
9.73618061888e-09
2.12911990084e-09
1.03587582951e-08
1.14517792485e-08
8.12899492438e-09
2.7335653372e-09
5.60765719587e-09
1.2626793067e-08
1.40837990367e-09
6.11088890842e-09
1.47446234425e-09
1.44537810076e-09
6.57568886116e-09
2.35122475138e-09
4.31378611314e-10
1.37823804105e-08
5.69044742719e-09
2.94783416146e-09
5.00614658259e-09
3.17675485782e-09
1.03307398167e-08
3.84307127689e-09
4.90012044955e-09
6.68041923676e-09
5.69759794726e-09
5.73944723606e-09
1.2399352865e-08
5.62172169209e-09
8.15785230299e-10
1.16970464652e-08
5.52786053778e-09
1.03279811066e-08
3.07624012889e-09
1.32179353364e-08
4.78918530906e-09
4.71339434327e-10
1.16168036631e-08
9.91551943491e-10
3.80119445441e-09
8.71514654663e-10
1.83480366177e-09
7.74643866055e-09
3.41669898456e-09
8.19906501593e-09
4.49161093451e-09
3.39141668508e-09
6.89212729574e-09
1.10213120315e-08
1.00412370765e-08
9.9386980892e-09
1.84092248793e-09
5.77605938529e-10
1.79403936337e-09
1.62890309693e-08
2.24325480567e-09
2.49296058572e-09
5.10360307782e-09
1.02254116878e-09
9.43519386498e-09
1.92456522963e-09
1.4391484081e-09
1.1307941758e-09
3.02049085206e-10
1.42901147664e-09
3.90353955398e-09
6.80406208265e-09
1.63909101599e-09
1.02841279534e-09
6.29806879791e-09
2.79633039077e-09
1.13510224362e-09
8.50732164603e-10
9.39393031165e-09
5.32739213473e-09
1.13816125846e-08
4.96005087704e-09
1.17950431311e-09
1.00920760692e-08
1.85722482742e-10
1.66993475566e-09
4.61453470828e-09
4.0947006259e-09
1.45943053671e-09
7.8359620008e-11
4.91657147171e-10
5.04848621596e-09
1.63306154892e-09
1.42355180669e-09
1.30619028403e-09
6.61161509237e-09
2.05338210414e-10
8.79226354646e-09
1.42601525855e-09
5.45016667584e-09
2.95909506664e-09
3.71211545424e-09
6.07725326022e-09
2.42122209364e-09
8.58988106034e-11
1.74797575335e-08
5.16619053449e-09
2.20550451968e-09
1.14292534268e-08
5.13970774409e-09
6.96421742153e-09
1.10799990561e-09
6.8992621711e-09
7.38278680554e-10
3.75028211699e-09
1.35966394512e-08
1.47022188022e-08
8.22423957381e-09
9.08224913744e-09
3.54861904954e-09
1.26767830873e-09
9.0308938638e-09
2.29723015648e-11
3.69908347104e-10
4.70997477715e-09
6.93313618764e-09
1.09832041749e-08
7.16384614989e-09
1.75681397251e-09
4.0397968162e-09
1.254916028e-08
5.66124244646e-10
1.54053740857e-10
4.32377420681e-09
1.62063355611e-09
6.67882301739e-09
2.07426712501e-09
8.31061516296e-09
5.85015754203e-09
3.88272213824e-09
5.60626758904e-10
2.57386785015e-09
3.23032378117e-09
7.87541187266e-09
5.49166658547e-09
1.50096780111e-09
9.58850293462e-10
5.76269733487e-09
1.74187971706e-09
1.82911156417e-09
3.74843077972e-09
1.06519883163e-09
7.35593692807e-10
3.32641550836e-09
9.3484952269e-11
3.86135664635e-10
4.960854256e-09
2.79274590968e-09
1.93225019141e-09
6.61920944459e-09
2.82742736344e-09
4.75089986457e-09
3.4461985423e-09
4.63358390766e-09
6.62492716289e-09
6.05521346509e-10
1.60611009289e-09
5.6075289468e-09
1.45617923157e-08
4.5847647218e-09
4.14259891928e-10
1.36631591949e-11
3.59801651824e-09
1.00437476789e-09
2.8405064777e-09
4.3903077343e-09
3.47875100332e-10
7.15158180268e-09
9.74965489313e-09
5.35384511789e-11
1.60766171479e-08
2.52187507092e-09
5.66252356393e-09
4.18482370268e-09
6.7324721973e-09
2.88934412586e-09
9.80164381436e-09
4.05499307567e-09
6.80211449594e-09
1.40953342813e-09
5.0076140979e-09
3.87553951641e-09
1.44892321807e-09
8.60033788716e-09
6.84726905651e-09
3.98977841581e-09
1.27068741767e-08
6.48848773931e-09
6.30748325366e-09
1.54970958323e-09
3.7399098888e-09
6.39997995043e-09
4.25630695999e-09
1.47720146616e-09
1.90117303658e-10
7.83286731185e-09
5.57417168711e-09
2.5016791028e-09
1.10868806215e-08
7.2848908534e-09
1.18650616685e-09
9.9881702526e-09
9.77867266762e-09
4.36865121711e-09
9.70315528281e-09
7.51102094137e-09
3.66800013282e-09
1.00961672267e-08
2.64827837298e-09
8.44165826687e-09
5.27040360364e-09
1.12014662687e-09
4.77575727129e-09
8.09528895063e-09
1.92429053774e-09
1.7169848003e-09
1.3402167876e-09
5.16387936636e-09
5.70049376058e-09
6.29772192787e-09
3.36714378775e-09
8.34960596864e-09
7.29338120145e-09
9.187961671e-09
1.14047590654e-09
7.47835682162e-10
9.15031701893e-10
6.15897766088e-09
1.44463138927e-08
2.46330919062e-10
1.08272626629e-08
1.94964099339e-09
1.18483091196e-08
3.2491949958e-09
1.70153074555e-09
1.0217574885e-09
3.29890370489e-09
5.29832831867e-09
2.09409850069e-09
2.41563400644e-09
4.29497723247e-09
4.25188336967e-09
1.71066096331e-09
4.53967372221e-09
8.61510823558e-09
9.30792774076e-09
1.29021968808e-09
3.16074646452e-09
4.83929864324e-09
1.74999865649e-09
8.63064455091e-09
5.64723420665e-09
1.28214770869e-08
4.6813158229e-09
2.34149989176e-09
2.75017822128e-09
9.10076200892e-10
6.64662443562e-09
4.7661417087e-09
4.64436711397e-09
4.26647976622e-09
9.27449206842e-09
6.70433075153e-09
1.3177598292e-09
8.16362382601e-09
7.62686834039e-09
3.28742844729e-09
3.19251271371e-09
1.24038774674e-08
2.16117066319e-09
2.85581437682e-09
8.59075985406e-10
7.01898330778e-10
2.48640405044e-09
1.55208906235e-09
7.39770096846e-09
2.81879999352e-09
1.24519052483e-09
5.92177965708e-09
2.97952136801e-10
1.10817672605e-08
4.61339145037e-09
6.57608421041e-09
1.33777869081e-08
1.4184811658e-08
2.7332365868e-09
4.48700517378e-10
2.02895025361e-09
8.52779868232e-09
5.09482917109e-09
7.22595230913e-09
7.69067954437e-09
2.3538633639e-09
3.38805548411e-09
2.36702919413e-09
1.49227212222e-09
3.13642247914e-09
3.0798616273e-10
9.54958853859e-09
1.93135218326e-09
2.57812393334e-09
4.10762676839e-09
1.01824252437e-08
5.94141799399e-10
1.11576643055e-09
7.02983956852e-09
3.61623814314e-09
1.48615407159e-10
1.30901939986e-08
3.73353438566e-09
6.7178492948e-09
1.74542110515e-09
3.82987928226e-10
2.76954326396e-10
2.00424561121e-09
6.34426596957e-09
1.73046641048e-09
7.73266750585e-09
2.69490213068e-09
5.041398776e-09
3.59638250357e-09
2.54716422315e-09
1.04759856034e-08
2.30458014921e-09
2.10207441708e-09
1.35916983326e-08
3.14523096415e-09
4.55087840313e-09
3.9736487255e-09
6.77319908939e-09
1.08248981415e-08
2.35840451647e-09
1.85149162266e-09
1.36324891672e-09
2.24574162017e-09
3.03513987256e-09
2.78523178189e-09
6.27197043894e-10
2.8470462026e-09
3.28482755781e-09
9.5650782254e-09
4.42681648711e-09
2.80290077593e-10
2.84956419341e-09
4.87508120869e-10
3.04944543742e-09
2.39490065673e-09
4.36128003168e-09
3.02358454584e-09
1.55405780431e-09
6.36848040565e-09
1.17486982691e-09
4.62016500935e-09
7.59740925077e-10
2.08340217525e-09
2.87071243304e-09
1.3138924915e-09
2.23820037036e-09
2.5930521077e-09
1.24431301762e-09
3.47868905588e-09
2.55515512403e-09
9.63286991138e-10
7.52950758892e-10
4.01329982076e-10
2.78295625538e-09
5.04292701433e-09
1.40996918659e-10
2.45957716892e-09
3.6151671791e-09
7.10430750075e-09
9.32585839456e-09
6.6396516422e-09
1.36822222607e-08
2.43399867085e-09
5.20362060265e-09
7.1681330602e-09
4.87803426731e-09
5.09766880526e-09
7.12090256365e-09
1.50395455651e-08
1.2749795703e-08
3.79804725615e-09
6.23335827212e-09
7.40838924142e-09
9.05721800985e-09
6.6830745537e-09
2.86976965411e-09
2.81679190362e-09
4.96310649749e-09
8.67553759318e-09
1.05043677133e-09
6.73433617441e-09
1.36976028275e-09
2.82410667129e-10
3.32776576062e-09
7.38879394155e-09
1.67469976245e-09
3.41718764916e-10
1.58472295848e-08
6.35377371268e-09
4.42168312185e-09
3.71960313533e-09
3.27792713352e-09
7.46739414905e-09
3.52251995696e-09
5.27815830601e-10
1.76383134974e-09
1.87457763618e-09
4.81680995639e-09
5.01627127949e-09
2.14356674208e-09
3.88797801406e-09
1.90069683696e-09
7.78006764609e-09
2.97585476184e-09
5.6338711824e-09
7.10836960488e-09
5.08619468214e-09
7.59655504884e-09
7.09019071438e-09
3.61340645075e-09
9.92058799362e-09
5.5638223003e-09
2.3859522788e-09
3.50457288567e-09
4.14672918328e-09
2.46061427921e-09
4.55186228276e-09
3.05801121006e-09
3.93415228137e-09
1.58874902913e-09
1.52449750828e-09
6.06578807251e-09
3.41932101377e-09
3.01751537239e-09
4.84398989024e-09
6.12751559418e-10
1.93088800516e-09
1.17916715613e-08
7.9639408149e-09
2.98591343793e-09
8.15798159038e-09
2.54978555675e-09
7.95134901086e-10
8.26267547921e-09
1.09933815716e-09
5.98472728158e-09
1.01118780207e-09
4.25589774759e-10
2.10141424189e-09
5.3541235646e-09
3.21917314319e-09
9.87410362112e-09
2.72199857786e-09
4.1287274856e-09
2.42338772219e-09
3.02194397695e-09
1.65995675062e-09
6.64407683085e-09
5.06396128973e-09
9.34932547047e-10
2.37677467435e-09
2.36487765436e-09
6.4750918737e-10
2.22294655279e-09
3.21289895764e-09
5.28698168032e-09
2.19265689655e-09
2.6473097032e-10
8.89472814665e-09
1.27982007623e-08
9.13950800281e-09
8.08778994292e-09
5.0166026128e-09
1.81795434356e-09
1.90977228343e-09
1.62582820925e-09
1.2761506168e-08
3.26121898167e-09
7.67795726455e-09
2.01568073009e-09
4.41630704998e-09
3.98761563923e-10
8.6454045536e-09
4.96716449485e-09
1.49007709858e-09
6.27953752176e-10
2.1783169675e-09
1.23219320743e-09
5.08417403809e-10
2.62209348094e-09
5.78863736337e-09
4.84362801898e-09
3.37046568059e-09
5.92519076042e-09
3.01896306907e-09
4.7776380986e-09
6.34102568901e-11
5.72419578635e-10
6.78247197957e-10
2.49889848139e-10
3.34795985063e-09
4.96199935651e-09
2.89322916505e-10
4.79236335547e-10
1.14220501493e-09
3.30291939207e-09
2.83043151371e-09
1.78907338205e-10
4.09949392121e-09
3.3116702224e-09
2.5961993469e-09
1.31700730972e-09
5.20993305095e-10
3.61769649536e-09
5.46427190392e-09
3.15808062031e-09
2.47877463145e-10
1.30446666015e-09
2.61646808271e-09
1.65326601553e-10
2.20363357863e-09
2.9702768519e-10
3.6685114375e-09
6.87743212293e-09
5.42693926285e-09
4.87058882938e-10
4.60377611777e-09
3.23357660194e-09
2.00001877972e-09
1.44976489624e-09
2.38886774481e-09
6.93901645765e-09
2.56442743329e-09
1.49146099042e-09
6.2350201443e-10
2.18225258669e-09
8.84790620953e-09
2.76489077752e-09
3.30878453023e-09
3.92404302078e-09
4.15461653921e-09
1.54071877938e-09
5.25725184059e-10
5.26084182175e-10
2.02017947697e-09
7.53881011901e-10
3.41974217781e-09
4.09700926451e-10
2.34381937427e-09
2.44604982401e-09
2.47848758314e-09
3.42541335011e-09
1.88923377309e-09
8.0178277452e-09
2.65453932785e-09
1.37224814092e-09
6.06479300788e-09
1.11246983608e-08
1.63403384429e-09
2.58928742497e-09
4.65909913361e-09
4.68033350348e-09
5.32239302103e-09
9.33416395844e-09
1.80899881097e-09
4.93669115972e-09
6.26331270788e-10
2.50850544348e-09
1.67078611097e-09
1.13049481338e-09
5.28091369709e-09
5.70103798487e-09
1.87399536663e-09
7.28323894405e-09
8.00154408417e-09
3.68827967088e-10
8.22984482149e-09
4.91213599381e-09
4.71418750139e-09
2.8630787275e-09
5.90794718007e-09
5.94577808058e-10
2.23439526375e-09
6.35487406135e-10
2.77014293917e-09
1.45822507766e-11
4.11304501059e-09
4.14231804591e-10
3.57307162977e-09
3.17506543112e-09
5.17215793504e-09
5.57972466467e-09
1.26281115378e-09
4.68424107966e-09
1.27082107866e-09
9.03995711389e-09
2.2781174548e-09
7.48836032284e-10
1.57998323599e-09
7.85947280549e-09
3.06313294913e-09
3.67270568185e-09
4.62539711298e-09
6.01615231566e-09
5.51783153169e-09
7.75198059733e-09
5.25808308608e-09
1.31489590905e-09
1.15754236927e-09
3.60367490545e-09
4.82981378609e-09
1.31783758941e-09
2.45114682893e-09
7.31498805636e-09
3.48088853285e-09
7.25237819484e-10
5.55977169519e-10
8.27640367001e-09
4.46368857621e-09
2.32989280927e-09
5.50956687247e-09
3.31174975831e-09
2.05267134069e-09
1.56872731122e-09
4.10428530449e-09
1.09955358247e-09
7.18300102507e-10
5.55713091446e-09
7.42173084645e-10
3.17947553414e-09
6.46160438028e-09
1.83981787332e-09
3.23590377189e-09
9.3953369062e-09
2.81279381224e-09
3.43427551342e-09
4.05236380581e-10
1.11150403645e-09
6.9218834906e-10
9.70020813223e-10
2.696831624e-09
2.58344408792e-09
1.7407112366e-09
1.34759639212e-09
6.70758092351e-10
3.22316423305e-09
2.72049807688e-10
4.79059440386e-09
5.36298547228e-10
7.1158969359e-10
2.58184126826e-09
3.17421845046e-09
2.43858152569e-09
1.50471118794e-09
7.1748843938e-09
1.03472070954e-08
2.73934166019e-09
3.66857546456e-09
2.29078622865e-09
3.11420582206e-09
7.66004808404e-09
3.57642690514e-09
2.0938337791e-09
1.05718322497e-09
7.26438445672e-09
1.24450952796e-08
4.27439360192e-09
7.54905287782e-09
2.68223529047e-09
4.17648157576e-09
1.95158366479e-09
1.27482730396e-09
5.49893172646e-10
1.85748553732e-10
2.61790702456e-09
1.11361703726e-08
9.8088522371e-10
3.1752681196e-09
6.13393996624e-09
4.34715888654e-09
3.93357037202e-09
1.61576251712e-09
5.14705010922e-09
4.68339160846e-09
3.14774764281e-09
1.65127750754e-09
1.02675987835e-09
6.52884598201e-09
2.55642708131e-09
5.20227889399e-09
3.32644250556e-10
4.11058433622e-09
5.54157250569e-09
1.71133937394e-09
6.96599012983e-10
5.99785096539e-10
2.5778210407e-09
2.14705738988e-09
8.09874441212e-10
2.43822415567e-09
3.87996071679e-10
4.74463358931e-09
1.20718867933e-08
5.80401555934e-09
8.79375886335e-09
9.53021678423e-09
1.50530013376e-09
6.65301929499e-10
3.46401616761e-09
2.17682158428e-09
2.71511266508e-11
1.04289429876e-10
3.47500490623e-10
1.40380323708e-09
1.41243025825e-09
1.1747100711e-09
4.60814638924e-10
1.09470576786e-08
2.95615227144e-09
3.08448687229e-09
1.67160356845e-09
5.09351424693e-09
2.34703296822e-09
4.58884359705e-09
4.1525721554e-09
2.78491050379e-09
2.10662447476e-09
5.0178606131e-10
2.55536430922e-09
1.17805135327e-09
1.28614960945e-09
4.39415596682e-09
3.66469898252e-09
5.29702874991e-09
1.6812531622e-09
3.34337715608e-09
2.18870213194e-10
4.11601272718e-09
1.10426082171e-08
7.06316412218e-10
1.94887294468e-09
6.23286108845e-09
7.78690717245e-09
1.07333166317e-09
4.58385932585e-09
1.41911485991e-09
1.48015167396e-09
1.09693731272e-10
1.68294630113e-09
2.14711566923e-09
2.26069913451e-09
2.05012173486e-09
4.51774996803e-10
2.28846166995e-09
5.6073024557e-10
2.45202416834e-09
8.30573842283e-10
2.79191909997e-09
3.01377714409e-09
1.91056097584e-09
2.43678908992e-09
5.09819784741e-09
1.57174715727e-09
3.82754431218e-09
5.01281393772e-09
4.53849472869e-09
3.97512588363e-09
7.80610203162e-09
2.34980563526e-09
4.79353859629e-09
8.77652445587e-10
3.72917394431e-09
5.95237893495e-10
4.65017497635e-11
3.81823814915e-10
2.36779571737e-09
8.62481583558e-10
1.21108148763e-09
4.11121292118e-09
4.73001683334e-09
2.06632071584e-09
2.66273084482e-09
4.14095653873e-09
1.20073144813e-11
1.35427449914e-09
8.57861414404e-09
8.88411607611e-09
4.88250591082e-10
5.48275634307e-10
1.43911022697e-09
9.03883930831e-09
3.34234512938e-09
3.42825141357e-09
1.62796587929e-11
1.84013840244e-09
2.10414324276e-09
1.59170856923e-09
4.53612432919e-10
1.13633661973e-09
4.84343673729e-09
9.63735822515e-09
7.89399838515e-09
1.92448845601e-09
3.66153293403e-09
1.04020164703e-08
5.97796858006e-09
2.5006071378e-09
1.72485618716e-10
4.94568064379e-10
1.32872150511e-11
2.17224695125e-09
4.69750760499e-09
7.90784588749e-10
9.68302685939e-10
2.49071860859e-09
2.38970175846e-09
6.64993471115e-09
3.03269511846e-09
2.63915719563e-09
9.57135884679e-10
5.15940937535e-09
7.35436271479e-09
8.54349720445e-09
9.77225866783e-10
3.70583585973e-09
5.65308320251e-10
7.54131940057e-09
8.26711150403e-09
7.90093486792e-10
3.41909487093e-10
1.15518152647e-08
1.70376660437e-09
1.32350232082e-09
2.95537004e-09
8.36550117999e-09
2.03873730374e-09
6.94954767266e-09
5.9057896944e-10
9.19334672368e-09
1.71382840198e-10
3.46885501341e-09
8.39909898899e-09
5.52484551131e-09
8.30028399457e-10
4.13664775732e-09
5.09996664785e-10
3.16605009361e-09
5.91876331983e-09
2.42331627402e-09
3.7929662993e-09
7.10157066954e-09
5.60886215684e-09
5.77817270112e-09
1.24404025609e-10
6.46310907848e-10
1.0984495343e-10
1.65905607891e-09
6.75376756839e-10
5.77851657032e-10
5.84626073842e-10
1.76060466644e-09
7.62415664085e-10
4.58975755624e-10
1.36770610525e-09
3.73966632277e-09
4.54453146247e-10
4.99557684107e-09
7.00323213158e-10
1.79277773847e-09
1.17085277393e-09
2.80581586995e-09
4.10574264501e-09
2.49391738114e-09
5.75362842887e-09
1.76500721039e-09
5.81295004066e-09
1.77584291199e-09
3.30431506107e-09
1.33673729395e-09
2.53149135997e-09
4.47153520395e-09
4.31362467071e-09
2.95843757487e-09
3.69729462798e-09
8.50268439482e-09
5.52933042044e-09
2.83924037914e-09
5.13740618948e-10
2.73422779116e-09
3.17731791153e-09
2.02865069642e-09
1.98068257784e-09
1.19929325175e-09
9.41696880337e-10
1.72126247977e-09
1.24745565982e-10
2.19914974517e-09
2.20524506928e-09
3.37477502892e-09
1.02013840807e-10
2.90000382282e-09
3.05305085428e-09
7.24106964767e-09
3.4916338516e-09
2.02958547037e-09
4.01527330962e-09
5.13438348007e-09
1.017678072e-08
1.11884800869e-09
1.35073232134e-09
3.0515435126e-09
3.46859567255e-09
1.24642105466e-08
1.86061686282e-09
1.81743175855e-09
3.46916704133e-09
3.21324431544e-09
4.97212617234e-09
3.64467390385e-09
6.55951581343e-10
4.84751515031e-09
6.29010719423e-10
4.81540181178e-09
5.36347844661e-09
7.752863091e-09
2.19795651219e-09
5.01071413891e-10
8.3826193954e-09
4.89511047819e-10
3.28811628566e-11
3.32094755299e-10
6.40253561285e-09
7.22193888246e-10
1.99322444951e-09
8.42268277077e-09
2.38905097922e-09
1.55854227097e-09
3.37184898858e-09
4.7006205619e-09
2.84352272294e-09
1.34085168073e-09
2.91959618788e-09
8.38611434295e-10
5.07511627684e-10
5.43608665773e-09
2.57454818846e-09
2.8794625007e-09
1.11452129917e-08
3.49313317342e-09
1.81488736089e-09
4.40921755371e-09
1.15804563492e-10
2.21657000497e-10
3.20567262062e-09
4.70031532014e-09
2.2624973112e-09
4.44956612047e-09
1.5582250847e-09
1.05536207081e-09
1.61480356615e-09
2.25727340348e-09
1.37480500505e-09
2.41893661049e-09
7.89369118068e-09
5.80999957983e-10
9.1370759578e-09
1.16907148627e-08
8.24133204914e-10
3.82650500021e-09
2.99328296996e-09
4.51833004711e-09
1.14399191365e-09
2.30819650712e-09
2.32444082391e-10
4.58607619916e-09
4.43674450403e-10
6.11373474031e-09
1.48246595443e-11
1.01776938593e-09
5.26527483046e-09
4.05225747389e-09
2.24323100312e-09
1.01073768482e-08
7.29307199684e-10
4.48399409771e-09
6.05923893358e-09
1.9166219725e-09
7.50454918472e-09
1.16495349823e-08
3.43008903898e-10
9.17215349151e-10
8.93752378092e-10
1.66495365701e-09
2.67275599491e-09
3.22284182154e-09
1.50832109711e-09
5.1197539206e-09
6.12031761597e-09
8.43178338007e-09
2.37415310537e-09
9.56014927065e-10
3.18083896396e-09
4.61487272395e-10
8.2382635713e-10
4.41984934996e-11
8.2715519546e-10
2.24215735861e-09
7.08891045642e-10
2.30418207604e-09
5.64990363839e-09
2.54363907741e-09