# vtk DataFile Version 3.0
File Name: Molecule/sphere_excent/sphere_excent_0-s6.vtk
ASCII
DATASET UNSTRUCTURED_GRID
FIELD FieldData 1
TIME 1 1 double
0.0
POINTS 62 double
0.85057985783 -0.52581477165 0.0002486636804
0.80893743038 -0.30899116397 -0.49993613362
0.99991595745 -1.4509923858e-05 -1.4178668607e-05
0.80892688036 0.30898571014 -0.49995020032
0.52572870255 -1.2712942521e-07 -0.85065233707
0.85063552856 0.52576756477 -0.0001959571382
0.49994814396 0.80893135071 -0.30898803473
0.30897963047 0.49994438887 -0.8089312911
-3.199889079e-06 0.85065215826 -0.52572894096
0.50037586689 0.80915486813 0.30815944076
-5.7538736655e-06 0.99989926815 8.3723396529e-05
0.0003277962096 0.84985202551 0.52694189548
-0.5003182888 0.8091172576 0.30830442905
-0.49996158481 0.80892270803 -0.3089915812
-0.85061919689 0.52588421106 -0.00060946901795
-0.32399737835 0.53495061398 0.77945864201
-0.82177650928 0.32807594538 0.46462348104
-0.29991093278 -0.53439390659 0.78909385204
-0.00032719544834 -0.85371983051 0.52097153664
0.29874593019 -0.55674505234 0.77319037914
0.30898031592 -0.49994525313 -0.80893152952
-5.9931329588e-07 -1.922346371e-07 -0.99989145994
-0.30898678303 -0.49994722009 -0.80892688036
-2.3325292204e-06 -0.8506450057 -0.52574056387
-0.52573341131 1.562626835e-06 -0.85064941645
0.81215715408 -0.29601794481 0.49907246232
0.82085072994 0.30942952633 0.4776546061
0.33714351058 0.52394533157 0.78102260828
-0.80894219875 -0.30897986889 -0.49993211031
-0.80893450975 0.30897480249 -0.49994775653
-0.99995696545 0.00010135861521 0.00042769405991
-0.85057276487 -0.52589696646 -0.00015957058349
-0.30898338556 0.49994519353 -0.80892914534
-0.49993571639 -0.80893188715 -0.30900034308
-0.4996470809 -0.80977398157 0.30770862103
-0.00024624200887 -0.99993020296 -0.00063112715725
-0.8032348156 -0.33319270611 0.49164584279
0.49989575148 -0.80885076523 -0.30939820409
0.49349656701 -0.8173789978 0.29048335552
0.15709897876 0.26875257492 0.95029884577
0.27571666241 -0.014389161952 0.9610144496
0.46167555451 0.28252318501 0.84038615227
0.14888052642 -0.27701595426 0.94907647371
-0.019359527156 0.0034668010194 0.99975907803
0.44155043364 -0.25435653329 0.86031758785
0.55091249943 0.033517017961 0.83329463005
0.0002975599491 0.52744746208 0.84959656
-0.16745947301 0.27308666706 0.94732564688
-0.53304463625 0.012412456796 0.84602290392
-0.44020757079 -0.25335481763 0.86127519608
-0.29052364826 -0.00066202064045 0.95664471388
-0.18218442798 -0.24499844015 0.95220261812
-0.45041805506 0.26843014359 0.85145187378
-0.59927475452 0.43346124887 0.67294532061
-0.69657188654 0.16579176486 0.69806945324
-0.69982099533 -0.13371303678 0.70156431198
-0.854162395 0.00078899611253 0.51986432076
0.4240167141 -0.70939034224 0.56308037043
0.58553856611 -0.46078172326 0.66739165783
0.68767702579 -0.5895062089 0.42391702533
0.70388323069 0.18065495789 0.68683606386
0.60393172503 0.43194949627 0.66961920261

CELLS 120 480
3 0 1 2
3 1 3 2
3 1 4 3
3 2 3 5
3 5 3 6
3 3 7 6
3 3 4 7
3 6 7 8
3 5 6 9
3 6 10 9
3 6 8 10
3 9 10 11
3 11 10 12
3 10 13 12
3 10 8 13
3 12 13 14
3 11 12 15
3 12 14 16
3 17 18 19
3 4 20 21
3 20 22 21
3 20 23 22
3 21 22 24
3 0 2 25
3 2 26 25
3 2 5 26
3 5 9 26
3 9 11 27
3 24 28 29
3 28 30 29
3 28 31 30
3 29 30 14
3 8 32 13
3 32 29 13
3 32 24 29
3 13 29 14
3 31 33 34
3 33 35 34
3 33 23 35
3 34 35 18
3 31 34 36
3 34 17 36
3 34 18 17
3 16 14 30
3 36 30 31
3 24 22 28
3 22 33 28
3 22 23 33
3 28 33 31
3 23 37 35
3 37 38 35
3 37 0 38
3 35 38 18
3 4 1 20
3 1 37 20
3 1 0 37
3 20 37 23
3 4 21 7
3 21 32 7
3 21 24 32
3 7 32 8
3 39 40 41
3 19 42 17
3 43 42 40
3 42 44 40
3 42 19 44
3 40 44 45
3 45 44 25
3 15 46 11
3 11 46 27
3 15 47 46
3 47 39 46
3 47 43 39
3 46 39 27
3 40 39 43
3 48 49 50
3 49 51 50
3 49 17 51
3 50 51 43
3 17 49 36
3 43 51 42
3 42 51 17
3 48 50 52
3 47 50 43
3 16 53 12
3 12 53 15
3 15 53 52
3 53 54 52
3 53 16 54
3 52 54 48
3 48 54 55
3 54 56 55
3 54 16 56
3 55 56 36
3 36 56 30
3 30 56 16
3 15 52 47
3 47 52 50
3 48 55 49
3 49 55 36
3 19 57 58
3 57 59 58
3 57 38 59
3 58 59 25
3 38 57 18
3 18 57 19
3 25 59 0
3 59 38 0
3 26 60 25
3 25 60 45
3 27 61 9
3 9 61 26
3 26 61 60
3 61 41 60
3 61 27 41
3 60 41 45
3 19 58 44
3 44 58 25
3 45 41 40
3 39 41 27

CELL_TYPES 120
5
5
5
5
5
5
5
5
5
5
5
5
5
5
5
5
5
5
5
5
5
5
5
5
5
5
5
5
5
5
5
5
5
5
5
5
5
5
5
5
5
5
5
5
5
5
5
5
5
5
5
5
5
5
5
5
5
5
5
5
5
5
5
5
5
5
5
5
5
5
5
5
5
5
5
5
5
5
5
5
5
5
5
5
5
5
5
5
5
5
5
5
5
5
5
5
5
5
5
5
5
5
5
5
5
5
5
5
5
5
5
5
5
5
5
5
5
5
5
5

CELL_DATA 120
SCALARS cell_data_0 double
LOOKUP_TABLE default
6.5196185408e-08
2.58387240014e-07
4.32051340132e-08
3.72136713296e-08
1.64202441571e-07
1.89131774638e-07
1.17675866759e-07
1.37654693283e-07
6.52574120277e-07
2.24271112174e-07
1.75248637287e-07
1.23489722417e-06
1.38102280735e-06
1.18935305024e-06
3.56790393692e-07
9.76616471329e-07
5.34744449836e-06
1.25863362055e-06
1.11054978077e-06
9.59170976674e-09
5.0429098215e-08
3.35205766331e-09
2.21752602545e-08
6.86538308579e-07
2.63587072061e-06
6.17209993185e-07
1.16743836041e-06
9.27901988424e-07
1.62382542023e-07
2.73561830635e-07
4.95542795596e-07
4.21049107103e-07
7.19609922364e-08
3.40137684061e-08
7.60024328277e-09
1.26574410909e-07
6.2754120257e-07
1.40973883034e-07
1.5372816008e-07
1.25930873682e-06
1.36159084437e-06
5.47947478937e-07
1.46716326843e-06
1.7320485263e-06
1.98415667652e-06
3.21331677603e-08
4.04048656113e-08
8.09864395251e-08
1.52727674071e-07
2.31302468706e-07
4.84792852057e-07
2.18037377051e-07
6.65445927265e-07
5.51346991882e-08
1.86747180533e-07
7.7513103702e-08
4.34260074061e-08
4.12199274454e-09
3.84784168987e-08
2.50148990349e-08
9.55197857891e-09
3.4751993125e-06
5.08457256057e-06
4.26483926624e-07
8.70431677203e-07
4.90400947642e-06
1.89660994472e-06
4.15285039379e-06
3.09509579515e-06
2.71172267475e-06
1.8929711843e-07
1.26186230448e-06
1.8693487585e-06
2.47789694651e-06
1.8373983794e-06
5.85918426357e-07
8.2306550875e-07
1.01271859848e-06
9.49669924375e-07
6.14738359495e-06
1.00299799065e-07
1.37464253384e-06
6.73660249005e-07
1.08933554383e-06
1.35751714377e-06
2.14121349921e-06
3.85119490199e-07
3.96349927979e-07
3.51195213339e-08
3.34131708542e-07
7.23964191007e-07
2.80309738674e-07
4.87730935869e-07
9.44119634853e-07
8.88288935531e-07
1.01290580711e-06
3.29535776654e-07
1.98191513179e-06
8.35894816121e-07
2.99372800221e-06
1.13824493283e-06
6.88476135243e-07
3.38869328429e-07
7.15950684362e-07
1.4818289299e-08
1.51869827936e-08
2.81535583799e-07
2.06202785158e-07
4.91554205529e-07
6.28698481994e-07
1.14082023859e-06
5.55694449987e-08
7.97242545449e-07
4.36943453287e-07
9.716754417e-07
1.42400603623e-06
1.30402278963e-06
2.91342235351e-06
1.1251731649e-06
3.4920598586e-06

