# vtk DataFile Version 3.0
File Name: Molecule/sphere_excent/sphere_excent_0-s21.vtk
ASCII
DATASET UNSTRUCTURED_GRID
FIELD FieldData 1
TIME 1 1 double
0.0
POINTS 447 double
0.82236778736 -0.2907705307 -0.4887445569
0.9819265008 -0.055675968528 -0.17008899152
0.81197082996 -0.5259026885 -0.24891404808
0.50462889671 0.00015289378644 -0.8622674942
0.25877961516 -0.47725623846 -0.83908951283
-0.0028635631315 0.00069053919287 -0.99990546703
-0.30510932207 -0.49395421147 -0.81436687708
0.0065948083065 -0.83772903681 -0.54620862007
-0.52604132891 -0.0015110488748 -0.85049587488
-0.30815559626 0.49072292447 -0.81511169672
-0.78031468391 0.30158430338 -0.54605793953
-0.77639305592 -0.35830354691 -0.51640480757
-0.46273884177 -0.78418111801 -0.413672328
0.4464020431 -0.8205550313 -0.35550165176
0.11017471552 -0.98257857561 -0.14355884492
0.26387748122 0.48152703047 -0.8347401619
-0.0093277748674 0.81595003605 -0.57647418976
0.2710160017 -0.58466225863 0.76451414824
0.18946050107 -0.47321581841 0.86032670736
0.12833966315 -0.57440233231 0.80745351315
0.32734382153 -0.44706133008 0.8323353529
0.12693242729 -0.67804569006 0.72354406118
0.31512928009 -0.69956797361 0.64084160328
0.46686542034 0.8167296648 0.33899348974
0.32357245684 0.93158268929 0.16518330574
0.27674016356 0.89260846376 0.35544133186
0.040085569024 0.96653151512 0.24978066981
-0.86320108175 -0.49767050147 -0.072446875274
-0.94208818674 -0.16180668771 -0.29341492057
-0.45261821151 -0.84964025021 0.27012377977
-0.29928186536 -0.94235354662 0.14916805923
-0.25416755676 -0.89359396696 0.36916783452
-0.96468991041 -0.17333006859 0.19812527299
-0.96234190464 -0.27118104696 -0.01609637402
-0.87731766701 -0.45277690887 0.15763373673
-0.99776315689 0.0049691395834 -0.064663134515
-0.9718940258 0.13630081713 0.19106517732
-0.19923695922 0.27115634084 0.94130849838
-0.29285484552 0.29014822841 0.91106987
-0.25503343344 0.19309081137 0.94742572308
-0.35851165652 0.18110091984 0.91559439898
-0.022116802633 0.99833554029 -0.051619369537
-0.26566109061 0.94783008099 -0.17198731005
-0.27100208402 0.95461171865 0.12277820706
-0.49127691984 0.8674826026 -0.061992425472
0.85703116655 0.51008886099 -0.068704560399
0.71538430452 0.68590342999 0.13024480641
0.85452312231 0.47328463197 0.2125210911
0.74738055468 0.55695605278 0.3619210124
0.8610907793 0.32988512516 0.38368663192
-0.93862140179 0.16328808665 -0.3038790226
-0.95451319218 0.29604136944 -0.037657931447
-0.84226375818 0.45550760627 -0.28785455227
-0.69864851236 -0.69131493568 -0.18419602513
-0.72676175833 -0.67743086815 0.11065070331
-0.55357444286 -0.83269733191 0.007818389684
-0.8901450038 0.41920253634 0.17865811288
-0.82295894623 0.56576251984 -0.051507286727
-0.7079398036 0.69590675831 0.11630952358
-0.19291846454 -0.82734137774 0.52734851837
-0.13313026726 -0.75068300962 0.6470207572
-0.28720524907 -0.74849271774 0.59750282764
-0.22391194105 -0.67907226086 0.69907701015
-0.39987039566 -0.78638023138 0.47086453438
-0.11009266973 -0.65487080812 0.74767452478
-0.65143311024 0.11994353682 0.74881911278
-0.73557144403 0.21266935766 0.64273625612
-0.75435727835 0.039822041988 0.6548653245
-0.74751567841 -0.11816698313 0.65359741449
-0.843141675 -0.093344844878 0.52948814631
0.50723659992 0.57141578197 0.64475291967
0.58959066868 0.64786827564 0.48247915506
0.4543145597 0.72108507156 0.5231474638
0.67401188612 0.51008152962 0.53423643112
0.60878825188 -0.21544589102 0.76347261667
0.63572186232 -0.33180680871 0.69697976112
0.67572325468 -0.21351277828 0.7054117918
-0.064255282283 0.039594337344 0.99705934525
-0.15482662618 0.054221566767 0.98644298315
-0.12452548742 -0.031226478517 0.99172312021
0.62783390284 0.71263539791 0.3127887249
0.52853572369 0.83948552608 0.12569186091
0.7811383605 0.3718162775 0.50086247921
0.61023920774 0.44435751438 0.65575301647
-0.4515568614 -0.65407049656 0.60611236095
-0.58814477921 -0.64384073019 0.48931139708
-0.54837059975 -0.54230344296 0.63654357195
0.40320661664 -0.83407360315 0.3762280643
0.44927486777 -0.87726706266 0.16900081933
0.57270514965 -0.76039302349 0.3059938252
0.5779248476 -0.67232125998 0.46228721738
0.70189964771 -0.62669080496 0.33687749505
-0.42423549294 -0.27640461922 0.86207747459
-0.32495245337 -0.31404590607 0.89205545187
-0.33627358079 -0.19719916582 0.92088967562
-0.41276118159 -0.37343984842 0.83073532581
-0.38761016726 -0.46399331093 0.79651552439
-0.49189433455 -0.45260554552 0.74376738071
-0.42900207639 -0.55020540953 0.71637284756
-0.51838922501 -0.34250620008 0.78354996443
-0.60191833973 -0.41946619749 0.67953509092
-0.61729574203 -0.31097850204 0.72266340256
-0.55745023489 -0.23283298314 0.79678428173
-0.67178279161 -0.46992236376 0.5725081563
-0.71069645882 -0.33682113886 0.61758315563
-0.79496538639 -0.36396509409 0.48516318202
-0.79249620438 -0.22822239995 0.56554996967
-0.68991422653 -0.22554630041 0.68721300364
0.1368265599 -0.35923886299 0.92268425226
0.25015756488 -0.35546511412 0.90058726072
0.19886375964 -0.25305789709 0.94679284096
0.3263233006 -0.22397445142 0.91831248999
0.11386425048 -0.063562721014 0.99140936136
0.15625923872 0.018172279 0.98747164011
0.061654660851 0.017519436777 0.99780100584
-0.39063087106 0.29616299272 0.87142300606
-0.33046001196 0.38406458497 0.86150550842
-0.41423517466 0.40340352058 0.81557035446
-0.1947709024 -0.94872057438 -0.2474142611
-0.64957976341 0.35532927513 0.67214226723
-0.62205463648 0.2466699779 0.743067801
-0.56271982193 0.33825942874 0.75400912762
-0.51894134283 0.2494944483 0.81715089083
-0.18119239807 -0.20694249868 0.96141391993
-0.12653875351 -0.31007188559 0.94224852324
-0.067663751543 -0.22117903829 0.97272026539
-0.10536778718 -0.4267449379 0.89820975065
-0.018901750445 -0.3415184319 0.93923324347
-0.69986879826 0.44931006432 0.55449712276
-0.56136971712 0.48991703987 0.66629123688
-0.0088142473251 -0.61969202757 0.78426879644
-0.0054538976401 -0.72494202852 0.68871420622
-0.31793230772 -0.60854977369 0.72684288025
-0.20923604071 -0.59540808201 0.77569335699
-0.2939221561 -0.52048712969 0.80166828632
-0.090448759496 -0.54389882088 0.83421528339
-0.18654967844 -0.51621311903 0.83587485552
-0.22453339398 -0.44595760107 0.86642742157
0.011848194525 -0.47513055801 0.87911951542
-0.12837150693 -0.99146670103 0.017412982881
-0.3580570817 -0.92891430855 -0.094067759812
-0.12362671643 -0.94754076004 0.29287800193
0.29592344165 -0.042773272842 0.9542427063
0.20135001838 -0.069138199091 0.9770758152
0.25737354159 -0.14501237869 0.95532596111
0.16337811947 -0.15647567809 0.97407507896
-0.23680494726 -0.28179895878 0.9297786355
-0.21282193065 -0.36646673083 0.90576571226
-0.31346285343 -0.41300836205 0.85506361723
0.07927750051 -0.22320753336 0.97129350901
0.37077653408 -0.084801338613 0.92471343279
0.49083888531 -0.86791491508 -0.075039289892
0.67447674274 -0.72221088409 -0.15170533955
0.67293554544 -0.73376142979 0.091034770012
0.59683454037 -0.48658451438 0.63743644953
0.67057102919 -0.54081171751 0.50732165575
0.71761792898 -0.39732477069 0.57191520929
0.81768721342 -0.40730214119 0.40511065722
0.8182746172 -0.27886432409 0.50256353617
0.68960720301 0.27634045482 0.66933983564
0.72494006157 0.18457563221 0.66357386112
0.75862568617 0.29133924842 0.58272707462
0.64515304565 0.14612956345 0.74994111061
0.55753624439 0.061001740396 0.82785981894
0.54043656588 0.22816190124 0.80976080894
-0.20361863077 0.88806039095 0.41087859869
-0.29798614979 0.7983135581 0.52322554588
-0.089855849743 0.87718838453 0.47152665257
-0.38107141852 0.86363357306 0.32987466455
-0.46813631058 0.76466733217 0.44282853603
-0.55191427469 0.79078751802 0.26393461227
-0.41388824582 0.69843113422 0.58367776871
0.01838773489 0.84520477057 0.53291201591
-0.099969208241 0.80157977343 0.58922487497
0.046745270491 0.73650759459 0.67483139038
-0.03999453038 0.66782140732 0.74296379089
0.076701596379 0.62562960386 0.7763351202
0.68396562338 0.017119884491 0.72926604748
0.75929427147 0.078635573387 0.64592522383
0.78731971979 -0.043626148254 0.61480361223
0.86047655344 0.050021398813 0.50697112083
0.78718030453 0.19504660368 0.58423054218
0.74303472042 -0.26392427087 0.61469554901
0.17800393701 0.75713151693 0.62853509188
0.19301773608 0.64780920744 0.73684996367
0.30073106289 0.66945517063 0.67877268791
0.17941752076 0.53869181871 0.82316762209
0.27700674534 0.53879785538 0.79539948702
0.27646934986 0.43180406094 0.85847431421
0.17979346216 0.85133522749 0.49272724986
0.02928731963 0.91351437569 0.40449565649
0.34790620208 0.8145608902 0.46408221126
0.29938685894 0.7617880702 0.57448863983
-0.76417076588 -0.56484770775 0.30864834785
-0.85236620903 -0.3973441124 0.33966305852
-0.88209277391 -0.22291114926 0.41499975324
-0.86951184273 0.056327637285 0.49057751894
-0.92757874727 -0.060772333294 0.36842176318
-0.53301894665 0.83815914392 0.11304911226
-0.72873419523 -0.51767319441 0.44796395302
-0.65889042616 -0.68071842194 0.31933400035
-0.15288922191 -0.11929539591 0.98083734512
-0.25224426389 -0.12543851137 0.95949774981
-0.21475508809 -0.04405355826 0.97569227219
-0.33666169643 -0.052497129887 0.93981570005
0.38893502951 0.68324804306 0.6179369092
0.72620236874 -0.12365078181 0.67622309923
0.64199954271 -0.077212885022 0.76278275251
0.70902776718 0.37542495131 0.59664541483
0.42542636395 0.67979443073 -0.59731954336
0.49563512206 0.80192548037 -0.33339598775
0.25355383754 0.86680448055 -0.42926800251
0.24769969285 0.94642102718 -0.20676167309
0.025532815605 0.95384454727 -0.29899048805
0.35352641344 -0.33887222409 0.87190669775
0.42312756181 -0.28201052547 0.86106085777
0.43360671401 -0.38208031654 0.81603235006
0.50258857012 -0.3174919188 0.80401152372
0.52907049656 -0.412396878 0.74159175158
0.42578142881 -0.48722359538 0.76223933697
0.27184560895 0.15651194751 0.94948345423
0.37151443958 0.18950974941 0.90888702869
0.29968973994 0.28319391608 0.9110275507
0.42524665594 0.26573738456 0.86518067122
0.46693658829 0.16941401362 0.86786919832
0.42169219255 0.087430499494 0.90236622095
0.0024492391385 0.49140664935 0.87086063623
[...]
CELL_DATA 890
SCALARS cell_data_0 double
LOOKUP_TABLE default
4.81138759439e-08
6.30165694709e-09
2.3941390397e-08
2.76541920616e-08
3.83295405541e-08
5.95656189612e-08
1.9069969188e-08
4.74041928937e-08
6.35817947037e-08
2.09828192843e-08
5.34444982233e-09
6.42272577685e-09
4.4235566634e-08
2.68391162959e-08
9.94310944468e-09
2.20868084967e-08
3.57734276597e-08
1.60053326098e-08
7.64004817649e-09
3.36552003798e-09
4.67322214464e-09
1.81775588054e-08
1.12540189936e-09
6.9244384981e-08
6.04230561278e-08
5.47602514808e-08
2.05221033052e-08
2.40934152049e-08
6.20031081005e-09
5.85712427994e-09
2.09261450464e-08
3.8554385117e-09
4.16328950381e-08
3.03062928346e-08
1.03264619339e-08
2.64328504181e-08
2.40362082709e-08
1.90365128766e-08
6.12741975492e-08
7.335300648e-08
3.98274967183e-08
1.36143546925e-08
1.95314620525e-08
2.69353831709e-08
3.13982309285e-08
7.90465008697e-09
2.1268223099e-08
1.74186132515e-08
1.32381567877e-08
1.25745138508e-08
2.77288474889e-08
7.34934260189e-08
7.31531392934e-08
9.88013887109e-09
2.53451216403e-08
3.44951815071e-08
8.4434229537e-09
8.47738556137e-09
4.59331552242e-08
6.18898224994e-08
4.11851406186e-08
8.01229909615e-09
3.58778649499e-08
3.97038788869e-08
1.3634280999e-09
6.15850103235e-08
5.67153848796e-08
7.4379335971e-08
1.46926326375e-09
3.13573854711e-08
3.19149475584e-09
1.79597227818e-08
4.86029281843e-08
4.44503335924e-08
3.50152454551e-08
3.06651828297e-08
1.01687563278e-08
3.59178534373e-08
3.10565847726e-08
4.58987745749e-08
3.34714253339e-08
9.72793908933e-09
2.48177251356e-08
2.66115538205e-08
3.88379322516e-08
2.79899009298e-08
3.25395147999e-08
1.29502240807e-08
8.42807484752e-09
4.54685053324e-08
1.33585070475e-08
2.13034992242e-08
7.53757153465e-09
3.12511535332e-08
2.04046167319e-09
1.10932875085e-08
2.6569112242e-08
1.39508785804e-08
2.40174072057e-10
6.04109567648e-08
5.64408322538e-09
3.34897010297e-08
3.93898774421e-08
3.12103169068e-08
8.02576491781e-08
6.33313153487e-08
1.04733046172e-08
6.4823227733e-08
1.2066527071e-08
2.89503267321e-08
6.71816807204e-08
5.32876148228e-08
4.53955813801e-08
2.07415992011e-08
4.41912767301e-08
2.28110798476e-08
2.07493849904e-08
1.82769330517e-08
3.72219708081e-08
2.53018612553e-09
5.74329914692e-09
8.76556907788e-10
1.01978349932e-08
1.91037497601e-08
3.47926324524e-08
1.74676599194e-08
3.01714368591e-08
1.22669283385e-08
5.87228545607e-08
6.67599988003e-08
3.31294707634e-08
1.69733850078e-09
8.625820679e-09
3.03562083954e-08
1.69673006936e-08
3.8062246729e-08
3.24801082798e-08
6.71127732384e-09
3.90512266974e-08
3.59754317006e-08
1.35844793528e-08
2.14833148195e-08
3.96988338963e-08
2.56379277354e-08
9.9132707679e-09
1.39780721822e-08
2.4212248804e-08
5.9935570584e-10
2.26594026358e-08
1.02050354791e-09
1.37827940386e-08
4.39692237139e-08
1.4670050061e-08
2.65667957974e-08
2.8423475541e-08
6.53966828489e-08
3.45208899537e-08
7.80569825714e-09
6.15629440249e-09
1.70823781596e-08
7.85043387446e-09
5.08550518402e-08
3.4361980451e-08
2.33133128832e-08
4.28685568984e-08
1.72627376895e-08
4.27270702052e-08
7.61671017035e-08
2.90572818069e-08
3.99737559869e-08
2.8153996821e-08
1.44714354522e-09
5.92852270315e-08
4.20871605624e-09
7.40699074554e-09
1.50040729856e-08
2.04325775679e-09
7.33541703336e-09
2.66384848204e-08
9.45059114584e-11
2.92614308535e-08
1.44652046295e-08
3.9372148306e-08
1.38501867621e-08
4.02806103893e-08
2.43257475361e-08
9.16829665017e-10
2.04530221022e-08
3.96991159855e-08
2.22093489214e-08
1.55499956013e-09
7.51880256357e-09
1.45993476036e-10
2.19126224095e-08
2.95616812887e-08
5.70127889836e-08
1.26218626857e-08
7.18980888802e-08
4.52606785481e-09
1.56746681823e-08
2.42284421563e-08
2.20804353143e-08
2.26375014663e-08
1.62019551443e-09
2.88383815757e-08
1.56459274369e-08
1.89998753337e-09
1.13968938558e-10
5.51960790211e-08
2.37674831769e-08
1.15242894992e-08
6.55801852716e-10
1.73590607192e-08
2.220192291e-09
2.31786776173e-09
1.43786997746e-08
3.3139785755e-08
3.74671153687e-08
2.79436846778e-08
1.34296040559e-08
3.19572839379e-08
2.89859965706e-08
3.47048277827e-08
3.32276908125e-09
2.59805165019e-08
3.79894763408e-08
1.68144916025e-08
2.74534896226e-08
5.40310006784e-09
6.19622853759e-09
1.57798985934e-08
7.81867220771e-10
1.50441087681e-08
4.59248685547e-08
1.02400313487e-08
1.96245791173e-08
2.54853287924e-08
1.72380382117e-08
1.70615068306e-08
7.50534707211e-09
4.29311365599e-08
5.13983569673e-08
4.45191364332e-08
1.16391028749e-08
6.2884462608e-09
3.57032044314e-08
1.56675325298e-08
5.79304203204e-09
7.22153465878e-09
1.30781753872e-08
8.99192778722e-09
1.19325290937e-08
2.13543629505e-08
1.39720790691e-08
7.55096215504e-09
1.62283980939e-08
1.04032320602e-08
7.46341921327e-08
3.03305427759e-08
1.48789078714e-08
4.82321128706e-08
1.4901310539e-08
3.65874220107e-09
3.52677375223e-08
9.28517994637e-09
4.99726194929e-08
6.25480523298e-08
6.29824991391e-09
1.99130729837e-09
4.91285517281e-08
6.65763383055e-09
2.974188785e-09
6.72098531863e-09
2.0417816655e-08
9.97765872233e-09
1.22462927209e-08
3.84478498189e-08
9.52002863839e-09
2.76018272385e-08
1.81806049539e-08
1.01583278934e-08
1.49147177044e-08
1.58012124241e-08
2.39958309739e-08
3.0760818305e-08
3.20930696749e-08
7.62994053562e-10
3.3681317618e-08
3.75830675978e-08
4.11401461133e-08
2.5546490545e-08
1.32978542828e-08
3.9750780804e-08
4.58919947471e-10
3.55949315062e-09
1.8285017072e-09
2.50027988092e-08
5.8036905408e-08
4.3970723536e-08
8.15747662289e-09
7.30295561948e-09
9.06438171547e-09
8.43044633885e-09
3.14953637302e-08
1.00427393704e-08
2.59573947044e-08
1.97616155157e-08
2.49554664101e-10
3.23483012797e-09
3.36056678654e-08
1.98178728421e-08
6.05966270886e-09
2.66798316217e-08
7.39085934261e-08
1.86129648764e-08
2.9681066993e-09
5.5140866847e-08
7.81908932308e-09
3.34329236495e-08
4.77564440805e-09
3.44910174147e-08
4.74214795761e-08
1.81197558571e-08
1.93166106862e-08
1.97132871698e-08
2.64918555173e-08
9.39318693747e-09
3.69289018909e-09
1.52718185827e-08
4.7997772819e-08
5.41147325056e-09
2.96491736922e-08
5.54462004911e-08
1.23144909627e-08
6.47564513345e-08
2.48345751972e-08
1.77536286897e-08
1.74984430328e-08
1.9934934187e-08
6.33309547456e-09
2.48475802639e-08
7.28682565591e-09
1.44618647491e-08
3.54092827786e-08
3.8355567786e-08
5.27840220344e-08
2.76381392456e-08
5.70072692052e-09
3.23240729778e-08
3.83282191084e-09
5.26984817981e-08
4.13372905374e-09
8.94743588887e-09
2.29799367506e-08
2.48819546289e-08
3.1583675608e-08
2.61076477046e-08
4.25006352351e-08
1.84110677608e-09
7.72873176523e-10
1.41960105454e-08
9.82075594386e-09
3.01220185824e-08
2.93309249319e-09
1.34796989402e-08
1.40064156787e-08
2.34573324846e-08
2.68036748367e-08
1.6829380242e-08
1.87218206945e-09
6.54694690515e-09
9.29167113084e-09
1.45180277744e-09
3.15359360122e-09
1.32078419076e-08
9.8944577109e-09
1.99628247982e-08
1.66510327407e-10
8.54916860026e-09
1.10815818836e-08
1.04570390739e-09
1.06695307562e-08
1.05510074053e-08
4.46356566832e-09
1.40156741798e-08
4.59770658499e-09
1.93158173653e-08
1.61450313201e-08
5.20499033433e-09
4.9871161558e-08
1.36595633336e-08
1.23847108261e-08
2.00288247744e-08
2.10117941724e-08
6.40399165852e-08
2.75965643732e-09
2.03070659172e-08
1.20066153978e-08
2.98640421944e-09
1.12175809438e-09
5.02420764176e-08
3.02232787012e-08
1.42750949049e-08
3.27195276745e-09
4.93154072498e-09
2.24380745375e-08
3.54668992095e-08
4.67772381845e-08
1.40266814336e-09
2.99138565481e-08
2.64285410701e-08
7.70990895954e-09
4.62890347728e-09
4.27448094976e-08
2.93697742754e-08
6.57878420677e-09
1.37298231336e-08
1.85904039998e-08
1.02739115123e-08
2.42114821673e-08
3.19035946301e-08
9.58979007647e-10
5.48737763835e-09
3.11138532478e-09
5.35063457332e-09
9.67745185513e-09
3.23415600923e-08
2.91032578709e-09
5.45783062815e-09
7.48860064617e-09
2.02391845945e-08
3.80528225506e-08
8.98762727145e-10
1.59058959784e-08
7.05430280981e-09
3.75661325175e-08
1.62800665175e-08
7.18997205516e-08
3.84624335817e-08
4.23526614399e-08
3.02655663767e-08
2.04422952783e-08
3.04174915087e-08
2.67774818408e-08
1.09720803179e-09
1.06359728968e-08
2.33666087762e-08
6.52714600187e-09
1.41362633245e-08
6.00203810076e-09
2.57523872693e-08
1.92975274858e-08
2.71968414303e-08
7.53993261937e-09
1.05432655789e-08
3.24244475733e-08
4.12019276629e-08
3.33375038443e-08
4.1312177559e-08
1.30389880722e-08
2.09320930114e-09
2.95147195254e-09
4.10882216097e-10
7.02923508526e-09
6.24318681118e-08
3.80245196575e-08
1.5873972472e-08
8.9764611352e-09
1.00619917579e-08
6.98993456974e-08
1.67343371569e-08
1.24061011726e-09
3.93642589272e-09
8.22840337853e-10
9.29572558857e-09
1.00269166515e-08
1.29437627889e-08
1.39989495589e-09
7.41271154868e-09
1.41976651308e-08
3.09245270611e-08
4.89558108216e-08
1.91776773965e-08
4.23445664085e-09
1.94928376177e-08
4.6404069582e-08
4.51590330247e-09
7.39790317443e-09
3.14472684041e-09
1.42817872306e-08
1.65212272011e-08
2.32817407508e-08
1.47251306097e-08
6.63601956682e-08
5.99474307387e-09
9.52695989326e-09
6.32661601114e-09
5.93598408379e-08
4.98647944237e-08
2.05331926147e-08
2.38229882651e-08
1.62059038887e-08
9.72804813367e-09
5.61728447252e-10
2.13740922542e-08
1.01004711416e-08
1.34474332769e-08
4.75219705614e-09
1.46679429705e-08
6.20778425864e-08
1.0704900929e-08
3.86669750591e-08
1.36471868462e-08
1.3345021819e-08
8.35767569129e-09
2.538238845e-08
1.16084176315e-08
6.29276211558e-09
4.01647621249e-10
5.95174770053e-09
6.60712583399e-09
8.07801298395e-09
1.74078338117e-08
3.7882267933e-09
6.56855720434e-08
6.59183756173e-08
1.71438986393e-08
2.67644092472e-08
1.55841455396e-08
1.991620929e-08
2.78591909103e-08
3.66741117457e-09
1.00767586903e-08
1.47478705568e-08
3.58072025199e-08
5.7636145507e-08
5.25217065291e-09
3.11856562401e-09
3.62655544237e-08
2.03193865099e-08
2.54599969825e-09
1.84104266215e-09
2.62961793632e-09
6.165774328e-09
6.18550438162e-09
1.86662012932e-08
6.20105235623e-09
6.47709661223e-09
2.69401761904e-08
8.96519112457e-10
3.07490745846e-09
2.53729294921e-08
1.00016113089e-09
4.58161969373e-09
4.31839393671e-10
1.86341774264e-08
6.84519837511e-09
7.48773263445e-09
3.57008287626e-08
1.91457518589e-08
9.50017898196e-09
1.82572698402e-08
1.62469139192e-08
4.96491924743e-09
9.65653133222e-09
5.59058341049e-08
2.15222297784e-08
1.25378745711e-08
2.83313664377e-08
8.24792668644e-10
7.81064315632e-10
3.23495219736e-08
3.0169363032e-08
9.2693159781e-09
8.03984903736e-09
2.08951815568e-08
8.48428253748e-09
3.10629643267e-09
2.06781277631e-08
6.03987963747e-09
1.7324188593e-08
5.47833231856e-11
2.50439836579e-09
4.80067210905e-09
6.29890387652e-09
2.32006094487e-09
3.81713624441e-09
6.3990142761e-09
1.54512361173e-09
2.26584715987e-09
3.57256993542e-09
1.29508011168e-08
7.02629007544e-09
7.98378123286e-10
1.15313785289e-08
1.66754260697e-08
2.62668958706e-08
7.35942116705e-09
1.2348668151e-08
7.71363464531e-09
3.23056490661e-09
2.44490465357e-08
1.45943908729e-08
5.42660412663e-09
1.33029483456e-08
1.24084350249e-08
1.07057488247e-08
1.53413850024e-09
3.92663487626e-08
4.19054213523e-08
1.25773377366e-08
1.94038348049e-08
4.12144308607e-10
1.60500029985e-08
3.92240292844e-09
1.53503526294e-08
1.70647548168e-08
1.69166203851e-08
1.84546738698e-08
2.4823801021e-09
3.68517840514e-08
9.3622504447e-09
3.0175261521e-09
5.410531789e-10
1.65635374344e-08
2.29505857875e-09
1.80402587486e-08
1.67508780512e-08
2.34475620505e-08
4.29134823475e-08
7.26294513702e-09
2.58237758264e-08
5.45823026166e-09
2.11307270489e-08
1.80251848956e-08
5.03579303354e-09
2.86924864798e-08
5.24337851094e-09
3.98716473947e-10
2.56760610948e-08
1.5198321772e-08
6.15229775323e-09
3.99357502726e-08
1.15463630386e-08
1.37154742986e-08
1.69943162161e-08
9.64042986166e-09
1.63088513471e-08
3.58911396945e-08
6.00079731386e-09
9.38762964832e-09
6.76096365556e-09
1.02115952741e-08
3.81956593908e-09
1.71441826076e-08
7.5488926171e-09
3.39379153356e-08
2.95434081702e-09
1.31542580668e-08
8.2539116633e-09
2.16182009376e-08
1.60423762012e-08
5.43809561673e-09
1.01551933745e-08
1.11671516231e-08
1.00514557842e-08
5.17699090297e-09
5.05565408702e-09
1.75591385546e-09
7.32525687101e-09
4.22823333586e-09
6.70255960915e-09
4.77226324673e-09
7.16149878904e-09
4.88451881356e-09
1.20787900742e-08
1.64051991245e-08
4.13952747326e-09
2.29618227913e-08
1.81139459966e-08
1.41832652474e-08
3.02373564309e-09
1.15124249062e-08
4.89727507025e-09
9.73526416726e-10
6.68910041949e-09
6.80719204036e-09
5.74797875231e-09
2.12216862452e-09
1.46405386264e-08
9.36157703939e-09
1.97989132693e-08
4.15317574409e-08
2.52183725497e-09
7.46036431904e-09
1.77334047303e-08
2.46156032485e-08
1.51871227362e-09
5.8246090546e-10
1.35956929311e-08
1.22260872641e-08
1.85749359945e-08
9.57697614181e-09
1.4158885973e-08
1.69395630133e-08
8.44852505074e-09
1.1359673245e-08
9.7873502265e-09
7.09418426989e-09
1.17916850767e-09
5.14903553153e-09
9.82784178147e-09
3.95533227298e-09
7.92930559727e-09
2.5007590948e-08
2.80085608759e-08
1.16646543764e-08
1.58126619685e-09
5.04732456405e-08
2.23038063068e-08
1.06512995706e-08
3.40538655124e-08
1.32757583237e-08
6.01776502158e-10
9.20059596525e-09
4.61090069425e-08
5.82199174316e-09
3.17519590176e-09
1.69384123151e-09
1.81691495992e-09
8.97584499735e-09
9.64123384962e-09
2.41483530245e-09
2.2574451837e-09
3.44210311257e-08
4.02081156414e-09
8.5866441304e-09
9.47490075195e-09
1.0034228148e-08
1.481258332e-09
6.49476571046e-09
3.91556759975e-09
8.07702822266e-09
5.7562894021e-09
1.24479279344e-08
7.37376044955e-10
1.25814316495e-08
4.61409423119e-09
7.17638416651e-09
1.06725488641e-08
2.40601565428e-09
1.11542853194e-08
1.07479121377e-08
3.07670825575e-08
8.62021329181e-09
1.81198731033e-08
2.81877857155e-08
4.32813953017e-08
7.64401219068e-09
4.98526882738e-09
2.0259952855e-09
1.09108067644e-08
9.73472039762e-09
2.56450599898e-09
7.28506370882e-09
1.31925671896e-10
9.88681986876e-09
1.38922201263e-08
4.85600943225e-09
3.30527866111e-09
1.31146448464e-09
5.82144571953e-10
8.63162933413e-09
4.0855525387e-08
8.28168463708e-09
3.33147775134e-08
6.58746126537e-09
3.61191774609e-09
1.25442209781e-09
5.25222814613e-09
2.27703030227e-08
2.89039232758e-08
6.21935198115e-08
3.78054750229e-09
1.37127996572e-08
1.26056758337e-08
3.34898322256e-09
1.78134423966e-08
1.40672716316e-08
9.16334394812e-09
2.46693309108e-09
1.29248708199e-08
5.7025253615e-09
4.6951543861e-10
9.74260065438e-10
3.94721424226e-09
5.02227188133e-09
4.47843834936e-09
1.52616306209e-08
5.7971513172e-09
1.3552290006e-08
1.14852937882e-08
7.98161231849e-09
5.79051635926e-09
6.3220941664e-09
7.4254480737e-09
1.24656448273e-08
2.51497664932e-08
1.48585209207e-09
8.88554174296e-09
2.59530621961e-08
1.16486870381e-08
1.82650336573e-08
1.70755825333e-08
1.19826152005e-08
3.60252426887e-09
7.85902442747e-09
2.41034766021e-08
1.92881047998e-08
7.85302849375e-09
8.4878386431e-09
9.19960354701e-09
6.12888041301e-09
2.97702740426e-08
1.4685246664e-08
1.07962572109e-08
1.43457245783e-08
3.61589389952e-08
6.62582687382e-09
4.06172664889e-10
2.54226648817e-08
3.73959401806e-08
1.07307892336e-08
7.03862752146e-09
3.53667725831e-08
4.94065715453e-09
1.33393421909e-08
2.60866989783e-08
2.02420548711e-08
2.64063748435e-08
1.63715938456e-08
8.4407871474e-10
6.02627837809e-10
1.19968326405e-08
2.11503704901e-08
3.43773667685e-09
9.20723146207e-10
5.08992782967e-09
8.97746265722e-09
1.58589114007e-08
5.98566058328e-09
8.40939514295e-09
1.26549709855e-08
1.86931488452e-08
4.87146600986e-09
5.58313440205e-09
1.01567278094e-08
1.75082655852e-08
5.4862311852e-09
2.41083844402e-09
1.90967572512e-10
3.65037584258e-08
1.56831382602e-08
4.74994824068e-09
1.01071176471e-08
1.58381922608e-08
8.27182477161e-08
9.17669481967e-09
5.81689638398e-09
1.34817703417e-08
5.83191807819e-09
1.87741054818e-09
2.00291928723e-08
3.25602293545e-09
1.61908098895e-08
1.53424904638e-08
2.60813646011e-09
4.65292720988e-09
1.93238121068e-08
5.30652871013e-09
1.734443042e-08
7.38425739421e-09
1.14102515659e-08
8.13260220648e-11
8.89959856888e-09
7.64965062531e-09
4.16158039803e-10
8.88484055179e-09
3.73758779556e-09
1.48918371359e-09

