# vtk DataFile Version 3.0
File Name: Molecule/sphere_excent/sphere_excent_0-s5.vtk
ASCII
DATASET UNSTRUCTURED_GRID
FIELD FieldData 1
TIME 1 1 double
0.0
POINTS 708 double
0.86428678036 0.43667241931 -0.24605070055
0.87755471468 0.47031340003 0.0034649129957
0.95379054546 0.14729353786 -0.2603790462
-2.4053068046e-05 0.85136675835 0.52448093891
-0.23073559999 0.84334754944 0.48183184862
-0.15587443113 0.73269402981 0.66059780121
-0.70453482866 0.67481100559 0.21703350544
-0.85788452625 0.44076251984 0.26444146037
-0.68749147654 0.59238469601 0.41626447439
0.15699848533 0.70922321081 0.68702125549
0.22851522267 0.86122107506 0.45150673389
-0.88099968433 0.46095511317 0.040870990604
-0.95446890593 0.15225693583 0.25491058826
-0.13149759173 0.2799205184 -0.95052075386
-0.0022385790944 0.51668179035 -0.85607296228
0.13390953839 0.27430704236 -0.95023864508
0.30186781287 0.49047330022 -0.81748974323
0.0091472584754 0.54146593809 0.83985334635
0.17875823379 0.5272397995 0.83027672768
0.38431251049 0.60375052691 0.69751346111
0.3503652215 0.53429359198 0.7684057951
-0.00039268372348 0.27142259479 0.96242201328
0.082258932292 0.40517622232 0.91053694487
-0.06272996217 0.3917798996 0.91751664877
0.1547832191 0.28659147024 0.94516324997
-0.17469221354 0.25431594253 0.95113641024
-0.090142726898 0.15785235167 0.9831251502
0.26000079513 0.36645305157 0.89323282242
0.33252516389 0.46341583133 0.82084679604
-0.2252779752 0.13272705674 0.96519762278
-0.29235967994 0.0021966448985 0.95630204678
-0.17285634577 0.00026075256756 0.98467391729
-0.43285602331 -0.24576078355 0.86722785234
-0.30218917131 -0.26511076093 0.91564035416
-0.36130383611 -0.13021759689 0.92330431938
-0.22276411951 -0.13425560296 0.96557855606
-0.15669758618 -0.27038931847 0.94991034269
-0.40740409493 -0.38978800178 0.82589274645
-0.24275100231 -0.40314331651 0.88218027353
-0.33495503664 -0.5423322916 0.76965838671
-0.088370144367 -0.15960766375 0.98305010796
-0.15724639595 -0.54834485054 0.82108825445
-0.08077378571 -0.40429028869 0.91106837988
0.00095355819212 -0.52576190233 0.85061216354
0.083857193589 -0.40227755904 0.9116396904
0.00073850620538 -0.27253934741 0.96212542057
0.14206719398 -0.27754187584 0.94977158308
0.16309094429 -0.5426967144 0.82381373644
0.25317904353 -0.40646016598 0.87759518623
0.33743566275 -0.50852334499 0.79187953472
-0.00026439712383 -0.68953084946 0.72397887707
0.18092389405 -0.70873200893 0.68151962757
-0.18073776364 -0.70395320654 0.68595308065
0.42106002569 0.69423210621 0.58263480663
-0.58028721809 -0.44462478161 0.68071061373
-0.65180420876 -0.27529397607 0.70661342144
-0.54079300165 -0.27603626251 0.7945394516
0.16076885164 0.6802110076 -0.71310436726
0.82813370228 -0.2965888083 -0.47396835685
0.85449749231 -0.017490407452 -0.51910591125
0.95392841101 -0.15628419816 -0.25580355525
0.81647145748 0.25452065468 -0.51660609245
0.99976933002 -0.0030742504168 0.012510474771
-0.82484424114 0.277382195 0.49207764864
-0.86019259691 -0.0049724280834 0.50972926617
-0.95189064741 -0.14398758113 0.26589503884
0.96724665165 0.21271602809 0.1363760829
0.79487490654 0.60352194309 -0.06271789223
0.79620879889 0.56604135036 -0.21297927201
0.49374845624 0.81362724304 -0.30693015456
0.60808980465 0.7508302927 -0.25630667806
0.49009072781 0.74931246042 -0.44417989254
0.6777177453 0.59458649158 -0.43116414547
0.37953796983 0.84436905384 -0.37811607122
0.35004332662 0.78031009436 -0.5181876421
0.44764408469 0.6739127636 -0.58733439445
0.25226160884 0.86295330524 -0.43773847818
0.30911618471 0.69132727385 -0.65160781145
0.2163476944 0.79015338421 -0.57335704565
0.50937658548 0.54987281561 -0.65979635715
0.1189930588 0.86287921667 -0.4910132885
0.07812345773 0.78487342596 -0.61456501484
-0.030413679779 0.83989739418 -0.54056721926
0.79976022243 0.5876237154 0.11721606553
0.71700829268 0.69680994749 0.016104085371
0.71385216713 0.68072926998 -0.16389614344
0.7035498023 0.6827993989 0.19551226497
0.62359899282 0.77774995565 -0.078669518232
0.6208640337 0.77839577198 0.092769436538
0.51926875114 0.8546051383 0.0016732856166
0.51445126534 0.84283274412 -0.15806083381
0.60424405336 0.75368672609 0.25763556361
0.51048618555 0.84495359659 0.15932221711
0.490231812 0.81444323063 0.3101747334
0.38963225484 0.89084881544 -0.2335742265
0.39828696847 0.91385918856 -0.078875750303
0.2671802938 0.95102512836 -0.15543048084
0.26960024238 0.96297562122 -3.6931116483e-05
0.39898645878 0.91360712051 0.078593507409
0.2824908793 0.94744604826 0.1460455507
0.13612507284 0.98772460222 -0.076573945582
0.1424022913 0.987159729 0.064358793199
0.38618251681 0.89268893003 0.23234783113
0.26249626279 0.91692149639 -0.30056774616
0.13100410998 0.92311990261 -0.3615218401
0.13426883519 0.9658190608 -0.22173722088
0.009839925915 0.95472097397 -0.29572212696
-0.0024173117708 0.90936166048 -0.41590848565
0.015221107751 0.98916649818 -0.14240027964
0.37173146009 0.84863317013 0.37617057562
0.27533191442 0.90951013565 0.30987599492
0.13195300102 0.91651749611 0.3762229383
-0.13071621954 0.92518597841 -0.35626915097
-0.25525411963 0.86832678318 -0.42521691322
-0.25623828173 0.91634601355 -0.30613023043
-0.13467486203 0.86837601662 -0.47702097893
-0.50836598873 0.79247057438 0.33450168371
-0.52759319544 0.83249676228 0.16503837705
-0.60670429468 0.75710618496 0.24212169647
-0.61152237654 0.78388828039 0.10727456957
-0.30570408702 0.49296692014 0.81410551071
-0.25546723604 0.61184495687 0.74815624952
-0.44533279538 0.48868283629 0.749756217
-0.4187413156 0.6754322648 0.60464954376
-0.38037145138 0.37931060791 0.84346675873
-0.51941126585 0.34732404351 0.78074836731
-0.59616345167 0.4394916594 0.6718134284
-0.43927797675 0.25110638142 0.86250287294
-0.64380067587 0.29402709007 0.70640516281
-0.57240867615 0.2060931325 0.79361367226
-0.71080893278 0.14467981458 0.68721723557
-0.71810406446 0.36781173944 0.59065532684
-0.49035146832 0.12008643895 0.86315071583
-0.61610269547 0.064217038453 0.78494179249
-0.52502763271 -0.008210635744 0.85101419687
-0.084671087563 0.63106733561 0.770845294
-0.15767802298 0.53692501783 0.82872742414
-0.2538151145 0.37699007988 0.89066678286
-0.30891701579 0.26125362515 0.91445201635
-0.36632722616 0.13085129857 0.92122787237
-0.41736981273 -0.00068419700256 0.9087241888
0.88127589226 0.40219920874 0.24589762092
0.78509843349 0.51835048199 0.33877548575
0.68072831631 0.62580269575 0.38082298636
0.57660013437 0.69310241938 0.43242153525
0.64139473438 0.54612201452 0.53534972668
0.46133506298 0.76315361261 0.45223796368
0.34239217639 0.78875565529 0.51016658545
-0.35057401657 0.78910708427 -0.50425821543
-0.23476563394 0.78172719479 -0.5776181221
-0.42862832546 0.68648195267 -0.58723515272
-0.70086729527 -0.068222828209 0.70864129066
-0.59086126089 -0.14202825725 0.79407167435
-0.99880295992 0.0069116028026 -0.024385239929
-0.96665418148 0.24614095688 -0.053850024939
-0.27943566442 0.52716135979 -0.80199462175
-0.13691304624 0.69765907526 -0.70269840956
0.52564370632 -0.0038199657574 0.85068696737
0.50160419941 -0.14319555461 0.85293900967
0.68196338415 -0.14791555703 0.7141097784
-0.17102758586 -0.50620615482 -0.84464240074
-0.30822977424 -0.49341264367 -0.81329709291
-0.23526665568 -0.38874971867 -0.89078688622
-0.09269143641 -0.39103367925 -0.9152340889
-0.15644536912 -0.26677924395 -0.95094943047
-0.010882999748 -0.26182085276 -0.96451365948
-0.075504817069 -0.13431601226 -0.98803085089
0.0040231859311 0.013262786902 -0.99973779917
-0.12478980422 0.00029627492768 -0.99151045084
-0.2117921859 -0.1497823447 -0.96493691206
-0.29992121458 -0.26269936562 -0.91705840826
-0.42871776223 -0.25731989741 -0.86573660374
-0.36804869771 -0.14778579772 -0.91730368137
-0.37708038092 -0.37878873944 -0.84515368938
-0.48245045543 -0.14935360849 -0.86266928911
0.61378353834 0.086323343217 0.78450936079
0.70705759525 0.0026778928004 0.70698326826
0.57585918903 0.20595660806 0.79101759195
0.50342619419 0.13551908731 0.85332846642
-0.44695022702 0.48165512085 -0.75376629829
-0.3544344604 0.61915689707 -0.70012438297
-0.51206862926 0.5653629899 -0.64660328627
-0.58667296171 0.43102228642 -0.68561738729
-0.63902908564 0.51227468252 -0.57375520468
-0.5575606823 0.64205509424 -0.52619892359
-0.66564816236 0.58769565821 -0.45952600241
-0.70609152317 0.37518298626 -0.60053670406
-0.740426898 0.45740747452 -0.49244147539
-0.79856204987 0.32260504365 -0.50673145056
-0.47009426355 0.7518311739 -0.46232011914
-0.57888650894 0.70895010233 -0.40258622169
-0.49371701479 0.80061030388 -0.33832064271
-0.36355394125 0.40321052074 -0.83920270205
-0.52423495054 0.35978418589 -0.77107942104
-0.58458083868 0.20499972999 -0.78402513266
-0.69842964411 0.1469642818 -0.7001311779
-0.64739322662 0.29496157169 -0.70275473595
-0.74980324507 0.24403294921 -0.61396223307
-0.50662624836 -0.33816921711 -0.79251754284
-0.44553855062 -0.46333366632 -0.76584798098
-0.39977458119 -0.59083795547 -0.70060199499
-0.074650585651 0.1351865828 -0.98791819811
-0.22744959593 0.39833903313 -0.88852143288
-0.20693352818 0.13991011679 -0.96761089563
-0.28719809651 0.27506119013 -0.91686660051
-0.70608508587 0.69208496809 -0.14975456893
-0.70033615828 0.70973259211 -0.07586517185
-0.62620174885 0.7751942873 -0.082152277231
-0.63283717632 0.77408802509 0.006954821758
-0.71062290668 0.703597188 0.0022341168951
-0.53502571583 0.84358382225 -0.006617042236
-0.69730132818 0.71137189865 0.087392494082
-0.55606365204 0.78018039465 -0.28659683466
-0.57734179497 0.8002166748 -0.15634690225
-0.49941921234 0.82967621088 -0.24925260246
-0.62324488163 0.73499619961 -0.26570352912
-0.51859843731 0.84982460737 -0.090886592865
-0.66187441349 0.72172117233 -0.20228466392
-0.74829906225 0.65020346642 0.13020455837
-0.7530605197 0.65675020218 0.039718769491
-0.79269176722 0.60475242138 0.075619913638
-0.75245094299 0.65701884031 -0.046475321054
-0.78923237324 0.61395359039 -0.0056897578761
-0.75233882666 0.6446762085 -0.13549169898
-0.79211091995 0.60714334249 -0.06140556559
-0.83571761847 0.54591333866 0.040185593069
[...]
CELL_DATA 1412
SCALARS cell_data_0 double
LOOKUP_TABLE default
7.61246122117e-05
1.16536942969e-07
3.33997554511e-06
1.10775182469e-05
6.93632590477e-06
1.9380822271e-06
9.13533141792e-05
5.78154323492e-05
1.27173898986e-05
5.54800277394e-06
1.20856374832e-05
1.40562522456e-05
1.42831680564e-05
1.10718304455e-05
9.66403695595e-06
1.18734211485e-05
1.22238423233e-06
1.2308148641e-05
1.36242773309e-05
8.29408807787e-06
3.56697737829e-06
1.43229872119e-05
1.43746679347e-05
9.82057295558e-06
1.11978975322e-05
7.78849524317e-06
1.32351406516e-05
1.43762312706e-05
1.37557119569e-05
7.2564319141e-06
1.18985768737e-05
9.80077233408e-06
1.14034989159e-05
1.00782330047e-05
1.32407276341e-05
9.8649226127e-06
1.2376362295e-05
7.84741641527e-06
8.86275139514e-06
9.01645830204e-06
1.02073894604e-05
1.04761619961e-05
1.1043263804e-05
9.56700181271e-06
1.10340215468e-05
5.45783308487e-06
6.18788048068e-06
7.26657095904e-06
4.14124080149e-06
5.98464619415e-05
8.46367765079e-05
0.000125592307475
5.27972749723e-05
4.82088196929e-05
5.11745548474e-06
5.72039748435e-06
9.65074309579e-06
2.97767786291e-06
4.60094173501e-07
2.06019669847e-05
3.80384128585e-07
3.4603089639e-07
1.40806284743e-05
4.98157882459e-06
1.38696410111e-05
4.48934124674e-06
2.1555513212e-05
1.4242463482e-05
1.64071243783e-05
1.34212535415e-05
2.35691474992e-05
2.15732223851e-05
3.73425763998e-05
1.18866368272e-05
8.51586461075e-06
4.12998049481e-06
4.37676210418e-06
1.33608315814e-05
5.07003864803e-06
8.53949962622e-07
1.768394489e-06
2.24459402136e-06
5.50802086371e-06
6.59924239778e-07
5.06802478285e-07
2.01548446838e-06
1.64862661343e-06
1.16405190046e-06
1.35371184428e-06
2.30445505012e-06
4.51560193427e-07
5.26204528157e-07
2.04754765872e-06
2.19636588854e-06
1.71375188427e-06
7.97309354396e-07
1.00450419852e-06
1.91046418235e-06
1.80522575565e-06
6.40618831907e-07
1.52905121736e-06
1.04138162911e-06
7.19383035681e-07
2.65176544252e-06
3.65285387857e-07
3.81781948178e-07
4.67722546833e-06
1.98812632213e-06
4.81383014857e-06
4.22503054689e-07
1.12320889803e-06
1.78952449349e-06
1.12313256407e-05
2.55012483564e-06
3.42600383876e-06
1.20202424358e-06
1.76213028546e-06
4.82768445565e-07
1.74656654364e-06
1.21853186997e-06
9.79200189454e-07
1.70221219257e-06
2.69611263041e-07
1.74927495047e-06
4.6108246716e-07
4.36943984001e-07
6.67189937481e-07
9.52168628928e-07
4.76320804181e-07
7.3354787072e-07
3.81744646507e-06
7.48714655184e-06
1.0017139921e-05
1.93220468955e-06
1.49893831461e-06
4.87316886679e-06
5.1595956674e-06
5.15068120128e-06
4.91808486441e-06
2.12693717014e-06
2.31926795788e-06
3.41113611091e-06
6.63018034923e-06
6.55763096297e-07
4.48421658757e-06
1.38500075622e-05
6.68675347608e-06
5.44981947376e-06
1.84767986628e-06
7.94125540293e-06
1.24765227886e-06
1.14140763324e-05
9.6353542037e-06
6.88917487574e-06
3.71362409492e-06
2.61679288953e-06
7.83175407693e-06
3.28014333368e-06
4.07010882951e-06
1.10053851313e-05
1.46994328976e-06
6.04077867212e-06
1.1249031005e-05
4.62635773628e-05
6.91612092113e-05
1.6408344185e-05
2.01822636788e-05
1.53765981304e-05
1.85881525181e-05
1.34088863926e-05
1.17070968527e-05
4.33262154055e-06
9.93910336484e-06
3.76021512929e-06
4.63801686199e-06
2.07457511891e-05
1.15121051551e-05
1.17798160118e-05
2.23276607235e-05
5.17917637285e-05
1.5596389468e-05
2.04139548574e-05
1.41165081638e-05
1.7018839205e-06
1.07080895661e-06
3.54797788877e-05
1.34004209911e-05
0.000173028493767
0.000159788454662
8.07300088871e-06
8.08592998008e-05
5.7146586288e-05
6.06709928803e-05
7.58254123393e-05
3.76272691748e-05
2.54504789756e-05
1.95836103827e-05
4.27002110344e-05
5.9133924221e-05
7.10110609447e-05
2.03395540288e-05
8.73879934935e-06
6.07557929656e-06
4.17248353708e-06
6.05967258154e-06
1.93403454361e-05
7.08690288793e-07
7.18051117624e-07
6.04906391674e-07
6.42346490229e-07
5.79471651804e-07
2.90697936154e-07
5.43071579639e-07
4.49964008571e-07
2.81425540878e-07
1.03568495445e-05
2.24305618862e-07
3.05012587402e-07
2.00836610219e-07
1.98007840011e-07
3.76370037893e-06
1.66500817359e-05
2.25112625795e-06
1.94382399645e-06
2.65367713137e-06
7.45469431154e-07
6.7347174846e-07
6.05144451215e-06
6.10079653922e-06
2.98170216188e-05
2.28808241711e-05
3.11840600303e-05
2.90850668894e-05
5.6377932238e-05
3.28105240719e-05
5.57185665719e-06
5.85126645679e-06
1.66979556708e-05
4.16563758594e-08
6.09135702719e-08
6.16244349133e-07
1.68880557509e-07
3.2238698716e-07
1.000637662e-07
8.28297413945e-07
4.91972367231e-07
3.61899467751e-07
4.43475652181e-06
3.123253777e-08
1.65633075972e-07
3.17953257231e-06
1.45217852454e-07
2.09675984914e-07
6.96940908395e-08
4.53214627287e-07
1.00293548616e-06
3.01740721335e-07
1.38321250987e-07
6.87024501032e-07
3.72306846381e-07
1.40670588392e-07
4.16977496128e-08
1.55729738261e-07
1.21676971237e-06
3.41914900486e-06
2.293016193e-06
1.40353650685e-06
8.59704967097e-06
6.58804844163e-06
4.85153350433e-06
1.13704538055e-06
2.90587357501e-06
5.36678643953e-06
4.69745098679e-06
5.3531758904e-06
8.35017671239e-06
9.61066019378e-06
6.56020435495e-06
6.89390887626e-06
1.0634151417e-05
1.11759155378e-05
4.5172464425e-06
1.97455005547e-06
5.59469355501e-06
5.2536321864e-06
6.68800901058e-06
1.00507993516e-05
5.98449031325e-07
1.34311186483e-05
1.12931536344e-05
5.11212483034e-06
1.02145721524e-05
9.7092466448e-06
4.93092660823e-06
3.80805165289e-06
6.04524032445e-06
5.78627350478e-06
5.46935735197e-06
1.04674240516e-05
9.67390284253e-06
1.25748076848e-05
2.95417270899e-06
5.11574341799e-06
5.0454331398e-06
5.1088866907e-06
6.89786456589e-06
6.32032991053e-06
7.23341700104e-06
6.63448561623e-06
6.36188360505e-06
5.6651944261e-06
6.48036723993e-06
6.46177322717e-06
8.08994458209e-06
6.90650704086e-06
7.52205773418e-06
6.97058355662e-06
5.52960252359e-06
5.95020576993e-06
5.8123783952e-06
6.15869115012e-06
1.99265091951e-06
7.90803164476e-06
8.77030087066e-06
2.71919327402e-07
1.0043977943e-05
9.82747084889e-06
6.53317687516e-06
5.03468650437e-06
6.01311840385e-06
5.67840529192e-06
7.23459849036e-06
6.53510046406e-06
5.86394271954e-06
9.98396896564e-06
7.73633227919e-06
1.14411709112e-05
7.0278158645e-06
5.88828705707e-06
5.07985048671e-06
5.62479118346e-06
7.19832895653e-06
6.88200979425e-06
6.25068760448e-06
5.94587205488e-06
5.41866350596e-06
6.21693981018e-06
6.55719558585e-06
6.18725067319e-06
5.89496911656e-06
6.66144813466e-06
5.86888854714e-06
6.68913475454e-06
6.41348373722e-06
5.87487250099e-06
6.17367908169e-06
6.20425295369e-06
4.99679072041e-06
4.84234682088e-06
5.41276035868e-06
5.42765766123e-06
6.19933211155e-06
5.02788032817e-06
5.9574890178e-06
5.25105402479e-06
5.76513753711e-06
5.71034627608e-06
4.02429229509e-06
4.83381183912e-06
4.31839407604e-06
4.64244765805e-06
2.22873147661e-05
3.53539595685e-05
6.77654604035e-05
9.70427819825e-06
7.1004382316e-05
6.42298216839e-05
1.63360377423e-05
6.17115556808e-05
4.78751633899e-06
4.90660832429e-06
5.48383996302e-06
1.13590509428e-06
2.15339705883e-07
3.25335687454e-06
3.03130870051e-06
1.63664931266e-06
2.06359130072e-07
3.45250113502e-06
1.31424811434e-06
4.33795773834e-07
1.54018209461e-06
1.66761049237e-06
1.19488192315e-06
1.08543422191e-05
1.40894194252e-06
8.87849697929e-07
4.91614163173e-07
6.20590454414e-08
5.5488271006e-08
2.56578386185e-06
2.10279685623e-07
4.20032437555e-07
6.15499587905e-07
7.53181621769e-07
2.70444384328e-06
6.29834623318e-08
4.53186465573e-06
3.57519779668e-06
3.3769678816e-06
4.89616137728e-06
7.92802465506e-06
4.98908492864e-05
7.55919264718e-05
4.64741856301e-06
4.06116092076e-06
5.94171006676e-06
6.17149446799e-07
4.37257544935e-05
9.91739198451e-05
3.0690413125e-06
3.54361700852e-06
3.32277698568e-06
6.83933346105e-06
2.54122310554e-05
1.02365107598e-07
4.08777834638e-06
4.82624774789e-05
2.14697383465e-05
1.08776281668e-05
1.14793261312e-05
6.07900908196e-06
3.21584697001e-05
1.14590745896e-05
2.84187605501e-05
2.52498672345e-05
3.76660270675e-05
2.05481535783e-05
1.41792419031e-05
2.89705558365e-05
2.23651361881e-05
1.17018652714e-05
2.54072908541e-05
1.60370736753e-05
3.02167429702e-05
1.5192161641e-05
8.18235443164e-06
2.859022627e-05
7.79581321273e-06
1.87471752331e-05
4.17337748773e-05
3.50415646685e-05
4.63520217298e-05
3.06325656918e-05
4.41520212978e-05
3.7456291422e-05
2.85244803037e-05
1.83948422862e-05
1.61847067718e-06
4.47699659101e-06
3.63518931451e-05
4.03896433303e-06
1.06200542203e-06
4.96450743071e-06
1.02197794727e-06
2.51812467788e-06
2.66842696422e-06
2.39031997204e-06
2.98233024137e-06
3.02915297403e-06
2.61038744272e-06
2.58916096206e-06
1.45081858003e-06
3.28791968592e-06
6.4358947561e-06
3.05910324956e-06
2.78904707937e-05
3.68390248587e-07
3.13809225235e-06
3.52768223502e-06
3.56425665619e-06
3.52214180318e-06
4.18454482814e-06
4.23841877973e-06
1.02822831233e-06
3.51469337442e-06
4.17680184617e-06
3.06033762388e-06
3.41370301282e-06
3.75455367142e-06
4.61961338643e-07
3.75307605236e-06
3.15674044956e-06
3.75102460517e-06
2.48201065852e-06
1.83905962332e-06
1.78194469188e-06
2.96995815149e-06
1.68114244924e-06
1.0121135324e-06
9.02814961353e-06
6.90849392523e-07
2.80953873038e-06
3.70965790737e-07
7.75052356565e-07
8.58363341375e-06
2.24865466559e-06
2.74188583733e-06
2.8199013183e-06
2.6486801235e-06
2.32435330824e-06
4.58555315153e-07
1.0849652203e-06
1.43168341718e-06
2.3073560266e-06
9.87749591049e-08
1.0181450341e-06
5.92236433826e-07
1.01677847694e-06
1.42911953474e-06
3.09180622773e-07
7.60622539621e-06
1.01963223807e-05
2.11444902802e-06
2.12473462147e-06
6.32871393079e-07
2.17076851576e-06
1.02389584436e-05
1.78852849575e-05
7.87292566146e-06
1.08814959459e-06
1.85182245167e-07
6.62103133385e-07
6.25378647684e-07
7.58912451462e-07
3.49572846684e-07
5.69675179158e-07
7.37096971509e-07
3.31560721204e-06
1.68515045257e-06
2.2473029973e-06
1.60938179061e-06
2.49156894174e-06
2.97425069275e-06
2.89058242678e-06
6.33297918757e-06
3.76252690674e-06
3.13217706418e-06
2.87575539594e-06
3.65995794507e-06
2.58663625215e-06
2.44320226445e-06
2.88915873791e-06
2.77032514481e-06
2.17463466275e-06
1.81633497025e-06
2.91093970839e-07
2.43810038715e-06
2.56312362688e-06
1.69729772951e-06
2.57843718254e-06
1.93105128575e-06
2.47692752029e-06
1.97833172145e-06
3.76810669314e-06
2.72205746673e-06
5.77449426992e-07
1.20688239611e-07
1.41774076482e-07
7.72687464545e-07
5.00264056111e-07
3.68426018562e-08
1.27612580543e-05
9.02889948127e-08
3.04823788504e-05
6.32741516362e-07
2.12474564399e-08
1.98100564786e-05
8.8447891982e-08
3.45916413148e-07
2.6573003194e-05
1.19437301921e-07
6.71735035997e-06
2.13703878352e-06
2.30781490358e-06
4.73398932179e-07
1.14325074969e-06
2.63606134333e-06
2.91349021788e-06
3.74817074403e-06
2.73825335171e-06
1.92111706743e-06
2.42334349684e-06
2.03966233127e-06
2.62267860524e-06
2.09133340402e-06
2.74938687301e-06
2.23788645853e-06
4.77665959672e-06
2.46973643177e-07
2.46256529666e-06
2.29805194643e-06
2.751476446e-06
4.80783444362e-06
1.71768615697e-06
1.49994255436e-06
2.11024963329e-06
2.2779097557e-06
8.48989527736e-07
7.89125897675e-07
9.98283698498e-08
2.91580086178e-06
1.27189942387e-07
3.98157340487e-06
3.79347014335e-06
3.0155333592e-06
3.38843417832e-06
1.29444922753e-05
7.47505090444e-07
2.27901376702e-06
1.56437955985e-05
1.24126167135e-05
1.44405813763e-05
2.88245074395e-06
1.20904227285e-06
1.28349654801e-05
5.1819058872e-06
1.4190530015e-06
1.9891074704e-06
1.28738318066e-06
1.11943545879e-06
4.63726099643e-07
5.21194393327e-07
9.69797098902e-07
1.02699378486e-06
1.48390137673e-06
2.5477557987e-06
1.40835646088e-06
1.82552160931e-06
2.03714399319e-06
2.36224578551e-06
2.12360655273e-06
1.1892377428e-06
6.470150156e-07
1.65037328543e-06
1.34359410449e-05
1.21139580921e-06
3.8599160239e-07
8.84680526393e-07
1.62341265578e-06
9.24740714637e-07
3.90893066098e-07
1.01596288136e-06
1.52684962602e-06
7.1721646786e-07
7.41057967499e-08
7.44016332227e-06
9.31014500948e-07
1.3335489309e-06
4.26051491491e-07
1.13380554137e-06
1.48740510348e-05
1.84529061702e-05
4.75402769854e-06
1.46989725597e-06
5.66266421596e-06
1.86278933609e-06
1.58350975305e-06
1.63174497371e-06
2.49458298839e-06
1.61304331507e-06
8.96699777853e-07
5.48417999171e-07
1.41413570419e-06
1.14668552011e-06
6.67963638727e-07
7.8566523718e-06
6.34274753898e-07
1.60953039724e-06
9.40628157894e-07
8.22422421206e-07
1.56045207729e-06
1.80190523581e-06
2.11096884937e-06
1.12340726058e-05
1.79149883034e-06
2.59171846876e-06
2.77609471976e-06
1.77349450989e-05
1.07486159144e-05
2.54111717335e-06
1.57823739438e-05
1.72597017531e-06
1.92569635638e-06
1.42014610467e-06
2.0509149711e-05
3.65603792766e-05
3.13744271391e-06
6.96583899575e-06
4.49441637301e-06
5.55171271334e-06
2.0307119947e-06
1.61060005282e-06
3.08733689193e-06
3.47874909696e-06
4.99029990413e-07
2.12804126288e-06
1.81674785977e-06
2.37623432825e-06
1.51047766958e-06
2.97285718275e-06
3.05528347428e-06
3.14054195134e-06
2.72574662528e-06
2.97221947529e-07
1.0684527687e-05
2.16668771507e-06
3.65317752433e-06
2.3965458019e-07
3.24207914383e-05
1.53743615541e-05
2.33110089478e-05
4.22459789201e-07
2.90753093308e-05
1.11123239822e-06
8.47289280382e-07
2.79629106698e-06
3.04452256418e-06
1.43647632972e-05
3.21736998178e-06
1.88399601837e-08
5.51805557413e-06
1.32733970335e-06
3.22557587479e-07
4.47823223887e-07
8.61298766904e-06
7.48378148413e-06
1.10437158381e-06
2.63110144948e-07
1.6206454304e-07
1.26166326926e-06
1.06871682999e-06
9.20293686466e-07
1.00142610081e-06
4.49816738777e-06
1.75566689992e-06
7.7873850391e-06
2.36887774699e-06
1.53908701907e-06
8.19373808208e-07
1.20662057357e-06
2.50552211516e-06
7.46283057785e-07
1.14385005977e-06
7.73197866237e-07
1.76074458229e-06
2.54763249546e-06
7.42141635775e-07
8.26399926829e-07
2.31877909085e-06
8.6304039812e-07
6.55792436046e-06
2.729660823e-05
2.48886831442e-06
3.76234817119e-06
1.45388937405e-05
1.06832777898e-05
1.65766522264e-06
1.8588096113e-06
3.18708452431e-07
9.54064601878e-07
2.49217413986e-06
3.44321884131e-05
4.32722811423e-06
1.8513058475e-05
5.91059148474e-05
3.08646170494e-05
8.88489804488e-06
1.15574795131e-05
1.76767963095e-05
2.61526801931e-05
2.7917680545e-05
1.48539066384e-06
2.03874890141e-07
1.32574688025e-07
1.42755262899e-06
1.18362738931e-06
7.47162722575e-08
1.49051165509e-07
4.64739319918e-08
6.82698921833e-07
6.29607047209e-07
6.21343169448e-07
1.39943850597e-07
2.52785663484e-07
3.39889533435e-07
2.74728517254e-07
9.92739263125e-08
2.8851021363e-07
2.86148127454e-07
2.01639030153e-07
7.87119680571e-09
7.28128305802e-07
3.68518052518e-07
2.11642507742e-07
1.33313572212e-07
8.91852503737e-07
1.46009534634e-07
7.87751077854e-08
1.66444190983e-07
3.34357327918e-08
1.68494336209e-07
8.4553306149e-08
1.18833111458e-07
2.29269041733e-08
2.0068224687e-07
1.51823923776e-06
6.03436061568e-08
1.22282063984e-07
6.88567884405e-08
1.42959076904e-07
5.92369444673e-07
1.64129316284e-06
1.62102359165e-06
4.8541554375e-07
1.72440320091e-06
1.73048324322e-06
1.00286022131e-07
2.07805568741e-07
3.13734309353e-07
3.0009522444e-07
4.10502853722e-07
3.00951563806e-07
2.8325334602e-07
3.3753951548e-07
3.66470160478e-07
2.75337456128e-07
2.19460531086e-07
2.53774406296e-07
3.10504559991e-07
4.32520203253e-07
4.24975843916e-07
4.1033558016e-07
2.05374474319e-07
3.57577699196e-07
1.29387012095e-07
1.76626165042e-07
2.51702009403e-07
2.03570029929e-07
1.29496066622e-07
1.43986799043e-07
2.26344436896e-07
1.5688968696e-07
4.56866135505e-08
1.38476036791e-06
1.2090243218e-07
2.4830622712e-07
1.53245990905e-07
1.25021952611e-07
2.148011129e-07
2.33657823232e-07
4.74592736871e-07
4.17203637263e-07
4.86108927333e-07
3.41840194324e-07
3.07818361701e-07
2.54540045903e-07
3.87638130534e-07
3.10216973733e-07
2.00516170216e-07
2.24372189497e-07
1.85346156443e-07
2.5343668467e-07
2.10299087509e-07
1.28848097676e-06
8.73762272385e-08
4.61883944352e-08
1.07947924607e-07
5.19850346393e-08
1.14713602463e-07
8.6239610115e-08
1.26505463866e-07
2.14394168736e-08
5.54806582263e-08
5.98221522324e-08
5.56785844064e-08
1.29651995219e-07
1.4739510226e-07
1.19784903584e-07
2.16599786253e-07
7.49735176195e-09
1.1125099459e-07
1.61778096516e-07
2.70181912763e-08
9.95415642679e-08
3.30251251303e-08
1.33341731532e-08
9.07510680306e-09
1.40279651185e-08
5.02426642674e-08
1.7326161411e-07
2.08937188471e-08
1.06614363809e-07
1.6938905663e-07
1.0957843407e-07
2.36782612401e-07
1.61852476125e-08
5.9274280449e-08
2.01073852496e-08
9.86063550126e-08
1.82857749269e-08
2.97552196841e-08
2.36706891638e-08
4.04183190761e-09
1.30188836777e-08
1.94966536001e-08
1.38051543247e-06
1.79682235234e-08
2.85630039067e-08
8.65622993114e-08
5.21993223954e-08
1.57989987837e-07
2.23375753481e-07
1.98240463545e-07
1.72378571533e-07
1.98249419165e-07
1.06730504477e-07
1.20307118112e-07
1.28722330873e-07
2.8111998326e-07
2.11530269944e-07
1.09165164856e-08
2.53402164504e-07
6.30729478308e-08
3.26085354262e-07
1.88589183188e-07
1.36639293536e-06
7.86066463068e-08
1.1744487912e-07
9.1001336327e-08
1.79737736178e-07
1.57134296677e-07
1.26541392138e-07
1.2665284907e-07
5.49027685244e-08
4.90994096759e-08
6.15777341276e-07
1.150841597e-07
6.4571104397e-08
1.24870232341e-07
1.23761972078e-07
1.00320665734e-07
5.85747951476e-08
9.59529853176e-07
2.19321738532e-08
5.84370783757e-08
1.10234518208e-07
1.30123519262e-07
9.1916406104e-08
1.28402220843e-07
9.04290133888e-08
9.69534916178e-08
9.05516367226e-08
6.15523634387e-08
7.65448847016e-08
1.0635541202e-07
2.96953885252e-08
9.01429898081e-08
8.5649934957e-08
1.14147473269e-08
4.68650214377e-08
6.97976046033e-08
2.96102772794e-08
1.0348831435e-06
3.80818519419e-07
3.95666549165e-07
2.93103650871e-07
1.23894774605e-06
1.02013842971e-06
1.81093051486e-06
3.09540241942e-06
7.29600458822e-07
4.65895393232e-06
4.15960994988e-06
5.32212364117e-07
1.86235663424e-06
2.34761848765e-06
1.34773134518e-05
1.77407148246e-06
2.08713850003e-05
2.33183795349e-05
1.77816181957e-05
5.95562483822e-06
5.09859645269e-06
8.53563022953e-06
9.38330596069e-08
8.74411792454e-06
4.72358416777e-07
4.44065907446e-07
8.20832817151e-08
8.61300894514e-06
2.3929314935e-07
2.56760930174e-07
1.13165122419e-07
7.78584287636e-06
4.43926507266e-07
9.23407966017e-07
4.60076957814e-07
7.66533667135e-06
9.72854731575e-06
5.67662015577e-06
1.23094967819e-08
3.18481869986e-06
5.9335184162e-06
2.98160276479e-06
5.62440713901e-09
2.18535086133e-06
5.27411085505e-06
2.96458608254e-06
1.03404810412e-08
2.07526766152e-07
2.12985845883e-06
5.81876385017e-06
1.90612508341e-08
2.35852328193e-06
1.21486017653e-07
2.23232791589e-07
9.66385649783e-09
6.31865923248e-06
2.24804948719e-06
5.93214006922e-06
2.92200973103e-08
6.30683307879e-06
2.36117485548e-06
1.26479640302e-05
1.19216108404e-05
2.52232478633e-06
3.16719471099e-08
7.26675381977e-06
1.34834553479e-07
2.46982855382e-07
2.44002054082e-08
3.36125176631e-06
5.7444493823e-06
2.8762032331e-05
2.20761536745e-05
1.17167900474e-07
2.53628515792e-08
6.30423158089e-06
5.27406031274e-06
2.82082891285e-05
3.05344070857e-05
3.24443265176e-05
3.01777616974e-05
5.57893628809e-06
3.06945057044e-09
4.7086581481e-06
3.05475192563e-06
4.07726365695e-06
1.2827091156e-08
4.94965341966e-06
2.85653353072e-06
4.45173383338e-06
3.12965495793e-09
2.52266275691e-07
5.081131143e-06
2.80796717836e-06
1.04613070026e-08
4.97184048707e-06
2.15460542285e-07
2.73549636547e-07
1.37166435441e-09
4.27625366369e-06
5.58324990267e-06
3.96220915764e-06
9.62071012289e-09
3.5019431362e-06
5.15573658377e-06
4.15564454085e-06
7.722930888e-09
7.09866441773e-08
3.67839074088e-06
5.2319294259e-06
3.36480524211e-08
3.65869229741e-06
2.50555573731e-07
2.79316493932e-07
1.00184596943e-09
3.21547612826e-06
4.14076889797e-06
3.16794984015e-06
2.08055508998e-08
4.1012021695e-06
4.35652006431e-06
3.46670412834e-06
2.99683999458e-08
4.73359756991e-07
4.10793407519e-06
4.35168427544e-06
2.50002419405e-09
4.03894537824e-06
4.99558730577e-08
2.46445171594e-07
2.32862123892e-08
3.48475406518e-06
3.35376428947e-06
3.34854513578e-06
5.64126144914e-09
2.22235458733e-06
2.98444091146e-06
3.3997270686e-06
4.44104216588e-09
4.06133415737e-08
2.23718755201e-06
1.97729831219e-05