# vtk DataFile Version 3.0
File Name: Molecule/sphere/sphere_0-s2.vtk
ASCII
DATASET UNSTRUCTURED_GRID
FIELD FieldData 1
TIME 1 1 double
0.0
POINTS 31 double
0.0 0.850650808352 0.525731112119
0.0 0.850650808352 -0.525731112119
-0.850650808352 0.525731112119 0.0
-0.525731112119 0.0 -0.850650808352
-0.850650808352 -0.525731112119 0.0
0.525731112119 0.0 -0.850650808352
0.809016994375 0.309016994375 -0.5
0.850650808352 -0.525731112119 0.0
0.850650808352 0.525731112119 0.0
0.5 0.809016994375 -0.309016994375
0.309016994375 0.5 -0.809016994375
0.309016994375 -0.5 -0.809016994375
0.0 0.0 -1.0
-0.309016994375 -0.5 -0.809016994375
0.0 -0.850650808352 -0.525731112119
-0.309016994375 0.5 -0.809016994375
-0.525731112119 0.0 0.850650808352
-0.309016994375 0.5 0.809016994375
0.309016994375 0.5 0.809016994375
0.0 0.0 1.0
0.525731112119 0.0 0.850650808352
-0.309016994375 -0.5 0.809016994375
0.309016994375 -0.5 0.809016994375
0.0 -0.850650808352 0.525731112119
0.809016994375 -0.309016994375 0.5
0.5 -0.809016994375 0.309016994375
-0.5 -0.809016994375 -0.309016994375
-0.5 -0.809016994375 0.309016994375
0.0 -1.0 0.0
-0.809016994375 -0.309016994375 0.5
0.5 -0.809016994375 -0.309016994375

CELLS 58 232
3 0 1 2
3 3 4 2
3 5 6 7
3 7 6 8
3 8 6 9
3 6 10 9
3 6 5 10
3 9 10 1
3 8 9 0
3 9 1 0
3 5 11 12
3 11 13 12
3 11 14 13
3 12 13 3
3 1 15 2
3 15 3 2
3 3 13 4
3 5 11 7
3 5 12 10
3 12 15 10
3 12 3 15
3 10 15 1
3 16 17 2
3 0 17 2
3 0 17 18
3 17 19 18
3 17 16 19
3 18 19 20
3 16 21 19
3 21 22 19
3 21 23 22
3 19 22 20
3 20 22 24
3 22 25 24
3 22 23 25
3 24 25 7
3 20 24 8
3 7 24 8
3 0 18 8
3 8 18 20
3 4 26 27
3 26 28 27
3 26 14 28
3 27 28 23
3 4 27 29
3 27 21 29
3 27 23 21
3 29 21 16
3 4 29 2
3 16 29 2
3 14 30 28
3 30 25 28
3 30 7 25
3 28 25 23
3 14 26 13
3 13 26 4
3 7 30 11
3 14 30 11

CELL_TYPES 58
5
5
5
5
5
5
5
5
5
5
5
5
5
5
5
5
5
5
5
5
5
5
5
5
5
5
5
5
5
5
5
5
5
5
5
5
5
5
5
5
5
5
5
5
5
5
5
5
5
5
5
5
5
5
5
5
5
5

CELL_DATA 58
SCALARS cell_data_0 double
LOOKUP_TABLE default
6.13917980207e-05
3.28457601197e-05
2.40817272521e-07
1.37318537091e-05
1.02131416044e-06
3.02815063436e-06
1.08246604794e-05
8.11222534209e-06
2.84032325192e-05
1.30989765773e-05
0.000166684249611
0.000404541258673
8.99749780133e-05
0.000356838598921
0.000192359406356
0.000161731928298
0.00016447110539
8.2598349023e-06
0.000184929422371
0.000410291493062
0.000350315256043
0.000123998442242
3.15955136229e-05
0.000261870450442
0.000191212264313
2.66224124742e-05
0.000156616982736
0.000211835448864
0.000215930360953
0.000243293469792
3.29457447146e-05
0.000207988851866
7.07242264634e-05
2.97306321541e-05
1.94094248112e-05
1.52786864396e-05
9.24645710172e-05
3.75337240679e-06
2.13168404807e-05
0.000101472919616
4.48084630451e-06
1.3484635107e-06
6.67644324348e-07
1.00448169074e-05
2.97371183242e-07
1.82901185438e-05
2.75250898649e-05
8.14630787305e-05
3.20823442843e-05
5.4815901308e-05
4.06569975716e-06
1.94272663101e-06
3.41560820113e-06
9.18293850273e-06
9.73016498465e-05
9.32913528131e-05
8.10072194697e-06
2.49515253097e-06

