# vtk DataFile Version 3.0
File Name: Molecule/sphere/sphere_0-s1.vtk
ASCII
DATASET UNSTRUCTURED_GRID
FIELD FieldData 1
TIME 1 1 double
0.0
POINTS 19 double
0.0 0.850650808352 0.525731112119
0.0 0.850650808352 -0.525731112119
-0.850650808352 0.525731112119 0.0
-0.525731112119 0.0 0.850650808352
0.525731112119 0.0 0.850650808352
0.0 -0.850650808352 0.525731112119
0.850650808352 -0.525731112119 0.0
0.850650808352 0.525731112119 0.0
-0.525731112119 0.0 -0.850650808352
-0.850650808352 -0.525731112119 0.0
0.0 -0.850650808352 -0.525731112119
0.525731112119 0.0 -0.850650808352
0.809016994375 0.309016994375 -0.5
0.5 0.809016994375 -0.309016994375
0.309016994375 0.5 -0.809016994375
0.309016994375 -0.5 -0.809016994375
0.0 0.0 -1.0
-0.309016994375 -0.5 -0.809016994375
-0.309016994375 0.5 -0.809016994375

CELLS 34 136
3 0 1 2
3 0 2 3
3 0 3 4
3 3 5 4
3 4 5 6
3 6 7 4
3 7 0 4
3 8 9 2
3 9 10 5
3 9 5 3
3 3 2 9
3 10 6 5
3 11 12 6
3 6 12 7
3 7 12 13
3 12 14 13
3 12 11 14
3 13 14 1
3 7 13 0
3 13 1 0
3 11 15 16
3 15 17 16
3 15 10 17
3 16 17 8
3 1 18 2
3 18 8 2
3 8 17 9
3 17 10 9
3 10 15 6
3 11 15 6
3 11 16 14
3 16 18 14
3 16 8 18
3 14 18 1

CELL_TYPES 34
5
5
5
5
5
5
5
5
5
5
5
5
5
5
5
5
5
5
5
5
5
5
5
5
5
5
5
5
5
5
5
5
5
5

CELL_DATA 34
SCALARS cell_data_0 double
LOOKUP_TABLE default
1.10117885738e-06
0.000125031042524
0.00107478046186
0.00088610944423
0.00037026573834
0.000416528418316
6.86526183819e-05
6.17279755561e-06
0.00120263531128
0.000183894763737
7.07776773664e-05
0.00115008973642
4.2005943409e-06
3.38465562337e-05
3.1006364484e-06
2.18697268302e-06
1.03774650843e-06
1.27133331762e-06
5.18675662183e-05
1.16677234342e-05
1.00899162608e-05
1.92769403307e-07
0.000364079679267
2.59364615862e-06
6.62708412438e-06
6.59715407039e-06
1.96904794887e-06
0.000629589328614
0.000601481870102
5.64459485349e-06
6.4815699314e-06
8.70317852083e-07
1.62108249827e-06
1.94143709622e-06

