# vtk DataFile Version 3.0
File Name: Molecule/sphere/sphere_0-s3.vtk
ASCII
DATASET UNSTRUCTURED_GRID
FIELD FieldData 1
TIME 1 1 double
0.0
POINTS 52 double
-0.525731112119 0.0 -0.850650808352
-0.850650808352 -0.525731112119 0.0
-0.850650808352 0.525731112119 0.0
0.525731112119 0.0 -0.850650808352
0.809016994375 0.309016994375 -0.5
0.850650808352 -0.525731112119 0.0
0.850650808352 0.525731112119 0.0
0.5 0.809016994375 -0.309016994375
0.309016994375 0.5 -0.809016994375
0.0 0.850650808352 -0.525731112119
0.0 0.850650808352 0.525731112119
-0.309016994375 0.5 -0.809016994375
0.309016994375 -0.5 -0.809016994375
0.309016994375 -0.5 0.809016994375
0.5 -0.809016994375 0.309016994375
0.809016994375 -0.309016994375 0.5
0.0 -0.850650808352 0.525731112119
0.525731112119 0.0 0.850650808352
0.309016994375 0.5 0.809016994375
-0.5 -0.809016994375 -0.309016994375
-0.5 -0.809016994375 0.309016994375
0.0 -1.0 0.0
0.0 -0.850650808352 -0.525731112119
-0.809016994375 -0.309016994375 0.5
-0.309016994375 -0.5 0.809016994375
-0.525731112119 0.0 0.850650808352
0.5 -0.809016994375 -0.309016994375
-0.309016994375 -0.5 -0.809016994375
-0.5 0.809016994375 0.309016994375
0.162459848116 -0.26286555606 -0.951056516295
0.0 0.0 -1.0
0.0 -0.525731112119 -0.850650808352
-0.162459848116 -0.26286555606 -0.951056516295
-0.273266528913 0.0 -0.961938357784
-0.433888564553 -0.259891913008 -0.862668480416
-0.433888564553 0.259891913008 -0.862668480416
0.162459848116 0.26286555606 -0.951056516295
-0.162459848116 0.26286555606 -0.951056516295
0.0 0.525731112119 -0.850650808352
-0.309016994375 0.5 0.809016994375
-0.663864736987 0.587191188171 0.463130780147
-0.16062203564 0.702046444776 0.69378047756
0.0 0.0 1.0
0.162459848116 0.26286555606 0.951056516295
-0.273266528913 0.0 0.961938357784
0.433888564553 0.259891913008 0.862668480416
0.273266528913 0.0 0.961938357784
-0.433888564553 -0.259891913008 0.862668480416
-0.162459848116 -0.26286555606 0.951056516295
0.0 -0.525731112119 0.850650808352
0.162459848116 -0.26286555606 0.951056516295
0.433888564553 -0.259891913008 0.862668480416

CELLS 100 400
3 0 1 2
3 3 4 5
3 5 4 6
3 6 4 7
3 4 8 7
3 4 3 8
3 7 8 9
3 6 7 10
3 7 9 10
3 9 11 2
3 3 12 5
3 13 14 15
3 13 16 14
3 15 14 5
3 17 15 6
3 5 15 6
3 10 18 6
3 1 19 20
3 19 21 20
3 19 22 21
3 20 21 16
3 1 20 23
3 20 24 23
3 20 16 24
3 1 23 2
3 25 23 2
3 22 26 21
3 26 14 21
3 26 5 14
3 21 14 16
3 22 19 27
3 27 19 1
3 5 26 12
3 22 26 12
3 2 28 9
3 10 28 9
3 12 29 3
3 3 29 30
3 12 31 29
3 31 32 29
3 31 27 32
3 29 32 30
3 27 31 22
3 12 31 22
3 30 32 33
3 32 34 33
3 32 27 34
3 33 34 0
3 11 35 2
3 35 0 2
3 0 34 1
3 34 27 1
3 30 36 3
3 3 36 8
3 30 37 36
3 37 38 36
3 37 11 38
3 36 38 8
3 30 33 37
3 33 35 37
3 33 0 35
3 37 35 11
3 8 38 9
3 38 11 9
3 39 40 25
3 25 40 2
3 10 41 28
3 41 40 28
3 41 39 40
3 28 40 2
3 10 41 18
3 41 39 18
3 42 43 39
3 39 43 18
3 25 44 39
3 39 44 42
3 18 43 45
3 43 46 45
3 43 42 46
3 45 46 17
3 25 47 44
3 47 48 44
3 47 24 48
3 44 48 42
3 24 49 48
3 49 50 48
3 49 13 50
3 48 50 42
3 13 49 16
3 24 49 16
3 42 50 46
3 50 51 46
3 50 13 51
3 46 51 17
3 17 51 15
3 51 13 15
3 18 45 6
3 6 45 17
3 24 47 23
3 23 47 25

CELL_TYPES 100
5
5
5
5
5
5
5
5
5
5
5
5
5
5
5
5
5
5
5
5
5
5
5
5
5
5
5
5
5
5
5
5
5
5
5
5
5
5
5
5
5
5
5
5
5
5
5
5
5
5
5
5
5
5
5
5
5
5
5
5
5
5
5
5
5
5
5
5
5
5
5
5
5
5
5
5
5
5
5
5
5
5
5
5
5
5
5
5
5
5
5
5
5
5
5
5
5
5
5
5

CELL_DATA 100
SCALARS cell_data_0 double
LOOKUP_TABLE default
8.50202004515e-05
8.35642847214e-06
1.96001013274e-05
7.03650315669e-05
0.000129924348564
1.31746152261e-05
0.000138842274789
6.1362828021e-05
0.000141030275736
0.000194282712714
3.68820926152e-05
0.000191515974263
2.9480061587e-05
0.000177737123025
0.000106826574344
3.13999014156e-05
9.6974892508e-05
1.23545819179e-05
1.19144254514e-06
1.12006440235e-05
1.26627719116e-05
9.01550743682e-06
3.7541222426e-05
3.69596163112e-05
3.58633693743e-05
7.76558192956e-05
3.27294551134e-06
0.000159427060191
9.20551221873e-05
9.59436080977e-05
0.000135684762278
0.000232523724515
8.51534417837e-06
2.31612482794e-05
3.47615138584e-05
3.37166386336e-05
1.07202878829e-05
1.54196880564e-05
6.10986558205e-06
1.4768770502e-07
4.43761943905e-05
8.59655338092e-06
6.67638798306e-05
1.19016616337e-05
6.73296607126e-06
1.06309068341e-07
3.78612117995e-05
1.8680718036e-06
8.07765119986e-05
2.73636899115e-06
3.82816134004e-05
0.000196180018513
1.48850802294e-05
5.39072371793e-06
5.49802494386e-05
4.65532071279e-05
0.000111595066441
8.03946276949e-06
4.55709909562e-05
2.83563835841e-05
1.97767575228e-06
7.7905971567e-05
2.02256564799e-05
8.44502343528e-05
6.50958935333e-05
3.0800072517e-05
6.60110940614e-05
0.000123494814042
8.47916591953e-05
1.00578125862e-05
4.58149079249e-05
1.97236975137e-05
0.000156295984272
9.14911381766e-05
8.30346284016e-05
0.000130960353548
9.39050089314e-06
1.15361551191e-06
5.86948258905e-05
2.76407533055e-05
2.48817562139e-05
8.11875672015e-06
2.6030545599e-05
6.16629685313e-05
3.58701208466e-05
2.89918758625e-06
8.57920877349e-06
7.92308340802e-05
3.36682760146e-05
3.12341764744e-05
6.29579734914e-05
8.39564605198e-06
1.05293980381e-05
3.05220473257e-05
1.89424604557e-05
4.54337762078e-06
5.226373428e-05
7.75796324123e-05
4.02352114697e-05
5.23526355916e-05

