# vtk DataFile Version 3.0
File Name: Molecule/arg/arg_1.0-2.vtk
ASCII
DATASET UNSTRUCTURED_GRID
FIELD FieldData 1
TIME 1 1 double
0.0
POINTS 194 double
-3.4429352283 0.24823354185 1.4168422222
-3.0918886662 -0.092519119382 0.48397064209
-3.0249040127 -0.43686425686 1.6413700581
-2.7243971825 -0.52548658848 0.46044558287
-2.9952764511 0.09600135684 0.025165429339
-2.3056459427 -0.30891099572 -0.43463596702
-2.2904691696 -0.37499895692 -0.99644327164
-2.1434941292 -0.60685044527 -0.84240007401
-2.5933918953 1.4870167971 -0.69044971466
-2.5143344402 -0.022418707609 -1.0847328901
-2.2258119583 1.153624773 -1.6007328033
-1.9460778236 1.6555073261 -1.0968691111
-2.6271605492 1.9620460272 -0.3747869432
-1.4626332521 3.1667923927 0.21085913479
-1.7666625977 2.4864315987 -0.62138313055
-2.4887661934 2.6557281017 0.65077149868
-3.03738451 2.3491427898 1.6101490259
-1.8466775417 3.3345379829 1.5109803677
-2.5198612213 2.986410141 2.3051109314
-2.7059152126 2.5671696663 2.5891673565
-3.0023190975 2.014118433 2.5582137108
-3.4255709648 1.789518714 1.7757652998
-3.3841905594 0.78633791208 1.9593508244
-3.1501755714 0.80580699444 2.8774540424
-3.0455284119 0.4221636951 2.2850337029
-3.1126134396 0.11205042899 1.8542732
-2.8696873188 0.24828018248 3.2310295105
-2.7684857845 -0.037197105587 2.4866421223
-2.9691436291 -0.23259273171 1.93818748
-2.5068311691 -0.72132378817 2.4174911976
-2.3373534679 -0.23943465948 3.3910017014
-1.729894042 -1.7067824602 1.3902218342
-1.9762172699 -1.3288909197 3.2701234818
-0.98005861044 -2.2628474236 2.1180915833
-2.3041198254 -1.0109139681 0.32999306917
-0.98589676619 -2.2093918324 0.2940159142
-1.9062168598 -1.3275370598 -0.44370797276
-1.911773324 -1.2742439508 -1.0764859915
-2.0962188244 -0.68900167942 -1.2215578556
-1.764434576 -0.76529371738 -2.0445783138
-2.1767272949 -0.55695039034 -1.0201337337
-2.2334136963 -0.43637984991 -1.8584513664
-1.5807358027 -1.5371174812 -1.802372694
-2.12135005 0.21285973489 -2.3814098835
-1.5525040627 0.13137020171 -2.704470396
-1.8517227173 0.96452343464 -2.3780670166
-1.0645217896 0.56121391058 -3.3864769936
-1.5791949034 1.4487060308 -2.2308490276
-1.8718705177 1.4511209726 -1.7709028721
-1.3061373234 1.5016092062 -2.7430238724
-1.1051006317 2.053309679 -2.2178857327
-1.4862365723 1.825356245 -1.7284115553
-1.2180944681 2.4650599957 -1.3567012548
-0.51033371687 2.5464408398 -2.3512620926
-0.2668697536 2.9279260635 -1.7890781164
-0.93566584587 3.0728304386 -1.1140818596
0.41029408574 3.0893352032 -1.0463724136
0.36725762486 3.0518140793 -2.1360161304
-0.059339184314 3.3327286243 -2.9663288593
0.35532870889 3.4388747215 -2.7340164185
1.0635942221 2.4633347988 -0.46531510353
0.85594290495 2.6557688713 -1.4546351433
1.5104833841 1.9548517466 -1.0781702995
0.92966639996 2.7959957123 0.34276902676
1.5393466949 1.9169275761 0.067097224295
1.2186214924 2.2064831257 1.0081874132
0.27589631081 3.0715389252 0.98427081108
1.2604649067 2.2482764721 1.9870098829
0.7352745533 2.764975071 2.4709365368
-0.1477650255 3.3971507549 2.0585756302
-0.56326764822 3.2792873383 3.5156240463
0.0023522125557 2.6099197865 4.0484814644
-0.78367322683 2.8188691139 3.9335961342
-1.293992281 3.6796367168 3.388235569
-1.869342804 2.8366549015 3.77374053
-2.0404758453 3.2449343204 3.381554842
-2.2662491798 2.6823906898 3.5898385048
-1.0473843813 2.1108136177 4.4004898071
-0.47447153926 1.6487568617 4.6235079765
-2.4486606121 2.2215080261 4.1076869965
-1.5673412085 1.7529886961 4.5611610413
-3.0719506741 1.8019753695 3.082583189
-0.26567584276 1.0519721508 4.785223484
-1.1002800465 1.0901634693 4.6061882973
-0.057552311569 0.40663132071 5.0375165939
-0.68371242285 0.24773368239 4.7324280739
-1.643761158 0.70650541782 4.6417164803
-0.84755772352 -0.38561564684 4.7931804657
-1.6804859638 -0.88692480326 4.3354458809
-2.3495607376 0.23938845098 4.2322883606
0.16702909768 -1.1858116388 5.0837373734
0.35725045204 -0.46153411269 5.1842103004
1.2536722422 -0.80489182472 5.3374171257
1.580991745 -1.8293466568 4.6721925735
0.56049782038 -2.2834467888 4.4984021187
1.0663688183 -2.4731807709 3.2700226307
1.9840216637 -2.09014678 3.4694595337
1.9368802309 -1.4754787683 2.3441743851
1.0163732767 -1.8559075594 2.1235466003
0.77632308006 -1.6545792818 1.2194030285
0.13273061812 -2.1517598629 1.2360743284
0.14165247977 -2.6024897099 2.2599537373
1.0505592823 -1.8218948841 0.33009156585
0.049532148987 -2.4809911251 0.29439893365
-0.77984642982 -1.9838900566 1.1874651909
1.3944398165 -0.83460199833 1.0933512449
1.4182047844 -1.0256903172 0.16518764198
1.2697618008 -1.2135794163 1.5332611799
2.3326010704 -0.7175848484 1.9791177511
1.7009345293 -0.10571438819 0.67919546366
1.7704715729 0.21093338728 -0.22997117043
1.6530190706 -0.65389561653 -0.71458053589
1.5319788456 -1.5967592001 -1.5022974014
2.1961753368 -0.1576782167 -1.4378250837
2.0736074448 -1.1075013876 -2.2474431992
1.0503692627 -1.45961833 -2.8929543495
0.49787247181 -2.1576762199 -2.1504075527
-0.28175365925 -1.4148082733 -2.6503584385
0.10876911134 -0.70352190733 -3.5254576206
-0.37723425031 -0.71814101934 -3.0215945244
-0.99807977676 -0.69838476181 -2.6587901115
-0.70585805178 -0.29925301671 -3.1969332695
-0.98684000969 -1.3289515972 -2.4004964828
-0.025568980724 0.55952811241 -4.039290905
0.54401630163 0.4102139771 -4.2395839691
0.12167645991 2.007566452 -4.1281571388
0.37005388737 1.3410984278 -4.3972887993
-0.41090133786 1.9335013628 -3.5788726807
0.04739818722 2.994312048 -3.6885192394
-0.16763237119 3.1506311893 -3.331536293
0.91703212261 2.2172150612 -4.0307660103
0.92626810074 3.0812196732 -3.665102005
0.61541378498 3.1704790592 -3.8359165192
0.96961766481 3.2024037838 -2.8394014835
1.563064456 2.5433485508 -3.334100008
1.6671372652 2.6807086468 -2.5227472782
0.61878025532 3.3135428429 -2.6547720432
1.1307300329 2.6166024208 -2.0049483776
2.1106674671 1.6487528086 -1.9663586617
2.1896176338 2.163598299 -2.529597044
2.4292345047 1.2599743605 -2.2945086956
2.3495094776 0.60715430975 -1.6140202284
2.0364329815 0.90972882509 -1.2346144915
1.9723700285 0.93329250813 0.0081297829747
1.8442192078 2.0391745567 -3.4149706364
1.8454905748 1.3007065058 -3.813034296
1.1744586229 1.6456656456 -4.1886754036
1.8835633993 1.3137111664 1.3389276266
2.5436549187 0.95079118013 2.5848617554
1.8519496918 1.5687286854 2.330425024
1.6932612658 2.1848433018 3.1720736027
2.372038126 1.4408361912 3.4564344883
1.442299366 1.7656588554 4.2728233337
2.1977131367 1.1986545324 4.624587059
1.3689290285 0.76104551554 5.07843256
0.5259141922 1.5584717989 4.7614550591
0.60215103626 0.85297471285 4.9816975594
-3.526943922 2.20398283 0.82194572687
-3.5328950882 1.6286774874 -0.07764107734
-3.9363355637 1.1576052904 0.84625667334
-2.6783335209 -1.241899848 1.3420693874
0.54702275991 3.3681194782 -0.086935713887
-1.1138180494 4.0091280937 2.4959206581
-2.1279807091 3.6428983212 2.5094816685
-2.8482735157 1.3384978771 4.3462796211
-0.6360386014 -2.6129579544 4.284386158
-0.80184602737 -1.6626141071 4.9318008423
-1.5613924265 -1.8444190025 4.2511377335
-0.82761025429 -2.8492603302 3.2127783298
0.27368715405 -2.9096684456 3.388450861
0.48985499144 -2.7863755226 -0.90601497889
-0.77446293831 -2.7651941776 -0.75690823793
-0.59261822701 -2.4379572868 -1.9520944357
1.3686499596 -2.1108467579 -0.74770259857
0.9033331871 2.4546484947 4.0751919746
3.6675014496 -0.31391111016 3.6998398304
3.3286232948 0.75310713053 3.6968610287
3.3281030655 0.19396340847 4.6336236
3.3346021175 -0.88389712572 4.5817537308
3.2245202065 -1.49482131 3.6872177124
3.2396965027 -0.85256755352 2.6662683487
3.3363013268 0.18629981577 2.7784948349
2.3078200817 0.21180252731 5.388671875
2.4693961143 -0.82833606005 5.3330993652
2.4945318699 -1.7037699223 4.669798851
2.9128580093 0.11234179884 -2.6018505096
2.5698857307 -0.62440389395 -3.3693077564
2.6625702381 0.48022431135 -3.6150956154
1.8076900244 -1.2265552282 -3.3989641666
1.8081278801 -0.44084063172 -4.1865406036
0.87776362896 -0.71293056011 -4.09659338
0.94961333275 3.4464838505 -3.1412074566
0.19088217616 3.3244636059 -3.7740204334
0.093838140368 3.6093685627 -3.2818677425

CELLS 384 1536
3 0 1 2
3 2 1 3
3 1 4 3
3 5 6 7
3 4 8 9
3 9 8 10
3 8 11 10
3 12 11 8
3 13 14 15
3 12 15 14
3 15 16 17
3 17 16 18
3 19 16 20
3 21 20 16
3 21 22 20
3 22 23 20
3 24 22 25
3 0 25 22
3 23 24 26
3 27 26 24
3 27 25 28
3 28 25 2
3 2 29 28
3 29 30 27
3 29 31 32
3 32 31 33
3 31 34 35
3 35 34 36
3 34 5 36
3 3 5 34
3 36 7 37
3 37 38 39
3 38 40 6
3 9 6 5
3 9 41 6
3 42 37 39
3 41 43 39
3 44 39 43
3 43 45 44
3 44 45 46
3 47 45 48
3 10 48 45
3 49 47 50
3 51 50 47
3 51 11 52
3 52 11 14
3 50 52 53
3 53 52 54
3 55 56 54
3 54 56 57
3 54 57 53
3 58 57 59
3 56 60 61
3 61 60 62
3 60 63 64
3 64 63 65
3 63 66 65
3 67 66 68
3 69 66 17
3 13 17 66
3 69 70 68
3 68 70 71
3 72 73 74
3 75 74 73
3 74 75 76
3 18 19 75
3 72 77 71
3 71 77 78
3 79 80 74
3 76 79 74
3 79 76 81
3 20 81 19
3 82 78 83
3 80 83 77
3 84 82 85
3 86 85 83
3 87 86 88
3 89 88 86
3 89 30 88
3 88 30 32
3 85 87 84
3 90 91 87
3 92 90 93
3 94 93 90
3 94 95 93
3 93 95 96
3 96 95 97
3 98 97 95
3 99 98 100
3 101 100 98
3 99 100 102
3 103 102 100
3 104 100 33
3 101 33 100
3 100 104 103
3 103 104 35
3 102 105 99
3 106 105 102
3 97 107 108
3 105 108 107
3 109 106 110
3 111 110 106
3 111 112 113
3 113 112 114
3 114 112 115
3 116 115 112
3 116 117 115
3 115 117 118
3 119 117 120
3 121 119 120
3 120 122 39
3 42 39 122
3 120 44 121
3 121 44 46
3 123 118 121
3 118 123 124
3 125 126 127
3 123 127 126
3 128 127 129
3 125 128 130
3 131 130 132
3 131 133 134
3 134 133 135
3 133 136 137
3 61 137 57
3 137 138 135
3 135 138 139
3 140 138 141
3 142 141 138
3 142 62 143
3 143 62 64
3 143 110 142
3 110 113 142
3 139 140 144
3 145 144 140
3 145 124 146
3 146 124 126
3 146 130 144
3 144 130 134
3 109 147 108
3 108 147 148
3 149 147 67
3 65 67 147
3 150 151 149
3 148 149 151
3 150 152 151
3 151 152 153
3 153 152 154
3 155 154 152
3 155 82 156
3 156 82 84
3 156 91 154
3 154 91 92
3 25 0 2
3 5 3 4
3 4 9 5
3 48 10 11
3 14 11 12
3 17 13 15
3 19 18 16
3 81 20 23
3 24 23 22
3 26 27 30
3 32 30 29
3 104 33 31
3 104 31 35
3 7 36 5
3 7 38 37
3 41 39 38
3 49 46 45
3 47 49 45
3 52 50 51
3 58 53 57
3 55 54 52
3 136 57 137
3 61 57 56
3 64 62 60
3 67 65 66
3 69 68 66
3 72 71 70
3 78 77 83
3 83 85 82
3 87 85 86
3 92 91 90
3 107 97 98
3 107 98 99
3 107 99 105
3 109 108 105
3 109 105 106
3 113 110 111
3 119 118 117
3 122 120 117
3 126 124 123
3 128 125 127
3 134 130 131
3 137 135 133
3 140 139 138
3 141 142 113
3 146 144 145
3 149 148 147
3 156 154 155
3 157 158 159
3 159 158 4
3 0 159 1
3 159 0 22
3 159 22 21
3 159 21 157
3 157 21 16
3 157 16 15
3 158 157 12
3 15 12 157
3 158 12 8
3 158 8 4
3 4 1 159
3 3 34 160
3 3 160 2
3 2 160 29
3 27 28 29
3 29 160 31
3 31 160 34
3 40 38 7
3 40 7 6
3 10 43 9
3 41 9 43
3 38 6 41
3 45 43 10
3 11 51 48
3 48 51 47
3 13 66 161
3 13 161 55
3 13 55 14
3 52 14 55
3 55 161 56
3 56 161 60
3 60 161 63
3 63 161 66
3 73 162 163
3 73 163 75
3 70 73 72
3 73 70 162
3 162 70 69
3 162 69 17
3 162 17 163
3 163 17 18
3 163 18 75
3 77 74 80
3 19 76 75
3 76 19 81
3 74 77 72
3 23 26 164
3 23 164 81
3 81 164 79
3 79 164 80
3 164 86 80
3 83 80 86
3 86 164 89
3 89 164 26
3 89 26 30
3 25 27 24
3 165 166 167
3 165 167 168
3 165 168 169
3 165 169 94
3 165 94 166
3 166 94 90
3 166 90 87
3 166 87 88
3 166 88 167
3 167 88 32
3 167 32 168
3 168 32 33
3 168 33 101
3 168 101 169
3 169 101 95
3 169 95 94
3 95 101 98
3 170 171 172
3 170 172 116
3 170 116 173
3 170 173 102
3 170 102 103
3 170 103 171
3 171 103 35
3 171 35 36
3 171 36 37
3 171 37 42
3 171 42 172
3 172 42 122
3 172 122 117
3 172 117 116
3 102 173 106
3 106 173 111
3 111 173 112
3 112 173 116
3 44 120 39
3 49 50 127
3 49 127 46
3 46 127 123
3 46 123 121
3 119 121 118
3 127 50 53
3 62 142 138
3 62 138 137
3 62 137 61
3 65 147 64
3 64 147 143
3 110 143 109
3 147 109 143
3 68 71 174
3 68 174 150
3 68 150 67
3 67 150 149
3 150 174 152
3 152 174 155
3 155 174 71
3 155 71 78
3 155 78 82
3 91 84 87
3 84 91 156
3 175 176 177
3 175 177 178
3 175 178 179
3 175 179 180
3 175 180 181
3 175 181 176
3 177 182 183
3 178 177 183
3 178 183 184
3 179 178 184
3 179 184 96
3 179 96 97
3 179 97 180
3 180 97 108
3 180 108 181
3 181 108 148
3 181 148 176
3 176 148 151
3 176 151 153
3 176 153 177
3 177 153 182
3 182 153 154
3 182 154 92
3 182 92 183
3 183 92 93
3 183 93 184
3 184 93 96
3 185 186 187
3 186 188 189
3 187 186 189
3 189 188 190
3 189 190 124
3 189 124 145
3 189 145 187
3 187 145 140
3 187 140 185
3 185 140 141
3 185 141 113
3 185 113 114
3 185 114 186
3 186 114 188
3 188 114 115
3 188 115 190
3 190 115 118
3 190 118 124
3 125 130 126
3 126 130 146
3 135 139 134
3 134 139 144
3 58 129 53
3 53 129 127
3 59 136 191
3 136 59 57
3 128 129 192
3 192 129 193
3 59 193 58
3 58 193 129
3 192 193 132
3 193 191 132
3 193 59 191
3 132 191 131
3 192 132 128
3 128 132 130
3 131 191 133
3 133 191 136

CELL_TYPES 384
5
5
5
5
5
5
5
5
5
5
5
5
5
5
5
5
5
5
5
5
5
5
5
5
5
5
5
5
5
5
5
5
5
5
5
5
5
5
5
5
5
5
5
5
5
5
5
5
5
5
5
5
5
5
5
5
5
5
5
5
5
5
5
5
5
5
5
5
5
5
5
5
5
5
5
5
5
5
5
5
5
5
5
5
5
5
5
5
5
5
5
5
5
5
5
5
5
5
5
5
5
5
5
5
5
5
5
5
5
5
5
5
5
5
5
5
5
5
5
5
5
5
5
5
5
5
5
5
5
5
5
5
5
5
5
5
5
5
5
5
5
5
5
5
5
5
5
5
5
5
5
5
5
5
5
5
5
5
5
5
5
5
5
5
5
5
5
5
5
5
5
5
5
5
5
5
5
5
5
5
5
5
5
5
5
5
5
5
5
5
5
5
5
5
5
5
5
5
5
5
5
5
5
5
5
5
5
5
5
5
5
5
5
5
5
5
5
5
5
5
5
5
5
5
5
5
5
5
5
5
5
5
5
5
5
5
5
5
5
5
5
5
5
5
5
5
5
5
5
5
5
5
5
5
5
5
5
5
5
5
5
5
5
5
5
5
5
5
5
5
5
5
5
5
5
5
5
5
5
5
5
5
5
5
5
5
5
5
5
5
5
5
5
5
5
5
5
5
5
5
5
5
5
5
5
5
5
5
5
5
5
5
5
5
5
5
5
5
5
5
5
5
5
5
5
5
5
5
5
5
5
5
5
5
5
5
5
5
5
5
5
5
5
5
5
5
5
5
5
5
5
5
5
5
5
5
5
5
5
5
5
5
5
5
5
5
5
5
5
5
5
5
5
5
5
5
5
5
5
5
5
5
5
5

CELL_DATA 384
SCALARS cell_data_0 double
LOOKUP_TABLE default
2.91350353135e-07
9.63274534698e-07
1.02066903869e-06
2.22773172577e-06
9.77842519926e-06
7.88847118151e-06
1.0005391748e-05
7.76698105838e-08
1.46263996318e-07
3.12871902388e-06
1.02242802462e-06
4.01669170904e-07
1.95444165635e-07
8.24303066394e-07
4.09646940438e-07
9.57060051415e-07
2.37171363015e-07
3.12633272183e-07
3.76559007656e-07
1.84356266551e-07
7.27254381161e-07
3.21115548476e-07
7.20322403962e-07
4.26023640038e-06
8.21928461631e-06
2.91379533194e-05
2.0027040004e-06
1.22029124372e-06
2.15466371648e-06
1.55661677179e-06
3.04569737123e-06
1.04208534257e-06
1.4811819476e-07
7.17028998041e-07
1.28563132254e-06
6.03628180025e-06
6.41796669735e-06
2.84211114967e-06
2.14834231637e-06
6.1923142995e-07
4.47814499356e-06
6.62548543477e-07
4.38583389259e-06
9.72740290827e-07
5.2593556256e-06
4.94703386888e-06
6.62693611802e-06
4.87172352221e-06
1.34424487062e-06
4.65524499152e-06
1.07529420033e-05
8.33487475053e-06
2.95627603638e-06
9.7052661664e-07
4.88570957366e-06
2.24269950772e-06
4.2526237771e-06
3.35873911079e-05
1.79358889885e-05
1.61291140447e-06
2.53958624874e-05
1.44924357372e-05
1.48747542211e-07
1.21057100611e-06
1.32498438907e-06
1.52612992643e-06
2.85145301823e-07
2.35157222717e-06
7.35824438373e-08
1.29671814877e-06
8.63118576722e-07
1.62429830283e-06
9.62321770652e-08
5.95180136334e-07
1.75458333227e-06
2.01119499e-06
2.59329750326e-06
1.28024765114e-06
4.65237477476e-06
1.37794464932e-05
1.06080332292e-06
4.43583102623e-06
1.60351999891e-05
6.87644346515e-05
5.16434829414e-07
8.27530621359e-05
0.000125900839417
2.17564248847e-05
5.92454679983e-06
8.15201029854e-06
7.07989404835e-06
1.25247399687e-05
1.20529838313e-06
3.46417016686e-06
1.83272225606e-06
4.93154775779e-06
6.36434897117e-06
7.94088301182e-07
1.40227092431e-05
7.01526253632e-06
9.47148459203e-06
4.95207694745e-06
2.97215069033e-06
4.45130783272e-06
7.53177895551e-06
4.03172407241e-06
7.94392554564e-06
3.00673678095e-06
2.43007616756e-07
1.09034823434e-06
1.89750949727e-06
3.5411347565e-06
1.51914805401e-06
1.28912103504e-05
1.21750255598e-05
2.18565954404e-05
6.11387497813e-05
9.83118575961e-05
3.16357239166e-05
5.65547282239e-05
6.69227191854e-05
9.19457884166e-05
9.12973098791e-05
2.3681995494e-05
3.17215823871e-06
3.79005889243e-05
8.83824485534e-05
2.13750919007e-05
1.88487429917e-06
8.59829228923e-06
9.27324310879e-06
5.65509123059e-06
1.18305506959e-05
2.48687831893e-05
3.50682640812e-05
2.14428945194e-05
7.02631591564e-05
0.000138430465154
0.000125818176278
1.37856605145e-05
2.28903162532e-05
1.7793192269e-05
4.52618476485e-06
0.000100083579682
2.05239856751e-06
0.000105251861662
1.24917011721e-05
1.52103593743e-05
4.05443712441e-05
2.4782102243e-06
8.6752737593e-07
2.2523940244e-06
9.67558506377e-06
9.50699062476e-07
1.81873258237e-07
1.16600702349e-05
2.61777351013e-06
3.11695589576e-06
1.22168471196e-05
1.52774978764e-06
3.86904121394e-07
1.95740027872e-06
3.91778804797e-06
4.59224691385e-07
7.35278958716e-07
7.00275763247e-06
3.26803472836e-06
1.78477452365e-06
1.18399426145e-06
9.86873447726e-06
1.48344194519e-06
5.9768330709e-06
4.76285093433e-06
4.15359008433e-06
5.74130747013e-06
4.37723300277e-06
8.88464274994e-06
1.63976143296e-07
3.03000490731e-05
1.52227449901e-06
1.00488786493e-06
8.3251031324e-08
1.39947544351e-06
9.60939549688e-06
1.50426175928e-05
1.34581516256e-05
1.18907597501e-06
7.86012989272e-07
2.36993025096e-06
7.87994802637e-06
2.22956393703e-07
1.35060063883e-06
8.67618017494e-05
0.000103360405916
9.98909988579e-05
8.05070617979e-05
0.000110876134593
1.986086723e-06
8.13589323904e-05
2.47364171708e-06
3.00904713154e-06
1.1493429538e-06
2.78019907486e-06
3.21796402331e-07
3.78358441367e-07
8.30476924808e-07
2.66546436163e-07
2.93260189096e-07
1.22308562913e-06
1.37046328393e-06
4.51800220538e-06
1.92151903505e-06
1.13118672045e-05
6.78354305141e-08
1.36924455745e-06
4.51331751241e-06
6.03469282187e-06
2.28250609859e-07
5.32098881459e-06
3.08700864724e-06
1.35030802275e-07
3.97640708104e-08
3.8921014338e-05
1.26393922818e-06
1.06393559254e-06
5.52479559027e-06
2.00602332175e-06
1.2309393434e-06
1.16599759968e-05
4.03394468991e-06
2.8314294995e-06
1.24449845458e-06
2.74708502085e-06
2.22945208077e-06
3.17385320837e-06
1.94419883215e-06
3.84774137785e-07
1.45914339569e-06
7.76244935841e-08
5.74432330173e-07
1.09167017747e-05
6.96919056735e-06
4.94488329787e-06
3.85392841868e-07
1.21269737121e-06
3.10707861918e-07
2.59917546025e-07
9.87019354616e-07
4.52232331268e-07
3.1248811012e-06
2.03821775536e-07
2.30526145539e-08
4.96467769288e-07
3.49156130968e-07
1.18841901923e-07
2.04510649127e-08
4.5324480195e-06
5.3891463143e-06
1.02951995784e-06
7.74017720544e-06
3.68527375071e-05
3.27965415411e-05
8.76862278332e-05
3.04965532988e-05
2.15341738328e-05
7.5001499044e-06
5.28294342207e-06
1.4207848076e-05
1.26105336253e-05
4.89262930693e-05
2.22268742032e-05
4.60363922636e-05
5.51218063741e-05
2.17202535994e-05
0.000172341723786
3.17907769625e-05
6.18145597872e-06
5.1264693754e-07
9.28673329653e-06
1.33338432101e-05
4.05177062867e-06
8.43146094399e-06
4.02873998071e-06
4.53278959523e-06
3.49353615593e-06
8.64591508536e-06
5.07779651599e-07
1.55251485177e-06
3.96072692072e-07
7.12694504312e-06
2.68523730797e-06
9.43876352658e-06
1.32457359878e-06
2.26991357286e-08
1.30824396608e-05
3.6060309298e-07
3.82363469184e-06
6.98955146399e-05
6.58537881277e-06
4.7138685937e-07
3.67616986332e-05
1.44797758289e-05
5.36919905839e-05
7.141200522e-06
1.0001014651e-06
4.95588283623e-06
1.07103227253e-06
4.07851476136e-06
2.42433506518e-05
0.000152925018572
2.67901655396e-05
2.23520929079e-05
1.4018459879e-05
1.02627573545e-05
2.89624182183e-05
1.17716172385e-06
1.15760626494e-06
2.19387230337e-06
2.8267084303e-06
6.73250521174e-05
3.32601259921e-05
6.21700901145e-06
1.74867110405e-05
3.37802360991e-05
5.23369081326e-05
1.04226216106e-05
1.86594098289e-05
5.37563888591e-05
5.42107340542e-05
0.000185225050779
2.92502899913e-06
1.43377485541e-05
1.02301501228e-05
8.98634785581e-08
2.96934671657e-06
2.50953122171e-05
8.14454764776e-05
0.000225947674097
4.61634817057e-05
2.26822774754e-05
2.70680595983e-05
6.33959189846e-06
7.805428065e-06
2.48369200114e-05
3.50375529321e-05
0.000148994221486
4.00416689549e-06
3.7087400422e-06
1.74065001356e-06
3.91024265714e-06
1.16580753598e-05
5.78326871679e-06
9.78544806473e-06
1.3714441889e-05
3.54571503823e-06
7.05314948432e-06
5.69119726195e-06
9.78203442461e-06
3.59872503135e-06
3.92457544341e-08
4.23350255033e-07
6.58758438055e-06
1.45849859921e-05
5.60865181612e-06
0.000404576814851
0.000358221228527
0.000274470686505
0.000314813001467
1.15420464251e-05
3.71641484153e-05
2.43096980454e-05
6.22510763996e-06
2.71236611e-05
4.2955798182e-05
2.05714846672e-05
1.59293752802e-05
3.66345004049e-05
0.000256798850895
1.74240277421e-05
1.89792112001e-05
9.85976105562e-06
4.82613529559e-05
1.68695417225e-06
2.27523392292e-05

