# vtk DataFile Version 3.0
File Name: Molecule/arg/arg_0.5-0.vtk
ASCII
DATASET UNSTRUCTURED_GRID
FIELD FieldData 1
TIME 1 1 double
0.0
POINTS 143 double
-3.4005258083 0.26937782764 1.3629330397
-2.9729068279 0.0082247108221 0.49409773946
-2.92314291 -0.49543678761 1.5912351608
-2.4226794243 -0.87449920177 0.54305440187
-2.9895160198 0.13605226576 -0.032587785274
-2.5971972942 -0.54185426235 0.12311501801
-2.2135064602 -0.45488810539 -0.92021119595
-2.3053131104 -0.40753769875 -0.48585242033
-2.4131500721 -0.1727309227 -1.1502271891
-2.2916767597 1.1277565956 -1.4819142818
-2.8349547386 1.6766165495 -0.40514969826
-2.3908352852 1.9942038059 -0.73452579975
-1.9510208368 1.4763270617 -1.5086604357
-1.7661358118 1.8883838654 -1.1500197649
-2.4805984497 2.6180725098 0.53590458632
-1.7284088135 2.495732069 -0.58401817083
-1.3885912895 3.176627636 0.15266522765
-3.1490051746 2.33375144 1.4824132919
-1.8574901819 3.3287367821 1.4597440958
-2.4395449162 3.0705463886 2.2742950916
-2.913279295 2.074955225 2.6949722767
-2.6903717518 2.5432655811 2.4269514084
-3.4145138264 1.7422174215 1.863832593
-3.0781319141 1.7208848 3.0987765789
-3.1242423058 0.70262426138 2.9962832928
-3.4024546146 0.67364317179 1.8862215281
-3.0607979298 0.40456831455 2.2833964825
-3.1304476261 0.13071537018 1.8230167627
-2.9677641392 0.26388424635 2.9915823936
-2.8764331341 0.026206888258 2.3194196224
-2.9374632835 -0.1754463613 1.9677990675
-2.4982759953 -0.70394033194 2.4789559841
-2.5402531624 0.0068490672857 3.5042865276
-1.6597182751 -1.6358551979 1.3168168068
-1.9103358984 -1.2205463648 3.4056437016
-0.89996635914 -2.2890472412 2.2163286209
-0.9324503541 -2.2378411293 0.30403366685
-1.9704685211 -1.2449923754 -0.28142100573
-2.0447971821 -0.77043455839 -0.83210349083
-1.9307813644 -1.2450720072 -1.0824627876
-2.099858284 -0.68388545513 -1.1644086838
-1.7805292606 -0.77451723814 -1.9928028584
-2.241902113 -0.43949490786 -1.0921941996
-2.1734952927 -0.46767956018 -1.8255727291
-1.5922863483 -1.5058642626 -1.5901161432
-1.5504881144 0.1230667308 -2.6948964596
-2.0204041004 0.24142190814 -2.3510549068
-1.9213904142 0.98704868555 -2.308784008
-1.3030201197 1.4402476549 -2.7710635662
-1.7248470783 1.3659033775 -2.1364533901
-1.1374274492 2.0623173714 -2.1710686684
-1.5163167715 1.8234517574 -1.6863120794
-1.3257796764 2.5051751137 -1.2883095741
-0.47132977843 2.5428750515 -2.3950150013
-0.77312517166 3.0140964985 -1.3177555799
0.79782021046 2.7216823101 -1.7494528294
0.68818992376 3.3856213093 -2.7880928516
-0.10298335552 3.3635523319 -2.8119826317
0.38167607784 3.1841299534 -0.70652472973
1.088283062 2.5512804985 -0.45969125628
1.5504127741 2.0070457458 -1.1510170698
0.87357771397 2.747153759 0.35564038157
1.5310231447 1.9165744781 0.12298512459
1.2123247385 2.205493927 1.0821809769
0.34952446818 3.1107730865 0.85937613249
0.62745642662 2.7502720356 2.292383194
-0.17124310136 3.2861020565 2.0670835972
-0.70612460375 3.2791297436 3.4849379063
0.092309430242 2.6233108044 3.9853024483
-0.64485192299 2.7287807465 3.9532680511
-1.8674697876 2.7510478497 3.7874751091
-1.9854692221 3.2315218449 3.3278656006
-2.2308366299 2.6391470432 3.6283493042
-0.5311691165 1.750357151 4.5672030449
-1.1120907068 2.0857102871 4.279841423
-1.5390286446 1.6858845949 4.5475435257
-2.3755817413 2.2029294968 4.055378437
-0.36519181728 1.0128750801 4.7247719765
-1.3497494459 1.0957952738 4.6927585602
-0.52052217722 0.11293514073 4.8424201012
-1.6726047993 0.64022570848 4.6209464073
-0.96937888861 -0.42999905348 4.7113761902
0.076503835618 -1.221159935 5.0552992821
0.39441144466 -0.51808482409 5.1186494827
0.7776312232 -2.4444313049 3.9113667011
1.2141801119 -0.82009029388 5.2537546158
1.9118618965 -2.0417437553 4.0569376945
0.96313905716 -1.8750224113 2.1891851425
1.9191921949 -1.5031527281 2.2994992733
0.99496746063 -1.8644975424 0.54357671738
1.4936494827 -1.1262805462 0.31580561399
2.3499510288 -0.62149477005 1.9388166666
1.702314496 -0.095705524087 0.80757784843
1.8450803757 0.21867138147 -0.12499719858
1.6114811897 -0.74419611692 -0.69794952869
1.6495029926 -1.3426525593 -2.725079298
2.1839323044 -0.18810489774 -1.5283132792
1.1266188622 -1.9705022573 -1.8006689548
-0.48701667786 -1.4997775555 -2.4899072647
0.21641379595 -0.77844130993 -3.4549994469
-0.93734544516 -1.2270201445 -2.448366642
-0.41956263781 -0.71974551678 -3.0713653564
-0.61327683926 -0.27773267031 -3.193218708
-1.0544629097 -0.63132029772 -2.6409349442
-1.0099029541 0.55392307043 -3.311019659
-0.040767926723 0.63024407625 -4.0027675629
0.61395287514 0.39486825466 -4.2396082878
-0.44801473618 1.9037284851 -3.5520820618
0.35432294011 1.3384336233 -4.3918766975
0.13646890223 2.0659167767 -4.1111645699
-0.018547851592 3.011507988 -3.6359367371
0.9082710743 3.0684287548 -3.7116055489
0.94021582603 2.1711153984 -4.0780124664
1.0380461216 3.2205147743 -2.9060599804
1.6153746843 2.5652091503 -3.3098702431
1.6791744232 2.6704962254 -2.5324282646
1.207293272 2.5654881001 -2.1115992069
2.0643210411 1.7155005932 -1.976416707
2.1930866241 2.1541187763 -2.5522277355
2.4117314816 1.2718888521 -2.37915802
2.2113056183 0.67673701048 -1.7172051668
2.0147721767 0.95759421587 -1.2306790352
1.9623352289 0.97213715315 -0.012522847392
1.8971261978 2.081849575 -3.4145131111
1.8556827307 1.2225788832 -3.8061423302
1.1752719879 1.6927691698 -4.1753644943
2.5541293621 0.84912836552 2.7324876785
1.9311635494 1.3252427578 1.2770189047
1.7620717287 1.5878264904 2.4245176315
1.232221365 2.3061597347 2.1638898849
1.4314444065 0.75579535961 5.0399003029
0.64034044743 1.5621316433 4.6429615021
0.6746352911 0.88971757889 4.9455289841
-0.034646257758 0.43341627717 4.9269413948
-3.9275522232 1.1960390806 0.76881319284
-1.7670257092 3.8458397388 2.5332427025
-2.6359922886 1.4716545343 4.4525847435
-1.0847343206 -2.0128080845 4.5817184448
0.73946100473 -2.6064054966 -0.88026636839
3.6244969368 -0.41290995479 3.6244087219
2.7886278629 0.44311380386 5.0558371544
2.7628955841 -1.0893614292 5.0734238625
2.1152253151 -0.4682880044 -3.959867239

CELLS 282 1128
3 0 1 2
3 2 1 3
3 1 4 5
3 6 7 8
3 8 4 9
3 10 9 4
3 10 11 9
3 12 11 13
3 11 14 15
3 15 14 16
3 14 17 18
3 18 17 19
3 20 21 22
3 17 22 21
3 23 22 24
3 25 24 22
3 26 25 27
3 0 27 25
3 24 26 28
3 29 28 26
3 29 27 30
3 30 27 2
3 2 31 30
3 28 31 32
3 31 33 34
3 34 33 35
3 36 33 37
3 3 37 33
3 3 5 37
3 5 7 37
3 37 38 39
3 39 40 41
3 40 6 42
3 42 6 8
3 8 43 42
3 44 39 41
3 45 41 46
3 43 46 41
3 46 47 45
3 47 48 45
3 12 49 9
3 47 9 49
3 48 49 50
3 51 50 49
3 51 13 52
3 52 13 15
3 53 50 54
3 52 54 50
3 54 55 53
3 56 57 55
3 58 59 55
3 55 59 60
3 59 61 62
3 62 61 63
3 61 64 63
3 64 65 63
3 64 16 66
3 66 16 18
3 66 67 65
3 65 67 68
3 69 67 70
3 71 70 67
3 70 71 72
3 19 21 71
3 68 69 73
3 74 73 69
3 75 74 76
3 72 76 70
3 76 72 23
3 20 23 72
3 77 73 78
3 75 78 73
3 78 79 77
3 80 79 78
3 80 32 81
3 81 32 34
3 82 83 81
3 79 81 83
3 82 84 85
3 85 84 86
3 84 87 86
3 86 87 88
3 36 89 35
3 87 35 89
3 89 90 88
3 88 90 91
3 92 90 93
3 94 93 90
3 95 96 97
3 94 97 96
3 97 98 95
3 95 98 99
3 98 100 101
3 102 101 103
3 103 100 41
3 44 41 100
3 103 45 102
3 102 45 104
3 105 99 102
3 99 105 106
3 105 107 108
3 108 107 109
3 107 53 110
3 110 53 57
3 110 111 109
3 109 111 112
3 111 113 114
3 114 113 115
3 113 56 116
3 116 56 55
3 116 117 115
3 115 117 118
3 119 117 120
3 121 120 117
3 121 60 122
3 122 60 62
3 122 93 121
3 93 96 121
3 118 119 123
3 124 123 119
3 124 106 125
3 125 106 108
3 125 112 123
3 123 112 114
3 126 91 127
3 92 127 91
3 128 127 129
3 63 129 127
3 126 128 130
3 131 130 128
3 131 77 132
3 132 77 133
3 132 83 130
3 130 83 85
3 27 0 2
3 7 5 4
3 4 8 7
3 12 9 11
3 15 13 11
3 18 16 14
3 21 19 17
3 23 20 22
3 26 24 25
3 28 29 31
3 34 32 31
3 36 35 33
3 38 37 7
3 38 40 39
3 43 41 40
3 104 45 48
3 49 48 47
3 52 50 51
3 57 53 55
3 58 55 54
3 62 60 59
3 129 63 65
3 66 65 64
3 69 68 67
3 75 73 74
3 133 77 79
3 81 79 80
3 85 83 82
3 89 88 87
3 92 91 90
3 96 93 94
3 101 99 98
3 100 103 101
3 108 106 105
3 110 109 107
3 114 112 111
3 116 115 113
3 119 118 117
3 120 121 96
3 125 123 124
3 128 126 127
3 132 130 131
3 0 25 134
3 0 134 1
3 4 1 134
3 4 134 10
3 10 134 14
3 10 14 11
3 14 134 17
3 17 134 22
3 22 134 25
3 5 3 1
3 2 3 33
3 2 33 31
3 29 30 31
3 6 40 38
3 6 38 7
3 9 46 8
3 43 8 46
3 40 42 43
3 47 46 9
3 13 51 12
3 12 51 49
3 16 64 58
3 16 58 54
3 16 54 15
3 52 15 54
3 58 64 61
3 58 61 59
3 71 67 135
3 71 135 19
3 19 135 18
3 18 135 66
3 66 135 67
3 74 70 76
3 21 72 71
3 72 21 20
3 70 74 69
3 136 24 32
3 24 136 23
3 23 136 76
3 76 136 75
3 78 75 80
3 136 80 75
3 80 136 32
3 28 32 24
3 27 29 26
3 35 87 84
3 35 84 137
3 35 137 34
3 34 137 81
3 81 137 82
3 82 137 84
3 37 39 36
3 36 39 44
3 36 44 138
3 36 138 89
3 89 138 90
3 90 138 94
3 97 94 138
3 97 138 98
3 98 138 44
3 98 44 100
3 45 103 41
3 107 48 53
3 48 107 104
3 104 107 105
3 104 105 102
3 101 102 99
3 50 53 48
3 56 113 111
3 57 56 110
3 111 110 56
3 60 121 117
3 60 117 116
3 60 116 55
3 63 127 62
3 62 127 122
3 93 122 92
3 127 92 122
3 65 68 129
3 129 68 128
3 128 68 131
3 131 68 73
3 131 73 77
3 79 83 133
3 133 83 132
3 139 140 141
3 139 141 86
3 139 86 88
3 139 88 91
3 139 91 126
3 139 126 140
3 140 126 130
3 140 130 85
3 140 85 141
3 141 85 86
3 99 106 142
3 99 142 95
3 95 142 96
3 119 120 142
3 96 142 120
3 119 142 124
3 124 142 106
3 109 112 108
3 108 112 125
3 115 118 114
3 114 118 123

CELL_TYPES 282
5
5
5
5
5
5
5
5
5
5
5
5
5
5
5
5
5
5
5
5
5
5
5
5
5
5
5
5
5
5
5
5
5
5
5
5
5
5
5
5
5
5
5
5
5
5
5
5
5
5
5
5
5
5
5
5
5
5
5
5
5
5
5
5
5
5
5
5
5
5
5
5
5
5
5
5
5
5
5
5
5
5
5
5
5
5
5
5
5
5
5
5
5
5
5
5
5
5
5
5
5
5
5
5
5
5
5
5
5
5
5
5
5
5
5
5
5
5
5
5
5
5
5
5
5
5
5
5
5
5
5
5
5
5
5
5
5
5
5
5
5
5
5
5
5
5
5
5
5
5
5
5
5
5
5
5
5
5
5
5
5
5
5
5
5
5
5
5
5
5
5
5
5
5
5
5
5
5
5
5
5
5
5
5
5
5
5
5
5
5
5
5
5
5
5
5
5
5
5
5
5
5
5
5
5
5
5
5
5
5
5
5
5
5
5
5
5
5
5
5
5
5
5
5
5
5
5
5
5
5
5
5
5
5
5
5
5
5
5
5
5
5
5
5
5
5
5
5
5
5
5
5
5
5
5
5
5
5
5
5
5
5
5
5
5
5
5
5
5
5
5
5
5
5
5
5
5
5
5
5
5
5

CELL_DATA 282
SCALARS cell_data_0 double
LOOKUP_TABLE default
1.07213432021e-06
3.46696472587e-06
6.24821097185e-07
2.37215912955e-07
1.39976660399e-05
1.33834473986e-05
1.00256927792e-05
1.99016503879e-07
3.61259546131e-06
3.88957780428e-06
1.47074598231e-06
1.84157591405e-06
8.01773587072e-07
7.49085008515e-07
3.82191666169e-06
1.38446685788e-06
4.02198801161e-07
6.08219104749e-07
5.67232882744e-07
6.60482287832e-07
3.89012431492e-07
2.13525216795e-07
1.01431869107e-06
5.31794503803e-06
6.21978824176e-06
0.000139480535294
1.21806052342e-05
3.48146591385e-07
2.94522303688e-06
2.10713717944e-06
3.47781186239e-07
4.93951691143e-06
2.31107807108e-07
1.52964796006e-08
5.87770893131e-07
7.92380337108e-06
3.39857859023e-06
7.12403018739e-06
5.17554692651e-06
9.28192031544e-06
2.07299036947e-06
9.46459326436e-07
1.04693522782e-05
1.40796134631e-06
1.21803476253e-06
1.60439395647e-06
2.05641646677e-05
2.28362968162e-06
4.22124254511e-05
0.00084162785604
2.19519416591e-06
3.88779395713e-05
4.3554949177e-06
1.81773621147e-05
1.43947749197e-06
3.02993539168e-05
9.59007130026e-06
4.56640847752e-06
2.7810097469e-05
9.98534863142e-05
5.55326138184e-06
1.07138783785e-06
3.03543860536e-06
1.43267698166e-06
2.74002866301e-05
5.33573219264e-06
2.79423446395e-06
2.11064319831e-06
2.05864378101e-06
1.0900211833e-06
1.02891024561e-06
6.59031446511e-06
3.99151480504e-06
3.92911652862e-06
3.82252079483e-05
5.05807139446e-05
1.58093577991e-05
3.67711352499e-05
9.03042082977e-05
0.000731614979006
0.00079354667022
3.03203660889e-05
7.50983666252e-06
7.45332581073e-05
9.04379325545e-05
0.000112976801596
4.59101548564e-05
4.0107057082e-06
2.92056072237e-05
1.02611315758e-05
2.17551437884e-05
8.15468942012e-06
1.08998076797e-07
4.47378976641e-06
5.37929340329e-06
4.5128609676e-06
5.66015765015e-07
1.48063608255e-05
1.77769531611e-05
2.78523242005e-05
0.000100495221818
1.40893545981e-05
0.000231735217362
0.000730742541447
0.000593509302313
0.000136856993007
0.000160715479718
1.88356852392e-05
0.000161790056458
0.000267186415577
2.67855534584e-05
0.000103233667685
5.33723630297e-05
1.3408083737e-05
3.81450797408e-05
4.61455766984e-05
1.70608212528e-05
3.00709773891e-05
1.58342352076e-05
5.17888524288e-05
8.6581834585e-06
7.14781812593e-05
0.000116076647518
0.000103606000399
0.000137795168695
0.000199907164665
0.000216947499681
8.75161161513e-05
0.0010549814396
0.00041013067656
9.8568463467e-06
6.28953052963e-06
2.40760639167e-05
7.86515732528e-05
6.99038132539e-07
4.41655331144e-06
1.2201037969e-05
4.13310860023e-06
1.10134394327e-06
9.42771329634e-06
2.7370677776e-06
2.48871707589e-06
1.92259873362e-06
1.76933445441e-07
1.97101341999e-05
2.5771729536e-05
1.1872478076e-06
1.79795375921e-06
2.48034265434e-06
1.81846666888e-05
7.05857899022e-06
2.28318730868e-06
0.000212748571874
4.38418514612e-06
3.26618384991e-05
5.025544462e-06
1.32957117003e-05
5.38868131211e-06
5.43791964159e-06
1.0714697092e-05
5.23560096915e-06
7.71252610939e-05
0.000108437797063
6.7902358139e-06
2.45383376112e-05
1.68414544822e-06
3.87634676819e-06
0.000115501137012
0.000226021287947
0.000270251005164
2.0782186863e-05
0.000115302508979
2.5670082185e-05
8.90881717205e-05
0.000437814683664
2.18812083385e-05
3.54988267707e-09
4.92125466572e-07
5.77437013622e-07
1.13890115306e-05
2.95559384296e-06
4.21854632437e-06
2.13875645254e-06
5.12564685299e-07
1.60367649661e-06
2.76223070784e-07
6.04300031532e-06
9.32939402619e-06
7.65622413352e-07
2.47354134382e-07
1.89105941036e-06
4.87663967955e-05
5.59284763052e-06
1.36422880233e-06
5.66010899248e-06
2.26723915662e-07
3.25520145616e-06
1.17066858047e-05
1.35496631988e-05
5.72312712476e-06
1.25829443961e-06
3.61022921637e-06
1.58936947902e-06
2.09847792738e-06
3.86861034299e-06
3.08951466967e-06
3.67460002674e-08
1.44146618295e-05
6.7462405647e-06
4.55692846689e-07
1.48911394667e-06
5.37869093017e-06
1.13568395395e-05
6.87602225432e-07
9.35173994024e-07
5.54329694122e-08
3.86434295027e-06
6.5700381677e-06
3.76844682183e-06
7.69360459003e-07
4.33824004616e-07
0.000482632747012
0.000724546853146
9.9377572984e-05
4.34732683554e-05
0.000149060949046
3.07213449315e-05
9.77444131926e-06
8.80210668567e-06
6.4668236786e-05
3.01302702285e-05
2.66865934564e-05
3.76341480271e-05
1.79373302321e-05
1.80586506645e-05
5.87171672554e-06
7.80292217493e-06
1.19889939116e-05
1.06455803637e-05
7.92975446411e-06
8.71994084874e-05
4.86491299448e-07
1.26178821628e-07
9.06252272295e-06
0.000155859923632
0.00115136264071
0.00393149576702
1.67430154248e-05
9.43954679667e-05
1.46193963477e-05
6.52270587629e-05
7.59013417909e-05
3.61150908236e-05
4.23813355604e-05
0.000255569505384
0.000544965674046
0.00240857222494
0.000151717965478
2.47380022653e-05
1.39405889149e-05
3.24103194548e-05
0.000454753318842
0.000606532991474
0.00040026628724
4.00114880881e-05
0.000464167022231
0.000962712846852
0.002460638891
0.000144889220063
1.75346819498e-06
0.000199951478436
1.45845396271e-05
5.96420793465e-06
1.52904214092e-05
2.60359565213e-05
7.294224703e-05
3.0787096793e-05
4.68845958438e-05
0.000473250072032
0.00028374436979
0.000230713719113
0.00026772877222

