# vtk DataFile Version 3.0
File Name: Molecule/arg/arg_5.0-1.vtk
ASCII
DATASET UNSTRUCTURED_GRID
FIELD FieldData 1
TIME 1 1 double
0.0
POINTS 834 double
-3.1914670467 -0.1834654063 1.229278326
-3.1765544415 0.038485195488 1.6354542971
-3.4454469681 0.10923947394 1.1044570208
-3.3928732872 0.29810330272 1.5914757252
-3.0026478767 -0.35022163391 1.8062604666
-2.990465641 -0.6307002306 1.4000495672
-3.0499596596 -0.26346471906 0.63641440868
-3.2958884239 0.032421644777 0.47149676085
-2.8459906578 -0.70494300127 0.75608748198
-2.883523941 -0.11010899395 0.2121270597
-2.7024655342 -0.34868404269 0.28926098347
-2.5655391216 -0.62322080135 0.29767641425
-2.5647051334 -0.069229252636 -0.27690812945
-2.6010308266 -0.16830457747 -0.031503580511
-2.6882824898 0.071696802974 -0.34012359381
-3.0163035393 0.10132342577 0.030417598784
-2.392332077 -0.17137202621 -0.50593864918
-2.3071262836 -0.33102840185 -0.42041924596
-2.2072200775 -0.46011328697 -0.65233439207
-2.2191627026 -0.44357833266 -0.93008041382
-2.4661531448 -0.059420533478 -0.77241069078
-2.9047632217 0.46608409286 -0.54595398903
-3.2699279785 0.54980939627 -0.2058173418
-2.6812717915 0.32738468051 -0.94371080399
-2.6063780785 0.1438318342 -1.3919916153
-2.401263237 -0.25241783261 -1.1248956919
-3.1573867798 1.2343951464 -0.45895501971
-2.8175888062 1.0506973267 -0.75016742945
-2.6072704792 0.88361734152 -1.1308535337
-2.5367698669 0.79010301828 -1.5596271753
-2.8083999157 1.7041712999 -0.48987871408
-2.5172235966 1.4156279564 -0.79317963123
-2.319470644 1.2208170891 -1.1917073727
-2.1971793175 1.1439273357 -1.6684930325
-2.5929319859 1.9446429014 -0.44080084562
-2.5170161724 1.6430808306 -0.63196647167
-2.2571763992 1.728574276 -0.70160168409
-2.2031013966 1.4648723602 -1.0173350573
-1.9702011347 1.7114334106 -0.9833574295
-1.7410258055 1.7592285872 -1.3846076727
-1.9492155313 1.4638266563 -1.5124870539
-2.5724198818 2.3327567577 -0.15677279234
-2.0953114033 2.0949537754 -0.5471265316
-1.9822272062 2.5207509995 -0.31652256846
-1.6790034771 2.4216582775 -0.82275652885
-1.5952390432 2.8376188278 -0.6096585393
-2.1474435329 2.617194891 0.070438817143
-2.5986838341 2.5209167004 0.18538440764
-1.6531773806 3.0138425827 -0.20876891911
-2.461884737 2.6639516354 0.62373703718
-1.8755455017 2.8224081993 0.4291242063
-1.4783979654 3.1726827621 0.24334298074
-2.8572924137 2.6079435349 1.0052398443
-2.264759779 2.7638981342 1.0450024605
-2.6679666042 2.6702554226 1.4353243113
-2.0263361931 2.986770153 1.2574778795
-2.3711230755 2.9316945076 1.5742334127
-1.8870631456 3.3306446075 1.5447859764
-2.3080990314 3.2420575619 1.9669262171
-3.1944029331 2.2815639973 1.476395607
-2.8257861137 2.4746949673 1.7424702644
-2.6280453205 2.6799299717 1.9874329567
-2.5247306824 2.9776732922 2.3381705284
-3.433218956 1.7882806063 1.7520016432
-2.9144604206 2.3204298019 1.919377327
-3.0849204063 1.949976325 2.1898138523
-2.7467968464 2.5050702095 2.3758363724
-2.9591109753 2.0519711971 2.6591911316
-3.6440124512 1.1374373436 1.7222310305
-3.3271107674 1.2263913155 2.1847627163
-3.2009410858 1.6860473156 2.1856639385
-3.100574255 1.7274560928 2.5371651649
-3.2213790417 1.2697720528 2.5893306732
-3.1208012104 1.7653864622 2.9704959393
-3.2469623089 1.1148889065 3.0339100361
-3.4072732925 0.60650449991 1.8323993683
-3.183047533 0.65844857693 2.204382658
-3.0958607197 0.72814071178 2.5749979019
-3.110679388 0.60855406523 2.9658915997
-3.1322386265 0.38078722358 2.0505144596
-3.0756709576 0.052609376609 1.8878157139
-2.9484045506 0.10582629591 2.212998867
-3.0310144424 0.48479604721 2.4804286957
-2.8988616467 0.29575681686 2.632093668
-2.9492139816 0.34656411409 3.1264617443
-2.8473808765 -0.35353410244 2.1489744186
-2.4393646717 -0.38145923615 2.7832911015
-2.7322626114 -0.10529094189 2.4884991646
-2.5429475307 -0.66957718134 2.4064464569
-2.5493950844 -0.080104634166 2.9914519787
-2.7748532295 0.11910819262 2.7662940025
-2.6563696861 0.063173696399 3.3964643478
-2.4340574741 -1.1395031214 2.2304165363
-2.1899034977 -0.85777282715 2.7903490067
-2.0460882187 -1.3449255228 2.6974742413
-2.0211539268 -1.1377631426 3.3154382706
-1.9206261635 -1.6142134666 3.1493215561
-1.9581017494 -1.5748435259 2.2482523918
-2.2899522781 -1.4326488972 1.8549859524
-1.7480134964 -1.941013217 2.73781991
-1.9665203094 -1.6619595289 1.6012209654
-1.599575758 -1.8446842432 2.0624752045
-1.3922269344 -2.1975300312 2.427662611
-1.2090965509 -1.9201694727 1.7724627256
-1.5528595448 -1.7473233938 1.3036655188
-0.95796614885 -2.2846355438 2.1259520054
-1.7219654322 -1.6523983479 0.59599399567
-1.3185888529 -1.7824621201 0.87358576059
-1.9923429489 -1.6096111536 0.99732404947
-1.158343792 -1.9269244671 0.55434888601
-1.5466326475 -1.7965329885 0.28869763017
-0.94759994745 -2.2506361008 0.26275703311
-1.3829251528 -2.119954586 -0.037280950695
-2.3724682331 -1.2165790796 0.59997570515
-2.0530016422 -1.3098510504 0.25237509608
-1.9007496834 -1.420948863 -0.091820433736
-1.7877067327 -1.7011955976 -0.45065653324
-2.4450995922 -0.8557279706 0.34460952878
-2.1355800629 -0.95332807302 -0.0011014263146
-2.0125205517 -1.0092301369 -0.3351752758
-1.9462141991 -1.2070852518 -0.6765037179
-2.3507506847 -0.47265341878 -0.071443259716
-2.3061430454 -0.7064922452 0.076387710869
-2.1300158501 -0.66468262672 -0.3533808887
-2.2179794312 -0.48424515128 -0.3815369904
-2.0434074402 -0.79446417093 -0.80367821455
-2.0324046612 -0.81522983313 -1.2593029737
-1.8776313066 -1.3374259472 -1.0859056711
-2.1433465481 -0.63420629501 -1.1256297827
-2.3162581921 -0.41395735741 -1.4069466591
-2.1424791813 -0.49863800406 -1.8794283867
-1.8333142996 -0.92535954714 -1.7523362637
-1.6536866426 -1.3962985277 -1.7414186001
-1.996588707 -0.24612699449 -2.3005449772
-1.8575565815 -0.67284846306 -1.9669995308
-1.6698454618 -0.39145153761 -2.4473171234
-1.8986809254 0.17412643135 -2.5197987556
-1.484798193 0.098290890455 -2.7487957478
-2.0023450851 0.62840431929 -2.4352104664
-1.5202270746 0.35576483607 -2.7559974194
-1.6244571209 0.79509288073 -2.6565635204
-1.3197425604 0.98096132278 -3.0469510555
-1.2338098288 0.37906065583 -3.1161644459
-2.0205862522 1.0291600227 -2.1724581718
-1.6102428436 1.2034459114 -2.4292843342
-1.3100862503 1.5308951139 -2.720181942
-1.665121913 1.4460517168 -2.1177885532
-1.1179172993 2.0563750267 -2.1894295216
-1.4687000513 1.8268768787 -1.7528164387
-1.3980360031 2.1074097157 -1.3972500563
-1.6547110081 2.0377459526 -1.0696163177
-1.3269808292 2.5935406685 -1.1566256285
-0.84251558781 2.971788168 -1.301697731
-1.0914045572 2.3194282055 -1.5957547426
-0.62339025736 2.6272501945 -1.8034046888
-0.54291260242 2.5199217796 -2.3483459949
0.033338401467 3.5594792366 -0.61349648237
0.28958165646 3.0225510597 -1.3154498339
-0.7376229763 3.3425719738 -0.99922573566
0.45432135463 3.1522386074 -0.89064234495
-0.432002455 2.9469020367 -1.5306750536
-0.16825631261 2.9388213158 -1.986207366
0.34632688761 3.015481472 -1.9725105762
0.0063519044779 3.1121098995 -2.5231189728
0.46416094899 3.1682202816 -2.4387891293
-0.034177761525 3.3364021778 -2.9835867882
0.6718095541 3.3879647255 -2.7095010281
0.84573352337 2.8997378349 -0.6542519927
0.60431683064 2.8344795704 -1.3108577728
1.0052763224 2.5494480133 -1.1683182716
0.86604011059 2.691208601 -1.8362796307
1.3024128675 2.4225254059 -1.5685548782
1.1576381922 2.2731289864 -0.71890795231
1.0295050144 2.5891199112 -0.27289101481
1.5251934528 2.0605289936 -1.2253383398
1.2252874374 2.1819097996 -0.20126821101
1.1498903036 2.4316020012 0.32010355592
0.94429922104 2.8036530018 0.19633042812
1.5284956694 1.9331259727 0.086164236069
1.4533174038 2.1360230446 0.58820599318
0.75321650505 2.8335306644 0.66143202782
0.99194723368 2.4216892719 0.78859353065
1.231134057 2.1933410168 1.0359063148
0.41308122873 2.8060102463 1.2967129946
0.75501132011 2.5489768982 1.1061674356
0.40584406257 3.0889513493 0.85322254896
0.83436566591 2.4420378208 1.675976634
0.49168667197 2.6990318298 1.8310005665
0.74539089203 2.7002546787 2.2703504562
1.1498222351 2.3904249668 2.0921907425
0.031710594893 3.4341828823 0.70063048601
0.10758017004 3.0714054108 1.2256560326
-0.21103848517 3.3606183529 1.1270180941
-0.29487463832 3.3930559158 1.4991899729
0.056590951979 3.0668582916 1.6360496283
-0.038955997676 3.2649657726 2.05590868
-0.407235533 3.608877182 1.9540190697
-0.71158182621 3.4951550961 0.88259923458
-0.46525102854 3.6315228939 0.38235235214
-0.70901119709 3.5331640244 1.3324590921
-0.99084156752 3.7432105541 1.6766387224
-1.0572623014 3.4836683273 0.31939274073
-1.1654424667 3.3820869923 0.78056502342
-1.2454338074 3.4402093887 1.1746792793
-1.4754055738 3.6333148479 1.5879176855
-1.5339667797 3.1000342369 0.71127724648
-1.6127817631 3.1778879166 1.1235127449
-0.06348605454 3.4109838009 2.5047900677
0.28068512678 2.9346458912 2.2017819881
0.28331109881 3.0608110428 2.6490328312
0.72945159674 2.8545131683 2.7739489079
-0.1558201015 3.4264085293 2.9653384686
0.20586764812 3.0634727478 3.1060726643
0.64925563335 2.8537089825 3.2877368927
-0.099875576794 3.0496160984 3.458334446
-0.43178722262 3.3958206177 3.3291306496
0.29849717021 2.8361597061 3.6856989861
-0.66731315851 3.1914885044 3.6512079239
-0.29220336676 2.842448473 3.769200325
-0.037457808852 2.6302587986 4.0395956039
-1.1219513416 2.7469050884 4.0463314056
-0.62689715624 2.7959868908 3.9025332928
-1.1290168762 3.1941578388 3.7527542114
-1.6078845263 2.8322355747 3.9071397781
-1.5950353146 3.1864106655 3.6824450493
-2.0299842358 2.8920209408 3.616353035
-1.9814733267 3.1484823227 3.4991438389
-2.2732605934 3.111294508 3.1923296452
-2.3735282421 2.8391623497 3.2642006874
-2.469111681 3.0475327969 2.7940037251
-2.6294310093 2.6868655682 2.8476014137
-0.79691976309 2.3760559559 4.2741179466
-0.25271332264 2.1674537659 4.4403567314
-0.9656586647 1.8599010706 4.4647464752
-0.39787372947 1.6092942953 4.6465640068
-1.3189258575 2.2413036823 4.3521995544
-1.4319773912 1.6080392599 4.6069574356
-1.7233921289 1.9794037342 4.4887919426
-1.722237587 2.4994709492 4.1264028549
[...]
CELL_DATA 1664
SCALARS cell_data_0 double
LOOKUP_TABLE default
8.55711727783e-09
1.10309926268e-08
1.79819259864e-08
1.17774580599e-08
1.05711199281e-08
1.87227695163e-08
9.73749890973e-09
1.24970091312e-08
2.8591532764e-08
2.03089662155e-08
3.20840550638e-08
8.18192817671e-10
1.39815175987e-08
8.0039493959e-09
2.27497312361e-08
1.39084927514e-08
1.29724117834e-08
1.409048075e-08
1.32375458245e-08
2.93878058571e-08
2.85580920489e-09
4.60696065705e-08
4.38086421018e-08
2.38438481421e-08
1.80601390055e-08
3.53572911289e-09
2.82697806911e-08
2.22292015772e-08
4.62736084653e-08
5.70825462723e-08
2.04093741208e-08
3.42391037904e-08
6.68410041056e-08
3.24776881889e-09
5.52911167416e-08
3.17008343491e-08
5.75662601489e-10
2.41051920968e-09
1.61285543318e-08
2.23683994654e-08
8.37402645183e-09
8.60635153719e-10
2.75655368697e-08
3.42992333763e-08
4.59706986745e-08
2.21327919655e-08
2.09190092037e-09
3.74961914294e-09
1.70380695805e-09
8.07191587562e-09
2.23026726093e-09
2.56643936487e-08
3.46439783252e-09
1.18334992485e-08
1.41967676907e-08
1.34579021709e-08
6.21945088631e-09
2.55797745342e-09
1.52585118918e-09
1.37140210157e-09
4.3768785653e-09
3.24401365725e-09
1.8755398039e-09
3.73745498743e-09
4.14028051119e-09
7.20542449064e-09
5.06761851009e-09
7.87580548535e-09
1.0668692373e-08
2.40715603056e-09
1.48363539643e-09
1.24548385483e-08
9.84282932031e-09
5.41886947903e-09
3.59289322597e-09
4.76753131446e-09
2.41909588198e-08
1.46212785689e-08
4.52725095099e-10
1.70762021046e-08
7.38350717833e-09
4.2448240061e-09
3.34187859738e-09
1.35574966822e-09
3.01971628708e-09
5.16574684953e-09
5.80543214434e-09
7.03186704524e-09
2.05579912373e-09
2.58864705467e-09
1.65112970093e-08
1.32319252665e-08
5.60723763146e-09
9.4695111201e-09
2.83977632363e-08
1.92574455228e-08
1.27533796668e-07
1.66178156479e-08
6.49578916733e-07
2.35188760114e-07
3.23464185303e-07
2.77284759358e-08
3.94366814078e-07
3.30045493129e-07
2.60562458491e-09
2.72393313255e-08
9.03070197268e-08
3.92479877187e-08
5.5831879096e-08
1.10060398591e-07
4.49319378776e-08
3.42940786473e-08
2.94247437071e-09
1.28424324369e-08
4.29594452192e-08
1.30844762211e-08
5.11263452547e-08
2.32502780441e-08
1.74311952844e-08
1.21806281569e-09
2.97668133131e-08
1.48835892703e-08
1.57061568061e-08
3.10369922364e-08
4.37454879366e-08
2.59185437252e-08
3.07832357068e-08
1.0629641959e-08
5.63794975976e-08
1.48388554563e-08
9.57517380094e-09
3.07764713966e-10
5.8508600615e-09
4.92566603211e-09
1.27789261276e-08
4.62011974125e-09
2.09436640434e-08
8.15812082302e-09
2.07893168453e-08
1.33874812037e-08
1.49715554483e-08
4.87453860427e-08
1.41364122349e-08
3.21926929039e-08
3.34815008704e-08
2.06267938976e-08
7.54845753986e-09
5.33839650127e-08
3.78449096401e-09
4.11402238491e-08
4.50447177625e-10
1.55916364743e-08
7.28725493119e-08
1.05915865294e-07
3.47863006702e-08
6.28735084928e-08
4.13800218033e-08
3.47617609033e-08
8.23381012865e-08
2.89539141009e-08
2.11672668818e-08
4.33123466118e-08
2.24401185804e-08
2.35456466929e-08
6.0906714889e-08
1.0912101374e-07
1.43327995504e-07
2.69432354303e-07
3.05641026744e-09
5.12768461621e-08
2.31523916537e-07
3.30473183965e-08
1.65416705807e-07
2.81967337831e-09
4.25524211081e-07
6.2926950084e-07
4.97221022537e-08
1.37349859528e-08
2.07322803493e-07
1.4265000358e-07
6.06207530847e-08
2.66818685054e-08
9.15065872295e-09
1.22445286705e-07
2.15169919154e-09
1.7952451054e-08
1.46781802248e-08
1.87840322893e-08
1.31823091687e-09
2.47628081705e-08
1.79162535842e-09
2.17642746856e-09
1.03805601404e-08
6.60853132928e-09
6.28989937369e-09
4.57440631197e-09
3.42905377886e-08
4.20878549684e-08
9.88001648944e-09
1.73070230354e-08
2.26895052071e-09
7.01142778625e-09
4.34898628385e-09
1.31260469513e-08
1.45262612297e-08
5.77531696229e-09
1.75772175067e-09
4.34385205599e-09
1.90532626959e-09
5.61286432231e-09
3.86694644555e-09
4.55243481399e-09
3.90922264965e-09
5.89526954826e-09
6.53654180352e-09
4.42689191811e-09
5.95887140337e-09
2.21880406664e-09
2.7295581856e-09
1.23535416442e-09
9.10960843786e-09
6.5761094597e-10
2.17762024955e-09
1.9364983653e-08
2.1171359949e-08
1.23853775594e-08
2.78241863056e-09
1.94590277106e-08
2.78581685935e-08
1.31470204967e-09
9.62953808076e-09
2.94814831623e-09
1.57167662241e-07
1.23455564212e-08
1.26865853843e-09
8.25688421345e-09
2.7291768247e-09
3.89682372249e-08
3.20150306943e-09
6.39816019568e-09
1.57469258473e-10
3.01419781022e-10
2.13120352523e-09
1.66239567427e-09
6.70965422276e-10
3.98704970106e-09
9.17717450723e-10
4.92011722725e-09
3.9569828509e-09
2.74209988027e-09
1.67992503209e-08
3.04963058193e-08
5.5568290041e-09
2.49307386133e-08
1.06758757986e-08
1.64307370501e-09
1.77771013321e-10
1.07747097815e-09
4.41075440671e-09
1.0012717072e-09
5.21678326256e-09
1.23658994103e-09
6.55585563729e-10
2.88593368524e-09
1.73928138878e-09
2.42449486238e-09
4.23351052096e-09
3.66739333008e-09
2.59255576127e-08
1.36626224612e-08
5.45803954561e-09
3.96587527397e-09
2.02624739207e-09
1.33851856812e-09
2.59352052351e-09
5.58314337972e-09
6.1568241917e-09
1.93454640498e-09
1.54804102565e-08
3.88159717556e-09
2.16186125307e-08
2.2855698702e-09
9.44842396856e-09
1.73475756768e-08
1.70930484177e-08
1.20441280951e-08
6.30529004259e-08
3.22194736394e-08
1.11088169744e-08
2.43455367768e-08
1.2336134692e-08
2.65071351091e-08
4.49704447224e-08
1.55579152475e-08
4.43795050915e-08
5.03723686117e-08
8.16822253151e-08
4.75501439763e-08
1.19835512423e-07
3.03056004317e-07
2.27442293229e-08
6.55481719279e-09
1.78866360977e-09
1.11423877389e-08
2.46511016685e-09
2.49227413993e-08
1.77347029183e-08
1.41070196722e-08
4.00298203231e-09
2.11437737351e-08
8.29252655297e-09
6.21549506317e-08
1.92796798335e-08
4.18767971272e-08
7.41354585744e-08
1.54333044073e-07
4.22782349243e-08
1.01821222937e-07
6.86913043173e-07
1.21618549923e-07
1.39421113341e-07
6.40955015642e-08
2.89973478451e-08
3.84116586211e-07
2.29752386048e-07
1.7054309657e-08
4.03866830711e-08
1.08630165978e-07
4.07880377168e-08
2.93893842793e-07
8.82654544392e-08
8.77821451159e-09
1.20998928172e-09
1.08621480091e-07
2.06038517548e-08
6.87607167264e-09
1.57806807364e-08
4.66029320901e-09
5.34138493304e-08
6.19934017449e-08
1.78255800245e-08
4.21526496036e-08
5.46264679711e-08
1.14628509377e-07
1.71799820054e-07
1.39877936658e-07
3.60908204675e-08
4.84303235673e-08
5.00611984016e-08
1.05207173388e-08
3.33903021018e-08
1.31762578144e-08
1.55928129941e-07
1.26475134498e-07
1.99891747379e-08
4.21448987338e-08
8.95116021274e-09
7.42707389678e-09
2.49323854596e-08
2.90108754359e-09
1.18548116084e-08
1.73746663239e-08
2.82222471544e-08
1.13028681322e-08
2.46686244615e-08
2.0810816478e-08
4.63632238282e-08
2.05263215841e-08
5.77732732235e-08
2.93423013235e-08
3.29703675133e-07
1.14859211739e-07
2.96456829764e-08
8.33529090075e-08
6.95564782537e-09
1.69063115127e-08
1.34434435414e-08
3.61824924751e-08
9.3457795909e-09
1.88031900735e-08
1.25726371781e-07
1.94177988333e-08
1.43579753031e-08
1.84817114964e-08
3.66912582541e-08
7.02398396427e-08
1.92685819504e-07
7.74148673408e-08
7.42275132509e-08
4.925299888e-08
8.95995801724e-08
3.36783919461e-08
1.53865283246e-09
6.32586238925e-08
1.96250862208e-10
9.81109863553e-08
2.06045751286e-08
9.79529563673e-08
2.30125789556e-08
3.53457307873e-08
6.67511139422e-09
1.69122017869e-08
2.17149925023e-09
4.48564209374e-08
2.35037849128e-08
7.57873878427e-08
7.17841966029e-09
3.73539296525e-08
3.65679874638e-08
3.51415940084e-09
4.526780076e-08
8.7824606161e-08
2.95368986817e-08
6.0964831272e-08
7.4470844371e-08
5.2410098923e-08
1.21190102471e-08
3.18276763071e-08
4.27513538738e-08
1.25078560752e-08
6.09724200032e-09
3.47146451076e-08
1.59924933801e-09
6.59574896635e-08
5.67900607647e-09
6.32181371259e-09
1.03972087458e-08
3.27272507381e-09
7.46011071606e-08
8.61040963853e-08
2.42950718227e-07
1.00939542098e-08
3.63879573003e-07
1.95190912467e-07
7.1206101407e-07
4.77343010252e-07
9.78658965149e-07
1.21862297109e-06
2.55928351732e-07
4.73233484157e-07
3.98185579493e-07
1.00108365448e-06
1.62910431071e-07
3.32087284561e-07
4.02892998528e-07
2.08349351384e-07
6.45967733424e-07
4.14559391307e-07
1.68948714486e-06
1.07856990947e-06
3.70598468406e-07
2.72771949013e-07
4.03686343691e-08
1.79219293195e-07
4.25098035218e-07
6.82193331961e-07
1.20014990721e-06
1.90027104352e-07
9.37578380289e-08
1.01167131001e-07
1.70669506489e-07
3.45351512364e-08
4.39649530333e-08
2.96931681287e-08
5.96228632939e-10
2.49414513583e-08
1.5294412387e-08
3.17768906874e-08
2.69968365564e-08
3.77279667357e-08
5.27232135213e-08
1.15294272403e-08
1.57420142033e-08
6.60336540619e-10
1.46352016606e-08
1.12704360689e-08
2.42743517189e-08
2.39422610435e-08
9.16008055483e-08
7.65723483235e-10
1.49800167691e-07
5.44113701991e-07
1.93385160508e-08
1.07529613868e-06
1.64799384594e-07
2.13791440698e-07
2.70205624298e-07
8.20046173972e-08
5.97236191326e-07
1.05152564792e-08
4.40902660117e-07
2.26376356754e-07
9.30012693349e-07
5.47767100199e-07
2.69535990347e-07
7.65154836368e-07
3.9040920926e-07
2.12693075165e-07
9.43009575364e-08
4.58895374138e-08
9.31659351681e-08
8.39230099196e-08
5.24732349382e-07
9.48718702924e-08
7.39508383426e-07
1.67272038808e-07
2.84517068233e-07
2.43746396869e-08
2.31687221476e-07
5.17669612532e-09
3.92403412036e-08
6.3645166129e-09
1.08564623429e-08
7.15260442592e-09
1.71043823251e-08
1.67257202329e-08
2.40737981869e-08
1.03173855338e-08
1.61374478947e-08
1.29222876528e-08
1.40817009293e-09
8.1006308324e-09
3.68884161276e-08
1.49674250456e-08
7.3020458071e-08
1.65983488047e-08
9.88643294409e-09
9.67965969616e-09
2.89125024411e-08
1.44643508481e-08
1.6348472606e-08
2.58367473083e-08
3.18593541405e-08
2.54375723928e-09
4.38020452962e-08
2.26555772278e-08
7.35720230767e-10
2.14136386465e-08
9.30386119156e-09
8.46443529947e-08
6.1670858322e-08
9.37215540983e-08
1.96174829587e-07
7.22407511702e-09
1.64182407957e-08
5.61021125266e-08
1.79278667754e-07
5.43618046874e-08
2.20540938226e-08
5.72187874783e-08
3.36223853936e-08
1.26154197078e-07
3.02567030063e-07
3.0007750846e-08
2.57514747306e-07
2.03646201798e-07
4.16210216081e-08
1.70959345264e-08
1.85097457983e-09
1.18229970256e-08
7.15959452708e-08
1.49949901562e-08
1.99117752315e-08
2.96220916412e-08
3.53837127951e-08
1.71853389576e-08
1.47763730558e-09
9.52499305527e-09
1.90721639891e-08
1.35934522256e-08
7.9951638203e-09
5.57659872999e-09
7.42475597834e-09
7.79014073789e-09
7.6205723688e-09
4.11344145267e-09
3.99530779201e-10
2.66088353252e-08
1.29102444574e-08
7.33530575862e-09
2.50537310468e-09
5.19364685103e-09
7.64166498803e-10
3.3490688706e-09
1.9117148484e-08
2.14628350716e-08
1.20157520378e-08
3.18952203311e-08
3.0010587455e-08
1.53320873494e-08
1.46289518139e-08
1.49342395543e-08
1.37464936892e-08
4.39990470489e-08
2.9316848625e-08
8.53196331274e-08
8.05055574225e-10
4.20820595677e-09
2.30982850265e-09
1.17830144259e-08
2.94163250303e-09
1.25769541122e-08
2.05135579666e-09
3.31905929086e-09
1.03382803001e-08
6.19433773525e-09
4.72798804338e-09
3.56150491755e-09
6.45936625749e-09
5.92188287468e-09
5.14178392782e-09
1.09939173776e-09
4.72465589928e-09
1.8224787193e-08
2.42014653785e-09
7.30413804486e-09
3.31986195263e-09
8.68234981087e-09
4.89912850737e-10
9.76293054239e-09
1.06556436969e-08
1.74806925397e-08
1.20416665018e-08
5.47722758994e-08
5.54732478459e-08
2.67494377774e-07
4.76164135959e-07
3.49119408553e-07
3.23378966766e-08
7.23054191997e-10
5.46424333978e-08
3.97816371456e-08
4.1956221439e-08
4.02009315037e-08
3.24033979848e-08
8.94819319379e-09
2.31078353907e-08
6.92101773507e-09
3.31302159923e-09
4.5986182816e-09
4.73337989502e-08
3.34266097529e-08
4.51024776765e-08
7.62002783256e-08
1.34093358427e-08
1.25627499156e-08
7.6408927412e-08
3.58064844985e-08
5.0447776475e-08
1.18685966383e-07
4.86247188948e-08
3.63956960191e-08
1.91969426973e-07
3.57704082922e-07
4.69492273284e-08
8.92940139794e-08
5.75681119429e-08
8.70269980459e-07
5.01265126632e-07
2.37723302612e-08
1.96793628918e-07
8.51834215617e-08
3.31912478093e-08
3.66237173001e-08
4.76834945419e-08
6.04321998992e-08
6.53722952231e-09
4.45051446188e-08
2.81702261004e-09
5.80425110903e-09
4.23445037249e-08
1.58209174038e-08
5.23532034984e-09
1.99092157766e-08
2.43292216363e-09
4.08522763882e-10
9.41061328933e-11
8.61753129541e-09
5.87218274823e-09
7.82193740592e-09
2.9022175484e-09
5.14212442931e-09
1.01932232139e-08
3.81841321003e-09
1.34134348358e-08
8.31931495613e-10
2.78694770294e-09
1.84330358363e-08
3.48312696619e-09
1.93477636331e-09
4.00862855855e-09
7.51710486383e-09
5.08096188475e-09
2.24757854556e-09
4.88119516602e-09
1.05651381483e-08
3.71743892045e-08
5.34975487454e-08
4.55550218733e-08
2.01732734917e-08
1.63422637677e-08
1.65394651293e-07
6.69324991978e-08
2.46292783722e-08
7.13575536861e-09
3.67392364208e-08
7.6719112701e-09
1.06093316379e-08
6.8761280934e-09
3.14182011728e-08
9.89079270237e-08
1.50002280076e-07
6.79400459456e-08
3.08246850122e-08
2.34805996602e-08
6.28735987181e-08
1.74134897217e-08
4.3972970541e-08
6.63852732646e-08
1.40833385796e-07
8.15778110755e-09
5.63264238853e-09
2.80096967225e-08
6.24007072819e-08
2.67314207652e-08
2.09906110929e-08
3.47874338635e-08
5.44796863714e-08
4.52326188915e-07
1.69528671243e-09
7.36534664701e-08
1.76914060708e-07
8.1851117264e-07
1.46424513402e-06
3.01158021602e-07
7.62063614122e-07
1.42590212125e-06
1.72127427708e-07
1.73887677192e-07
8.1266536323e-08
1.41770917852e-07
8.58017100699e-09
6.53348322249e-08
2.23785206819e-10
1.09228930854e-10
3.62913813893e-08
3.40330520264e-07
1.89060326547e-07
3.72270963705e-07
2.68988659549e-07
2.64007618424e-08
1.1346064908e-08
1.66788622537e-08
1.09396949107e-07
7.16639108241e-10
8.51975610854e-09
9.1321682309e-09
2.20452019304e-08
1.96710307032e-09
3.43369907303e-10
4.16949612778e-09
1.31343091099e-09
9.62624634118e-10
1.26859134814e-09
7.83862921008e-10
5.29429669778e-10
2.16422025651e-09
2.70808501236e-10
4.63775948084e-10
1.60266648889e-09
2.42627809797e-09
4.16116870999e-10
4.73003877674e-09
5.11355735102e-10
6.01859354506e-09
3.42621798204e-09
1.48832885146e-09
2.4316268354e-09
9.83755755304e-10
3.86298644768e-09
8.1135193287e-10
1.20170636041e-09
1.50891195374e-10
5.07574686196e-10
4.75837807416e-09
4.38930989418e-09
2.40581873738e-10
3.77594820154e-09
5.56593077164e-09
2.13097612683e-09
3.99584930334e-09
1.08634125061e-08
2.663261086e-10
7.42554686541e-10
1.66739510113e-09
1.07821656029e-08
4.37799467698e-09
7.84484059009e-09
1.23169482891e-09
1.06478317479e-09
5.15978380186e-10
8.83647596546e-09
9.06039657998e-09
1.98924032929e-09
1.79358220952e-08
2.5305210586e-09
1.99799055559e-09
1.31196162311e-08
1.08829977906e-08
1.35068901075e-08
9.93500697681e-09
1.22200234585e-08
6.20672189024e-09
7.86809206394e-09
4.8235897639e-09
1.84214188772e-09
9.40180380193e-09
6.52382994232e-09
1.12523685152e-09
1.28104758246e-08
2.78180851585e-09
3.44087391091e-09
8.51603058234e-09
7.73729750205e-09
8.88830696417e-09
3.50205053759e-08
2.70178683531e-08
1.38538606687e-08
9.04433369579e-09
1.68263778484e-08
1.09781086384e-08
8.85645084948e-09
2.13492267928e-08
2.0523140888e-08
1.86978418603e-09
8.35678921318e-09
2.48209925945e-08
9.37462483824e-10
3.59380462946e-08
3.19787915696e-08
3.58678612364e-09
5.43755017014e-09
9.99817611646e-09
3.61729684657e-08
2.19349913973e-08
5.36631716012e-08
5.45549071985e-09
8.47643101361e-09
2.600629474e-08
2.50303883383e-08
8.30833622889e-08
3.7858095853e-08
5.42678557903e-08
5.72729865356e-08
8.43349576132e-08
1.78792046148e-08
3.35270036551e-08
1.46083436805e-08
2.86668394951e-08
5.90039196213e-08
1.53139325582e-08
8.92572138008e-09
3.75305709417e-09
5.82786014714e-09
9.45694608438e-10
9.74013661025e-10
1.17631776682e-10
1.08369792092e-09
2.44380757038e-09
3.18020653769e-09
4.55203422921e-09
6.51766518038e-10
1.52856681627e-09
3.02255549834e-09
8.38965887378e-09
2.75146354637e-09
3.99608392253e-09
7.01345764469e-09
1.05339498935e-08
4.69160618233e-09
8.3799660458e-10
2.9316100212e-09
3.46050563297e-09
7.9056484588e-09
3.0103971357e-09
1.46774785324e-08
2.16552468306e-09
6.06529216154e-09
9.44153641902e-09
3.85527506904e-08
1.23157591208e-08
4.81960505699e-10
2.50404983345e-09
1.96619975585e-07
2.09088323756e-08
1.22344770927e-08
5.33300422846e-08
3.78325402125e-09
3.92006370122e-08
4.07022644209e-09
1.20935027709e-08
3.65254549012e-09
8.0392147469e-10
6.75442135016e-10
4.87922109715e-09
5.8678159329e-09
7.74539029998e-10
8.98273275923e-10
2.72754263972e-11
3.2102747031e-10
4.29338530903e-09
5.27641515386e-10
6.84195256122e-10
2.11780110186e-11
1.26211534403e-09
1.53536170916e-09
4.6404568289e-10
1.29359899271e-09
1.24005370941e-09
6.59374424381e-11
1.58312732318e-09
1.45394116584e-09
4.14240921622e-09
5.9493952651e-10
1.19157353138e-08
2.033782971e-10
2.23709611826e-09
3.91391050857e-09
2.02239229027e-09
1.65362827913e-09
1.94204083965e-09
2.42299575634e-09
2.14460128502e-09
2.36603206122e-09
1.0807271493e-09
2.46754399947e-09
5.96248194828e-09
2.51082525931e-09
6.1746748646e-09
1.2836529998e-09
1.49254173289e-08
5.00460471171e-09
1.50071075336e-09
9.31874195288e-09
1.42535923701e-09
6.10106129177e-09
1.16218218299e-08
5.17581662758e-09
1.19669960916e-08
1.52367010592e-08
3.19393112468e-09
1.56233816474e-09
8.33380221047e-10
3.82666573892e-09
2.79819986407e-09
6.06863910433e-10
4.96582852797e-09
4.1159679854e-11
4.50473669613e-09
7.28564993466e-09
1.04383076226e-08
1.32405106442e-08
3.43428121986e-10
4.94649675227e-10
9.50868913134e-10
4.41640324155e-09
2.30268896278e-09
1.08967330105e-09
2.87407383113e-09
1.16598863977e-09
8.10212162149e-10
4.96673636111e-10
2.28850170787e-10
3.4324463957e-09
1.52402196555e-09
2.58690521694e-09
3.63432547439e-09
2.79099388727e-09
5.38080256307e-09
9.51271559503e-10
3.84683550758e-09
9.64715232793e-10
7.32697464929e-10
2.01949125641e-09
5.50965496832e-09
4.61184682245e-09
6.76880998699e-10
1.43857763676e-08
2.18364084487e-08
1.04231695737e-10
3.26087806962e-08
8.66532745283e-09
6.52744710708e-09
3.54299519077e-09
6.71356419114e-09
2.55866008453e-09
5.28639436367e-09
3.8607853381e-09
1.81936546221e-09
1.05301566329e-09
1.79956660489e-09
1.95300433772e-09
2.90333108481e-09
2.87260291663e-09
1.6837721783e-09
5.44643757049e-09
3.91255108116e-09
8.2940012916e-09
4.25976895208e-09
9.96595394413e-11
1.88354570415e-08
8.30917646843e-08
2.71589762037e-08
1.17045425777e-07
1.40604197834e-08
4.85595947106e-08
1.18190452395e-08
1.07417607987e-07
3.44901590843e-08
3.88221650273e-07
2.19759227886e-07
9.11092105048e-08
4.90272077798e-07
4.44012710498e-07
1.15577710969e-07
1.67585269804e-07
1.58336392321e-08
6.04175011326e-08
2.6401905107e-09
1.71301937808e-08
5.41417574928e-09
6.1784427157e-08
3.23129839498e-08
1.34264671876e-07
1.22941122831e-07
8.58955880347e-08
2.63933712742e-07
1.62839235466e-07
2.05449865563e-07
1.47595923e-07
9.851461981e-08
8.31147545344e-08
1.38040249875e-08
2.39735482241e-09
5.93166181331e-09
1.93414188175e-09
5.99540760385e-10
3.40206431421e-08
2.47159204152e-08
5.34167751602e-08
6.07198359537e-08
1.33361966065e-08
7.39972456002e-08
2.97375161443e-08
4.96763600203e-08
2.09806994088e-08
1.88597994078e-08
9.60279561365e-10
1.12284749816e-09
2.05177942661e-09
1.21572168188e-08
6.41651476426e-09
8.90134399571e-09
1.07465161223e-08
1.4615953275e-08
1.73933909373e-08
7.07922789592e-09
6.56070552483e-09
5.66206407621e-09
3.73904523154e-08
1.05043975352e-08
4.45201254623e-09
1.62510672056e-08
2.79924382151e-08
8.54069284276e-09
1.75672072438e-07
1.02080719681e-08
2.02651913668e-07
4.47694420643e-08
7.99444721624e-08
1.70953435559e-08
3.52379120225e-08
1.82658698804e-08
2.2344333241e-08
1.74012501292e-10
1.81311167028e-08
3.8201348821e-08
4.11326087374e-08
7.11573620937e-08
4.67862829868e-08
5.1555676309e-08
1.09308810736e-07
2.98139130397e-07
2.57034720769e-08
1.21597620718e-07
4.20532833464e-07
5.13727900848e-07
5.3088917745e-07
3.14649330801e-07
2.3512417661e-07
1.10660974733e-07
5.18074113489e-08
3.54833653945e-08
1.2822487779e-08
1.52154301725e-08
4.6050488035e-09
7.08458968872e-09
7.12982322449e-09
4.8707616372e-09
2.29676248575e-08
2.15741629801e-08
5.2634339239e-08
3.57593881305e-08