# vtk DataFile Version 3.0
File Name: Molecule/arg/arg_2.0-0.vtk
ASCII
DATASET UNSTRUCTURED_GRID
FIELD FieldData 1
TIME 1 1 double
0.0
POINTS 314 double
-2.9491958618 -0.43516975641 1.7952409983
-3.3768882751 0.2488771826 1.5396517515
-2.9873483181 -0.62875252962 1.0019923449
-3.3745379448 0.0024852268398 0.77830541134
-2.8897349834 -0.14591707289 0.16832005978
-2.6308822632 -0.48392105103 0.14382624626
-2.5964355469 0.046562083066 -0.49656873941
-2.2122554779 -0.44135943055 -0.9313249588
-2.3416438103 -0.36185753345 -0.60244727135
-2.4462022781 -0.19932556152 -1.0748056173
-3.0029428005 0.10744063556 0.0085541047156
-2.7825360298 0.67970108986 -0.85153222084
-3.2666990757 0.8995320797 -0.34896624088
-2.6099421978 0.44634371996 -1.526222229
-2.8314516544 1.7040445805 -0.43226203322
-2.4108474255 1.3395860195 -0.94910407066
-2.2516646385 1.1463109255 -1.5686146021
-2.5234277248 2.019146204 -0.46742102504
-1.8653212786 1.7543774843 -1.2109389305
-1.5554196835 3.1432003975 0.28254309297
-1.7007365227 2.4711840153 -0.70238566399
-2.4638369083 2.661593914 0.61400878429
-3.1358690262 2.3470776081 1.4987365007
-1.9272173643 3.2825596333 1.4778300524
-2.5413653851 2.9680876732 2.2677035332
-3.4260442257 1.7792268991 1.7917100191
-2.7602448463 2.5040261745 2.3192527294
-2.9605579376 2.0636622906 2.6280851364
-3.409150362 0.62295389175 1.8392292261
-3.1332194805 1.7337883711 2.9615468979
-3.1343762875 0.65692549944 2.9583158493
-3.1083216667 0.37278467417 2.1031184196
-3.0944311619 0.080210164189 1.8799835443
-2.9077410698 0.1393622309 2.3921792507
-2.9534494877 0.29549273849 3.0577440262
-2.9012916088 -0.26825040579 2.1252555847
-2.521520853 -0.67862594128 2.4618935585
-2.5727055073 -0.091891355813 3.4207532406
-2.238493681 -1.4778653383 1.9399768114
-2.069167614 -1.0747884512 3.2927722931
-1.7537072897 -1.936199069 2.7667312622
-1.0057191849 -2.2442150116 2.0515861511
-1.5720825195 -1.7336645126 1.2766383886
-2.1798434258 -1.4734385014 0.73792272806
-1.0068073273 -2.191347599 0.40768486261
-1.6963460445 -1.862678051 -0.20971059799
-2.3774561882 -0.92258834839 0.19996626675
-1.988134861 -1.1717514992 -0.61404633522
-2.0801112652 -0.73148614168 -0.80666834116
-1.8785824776 -1.3224315643 -1.0820034742
-2.2805137634 -0.50789707899 -1.375475049
-2.1937584877 -0.55714738369 -1.0342191458
-1.6426250935 -1.3496938944 -1.7965042591
-1.8572992086 -0.72567021847 -1.9254056215
-2.1495037079 -0.47482022643 -1.8960822821
-1.9594836235 0.18048277497 -2.4441349506
-1.5551109314 0.12534798682 -2.6914327145
-2.0247793198 0.99643170834 -2.1706125736
-1.3274304867 1.4494889975 -2.7335791588
-1.6766198874 1.2939311266 -2.2687313557
-1.9123932123 1.4228105545 -1.6059656143
-1.0600166321 2.0439050198 -2.285425663
-1.49444139 1.8130078316 -1.732976079
-1.2572937012 2.5387170315 -1.3362461329
-0.5011934042 2.546533823 -2.3606374264
-0.74062645435 3.0225324631 -1.3234411478
-0.11811790615 2.9451286793 -2.1067326069
0.32087022066 3.0144076347 -1.8717908859
0.44215539098 3.1555905342 -0.90608769655
-0.03397615999 3.3416452408 -2.9856145382
0.61449247599 3.4280598164 -2.6451251507
1.0554578304 2.5704832077 -0.37917256355
0.82882398367 2.6941761971 -1.6307806969
1.5534077883 2.0110404491 -1.1839361191
0.8017988801 2.7832267284 0.51305067539
1.5325000286 1.9257792234 0.029846435413
1.2676621675 2.1521160603 1.0843155384
0.38115942478 3.107894659 0.90322744846
0.75626200438 2.484869957 1.2616827488
0.43899938464 2.7150752544 1.6493330002
1.1670273542 2.3707342148 2.0751252174
0.68091440201 2.7392640114 2.3291795254
-0.20689351857 3.5646178722 0.76149177551
-0.0038766236976 3.259237051 1.9939154387
-0.55353271961 3.6832633018 1.7915281057
-1.236169219 3.7147774696 1.5198626518
-0.87488365173 3.5563840866 0.36373791099
-0.15290294588 3.4248912334 2.9609043598
0.53753244877 2.9258332253 3.2434926033
-0.63318824768 3.1919734478 3.64473176
0.11181353778 2.5454804897 4.0803060532
-1.3503130674 3.2084369659 3.7190670967
-0.63563817739 2.7119596004 3.9546709061
-1.3985897303 2.8019661903 3.9791090488
-2.021916151 2.8566679955 3.6398096085
-1.9501826763 3.1619153023 3.4987142086
-2.3721477985 3.0962402821 2.9864926338
-2.5115091801 2.7593669891 3.0585303307
-0.55144637823 1.7242404222 4.5843033791
-1.0669267178 1.9231103659 4.4194898605
-1.4528058767 1.6055817604 4.6058287621
-1.9067171812 2.0563442707 4.4140310287
-1.5048019886 2.3998529911 4.2487158775
-2.4145450592 2.2502644062 4.0206136703
-2.147608757 2.5988771915 3.7907524109
-2.8377115726 2.1742992401 3.5053870678
-2.7056522369 2.4524028301 3.1696014404
-1.2979068756 1.0748226643 4.6985788345
-0.3322507143 1.0980734825 4.6929783821
-1.5432931185 0.52648365498 4.686814785
-0.33224251866 0.53268867731 4.8713412285
-0.54064077139 0.028472777456 4.836889267
-0.92242866755 -0.42603290081 4.7537255287
-1.782024622 -0.7234145999 4.294690609
-2.3128540516 0.17922478914 4.2549118996
-0.41500994563 -0.74968528748 5.054265976
-0.022168595344 -0.29195207357 5.1213736534
0.14337216318 -1.194262743 5.0793066025
0.51463419199 -0.64045250416 5.144920826
0.5319827795 -1.83023417 4.8527674675
1.0446118116 -0.82674121857 5.260494709
1.2928949594 -1.524821043 4.9986228943
0.87303364277 -2.2838685513 4.3221416473
1.6452372074 -1.986713171 4.4409060478
1.1101379395 -2.4654297829 3.5649514198
1.8865250349 -2.1398909092 3.7155909538
1.9010211229 -2.0064163208 2.9233384132
1.1080391407 -2.3287768364 2.785282135
1.0369179249 -1.8542853594 2.1496560574
1.9046192169 -1.4775595665 2.2896485329
0.11021569371 -2.4812762737 2.0614168644
0.75206327438 -1.687038064 1.2885020971
0.074746668339 -2.1620721817 1.1967257261
1.0314365625 -1.8357340097 0.35015827417
0.10154733807 -2.4517354965 0.37858310342
-0.7697865963 -1.9875422716 1.2158830166
1.4596176147 -1.1127942801 0.030932765454
1.0763731003 -1.3335003853 0.9604305625
1.369930625 -0.82465398312 0.83793240786
1.3451911211 -1.2512633801 1.7247829437
1.6694508791 -0.77779275179 1.5949050188
2.3405547142 -0.72287619114 1.9986046553
1.6721898317 -0.6147249341 -0.53983324766
1.6802227497 -0.1784760505 0.63227057457
1.8481081724 0.23297001421 0.066605329514
1.6837048531 -1.3718954325 -1.0092480183
2.1654863358 -0.19073370099 -1.3450998068
2.2016224861 -0.83984589577 -1.8201950788
1.4432091713 -1.7796549797 -1.6632926464
1.8359326124 -1.3717604876 -2.2760791779
0.83820086718 -2.0083949566 -2.150853157
1.3887138367 -1.4306176901 -2.9171280861
0.62278330326 -1.3823280334 -3.157191515
0.096733585 -1.8693743944 -2.4835348129
-0.40245780349 -1.3168344498 -2.7349505424
0.15363878012 -0.80059051514 -3.4208395481
-0.35291552544 -0.64567917585 -3.1540739536
-1.0550060272 -0.71131622791 -2.5976347923
-0.69376462698 -0.36447823048 -3.0955898762
-0.89083015919 -1.3366317749 -2.4133861065
-1.1336535215 0.42714118958 -3.2109591961
0.21921211481 -0.24734702706 -3.9643986225
-0.3494772017 -0.004471052438 -3.7203154564
0.024384569377 0.75065755844 -4.050994873
0.54687529802 0.45286378264 -4.2414059639
0.39099663496 1.3516937494 -4.4008851051
0.11819767952 2.0179626942 -4.12368536
-0.40268865228 1.9649300575 -3.5609078407
-0.0086667621508 2.9808769226 -3.6743385792
0.95015823841 2.1519637108 -4.0913748741
0.89904260635 3.0932695866 -3.6840958595
0.88538533449 3.339795351 -2.8927648067
1.6568148136 2.5027730465 -3.3192369938
1.6688508987 2.6797833443 -2.5225381851
1.1331957579 2.6196620464 -2.033633709
2.0700588226 1.7008498907 -1.9686586857
2.2231760025 2.1087684631 -2.5496981144
2.0159857273 1.0106270313 -1.3057740927
2.4467258453 1.214279294 -2.3065619469
2.3446469307 0.56553858519 -1.5629673004
1.8600972891 0.78678941727 -0.76095068455
1.9658834934 0.95674735308 0.027898218483
1.7976921797 0.13103725016 -0.77336043119
1.8610922098 1.3247970343 -3.7815623283
1.8878694773 2.1109325886 -3.4303431511
1.1921994686 1.6601573229 -4.1782708168
1.6121777296 0.4409711957 -4.3836951256
2.0706820488 0.64920610189 0.81376427412
1.8531022072 -0.25499156117 1.4261169434
2.1799221039 0.37726128101 1.6026371717
2.7154092789 0.14239798486 2.1349773407
1.9028903246 1.4094420671 1.2463241816
2.054787159 0.99704235792 1.9698268175
2.5230665207 0.97525805235 2.5717558861
1.7894637585 1.6299940348 2.2324826717
1.9583292007 1.848793149 3.0518565178
2.5653197765 1.3157052994 3.2988605499
2.2297484875 1.5145879984 3.9982683659
1.5955681801 2.0619311333 3.7511305809
1.3494582176 1.7210034132 4.4501948357
1.9153363705 1.197329402 4.7034707069
1.3166595697 0.81869953871 5.062936306
0.67809820175 1.4257832766 4.7694368362
0.61462748051 0.87660610676 4.933968544
1.1831248999 0.00034830532968 5.357260704
0.51888102293 0.17246522009 5.2105484009
-3.7347512245 1.9418002367 0.8664265275
-3.2103204727 2.2632923126 0.1781283319
-3.723184824 1.5513154268 0.1610378623
-3.7308785915 0.7700958848 0.20573818684
-3.7456204891 0.45216873288 0.87445342541
-3.9360668659 1.1878343821 0.89831131697
-2.8041143417 -1.062499404 1.4564484358
-2.3600082397 -0.0012577753514 -2.0899760723
0.39073577523 3.4971702099 -0.021030906588
-0.33362436295 3.6806268692 -0.24862590432
-1.1825408936 3.3237650394 -0.64955574274
-0.50776749849 3.8273837566 2.4903619289
-1.1740090847 4.0163536072 2.4362111092
-1.174616456 3.8250603676 3.1906614304
-1.875849247 3.8332979679 2.4514520168
-1.8938040733 3.6000647545 3.1910514832
-2.3445627689 3.365735054 2.4984395504
-1.9259498119 1.2353870869 4.7238726616
-2.5769197941 1.5931696892 4.4954862595
-2.5828619003 0.85237044096 4.4977221489
-3.0851914883 1.5758316517 3.9623117447
-3.1109130383 0.82152330875 3.9077889919
0.49091500044 -2.6769788265 4.012275219
-0.14471745491 -2.4419529438 4.5848035812
-0.1841442585 -2.8382582664 3.9794008732
0.51563334465 -2.8341915607 3.2900359631
-0.18030098081 -2.9729924202 3.2964336872
-0.16956098378 -2.8387601376 2.6362674236
0.53276264668 -2.6616652012 2.5623233318
-0.20279015601 -1.8578763008 4.9721317291
-0.86311888695 -1.5016150475 4.9522037506
-0.85404640436 -2.1965379715 4.6276073456
-0.883908391 -2.6580455303 4.0402116776
-0.87974971533 -2.8330693245 3.2985825539
[...]
CELL_DATA 624
SCALARS cell_data_0 double
LOOKUP_TABLE default
1.48102256083e-07
3.30761863955e-08
5.04458148537e-07
3.87070270277e-07
3.45539355818e-07
9.65506977029e-07
1.24530470736e-07
9.13617917838e-07
2.50539122306e-06
1.04823110829e-06
5.99949963284e-07
6.89478274442e-07
1.57161388451e-06
2.19374717331e-06
1.00910393136e-06
6.84820722824e-07
6.90358457015e-07
1.90826001505e-06
2.25292743101e-07
6.90389325504e-08
8.48673329001e-08
2.81527205467e-07
1.01096891342e-06
7.91470499778e-07
5.31846435797e-07
3.75606317007e-07
2.65289955112e-07
1.85023768876e-06
5.75017567382e-07
3.06738164907e-07
5.42033457503e-07
9.36042372428e-06
3.00109107952e-06
9.70853863391e-06
2.88738467332e-06
1.2149179299e-05
6.45451835614e-06
6.30733760851e-07
9.84506637229e-07
5.30944028276e-08
2.27517666708e-07
1.31795134874e-07
6.36583212328e-07
2.34230197162e-06
4.28863984588e-07
2.37018541652e-08
2.00546905182e-06
4.15560036359e-06
3.27305646745e-06
8.34029724203e-07
4.25788066663e-06
1.17693579136e-05
3.58179036343e-06
2.23324429668e-06
1.18374965199e-05
4.1008070608e-06
2.91476554276e-06
4.25441546936e-07
1.12547469637e-05
1.23296891699e-05
2.9885715746e-05
3.08047126282e-05
0.000215366031307
4.26490397889e-05
2.03362120966e-06
4.3524668889e-06
4.17806840922e-06
3.46575952352e-06
1.07780349159e-07
5.9552005974e-07
1.18316920939e-06
3.83824685453e-06
1.73012404187e-07
1.00423100388e-06
1.81070842364e-07
1.4335764393e-06
2.78275536976e-06
2.40251698219e-07
4.36399157164e-07
5.04660007439e-06
4.23310987872e-06
6.9068358052e-07
1.06760509641e-06
3.83112652706e-07
2.12363616954e-07
2.48532710296e-07
1.96779043303e-08
1.08339009157e-07
6.20627830267e-07
1.29765374129e-07
2.70512523778e-06
6.56236894806e-07
5.29437941673e-08
1.79136451819e-07
4.95726633688e-07
3.24634914698e-08
2.96177876185e-07
4.01398401084e-07
2.02905779949e-07
3.98501282385e-07
1.21581555112e-06
1.92206389518e-06
3.76412819725e-06
2.65738782176e-06
5.66476989504e-06
1.3955278098e-06
7.4889681352e-06
8.64421263805e-06
3.90944041976e-07
2.72741658708e-07
8.44648936624e-08
9.74153152137e-07
7.74495199612e-07
1.94170546873e-07
2.35329577581e-06
1.64827678152e-05
8.9177998839e-06
3.21749214934e-05
2.92531867361e-05
8.46136169841e-06
2.19629732098e-06
6.69594056359e-06
6.56035170237e-06
2.59531675609e-06
7.81767784255e-06
8.03766167354e-06
3.6565894787e-06
7.52227337325e-06
1.47937072591e-06
9.48967998609e-06
2.85691636241e-06
5.17697228376e-06
3.93017859824e-06
2.89806406655e-07
1.04706149671e-06
2.29859600215e-06
2.65339233604e-06
2.53181022856e-06
1.19623432451e-06
3.28145353205e-06
3.28235506606e-06
4.45736913126e-07
5.52242181169e-07
2.95308167214e-06
2.84646146324e-06
1.19152756933e-06
2.91076915099e-07
2.81911977561e-06
8.56053704741e-07
4.63948875482e-08
2.09899524408e-06
2.74115197313e-06
3.13192332799e-06
5.75895992376e-06
2.16990553475e-06
1.04236552185e-06
1.1814852832e-06
2.10520428699e-05
8.7300317678e-05
3.05960172297e-05
8.68027486849e-05
0.000528432331385
2.5131862708e-05
0.000515471582459
0.000444295921365
0.000103466813574
2.42095260449e-05
3.70000323695e-06
4.2497220064e-05
7.32996944098e-05
2.25259733313e-05
6.23005340153e-06
2.13552554782e-06
2.18222726327e-06
2.01049390627e-06
1.93894105179e-07
2.33738297403e-06
4.31625020215e-07
0.000105068265152
1.57071347015e-05
1.29416756325e-06
6.50347404123e-05
6.51419157279e-05
4.81911950424e-05
1.72913695561e-07
1.25504882914e-06
2.08547859257e-06
7.58137734721e-07
1.59386064263e-06
2.02474198569e-06
3.1725466448e-07
1.24614702436e-06
1.03603657775e-05
2.52735772236e-06
2.70964332358e-06
2.90159255712e-05
2.07499500114e-05
1.40820862526e-05
2.72049742247e-05
8.43412429499e-06
1.17814424548e-06
6.78119697824e-06
1.53382354137e-06
2.00630816069e-06
8.58316454155e-07
1.46427841617e-06
7.51980349251e-07
4.03832856173e-07
4.49099383264e-07
4.31133413705e-07
1.1302612084e-06
8.90025355778e-07
1.61639534221e-06
8.7146197151e-07
2.86510626227e-06
4.17727456423e-06
1.62771359813e-06
1.78375988026e-06
9.09643337587e-07
3.16498859231e-07
1.54604743132e-05
2.4442654056e-06
3.61140258748e-06
2.45420444859e-06
1.58893074994e-06
1.03904638516e-06
1.43244487799e-06
5.91681150989e-06
1.26554874279e-05
0.000155379069333
4.84178916786e-05
8.49882563356e-06
1.54080521605e-05
1.4599360037e-05
1.70681502938e-06
5.45479871348e-07
7.69777829228e-07
1.04936755423e-06
6.58924938257e-07
5.3098835368e-08
6.9078065192e-07
5.14907980549e-07
1.20544576003e-06
2.62500689338e-06
9.51727411062e-07
2.39479039211e-06
2.026317237e-06
2.19252786945e-06
2.46851368123e-06
6.69973422944e-07
4.90509905638e-07
7.41749325726e-07
5.87668255485e-07
1.78003190399e-06
1.55108965781e-06
9.54026345336e-05
0.000148825619803
0.000306882443877
0.000187500407499
8.59777614518e-05
4.31775094567e-06
2.84139940716e-06
5.99470788042e-05
3.19623957858e-06
3.61594853907e-06
6.41073737701e-07
8.08483300643e-08
2.36824512793e-09
1.65866286707e-07
9.04341372053e-08
2.81621108187e-07
2.28862848595e-06
3.97252516439e-07
2.59388534813e-07
1.8270484901e-07
1.27605543512e-06
1.08648201533e-06
1.20197758693e-07
4.29036028704e-07
1.1466549343e-06
1.53556902799e-07
1.59597165621e-07
3.80415917549e-07
4.85422434983e-08
2.10359746885e-07
3.57569078144e-07
4.68247057789e-07
2.04259160969e-08
2.89230926751e-06
1.75734761418e-06
2.56475724027e-07
4.56688378466e-09
9.74292151198e-08
2.17750054178e-06
1.84633634493e-06
4.02346916869e-07
4.6157798795e-07
1.73582181251e-07
1.46694009206e-07
2.73610223775e-06
4.46086006429e-06
2.13277614118e-06
1.38028120271e-06
2.36698262701e-06
1.202186056e-06
1.09184917171e-06
3.44463872658e-06
6.03221908487e-07
2.62239405273e-07
5.62298195459e-07
3.58500290741e-06
2.63464417575e-06
4.20733152946e-06
6.75630943696e-08
9.10313505627e-06
8.29600516369e-06
1.69426825946e-06
2.02827791823e-06
6.0865484553e-06
2.86777172817e-06
1.62627217012e-06
4.08145263835e-07
3.83088320632e-07
1.17015384743e-07
1.49117231399e-07
1.44670412982e-07
8.95269608491e-08
3.06765092439e-08
2.4564633955e-07
2.37533486919e-07
1.89429514548e-06
5.28270752352e-07
6.93169201065e-07
2.1430963423e-07
4.29272445416e-07
1.14267782543e-06
2.88648877852e-07
1.27703179511e-06
3.11297062637e-07
9.92325864689e-07
3.17625142373e-07
3.56894952796e-07
2.39915599802e-07
1.07241823645e-07
1.63073785831e-07
2.64882891729e-08
5.84165611216e-08
1.99934406224e-07
8.30625276931e-07
1.70914958312e-07
6.4785813885e-07
3.76408346551e-07
1.91829667326e-06
2.19099010432e-07
2.36544880798e-07
2.01075557523e-07
1.87340867249e-07
3.92250625043e-07
2.09289337701e-07
1.09030653088e-07
7.24423897292e-08
3.57029983134e-07
6.19420874588e-07
2.62247803974e-07
3.51662468476e-06
7.46793380895e-07
1.01811203525e-06
2.06740453423e-06
3.37383747251e-07
1.52362421215e-05
1.82503841791e-05
1.90902337133e-05
8.92859838948e-06
1.16076006652e-05
9.67342732015e-07
1.67572909557e-06
2.41850269583e-06
2.38429940607e-06
3.97340547489e-06
3.09762331719e-06
8.73391667464e-07
2.75051410224e-06
1.07420253267e-06
1.401215463e-07
4.60908992676e-07
1.16484474185e-06
1.5828862008e-06
3.42637814347e-06
5.80192327448e-07
1.69134295821e-07
6.14004113371e-07
3.10627310337e-06
5.63127445301e-06
3.45229264355e-06
2.97203265799e-07
1.04367096913e-06
3.70015231525e-06
6.7012473697e-06
6.27850685612e-06
1.26193117948e-06
1.11215029151e-05
1.17777246982e-05
1.34238313233e-05
1.44058666325e-05
1.40461970991e-06
1.99037254101e-05
1.34762334944e-06
1.27961497185e-06
7.57747315859e-08
4.94166714844e-07
1.64487500167e-06
3.05390828437e-06
6.41289574037e-07
9.16075357757e-07
4.48505247105e-06
1.81848335737e-05
2.7655140788e-06
9.34013151241e-08
8.27031952727e-07
3.17047617158e-06
3.23160625487e-07
4.00830107414e-07
4.66577077145e-08
1.49359662058e-07
8.24293339865e-07
3.53833780613e-07
1.60425168302e-07
2.54009202303e-08
3.15741131776e-07
3.33022487318e-07
2.52405020199e-07
1.75369736032e-07
4.11482758087e-07
2.00861437576e-08
2.31272294747e-07
6.52093657503e-07
1.62109701067e-06
5.20754487465e-07
4.85076597974e-07
5.60307273724e-07
2.47590576274e-07
7.33107303338e-10
1.15262230711e-06
1.12979685287e-06
2.67654255755e-06
2.64349453711e-06
2.78837605229e-06
6.57109457323e-06
2.53146884615e-07
3.30105982763e-06
3.15047414491e-06
1.7720226157e-06
1.02158532782e-06
1.3144508479e-06
1.07273307461e-06
2.43579979305e-06
7.89499167392e-07
1.02933729518e-06
1.06565876882e-06
1.70274523697e-06
3.34857677237e-06
3.07269185589e-06
1.00888848026e-05
2.11493070008e-05
2.9970154035e-06
8.09319809008e-06
4.04887372017e-06
5.12107561021e-06
1.92958811225e-06
1.49174344599e-06
6.10174278569e-06
4.43359225315e-05
4.5479181411e-05
0.000150324178406
0.00265452472542
0.00173807124714
2.19571220185e-06
5.48344198591e-05
4.5928526932e-06
2.86468688406e-06
7.32243076918e-07
3.09067061391e-07
1.13914197906e-06
2.72304528019e-07
3.84659204737e-07
2.11167992591e-06
3.33386334987e-06
4.22380939653e-06
8.86457434192e-06
1.14471367692e-05
6.67405689098e-06
2.10060870709e-05
3.56064004334e-05
2.13467511177e-05
2.306259476e-07
1.18456952669e-06
2.10952383976e-06
1.04843841644e-06
2.30741573049e-06
1.31229585855e-07
2.4564802209e-07
2.18660505099e-06
1.95212683244e-06
6.31097627262e-07
1.85502157154e-06
6.82981665629e-07
1.60517191083e-06
2.20321111288e-07
4.63225356545e-07
6.46904591791e-07
1.9514082836e-07
4.5969925798e-07
1.05519951103e-07
9.69857767818e-06
1.98197104254e-06
6.81287555053e-07
1.45385559652e-06
1.68316514052e-06
3.26462638527e-06
1.03891280095e-06
3.36969312288e-06
2.7140117135e-08
1.14327296417e-06
3.58720813036e-07
1.74430652177e-07
6.15739860488e-08
3.57248723771e-06
6.24339776666e-06
1.21053586451e-05
7.48508776437e-06
8.36176258415e-07
4.00350956184e-06
1.42647951322e-06
1.90442798706e-06
4.78400847958e-07
1.96739452267e-06
1.40054970866e-06
7.01198744539e-06
1.21374607524e-05
1.03706023527e-05
1.21634951875e-06
1.59244916918e-06
7.76247674624e-06
2.52444245814e-06
5.32376965436e-07
9.21280768671e-07
1.01318397264e-06
1.32330928423e-06
1.30193447303e-06
2.13472490504e-06
2.32781803315e-06
1.00146529015e-05
4.87145894765e-06
5.79362035484e-05
3.01705657341e-05
1.08511037364e-06
2.0588969395e-06
4.26163724402e-06
1.47989619377e-06
1.30332771235e-06
3.14834484457e-07
1.83722851848e-07
9.42473699877e-07
3.60796377679e-07
3.26352538385e-06
8.92691823651e-07
1.46400674847e-05
2.8385331742e-06
3.35875473402e-05
2.45936663405e-05
5.39836428239e-07
5.81425346293e-06
1.16909709906e-06
2.74784212295e-06
6.88168262631e-07
1.33062513792e-06
8.96357898566e-07
1.95967244289e-06
2.2006986497e-06
2.93710122198e-07
5.04467108791e-06
2.75030610894e-07
2.06227067762e-06
1.3404708388e-06
5.30053041062e-07
1.15949670542e-06
1.15886039363e-07
1.20993701886e-06
2.23685204455e-06
3.45879769475e-06
2.18619393404e-07
1.92099412201e-07
1.69167197777e-06
6.72777978413e-07
9.38263965893e-07
2.96329575991e-06
1.72653753594e-06
1.47864802601e-05
2.02807817139e-05
1.03751668543e-05
1.92377245121e-06
2.71147924236e-05
2.80868666361e-06
5.25971333453e-06
8.40254466041e-06
3.5910214396e-06
2.38490127927e-06
1.74096977924e-07
1.20659035996e-06
2.83205978215e-06
7.49083031438e-07
5.35363398636e-07
1.98221525273e-06
1.95697632115e-06
1.42867691989e-06
4.23301945549e-07
2.86565919858e-07
3.9660709556e-06
5.64001013371e-06
8.62440979604e-06
0.000362564831977
0.000252850160127
0.000422244832436
0.000250514468015

