# vtk DataFile Version 3.0
File Name: Molecule/arg/arg_0.5-4.vtk
ASCII
DATASET UNSTRUCTURED_GRID
FIELD FieldData 1
TIME 1 1 double
0.0
POINTS 160 double
-3.4373130798 0.23989631236 1.4287729263
-3.1599929333 -0.12275207043 0.57834744453
-2.9763770103 -0.73417788744 1.3728321791
-2.5485470295 -1.0927832127 0.63696634769
-2.9810371399 0.22253076732 -0.1876244396
-2.5032036304 -0.46204963326 0.17188495398
-2.2167561054 -0.532297194 -1.27366817
-2.2036287785 -0.47395145893 -0.90360015631
-2.5004353523 -0.11912152171 -1.2240790129
-2.3976705074 1.0951530933 -1.3001240492
-3.0254194736 1.7251625061 -0.37281182408
-2.2234261036 1.8181664944 -0.64449471235
-1.8748004436 1.5396875143 -1.5908221006
-1.6969641447 1.9320509434 -1.0896134377
-2.526911974 2.6256260872 0.46080607176
-1.7613493204 2.6027543545 -0.5552611351
-1.4313853979 3.2443966866 0.093839123845
-3.1313595772 2.3804616928 1.3516831398
-1.8590049744 3.330757618 1.4810487032
-2.4599456787 3.0861196518 2.2234489918
-2.9297969341 2.173979044 2.7204771042
-2.7695441246 2.4673335552 2.1887114048
-3.4154508114 1.7977743149 1.8104104996
-3.1922285557 0.76374959946 3.2053310871
-3.103315115 1.7819199562 3.0287191868
-3.3827390671 0.78390139341 1.9773936272
-3.0174024105 0.45550647378 2.42222929
-3.1178560257 0.23252934217 1.9685277939
-2.7792890072 0.12685675919 2.9196157455
-2.8707518578 0.035335499793 2.2865281105
-2.9974308014 -0.22202931345 1.854121089
-2.5108370781 -0.71197491884 2.4297602177
-2.4426281452 -0.051598444581 3.6998436451
-1.7380648851 -1.6988171339 1.3706693649
-1.9702334404 -1.2544525862 3.4398775101
-0.93851017952 -2.386551857 2.1853482723
-0.95485472679 -2.2294919491 0.29491338134
-1.9669225216 -1.3657135963 0.12464770675
-2.0551867485 -0.79934221506 -0.58885395527
-1.9281747341 -1.2278695107 -0.71592408419
-2.0247347355 -0.83184558153 -1.2289078236
-1.6809872389 -1.8019571304 -1.4056901932
-2.3089594841 -0.28574478626 -0.47952249646
-2.2045993805 -0.49207550287 -1.7693463564
-1.7577080727 -0.77228486538 -2.052516222
-1.5605338812 0.14345924556 -2.7013859749
-2.342703104 0.20721040666 -2.2256765366
-1.7429419756 1.0222176313 -2.4265913963
-1.0866376162 0.68912917376 -3.4053790569
-1.5116095543 1.562146306 -2.1877164841
-1.1815844774 1.6553295851 -2.9638092518
-1.1177754402 2.070264101 -2.1739349365
-1.4817585945 1.8436983824 -1.7085893154
-1.3200989962 2.417671442 -1.26273489
-0.42633861303 2.6035766602 -2.4265813828
-0.80349385738 3.015283823 -1.2808309793
0.78568267822 2.7031726837 -1.7162837982
0.71078890562 3.402443409 -2.7609035969
-0.014191376977 3.2512414455 -2.8498773575
0.43967628479 3.3663237095 -0.54548448324
1.0708631277 2.460773468 -0.49432909489
1.5516779423 2.0265569687 -1.2308535576
0.98333567381 2.762762785 0.20628291368
1.544062376 1.9104089737 0.027793370187
1.2139568329 2.2125480175 1.035495162
0.38986933231 3.1002724171 0.84671670198
0.55960941315 2.7701165676 2.2699964046
-0.27510505915 3.50736022 1.977571249
-0.6486068964 3.4481575489 3.4518847466
0.37531620264 2.699962616 3.9368290901
-0.64386302233 2.7169983387 3.9977636337
-1.7675281763 2.7487523556 3.9111776352
-2.0157825947 3.3699569702 3.3209524155
-2.469014883 2.6693036556 3.3334493637
-0.53533238173 1.8146959543 4.5367851257
-1.066408515 2.2403306961 4.3590545654
-2.4467766285 2.2330508232 4.1020650864
-1.5532876253 1.7482421398 4.5695648193
-0.27776110172 1.0723032951 4.7785429955
-0.97394418716 1.0837359428 4.59187603
-0.78450661898 0.27472525835 4.6722450256
-1.6658661366 0.72513622046 4.6294808388
-1.0355290174 -0.46499916911 4.753469944
0.1317678988 -1.1983258724 5.0764055252
0.36643499136 -0.34012407064 5.2145490646
-0.10392929614 0.38781818748 5.0309252739
0.86010891199 -2.4907157421 3.9183871746
1.2598372698 -0.82721734047 5.331577301
2.0287566185 -2.0657351017 4.0977044106
1.9172766209 -1.4833381176 2.3203690052
0.91650593281 -2.0070714951 2.1460695267
0.79590380192 -1.6793694496 0.92440849543
1.6972165108 -0.1299533397 0.86417913437
2.3419747353 -0.47367954254 1.9559067488
1.3864504099 -1.1780339479 0.18096669018
1.7606444359 0.20262676477 -0.20057730377
1.7048631907 -0.92852467299 -0.8839609623
1.0906382799 -2.0187475681 -1.8157815933
1.6612426043 -1.3873461485 -2.6638233662
2.1934554577 -0.1724691093 -1.4466477633
-0.42621225119 -1.8004578352 -2.4688997269
0.13358791173 -0.81250548363 -3.4020328522
-0.99040001631 -1.2976572514 -2.423844099
-0.40737244487 -0.83725184202 -2.8872148991
-0.61526036263 -0.28935050964 -3.3283281326
-1.1073615551 -0.58724886179 -2.6921885014
-0.18546812236 0.5175756216 -3.9960515499
0.54692077637 0.405369699 -4.239346981
-0.40868803859 1.9236966372 -3.5851998329
0.36783948541 1.3461326361 -4.3975462914
0.1592323482 2.1402142048 -4.0331192017
-0.0037545626983 2.8556017876 -3.59953475
1.004044652 2.9768669605 -3.5789580345
0.92360550165 2.2162203789 -4.0298681259
0.47178566456 2.9593169689 -3.8888726234
1.2229692936 3.028932333 -2.891733408
1.6433023214 2.6260898113 -3.2612764835
1.6593812704 2.6928043365 -2.550317049
1.2678518295 2.5864152908 -2.1584858894
2.1890945435 2.1662199497 -2.5217146873
2.1274535656 1.6232825518 -1.9607518911
2.4288134575 1.3828808069 -2.5515749454
2.3862631321 0.73477095366 -1.6877993345
1.9070291519 0.91885405779 -0.95000934601
2.0290663242 0.98324644566 0.17861042917
1.8518229723 2.0232965946 -3.4174695015
1.9500898123 1.0745698214 -3.9942765236
1.1800285578 1.6316802502 -4.1891322136
2.5570082664 0.93276190758 2.6054780483
1.8819442987 1.3208942413 1.3464891911
1.6562296152 1.9390902519 2.2280938625
0.72271662951 1.7644873857 4.6700811386
0.48153033853 0.80699843168 5.0044641495
1.3330353498 0.78288751841 5.0740299225
1.2286536694 2.3668062687 2.1221539974
1.9667003155 1.5235031843 2.5477249622
-3.9381561279 1.172950387 0.8193179965
-1.5848861933 3.9566528797 2.4958922863
-2.7309677601 1.3435795307 4.4473199844
-1.1154429913 -1.9626867771 4.6351079941
0.76487588882 -2.6569890976 -0.80814057589
3.6332426071 -0.48548281193 3.420361042
3.033418417 0.40466845036 4.8838691711
2.7623503208 -1.1239984035 5.0483651161
2.1662752628 0.51165986061 5.290822506
2.0997309685 -0.50237029791 -3.9896850586
1.0069578886 3.4022302628 -3.2875728607
-0.040280945599 3.4323995113 -3.1321444511
0.53873044252 3.7233426571 -3.1205091476
2.1477172375 1.4460741282 4.0927157402
3.025914669 1.068564415 3.8517758846
2.1125457287 1.6222064495 3.3528218269
-0.02161141485 -2.9498441219 3.0616469383
-1.2175264359 -2.6334369183 3.4767053127
-0.19670814276 -2.5544548035 4.4533987045
0.76249879599 3.1664700508 -3.7609462738
0.08224991709 3.2207725048 -3.7090933323
1.3150894642 2.1757829189 4.0656509399
0.98656028509 2.7888829708 3.0042631626
1.4510886669 2.441423893 3.3439979553

CELLS 316 1264
3 0 1 2
3 2 1 3
3 1 4 5
3 6 7 8
3 8 4 9
3 10 9 4
3 10 11 9
3 12 11 13
3 11 14 15
3 15 14 16
3 14 17 18
3 18 17 19
3 20 21 22
3 17 22 21
3 23 24 25
3 22 25 24
3 26 25 27
3 0 27 25
3 23 26 28
3 29 28 26
3 29 27 30
3 2 30 0
3 2 31 30
3 28 31 32
3 31 33 34
3 34 33 35
3 36 33 37
3 3 37 33
3 3 5 37
3 37 5 38
3 37 38 39
3 39 40 41
3 38 7 40
3 42 8 7
3 8 43 6
3 44 41 40
3 45 44 46
3 43 46 44
3 46 47 45
3 45 47 48
3 9 12 47
3 49 47 12
3 50 49 51
3 52 51 49
3 52 13 53
3 53 13 15
3 54 51 55
3 53 55 51
3 55 56 54
3 57 58 56
3 59 60 56
3 56 60 61
3 60 62 63
3 63 62 64
3 62 65 64
3 65 66 64
3 65 16 67
3 67 16 18
3 67 68 66
3 66 68 69
3 70 68 71
3 72 71 68
3 71 72 73
3 72 19 73
3 69 70 74
3 75 74 70
3 76 77 71
3 73 76 71
3 76 73 24
3 20 24 73
3 78 74 79
3 77 79 74
3 79 80 78
3 81 80 79
3 81 32 82
3 82 32 34
3 83 84 82
3 80 82 85
3 83 86 87
3 87 86 88
3 88 86 89
3 90 89 86
3 36 91 35
3 90 35 91
3 89 91 92
3 93 89 92
3 92 94 95
3 96 95 94
3 97 98 96
3 99 96 98
3 97 100 98
3 98 100 101
3 100 102 103
3 104 103 105
3 105 102 44
3 41 44 102
3 105 45 104
3 104 45 48
3 106 101 104
3 101 106 107
3 106 108 109
3 109 108 110
3 108 54 111
3 111 54 58
3 112 113 114
3 112 115 116
3 116 115 117
3 115 57 118
3 118 57 56
3 117 118 119
3 120 119 118
3 121 120 122
3 123 122 120
3 124 123 63
3 61 63 123
3 124 95 123
3 95 99 123
3 119 121 125
3 126 125 121
3 126 107 127
3 127 107 109
3 127 113 125
3 125 113 116
3 128 93 129
3 92 129 93
3 129 64 130
3 131 78 132
3 132 78 85
3 132 84 133
3 133 84 87
3 27 0 30
3 42 5 4
3 4 8 42
3 12 9 11
3 15 13 11
3 18 16 14
3 21 19 17
3 24 20 22
3 26 23 25
3 28 29 31
3 34 32 31
3 36 35 33
3 42 38 5
3 38 40 39
3 43 44 40
3 50 48 47
3 49 50 47
3 53 51 52
3 58 54 56
3 59 56 55
3 63 61 60
3 134 64 66
3 67 66 65
3 70 69 68
3 77 74 75
3 85 78 80
3 82 80 81
3 87 84 83
3 91 89 90
3 94 92 91
3 99 95 96
3 103 101 100
3 102 105 103
3 109 107 106
3 111 110 108
3 116 113 112
3 118 117 115
3 121 119 120
3 122 123 99
3 127 125 126
3 135 128 129
3 132 133 131
3 0 25 136
3 0 136 1
3 4 1 136
3 4 136 10
3 14 10 17
3 10 14 11
3 136 17 10
3 17 136 22
3 22 136 25
3 5 3 1
3 2 3 33
3 2 33 31
3 29 30 31
3 6 40 7
3 7 38 42
3 9 46 8
3 43 8 46
3 40 6 43
3 47 46 9
3 13 52 12
3 12 52 49
3 16 65 59
3 16 59 55
3 16 55 15
3 53 15 55
3 59 65 62
3 59 62 60
3 72 68 137
3 72 137 19
3 19 137 18
3 18 137 67
3 67 137 68
3 75 71 77
3 21 73 19
3 73 21 20
3 71 75 70
3 138 23 32
3 23 138 24
3 24 138 76
3 76 138 77
3 79 77 81
3 138 81 77
3 81 138 32
3 28 32 23
3 27 29 26
3 34 139 82
3 82 139 83
3 37 39 36
3 36 39 41
3 36 41 140
3 36 140 91
3 91 140 94
3 94 140 96
3 97 96 140
3 97 140 100
3 100 140 41
3 100 41 102
3 45 105 44
3 51 54 50
3 50 108 48
3 48 108 106
3 48 106 104
3 103 104 101
3 108 50 54
3 61 123 120
3 61 120 118
3 61 118 56
3 64 129 63
3 63 129 124
3 95 124 92
3 129 92 124
3 131 69 74
3 131 74 78
3 84 85 82
3 85 84 132
3 141 142 143
3 141 143 88
3 141 88 89
3 141 89 93
3 141 93 128
3 87 143 144
3 143 87 88
3 101 107 145
3 101 145 98
3 98 145 99
3 121 122 145
3 99 145 122
3 121 145 126
3 126 145 107
3 110 113 109
3 109 113 127
3 117 119 116
3 116 119 125
3 111 114 110
3 110 114 113
3 112 146 115
3 115 146 57
3 147 58 148
3 58 147 111
3 133 149 131
3 128 150 141
3 141 150 142
3 144 142 149
3 150 149 142
3 149 150 151
3 144 149 133
3 142 144 143
3 144 133 87
3 86 152 90
3 90 152 35
3 35 152 153
3 152 154 153
3 152 86 154
3 153 154 139
3 35 153 34
3 153 139 34
3 139 154 83
3 83 154 86
3 114 155 112
3 112 155 146
3 146 155 148
3 155 156 148
3 155 114 156
3 148 156 147
3 147 156 111
3 111 156 114
3 146 148 57
3 57 148 58
3 134 130 64
3 129 130 135
3 149 157 131
3 131 157 69
3 69 158 66
3 66 158 134
3 130 134 159
3 158 159 134
3 158 69 159
3 130 159 135
3 135 159 151
3 159 157 151
3 159 69 157
3 151 157 149
3 135 151 128
3 128 151 150

CELL_TYPES 316
5
5
5
5
5
5
5
5
5
5
5
5
5
5
5
5
5
5
5
5
5
5
5
5
5
5
5
5
5
5
5
5
5
5
5
5
5
5
5
5
5
5
5
5
5
5
5
5
5
5
5
5
5
5
5
5
5
5
5
5
5
5
5
5
5
5
5
5
5
5
5
5
5
5
5
5
5
5
5
5
5
5
5
5
5
5
5
5
5
5
5
5
5
5
5
5
5
5
5
5
5
5
5
5
5
5
5
5
5
5
5
5
5
5
5
5
5
5
5
5
5
5
5
5
5
5
5
5
5
5
5
5
5
5
5
5
5
5
5
5
5
5
5
5
5
5
5
5
5
5
5
5
5
5
5
5
5
5
5
5
5
5
5
5
5
5
5
5
5
5
5
5
5
5
5
5
5
5
5
5
5
5
5
5
5
5
5
5
5
5
5
5
5
5
5
5
5
5
5
5
5
5
5
5
5
5
5
5
5
5
5
5
5
5
5
5
5
5
5
5
5
5
5
5
5
5
5
5
5
5
5
5
5
5
5
5
5
5
5
5
5
5
5
5
5
5
5
5
5
5
5
5
5
5
5
5
5
5
5
5
5
5
5
5
5
5
5
5
5
5
5
5
5
5
5
5
5
5
5
5
5
5
5
5
5
5
5
5
5
5
5
5
5
5
5
5
5
5
5
5
5
5
5
5
5
5
5
5
5
5
5
5
5
5
5
5

CELL_DATA 316
SCALARS cell_data_0 double
LOOKUP_TABLE default
1.07963094021e-06
5.33098015343e-07
8.16046380016e-08
1.1964336858e-06
4.37992498943e-06
1.39673801582e-05
1.15307776342e-05
7.41173845208e-07
5.66310328294e-06
2.82620808535e-06
2.39229775202e-08
2.10558127624e-06
7.43130086916e-07
3.17352606152e-07
2.85484297778e-06
3.45590676187e-07
4.13195425075e-07
2.95280002598e-07
7.60793642382e-07
8.0837618556e-07
3.2831499456e-07
9.22607952681e-07
2.41686069802e-06
7.5659035345e-06
1.71610388291e-05
0.000100407970917
1.68168000228e-05
7.60526504923e-08
2.19232866117e-06
4.13369040501e-07
7.60381872825e-07
4.11557690854e-06
8.55511196638e-07
6.10485566265e-07
1.05835369586e-06
5.29350779088e-06
3.28747548548e-06
2.99676722114e-06
9.89557542446e-07
4.60964967701e-06
9.01916938405e-06
1.50415954224e-06
5.45690225149e-07
2.02807349293e-06
9.67054126171e-07
6.83753521058e-07
1.66031064597e-05
1.26240660673e-07
4.65823646527e-05
5.91727472808e-06
8.08255945194e-06
1.53515247966e-05
2.81585858769e-06
4.19930797188e-06
2.37512343799e-06
3.76615127844e-06
2.04141528026e-06
4.49419815828e-07
5.59859955135e-06
1.13981318305e-05
2.32126289116e-06
7.8828558033e-07
1.14093151752e-06
3.58498752097e-07
1.60092065273e-06
3.38998161062e-07
2.1179346231e-07
1.20449644311e-06
1.50287418195e-07
3.42129676201e-07
8.62137360279e-08
3.63645371847e-06
1.82981734365e-06
5.52100011985e-06
3.53453455612e-05
1.857411312e-05
1.04176335091e-05
6.24029850066e-06
0.000110032959604
0.000398131543233
0.00039341443241
0.000129995156765
2.75607109063e-05
3.70463801831e-05
1.88298967724e-05
5.01458489813e-05
1.94859322682e-05
1.16173628585e-05
9.52707161937e-06
2.3247880601e-05
2.36094829973e-05
1.42415105022e-05
3.87716419817e-06
3.47803699422e-06
5.37325044207e-07
4.6962136635e-06
5.12358971544e-06
1.36340647048e-05
1.90841374365e-05
4.03156468451e-05
0.000125925726784
3.07758794623e-05
8.27785218944e-06
4.27405351788e-05
3.7442767553e-05
3.93678202816e-06
5.15705726124e-05
1.58488911555e-05
5.36759397218e-05
4.4900144788e-05
4.67206550641e-05
4.48785951948e-05
9.56300534015e-06
1.44515278526e-05
2.23923171614e-05
1.48240954202e-05
1.84305283569e-05
4.13789848682e-05
1.8709807391e-05
2.51729006527e-07
5.18183061539e-05
0.000120238898215
0.000125461062355
3.83615594078e-05
8.98098749037e-06
7.3736350986e-06
1.85027550233e-06
3.3609264848e-06
1.37292595112e-05
2.4308241553e-05
7.53873983836e-08
2.65330835947e-06
8.40415784078e-06
4.69197466384e-06
1.06034051556e-06
8.3752414007e-06
3.15055337494e-06
2.20489292974e-06
1.56429940514e-06
8.79536391849e-07
1.45690146296e-05
2.04724331185e-05
7.16140417273e-07
1.6646856327e-06
3.46846001682e-06
1.88954324403e-05
6.80039267702e-06
1.2356463286e-06
6.88268374359e-05
4.72354662531e-06
9.0279534342e-06
6.56968273751e-06
1.28080125533e-05
4.57299835741e-06
8.99524495282e-07
5.07525570514e-08
1.47662831575e-07
2.84405130783e-05
1.02446285189e-05
1.49380122456e-05
2.48886830301e-05
2.09494829864e-06
5.28044142384e-06
0.000113022972499
0.000100259087835
0.000125792767004
3.94086353562e-05
0.00010800021441
3.43317198521e-05
8.99032684966e-05
2.53645650676e-05
6.11991918324e-06
1.26062738404e-06
1.01367276294e-06
7.31590419528e-07
1.1633455131e-05
4.07486938184e-06
3.51852352454e-06
5.24477934556e-06
1.06992528871e-06
1.5922338627e-06
1.59406644917e-06
1.24341159855e-06
4.14389670482e-06
4.12088082947e-07
6.63087048479e-07
5.72314820411e-07
2.20871389505e-05
2.14535682518e-06
6.49759139539e-07
1.0178937744e-05
9.07290777227e-07
1.07023685512e-06
1.72970347951e-05
8.89976836782e-06
8.27246606032e-07
2.3194995906e-06
2.49544036918e-06
1.0476947262e-06
5.4066930034e-07
8.16167155502e-08
5.62079136105e-07
6.64519852411e-06
4.75542228751e-06
1.1398171142e-06
1.86105335715e-06
1.69664570244e-06
5.43465465228e-07
5.1819788838e-06
3.34741686372e-06
2.09985725591e-06
1.33532363903e-06
2.39255741008e-07
4.86789471496e-06
3.11424408813e-07
1.57795086935e-07
4.63820726158e-07
4.69051445315e-05
4.24977074797e-05
4.8847774143e-06
1.00316231897e-05
2.37192721926e-05
5.81874895314e-05
1.77494597273e-05
1.32657319837e-06
1.3205672186e-05
1.85358994355e-05
1.56362426621e-05
6.03423677325e-06
8.5586385359e-06
8.15750035094e-06
7.44845884251e-07
7.070530568e-05
1.18910128035e-05
1.7393039224e-06
3.88988058093e-05
6.99334932157e-06
4.63016777143e-05
9.43419680277e-06
1.4308512639e-05
1.46821094348e-05
3.65472841519e-06
9.52027000469e-06
2.49759741011e-06
3.80871590621e-06
5.89825509873e-06
6.80410779995e-06
2.37196875359e-06
0.000250133019685
0.000164621075644
5.0044900616e-06
3.61699855145e-06
2.8424072281e-05
2.43148072153e-05
5.94487318814e-06
3.57864296068e-06
2.0798190687e-05
2.23365752813e-05
6.58535399389e-05
4.48177373665e-05
5.36655892363e-05
0.000429699864767
0.000352581884827
0.000137261955155
0.000331895473772
1.33714679832e-05
7.75376363947e-05
3.5644444745e-05
2.04493467594e-05
3.13364986826e-05
3.95014622425e-05
1.09227915459e-05
0.00011340904459
3.47494441711e-05
5.23647381604e-05
2.71603021768e-05
3.99838824796e-05
2.31914219625e-05
2.19135705025e-05
2.49452560802e-05
0.000291246461945
0.000134687839638
5.99405821638e-05
3.87923543166e-05
0.000314081110847
1.14757006178e-05
3.57488802237e-05
2.68338360606e-05
4.54677065305e-05
3.29250004192e-05
8.52442904667e-07
2.07700708962e-05
4.58234700104e-05
0.000141186416932
4.00240560587e-05
1.96424500783e-05
2.26491521215e-05
6.89388031448e-06
2.6169375677e-05
3.53617767707e-05
1.47521772843e-05
1.3106006154e-05
1.63756920725e-05
1.86991700487e-05
2.23585454601e-05
6.17124313244e-06
2.99785612586e-05
4.0951874582e-06
2.96573220208e-05
4.0970093707e-05
2.09527078059e-05
3.9751326951e-06
2.16979835304e-05
1.97201041799e-05
1.081029806e-06
7.78358678222e-06

