# vtk DataFile Version 3.0
File Name: Molecule/arg/arg_2.0-1.vtk
ASCII
DATASET UNSTRUCTURED_GRID
FIELD FieldData 1
TIME 1 1 double
0.0
POINTS 317 double
-2.9624760151 -0.40226390958 1.8290705681
-3.3828861713 0.27980670333 1.5759874582
-2.9780268669 -0.6471003294 1.0283628702
-3.385216713 0.020803885534 0.77999013662
-2.8571298122 -0.12325172871 0.18999543786
-2.5100035667 -0.44073483348 0.13965502381
-2.6144804955 0.043673690408 -0.44595500827
-2.2221889496 -0.44716328382 -0.8818860054
-2.304817915 -0.29419648647 -0.55893915892
-2.4177591801 -0.16170161963 -1.0133851767
-3.2562260628 0.89813828468 -0.36771026254
-2.8098392487 0.70114916563 -0.80604529381
-3.0119180679 0.10191470385 0.053064323962
-2.6211857796 0.45418098569 -1.5057339668
-2.4376757145 1.369443059 -0.89676380157
-2.8273136616 1.7174534798 -0.442584306
-2.2377789021 1.1760950089 -1.5749195814
-2.4500293732 1.9988658428 -0.40723842382
-1.8361935616 1.7523128986 -1.1170450449
-1.5207006931 3.1598472595 0.26817286015
-1.7523355484 2.5005679131 -0.61665558815
-2.4783637524 2.6608219147 0.64292240143
-3.1596596241 2.3174374104 1.5133861303
-1.8956483603 3.3088917732 1.4929460287
-2.5391488075 2.9661438465 2.2970573902
-2.7310459614 2.5324270725 2.3690495491
-2.9923737049 2.0146193504 2.5792517662
-3.4234220982 1.7872778177 1.7890557051
-3.4088346958 0.59173744917 1.8199852705
-3.1216151714 1.7664703131 2.9879586697
-3.1129221916 0.61977726221 2.9927463531
-3.080612421 0.068776361644 1.8977882862
-3.1138780117 0.36005058885 2.0717155933
-2.873057127 0.13959240913 2.4029047489
-2.9490485191 0.34969761968 3.1182804108
-2.8821618557 -0.19405210018 2.1222968102
-2.5165023804 -0.7006881237 2.4355647564
-2.4847686291 -0.09775826335 3.3890247345
-2.2381761074 -1.4797308445 1.9268891811
-2.025482893 -1.0648818016 3.2038125992
-1.7396045923 -1.9492242336 2.7801909447
-1.0020741224 -2.2510950565 2.0729250908
-1.5816906691 -1.7276092768 1.2739021778
-2.1917450428 -1.4582723379 0.76112294197
-1.0289019346 -2.1037471294 0.41617953777
-1.6743810177 -1.798833251 -0.13716462255
-2.3291637897 -0.97562724352 0.23627717793
-1.9788464308 -1.1070785522 -0.52940511703
-2.0447638035 -0.78555440903 -0.81783652306
-1.898385644 -1.3010058403 -1.0664608479
-2.0996232033 -0.6885150075 -1.0570390224
-1.8667371273 -0.74671649933 -1.8942085505
-2.3135979176 -0.42029231787 -1.3969829082
-1.6617455482 -1.3488792181 -1.7738476992
-2.1481137276 -0.45443224907 -1.9125597477
-1.9426546097 0.18525621295 -2.4634387493
-1.5716938972 0.14637820423 -2.6811258793
-1.7234358788 1.2402951717 -2.2324252129
-1.3395402431 1.4620188475 -2.7152335644
-2.0462133884 1.0125268698 -2.1387515068
-1.8479133844 1.526548624 -1.6408877373
-1.0825166702 2.0487878323 -2.2516477108
-1.478071928 1.8252327442 -1.7425260544
-1.2391526699 2.4716162682 -1.3128522635
-0.52489185333 2.5429368019 -2.3311963081
-0.66577410698 2.9806039333 -1.3583325148
-0.087371826172 2.9735860825 -2.1418952942
0.3223258853 2.9957790375 -1.8238681555
0.45853924751 3.1514832973 -0.89505296946
-0.0548982732 3.333170414 -2.9848241806
0.59240281582 3.3144140244 -2.6172833443
1.0582170486 2.5639090538 -0.35118210316
0.79298567772 2.6880185604 -1.665324688
1.5501770973 2.0208835602 -1.2067332268
0.85583090782 2.8132038116 0.48088428378
1.5411731005 1.9150493145 0.022757260129
1.2414190769 2.1812903881 1.055282712
0.40912795067 3.0906682014 0.87383055687
0.7281447649 2.5285933018 1.2123916149
0.48171624541 2.6835942268 1.6876417398
1.141277194 2.3973324299 2.0904660225
0.70345771313 2.7257995605 2.3071613312
-0.19901126623 3.4728751183 0.80522435904
-0.035332921892 3.1995887756 1.9146152735
-0.5280637145 3.6689279079 1.8597640991
-1.2354153395 3.6121490002 1.460747838
-0.9106965065 3.5408079624 0.33341485262
-0.15730018914 3.427929163 2.9605643749
0.56112408638 2.9099938869 3.2539236546
-0.65549659729 3.1877593994 3.6558041573
0.11028046906 2.5767762661 4.0941214561
-1.2895237207 3.1868412495 3.7509474754
-0.66527223587 2.6949467659 4.0128393173
-1.4550982714 2.7861185074 3.9867730141
-2.0423181057 2.8949718475 3.601485014
-1.9557847977 3.1491503716 3.5089638233
-2.3386845589 3.1580822468 3.0545151234
-2.5226511955 2.7968735695 2.9831466675
-0.60771417618 1.6946184635 4.5548181534
-1.0379244089 1.9745178223 4.4380941391
-1.9825575352 2.0247788429 4.466012001
-1.4580523968 1.6269496679 4.5968952179
-1.4839426279 2.3383076191 4.2873053551
-2.4639298916 2.2133848667 4.1016159058
-2.1540956497 2.6029188633 3.7843782902
-2.857884407 2.1736180782 3.4545881748
-2.7163636684 2.4644594193 3.1007769108
-1.2395069599 1.0835002661 4.636367321
-0.27529165149 1.1243183613 4.759563446
-0.22107446194 0.49902379513 4.8906507492
-0.61231672764 0.12004642189 4.81437397
-1.5243961811 0.52631103992 4.5951929092
-0.90586143732 -0.39288315177 4.7657251358
-1.7417063713 -0.67948746681 4.2577033043
-2.3388521671 0.22763130069 4.240468502
-0.4391002059 -0.71500170231 5.0453929901
-0.0062358472496 -0.32568502426 5.128921032
0.14852282405 -1.1765133142 5.0839304924
0.52619212866 -0.54986006021 5.1916761398
1.0738786459 -0.80287730694 5.265642643
1.2148454189 -1.5513788462 4.9263310432
0.50862818956 -1.8661048412 4.8263244629
0.8055690527 -2.2676842213 4.3758907318
1.6696282625 -2.0057258606 4.3962693214
1.140953064 -2.3909823895 3.6258392334
1.9025446177 -2.1257226467 3.7773840427
1.8194301128 -1.9957648516 2.9585967064
1.1117008924 -2.3392045498 2.8076632023
1.0371174812 -1.8514657021 2.144241333
1.9152665138 -1.4786273241 2.3034226894
0.77456849813 -1.6622604132 1.2491387129
0.13862237334 -2.147364378 1.2160379887
0.033502083272 -2.5062036514 2.0871360302
1.0454795361 -1.8249912262 0.34570458531
0.042691987008 -2.475859642 0.34007695317
-0.772973001 -1.9857670069 1.2144527435
1.4679801464 -1.0985839367 0.029661441222
1.0761694908 -1.3336883783 0.97286123037
1.35394907 -0.84868770838 0.82396489382
1.3703939915 -1.2313703299 1.7323540449
1.6618449688 -0.76979416609 1.5758476257
2.3387496471 -0.7347048521 2.0015845299
1.658531189 -0.6552836895 -0.54537367821
1.6874519587 -0.15279528499 0.64827924967
1.8459305763 0.22613456845 0.088104143739
1.6700842381 -1.4016268253 -1.0155498981
2.0625853539 -0.23163320124 -1.3443170786
2.2023816109 -0.84789776802 -1.8552013636
1.3702950478 -1.7550510168 -1.7110468149
1.7418755293 -1.3576438427 -2.2796924114
0.89182525873 -1.9208674431 -2.1313357353
1.4340049028 -1.4254342318 -2.8864836693
0.61730366945 -1.369959116 -3.0529687405
0.12131393701 -1.891253829 -2.4619653225
-0.39032804966 -1.2753686905 -2.6775693893
0.13027708232 -0.80937260389 -3.4036231041
-0.34328010678 -0.59772366285 -3.1886672974
-1.1488498449 -0.72217857838 -2.5827851295
-0.77924519777 -0.31527814269 -3.1324005127
-0.98698818684 -1.3593530655 -2.3797605038
-1.1713531017 0.4134812355 -3.1796507835
-0.275483042 0.01852831617 -3.7783925533
0.20924299955 -0.24927647412 -3.9595522881
0.063449725509 0.74060440063 -4.0737147331
0.53152656555 0.41923046112 -4.2405738831
0.38525018096 1.3523452282 -4.3996915817
0.11516010761 1.9874296188 -4.1327557564
-0.41022199392 1.9375727177 -3.574747324
0.026030199602 3.0078642368 -3.6756207943
0.92005228996 2.2132930756 -4.031065464
0.89897346497 3.0889132023 -3.6826057434
0.8715891242 3.3474156857 -2.8136267662
1.6552122831 2.6935174465 -2.5309104919
1.0843925476 3.2588939667 -3.243162632
1.1341575384 2.6179249287 -2.0297925472
2.2033071518 2.1453127861 -2.5179314613
2.104537487 1.6547900438 -1.9664109945
2.0282115936 1.107074976 -1.2930225134
2.4234676361 1.2717415094 -2.2821114063
2.3414890766 0.58345401287 -1.5607584715
1.8643100262 0.77028405666 -0.7311103344
1.9723075628 0.93421512842 0.0408115834
1.8068534136 0.12688776851 -0.80889058113
1.850104928 2.0285511017 -3.4178817272
1.8586493731 1.3052484989 -3.8071630001
1.1914283037 1.5921930075 -4.1920590401
1.6414096355 0.38508599997 -4.3803210258
1.5725505352 2.5267546177 -3.3349311352
2.072108984 0.65575480461 0.81873011589
1.8568373919 -0.26922178268 1.447535038
2.1804325581 0.37591251731 1.6056643724
2.7307927608 0.12561710179 2.1537251472
1.8930444717 1.4218832254 1.2218978405
2.0406885147 1.0119291544 1.9545154572
2.536690712 0.96391099691 2.5893688202
1.8129234314 1.6083883047 2.2672395706
1.9574395418 1.7967414856 3.1108732224
2.5683376789 1.3179914951 3.3380043507
2.2121219635 1.4899487495 3.9181203842
1.5735352039 2.0463969707 3.8218708038
1.3547893763 1.6936497688 4.4028377533
1.9403581619 1.2186745405 4.672082901
1.3232992887 0.81098335981 5.0653853416
0.6654818058 1.4141405821 4.7761530876
0.58988678455 0.84762686491 4.9808750153
1.1790492535 0.010009092279 5.3568334579
0.56599712372 0.14550176263 5.2207016945
-3.726326704 1.9520610571 0.85644513369
-3.2792549133 2.2573459148 0.22996976972
-3.7195856571 1.5609413385 0.16215880215
-3.7233247757 0.78136211634 0.18528150022
-3.7307450771 0.42583116889 0.85723572969
-3.9388673306 1.1838610172 0.87206888199
-2.7643437386 -1.1336007118 1.4715485573
-2.4434633255 0.029005231336 -2.0292494297
0.46088671684 3.4530675411 -0.044732462615
-0.2880012989 3.6917812824 -0.29276713729
-1.22103405 3.2949614525 -0.67160749435
-0.50224947929 3.823662281 2.5019743443
-1.1119416952 4.0115070343 2.4687216282
-1.1117584705 3.7847216129 3.2505030632
-1.8807504177 3.8300876617 2.4757592678
-1.8846763372 3.5750086308 3.2323336601
-2.3407056332 3.4003357887 2.4990050793
-1.9732413292 1.2871655226 4.7360596657
-2.5783059597 1.6381182671 4.4804878235
-2.5883555412 0.86300909519 4.4999966621
-3.0528452396 1.596986413 4.0112628937
-3.1350228786 0.87805223465 3.8814795017
0.45114353299 -2.7117946148 3.9984407425
-0.15925778449 -2.4457981586 4.5788664818
-0.18835836649 -2.8629901409 3.9189829826
0.4629150629 -2.8566670418 3.2293114662
-0.18443523347 -2.9729325771 3.2974410057
-0.1701579988 -2.8639035225 2.6823842525
0.58236318827 -2.6467730999 2.5861847401
-0.18453764915 -1.9161849022 4.9509077072
-0.80323988199 -1.4993021488 4.9759316444
-0.80370956659 -2.2227499485 4.6332840919
-0.94621819258 -2.6427967548 4.006503582
[...]
CELL_DATA 630
SCALARS cell_data_0 double
LOOKUP_TABLE default
2.27347453303e-07
2.78974073976e-07
4.43488368758e-07
1.70684966523e-07
2.26477003222e-07
3.58894101899e-07
5.96984469812e-07
1.04683225989e-06
2.31954255525e-06
6.61420021685e-09
1.02335761471e-06
1.64327762768e-07
2.0701487126e-06
1.75889354931e-06
9.3955615205e-07
4.82616636115e-07
6.63857173166e-07
1.92939723869e-06
9.31152645472e-07
5.23234834185e-07
3.33829539144e-07
1.35901681504e-07
1.53467172281e-06
9.9099442685e-08
9.26346672138e-07
2.84514510476e-07
7.09666838915e-07
1.76226501387e-06
7.49002087958e-07
1.25852896898e-07
6.76251822489e-09
1.22193741246e-05
1.05024505963e-05
4.18152265501e-06
6.99512688957e-06
1.33324685409e-05
7.44700243903e-06
1.49523836532e-06
1.04842270621e-06
9.3455661148e-07
2.52557093563e-06
7.12105343932e-07
8.05344720243e-07
4.27666669214e-07
1.30948283848e-06
9.08153149762e-07
3.9918116761e-06
1.54006583454e-06
1.57057203524e-06
5.39916571066e-07
6.37846128103e-06
7.01331152534e-06
3.02911723887e-06
2.2566617195e-06
1.24866271922e-05
2.31640695165e-06
4.17897426511e-06
6.71618621608e-07
2.0638986202e-06
2.00707995107e-06
1.01662532429e-05
5.65023709695e-06
2.9745523899e-05
2.49794009484e-06
1.98889700225e-06
3.7188047841e-06
3.99116352051e-06
3.30680014284e-06
1.12023394527e-07
6.09021157908e-07
1.0427519074e-06
3.32096258118e-06
5.32221977715e-07
1.57248300762e-06
3.67728958937e-07
1.31344318431e-06
2.04564386613e-06
4.41224610136e-07
1.00309531087e-07
7.43203849606e-06
4.3410980585e-06
4.30558533172e-07
8.7019323554e-07
2.38894968969e-07
2.29112271861e-08
2.58330465759e-07
1.30982562654e-07
9.04899600909e-08
2.09564340879e-07
3.18428026891e-08
2.61503954951e-06
1.74271390298e-07
3.90928266806e-07
4.30083219197e-07
4.41280805941e-07
5.95619448609e-07
2.7062838133e-07
5.11024708389e-07
1.7823317791e-07
5.79181203272e-07
1.65843919839e-06
1.7949587808e-06
3.01788063895e-06
1.32139121565e-06
3.89054597686e-06
1.54905820399e-06
6.03346142877e-06
2.34993319168e-06
1.35222252632e-06
4.5186984035e-07
5.75063481453e-07
7.10513206911e-07
4.64724212533e-06
2.25055413989e-06
2.70254790522e-06
1.47879909971e-05
1.26447508985e-05
2.88335162559e-05
3.25869083083e-05
2.02287310318e-06
2.53439648175e-06
6.09295204767e-06
3.65260964533e-06
7.84266022693e-06
6.44126372991e-06
1.16623972379e-05
1.76870081167e-06
9.46763714899e-06
1.6794457474e-07
9.16339919183e-06
2.34674102838e-06
5.77161709948e-06
3.751282505e-06
2.46864526651e-07
9.61079015877e-07
2.27388790267e-06
3.60056570916e-06
2.58715385759e-06
3.25680400747e-06
3.29235689956e-06
3.23264361514e-06
1.84314935424e-07
3.12115622095e-07
2.2736124965e-06
1.74162495555e-06
2.51097354713e-07
7.6797888435e-07
2.86487051292e-06
2.08207468453e-07
3.1266463518e-07
2.10214184925e-06
2.63260536823e-06
3.71931972016e-06
5.53607193397e-06
5.30799135076e-07
2.23674845044e-06
3.86701475351e-07
1.91683654837e-05
8.05133282351e-05
6.80081569588e-05
1.84247112896e-05
3.55431968541e-05
0.000137020063973
6.55097947378e-05
6.13757498223e-05
2.69386935804e-05
2.25397442626e-05
8.60718083908e-05
5.81771198992e-05
1.93382874624e-05
5.03232046758e-06
3.18904287986e-06
4.28727407129e-07
1.52741864827e-06
2.07157692323e-07
2.58938498105e-06
3.35426272551e-07
6.1284133345e-05
2.7704906144e-05
1.42536632e-05
8.5986583147e-05
0.000114906754315
0.000116868747974
1.73923662758e-07
1.37948628572e-06
2.03708138207e-06
9.47515374401e-07
1.59698912321e-06
2.80802210618e-06
9.74145329137e-07
1.73420631972e-06
1.16892399342e-05
3.98386244667e-06
4.21039063183e-06
2.81410052744e-05
2.60460747811e-05
1.89378099559e-05
2.39663043859e-05
5.11150480987e-06
2.58377171204e-08
6.16618188799e-06
6.77629490517e-07
1.10432242345e-06
8.15070110879e-07
9.56024305518e-07
3.4301007683e-07
4.10679330079e-07
5.87364549691e-07
2.83990543458e-07
9.82555037412e-07
6.77457841325e-07
3.99720390443e-07
7.93185230442e-07
4.30489024847e-06
4.18948899317e-06
1.72364430158e-06
1.76713723736e-06
9.49671967703e-07
8.54385329469e-08
1.70488587702e-05
3.29593379076e-06
3.82278312797e-06
1.03882528646e-06
1.07284902494e-06
1.89971392181e-06
1.79790685017e-07
2.57053740996e-06
4.96015804232e-06
4.87631443231e-05
9.53877378153e-06
7.03240775737e-07
2.60751628175e-06
1.27284336956e-05
2.53682723066e-06
8.4029954919e-07
1.65723178927e-07
1.40962176521e-06
5.49510081483e-07
1.10501062753e-07
2.15827254036e-06
4.94392754803e-07
1.46006693799e-06
4.43371444607e-06
1.26282920865e-06
2.74847503052e-06
1.98555245898e-06
2.23266408375e-06
2.52328343719e-06
7.85536685246e-07
2.37041030573e-07
2.17167773781e-06
2.01617894436e-06
6.22449722141e-07
1.28760069878e-06
9.33149078105e-05
0.000147852540547
0.000152466586017
5.81250824749e-05
0.000105673637992
4.43496188636e-06
1.99570966784e-06
5.40113764049e-05
4.54189995009e-06
3.69851126972e-06
1.4190183107e-07
2.39702539277e-07
1.07937026e-07
8.62906279964e-08
3.75593635e-08
9.258605425e-08
2.13778293756e-06
1.71861761488e-07
2.02732760351e-07
3.42166897487e-07
1.40393120197e-06
1.23709873069e-06
4.27462977031e-07
3.01785899279e-07
1.15649806934e-06
2.45169762217e-07
3.80766592817e-08
1.64000424005e-07
3.11717186369e-08
6.24189399026e-08
5.14544251802e-07
3.17898481488e-07
3.84670120062e-08
3.391407417e-06
1.12534403326e-06
4.06867302978e-07
1.18322867674e-06
5.34092087454e-07
4.8137954252e-06
1.32549193744e-06
2.40275008769e-06
1.23250194712e-07
9.61289939783e-07
1.10089294537e-06
4.40731163021e-06
1.3933129461e-06
2.22351803078e-06
7.1488597581e-07
1.70779161036e-06
1.13919600014e-06
7.65265287285e-07
2.52248834398e-06
1.72154947038e-06
1.33727962039e-06
1.19348033435e-06
2.6144533096e-06
1.62064463802e-06
2.55085439841e-06
2.65129395296e-07
1.66370832311e-06
4.50777101995e-06
2.17469501457e-06
1.14287025264e-06
3.63769936218e-06
5.68271343098e-07
8.44838753721e-07
3.84446385736e-07
2.69527047552e-07
3.33050430753e-07
1.17938775385e-07
2.97959317097e-07
4.8761888021e-08
4.28991158034e-08
3.50392026681e-07
6.14759223054e-08
2.04760915626e-06
4.21819405625e-07
7.73111847508e-07
3.04077200528e-07
3.67710916503e-07
1.72024124797e-06
4.48631386118e-07
1.06849036809e-06
4.98747660278e-07
1.01403068749e-06
1.43121980574e-07
1.50023329805e-07
3.05039447368e-07
7.11198318155e-08
2.74199216194e-07
9.08492494669e-08
2.25496622815e-07
1.76104164575e-07
1.08316054623e-06
1.05148611177e-07
5.29079206983e-07
3.47501413412e-07
1.05759934205e-06
1.98237781596e-07
4.01170235209e-07
5.13476277738e-07
2.74836318316e-07
3.38043495315e-07
2.95487557186e-08
2.74418590586e-08
1.43563093549e-07
5.53970124552e-07
5.14862739622e-07
3.04134237417e-07
3.0486713263e-06
5.64085405939e-07
9.68026524638e-07
1.90312209558e-06
3.52718763075e-07
1.37622416147e-05
1.21461572022e-05
1.13509858449e-05
8.82396196153e-06
1.12937641186e-05
1.37033463456e-06
1.46010972273e-06
1.80979701994e-06
1.25039258573e-06
3.55428318847e-06
2.76795866703e-07
1.6610284897e-07
1.3430450749e-06
7.57506856653e-07
7.22541856599e-07
8.63986040292e-07
4.94021425286e-07
1.19667483678e-06
2.654754815e-06
2.62357948363e-06
1.10970665403e-06
5.22848758444e-07
9.61010885714e-07
4.90987844891e-06
2.9859010662e-06
7.79749830724e-07
8.78997755622e-07
4.85469860438e-06
8.77570763434e-06
5.98654424882e-06
1.10974323762e-06
1.21460481026e-05
1.85309576326e-05
2.60514627816e-05
1.63196437588e-05
1.77778184732e-06
1.5791194406e-05
9.18519370172e-07
1.93456653694e-06
1.36735819987e-07
4.70288812455e-08
9.87861484168e-07
3.12632342876e-06
2.59725776158e-07
9.92013953491e-07
2.42236441578e-06
1.72060307547e-05
2.46861718659e-06
8.02058817829e-10
1.01810086683e-06
4.74579766448e-06
4.00541004622e-07
1.22728350546e-06
2.68265529395e-07
2.1583364458e-07
8.26262597666e-07
1.22127091182e-06
9.58814174829e-09
3.11260773666e-07
9.9429219205e-09
3.48746842409e-07
6.78425885268e-07
4.37334388225e-07
4.87046509018e-07
2.22748611409e-07
7.5293064403e-07
5.09140830316e-08
1.11124848945e-06
1.10193522345e-07
3.69613646827e-07
5.0144710997e-07
5.90256428318e-07
2.52336796017e-07
8.91973438627e-07
9.29725458448e-07
2.03111287674e-06
3.72331334415e-06
2.64777692085e-06
7.68678157619e-06
7.54724163591e-08
3.20880809589e-06
4.01912639537e-06
1.15707222355e-06
1.59235795969e-06
6.70492077182e-07
1.37484850701e-06
1.69454092278e-06
6.38914912478e-07
7.04039062993e-07
7.5774944758e-07
1.70713360523e-06
4.1075083851e-06
5.39967149413e-06
3.44666640866e-06
5.43778897043e-06
7.41298150207e-06
6.96487212057e-06
4.64583355175e-06
6.74231597772e-06
1.05883940912e-06
6.62245584243e-07
4.76323602423e-05
1.06560811811e-05
3.23638141665e-05
3.79164690212e-06
4.23447189941e-05
5.30081262838e-06
3.4953226449e-06
1.00618529442e-06
5.70231200637e-07
9.961471335e-07
3.99580091533e-08
8.40006961983e-07
2.04406936246e-06
6.803499526e-06
8.6532095587e-06
1.25167287041e-05
1.29616231404e-05
1.38840237237e-05
3.27686938574e-05
4.4197444285e-05
1.12949745192e-05
1.76017833218e-08
2.81342291519e-07
1.74336423876e-06
1.79421388137e-06
1.14966274622e-06
3.61072541327e-07
6.43477257347e-07
1.59599455098e-06
1.21892063359e-06
6.00625536744e-07
1.61714743262e-06
6.33364893416e-07
1.01777576331e-06
3.62169690426e-07
6.68866773594e-07
5.26822551154e-07
3.44244951774e-07
8.44298475599e-07
5.70550793251e-07
1.09764516328e-05
1.19953039265e-06
1.23097343743e-06
1.73747292038e-06
1.5877379727e-06
2.32115750149e-06
6.67826362703e-07
2.70767500199e-06
2.76796455864e-07
7.92950505992e-07
4.67879476434e-07
4.01509133428e-07
2.72064430639e-08
3.51523313902e-06
7.31312064144e-06
1.48325607231e-05
7.59540634624e-06
5.96216660467e-06
4.56786679142e-06
1.63059790404e-06
1.43633045723e-06
3.05518043288e-07
1.51272514483e-06
1.40989428116e-06
6.72050091152e-06
1.00967837401e-05
6.38456149398e-06
1.8102532456e-06
1.70792979541e-06
7.66724534769e-06
2.94933572944e-06
4.69463355111e-08
1.86051358631e-07
1.02228142469e-06
1.0058265625e-06
1.0798837765e-06
1.948754513e-06
1.57869611332e-06
9.74496160996e-06
7.76665738837e-06
3.67334974568e-05
3.02712674175e-05
8.54738314494e-06
1.82322251627e-06
4.17714979854e-06
2.08916916064e-06
1.11357994117e-06
4.59850421e-07
7.51561514554e-07
1.37699709898e-06
3.92503213543e-07
3.27621362682e-06
1.23438182832e-06
1.90916013808e-05
1.33582009889e-06
3.24435346627e-05
3.63353576752e-05
1.58267686768e-06
4.92736508763e-06
2.19630565487e-06
2.1714652985e-06
6.52834025444e-07
1.23016194304e-06
8.72882040066e-07
1.91502644733e-06
9.06429058905e-07
5.59377959173e-07
8.57908909926e-06
1.15780935205e-06
1.74116271836e-06
1.07082853142e-07
1.13673019862e-06
1.27606185409e-06
4.16318320188e-07
4.35521698037e-07
1.94149849008e-06
2.20179094923e-08
1.72117767017e-07
6.76263266919e-07
2.00418488454e-06
2.20347441695e-07
7.81173529777e-07
2.9250311325e-06
2.01030499664e-06
1.49162387086e-05
1.76629902901e-05
5.70157026745e-06
1.48453600832e-06
1.24907333201e-05
1.28621760878e-07
3.68942818644e-06
7.22453019689e-06
1.42903718015e-06
4.48881907481e-06
1.530782323e-06
1.51704160692e-07
2.13814902785e-06
9.50499698e-07
6.57616261329e-07
1.30232870668e-06
1.64612995433e-06
1.92139749951e-06
6.42979992886e-07
5.63753040741e-07
3.5191414783e-06
5.36103619523e-06
9.03335817703e-06
0.000348807844571
0.000336460426245
0.000335600881747
0.0003254649058
4.81599394183e-05
0.000126171325759
1.96753100382e-05
3.14930258037e-05
1.57270112974e-05
0.000150777184414
4.12531946464e-05
2.02720778984e-05
4.986313793e-05
4.36595779888e-05

