# vtk DataFile Version 3.0
File Name: Molecule/arg/arg_2.0-2.vtk
ASCII
DATASET UNSTRUCTURED_GRID
FIELD FieldData 1
TIME 1 1 double
0.0
POINTS 322 double
-2.9626114368 -0.40191242099 1.8288766146
-3.3803191185 0.27619814873 1.5830816031
-2.9778087139 -0.64732807875 1.0282540321
-3.3851306438 0.020605091006 0.78029716015
-2.8572421074 -0.12341678143 0.19014015794
-2.5099601746 -0.44085896015 0.13974657655
-2.6151497364 0.043773386627 -0.44504123926
-2.2220981121 -0.43965539336 -0.90318614244
-2.2882108688 -0.3267776072 -0.55317366123
-2.4281587601 -0.14928746223 -0.99922078848
-3.0254909992 0.11334981024 0.063936665654
-3.2652540207 0.90401178598 -0.35674849153
-2.8113970757 0.70259284973 -0.80373936892
-2.6216404438 0.45470160246 -1.5046160221
-2.8230879307 1.721821785 -0.44238001108
-2.4413490295 1.3698496819 -0.89009559155
-2.2384107113 1.1782271862 -1.5717839003
-2.4492070675 1.9999777079 -0.40687769651
-1.8374578953 1.7487213612 -1.121447444
-1.5202803612 3.1598050594 0.26756045222
-1.7514890432 2.5005149841 -0.61818242073
-2.4803791046 2.6606855392 0.64511650801
-3.1529374123 2.3275828362 1.5271323919
-1.8945248127 3.308927536 1.4924327135
-2.5393984318 2.9658567905 2.2974112034
-2.730329752 2.533274889 2.369301796
-2.9916369915 2.0157530308 2.5801217556
-3.4282298088 1.7813398838 1.7650232315
-3.4089193344 0.59127354622 1.820229888
-3.1220314503 1.7665380239 2.9865221977
-3.1082961559 0.62035733461 3.0058913231
-3.1050746441 0.35030141473 2.0876505375
-3.0774791241 0.062344968319 1.8973869085
-2.8607478142 0.19118787348 2.5132405758
-2.9497585297 0.35381320119 3.1211850643
-2.8879346848 -0.17347744107 2.1388950348
-2.5189476013 -0.69713377953 2.4348731041
-2.4855604172 -0.092329770327 3.3918721676
-2.2377202511 -1.4799728394 1.9269031286
-2.0293688774 -1.0594819784 3.2022657394
-1.7404444218 -1.9484951496 2.7801365852
-1.0048958063 -2.2496850491 2.0710370541
-1.5816152096 -1.7277183533 1.27417624
-2.1913428307 -1.4584276676 0.76122623682
-1.0287356377 -2.1044139862 0.41592895985
-1.6876833439 -1.7891250849 -0.095440283418
-2.3193750381 -0.98949468136 0.24691657722
-1.9814279079 -1.1071243286 -0.523219347
-2.0477991104 -0.78063648939 -0.81684118509
-1.8827080727 -1.3219356537 -1.0588923693
-2.096164465 -0.69442105293 -1.0578497648
-1.8669288158 -0.74617475271 -1.8941631317
-2.3132662773 -0.42142945528 -1.3961006403
-1.6626268625 -1.3476184607 -1.7739355564
-2.1429593563 -0.46548929811 -1.9094867706
-1.9490891695 0.19764514267 -2.4554646015
-1.5719970465 0.14669571817 -2.6808800697
-2.0429677963 1.0146099329 -2.1421937943
-1.6933325529 1.2795268297 -2.257430315
-1.3336336613 1.4638646841 -2.7230772972
-1.847356081 1.5255923271 -1.6428968906
-1.0801064968 2.0491073132 -2.2557249069
-1.4763474464 1.8254525661 -1.7446502447
-1.239008069 2.4715123177 -1.3132565022
-0.52636623383 2.5417914391 -2.3300769329
-0.66557902098 2.9805951118 -1.3582072258
-0.08740220964 2.9736661911 -2.1409492493
0.3224055469 2.9957714081 -1.8238983154
0.45854216814 3.1514823437 -0.89505416155
-0.054376255721 3.3339986801 -2.9857981205
0.58623057604 3.3132998943 -2.6114556789
1.0582221746 2.5639057159 -0.35123279691
0.79318386316 2.6877889633 -1.6655936241
1.5502316952 2.0207388401 -1.2065806389
0.85583233833 2.8132030964 0.48087665439
1.5411709547 1.9150514603 0.02276410535
1.2414188385 2.1812903881 1.0552822351
0.40912783146 3.0906682014 0.8738296032
0.72814458609 2.5285933018 1.2123911381
0.48171615601 2.6835944653 1.6876417398
1.1412773132 2.3973324299 2.0904660225
0.70345771313 2.7257995605 2.3071613312
-0.19901052117 3.4728748798 0.80522322655
-0.035333130509 3.1995890141 1.9146155119
-0.52806401253 3.6689279079 1.8597633839
-1.2353881598 3.6121664047 1.460766077
-0.91067063808 3.5408091545 0.33340361714
-0.15716038644 3.4278907776 2.9604535103
0.56091976166 2.9101116657 3.2539794445
-0.651876688 3.1864864826 3.6551403999
0.11098767072 2.5760548115 4.094604969
-1.2870395184 3.1871967316 3.7515544891
-0.6648606658 2.6947367191 4.0130286217
-1.4547923803 2.7853176594 3.9881432056
-2.0422763824 2.8949329853 3.6016936302
-1.955704689 3.1490991116 3.5091483593
-2.338696003 3.1580808163 3.0545139313
-2.5225536823 2.7970237732 2.983269453
-0.60965716839 1.69417274 4.5554909706
-1.0365967751 1.9858367443 4.4338493347
-1.9823992252 2.0242726803 4.4662747383
-1.4578698874 1.6275992393 4.5968532562
-1.4842762947 2.3382847309 4.2872328758
-2.4639134407 2.2133803368 4.1016325951
-2.1540386677 2.6029200554 3.7844061852
-2.8579070568 2.1735486984 3.4545912743
-2.7162690163 2.4645898342 3.1007919312
-1.1973106861 1.0347462893 4.6567420959
-0.27039939165 1.1096551418 4.7647595406
-0.61154961586 0.17177712917 4.8112268448
-1.5409110785 0.54655110836 4.5861320496
-0.9114049077 -0.38190427423 4.7655997276
-1.7608089447 -0.56603294611 4.2172307968
-2.3412280083 0.23203802109 4.2392106056
-0.44043955207 -0.71254271269 5.0451836586
0.0063496949151 -0.32726785541 5.1322407722
0.1775547266 -1.1743457317 5.0897502899
0.53041160107 -0.54966974258 5.192278862
1.0747705698 -0.80247908831 5.2657361031
1.2139956951 -1.5518466234 4.9261174202
0.48919910192 -1.8773490191 4.8191556931
0.80585074425 -2.2675881386 4.3759498596
1.66961658 -2.0057284832 4.3962812424
1.1409444809 -2.390982151 3.6258349419
1.9025295973 -2.1257252693 3.7773735523
1.8196105957 -1.9956130981 2.9586565495
1.1112207174 -2.3392705917 2.8075113297
1.0263741016 -1.8515321016 2.1306729317
1.9152215719 -1.4787880182 2.3033723831
0.774081707 -1.6625849009 1.2489036322
0.1387963742 -2.1473677158 1.216665864
0.018673172221 -2.5082035065 2.0827155113
1.0452935696 -1.8251007795 0.34595176578
0.042426090688 -2.4758377075 0.34058466554
-0.77299833298 -1.9856882095 1.2142566442
1.4679704905 -1.0985966921 0.029671447352
1.0761461258 -1.3337211609 0.97286558151
1.3539533615 -0.8486866951 0.82398951054
1.3702299595 -1.2312855721 1.7319252491
1.6618449688 -0.76977795362 1.5758417845
2.3387534618 -0.73470723629 2.0015928745
1.6585299969 -0.65528774261 -0.545370996
1.6874505281 -0.15280097723 0.64827394485
1.8459308147 0.22613428533 0.088104069233
1.6700844765 -1.4016269445 -1.0155502558
2.0627348423 -0.23150931299 -1.3446985483
2.2023818493 -0.84789955616 -1.8552135229
1.3702955246 -1.7550510168 -1.7110468149
1.7418752909 -1.3576434851 -2.2796933651
0.89182525873 -1.9208674431 -2.1313354969
1.4340049028 -1.425434351 -2.8864836693
0.61730337143 -1.369959116 -3.0529692173
0.1212991029 -1.89126122 -2.4619584084
-0.39046674967 -1.2753994465 -2.6775074005
0.12983986735 -0.80948257446 -3.4032578468
-0.34310662746 -0.59783691168 -3.1887054443
-1.1488320827 -0.72219181061 -2.5827777386
-0.77744656801 -0.31621012092 -3.1332135201
-0.98697704077 -1.3594045639 -2.3796544075
-1.170711875 0.41366395354 -3.1804938316
0.20204545557 -0.24932581186 -3.9560844898
-0.30736684799 -0.0029935240746 -3.7484643459
0.080313444138 0.73759496212 -4.0855731964
0.53414618969 0.42582005262 -4.239692688
-0.40117508173 1.9384819269 -3.5827534199
0.17658391595 1.6986933947 -4.3812160492
0.029137242585 3.0114815235 -3.6759765148
0.8977599144 3.0825276375 -3.6889731884
0.52745634317 2.2729010582 -4.1978831291
0.85861289501 3.3517045975 -2.8038988113
1.6551802158 2.69363904 -2.5319361687
1.0865648985 3.2578730583 -3.2421190739
1.1349483728 2.6185355186 -2.0327663422
2.104644537 1.6546272039 -1.9669020176
2.1874182224 2.1666874886 -2.5148870945
2.0282561779 1.1081924438 -1.2927000523
2.4224877357 1.272582531 -2.2822480202
2.3414034843 0.58359217644 -1.560503602
1.8642061949 0.77071017027 -0.73085391521
1.9723056555 0.93422472477 0.040827400982
1.8068592548 0.12692752481 -0.80890804529
1.8474503756 2.0362234116 -3.416390419
1.8617743254 1.3017362356 -3.8045351505
0.85405278206 1.523411274 -4.4548721313
1.2479171753 1.5612040758 -4.1620111465
0.38179290295 1.3179905415 -4.4016089439
0.93314301968 2.2276275158 -4.0135269165
1.5758206844 2.5237979889 -3.3370740414
2.072108984 0.65575414896 0.81873053312
1.8568375111 -0.26922217011 1.4475369453
2.1804325581 0.3759123683 1.6056646109
2.7307929993 0.12561655045 2.1537246704
1.8930448294 1.4218828678 1.2218983173
2.0406885147 1.0119290352 1.9545153379
2.536690712 0.96391093731 2.5893688202
1.812923193 1.6083886623 2.2672395706
1.9574397802 1.7967413664 3.1108736992
2.5683376789 1.3179914951 3.3380043507
2.2121219635 1.4899485111 3.9181203842
1.5735367537 2.0463964939 3.8218698502
1.3547999859 1.69363904 4.4028739929
1.9403890371 1.2186762094 4.672044754
1.3236470222 0.81080853939 5.0653305054
0.66474235058 1.4135630131 4.7769832611
0.59765124321 0.84197944403 4.983335495
-0.16210930049 0.44695067406 4.9617967606
1.1787348986 0.010265594348 5.3568358421
0.56976079941 0.14320287108 5.2210044861
0.10954064876 2.0183804035 -4.1123099327
-3.7267787457 1.951215744 0.85690653324
-3.2780985832 2.2588038445 0.23098100722
-3.7198266983 1.5613219738 0.16286383569
-3.724323988 0.78362971544 0.18424624205
-3.7305903435 0.42545333505 0.85796391964
-3.9388444424 1.1841753721 0.87123852968
-2.7645590305 -1.1334220171 1.4717015028
-2.4436173439 0.028118396178 -2.028450489
0.46088835597 3.4530649185 -0.044741213322
-0.28799718618 3.6917805672 -0.29276564717
-1.2209533453 3.2949523926 -0.67172312737
-0.50224763155 3.8236613274 2.5019726753
-1.1119285822 4.0115075111 2.4687013626
-1.1116809845 3.7846896648 3.2505526543
-1.880741477 3.8300921917 2.4757385254
-1.8846204281 3.5750355721 3.2323260307
-2.3407270908 3.4003245831 2.4989936352
-1.9720941782 1.2842507362 4.737054348
-2.5782260895 1.6380605698 4.4805445671
-2.5883934498 0.86311411858 4.5000305176
-3.0528521538 1.596883893 4.0113096237
-3.134717226 0.8784930706 3.8819828033
0.45108094811 -2.7117965221 3.9984643459
-0.16049736738 -2.4460170269 4.5786571503
-0.18837814033 -2.8630027771 3.9189007282
0.46301418543 -2.856657505 3.2295792103
-0.19919340312 -2.9712762833 3.2851243019
-0.15415352583 -2.8611633778 2.6735925674
0.58219748735 -2.6464788914 2.5849215984
-0.18501228094 -1.9169039726 4.95048666
-0.80322295427 -1.4989910126 4.9760699272
[...]
CELL_DATA 640
SCALARS cell_data_0 double
LOOKUP_TABLE default
2.94224699557e-09
3.47844985317e-07
6.33926895364e-07
1.8796393459e-07
2.52887290983e-07
1.60793202805e-07
5.82748763894e-07
4.33266934673e-07
2.08866749158e-06
5.51609903734e-07
7.88131269244e-07
6.56950481183e-07
1.84733010157e-06
1.94749599963e-06
5.60785500495e-07
5.87389665953e-07
8.37457659996e-07
1.93527836895e-06
8.81468750667e-07
4.79920991749e-07
4.32199659011e-07
2.93963735461e-07
1.61414434401e-06
3.61782975908e-07
2.74151260132e-07
6.39838148012e-07
1.01948044232e-06
1.52574858828e-06
6.21924154549e-07
2.92965837745e-07
2.42371437501e-07
1.22331671059e-05
1.05140354032e-05
4.49445014202e-06
6.7819520915e-06
1.32257084042e-05
7.64646643589e-06
1.60145141201e-06
8.31786709816e-07
9.85277903121e-07
2.2814673862e-06
6.61785042822e-07
6.19488983875e-07
5.4934261571e-07
1.32842417016e-06
8.75074381446e-07
4.18484142464e-06
1.50164427885e-06
1.48079764579e-06
7.25938476736e-07
3.09308616045e-06
7.83072003035e-06
3.31526316023e-06
1.88156217255e-06
1.11123996772e-05
1.91144395622e-06
3.76133482223e-06
1.78206125248e-07
7.70865534013e-07
4.59307260885e-06
7.40172406975e-06
3.8408324305e-06
3.0061580051e-05
4.47270407973e-07
3.27811160258e-06
3.27083117293e-06
4.88533694765e-06
3.15931239362e-06
1.45228001951e-07
6.4456211181e-07
1.16236840417e-06
3.07793912607e-06
2.07723144881e-07
1.44984721819e-06
5.19801467654e-07
1.35856267978e-06
2.10021458833e-06
5.56706326607e-07
2.10426187326e-07
7.42819940605e-06
4.15558694073e-06
5.23917837357e-07
9.29169815707e-07
2.18065916625e-07
2.87376802725e-08
2.30401416782e-07
4.8989475045e-08
8.27828781411e-08
2.22259369618e-07
8.96478097394e-09
2.53239477312e-06
1.96259280475e-07
3.26891903965e-07
3.30912653358e-07
4.98324163258e-07
4.46192370244e-07
2.53874963105e-07
4.8905735051e-07
2.70702711643e-07
6.32294651036e-07
1.4725660773e-06
5.29705051952e-07
6.36653692225e-08
2.62139976941e-06
3.78960577221e-06
1.96867720344e-06
4.49034948716e-06
2.73097981256e-06
1.17823996673e-06
6.41367354632e-07
3.05707591216e-07
5.19716175432e-07
4.518825901e-06
2.58916213464e-06
2.59826645838e-06
1.48803220443e-05
1.27784049184e-05
2.86469911993e-05
3.23812058617e-05
2.08960630466e-06
2.87497998467e-06
6.15477311155e-06
3.54538031294e-06
7.74550626652e-06
6.4494829386e-06
1.17571280985e-05
1.79976598459e-06
9.17213504239e-06
9.32541518736e-08
9.16678172506e-06
2.38472795926e-06
5.73971109633e-06
3.72974419437e-06
1.21720972427e-07
1.13752483269e-06
2.23990926088e-06
3.49220321416e-06
2.51930037256e-06
3.57229811599e-06
3.28067267242e-06
3.21099116102e-06
3.16426797952e-07
4.33883876088e-07
2.18849653503e-06
2.43581890308e-06
5.77091495731e-07
1.62149351434e-06
2.34079331228e-06
1.53755296803e-07
1.7262817381e-07
2.14207688923e-06
2.73934807021e-06
3.03950631589e-06
6.10854820403e-06
1.81386113153e-06
3.36813305404e-07
3.09360560511e-06
3.92225536097e-06
2.68686921262e-05
5.19261123835e-05
2.75749610656e-05
4.39337336147e-05
5.10031776026e-05
2.32193212225e-05
3.95168154398e-06
7.58744173309e-05
6.05113408499e-05
2.15081234937e-05
3.85558794232e-06
5.67295056294e-06
1.50186958918e-06
1.30272905292e-06
8.58815919605e-08
3.09557072069e-06
4.2394305732e-07
3.54902415814e-05
1.65395706904e-05
7.43540423726e-06
7.51988846983e-05
2.0217151034e-08
1.39396990143e-06
1.99244752925e-06
9.2783235349e-07
1.6294062308e-06
2.69841787186e-06
9.41886982469e-07
1.70858610601e-06
1.17120379562e-05
3.92825234036e-06
4.39215863062e-06
2.81181258593e-05
2.60610709606e-05
1.90036079128e-05
2.40797842665e-05
5.25033869934e-06
3.99515172642e-08
6.13769616283e-06
6.66072665741e-07
4.0301049746e-07
5.62737561066e-07
5.05922942071e-07
3.90333214936e-07
5.90879675933e-07
8.3170147273e-07
3.32570675006e-07
1.11643462577e-06
5.84656804619e-07
3.1511158603e-07
8.58662961192e-07
4.11630629781e-06
4.10277907404e-06
1.78072383864e-06
1.70969811419e-06
1.23226363683e-06
2.64525294789e-08
1.77196800296e-05
3.19458971929e-06
3.85779696835e-06
9.01271680505e-07
9.44443997156e-07
1.85044798252e-06
1.37562818736e-06
6.37600969877e-06
5.54361555976e-06
4.41274773709e-05
1.13056149899e-05
1.11533929354e-05
5.94790907964e-06
1.31774918108e-05
2.30296510934e-06
8.38820313032e-07
8.08650256185e-08
1.39015036018e-06
5.42110691432e-07
2.93382329321e-07
6.45202539873e-07
1.15995378452e-07
1.25534364028e-06
4.5519630164e-06
1.12786848622e-06
3.03346407413e-06
2.07624751001e-06
2.19717670763e-06
2.55239814292e-06
8.34740683303e-07
1.16335537e-07
2.42081693017e-06
1.90737417179e-06
3.3592993452e-07
1.02224072368e-06
3.09468832002e-05
6.52431468111e-05
8.2758332781e-05
4.73305094266e-05
8.54226455905e-05
4.82142422121e-06
2.88618086349e-06
4.96274135801e-05
4.56533472861e-06
3.75304481876e-06
4.26038524583e-08
2.49654298099e-07
2.24343777303e-07
1.82102247649e-07
4.05208895348e-08
2.66945316767e-07
2.15976610168e-06
2.72723668313e-07
4.09236645057e-07
3.0002539261e-07
1.38184328037e-06
1.13404471711e-06
3.53603362656e-07
8.75388987899e-08
1.68275096966e-06
1.83226002129e-07
4.24960524132e-07
3.32052768958e-07
1.06906316518e-07
1.03665306567e-07
4.54973820617e-07
3.10319788942e-07
1.81820119364e-07
3.35278393494e-06
1.21191622928e-06
3.96371761622e-07
1.14466511632e-06
6.16204315777e-07
4.85181778153e-06
1.2887921185e-06
2.40414560977e-06
1.20165138669e-07
8.76317395482e-07
1.31261286588e-06
4.38350716987e-06
1.15159259716e-06
2.12728346759e-06
7.2562021944e-07
2.11366242198e-06
1.33166548715e-06
9.69677310022e-07
2.37632272339e-06
1.78123690389e-06
1.00884972569e-06
8.62155768184e-07
2.70773040483e-06
1.59909474658e-06
2.9061523003e-06
6.56399770897e-07
2.28081093471e-06
4.45346344405e-06
2.76180154646e-06
8.36926212882e-07
5.01695262778e-06
4.12445876693e-07
1.32123129404e-06
5.73298871935e-07
3.54860182554e-07
2.35425013237e-07
1.08043659337e-07
3.09018099598e-07
1.0132548957e-08
3.87027717756e-08
3.41023080617e-07
2.04424325238e-07
2.09665993789e-06
4.34293714466e-07
1.05754504224e-06
3.81543428341e-07
5.87415154639e-07
1.83687362654e-06
3.99404960093e-07
1.09264754084e-06
4.17089471819e-07
1.04478860614e-06
1.20597779191e-07
4.81526710093e-08
2.53550153935e-07
2.20203453083e-08
3.15382715111e-07
1.37126574909e-07
2.10074841666e-07
2.48185228333e-07
1.24762218063e-06
1.450641105e-07
4.22275566213e-07
8.44759688766e-08
1.11423005677e-06
4.71071948487e-07
3.87604772197e-08
1.37750612775e-07
1.20711404331e-07
1.03615902865e-07
1.71681600706e-07
7.15327375225e-08
1.60747636512e-07
5.19102520995e-07
6.57346245131e-07
4.9962723579e-07
3.04388008015e-06
5.12638148316e-07
1.14822942624e-06
2.80221500858e-06
3.31259166259e-07
1.37713192408e-05
1.17931833693e-05
1.18876471179e-05
8.77788640925e-06
1.15409881575e-05
1.39922445004e-06
1.38507438244e-06
1.81263441301e-06
1.19550552085e-06
3.56665878048e-06
4.05282808516e-07
2.32505676339e-08
1.55789963832e-06
8.20124253559e-07
6.38576484738e-07
7.68933912722e-07
6.2379960495e-07
1.35008836503e-06
2.60211496357e-06
2.54578740276e-06
8.3098645059e-07
1.90216377752e-07
1.52270512657e-06
4.92986749437e-06
2.9899848053e-06
8.57961029049e-07
9.95742761168e-07
4.77192370166e-06
8.53205100421e-06
6.0613571164e-06
1.08099408502e-06
1.21056067417e-05
1.84484097025e-05
2.59785787947e-05
1.62109867695e-05
1.75442627342e-06
1.59269691568e-05
7.53561617199e-07
2.03853960445e-06
5.54536922436e-08
2.13544331769e-07
1.04261864363e-06
2.87386971384e-06
8.04072432349e-08
1.41645216465e-06
3.39481604098e-07
1.75767179225e-05
2.57694884941e-06
2.61147272882e-08
1.0959656637e-06
4.60748214067e-06
2.8318537666e-07
9.72431523917e-07
2.89102112528e-07
5.23452297851e-07
9.07010799974e-07
1.19245219679e-06
1.3479962557e-07
1.05403037771e-07
1.76269899312e-07
5.4386247782e-07
7.58794486322e-07
5.94215451907e-07
6.3279359677e-07
1.05245478969e-07
6.03859499678e-07
2.2190684705e-07
1.0665691075e-06
3.49458667616e-07
3.62820295596e-07
7.38158735674e-07
5.23827113512e-07
5.35429981762e-09
1.03291615327e-06
9.07923482947e-07
2.06968731418e-06
3.40443521702e-06
2.40795485814e-06
7.4105774193e-06
8.71106713211e-08
3.17855885171e-06
4.00816056613e-06
1.14294189536e-06
1.41725032428e-06
5.16197194137e-07
1.16095687863e-06
1.79221749636e-06
6.06710169621e-07
8.51754509589e-07
1.08066321365e-06
1.83464920395e-06
3.9342762612e-06
5.39838558427e-06
2.86348115579e-06
1.82873527751e-07
6.32984555978e-06
3.02102850637e-06
3.78325942886e-07
5.94707944483e-06
3.9237233727e-07
7.47907889436e-06
3.95728247514e-05
9.64181828335e-06
3.11357660792e-05
9.34629574977e-06
6.69675208304e-05
1.83156615851e-06
3.25445424124e-06
1.25643806428e-06
3.00952093324e-07
1.22565208518e-06
2.29214741404e-07
8.3473027343e-07
2.07841099304e-06
6.60680597662e-06
8.72595544769e-06
1.23512882957e-05
1.28390022262e-05
1.39485224994e-05
3.27869581386e-05
4.41625639634e-05
1.1136996828e-05
6.65347399545e-08
2.52573857582e-07
1.89092641357e-06
1.50994956777e-06
1.60609070289e-06
8.40523420008e-08
2.98768534214e-07
1.84132806078e-06
1.35943751337e-06
1.09221715179e-07
5.63808375717e-07
3.62113079729e-07
2.13648159139e-08
3.31869904313e-07
5.69929524059e-07
4.94711149164e-07
5.55795067113e-07
8.09050558435e-07
3.62867582989e-07
1.11954699031e-05
1.19035275023e-06
1.24087050067e-06
1.71185412536e-06
1.59762796985e-06
2.50878957251e-06
6.32634709941e-07
2.64603249821e-06
2.84348716179e-07
6.81131500132e-07
5.26487788878e-07
4.33800550083e-07
8.96073813893e-08
3.55320772731e-06
7.00636801792e-06
1.49734084492e-05
7.57029402247e-06
5.98408984138e-06
4.60830774018e-06
1.5887365509e-06
1.28645641038e-06
3.54820235297e-07
1.48731708758e-06
1.43067453922e-06
6.75445436128e-06
1.00828647102e-05
6.43686802459e-06
1.63838007744e-06
1.80421734575e-06
7.76813576463e-06
3.01783715975e-06
1.1553709963e-07
2.05686701926e-07
9.92744959941e-07
1.01128496761e-06
1.16282316847e-06
1.96912784235e-06
1.6124798068e-06
9.77777073297e-06
7.72218653128e-06
3.67841404119e-05
3.02668449943e-05
8.50513185673e-06
1.93015566124e-06
4.14238255796e-06
2.29112539273e-06
1.12527578149e-06
5.44019560927e-07
8.29843576373e-07
1.30359707443e-06
4.10725427687e-07
3.22424629939e-06
1.35995214161e-06
1.92199893209e-05
1.23774278287e-06
3.2396042187e-05
3.63341021338e-05
1.69140620549e-06
4.92331154435e-06
2.3115793998e-06
2.19221105879e-06
8.1867418806e-07
1.19457647639e-06
8.08678323141e-07
1.87168611532e-06
1.0507324628e-06
5.78150191432e-07
8.66951555299e-06
1.02910528744e-06
1.58961923696e-06
1.56024107209e-07
1.42549587909e-06
1.27916098817e-06
6.12294081015e-07
6.40401771783e-07
2.58172132123e-06
3.08914867485e-07
2.55443767105e-08
4.88793289386e-07
2.30091066723e-06
1.44258619778e-06
6.35612220927e-07
1.98072754686e-06
1.29682496207e-06
2.7072601097e-06
7.36249827526e-06
7.87752347503e-06
1.31892275896e-06
1.30492101939e-05
2.43395870417e-08
3.30810695509e-06
6.96021541858e-06
1.15003614365e-06
4.18736096554e-06
1.54396331533e-06
2.50769491182e-07
2.25840325914e-06
9.92891285374e-07
7.9242546406e-07
1.20922285909e-06
1.38605057118e-06
7.33153069497e-07
1.3560557119e-06
1.26173258492e-06
1.48070128595e-06
3.30099660491e-07
2.6709429e-06
0.000342780911711
0.000318841563888
7.17332142558e-05
0.000116518573382
2.4127659099e-05
3.10308178003e-05
1.62118217717e-05
0.000163949893096
3.26114820229e-05
1.36333528552e-05
5.03146087897e-05
2.57586103324e-05
5.18434208673e-07
2.576399422e-05
1.95397956213e-06
3.28878133333e-05
0.000112221669298
1.07623865972e-05
5.35594966912e-05
1.30891305839e-05
1.09308847839e-05
3.23215514321e-05
2.08832106365e-05
2.14272323301e-05
2.5605812521e-05
8.67428504339e-06
3.73364077542e-05
2.52087207355e-06

