# vtk DataFile Version 3.0
File Name: Molecule/arg/arg_12.5-0.vtk
ASCII
DATASET UNSTRUCTURED_GRID
FIELD FieldData 1
TIME 1 1 double
0.0
POINTS 2236 double
-3.2091934681 0.10491988063 1.6585531235
-3.386744976 0.31409603357 1.6268591881
-3.2662534714 0.0064121843316 1.4157397747
-3.4629969597 0.21896569431 1.3442769051
-3.0802631378 -0.10925294459 1.7323595285
-3.1226682663 -0.22837804258 1.5020208359
-2.9752225876 -0.3782505393 1.855039835
-3.0377156734 -0.47105804086 1.5944160223
-3.4622328281 0.11939364672 1.0705962181
-3.2627813816 -0.092694848776 1.156404376
-3.1186175346 -0.32691794634 1.2443964481
-3.0311710835 -0.57734799385 1.3304642439
-3.384554863 0.016003491357 0.8197349906
-3.2085654736 -0.16561691463 0.89584392309
-3.0679149628 -0.39444056153 0.98088437319
-2.9697749615 -0.66464567184 1.0570855141
-3.1231818199 -0.18441413343 0.63211554289
-3.3075089455 0.0093011632562 0.53053587675
-2.9793043137 -0.41707777977 0.71837300062
-2.8872582912 -0.66724872589 0.78184568882
-3.1421089172 -0.023514159024 0.2980440259
-2.9741389751 -0.20424564183 0.40098157525
-2.8338115215 -0.4332036078 0.48653203249
-2.7434778214 -0.67347538471 0.5400698781
-2.7874145508 -0.17826034129 0.17710694671
-2.9302792549 -0.030130650848 0.095472157001
-2.6677613258 -0.40494582057 0.28776660562
-2.5568170547 -0.6364351511 0.30546227098
-2.6971991062 -0.042538318783 -0.095728963614
-2.8148066998 0.086263611913 -0.168583408
-2.6801695824 -0.011089356616 -0.18751743436
-2.5100297928 -0.19336329401 -0.12042476982
-2.4519174099 -0.16142342985 -0.31865078211
-2.4830453396 -0.090164415538 -0.41437846422
-2.326135397 -0.29205325246 -0.38271000981
-2.331158638 -0.23087891936 -0.65576571226
-2.2779979706 -0.32357379794 -0.56451410055
-2.207821846 -0.47477740049 -0.78370243311
-2.2352817059 -0.42273399234 -0.93848055601
-3.0060093403 0.07506094873 0.028176726773
-2.9529769421 0.28436115384 -0.30489957333
-3.1782016754 0.29615044594 -0.097896844149
-2.6373841763 0.049639254808 -0.40761396289
-2.7761993408 0.24228639901 -0.53105223179
-2.5063471794 -0.025181565434 -0.65308183432
-2.645080328 0.16814512014 -0.77536958456
-2.4267404079 -0.12865321338 -0.90235555172
-2.5647656918 0.064984373748 -1.0315893888
-2.3948652744 -0.26003837585 -1.1554276943
-2.5407366753 -0.055977653712 -1.277130127
-3.2589488029 0.5791375041 -0.24819864333
-3.0293359756 0.53814303875 -0.4352799058
-2.848893404 0.47515511513 -0.64841663837
-2.7170128822 0.39276871085 -0.8880469799
-2.6380448341 0.29418462515 -1.1443377733
-2.6160471439 0.1839954406 -1.4127106667
-3.2640941143 0.89098531008 -0.36482620239
-3.0389156342 0.82200819254 -0.53445202112
-2.8550219536 0.72642040253 -0.73941552639
-2.7257099152 0.63939541578 -0.97037404776
-2.6459598541 0.54777908325 -1.2251753807
-2.6233823299 0.45554372668 -1.4994863272
-3.1733736992 1.1916341782 -0.45855462551
-2.958947897 1.0900027752 -0.61274755001
-2.7864665985 0.97784280777 -0.80873262882
-2.6571569443 0.87657862902 -1.0421375036
-2.5774202347 0.78945171833 -1.3025357723
-2.5521426201 0.72487968206 -1.5710831881
-2.8251302242 1.3504362106 -0.63884937763
-3.0217196941 1.5046173334 -0.48774877191
-2.6626045704 1.2156019211 -0.83316487074
-2.5350329876 1.1043405533 -1.0648750067
-2.4505929947 1.0187437534 -1.3312247992
-2.4103515148 0.97599810362 -1.6042143106
-2.785276413 1.7249467373 -0.49996134639
-2.6308884621 1.5240023136 -0.65183907747
-2.4747049809 1.3957601786 -0.84150469303
-2.3455834389 1.2894523144 -1.077031374
-2.2739062309 1.1890721321 -1.3484477997
-2.1958372593 1.1945779324 -1.6119449139
-2.6324906349 1.929492116 -0.42487859726
-2.518655777 1.6073868275 -0.65655177832
-2.3501310349 1.7928550243 -0.60368341208
-2.2964515686 1.4964771271 -0.88992285728
-2.1245715618 1.6959526539 -0.83346945047
-2.1178524494 1.4459215403 -1.1603603363
-1.9360570908 1.6455421448 -1.1220573187
-1.9907330275 1.4341819286 -1.4850313663
-1.7702535391 1.6722919941 -1.4567831755
-2.3173086643 2.0158884525 -0.4643420577
-2.3642456532 2.2633919716 -0.26473927498
-2.6758379936 2.1971189976 -0.21502427757
-2.0378205776 2.1390228271 -0.55191600323
-2.0852310658 2.374174118 -0.35896840692
-1.7984520197 2.277960062 -0.69902080297
-1.8464496136 2.5218925476 -0.49619594216
-1.6013791561 2.4537825584 -0.88390481472
-1.648342371 2.7139837742 -0.67265230417
-2.6713857651 2.4133851528 0.048180710524
-2.3538606167 2.4697284698 -0.0178973414
-2.0751900673 2.5737409592 -0.12020980567
-1.8428393602 2.7275986671 -0.23961620033
-1.644588232 2.9299485683 -0.40143835545
-2.5985171795 2.5712840557 0.33801051974
-2.3051905632 2.6141674519 0.271263659
-2.0276846886 2.7102894783 0.15045413375
-1.7840328217 2.8711941242 0.030373495072
-1.5913248062 3.0825970173 -0.095072880387
-2.4962100983 2.6541264057 0.65934664011
-2.1995687485 2.6939804554 0.57217139006
-1.9346033335 2.7818050385 0.43152704835
-1.6885370016 2.9474411011 0.32422348857
-1.4790271521 3.1694989204 0.21350337565
-2.7752952576 2.6329221725 0.92103725672
-2.3367116451 2.7188539505 0.92155075073
-2.5850226879 2.7012262344 1.1614972353
-2.1468169689 2.8683354855 1.1605895758
-2.4015598297 2.8436992168 1.3819332123
-1.9800515175 3.0774343014 1.3471966982
-2.2531781197 3.0472455025 1.5785013437
-1.8805685043 3.3229036331 1.5117553473
-2.1601336002 3.2961642742 1.7546765804
-3.0249741077 2.503370285 1.2126116753
-2.8082852364 2.5777108669 1.4274842739
-2.6127998829 2.7273645401 1.6296036243
-2.4657025337 2.9327435493 1.8391305208
-2.3895103931 3.1714684963 2.0380308628
-3.1856958866 2.2901051044 1.5019822121
-2.9111142159 2.4189286232 1.6753079891
-2.7293250561 2.5578043461 1.8848074675
-2.5990085602 2.7463109493 2.1052775383
-2.5513534546 2.9361839294 2.3210456371
-3.3157074451 2.067700386 1.6716008186
-2.9825799465 2.308031559 1.7874689102
-3.1112394333 2.0977630615 1.9260398149
-2.8101284504 2.4178433418 2.0651264191
-2.9573972225 2.1860566139 2.2049543858
-2.7125895023 2.5659790039 2.3399989605
-2.8725600243 2.3074257374 2.5019078255
-3.1949772835 1.8648133278 2.0393452644
-3.4185373783 1.7890765667 1.7997276783
-3.0462310314 1.9337736368 2.335971117
-2.9831511974 2.0039286613 2.6696646214
-3.3500902653 1.4713919163 2.0841627121
-3.2567448616 1.72075665 2.063467741
-3.528036356 1.5005567074 1.8204870224
-3.1387751102 1.7196645737 2.3578898907
-3.2311272621 1.4648860693 2.3897638321
-3.0893368721 1.7389684916 2.6762373447
-3.1850733757 1.4749672413 2.7173666954
-3.1108269691 1.7852227688 2.99939394
-3.2150604725 1.5008153915 3.0426359177
-3.5601966381 1.1857316494 1.8385605812
-3.3802175522 1.1823935509 2.0990700722
-3.2621338367 1.1861264706 2.4032716751
-3.2171959877 1.1899713278 2.7279062271
-3.2499086857 1.1903626919 3.0541877747
-3.3483889103 0.89251947403 2.0783412457
-3.5293834209 0.86285185814 1.8147280216
-3.2267193794 0.9101011157 2.393455267
-3.1810235977 0.90706634521 2.718716383
-3.2087144852 0.8807554841 3.0414998531
-3.4174339771 0.57839685678 1.794852376
-3.2309017181 0.62427586317 2.0853393078
-3.1244392395 0.66327774525 2.3937599659
-3.0852952003 0.67240512371 2.7263278961
-3.0978043079 0.5973533988 3.0111613274
-3.1265339851 0.36297255754 2.0525484085
-3.0965259075 0.10241184384 1.8890209198
-2.9618821144 0.10302031785 2.1692326069
-3.0332701206 0.44810593128 2.3655443192
-2.9052813053 0.23373162746 2.4522221088
-3.0210156441 0.51904910803 2.6815931797
-2.9172344208 0.34098887444 2.7597472668
-2.9760959148 0.38233521581 3.0992035866
-2.8863620758 -0.30468818545 2.1033492088
-2.7224197388 -0.52832710743 2.2819707394
-2.8017473221 -0.12161521614 2.3298141956
-2.6643610001 -0.30642071366 2.4832999706
-2.7895481586 0.064247973263 2.5785992146
-2.6650516987 -0.10134700686 2.7211990356
-2.8441951275 0.23541203141 2.8614370823
-2.7183749676 0.058075059205 2.9671907425
-2.835242033 0.19333714247 3.2481660843
-2.4759540558 -0.46037220955 2.6203048229
-2.5214314461 -0.6985180378 2.4239606857
-2.4815044403 -0.25089865923 2.8563373089
-2.5386910439 -0.078372433782 3.1226558685
-2.6394546032 0.040059458464 3.4021735191
-2.4907886982 -0.95366275311 2.3066868782
-2.3187289238 -0.77139097452 2.618429184
-2.2909178734 -1.0258301497 2.4976744652
-2.1551802158 -0.8764308691 2.851878643
-2.131739378 -1.1320780516 2.7235352993
-2.0478754044 -1.0058805943 3.0974092484
-2.0277600288 -1.2633054256 2.9694001675
-2.005364418 -1.1430016756 3.3537690639
-1.9808636904 -1.4190711975 3.2330839634
-2.2418313026 -1.2382500172 2.336045742
-2.44313097 -1.1717921495 2.137994051
-2.0749108791 -1.3486280441 2.572715044
-1.9682759047 -1.4874361753 2.8043999672
-1.9166389704 -1.6559460163 3.0482964516
-2.3330116272 -1.3614956141 1.9907548428
-2.1314036846 -1.4302066565 2.1875886917
-1.971506238 -1.5384194851 2.413929224
-1.8588454723 -1.6879037619 2.6465008259
-1.7935222387 -1.8861882687 2.8941214085
-2.005168438 -1.5759789944 2.0019528866
-2.1984453201 -1.520134449 1.7938439846
-1.8402173519 -1.6855325699 2.2293009758
-1.7189534903 -1.8408915997 2.4545023441
-1.6452730894 -2.0369713306 2.6626489162
-2.019436121 -1.6353429556 1.6205123663
-1.8263964653 -1.689925313 1.8414741755
-1.6648923159 -1.8006968498 2.0668559074
-1.5375210047 -1.9631028175 2.2827813625
-1.4465004206 -2.1708393097 2.471124649
-1.8173584938 -1.7023569345 1.4393237829
-1.6325993538 -1.7524049282 1.6568329334
-1.4730921984 -1.8626369238 1.8935648203
-1.3364599943 -2.0280511379 2.1016612053
-1.2206161022 -2.2415602207 2.2697179317
-1.5794292688 -1.7253586054 1.2695449591
-1.4104180336 -1.7736124992 1.5073896646
-1.2453751564 -1.8850917816 1.7312483788
-1.1076506376 -2.0484998226 1.9333480597
-0.96940582991 -2.272411108 2.1009600163
-1.8226556778 -1.6802226305 1.1065772772
-1.4176154137 -1.7393637896 1.0072417259
-1.6258050203 -1.7049309015 0.84217274189
-1.2059755325 -1.8480262756 0.76153773069
-1.4466917515 -1.80286479 0.59027147293
-1.0902585983 -1.9970970154 0.51446765661
-1.3098230362 -1.9643921852 0.33971178532
-0.97210943699 -2.2188978195 0.31104314327
-1.2172553539 -2.1720762253 0.1393520385
-2.0008876324 -1.5966200829 0.9111675024
[...]
CELL_DATA 4468
SCALARS cell_data_0 double
LOOKUP_TABLE default
2.03961813053e-09
4.05499940211e-11
1.11776309959e-09
1.11758430432e-09
1.44898544409e-09
1.07814476647e-09
6.68046248567e-10
7.52540147717e-10
1.6958733834e-09
1.75711120436e-10
2.4417593922e-09
7.2698930372e-10
2.19772515197e-09
1.26395334073e-09
1.47488014697e-10
6.92375598216e-10
1.8244165523e-09
2.15710296578e-10
1.39699508113e-09
1.90276330493e-09
9.42899664284e-10
2.35014995422e-09
2.04950864942e-09
1.9629707287e-09
1.7037517036e-09
3.04177236989e-09
7.42236396308e-10
1.45058448039e-09
1.14872982945e-09
1.20223758471e-09
1.18253472569e-09
7.28110060711e-09
5.52499096551e-10
2.23789634305e-09
1.51101861638e-09
1.13271900774e-09
2.5691518566e-09
3.76478239589e-09
4.47960248067e-09
1.23692095596e-09
8.90829224934e-09
1.09060017264e-08
9.74654640025e-10
2.23899319526e-09
3.02046875465e-09
4.34318872213e-09
5.80075210199e-10
4.79529548518e-09
9.402817529e-09
3.93597287751e-09
7.05110698844e-09
1.01475215302e-08
1.83228241745e-08
5.80847594962e-09
3.73701481639e-09
8.99413035999e-10
5.92154809698e-09
1.88564722801e-09
8.44734736195e-09
6.63389324113e-09
9.45458008356e-10
3.57247541748e-09
1.04433996647e-08
2.75725545933e-09
6.08333484035e-10
6.94758737504e-10
7.74352310096e-10
2.82769989926e-09
2.06075191728e-09
5.47481183706e-10
5.83614582356e-10
2.7430813154e-09
1.595908253e-09
8.68958951266e-09
7.67404339191e-10
1.88417345887e-10
1.787484429e-09
3.5999610786e-10
9.55058199303e-10
1.12085438873e-09
1.24052460742e-09
1.30960122242e-09
6.75382841918e-09
2.74029358462e-09
6.09584802497e-10
3.39715240878e-09
3.09686922167e-09
4.59692260067e-09
1.69174739765e-09
5.00415818425e-09
1.64183805196e-09
7.52889575249e-09
8.56791547549e-09
4.4231779576e-09
1.31162854609e-09
3.39266645915e-09
4.75218366371e-09
3.2046394619e-09
7.57641930933e-09
6.08446875832e-09
9.22509968441e-09
9.54352977399e-09
3.27968980846e-10
5.34332412118e-09
2.25738140716e-09
7.49331496978e-09
4.70805544454e-09
6.10986317485e-10
6.65788385519e-10
2.99176408785e-09
2.31822298082e-09
3.95290497413e-09
2.18837593175e-09
4.4553978629e-09
3.00321090054e-09
4.69409729905e-09
4.01086790409e-09
5.39009576506e-09
3.05746589859e-09
3.76577452989e-09
3.09338272202e-09
1.63310214921e-09
4.76763211205e-09
3.88050124131e-09
3.96215425932e-09
5.30784657414e-10
2.11925458977e-10
1.55289044629e-09
4.74345567598e-10
9.85423291639e-10
4.76128033961e-10
3.02726937633e-10
2.09237373044e-09
6.49177975635e-10
8.30977699251e-10
1.35102960395e-09
1.52949678835e-09
2.22278286998e-09
2.00942230288e-09
2.41379578992e-09
5.15037854888e-10
3.30401582746e-09
6.89467698342e-10
1.48111922838e-09
5.05725260404e-09
6.65973615472e-09
5.17105346032e-09
4.97913777223e-09
3.3127934245e-09
5.84900156457e-10
1.71672261509e-09
2.73548164252e-09
1.44594934446e-09
1.61706645743e-10
1.58832095521e-09
1.86221944884e-09
1.50426238928e-09
2.42392836511e-10
2.2896026181e-09
9.62312542083e-10
1.35188174342e-09
4.45855875329e-09
1.4354984873e-09
3.94814850942e-09
2.24631923571e-09
5.18080716575e-09
2.29951912746e-10
1.67057999607e-09
2.36832251662e-10
6.78985615421e-10
3.18515486108e-09
2.2286327995e-11
1.94576221159e-09
1.38146913152e-10
5.73816268189e-10
1.56673372775e-09
2.72669712072e-09
2.87423038564e-10
6.54398135966e-10
5.1120201255e-10
1.73963100995e-09
5.39296618731e-11
1.25041724819e-09
4.82436782373e-11
9.59962910365e-10
1.71279189909e-11
4.33204950484e-09
9.85779244226e-10
1.32270445928e-09
5.52702173159e-10
5.48128974773e-10
3.18990423895e-10
1.12789094852e-09
1.03587987294e-09
2.57559430766e-09
3.07187058976e-10
6.36181727179e-10
1.96114476178e-09
5.25154808178e-10
2.19474685405e-09
6.28616603807e-10
1.94233893938e-09
8.29334309114e-10
2.59528258814e-09
2.17052838155e-09
3.87521218032e-09
2.71014589272e-09
1.42932847223e-09
2.32148975389e-09
1.85617508829e-09
8.75036689289e-11
7.06803365002e-10
1.05291216556e-10
1.99314931076e-09
3.06010813914e-09
1.92347436341e-09
1.8584181166e-09
2.9825218459e-09
2.8806004723e-09
1.62011053186e-09
5.30600968418e-09
2.96914725337e-09
1.03744126711e-09
5.13388439233e-09
5.04615371359e-09
1.94226152887e-09
4.27353963083e-09
1.45033362073e-09
1.1027016102e-09
1.79164588814e-10
8.38251577449e-09
1.30502569111e-08
7.99850735185e-09
5.08164867815e-09
2.33861436312e-10
1.22499178314e-09
9.32481847898e-10
3.03540622558e-09
1.33314266454e-08
2.94490261396e-08
4.81327209105e-08
5.21071898709e-08
9.90804311194e-08
1.66713910611e-08
1.01989429379e-07
4.99694468628e-08
1.05907449414e-08
1.22369078697e-09
1.47846963554e-08
5.74509583614e-09
2.84458902075e-08
2.24067757437e-08
8.57643671548e-08
7.79629166757e-08
1.61317947533e-09
1.33883871369e-08
2.17811536356e-08
2.14967381044e-08
3.59865027465e-08
6.55691207194e-09
5.85176643528e-09
3.87333981927e-08
2.37960029919e-09
6.59139660087e-10
4.17101741328e-09
5.36949855623e-09
2.24316892949e-08
1.14328496044e-08
4.14941365942e-08
3.06554924525e-08
1.5371553795e-09
5.10169119514e-10
7.4825284389e-09
7.31609501079e-09
7.73020577483e-09
3.16034951533e-09
4.0911695199e-09
5.13636971623e-09
7.18088737674e-09
2.03777795399e-09
3.78228638007e-09
5.17231718983e-09
6.30068348931e-09
7.51452098221e-09
1.027981597e-09
3.07026093651e-10
1.28566899143e-08
8.35766317374e-09
5.48265866895e-09
6.36285322186e-09
2.35069253929e-09
1.47827647416e-08
6.92280635087e-10
2.64119643676e-09
2.44622697281e-09
2.17962849891e-09
6.77668406029e-09
6.1410137884e-09
9.13458473397e-09
7.03691989913e-09
1.05352471079e-08
4.08894887289e-09
4.54907404266e-09
2.56131130769e-10
1.1911965825e-09
5.88814653194e-10
1.30932210953e-09
1.45673060426e-09
8.776747068e-09
3.24967058335e-09
8.42218865532e-10
1.59030642819e-09
3.61242961165e-10
8.06555352143e-10
6.19378119545e-11
1.27239238024e-10
7.10721536631e-09
2.96530369627e-09
7.32295256859e-10
3.93475561979e-09
5.22770339955e-11
1.43810824907e-09
1.48514061867e-09
9.53325321659e-10
7.17457247234e-09
1.97956723304e-09
3.96494633699e-09
4.7930535464e-09
1.17746842695e-09
6.09418726364e-10
3.86636625244e-10
1.72989440486e-09
5.41330125976e-09
5.83596855366e-09
2.46806511553e-09
6.61060582694e-09
3.28132282567e-10
5.86715775519e-09
1.73705669333e-09
6.02876446148e-10
1.06014962212e-08
2.21101026594e-09
3.96959065221e-09
1.58492247019e-10
4.0473937884e-10
6.9101391381e-09
3.80107349476e-10
5.22231366966e-09
8.80380862837e-10
1.16328387284e-08
3.68672870064e-09
2.73370690252e-09
9.01584583647e-09
1.35379658247e-10
1.27879213262e-08
7.03360220335e-09
5.61037623743e-09
1.66789133493e-09
6.2702279558e-11
9.0672743685e-09
8.21801276675e-09
3.2209568838e-09
3.95974153835e-09
1.07329065357e-08
3.0437452157e-09
7.64949755786e-09
1.02407780917e-09
9.49653049848e-09
7.40299538117e-09
4.68787905652e-09
9.84461638695e-09
1.58398489857e-08
8.83933775316e-09
2.31530024399e-08
1.00590211762e-08
1.03127050141e-09
1.00387589337e-09
2.32289577547e-08
3.24762985683e-10
1.72659701955e-10
6.0031491829e-09
1.55090599308e-09
2.42966047838e-10
8.04162942403e-09
9.33033572973e-09
8.75444301304e-10
7.9341088325e-09
3.16676606477e-08
9.62062214564e-09
2.43778754174e-08
7.61169896478e-09
1.34783207659e-08
5.34778344517e-09
1.34416350836e-08
9.57049399818e-09
7.7087843562e-09
1.60546622194e-08
1.52012440652e-08
4.51095707993e-09
3.37281241893e-08
2.20028269941e-08
3.08994821664e-08
1.2648764503e-08
2.21164510947e-10
7.13277336741e-09
4.99539662611e-09
8.94029215304e-10
1.44793911491e-08
1.46026163183e-08
1.4768676374e-08
2.99194888745e-09
3.6795467346e-09
1.00383349e-09
5.1812174622e-09
1.69151397407e-08
3.26998620254e-09
1.60895790285e-08
6.05134147307e-09
2.43078086401e-09
6.26761624882e-10
8.89827982501e-09
2.19496618956e-09
7.16097648602e-09
1.29301963457e-08
1.01555255672e-08
3.96791697198e-08
2.06956980551e-08
2.17705693897e-08
2.47760591935e-09
2.10719958e-09
7.19646640665e-09
1.97919097837e-08
1.13379040345e-08
1.61611945499e-08
4.29661695817e-09
2.55805321351e-08
1.1220935629e-08
4.17159749041e-08
9.06678491925e-08
3.65514571851e-08
1.19462525416e-09
8.78266634245e-09
2.02541338923e-09
9.62009434923e-09
7.31500385537e-09
2.40404315505e-09
4.91838072743e-09
4.78943525482e-09
1.45634307611e-09
2.7375094338e-09
2.17791076404e-08
2.7463881992e-09
2.20452514896e-08
3.97625864526e-08
8.21525034438e-09
1.75490537533e-08
7.1600520561e-09
1.70037159488e-08
1.4173512378e-08
3.20501926681e-09
1.14844475125e-08
3.19168612349e-09
2.22667844655e-08
2.3244427218e-09
5.68140721645e-08
1.31382552587e-08
3.78016614288e-08
1.15124332859e-07
5.51871715407e-09
1.6062493092e-09
3.23351468528e-09
3.98938218548e-10
2.35389151731e-08
1.31320981828e-08
1.23742597875e-09
8.01420665251e-09
1.09055842058e-09
4.28426069512e-10
1.24610237406e-09
6.70602421073e-10
8.8187873176e-09
1.73594009012e-09
2.74995419107e-08
2.52845418691e-08
5.85194851714e-09
5.01071571405e-09
6.85829069478e-10
1.29948761119e-08
5.27156885121e-09
2.92059874517e-08
1.33723992801e-08
9.3964317543e-09
2.87586627197e-09
8.17920084515e-09
2.25832909883e-09
6.65786286417e-09
9.43937175763e-09
1.61208312046e-10
6.23020215315e-09
1.38958444387e-09
4.54228449144e-09
4.5527360505e-10
3.99729516667e-09
1.02159686216e-10
1.66226048904e-09
2.57970376336e-09
1.39438002137e-09
4.17592340933e-09
1.14353496951e-09
3.44557643621e-09
5.09465601991e-09
3.13394619873e-09
3.80126639663e-09
1.95250337131e-09
2.98301738276e-09
1.37038850221e-09
1.01465287301e-09
1.35854220379e-08
1.11657034308e-08
1.96045466941e-08
2.50810599507e-09
7.85683594408e-10
2.30847765042e-09
6.42506221499e-11
1.6289603674e-09
4.14309580734e-10
3.0387057154e-09
9.47742618406e-10
5.87823308849e-10
1.3399271022e-09
2.21558232432e-10
4.99797201053e-10
6.16178696397e-10
5.48085320428e-11
8.55214026611e-10
1.51547823372e-09
8.08629541242e-11
1.78459285686e-10
1.30167644433e-09
1.04026358567e-09
2.88170175588e-10
1.06440365651e-09
3.13888359831e-10
8.2053353756e-10
7.32679800336e-10
2.27107133097e-10
2.06354840775e-09
3.80893237749e-10
1.0460945441e-09
4.04797884417e-10
1.90332673378e-10
1.86777560603e-10
3.7178937767e-10
1.25132025564e-09
4.7027101216e-10
2.64357173828e-10
1.29105773395e-09
2.07832148799e-09
1.25633753232e-09
8.99852503037e-11
1.05477544853e-10
1.44585709885e-09
4.70211170794e-11
1.0782385769e-10
2.18714916294e-10
2.20391364597e-10
6.16829475257e-10
4.47208545007e-10
1.18366550678e-09
6.88698084288e-10
1.42525656252e-09
9.87481439748e-10
1.52233774494e-10
3.7960085808e-10
7.17962765211e-11
2.5946975292e-10
2.336575677e-10
3.63496213935e-10
1.65629323689e-10
1.10191872268e-09
2.97007317372e-09
3.64376060244e-10
2.46493870575e-09
6.66948776059e-10
1.04082038737e-09
3.50572269237e-10
2.39626019355e-09
1.58763030388e-09
2.28350092273e-10
1.26449398951e-09
3.93460986831e-10
3.40364982732e-09
8.55092449501e-10
1.103820818e-08
9.18532093017e-09
4.41515235424e-09
2.97663329736e-10
1.28918441041e-09
5.65746121414e-11
8.14748216765e-09
5.94156209539e-09
4.23320346935e-09
4.55251567961e-10
3.18927983341e-10
1.79774464702e-09
1.09859497611e-08
2.58973887595e-08
1.12813424661e-08
1.74160603103e-10
1.93703967658e-09
2.62337095828e-10
9.36158163209e-09
1.27835795002e-08
1.81924925666e-08
2.74050765124e-09
9.25205055673e-11
2.59314447617e-09
8.61773662208e-10
6.68996318008e-09
1.72211244026e-08
3.31739777837e-10
2.35135292119e-09
2.7407557181e-09
3.14365324587e-09
4.22291032668e-11
7.62777244815e-09
1.03910518717e-09
7.5741102855e-10
6.9422602327e-10
1.70524758037e-09
4.48944405355e-10
6.37222623627e-10
4.49661570783e-11
1.30395119545e-09
6.07066181648e-11
3.08060063992e-10
2.77441424354e-10
3.24131417562e-10
4.76657341216e-10
1.73250572691e-09
2.09534467537e-09
1.54319771911e-09
1.74201827558e-09
1.51027606472e-09
1.8142037215e-09
1.55521692426e-09
9.12124058411e-10
2.47539468555e-09
5.83461991515e-10
4.24609856764e-09
2.99339610616e-10
6.54990673757e-10
1.90486954573e-09
1.86780761178e-09
1.59308721743e-09
4.45610457737e-10
1.66456230161e-09
2.58398458892e-09
4.89670415589e-10
8.30950139383e-11
1.90005839553e-09
2.28191463062e-09
2.14600649935e-09
2.76529071532e-10
9.81988451346e-10
3.18453129054e-10
2.25814654232e-10
4.16991734317e-10
3.56871112636e-10
2.07926051394e-10
2.97133331897e-10
5.0385822276e-10
4.17026882291e-10
7.04539975351e-10
1.64740245581e-10
6.09134089566e-10
1.62366642191e-11
2.6296956476e-10
5.84668716464e-10
9.88401956996e-10
2.59447837579e-09
1.0101141863e-09
2.67398587898e-09
2.62191775471e-11
2.50892318214e-09
1.32724989448e-09
2.48363184878e-09
1.93495670864e-09
8.11957005646e-10
2.04913952917e-09
1.79925363076e-10
7.02856040467e-10
1.42870140268e-09
4.3455220645e-09
3.41833714994e-09
3.37181123593e-09
1.64641988633e-09
1.39848005156e-09
1.10987305369e-09
7.80856029687e-10
2.07345773627e-09
2.33713935851e-09
6.82940095546e-10
9.08736298731e-10
1.24485441478e-09
1.63019438251e-10
1.55715444185e-09
2.17065139341e-09
2.09442793344e-09
8.46300098356e-10
7.8395445924e-10
5.10878702008e-10
6.20748119555e-10
1.75302792415e-09
8.02165687901e-10
2.30493300949e-09
7.5414604671e-10
1.76894182125e-09
3.12408545439e-09
1.64166990224e-09
4.48367012559e-09
3.41032405514e-09
6.17707907985e-10
2.90347729106e-09
9.49087225377e-10
2.89005940512e-09
7.12541415755e-10
1.76141395393e-09
5.82464610255e-09
1.2061370746e-09
1.10175331832e-08
7.92758040514e-09
2.44921637431e-10
4.94890324181e-09
2.07761442424e-09
7.64840898113e-09
6.46408948061e-09
1.31455357092e-08
7.91604905891e-09
8.42601408686e-09
6.65995036775e-09
1.09306727758e-08
1.39417623451e-09
5.96624565546e-09
4.53912813133e-09
7.97202225401e-09
5.54284486091e-09
1.88021309546e-08
3.70497467006e-09
3.63727817474e-09
1.07296681229e-08
3.56498354108e-09
8.83942096335e-09
6.81415183922e-09
1.46625355859e-08
5.79624113762e-09
3.51953553466e-08
3.67752326029e-08
3.22264724351e-08
5.6541279337e-08
3.98576510389e-08
7.702224716e-08
1.19520196691e-09
2.34863135415e-09
3.58690162073e-09
4.12325758875e-09
1.96673067827e-10
2.62625413818e-09
2.46973735858e-09
1.00385547686e-10
1.86294378377e-09
4.11466244998e-10
3.35400162541e-10
2.81413445746e-09
7.80854169481e-10
4.38251791424e-10
4.74001016546e-10
9.91309677785e-10
1.35488740271e-09
1.98838571779e-09
1.03264771868e-09
8.7355757023e-10
5.2291569368e-09
3.93009762908e-10
2.58054722887e-09
7.31322091367e-10
2.6257646133e-09
4.17383072821e-09
2.27306793035e-09
6.7334353819e-09
2.17635625415e-09
4.34833595177e-09
5.91451119346e-09
6.05532040183e-09
4.95407480152e-09
5.97440184292e-09
2.19842433398e-09
7.05717471245e-09
4.41367272316e-09
1.63027417152e-08
1.22666357022e-09
3.3560960746e-09
1.05896954035e-09
1.88595029748e-09
4.21976199216e-09
1.38622948109e-08
2.63381647373e-08
1.51983279285e-08
1.94828291927e-08
2.684568886e-08
1.62160142857e-08
9.425639247e-09
9.32593523e-09
3.86563382484e-08
1.8774096901e-08
2.92280761011e-08
1.44502746736e-08
5.42286372987e-08
2.15539587872e-08
2.27595963105e-08
5.74093693751e-08
3.87737860349e-08
3.07756112635e-08
5.07219330517e-08
1.60216733196e-08
3.39498000209e-08
4.38342082305e-08
4.87574771884e-08
3.88773372069e-09
6.84553359792e-10
4.59005808432e-08
2.96713449243e-08
3.55943831544e-08
3.75087658788e-08
1.50715259293e-08
3.81078563978e-08
2.46844448773e-08
3.04240207507e-09
1.34199636998e-08
2.90309921838e-08
1.72631712428e-08
3.95823970847e-08
8.09776538613e-09
3.29645748382e-09
1.69514375873e-09
6.35583722163e-11
5.25377260296e-09
4.73816091954e-09
4.99449263914e-09
4.23437582881e-09
2.23025106715e-09
5.92822732885e-09
2.9568007157e-09
7.28916804816e-09
1.00617373466e-09
8.7188806598e-12
3.10960530409e-12
3.02993593326e-09
4.54698536334e-09
3.32955089907e-10
5.44382800105e-09
7.4461756984e-09
1.50546442628e-09
7.12456689838e-09
3.24148815499e-09
4.63196339903e-09
1.14987525251e-08
5.24030044949e-09
1.51958010462e-08
1.8344941491e-08
3.1080579752e-08
7.85880185331e-09
2.27277122687e-08
1.59154436095e-08
4.20331075564e-09
6.59302324933e-09
4.11735608042e-09
1.49223765261e-09
1.12459458163e-09
1.57807445075e-10
7.94290952075e-09
9.85199954506e-10
4.81286083934e-09
1.27029167122e-09
6.66968254687e-09
8.07002198669e-09
7.87084130485e-09
5.41560381677e-09
2.03949659593e-09
3.84044010232e-09
3.63110100409e-11
6.29641921324e-09
3.31812742378e-09
5.97476056595e-09
2.39755758252e-10
5.82612099649e-09
1.70346610724e-09
1.00036984869e-08
3.26806659155e-09
1.63942701431e-09
1.64346788107e-08
9.109616252e-09
3.13130967976e-09
3.73718025446e-09
4.02765280804e-09
2.10131016967e-09
2.05782047073e-09
1.11651082667e-09
2.72166595348e-09
3.48692322956e-09
4.34369381255e-09
3.70361218114e-09
1.21949853686e-08
5.55777780995e-09
1.2001183622e-08
1.20536475937e-08
9.56279727457e-10
3.92775665585e-09
7.16722366247e-10
2.82294375988e-09
3.18637553048e-09
2.67365085475e-09
3.35289223969e-09
4.72506340815e-09
4.28869003527e-09
5.14583473746e-09
5.95954609656e-09
8.01275054716e-09
5.04156989845e-09
1.14117325999e-09
2.11300174801e-09
2.81942036415e-09
2.10468878813e-09
2.15807951445e-09
1.78999124617e-09
8.94945619827e-10
1.3556390776e-09
3.20484213409e-09
1.91883522442e-09
1.41556055367e-09
3.92102702707e-09
9.43650886872e-09
9.66571577769e-09
1.22825387633e-09
1.02315411368e-09
1.89573729958e-09
1.87128443689e-09
3.46861434919e-09
1.16005470305e-09
2.88645285387e-09
3.06009663847e-09
1.90093751785e-09
4.66838429183e-09
1.00348373568e-08
1.18429045306e-09
1.37096024851e-08
4.14651236853e-09
5.23209284965e-09
5.33214730904e-08
5.72679818699e-09
4.35015467482e-08
1.15773711786e-08
1.60313913487e-08
8.33536865319e-09
1.52564760456e-09
9.79344231033e-09
8.23039618239e-10
1.83981231478e-09
1.96913165446e-09
7.82930610279e-10
2.26803398332e-09
1.63124557309e-09
9.10902817523e-09
2.29089969623e-09
7.59944731174e-10
4.07285663678e-08
4.28217164202e-08
1.06113030642e-09
1.79336776275e-08
1.24412330505e-10
2.06190109907e-09
2.78694959138e-09
4.21153344324e-09
3.65591836197e-09
3.1383264497e-09
2.02499296717e-09
4.85453703562e-09
6.2103665122e-09
2.41340699703e-09
1.6948157583e-09
2.39385931922e-08
9.60416515075e-09
9.31189183133e-09
5.32072364328e-09
7.09440382271e-09
9.45809440782e-09
2.01560526751e-09
6.61833723408e-09
3.54579100937e-09
2.65743500486e-09
7.04682233297e-09
1.37589058222e-08
1.53154650074e-09
5.48588373122e-09
1.26999512902e-09
2.51876830254e-10
1.85803703258e-08
5.92434043146e-10
8.59435298958e-09
2.31131743093e-09
8.30266204971e-09
8.19072910812e-09
4.72174558578e-09
1.58229043459e-08
2.3015283042e-09
4.14807678436e-09
9.40973589771e-10
5.25060364838e-09
3.41687595538e-10
1.2921638939e-08
1.7807125419e-08
1.42832566023e-08
7.27762203361e-10
4.54256381604e-09
2.67339555378e-09
9.86422823626e-09
6.91377460382e-11
1.10712302982e-08
8.36576238609e-09
4.51372591436e-09
1.09183977422e-08
3.05844747077e-09
1.57661653163e-08
9.77559067852e-09
1.36663870999e-09
1.03593293544e-08
4.75598782489e-09
3.80501792463e-09
6.61538651423e-09
2.53847009751e-09
2.54188170509e-10
8.86849280506e-09
3.19821437728e-09
1.21262880687e-08
2.26212059393e-09
4.42680486922e-09
6.7517850135e-10
4.91106011782e-09
1.85754365241e-09
1.04093154814e-08
1.46279072888e-08
1.38011280394e-08
2.79431063955e-10
4.49801058972e-09
7.76253262077e-10
4.63097778137e-09
1.02431786667e-08
3.66456144152e-09
8.27697716068e-09
7.24237454874e-09
1.9165799476e-09
3.43700008201e-09
2.83225515538e-10
4.23471436037e-09
2.55964552171e-09
7.88030018696e-09
6.73620830434e-09
9.45599437351e-09
2.88098813778e-09
3.50953711704e-09
3.50119551784e-09
5.74413976178e-10
5.01505774429e-09
4.70469482814e-10
4.84565321109e-09
2.10811975984e-09
1.37324403069e-09
2.18434371986e-09
9.58534458978e-10
3.82976517056e-09
7.04226378397e-09
5.46031425986e-09
1.04346175177e-08
6.42184160948e-09
3.92492066686e-09
4.3542215498e-10
7.69441483298e-10
2.45874384826e-09
6.35186890112e-10
1.02561016249e-09
1.226468903e-10
3.25971382749e-09
7.84027027763e-09
4.60461201267e-09
1.85980513283e-10
3.03739240102e-09
8.6958458968e-09
1.0232299581e-09
1.60489218681e-08
9.26882449738e-10
6.72249177942e-09
3.49887891406e-10
5.6292341685e-10
4.38175389507e-09
9.20034983376e-09
8.89951662232e-09
8.59470737935e-09
1.00992574922e-08
6.32481243435e-09
1.22440701778e-08
5.65788424829e-09
1.02766120284e-08
5.47816308393e-09
8.18267740005e-09