# vtk DataFile Version 3.0
File Name: Molecule/arg/arg_0.5-6.vtk
ASCII
DATASET UNSTRUCTURED_GRID
FIELD FieldData 1
TIME 1 1 double
0.0
POINTS 177 double
-3.4372963905 0.23968450725 1.4284119606
-3.1600146294 -0.12256467342 0.57864451408
-2.9763965607 -0.73413056135 1.372805357
-2.5486445427 -1.0926824808 0.63717544079
-2.9809682369 0.22227314115 -0.18783816695
-2.487537384 -0.47809895873 0.14126819372
-2.216919899 -0.53228497505 -1.2734173536
-2.2032792568 -0.47415727377 -0.90424799919
-2.5004863739 -0.11797186732 -1.2231991291
-2.3975017071 1.0951733589 -1.3003828526
-3.0252933502 1.7255510092 -0.3724180758
-2.2234113216 1.8181655407 -0.64452034235
-1.874779582 1.5396864414 -1.590852499
-1.696959734 1.9320509434 -1.0896195173
-2.5269153118 2.6256387234 0.46084269881
-1.7613488436 2.6027550697 -0.55526053905
-1.4314334393 3.2444813251 0.094211004674
-3.131367445 2.3804411888 1.3516476154
-1.8590065241 3.3307590485 1.4810603857
-2.4599452019 3.0861196518 2.2234494686
-2.9297969341 2.173979044 2.7204768658
-2.769546032 2.4673316479 2.1887097359
-3.4154472351 1.7977899313 1.8104228973
-3.192214489 0.76369714737 3.2053413391
-3.103315115 1.781917572 3.0287208557
-3.3827273846 0.78394329548 1.9774470329
-3.0174024105 0.4555054903 2.4222311974
-3.1178584099 0.2325220257 1.9685035944
-2.77932477 0.12692181766 2.9195861816
-2.870759964 0.035341948271 2.2865195274
-2.9974484444 -0.22202290595 1.8540649414
-2.5108840466 -0.71178072691 2.4298205376
-2.442253828 -0.052354440093 3.699287653
-1.7384396791 -1.6986173391 1.3696162701
-1.970634222 -1.2522344589 3.4408667088
-0.93897849321 -2.3857946396 2.1874418259
-0.95471459627 -2.2293758392 0.29533162713
-1.9624868631 -1.3716372252 0.12285792828
-2.0532505512 -0.80139130354 -0.59023398161
-1.9280376434 -1.2278623581 -0.71634984016
-2.0247709751 -0.83184659481 -1.2289341688
-1.6809800863 -1.8019689322 -1.4056590796
-2.3085410595 -0.28700560331 -0.47982811928
-2.2046537399 -0.49197944999 -1.7693095207
-1.757717967 -0.77228158712 -2.0525074005
-1.5605175495 0.14352707565 -2.7015209198
-2.3427217007 0.20721960068 -2.225646019
-1.7429115772 1.0222190619 -2.4266638756
-1.086068511 0.68928170204 -3.4058539867
-1.5115861893 1.5621027946 -2.1879270077
-1.1809110641 1.6555128098 -2.964830637
-1.1177694798 2.0703861713 -2.1734850407
-1.4817558527 1.8437006474 -1.7085924149
-1.3200991154 2.4176700115 -1.262737155
-0.42600435019 2.6038413048 -2.4271841049
-0.80349367857 3.0152785778 -1.2809420824
0.78611308336 2.7021181583 -1.7181700468
0.71167844534 3.4025290012 -2.7606153488
-0.015519526787 3.2514255047 -2.8481395245
0.43976575136 3.36632061 -0.54572373629
1.0707733631 2.4607458115 -0.49433755875
1.5516942739 2.0264985561 -1.2310112715
0.98336583376 2.7628216743 0.20627915859
1.543964386 1.910443306 0.028004800901
1.2183183432 2.2083733082 1.0452942848
0.39105349779 3.1001417637 0.84599345922
0.56005632877 2.7696168423 2.2703080177
-0.27547112107 3.5072147846 1.9775685072
-0.64853549004 3.4479725361 3.4519841671
0.37494784594 2.6996910572 3.936924696
-0.64389926195 2.7170155048 3.9977562428
-1.7675281763 2.7487504482 3.911179781
-2.015781641 3.3699536324 3.3209571838
-2.469014883 2.6693034172 3.3334493637
-0.5345928669 1.8149707317 4.5367164612
-1.06637609 2.2403402328 4.3590545654
-2.4467766285 2.2330510616 4.1020650864
-1.5532605648 1.7482748032 4.5695366859
-0.27778658271 1.0730804205 4.7783813477
-0.97396230698 1.0840135813 4.5915670395
-0.81720924377 0.32411235571 4.6587371826
-1.6681963205 0.72585600615 4.628194809
-1.0399160385 -0.46239387989 4.7522549629
0.13286043704 -1.1911987066 5.0768504143
0.36206066608 -0.33537238836 5.2146353722
-0.11200337112 0.39380332828 5.0284557343
0.79616695642 -1.6801021099 0.92270594835
0.91830188036 -2.0040898323 2.1541447639
1.910806179 -1.4767526388 2.2619898319
1.6983135939 -0.13413798809 0.86771243811
2.3446955681 -0.47285297513 1.9524358511
1.3862390518 -1.1776814461 0.18202506006
1.7605119944 0.20208668709 -0.19912789762
1.7048201561 -0.92857336998 -0.8838045001
1.0906364918 -2.0187530518 -1.815772891
1.6613496542 -1.3873625994 -2.6638631821
2.1933035851 -0.17272502184 -1.4465441704
-0.42628395557 -1.8004350662 -2.4688928127
0.13261058927 -0.81129938364 -3.4020953178
-0.99039632082 -1.2976551056 -2.4238483906
-0.40746259689 -0.8372862339 -2.8870356083
-0.6144361496 -0.29021903872 -3.3280992508
-1.1073809862 -0.58728098869 -2.692148447
-0.18021786213 0.52212947607 -3.9996407032
0.54541271925 0.40566962957 -4.2379984856
0.38620755076 1.3108474016 -4.4031357765
0.069844610989 1.7371168137 -4.2449994087
-0.42116335034 1.9226230383 -3.5747542381
-0.0030104154721 2.8561096191 -3.6004202366
1.0015670061 2.9802575111 -3.5783524513
0.93609160185 2.216114521 -4.026061058
0.46998634934 2.9623014927 -3.8912830353
1.2232394218 3.0289225578 -2.8910965919
1.6061611176 2.6606974602 -3.2658627033
1.6631510258 2.6887805462 -2.5470066071
1.2673863173 2.5868742466 -2.1564679146
2.1927030087 2.1596419811 -2.506291151
2.1285784245 1.6217981577 -1.9630951881
2.4252412319 1.3815442324 -2.5505692959
2.3855292797 0.7345059514 -1.6849490404
1.9070782661 0.91891270876 -0.95055866241
2.0290987492 0.98218095303 0.17834088206
1.9501638412 1.0712447166 -3.9942383766
1.850946784 1.9842385054 -3.4340193272
1.176934123 1.6375417709 -4.1889510155
2.5535502434 0.93565398455 2.5994143486
1.8854111433 1.3145186901 1.3507750034
1.6577591896 1.9332081079 2.1712610722
0.72309398651 1.7641577721 4.6703314781
0.47863203287 0.8078263998 5.0040297508
1.3298174143 0.78628611565 5.0730829239
1.2491248846 -0.802765131 5.3411455154
1.2323093414 2.3638286591 2.1630051136
0.15340164304 2.1591100693 -4.0209355354
1.9622955322 1.5291757584 2.5404927731
-3.9381611347 1.1729227304 0.81925207376
-1.5848948956 3.9566493034 2.4958944321
-2.7310254574 1.3436329365 4.447247982
-1.1139031649 -1.9655387402 4.6366996765
0.76519602537 -2.6566069126 -0.80963271856
3.630294323 -0.48585876822 3.41903162
3.0317327976 0.4067736268 4.8852620125
2.7627766132 -1.1285136938 5.0480809212
2.0455420017 -2.0513596535 4.1213259697
2.1670632362 0.51377815008 5.2882461548
2.1003522873 -0.50364983082 -3.9906284809
1.0030757189 3.4043097496 -3.2926807404
-0.038631163538 3.4389734268 -3.1267814636
0.53884804249 3.7265355587 -3.1019723415
2.1486399174 1.4440881014 4.0935106277
3.0243589878 1.0709187984 3.8517689705
2.109228611 1.6259293556 3.3514559269
-0.022948719561 -2.9454414845 2.9996392727
-1.2144629955 -2.6345043182 3.4738676548
-0.18571078777 -2.5188090801 4.4927959442
0.97339206934 -1.7688156366 4.7403392792
0.76899689436 3.1586942673 -3.7691237926
0.068240784109 3.2121505737 -3.7111282349
1.3145916462 2.1762998104 4.0652966499
0.98952436447 2.7867064476 3.005749464
1.4465875626 2.4455096722 3.341542244
1.6982074976 -1.6359108686 4.9398703575
1.3709876537 -2.1746871471 3.9935371876
0.8658670187 -2.5040328503 3.9266550541
2.0035383701 -2.0184936523 3.1420154572
1.4725000858 -2.1549432278 3.0503559113
0.50940966606 -2.8247058392 3.5154154301
0.53094255924 2.235178709 -4.2169828415
0.67177313566 1.9033308029 -4.4807515144
2.228310585 2.1449599266 -3.0293896198
1.7657847404 2.3825619221 -3.3519191742
2.0661683083 2.5763173103 -2.9732584953
-0.040953084826 -2.8847131729 3.8355500698
0.31844434142 -2.610188961 4.2732272148
0.70272284746 3.6003456116 -3.5904583931
0.38076081872 3.2638447285 -3.8427221775
0.21329289675 3.6705758572 -3.4481294155

CELLS 350 1400
3 0 1 2
3 2 1 3
3 1 4 5
3 6 7 8
3 8 4 9
3 10 9 4
3 10 11 9
3 12 11 13
3 11 14 15
3 15 14 16
3 14 17 18
3 18 17 19
3 20 21 22
3 17 22 21
3 23 24 25
3 22 25 24
3 26 25 27
3 0 27 25
3 23 26 28
3 29 28 26
3 29 27 30
3 2 30 0
3 2 31 30
3 28 31 32
3 31 33 34
3 34 33 35
3 36 33 37
3 3 37 33
3 3 5 37
3 37 5 38
3 37 38 39
3 39 40 41
3 38 7 40
3 42 8 7
3 8 43 6
3 44 41 40
3 45 44 46
3 43 46 44
3 46 47 45
3 45 47 48
3 9 12 47
3 49 47 12
3 50 49 51
3 52 51 49
3 52 13 53
3 53 13 15
3 54 51 55
3 53 55 51
3 55 56 54
3 57 58 56
3 59 60 56
3 56 60 61
3 60 62 63
3 63 62 64
3 62 65 64
3 65 66 64
3 65 16 67
3 67 16 18
3 67 68 66
3 66 68 69
3 70 68 71
3 72 71 68
3 71 72 73
3 72 19 73
3 69 70 74
3 75 74 70
3 76 77 71
3 73 76 71
3 76 73 24
3 20 24 73
3 78 74 79
3 77 79 74
3 79 80 78
3 81 80 79
3 81 32 82
3 82 32 34
3 83 84 82
3 80 82 85
3 36 86 35
3 87 35 86
3 88 86 89
3 90 88 89
3 89 91 92
3 93 92 91
3 94 95 93
3 96 93 95
3 94 97 95
3 95 97 98
3 97 99 100
3 101 100 102
3 102 99 44
3 41 44 99
3 102 45 101
3 101 45 48
3 103 98 101
3 98 103 104
3 105 103 106
3 107 54 108
3 108 54 58
3 109 110 111
3 109 112 113
3 113 112 114
3 112 57 115
3 115 57 56
3 114 115 116
3 117 116 115
3 118 117 119
3 120 119 117
3 121 120 63
3 61 63 120
3 121 92 120
3 92 96 120
3 122 123 118
3 122 104 124
3 124 104 105
3 124 110 123
3 125 90 126
3 89 126 90
3 126 64 127
3 128 78 129
3 129 78 85
3 129 84 130
3 130 84 131
3 27 0 30
3 42 5 4
3 4 8 42
3 12 9 11
3 15 13 11
3 18 16 14
3 21 19 17
3 24 20 22
3 26 23 25
3 28 29 31
3 34 32 31
3 36 35 33
3 42 38 5
3 38 40 39
3 43 44 40
3 50 48 47
3 49 50 47
3 53 51 52
3 58 54 56
3 59 56 55
3 63 61 60
3 132 64 66
3 67 66 65
3 70 69 68
3 77 74 75
3 85 78 80
3 82 80 81
3 131 84 83
3 86 88 87
3 91 89 86
3 96 92 93
3 100 98 97
3 99 102 100
3 105 104 103
3 108 133 107
3 113 110 109
3 115 114 112
3 118 116 117
3 119 120 96
3 124 123 122
3 134 125 126
3 129 130 128
3 0 25 135
3 0 135 1
3 4 1 135
3 4 135 10
3 14 10 17
3 10 14 11
3 135 17 10
3 17 135 22
3 22 135 25
3 5 3 1
3 2 3 33
3 2 33 31
3 29 30 31
3 6 40 7
3 7 38 42
3 9 46 8
3 43 8 46
3 40 6 43
3 47 46 9
3 13 52 12
3 12 52 49
3 16 65 59
3 16 59 55
3 16 55 15
3 53 15 55
3 59 65 62
3 59 62 60
3 72 68 136
3 72 136 19
3 19 136 18
3 18 136 67
3 67 136 68
3 75 71 77
3 21 73 19
3 73 21 20
3 71 75 70
3 137 23 32
3 23 137 24
3 24 137 76
3 76 137 77
3 79 77 81
3 137 81 77
3 81 137 32
3 28 32 23
3 27 29 26
3 34 138 82
3 82 138 83
3 37 39 36
3 36 39 41
3 36 41 139
3 36 139 86
3 86 139 91
3 91 139 93
3 94 93 139
3 94 139 97
3 97 139 41
3 97 41 99
3 45 102 44
3 51 54 50
3 50 107 48
3 48 107 103
3 48 103 101
3 100 101 98
3 107 50 54
3 61 120 117
3 61 117 115
3 61 115 56
3 64 126 63
3 63 126 121
3 92 121 89
3 126 89 121
3 128 69 74
3 128 74 78
3 84 85 82
3 85 84 129
3 140 141 142
3 140 142 143
3 140 88 90
3 140 90 125
3 131 142 144
3 98 104 145
3 98 145 95
3 95 145 96
3 118 119 145
3 96 145 119
3 118 145 122
3 122 145 104
3 108 111 133
3 109 146 112
3 112 146 57
3 147 58 148
3 58 147 108
3 130 149 128
3 125 150 140
3 140 150 141
3 144 141 149
3 150 149 141
3 149 150 151
3 144 149 130
3 141 144 142
3 144 130 131
3 87 152 35
3 35 152 153
3 153 154 138
3 35 153 34
3 153 138 34
3 138 154 83
3 83 154 155
3 111 156 109
3 109 156 146
3 147 157 108
3 108 157 111
3 146 148 57
3 57 148 58
3 132 127 64
3 126 127 134
3 149 158 128
3 128 158 69
3 69 159 66
3 66 159 132
3 127 132 160
3 159 160 132
3 159 69 160
3 127 160 134
3 134 160 151
3 160 158 151
3 160 69 158
3 151 158 149
3 134 151 125
3 125 151 150
3 83 155 131
3 131 155 161
3 155 162 161
3 155 163 162
3 161 162 143
3 143 162 164
3 162 165 164
3 162 163 165
3 164 165 88
3 88 165 87
3 152 87 166
3 133 106 107
3 107 106 103
3 143 164 140
3 140 164 88
3 131 161 142
3 142 161 143
3 133 167 106
3 167 168 106
3 167 110 168
3 106 168 105
3 105 168 124
3 168 110 124
3 110 167 111
3 111 167 133
3 123 169 118
3 118 169 116
3 113 170 110
3 110 170 123
3 116 171 114
3 114 171 113
3 113 171 170
3 171 169 170
3 171 116 169
3 170 169 123
3 163 166 165
3 165 166 87
3 152 172 153
3 172 154 153
3 152 166 172
3 166 173 172
3 166 163 173
3 172 173 154
3 156 174 146
3 146 174 148
3 156 175 174
3 175 176 174
3 175 157 176
3 174 176 148
3 157 175 111
3 111 175 156
3 148 176 147
3 176 157 147
3 154 173 155
3 155 173 163

CELL_TYPES 350
5
5
5
5
5
5
5
5
5
5
5
5
5
5
5
5
5
5
5
5
5
5
5
5
5
5
5
5
5
5
5
5
5
5
5
5
5
5
5
5
5
5
5
5
5
5
5
5
5
5
5
5
5
5
5
5
5
5
5
5
5
5
5
5
5
5
5
5
5
5
5
5
5
5
5
5
5
5
5
5
5
5
5
5
5
5
5
5
5
5
5
5
5
5
5
5
5
5
5
5
5
5
5
5
5
5
5
5
5
5
5
5
5
5
5
5
5
5
5
5
5
5
5
5
5
5
5
5
5
5
5
5
5
5
5
5
5
5
5
5
5
5
5
5
5
5
5
5
5
5
5
5
5
5
5
5
5
5
5
5
5
5
5
5
5
5
5
5
5
5
5
5
5
5
5
5
5
5
5
5
5
5
5
5
5
5
5
5
5
5
5
5
5
5
5
5
5
5
5
5
5
5
5
5
5
5
5
5
5
5
5
5
5
5
5
5
5
5
5
5
5
5
5
5
5
5
5
5
5
5
5
5
5
5
5
5
5
5
5
5
5
5
5
5
5
5
5
5
5
5
5
5
5
5
5
5
5
5
5
5
5
5
5
5
5
5
5
5
5
5
5
5
5
5
5
5
5
5
5
5
5
5
5
5
5
5
5
5
5
5
5
5
5
5
5
5
5
5
5
5
5
5
5
5
5
5
5
5
5
5
5
5
5
5
5
5
5
5
5
5
5
5
5
5
5
5
5
5
5
5
5
5
5
5
5
5
5
5
5
5
5
5
5
5
5
5
5
5
5
5

CELL_DATA 350
SCALARS cell_data_0 double
LOOKUP_TABLE default
1.22064174579e-06
3.10159817357e-07
2.69571488559e-07
1.13213452001e-06
5.02205433153e-06
1.37975927528e-05
1.16092384471e-05
7.26228449851e-07
5.75253099876e-06
2.45752473239e-06
2.92068402732e-07
2.18827535064e-06
6.55900230534e-07
4.91390564349e-07
2.44121917058e-06
2.16462914047e-07
4.48454082792e-08
2.8792825813e-07
4.35638434872e-07
1.13619220985e-06
5.55870940202e-07
1.53077620288e-06
3.48905332746e-06
5.5923698053e-06
3.01274643484e-05
9.36608445326e-05
1.26867788641e-05
1.18015491052e-06
1.43169154383e-06
3.66086738263e-07
3.42836590347e-07
4.26688244034e-06
6.52950652472e-07
4.94690837509e-07
1.13105966474e-06
5.53521582105e-06
2.5733481176e-06
2.71881281494e-06
3.17822154377e-06
2.89047689019e-06
8.42348703468e-06
6.51118616874e-07
1.23626310215e-07
1.33231609596e-06
1.4650313884e-06
1.72317688847e-07
1.46225298097e-05
1.85837407206e-06
5.91731639091e-05
3.11117444544e-06
8.86315808938e-06
2.22760608998e-05
1.31924835486e-06
4.4257174129e-06
3.15670647402e-06
3.46362760387e-06
2.03082257653e-06
1.62018638958e-07
5.61057265607e-06
1.18189406176e-05
2.2723373047e-06
6.3765314054e-07
1.18417788913e-06
5.13156720417e-07
1.31002765916e-06
2.75113436351e-07
2.55851360571e-07
1.45340433732e-06
2.86243676205e-07
3.41408748286e-07
1.06675433737e-06
2.83139662804e-06
2.40891228942e-07
4.85353353307e-06
3.2133672299e-05
1.16993213779e-05
4.68188872376e-06
3.26652579961e-06
8.918406708e-06
3.2273836546e-05
4.57804550655e-05
1.06754667526e-05
1.56979015715e-05
1.62374074022e-05
1.0608697055e-05
2.16108975351e-05
2.21485526465e-05
1.84510919449e-05
4.94102704672e-06
2.9534378784e-06
8.80764658596e-07
3.97655080607e-06
4.47322638271e-06
5.90375417942e-06
1.18693824556e-05
2.15090870287e-05
3.56588831876e-05
4.92190763957e-05
3.19423697909e-05
2.29702703001e-05
1.13743417921e-05
4.9754731475e-06
8.48524014606e-06
7.18912094642e-05
3.70596237021e-05
5.1179483185e-05
2.79583501455e-05
1.59007766888e-06
1.45688982499e-05
1.00229369517e-05
1.631745768e-05
1.74327447228e-05
7.40894034925e-05
2.90786727693e-05
9.00874432527e-05
5.19696022297e-06
3.95547897675e-05
3.17659285178e-05
3.34998506265e-06
1.47166769627e-06
1.14384083879e-06
5.47524295207e-06
6.13060194693e-06
1.46729330875e-07
2.91103528082e-06
8.77445253752e-06
4.4331260104e-06
9.95382695945e-07
8.23802441882e-06
3.14318212359e-06
2.20031315545e-06
1.84269997507e-06
1.16335604384e-06
1.24522903857e-05
3.57190936482e-05
1.32527551013e-07
1.46563373453e-06
2.97260232686e-06
1.02731404035e-05
6.12923156548e-06
1.65539059242e-06
6.49737412756e-05
3.8502603122e-06
6.35147430901e-06
8.89342463406e-06
1.31208803634e-05
4.36708920156e-06
6.47989281838e-07
1.5254741531e-06
5.42416158429e-07
2.37438249808e-06
8.30586575594e-06
1.03231363661e-06
2.29399719387e-05
1.393056822e-06
3.97251342008e-06
4.83246703308e-05
4.0382002869e-05
4.0436257245e-05
5.04478337958e-05
4.33783910814e-05
3.86238690946e-05
8.97612260039e-05
3.054224837e-05
6.4756145821e-06
8.73443441525e-07
8.56179936383e-07
8.01102841144e-07
1.17710086582e-05
3.94860041841e-06
3.3190806868e-06
5.49719411011e-06
1.16601583896e-06
1.60356119134e-06
1.95047801732e-06
3.19342434227e-06
4.54746443657e-06
7.78886564e-07
6.02242359266e-07
6.27923377077e-07
2.32314858195e-05
1.95467096914e-06
4.04052370045e-07
9.52678113066e-06
4.4309448646e-07
8.93702820804e-07
1.79183786189e-05
7.19668609752e-06
1.78126311927e-06
2.48677088661e-06
1.99056467542e-06
2.07861061835e-06
5.16145821918e-07
2.91919493488e-07
5.39262523108e-07
6.47785753567e-06
4.55788630221e-06
1.03699326091e-06
1.9667604535e-06
1.68617033115e-06
6.90289799967e-07
4.30324072151e-06
3.56719252594e-06
1.94872583697e-06
1.33239505454e-06
7.61195578834e-07
4.1831310498e-06
8.66306296447e-07
6.88930787691e-07
4.77237840393e-07
5.00314768791e-05
2.69754741364e-05
4.37079589447e-06
8.9180980506e-06
2.22832407771e-05
7.6303666032e-05
2.00444415689e-05
6.51516911262e-06
1.14177561121e-05
1.96372797834e-05
1.22459354081e-05
5.70459192967e-06
6.91569887795e-06
1.44615703804e-05
7.62637632604e-06
4.90012452614e-05
4.54072073037e-06
3.55269266139e-07
3.17452056983e-05
8.70546656316e-06
1.05543557465e-05
2.53512616048e-06
1.14811601177e-05
8.64429525075e-06
6.28289043398e-08
1.51035618286e-05
8.31632564948e-07
2.01758659533e-06
5.73215752487e-06
3.84136269388e-06
2.80893260131e-05
5.26186255984e-05
3.04148549536e-06
1.50309215414e-05
5.87060931312e-06
3.57310308479e-06
9.97782127316e-06
2.22242532367e-05
2.66124469061e-05
5.85062162029e-05
3.63082870012e-05
4.75537151005e-05
6.60127242507e-06
5.69626873965e-06
1.42632356463e-05
6.22286282069e-06
3.34004315905e-05
3.94203264254e-06
0.000126383380517
3.43884068601e-05
5.39597046693e-05
7.63601137283e-06
4.23427788124e-05
1.11209041503e-06
4.10050242739e-06
1.25408293909e-05
1.1112894392e-05
2.42358818935e-06
4.20944623627e-05
1.02323237044e-06
5.14174240143e-05
1.2015906511e-07
1.89648627277e-05
8.07641848212e-06
8.94128155912e-07
9.54301581948e-06
1.13932073052e-05
9.44475056398e-06
6.64862009006e-05
1.40979617136e-05
1.18637944931e-05
2.07002544413e-05
1.86686326853e-05
2.34264854027e-05
6.36689042537e-06
2.66324586113e-05
2.65278194521e-06
3.10404073734e-05
3.950785839e-05
2.67691401338e-05
7.18829632848e-06
2.23878373019e-05
1.9385537168e-05
1.28597020188e-09
1.51213114342e-05
4.25217786893e-06
1.81931877837e-05
0.000104113232746
1.85244594487e-05
9.79035426535e-05
8.67599830824e-05
4.2088773538e-05
3.92663231394e-05
1.31537604838e-06
2.71430364246e-05
1.32862596571e-05
9.15941775884e-06
2.19319151814e-05
7.41203425164e-05
1.32300146133e-05
5.81574481353e-05
8.38759558099e-05
3.47664389499e-05
1.02249376221e-06
3.78426362278e-06
3.01107514904e-06
5.48954103693e-05
2.17727603507e-05
1.45117196769e-05
1.72987338558e-05
4.01399267727e-05
4.13681676728e-05
1.50562309211e-05
1.97501097406e-05
2.55594860857e-05
1.7416762093e-05
9.87969603855e-07
3.4290482607e-07
1.85188484964e-05
3.10283487053e-05
2.35449391024e-05
1.17636968086e-05
7.96113508794e-06
6.3877244243e-06
8.08388855959e-06
5.87523543176e-06
1.76196866126e-05
5.63890435155e-08
4.13599507024e-06
1.80033603595e-05
6.46409081706e-06
2.24763520108e-05
5.34287020863e-06
5.99039018183e-06
7.27676876441e-06
6.98537674581e-06
2.63504246116e-05
1.45334136913e-05
8.02890386871e-06
9.42010635445e-06

