# vtk DataFile Version 3.0
File Name: Molecule/arg/arg_0.5-1.vtk
ASCII
DATASET UNSTRUCTURED_GRID
FIELD FieldData 1
TIME 1 1 double
0.0
POINTS 146 double
-3.4396297932 0.23898863792 1.3997746706
-3.0877273083 -0.12033168226 0.53818511963
-2.9962847233 -0.57438325882 1.4851549864
-2.5430514812 -0.9937672019 0.58554750681
-2.9676561356 0.11689858139 -0.07049241662
-2.4934971333 -0.46449804306 0.13638983667
-2.2405874729 -0.42174592614 -1.0886739492
-2.2254552841 -0.45266866684 -0.86954182386
-2.4088737965 -0.20447845757 -1.1565567255
-2.392311573 1.0603022575 -1.4137736559
-2.8376846313 1.6918541193 -0.39955756068
-2.2810046673 1.8842526674 -0.67298901081
-1.9395279884 1.4666962624 -1.5298458338
-1.6987618208 1.9311716557 -1.0883527994
-2.5444428921 2.6149539948 0.46724057198
-1.7629721165 2.5103192329 -0.58369380236
-1.4075469971 3.2497806549 0.089104048908
-3.1589243412 2.3185420036 1.4796265364
-1.8536221981 3.3273847103 1.4507565498
-2.4294085503 3.1187744141 2.1985197067
-2.9245746136 2.1809148788 2.7258996964
-2.7024905682 2.5543036461 2.3969590664
-3.4084191322 1.7784235477 1.8601477146
-3.1406433582 0.75446385145 3.0992503166
-3.0917315483 1.7695957422 3.0578887463
-3.3808038235 0.79461234808 1.9868664742
-3.030626297 0.41679394245 2.3219678402
-3.1178414822 0.16040119529 1.892436862
-2.8779580593 0.22768738866 2.9352030754
-2.8576385975 0.013217885047 2.2939581871
-2.9958455563 -0.2183150202 1.8683658838
-2.5088090897 -0.70548421144 2.44815588
-2.4411678314 -0.070153743029 3.5871572495
-1.7502529621 -1.6834002733 1.3753501177
-1.955186367 -1.2718043327 3.4412617683
-0.90166372061 -2.4009823799 2.2493891716
-0.95061868429 -2.2304401398 0.28476116061
-1.9542161226 -1.2564638853 -0.15070196986
-2.2997581959 -0.31338462234 -0.45643091202
-2.041631937 -0.79816305637 -0.78300088644
-1.9352531433 -1.2746809721 -0.99322926998
-2.0605897903 -0.72310054302 -1.2452944517
-1.6554677486 -1.6029875278 -1.557913065
-2.1990454197 -0.50112062693 -1.7708415985
-1.7449609041 -0.76790225506 -2.0728514194
-1.5357871056 0.14340177178 -2.726651907
-2.1620399952 0.21830907464 -2.3172950745
-1.8700079918 0.9607078433 -2.3540101051
-1.0387047529 0.5946726799 -3.4072051048
-1.6241841316 1.451082468 -2.181208849
-1.2692667246 1.5204280615 -2.7791512012
-1.0994484425 2.0741746426 -2.20170784
-1.5034533739 1.8332997561 -1.6903156042
-1.3187018633 2.3979525566 -1.294164896
-0.4150620997 2.602555275 -2.4414818287
-0.79654115438 3.0155477524 -1.2916359901
0.76888501644 2.707444191 -1.700592041
0.71396756172 3.3967068195 -2.7119705677
-0.022334620357 3.2404482365 -2.8208496571
0.41155251861 3.3050370216 -0.61874115467
1.0690151453 2.466347456 -0.51664239168
1.5522984266 2.0131261349 -1.1926803589
0.95784151554 2.7733981609 0.25738859177
1.5371508598 1.9148950577 0.090230375528
1.2058842182 2.2184507847 1.0565915108
0.37412577868 3.1063330173 0.84703886509
0.53908413649 2.7782113552 2.2747275829
-0.20579382777 3.4049053192 2.0213694572
-0.61574482918 3.3100614548 3.4736130238
0.18164174259 2.6900544167 3.9075272083
-0.66163092852 2.7036397457 4.010073185
-1.8603078127 2.7146880627 3.8826355934
-2.0234951973 3.2865350246 3.3266398907
-2.3146600723 2.6532351971 3.5609259605
-0.54514837265 1.8216717243 4.5315289497
-1.0978773832 2.1668374538 4.3579974174
-2.4425656796 2.2175488472 4.1161541939
-1.586368084 1.7611047029 4.5545492172
-0.26595172286 1.054672718 4.7844619751
-1.1536314487 1.0658242702 4.6608228683
-0.64433956146 0.20891143382 4.8010230064
-1.6605638266 0.69942903519 4.6351742744
-1.0607802868 -0.48978123069 4.7335891724
0.11503270268 -1.215901494 5.0667147636
0.32165533304 -0.42746937275 5.1782484055
0.80107700825 -2.5022773743 3.9118521214
1.2925200462 -0.83680742979 5.3275308609
2.0472207069 -2.0571246147 4.0821905136
1.9228643179 -1.495303154 2.3089563847
0.96767348051 -1.8730578423 2.1245417595
0.92707198858 -1.7977045774 0.56394600868
1.4014933109 -1.1728532314 0.26240611076
2.3488643169 -0.44449853897 1.9599393606
1.7021399736 -0.12048409879 0.86541062593
1.7599654198 0.19326227903 -0.23636820912
1.6703785658 -0.82021301985 -0.80876916647
1.102894187 -2.0056774616 -1.831827879
1.6549553871 -1.366133213 -2.6912167072
2.1860642433 -0.20542912185 -1.4626728296
-0.40593272448 -1.5980473757 -2.5023729801
0.16289323568 -0.79911845922 -3.4230978489
-1.0122456551 -1.2615753412 -2.438880682
-0.42462137341 -0.77427709103 -2.9551751614
-0.60863727331 -0.26905223727 -3.3416042328
-1.1047520638 -0.58365464211 -2.6967806816
-0.056927736849 0.55106437206 -4.0212578773
0.5828872323 0.39379283786 -4.2406563759
-0.42328831553 1.9166793823 -3.5724868774
0.36371707916 1.3319269419 -4.3968310356
0.13880304992 2.0331943035 -4.1217751503
-0.026966784149 2.9952819347 -3.6302273273
0.96109354496 3.0522704124 -3.6686623096
0.92105740309 2.2266299725 -4.0188536644
0.48180577159 2.9874267578 -3.8660683632
1.1504346132 3.113877058 -2.9278030396
1.6234215498 2.6441555023 -3.2640793324
1.6656957865 2.6861045361 -2.5602133274
1.2787854671 2.5752997398 -2.1753869057
2.1865963936 2.1691660881 -2.5185039043
2.1145088673 1.6323179007 -1.932185173
2.3992807865 1.3237247467 -2.3728151321
2.392796278 0.71256989241 -1.7053983212
2.0297596455 0.88404846191 -1.1603665352
1.9720774889 0.93500685692 0.02150548622
1.8508851528 2.0186815262 -3.420396328
1.9579097033 1.1374185085 -3.8962385654
1.1894574165 1.6134659052 -4.1908841133
2.5834970474 0.89043825865 2.6992793083
1.8953160048 1.2873948812 1.3678426743
1.8236218691 1.660556078 2.533490181
1.2933411598 2.309486866 2.1349663734
1.3894988298 0.78450113535 5.0225286484
0.65874129534 1.7127118111 4.6728615761
0.58423322439 0.87686866522 4.9763035774
-0.056770231575 0.41781005263 5.0352239609
-3.9323310852 1.1900917292 0.79257881641
-1.6866323948 3.9101760387 2.5082347393
-2.6270232201 1.4253094196 4.4838867188
-1.0870577097 -2.025841713 4.5920805931
0.75194460154 -2.6316316128 -0.84797012806
3.6378831863 -0.44651463628 3.5272223949
2.7894999981 0.49390631914 5.0312581062
2.7830686569 -1.1153962612 5.0429968834
2.1075294018 -0.48981338739 -3.9674441814
0.9360960722 3.4177126884 -3.2972700596
0.05250377208 3.3307700157 -3.0698475838

CELLS 288 1152
3 0 1 2
3 2 1 3
3 1 4 5
3 6 7 8
3 8 4 9
3 10 9 4
3 10 11 9
3 12 11 13
3 11 14 15
3 15 14 16
3 14 17 18
3 18 17 19
3 20 21 22
3 17 22 21
3 23 24 25
3 22 25 24
3 26 25 27
3 0 27 25
3 23 26 28
3 29 28 26
3 29 27 30
3 2 30 0
3 2 31 30
3 28 31 32
3 31 33 34
3 34 33 35
3 36 33 37
3 3 37 33
3 3 5 37
3 5 38 37
3 37 39 40
3 40 41 42
3 41 7 6
3 38 8 7
3 41 6 43
3 44 42 41
3 45 44 46
3 43 46 44
3 46 47 45
3 45 47 48
3 9 12 47
3 49 47 12
3 50 49 51
3 52 51 49
3 52 13 53
3 53 13 15
3 54 51 55
3 53 55 51
3 55 56 54
3 57 58 56
3 59 60 56
3 56 60 61
3 60 62 63
3 63 62 64
3 62 65 64
3 65 66 64
3 65 16 67
3 67 16 18
3 67 68 66
3 66 68 69
3 70 68 71
3 72 71 68
3 71 72 73
3 19 21 72
3 69 70 74
3 75 74 70
3 76 77 71
3 73 76 71
3 76 73 24
3 20 24 73
3 78 74 79
3 77 79 74
3 79 80 78
3 81 80 79
3 81 32 82
3 82 32 34
3 83 84 82
3 80 82 84
3 83 85 86
3 86 85 87
3 87 85 88
3 89 88 85
3 36 90 35
3 89 35 90
3 90 91 88
3 92 88 93
3 93 91 94
3 95 94 91
3 96 97 95
3 98 95 97
3 96 99 97
3 97 99 100
3 99 101 102
3 103 102 104
3 104 101 44
3 42 44 101
3 104 45 103
3 103 45 48
3 105 100 103
3 100 105 106
3 105 107 108
3 108 107 109
3 107 54 110
3 110 54 58
3 111 112 113
3 111 114 115
3 115 114 116
3 114 57 117
3 117 57 56
3 116 117 118
3 119 118 117
3 120 119 121
3 122 121 119
3 122 61 123
3 123 61 63
3 123 94 122
3 94 98 122
3 118 120 124
3 125 124 120
3 125 106 126
3 126 106 108
3 126 112 124
3 124 112 115
3 127 92 128
3 93 128 92
3 129 128 130
3 64 130 128
3 127 129 131
3 132 131 129
3 132 78 133
3 133 78 134
3 133 84 131
3 131 84 86
3 27 0 30
3 38 5 4
3 4 8 38
3 12 9 11
3 15 13 11
3 18 16 14
3 21 19 17
3 24 20 22
3 26 23 25
3 28 29 31
3 34 32 31
3 36 35 33
3 39 37 38
3 39 41 40
3 43 44 41
3 50 48 47
3 49 50 47
3 53 51 52
3 58 54 56
3 59 56 55
3 63 61 60
3 130 64 66
3 67 66 65
3 70 69 68
3 77 74 75
3 134 78 80
3 82 80 81
3 86 84 83
3 90 88 89
3 91 93 88
3 98 94 95
3 102 100 99
3 101 104 102
3 108 106 105
3 110 109 107
3 115 112 111
3 117 116 114
3 120 118 119
3 121 122 98
3 126 124 125
3 129 127 128
3 133 131 132
3 0 25 135
3 0 135 1
3 4 1 135
3 4 135 10
3 10 135 14
3 10 14 11
3 14 135 17
3 17 135 22
3 22 135 25
3 5 3 1
3 2 3 33
3 2 33 31
3 29 30 31
3 7 41 39
3 7 39 38
3 9 46 8
3 43 8 46
3 8 43 6
3 47 46 9
3 13 52 12
3 12 52 49
3 16 65 59
3 16 59 55
3 16 55 15
3 53 15 55
3 59 65 62
3 59 62 60
3 72 68 136
3 72 136 19
3 19 136 18
3 18 136 67
3 67 136 68
3 75 71 77
3 21 73 72
3 73 21 20
3 71 75 70
3 137 23 32
3 23 137 24
3 24 137 76
3 76 137 77
3 79 77 81
3 137 81 77
3 81 137 32
3 28 32 23
3 27 29 26
3 35 89 85
3 35 85 138
3 35 138 34
3 34 138 82
3 82 138 83
3 83 138 85
3 37 40 36
3 36 40 42
3 36 42 139
3 36 139 90
3 90 139 91
3 91 139 95
3 96 95 139
3 96 139 99
3 99 139 42
3 99 42 101
3 45 104 44
3 51 54 50
3 50 107 48
3 48 107 105
3 48 105 103
3 102 103 100
3 107 50 54
3 61 122 119
3 61 119 117
3 61 117 56
3 64 128 63
3 63 128 123
3 94 123 93
3 128 93 123
3 66 69 130
3 130 69 129
3 129 69 132
3 132 69 74
3 132 74 78
3 80 84 134
3 134 84 133
3 140 141 142
3 140 142 87
3 140 87 88
3 140 88 92
3 140 92 127
3 140 127 141
3 141 127 131
3 141 131 86
3 141 86 142
3 142 86 87
3 100 106 143
3 100 143 97
3 97 143 98
3 120 121 143
3 98 143 121
3 120 143 125
3 125 143 106
3 109 112 108
3 108 112 126
3 116 118 115
3 115 118 124
3 110 113 109
3 109 113 112
3 111 144 114
3 114 144 57
3 57 145 58
3 58 145 110
3 111 113 144
3 110 145 113
3 144 113 145
3 144 145 57

CELL_TYPES 288
5
5
5
5
5
5
5
5
5
5
5
5
5
5
5
5
5
5
5
5
5
5
5
5
5
5
5
5
5
5
5
5
5
5
5
5
5
5
5
5
5
5
5
5
5
5
5
5
5
5
5
5
5
5
5
5
5
5
5
5
5
5
5
5
5
5
5
5
5
5
5
5
5
5
5
5
5
5
5
5
5
5
5
5
5
5
5
5
5
5
5
5
5
5
5
5
5
5
5
5
5
5
5
5
5
5
5
5
5
5
5
5
5
5
5
5
5
5
5
5
5
5
5
5
5
5
5
5
5
5
5
5
5
5
5
5
5
5
5
5
5
5
5
5
5
5
5
5
5
5
5
5
5
5
5
5
5
5
5
5
5
5
5
5
5
5
5
5
5
5
5
5
5
5
5
5
5
5
5
5
5
5
5
5
5
5
5
5
5
5
5
5
5
5
5
5
5
5
5
5
5
5
5
5
5
5
5
5
5
5
5
5
5
5
5
5
5
5
5
5
5
5
5
5
5
5
5
5
5
5
5
5
5
5
5
5
5
5
5
5
5
5
5
5
5
5
5
5
5
5
5
5
5
5
5
5
5
5
5
5
5
5
5
5
5
5
5
5
5
5
5
5
5
5
5
5
5
5
5
5
5
5
5
5
5
5
5
5

CELL_DATA 288
SCALARS cell_data_0 double
LOOKUP_TABLE default
9.72961434118e-08
5.84611221509e-07
4.23620369533e-07
5.83713806802e-07
1.22933751821e-05
1.18506806833e-05
8.56279956945e-06
3.2390086901e-07
3.7577020911e-06
6.22015806463e-06
1.32519856005e-06
1.73911468429e-06
3.00485273067e-07
1.0413734031e-06
3.80710814645e-06
1.90078169412e-08
1.94054436396e-07
1.79042996127e-07
7.81959775955e-08
1.28212982054e-06
5.93165031983e-07
1.0865065155e-06
2.94607178183e-06
2.2243612326e-06
1.77403164575e-05
0.000117125244343
1.06182228434e-05
1.37337402713e-06
2.44037896072e-06
3.46441459641e-06
1.18028125129e-06
5.53376012824e-06
9.48893602676e-07
1.94847576678e-07
2.25971719484e-06
5.00170895499e-06
1.37118566135e-06
5.50940460411e-06
2.75843824521e-06
3.5938679679e-07
6.70715271504e-06
3.89335551667e-06
5.95889102344e-07
3.0515005502e-06
8.98247137488e-07
2.16005074789e-06
2.23997901276e-05
6.20332433325e-06
8.22590050394e-06
0.000123729925922
1.91581299947e-05
1.82191406903e-05
2.29479880362e-06
1.89185795464e-05
1.28630290182e-06
1.82691518994e-05
1.06504010407e-05
4.93955129979e-06
8.21845239349e-06
8.17200227602e-05
1.0423397758e-05
2.42725780707e-06
3.18139962169e-06
1.43994475306e-06
5.17115967467e-06
1.70691346603e-06
6.86301476834e-07
1.91246090875e-06
1.35800415599e-06
8.19616838776e-07
6.81026989784e-07
9.0548448826e-06
4.0645307541e-06
4.07363404484e-06
3.35626989613e-05
1.85210865213e-05
7.90500279786e-06
3.01994054373e-05
4.41851240208e-05
0.000625559327395
0.000706557743271
0.000109751219156
9.02117512045e-06
7.89966513331e-05
1.25356429944e-06
8.3384288455e-05
4.34780112243e-05
8.75370288258e-06
7.3789619884e-06
1.66373463767e-05
2.38178222949e-05
9.36577924341e-06
1.61565025098e-06
4.27325551311e-06
3.85852386839e-06
4.97723098705e-06
4.4025261251e-06
1.01101708276e-05
1.92989655604e-05
3.06534997528e-05
0.000111828192294
5.0077494492e-05
4.56936039599e-05
0.000109399274927
3.49648222353e-05
2.54545937072e-05
6.01551692766e-05
6.71966045019e-05
7.11781078354e-06
4.3856992341e-05
6.08637409466e-05
4.17712263032e-05
5.75407014242e-06
2.43233308812e-05
3.59319267669e-05
1.55301996083e-05
2.53414010158e-05
4.39446269552e-05
2.56004609888e-05
3.78419502077e-06
7.17984408999e-05
0.000132735991882
0.000136845785808
0.000116628897327
0.000155030909809
0.00015777479193
6.48487642849e-05
0.000856631180761
0.000250371410542
8.19411151198e-06
3.97326319474e-06
1.39877844287e-05
7.5313142647e-05
6.30494877464e-07
2.33305939148e-06
1.15986861131e-05
5.15074484422e-06
1.88818522048e-06
9.77125499541e-06
2.94098626861e-06
2.16064148656e-06
1.7487245115e-06
9.36761224514e-07
8.01205659423e-06
2.98691352679e-05
1.74333262531e-06
7.40618675369e-07
5.05566726011e-06
1.25084621227e-05
5.30018251964e-06
8.01936292299e-07
2.11360882489e-05
2.22813798503e-05
1.19069339227e-05
1.64289043042e-05
9.00623376582e-06
1.12418449487e-05
4.58700148034e-06
1.10235064023e-05
7.82422140555e-06
6.5703331004e-05
9.84069124195e-05
3.40836298647e-06
2.94837475831e-05
5.6049841844e-07
5.51831028977e-06
9.82854759993e-05
5.5781568829e-05
9.66820181319e-05
4.5212804624e-05
0.000100807914063
2.14220802243e-05
9.0072103762e-05
0.000396531352385
1.8299769629e-05
3.81283294625e-07
9.38006196028e-07
2.4414692152e-07
1.31089195554e-05
3.50591577908e-06
3.57191937255e-06
3.15130447443e-06
1.06842320429e-06
1.99221030603e-06
1.03868717534e-06
6.79507217471e-06
9.85263884493e-07
2.60984588916e-07
1.23454866518e-06
1.0738996741e-06
3.76528394236e-05
3.44938823752e-06
2.37658993547e-06
5.45083043357e-07
3.09692133511e-07
1.27958105731e-06
1.64233252926e-05
1.66650244741e-05
4.03446166431e-06
2.26800087272e-06
4.76418418728e-06
1.02740875866e-05
4.07669939492e-06
3.54993404881e-06
1.88221418931e-06
1.37103434635e-06
1.17224515383e-05
9.71091804858e-06
1.98029436005e-07
1.55285565777e-06
3.55692241261e-06
5.02707645947e-06
4.00051554673e-06
1.73982684925e-06
1.32610668722e-06
4.61268623327e-06
3.74972543953e-06
3.69407071036e-06
1.53017733437e-07
1.3279251156e-07
0.00038157807143
0.000829440308742
0.000144409845043
5.00669750627e-05
7.52838029374e-05
1.64073282953e-05
9.21884936188e-06
7.34487115569e-06
5.22097252923e-05
5.33407907114e-06
1.72305150374e-05
2.27283209194e-05
1.37173617885e-05
1.55196442763e-05
9.24213895982e-06
7.5789701403e-06
9.34162575611e-06
2.35106522712e-06
4.52106281119e-06
6.4272585075e-05
1.00118038356e-05
3.79891477277e-07
1.00427184954e-05
1.8138124049e-05
4.22134128317e-05
7.58422661579e-06
5.94779754428e-05
6.96087895004e-05
3.71638238985e-05
4.46096472216e-05
0.000131285826558
0.000446244507017
0.00130260303938
0.000119952019058
1.56470039403e-05
1.06307831917e-05
2.07589567399e-05
0.000381788054061
0.000369152329552
0.000390038950147
0.000110365265155
0.000410664543557
0.000846630991096
0.00208276858699
0.00015999468887
1.76579221431e-05
0.000185463805711
6.79228703578e-06
5.00177756846e-06
1.64827493343e-05
1.79750492632e-05
5.62410440533e-05
3.25626161105e-05
5.30182011014e-05
0.000412227392601
0.000396818210267
0.00013026929287
0.000343016763851
0.000132479301928
0.000131003338767
2.29916505515e-05
0.000107353030432
0.00017997721133
0.000130994991846
7.10286131066e-05
0.000138723996771
0.00118874744388
0.00010057072892

