# vtk DataFile Version 3.0
File Name: Molecule/arg/arg_2.0-4.vtk
ASCII
DATASET UNSTRUCTURED_GRID
FIELD FieldData 1
TIME 1 1 double
0.0
POINTS 340 double
-2.9630477428 -0.4009296 1.8295896053
-3.3812334538 0.27840128541 1.5833513737
-2.9778587818 -0.6471734643 1.0284332037
-3.3877623081 0.022720769048 0.7856643796
-2.8670475483 -0.10574863851 0.18592852354
-2.5036549568 -0.45274439454 0.14835387468
-2.626196146 0.060238227248 -0.43428811431
-2.2126340866 -0.45620939136 -0.90582978725
-2.2750487328 -0.34628990293 -0.48495167494
-2.4292593002 -0.14880916476 -0.99652713537
-2.7996892929 0.69382852316 -0.82454800606
-3.2557337284 0.89861136675 -0.36948472261
-3.1758441925 0.1448623538 0.10943218321
-2.6214330196 0.45633804798 -1.5052747726
-2.4536840916 1.3750294447 -0.86913573742
-2.8893656731 1.780793786 -0.40932771564
-2.2462697029 1.1806172132 -1.446721077
-2.4457030296 2.0024344921 -0.40794715285
-1.8355281353 1.7578525543 -1.1138151884
-1.5212286711 3.1626532078 0.27745971084
-1.7689968348 2.6045718193 -0.53970134258
-2.4781696796 2.6634392738 0.64654660225
-3.154042244 2.3252577782 1.5255506039
-1.8944602013 3.3092291355 1.4924360514
-2.5417413712 2.9657940865 2.2783436775
-2.7335174084 2.5292401314 2.3661754131
-3.008256197 1.9736378193 2.4596452713
-3.4301986694 1.7751545906 1.7641742229
-3.4101688862 0.58889299631 1.8154044151
-3.1244437695 1.7644211054 2.9830133915
-3.1122918129 0.61490386724 2.9894776344
-3.0877876282 0.33046558499 2.1197247505
-3.0829153061 0.065041072667 1.8852123022
-2.7830042839 0.065513625741 2.5974550247
-2.9420409203 0.37461063266 3.1534941196
-2.8806600571 -0.18061985075 2.1491725445
-2.5118615627 -0.70894950628 2.4341678619
-2.4540371895 -0.14545717835 3.3956530094
-2.1386520863 -1.4886206388 2.0166652203
-2.0263719559 -1.0633535385 3.2036001682
-1.7375967503 -1.9504207373 2.7850308418
-1.0048445463 -2.2497591972 2.0736677647
-1.5797402859 -1.7293266058 1.2778346539
-1.0184434652 -2.1106033325 0.39586275816
-1.7066178322 -1.7167583704 0.019605576992
-2.1991326809 -1.449545145 0.77172404528
-2.3193976879 -0.99308311939 0.28480023146
-1.9994713068 -1.0497024059 -0.39769575
-2.0502660275 -0.77755892277 -0.81277579069
-1.886639595 -1.3933082819 -0.98917961121
-2.0695950985 -0.74660915136 -1.2091329098
-1.676886797 -1.3451704979 -1.7549113035
-2.3141338825 -0.42011514306 -1.3941850662
-1.8592026234 -0.73841637373 -1.9109116793
-2.2222557068 -0.42522901297 -1.8938549757
-2.1024429798 0.19950184226 -2.4109222889
-1.5777349472 0.14571176469 -2.674885273
-2.0516042709 1.0140166283 -2.1295855045
-1.7009348869 1.2369164228 -2.2614359856
-1.1668469906 0.42315173149 -3.1815340519
-1.854370594 1.5240147114 -1.6332761049
-1.3352906704 1.4971307516 -2.7104561329
-1.0846993923 2.0483453274 -2.2511978149
-1.4818606377 1.8247721195 -1.7377911806
-1.2419430017 2.4729743004 -1.3059438467
-0.52674555779 2.542027235 -2.3296265602
-0.66869777441 2.9802646637 -1.3581062555
-0.093321658671 2.9743740559 -2.1312379837
0.3174636066 2.9954066277 -1.8159319162
0.45629000664 3.1520183086 -0.88863289356
-0.071403853595 3.3227381706 -2.9635236263
0.52677541971 3.2318189144 -2.5337536335
1.0573734045 2.5637433529 -0.35092186928
0.72477090359 2.7113542557 -1.5248506069
1.551507473 2.0253725052 -1.2241044044
0.85617023706 2.8126854897 0.4819816947
1.541405797 1.915117383 0.022628104314
1.2412067652 2.1815569401 1.0546789169
0.40891742706 3.0908577442 0.87359905243
0.72820818424 2.5284614563 1.2124471664
0.48023399711 2.6844265461 1.6855298281
1.1316432953 2.406283617 2.0929200649
0.58184808493 2.7583322525 2.3114929199
-0.19508877397 3.4712426662 0.79597663879
-0.03609829396 3.2003777027 1.9110882282
-0.52799493074 3.6689083576 1.8595322371
-1.2355149984 3.6120848656 1.4606904984
-0.90634280443 3.5383999348 0.31832423806
-0.15767323971 3.4282062054 2.9596352577
0.55865824223 2.9124541283 3.2537722588
-0.65108460188 3.1862773895 3.6551978588
0.1090342775 2.5764319897 4.0942826271
-1.2807222605 3.1857626438 3.7546167374
-0.65901619196 2.69840765 4.0105752945
-1.4578123093 2.7893705368 3.983710289
-2.03404212 2.9536540508 3.5846428871
-1.8684660196 3.2185349464 3.5458257198
-2.3215794563 3.1648497581 3.0720639229
-2.4848208427 2.9008979797 2.9561133385
-2.3464500904 3.3953049183 2.503058672
-0.60525035858 1.6954481602 4.5549602509
-1.0558222532 2.0768270493 4.4211230278
-1.9848949909 2.0214622021 4.4669413567
-1.4448080063 1.6286650896 4.5984654427
-1.4906101227 2.3384392262 4.2857685089
-2.4689507484 2.2011733055 4.1065979004
-2.2071783543 2.5208773613 3.8382337093
-2.858812809 2.1719241142 3.4547073841
-2.7019457817 2.4723904133 3.1177048683
-1.1130065918 1.0735343695 4.6064276695
-0.28919678926 1.0845756531 4.7722415924
-0.78329986334 0.30040320754 4.6710724831
-1.5506603718 0.56298792362 4.5805563927
-0.89783281088 -0.37771522999 4.7739224434
-1.7590208054 -0.56670606136 4.2188572884
-2.3515510559 0.23997078836 4.2292237282
-0.02632089518 -0.33430889249 5.123893261
-0.43266713619 -0.7328993082 5.0444135666
0.17830717564 -1.1748880148 5.0897336006
0.52599430084 -0.55022424459 5.1916179657
1.0745089054 -0.80243605375 5.2657318115
1.2139769793 -1.5518679619 4.9260935783
0.48920577765 -1.8773663044 4.8191332817
0.80584931374 -2.2675902843 4.3759465218
1.6696145535 -2.00572896 4.3962826729
1.1409444809 -2.390982151 3.6258347034
1.9025295973 -2.1257252693 3.7773735523
1.8196109533 -1.9956128597 2.9586567879
1.1112194061 -2.3392710686 2.8075106144
1.0264102221 -1.8515213728 2.1306872368
1.9152220488 -1.4787877798 2.30337286
0.77408367395 -1.6625829935 1.2488969564
0.13875232637 -2.1473865509 1.2167086601
0.018796557561 -2.5082564354 2.0830249786
1.0452865362 -1.8251411915 0.3456274271
0.04279628396 -2.4757390022 0.3398604095
-0.77302950621 -1.9857386351 1.2132987976
1.4679760933 -1.0985915661 0.029657874256
1.0761420727 -1.3337285519 0.97285556793
1.3539531231 -0.84868746996 0.8239890933
1.3702317476 -1.2312840223 1.7319264412
1.6618454456 -0.7697776556 1.5758420229
2.3387534618 -0.73470723629 2.0015928745
1.6585278511 -0.65529477596 -0.54537922144
1.6874524355 -0.15279749036 0.64827895164
1.846060276 0.22670450807 0.088334798813
1.6700819731 -1.4016106129 -1.0155137777
2.0625829697 -0.23173062503 -1.3445218801
2.202188015 -0.84814280272 -1.8550758362
1.3704212904 -1.7548280954 -1.7108860016
1.741828084 -1.3577474356 -2.2799723148
0.88939774036 -1.9233283997 -2.1275856495
1.4293899536 -1.4279282093 -2.8852374554
0.56056755781 -1.3936131001 -2.942864418
0.11729921401 -1.8944846392 -2.4572472572
-0.40350887179 -1.2833602428 -2.6630384922
0.12741717696 -0.8140335083 -3.398778677
-0.34500050545 -0.59807503223 -3.1875498295
-1.1470711231 -0.7306188941 -2.5794348717
-0.77445060015 -0.32208579779 -3.1330735683
-1.0464538336 -1.4781517982 -2.348402977
0.20658022165 -0.24974131584 -3.9574317932
-0.302231282 -0.0054290797561 -3.7525992393
0.54123514891 0.41759860516 -4.2390708923
0.085815653205 0.72545713186 -4.0890440941
-0.089472532272 1.9183796644 -3.8487949371
0.38047713041 1.3339878321 -4.3994479179
0.045734837651 3.0062909126 -3.6857237816
0.9000453949 3.0882945061 -3.6834053993
0.17084136605 2.5508904457 -3.8085827827
0.93771713972 3.2271976471 -2.8126776218
1.5102720261 2.7569832802 -2.6113808155
1.1112115383 3.2433922291 -3.2450456619
1.121753931 2.6313619614 -2.0241446495
2.1155631542 1.6473838091 -1.9702260494
1.9545212984 2.4554531574 -2.3529062271
2.0293836594 1.1085339785 -1.294523716
2.4387290478 1.2321618795 -2.283500433
2.3400511742 0.57961130142 -1.5557287931
1.8644778728 0.76808381081 -0.73292171955
1.9722940922 0.93404513597 0.040120959282
1.8067573309 0.12654133141 -0.8086617589
1.862711668 1.3045344353 -3.8071994781
2.2579586506 1.9283883572 -3.0456428528
2.7291440964 0.64058661461 -3.4138021469
0.65885430574 1.9388593435 -4.4705295563
1.0694643259 1.7671303749 -4.2699956894
2.0720999241 0.65576159954 0.81867396832
1.8568388224 -0.26922190189 1.447537303
2.180431366 0.37591096759 1.6056654453
2.7308237553 0.12566064298 2.1537511349
1.8930178881 1.42230165 1.2216938734
2.0403184891 1.01225245 1.9541629553
2.5367548466 0.96385240555 2.589400053
1.8092058897 1.612508297 2.2641394138
1.9973005056 1.7542068958 3.1126010418
2.5708568096 1.3148806095 3.3394050598
2.2208008766 1.4814172983 3.9221394062
1.5691803694 2.0371029377 3.8492083549
1.4164634943 1.6076821089 4.4144177437
1.9466656446 1.2118304968 4.6746315956
1.3092765808 0.81677395105 5.0635666847
0.67402112484 1.401175499 4.7826685905
0.47884213924 0.79539090395 5.007850647
-0.081751361489 0.40173622966 5.0343432426
1.1782298088 0.010541163385 5.3568496704
0.57619249821 0.13664083183 5.2226371765
1.4352036715 2.6123287678 -3.3502089977
0.93278765678 2.2149510384 -4.023414135
2.2066226006 2.1361553669 -2.5131821632
1.8258150816 1.8954299688 -3.4641177654
1.2235572338 1.8670780659 -3.9961099625
-3.7269380093 1.9509364367 0.8568726182
-3.2787146568 2.2608230114 0.23599493504
-3.7200930119 1.5627375841 0.16408342123
-3.7284603119 0.79625374079 0.18421559036
-3.7284827232 0.42006552219 0.83731460571
-3.9388771057 1.1838971376 0.87167620659
-2.7534067631 -1.1478626728 1.4845740795
-2.4533102512 0.034639596939 -2.0098376274
0.46049520373 3.4535853863 -0.050437688828
-0.29801213741 3.6723513603 -0.41358458996
-1.2177038193 3.2953736782 -0.67556405067
-0.50244402885 3.8237347603 2.5018835068
-1.1119337082 4.0115718842 2.4684174061
-1.1115703583 3.7846944332 3.2505736351
-1.8816376925 3.8303060532 2.4764719009
-1.8819134235 3.5770616531 3.2299742699
-1.970954895 1.2830351591 4.7375135422
-2.5786142349 1.6373609304 4.4805164337
-2.5884261131 0.86356759071 4.5000333786
-3.0522789955 1.5974897146 4.0112738609
-3.1391692162 0.88742345572 3.8791353703
0.4510807395 -2.7117965221 3.9984641075
-0.16048881412 -2.4460160732 4.5786566734
-0.18837249279 -2.8630023003 3.9189033508
0.4630099535 -2.8566586971 3.2295739651
-0.19910804927 -2.9712691307 3.285171032
-0.15425682068 -2.8611779213 2.6735570431
0.58226108551 -2.646469593 2.5849654675
[...]
CELL_DATA 676
SCALARS cell_data_0 double
LOOKUP_TABLE default
4.21914451142e-07
3.53743082409e-07
6.60670066991e-07
4.96734055403e-07
1.93958676832e-07
1.93516847383e-07
6.70864328652e-07
6.5609749696e-07
1.36158786496e-06
8.7558376162e-07
7.71863100704e-07
4.32675491924e-07
2.01436214073e-06
8.85621035758e-07
6.18009870255e-07
2.42704106372e-07
6.9529475773e-07
2.08174225849e-06
9.71755590127e-07
6.03729157266e-07
2.655267487e-07
3.56835712919e-07
2.09551534024e-06
5.37002304272e-07
1.55370091361e-07
5.52977649227e-07
8.16708233058e-07
1.99472000772e-06
5.7395165234e-07
3.97374106159e-07
3.27032621649e-08
1.19583564303e-05
7.32555960601e-06
9.40074065101e-06
4.64057469159e-06
1.24013848464e-05
4.31314557011e-06
2.09208922896e-06
1.1704598034e-06
8.41265304018e-07
1.49075155792e-06
1.7135197334e-06
1.31432304907e-06
3.03986476692e-07
1.24362920935e-06
4.89810277389e-07
6.59726670835e-07
5.95032442736e-07
1.81741243191e-06
2.41011943731e-06
3.5381761561e-06
3.65321720187e-06
3.59209694373e-06
1.519331242e-06
9.80142964836e-06
1.94793486308e-06
3.69968545807e-06
7.29655281217e-07
2.27808937617e-06
2.21976430022e-07
8.59714234274e-06
8.55436646603e-06
2.37456606607e-05
6.28459189715e-06
7.62191174654e-06
5.55788278043e-06
2.19452148713e-06
2.71068145908e-06
3.2584132371e-07
1.4663039231e-06
2.26436792109e-06
8.07582289659e-07
8.52479203851e-07
1.14581799532e-06
3.20186841577e-07
1.42725626783e-06
2.06792176871e-06
5.84630496217e-07
1.09510377084e-06
6.08003198837e-07
5.43347209652e-06
1.16766021945e-06
7.27371798974e-07
1.17592346382e-07
5.48215810445e-08
2.8933059973e-07
1.03221624968e-07
1.30748375356e-09
4.63710375677e-07
3.26179966799e-07
1.37193047142e-06
2.03368692041e-07
3.09118712604e-07
3.24546872108e-07
4.33001301834e-07
4.47103756222e-07
6.05682280291e-08
3.68646229439e-07
1.63794284874e-07
6.68155682721e-07
9.69960429304e-07
1.33964308297e-07
1.05301734837e-06
1.50069564795e-06
3.51282893285e-06
2.27570505865e-06
4.50585303255e-06
2.10058780889e-06
7.93346253158e-07
2.23305557381e-07
2.0606898622e-07
6.85285097039e-07
4.5425078304e-06
2.63031049643e-06
2.51143762437e-06
1.49481267766e-05
1.27824307523e-05
2.89370561273e-05
3.25755980157e-05
2.08597680555e-06
2.77690199702e-06
6.11719365544e-06
3.40649427185e-06
7.73869557455e-06
6.19481197843e-06
1.19841040777e-05
2.12752363259e-06
8.99455920179e-06
7.78366609994e-08
8.02520752267e-06
2.32879767781e-06
5.75546833569e-06
3.75987012847e-06
2.90210986425e-07
1.09748480702e-06
2.33057847347e-06
3.5689203989e-06
2.70950519325e-06
3.07755760547e-06
3.02976988246e-06
3.32362249428e-06
2.48450818729e-07
4.38812323886e-07
2.41018157183e-06
2.54641414113e-06
6.62049192487e-07
1.43621800018e-06
3.05864993458e-06
4.13640348988e-08
6.36934541695e-07
2.3905184562e-06
4.23500741206e-06
1.79889511705e-06
7.53349236939e-06
4.77325506084e-07
2.96079120578e-07
7.50345144506e-06
1.82710554605e-06
5.1133761949e-05
7.51519540831e-05
1.36039110394e-05
1.64007376797e-05
1.75693023778e-05
1.9483661453e-05
6.91016679896e-06
2.39174870099e-06
4.04700903201e-06
7.61836956347e-06
2.35314334931e-06
1.62619348268e-06
2.29428468417e-06
1.45293862021e-06
1.87189286701e-05
1.14970864528e-05
3.32895234384e-07
1.3399601814e-06
1.9413906478e-06
2.83842466384e-07
8.49378459091e-07
2.47928726473e-06
1.59640711356e-06
2.8260756365e-07
9.23700341827e-06
4.34018628117e-06
1.40976381228e-05
1.8881203943e-05
1.61354477614e-05
1.8201569955e-05
2.50208288469e-06
8.87637744917e-07
4.79712412093e-06
2.02752828553e-07
5.68286905621e-07
3.80802640125e-07
2.01259520224e-07
3.6552396026e-07
4.87628521152e-07
7.85098298723e-07
3.57096583213e-07
1.69279810085e-06
1.02645417645e-06
1.00452732329e-06
1.21724261578e-06
4.37638271647e-06
4.1707714525e-06
1.90788839691e-06
1.83891584402e-06
9.75680671963e-07
5.34339239637e-07
1.75910536739e-05
1.50093912003e-06
3.9013385921e-06
9.29285696e-07
1.34823415274e-06
2.12785979091e-06
1.44066595436e-06
5.73154658416e-06
3.72856940957e-06
2.20094588776e-05
4.42517242456e-06
4.00834376033e-06
6.32717637102e-06
6.90164530198e-06
4.7362704784e-06
2.00640279577e-06
9.49919312279e-07
1.33197153375e-07
2.59509274155e-07
3.41772188869e-07
9.18861927376e-07
2.04505141171e-07
1.20391710413e-06
4.54849144119e-06
1.19980565622e-06
2.83306381688e-06
2.18558383396e-06
2.24491860552e-06
2.52424619318e-06
1.06663565074e-06
2.36398573011e-07
1.69069396603e-06
2.06168962692e-06
1.94395649278e-07
1.5740764146e-06
3.94015327154e-05
4.6935572361e-05
2.65694251486e-05
1.3742529597e-05
4.0120106108e-06
1.12701294056e-06
3.80467919524e-07
5.60384042188e-06
2.72212374818e-06
4.8124784026e-07
6.26924433681e-08
4.39961582836e-08
2.42305503811e-08
1.42489727036e-07
3.56761381486e-07
2.42977285741e-06
3.23485463854e-08
1.90836769111e-07
2.19864664661e-07
1.4158621475e-06
1.04262590213e-06
4.82189732823e-07
5.36185892443e-08
1.53635841457e-06
4.60376688463e-07
4.39249254755e-07
7.06798017831e-07
1.78492917305e-07
1.20049516447e-07
5.02359029661e-07
1.86546021927e-07
6.28993868469e-07
1.92983968982e-06
1.94044464669e-06
5.0738883817e-07
1.63105192735e-06
2.42965216312e-07
3.44295800986e-06
3.7292687869e-06
5.18947026085e-07
8.43357457881e-07
4.98713060729e-07
1.83271754606e-06
3.67878230752e-06
1.14332247684e-06
2.57644167376e-06
1.16142374079e-06
9.73705677746e-07
7.834103378e-07
8.99774159841e-07
2.03499612631e-06
1.11546274823e-06
1.76652854264e-06
1.33721749868e-06
2.15183532471e-06
1.5945098128e-06
2.46774857509e-06
1.55802773408e-08
1.05619029127e-06
4.48628894471e-06
3.1880578834e-06
4.64069268789e-07
3.67143640176e-06
6.2541570656e-07
9.55074620225e-07
9.55960609251e-07
3.46776028359e-07
1.24943140913e-07
1.95445984563e-08
3.23883058072e-07
7.73260030204e-08
1.39103971986e-07
3.87133540962e-07
1.65362142898e-07
3.35192699614e-06
7.54935143331e-07
2.03708765634e-06
6.12648751852e-10
6.94377181063e-07
1.99674407146e-06
7.14337675171e-07
1.07548539352e-06
3.09356902265e-07
1.18404515971e-06
3.43998446236e-07
2.00252514544e-07
1.01302891977e-07
2.22678369186e-07
4.72313228478e-07
1.34159102093e-08
3.81466355224e-07
2.78397684644e-07
1.19816176606e-06
1.4172378566e-07
4.5683552412e-07
4.58035232668e-07
1.23309607865e-06
2.03145669084e-07
1.52342389903e-07
5.75345547875e-07
1.35557328991e-07
1.30623813753e-07
1.31504291954e-07
2.27616254257e-08
2.3416195626e-07
4.63455844731e-07
5.39073793358e-07
9.59099647792e-08
3.9380411917e-06
1.17512973442e-06
4.9613120536e-08
3.64430005316e-06
4.34294429007e-07
1.37334896026e-05
1.17035268688e-05
1.18953851074e-05
8.72119062357e-06
1.14445391347e-05
1.38870724212e-06
1.3116915778e-06
1.92446119131e-06
1.13923954736e-06
3.525421532e-06
3.19917096572e-07
1.1784129293e-07
1.64244381746e-06
5.51021809125e-07
7.41611191794e-07
7.86364234926e-07
3.92019442679e-07
1.32119710785e-06
2.57555115384e-06
2.35512510824e-06
1.09096726287e-06
4.92274078134e-07
7.26793899379e-07
4.89080587312e-06
3.00370320234e-06
6.10906991706e-07
7.70415836975e-07
4.63892407613e-06
8.44990855035e-06
5.92699166005e-06
1.04686748134e-06
1.20938792952e-05
1.8504712502e-05
2.5910091604e-05
1.62281142785e-05
1.74928019609e-06
1.60355619158e-05
7.04633280337e-07
2.05531878727e-06
1.3702801296e-07
1.52513336526e-07
4.22235288333e-07
3.00504902962e-06
1.70832938692e-07
2.05181656335e-06
1.91565645123e-06
1.48996015601e-05
2.46969811548e-06
4.54340322922e-08
1.11830478479e-06
4.47622070095e-06
2.64998275375e-07
1.01638741271e-06
3.44306776665e-07
3.26115965939e-07
1.01315054527e-06
1.35721527792e-06
2.47933421221e-07
6.04120583443e-10
2.93920454842e-08
3.35382717736e-07
1.0729149512e-06
3.31386459092e-07
5.78107638596e-07
2.4606620275e-07
3.91508240561e-07
2.63340641216e-07
4.7676896267e-07
4.51373105523e-07
3.48687211059e-07
7.51044630588e-07
4.48440892111e-07
6.30603486046e-08
1.0023563522e-06
8.26468813211e-07
2.24248425273e-06
3.88105182489e-06
2.35476202677e-06
7.54716781999e-06
2.13434125725e-07
3.18449586061e-06
3.7462281491e-06
6.69029537571e-07
1.83319004607e-06
5.61339538876e-07
8.12664829108e-07
1.29823173904e-06
3.07808235822e-07
7.51432830555e-07
7.00456075086e-07
2.1604901614e-06
3.95535928057e-06
4.27129898939e-06
5.3754426544e-07
2.78415663888e-06
7.11324044312e-06
1.33235313263e-06
5.15178410015e-07
4.12525782203e-06
3.02846830732e-07
1.9604664638e-06
2.61193014888e-05
1.03525589428e-05
1.81386183175e-05
9.90195226603e-06
3.04985796029e-05
1.71862592114e-05
3.61479337426e-06
3.98215360739e-07
7.56960277899e-07
1.97110791095e-07
1.00561817929e-06
9.82546645254e-07
1.52581980637e-06
9.14335566855e-07
7.8545380685e-06
2.5030244694e-06
4.46246386266e-07
1.58000767906e-05
4.31355880026e-06
5.09221824023e-06
8.70672531497e-07
1.9621451491e-06
1.23900214136e-06
2.77265248447e-07
6.11177532525e-07
2.24457829763e-06
4.70296163484e-06
3.80716476507e-08
4.52326088408e-07
2.89185173553e-07
4.81615922931e-07
5.0703386164e-07
3.65070016467e-07
5.26897865085e-07
3.52791961366e-07
8.23862308433e-07
2.95241764821e-08
1.01401172811e-05
1.28089040267e-06
1.10594861124e-06
1.71443132644e-06
1.54051651709e-06
2.32861485401e-06
7.43694184893e-07
2.59613298967e-06
3.75905347038e-07
7.01821437251e-07
4.47206892927e-07
6.81041251641e-07
1.34972147047e-07
2.29519090144e-06
7.86179321734e-06
1.29130704788e-05
7.23966510361e-06
4.34841223076e-06
4.56743155844e-06
1.25158136213e-06
1.37400442881e-06
2.32305891366e-07
1.50123506971e-06
1.34539731889e-06
6.76261622517e-06
9.95758331664e-06
6.46492660898e-06
1.77514320341e-06
1.59574929445e-06
7.68003540211e-06
2.92439385879e-06
5.67989742296e-08
1.04305257558e-08
9.50240612401e-07
8.97094592942e-07
1.17639554157e-06
1.80129878799e-06
1.6862051709e-06
9.51967375499e-06
7.69087594031e-06
3.67592430365e-05
3.01470005794e-05
8.76155107482e-06
1.92331116527e-06
4.13136973727e-06
2.24465613189e-06
1.07470237097e-06
2.92799205774e-07
6.53655237534e-07
1.0244223126e-06
1.9592304154e-07
2.04494746855e-06
7.92855111501e-07
1.37816807297e-05
2.70690896962e-06
2.73377879502e-05
3.50603897527e-05
5.89334398274e-07
4.01325986372e-06
2.65687769714e-06
1.79588488939e-06
7.32555856687e-07
9.7502991456e-07
7.84972050237e-07
1.81614963344e-06
1.09182400862e-06
4.96208311022e-07
8.68908422445e-06
5.10139951317e-07
1.14759658374e-06
1.53681041103e-06
4.27705391044e-06
1.69762560669e-06
1.77313044763e-07
2.66257305205e-08
3.67790304215e-06
3.0299827171e-06
4.4014490288e-07
3.30640792239e-07
2.12321728475e-06
3.12108145915e-07
5.00748267623e-07
1.90839679852e-06
3.12871666356e-07
3.91308307666e-06
4.52248210166e-06
9.24327566474e-07
6.0081701047e-06
1.5453615647e-05
2.81520715423e-06
1.38749502117e-06
3.44708254972e-06
2.35753501292e-07
3.53222606323e-06
1.78878928751e-06
3.08275359896e-07
1.79224690958e-06
1.14719904084e-06
6.54631299629e-07
1.23213717015e-06
1.51493494647e-06
1.27985966361e-06
1.78655483523e-06
1.17036762652e-06
1.8686626444e-06
9.30214498752e-07
4.25739426551e-06
5.11818520215e-06
9.43073911336e-06
2.83277773116e-06
3.97657218831e-05
7.35055448599e-07
1.47554478904e-06
2.19132050504e-05
3.63672223915e-05
5.97441455799e-06
1.41187224462e-05
2.05794826359e-05
2.08988707267e-05
3.46624974199e-05
1.32192023615e-05
5.65992397818e-06
1.49106382238e-05
2.13523978138e-06
2.24136135332e-05
4.67288624774e-06
4.23690454999e-06
1.02931773084e-05
1.62063812748e-05
1.67781842233e-05
3.37318391605e-05
6.76858511427e-06
3.71423266708e-06
1.46450950649e-05
3.76964776296e-05
7.03606598715e-06
6.31466498498e-05
1.2078007367e-05
1.41954129976e-05
1.51362385953e-05
2.91690271492e-05
1.89484923523e-05
5.08570417063e-06
9.24080654317e-07
1.357850323e-05
2.3596194466e-05
2.4176927963e-06
2.25538010404e-05
2.19678444578e-05
4.43896873207e-07
2.22761713534e-06
6.59765543785e-06
9.43930589885e-07
9.34816483661e-06
5.88980792759e-06
7.2143213015e-06
1.11615962821e-06
5.43668318711e-06
1.29301262222e-05
2.03144703668e-06
9.13880581941e-07
1.8073578202e-06
1.50121924382e-05
4.53957950678e-06
8.97189885061e-06
6.1032671722e-06
8.86572868457e-06
1.84611688689e-06
9.94510708009e-06
3.17656119561e-06
2.37365094043e-06
2.13223828676e-05
9.38178105694e-06
1.30711849375e-05
1.25971133351e-05
4.56219983016e-05
9.90829847849e-06
1.0334790755e-06
1.71559035955e-05
2.02772990624e-06
1.64678658449e-05

