# vtk DataFile Version 3.0
File Name: Molecule/arg/arg_4.0-6.vtk
ASCII
DATASET UNSTRUCTURED_GRID
FIELD FieldData 1
TIME 1 1 double
0.0
POINTS 882 double
-3.2921102047 0.21150223911 1.6171731949
-3.0510907173 -0.53852140903 1.3864531517
-3.0494875908 -0.044662695378 1.8619122505
-3.4342794418 0.080966874957 1.127112031
-2.8887240887 -0.56153273582 0.7196713686
-3.2739369869 -0.0069152209908 0.48870196939
-2.8847651482 -0.22976782918 0.33214849234
-2.6233456135 -0.47299286723 0.27468812466
-2.5071368217 -0.082383722067 -0.35392412543
-2.635181427 -0.19711515307 0.067165285349
-2.98234272 0.069742456079 0.010681308806
-2.3833546638 -0.39493528008 -0.070323191583
-2.2354056835 -0.42622995377 -0.86004197598
-2.2251396179 -0.42984607816 -0.52243763208
-2.4709405899 -0.048112422228 -0.7725508213
-2.7930757999 0.40213739872 -0.70007002354
-3.2216033936 0.53570443392 -0.26441037655
-2.4007499218 -0.25762608647 -1.1181261539
-2.6083090305 0.13942053914 -1.3879328966
-2.7450721264 1.0137786865 -0.8455556035
-3.174980402 1.2723634243 -0.43301236629
-2.5535669327 0.80359345675 -1.4063518047
-2.7740416527 1.6997785568 -0.52997285128
-2.3182325363 1.2230767012 -1.1881680489
-2.3188073635 1.5085184574 -0.85162311792
-2.1962342262 1.1410319805 -1.6714679003
-2.4375631809 2.0049653053 -0.42025893927
-1.9539055824 1.7951598167 -0.87782776356
-1.7084399462 1.8024659157 -1.3040168285
-1.9538959265 1.4936499596 -1.4720537663
-1.9453294277 2.2153995037 -0.56368231773
-2.1481909752 2.5420553684 -0.083978481591
-2.6746361256 2.4075078964 0.050026427954
-1.6666095257 2.9155697823 -0.39416709542
-1.5600460768 2.4852166176 -0.88993644714
-2.5007300377 2.6441299915 0.64330816269
-1.8554154634 2.8156452179 0.37283542752
-1.4605667591 3.1684608459 0.18312802911
-2.6766309738 2.6557691097 1.2302581072
-2.1348767281 2.879532814 1.1730509996
-2.3867125511 2.9209752083 1.5868726969
-1.8582321405 3.3235356808 1.4637801647
-2.1975803375 3.3113384247 1.8935191631
-2.7150757313 2.5763483047 1.8717193604
-3.188100338 2.2847690582 1.4936028719
-2.5212829113 2.9823377132 2.3212838173
-2.9086148739 2.3247265816 1.9474964142
-3.0799539089 2.0168576241 2.1164429188
-3.4247834682 1.7997145653 1.7692354918
-2.7904145718 2.4503097534 2.4359440804
-2.9723360538 2.0394849777 2.6202964783
-3.5643024445 1.2498062849 1.8310054541
-3.1534733772 1.7008392811 2.3196396828
-3.2561120987 1.1131541729 2.4175927639
-3.1166563034 1.7886117697 2.9718482494
-3.2492740154 1.119815588 3.0289795399
-3.3251194954 0.63476085663 1.9278969765
-3.1355347633 0.6668612957 2.3541948795
-3.0902380943 0.64544188976 2.8373780251
-3.1066305637 0.32835137844 2.0579886436
-2.9027574062 0.077763520181 2.2557170391
-3.0144836903 0.4176632762 2.3871331215
-2.8976373672 0.30025407672 2.638231039
-2.9578800201 0.35544386506 3.10719347
-2.8304281235 -0.36012879014 2.180300951
-2.9539835453 -0.41345018148 1.8604050875
-2.4116108418 -0.25542765856 2.9245526791
-2.7001519203 -0.066350862384 2.6866559982
-2.3512506485 -0.44929331541 2.7826251984
-2.5270979404 -0.68293017149 2.4308900833
-2.6157448292 -0.012813778594 3.3845667839
-2.2110524178 -0.69060814381 2.8193101883
-2.2051956654 -0.99022358656 2.6654975414
-2.4476723671 -1.1304500103 2.1992566586
-2.2880253792 -1.4345999956 1.851246357
-2.0596973896 -1.4474673271 2.3368067741
-1.9457126856 -1.6754719019 1.579172492
-1.9344837666 -1.5924649239 2.1739332676
-1.5679622889 -1.8674030304 2.0811214447
-1.40373981 -2.1838889122 2.4132614136
-1.7735304832 -1.7762906551 2.4808671474
-1.2928311825 -1.8459634781 1.6606938839
-1.5576553345 -1.7387279272 1.2527961731
-0.99873894453 -2.2392914295 2.0364363194
-1.9774844646 -1.615003109 0.92386335135
-1.252554059 -1.8270339966 0.77262413502
-1.5933544636 -1.7490360737 0.42661896348
-0.9900701046 -2.213914156 0.30543360114
-1.4411699772 -2.0576117039 -0.018234672025
-1.960593462 -1.3725973368 0.096561402082
-2.3825874329 -1.2074600458 0.6079018712
-1.8222571611 -1.6532967091 -0.47760120034
-2.0052983761 -1.0368045568 -0.28533181548
-2.3435428143 -0.84404152632 0.21247595549
-1.9429625273 -1.2011463642 -0.74183046818
-2.1711220741 -0.66295075417 -0.22496829927
-2.0355889797 -0.79379689693 -0.66571033001
-1.988334775 -0.95319032669 -1.1589795351
-1.8748354912 -1.4442731142 -1.1664389372
-2.2980880737 -0.44419074059 -1.4205858707
-2.1432244778 -0.61996459961 -1.0422397852
-1.9160356522 -0.88858294487 -1.6382645369
-2.1250255108 -0.49990233779 -1.9142582417
-1.6914479733 -1.3024656773 -1.7735793591
-2.0005896091 -0.26182481647 -2.2883844376
-1.7710666656 -0.75611764193 -2.0440795422
-1.6385478973 -0.42407631874 -2.4597020149
-1.8898518085 0.16343639791 -2.5256867409
-1.3810248375 0.014677353203 -2.8002040386
-1.6144368649 0.81411737204 -2.6599752903
-1.4975345135 0.34707680345 -2.7765169144
-2.0141859055 0.63231545687 -2.4194772243
-1.1655775309 0.42057424784 -3.1872940063
-1.3374367952 0.95504277945 -3.0338504314
-2.01577878 1.0289740562 -2.1802642345
-1.6484934092 1.1860198975 -2.386944294
-1.3791774511 1.4088073969 -2.6462757587
-1.6930863857 1.425375104 -2.0999650955
-1.2718223333 1.8560016155 -2.3544342518
-1.4839248657 1.8076378107 -1.7548850775
-1.423006773 2.1420736313 -1.3312972784
-1.6871308088 2.0506515503 -0.96860140562
-1.1416544914 2.6028456688 -1.3230249882
-1.0644879341 2.2303302288 -1.7649040222
-0.66213309765 2.6928524971 -1.6681485176
-0.8823492527 3.0744385719 -1.1822202206
-0.54181903601 2.5552477837 -2.2640960217
-0.41883537173 2.9567410946 -1.5062322617
-0.1241947338 3.4661986828 -0.89176982641
0.30246764421 3.0137445927 -1.3631004095
0.47765904665 3.1363663673 -0.91753673553
-0.1684384346 2.9421062469 -1.9806426764
0.34001427889 3.0108137131 -1.9433888197
0.0061435420066 3.1058409214 -2.539509058
0.38421064615 3.0987353325 -2.2775161266
0.82380610704 2.9222602844 -0.59823215008
0.94261580706 2.6149811745 -1.0013896227
0.62785208225 2.8231034279 -1.3443547487
0.86953043938 2.6991260052 -1.8830939531
1.2751275301 2.4381818771 -1.5437036753
1.0803058147 2.4314975739 -0.35790124536
1.2191646099 2.2107195854 -0.88914632797
1.5486524105 2.0121436119 -1.1778585911
1.0534715652 2.6026000977 0.20913870633
1.4079860449 2.0204436779 -0.0025334842503
1.342825532 2.2105631828 0.50890344381
0.77902644873 2.8100790977 0.65388089418
1.1646001339 2.2624237537 1.0259677172
0.29385897517 3.0681107044 0.9846714735
0.69722753763 2.6012859344 1.090444684
0.43522554636 2.7459108829 1.3894615173
0.79617100954 2.4486365318 1.5277967453
0.56196135283 2.6472957134 1.8695138693
0.83076757193 2.735490799 2.4097070694
1.1169300079 2.4142842293 2.0599684715
0.065973445773 3.0178363323 1.6341161728
-0.24603909254 3.3630645275 1.3104382753
0.025200376287 3.4451777935 0.65166544914
-0.022865265608 3.2575407028 2.1463258266
-0.36027184129 3.5866923332 1.9407547712
-0.61119055748 3.4916374683 0.9730618
-0.46743217111 3.6320950985 0.40872994065
-0.81742805243 3.7418100834 1.7121169567
-1.0874242783 3.4356424809 0.49719101191
-1.244020462 3.4365568161 1.1498173475
-1.4563354254 3.6455528736 1.6087584496
-1.565207243 3.1216125488 0.88138967752
0.31479170918 2.9111125469 2.2139964104
0.22319737077 3.1024062634 2.779396534
-0.16661894321 3.5201003551 2.6441242695
0.65671497583 2.8963568211 2.9703016281
-0.32635080814 3.4076683521 3.2238330841
0.054280050099 3.0487954617 3.336148262
0.43067523837 2.8419783115 3.5787348747
-0.2411403358 2.9227964878 3.680921793
-0.70790815353 3.2165083885 3.6315221786
-0.0051774703898 2.6138622761 4.049217701
-1.2731423378 3.1953115463 3.7478365898
-0.62937682867 2.8057911396 3.8910048008
-1.2642344236 2.7672815323 4.0313863754
-1.766610384 2.8878047466 3.7915420532
-1.7478106022 3.17558074 3.6240751743
-2.2441697121 2.9358296394 3.3793129921
-2.1265587807 3.2552032471 3.2947731018
-2.3961155415 3.0988533497 2.9121701717
-2.5608296394 2.7496864796 2.9827654362
-0.80848658085 2.3976070881 4.2608342171
-0.27532583475 2.1904177666 4.426846981
-0.94453823566 1.969856739 4.449652195
-0.48017165065 1.6116501093 4.6381917
-1.378775835 2.3431153297 4.3027510643
-1.4368216991 1.6303035021 4.5995473862
-1.848484993 2.04164505 4.436621666
-1.8618166447 2.5558519363 4.0253691673
-2.1775882244 2.2888631821 4.1617279053
-2.4288241863 2.5331585407 3.5904006958
-2.6904814243 2.2379338741 3.8356459141
-2.8808689117 2.164280653 3.4296276569
-2.8046877384 2.3596327305 2.9964420795
-0.95627367496 1.6001958847 4.5306539536
-0.95188242197 1.2336374521 4.6022934914
-1.4335364103 1.1185917854 4.6688165665
-0.43160358071 1.0351574421 4.7133846283
-1.67742908 0.71791291237 4.6262369156
-0.92099988461 0.76611143351 4.6066803932
-0.77693116665 0.24892307818 4.6772117615
-1.2744375467 0.21074405313 4.5296039581
-0.35917693377 0.49978885055 4.8654518127
-0.46617874503 -0.033257361501 4.9146819115
-2.0061097145 0.24216328561 4.3918671608
-1.6727147102 -0.19875580072 4.3673863411
-1.4277443886 -0.75446754694 4.5654587746
-0.90843623877 -0.36168849468 4.7713384628
-2.0646271706 -0.32799243927 3.9342381954
-2.4867086411 0.13395093381 4.0054955482
-1.8610569239 -0.85657012463 4.004805088
-2.1369254589 -0.50367838144 3.422097683
-2.0317094326 -1.0400447845 3.3863627911
-0.39243900776 -0.69352525473 5.0607647896
0.053938791156 0.0027663805522 5.1584358215
0.32562920451 -0.64021468163 5.147339344
0.13711664081 -1.15558815 5.0871634483
0.34621584415 -1.6257963181 4.96611166
0.61673718691 -1.0293112993 5.0745458603
0.87218302488 -1.5289268494 4.9137296677
0.9824437499 -0.7837972641 5.2603840828
1.2235454321 -1.244310379 5.1504483223
0.63022518158 -2.0801136494 4.6379022598
1.0672386885 -1.861205101 4.6429457664
1.5228252411 -1.7207384109 4.8076667786
1.5458674431 -2.0077693462 4.3512835503
1.2014690638 -2.0198223591 4.4179224968
1.414380312 -2.2324910164 3.6977057457
1.0711796284 -2.4623250961 3.625762701
1.4422569275 -2.2070786953 3.1921579838
1.0103799105 -2.5069448948 3.0211694241
1.0892974138 -2.2632582188 2.6175501347
1.5050740242 -1.9357845783 2.6510081291
1.9661595821 -2.0408489704 3.1266853809
[...]
CELL_DATA 1760
SCALARS cell_data_0 double
LOOKUP_TABLE default
1.18558172059e-08
3.71941709187e-08
2.7067769783e-08
3.60780717953e-08
4.57175959275e-08
7.4135504185e-09
3.42881863962e-08
9.39953042633e-09
2.9258729046e-08
3.54614843058e-08
4.70693003471e-08
5.68919369896e-08
7.00955190411e-08
2.45038890531e-07
1.77326735664e-08
1.8898204724e-08
6.43074378963e-08
6.4944636174e-08
3.41727957341e-08
5.94536714442e-08
2.01528657165e-07
9.10044622326e-08
4.23421324012e-08
6.18921860713e-09
2.03509554582e-08
1.84638506104e-08
4.31993245892e-08
2.51105113066e-08
4.06422364997e-08
2.92054406558e-08
3.79822121389e-09
3.61907357793e-08
3.97521426419e-09
3.21225090219e-08
1.40468066168e-08
1.37629843689e-08
1.52746205553e-08
6.4348614874e-09
5.85709588586e-09
9.57619549755e-10
6.28315880779e-09
1.25314530825e-08
5.26300747155e-09
4.03983963633e-09
3.83961244674e-09
4.0914763894e-09
3.92132522677e-09
3.06964363292e-09
2.7410394748e-08
1.09546956726e-08
3.68779804772e-08
5.89425083283e-09
1.5778868377e-08
1.78036085166e-08
2.00112039012e-08
2.43576427515e-09
2.03322300943e-09
8.52666661884e-10
9.65993238352e-09
3.63560111003e-10
4.54731748466e-09
5.30693621891e-09
1.03164550491e-07
3.215114037e-09
1.82864351139e-08
1.3114657346e-07
5.0262416215e-08
2.02736677428e-08
1.28568137573e-08
5.57816263378e-08
8.94304185551e-08
2.95207075333e-08
2.39371309283e-08
3.06790807933e-08
9.94953465966e-08
1.30286495296e-09
8.58644959311e-08
7.98253270638e-08
3.82707169661e-08
1.00687279431e-08
1.42125504593e-08
5.67815360144e-08
1.06912950607e-08
3.41028079312e-08
6.55552823153e-08
4.33218526199e-09
1.1405406686e-09
9.49579572174e-09
1.77953038452e-08
1.75328897417e-09
1.67023115099e-08
1.88059237554e-08
6.00406472481e-08
1.13153334034e-08
1.74239413846e-08
3.30068115578e-08
2.37071191035e-08
6.2979017613e-09
1.41605413241e-11
2.68550694544e-08
1.15010753222e-08
1.36690917435e-08
8.84587328395e-09
4.37929830319e-08
5.25487674909e-08
2.47316326072e-08
1.8319510687e-08
5.99104184663e-08
2.80937797677e-08
1.99078961647e-08
9.57516195537e-08
7.68563497563e-09
3.8707924373e-08
4.19012566637e-08
6.50975200482e-08
5.90012296738e-08
4.22585046774e-08
6.73890361735e-08
1.55138257779e-08
5.11669763282e-08
8.5005402935e-08
9.54373047355e-08
1.35290287023e-08
3.2965435754e-08
2.67126504044e-07
5.86344839196e-08
1.26269038387e-07
1.71244405668e-10
1.34634455417e-08
1.77469989412e-08
5.73506962459e-08
2.73515127412e-08
9.71841136319e-08
4.87933567892e-08
1.28511347406e-07
2.626341013e-08
1.60285273967e-08
1.13958574718e-08
5.26419696859e-09
2.60904030541e-08
3.62439936716e-11
7.42014253126e-09
7.57371491675e-09
3.40955244893e-08
3.01964835474e-08
2.40479484287e-08
1.88240734334e-08
1.42587834954e-08
3.64673651047e-09
1.56526849715e-08
1.36702804532e-08
2.94870725243e-09
2.36277263456e-08
1.43898468825e-08
6.66667963159e-09
8.46698084949e-10
1.88748071122e-08
1.85512728922e-08
6.42138776932e-10
2.85841393408e-09
9.27688425879e-09
4.76848453602e-09
2.66466468975e-08
5.7228240455e-08
2.20097297456e-08
6.46871600924e-09
1.69809227049e-08
5.93677838345e-08
1.37277915754e-07
4.91167114218e-09
9.94059804557e-09
9.38061578451e-09
1.12134390723e-07
9.04067087173e-09
1.71053776095e-08
1.92805989655e-09
8.89095900841e-10
6.29900745998e-09
2.37627724859e-09
2.70453712476e-09
3.96011426306e-09
1.33471506324e-08
1.68356290191e-10
2.72660324755e-08
3.19674872229e-08
3.01989266276e-09
1.48773011405e-08
6.65902154615e-09
7.1542143318e-10
4.20931370028e-10
3.85642847093e-09
1.38105580901e-08
8.65346817275e-09
1.28124674345e-08
1.14322193141e-08
6.153175845e-09
1.41936203923e-09
7.59637239167e-09
6.13855765042e-09
2.43158183787e-09
2.81181582136e-08
5.12121621708e-10
2.80401154157e-08
1.48033887461e-08
1.97562755036e-08
1.95272973088e-09
3.45326301274e-08
5.95447918702e-08
7.94820180992e-08
2.5320054645e-08
5.11419249815e-08
1.03848087723e-07
1.45145122175e-07
5.59826585195e-08
2.1634259986e-07
4.51408441417e-08
1.25268072659e-07
5.26600695758e-09
3.28300958687e-08
2.49504883458e-08
1.00159224892e-08
2.64718457921e-08
1.78768141185e-09
2.02058011143e-08
1.1437284147e-08
1.70415885532e-08
8.98923920684e-08
2.45373850421e-08
8.25830143086e-08
9.32346826385e-08
3.15074323566e-08
2.1973973578e-08
5.03688048816e-08
2.70880670511e-08
7.06149482032e-08
4.52384313676e-08
4.71624834256e-09
7.00490534224e-09
8.7824803165e-08
8.94263255136e-08
7.11879539832e-08
1.63931981502e-07
3.22571433348e-08
2.88019556135e-07
8.70472814222e-08
9.20570526141e-08
7.49232063466e-09
1.75079129713e-07
3.89335951332e-08
1.98918746568e-07
1.68434474932e-07
9.05277868415e-10
7.79385572996e-08
3.69251724496e-10
6.43480330404e-08
4.93255166234e-08
2.16059757605e-08
5.36657157044e-08
1.42101395035e-08
8.31842088918e-08
7.29101127984e-08
8.37877897555e-08
6.18500657424e-08
2.73351883655e-07
1.95668914665e-08
1.32403375212e-08
1.79554374235e-08
1.3358208133e-08
7.18715508381e-08
1.18759925671e-08
3.05472986052e-08
1.13741289714e-07
2.55856661808e-08
1.66541351795e-08
1.90063410897e-08
3.2995953495e-08
6.30618721291e-08
1.65123308544e-07
1.0239824227e-07
1.47597109328e-07
1.13030048331e-07
4.18945147552e-08
1.59746140103e-07
3.51230648762e-09
1.08905509042e-07
5.58100991827e-08
6.24225411406e-08
7.72797892693e-09
3.69651404059e-08
3.79360058703e-09
2.70279174862e-08
1.08312795662e-08
5.82142225915e-08
9.4831063773e-09
9.38950139093e-08
2.12051687958e-08
4.57618141827e-08
7.09294294539e-08
1.40867224676e-07
2.35368955375e-08
5.54161009405e-08
1.43580117514e-07
9.26146538634e-08
3.39758590706e-08
4.95265278018e-08
2.40880037376e-08
1.89258746162e-08
2.74781320227e-08
5.85164581015e-08
5.9996480555e-08
6.51710543209e-08
4.79177551084e-09
3.44101809084e-08
1.81102422454e-08
3.63578843409e-09
9.78178810766e-08
1.39730121887e-07
3.00818459363e-07
4.17997220536e-08
3.15338505474e-07
3.62410772541e-08
3.36217979486e-08
3.3813146803e-08
6.5348595405e-08
9.00398784545e-08
4.19695592278e-08
2.13638129107e-08
6.14346191699e-08
4.22122059852e-08
1.35038468424e-07
5.09666100132e-08
5.88944023482e-09
4.54237916195e-08
1.24311512648e-07
5.15609346247e-08
1.51508743006e-09
2.72729050807e-08
3.64600431034e-08
1.13736704244e-07
2.90933095177e-08
7.16924303197e-08
2.63535095663e-07
1.79411702034e-07
1.3918391938e-07
2.25402646769e-08
2.84047681931e-08
1.89759303715e-08
2.3403904096e-09
1.631709824e-08
1.00188118324e-08
3.76496239849e-09
1.51754135869e-08
4.51813869141e-09
2.03831751718e-08
2.37087865856e-08
1.1263235134e-08
6.93821107617e-08
1.62492642232e-08
9.05680786399e-09
1.63530280022e-08
2.18946229057e-08
1.09147748302e-08
5.97286438957e-08
1.18609760154e-08
4.15721994597e-08
3.5309869903e-09
2.66781967609e-08
3.77447662927e-08
1.04994717121e-09
7.35512193116e-08
2.46877330656e-08
1.08365978237e-07
4.77471141008e-08
2.58800551559e-09
4.87662138865e-08
6.49849000442e-08
1.47064808299e-07
1.77160538899e-08
1.31446195449e-07
1.32135766448e-07
1.08561198546e-07
3.29723243714e-08
1.38380127725e-08
1.03260217584e-08
3.06362204296e-08
1.2793119466e-08
2.1906950526e-09
8.00760616324e-09
5.81549253628e-09
2.01708667325e-08
7.25894021544e-09
6.76260530513e-09
2.47648100302e-08
3.54758543919e-08
4.36669141474e-08
4.00804687797e-09
1.6489104984e-08
1.88710028024e-08
1.95158238419e-09
1.51165052384e-08
1.23354653169e-09
1.48386448568e-08
4.24593550259e-10
1.9162020351e-09
3.74759254245e-09
7.68623692559e-08
5.07811684159e-08
2.2499512313e-08
5.66642959336e-08
3.67710303966e-08
6.37342680673e-08
6.49289896309e-08
1.51001595041e-10
1.25114252047e-08
2.59663001087e-08
3.85884768384e-08
1.35372044239e-08
2.29161636068e-09
2.59655113012e-08
1.11359617061e-08
1.98964225973e-08
1.70665222433e-08
2.04826356147e-08
1.84379780024e-08
1.69669985256e-09
1.18724645356e-08
1.10690126227e-08
1.06549655869e-08
8.56837945465e-09
4.27802852817e-08
2.37939676747e-09
1.94259673587e-08
4.87092147003e-08
8.94381575458e-08
1.21804788501e-07
2.04271876508e-09
7.18021875177e-09
9.23406746819e-10
4.45604813604e-09
5.22854152808e-08
3.98320128083e-08
4.89417029894e-08
6.28803098949e-08
2.76265362654e-08
2.50001575578e-08
1.57568668324e-08
1.13340189715e-08
8.4966347537e-09
3.52040021519e-08
9.25205086056e-08
6.97423789801e-08
1.47671537393e-07
3.94310827043e-08
2.20111052692e-07
1.00782237408e-07
1.01240172723e-07
6.4874243062e-08
3.3223875974e-08
1.07334359956e-08
2.02052560059e-07
7.79520582906e-08
4.56715149128e-08
5.48073011473e-09
9.48535193285e-08
5.89990163619e-09
1.04335544847e-08
1.27079377607e-08
4.24689897812e-08
1.62188268687e-08
4.27401251902e-08
1.41261681414e-08
7.63405401473e-09
1.47351299266e-08
1.41157289086e-08
1.13175377801e-08
1.96996053165e-09
5.63020752838e-09
7.04663497743e-09
1.83655010234e-08
1.41021832441e-08
2.31843696462e-09
4.41270356266e-09
1.88694330076e-08
6.23568661965e-09
7.34061584823e-09
4.94407345834e-09
3.09256794517e-08
1.37748350534e-08
9.99519793417e-09
3.96533849936e-08
1.5174257649e-07
1.0404399267e-07
5.26497568239e-08
5.6083666748e-08
2.57185933248e-08
1.53438210539e-08
2.26906648315e-09
6.69549766126e-09
9.39447893598e-08
1.94867209112e-07
7.61709851401e-09
5.52964157223e-08
3.20842088938e-08
8.26602061446e-08
2.27345936234e-08
1.11197836851e-07
7.30922974105e-08
2.18036996956e-08
1.96538098996e-08
2.79800702141e-08
7.16611463132e-08
4.40299420627e-08
3.83213423526e-08
1.57473829239e-08
7.71557604049e-08
6.2517737962e-08
4.30210433142e-08
1.28170144885e-07
5.7220743218e-08
1.17332212365e-07
5.41792635177e-08
3.41750214442e-08
8.8444788879e-09
2.93834698209e-07
2.70639600813e-08
5.31541534352e-08
4.53374518849e-09
8.8055611852e-08
6.90870878467e-08
2.72738858355e-08
2.88592446161e-08
1.87262118787e-08
4.67017253229e-09
8.11766723524e-09
1.08523238374e-10
9.20983903322e-09
4.04423284423e-09
8.31077051633e-10
2.34359302677e-09
4.83209993219e-09
3.85546379843e-10
9.9744856674e-10
6.98996060457e-09
5.99768914056e-10
1.45091514319e-09
2.88888264053e-09
2.51909080309e-09
1.61912957897e-09
2.63377248576e-10
1.73347981777e-09
3.57163812684e-09
3.13126198538e-09
6.10854131603e-09
2.26508701852e-09
7.87039042874e-09
2.82944571489e-09
4.82822193597e-09
1.46971874653e-09
6.21790970031e-10
4.46911597292e-09
1.09610003686e-09
9.48027607203e-10
9.23495670264e-10
2.20444580857e-08
3.62483451145e-09
3.25283792672e-09
2.23957629908e-08
8.95454935296e-09
3.74352192787e-08
1.20474438143e-08
1.11240286648e-09
5.14932685174e-09
1.84680468546e-08
1.65352523103e-08
1.19836342617e-08
6.63370942302e-09
1.3523815104e-08
2.93208013144e-09
3.31761011256e-09
2.41953930924e-08
1.34530989777e-08
4.86410331533e-10
1.16154360041e-08
2.73335677615e-08
1.25587176316e-08
2.53037221465e-08
6.80251481185e-09
8.0808899958e-10
9.23649854658e-10
1.83904714426e-08
1.91632463616e-08
9.31733784943e-09
4.11067607819e-08
2.44961257985e-08
3.44576157961e-08
3.66790823554e-09
4.0039885441e-08
1.48484769168e-08
1.30719018984e-08
1.88729731683e-08
2.50047442052e-08
3.71527932949e-09
2.85403034342e-10
3.2187005818e-08
1.53690117434e-07
1.69090483844e-07
4.36109163741e-08
6.0405793084e-08
8.04883340878e-10
3.91183883079e-08
7.95641328586e-08
2.70476956678e-08
1.58103776322e-07
9.34235045109e-08
4.56118814986e-08
3.84470240718e-09
5.3850211061e-08
1.51181182388e-09
7.39320506056e-09
2.24512972287e-08
4.40015075912e-08
1.36771611441e-08
9.9324454259e-09
1.11309570199e-08
5.95626694366e-09
1.37771889772e-08
1.29255617705e-08
1.26294323348e-09
4.00649571561e-09
1.2699981013e-08
1.53383719807e-08
1.25003687078e-08
1.09508691585e-08
2.14549397606e-09
5.01518353105e-09
1.96528292974e-08
1.220129035e-08
6.56313975056e-09
5.60588433933e-08
7.20406825149e-08
2.60901017427e-08
1.15080912113e-08
1.51776383732e-08
1.1019248734e-07
1.640049874e-08
1.27767398313e-08
1.60833758261e-08
3.82547931063e-08
1.37468189154e-08
3.92265974987e-08
7.98505688751e-08
9.28376077293e-10
5.264977419e-09
2.16599568688e-09
9.0543313001e-10
7.59102295055e-10
2.26757460494e-09
1.97559367532e-09
6.69635337284e-09
1.4330162943e-09
2.82757372144e-09
1.38854940819e-09
2.20516979048e-09
1.03907813212e-09
5.87525394208e-09
1.83201512147e-09
2.25143117698e-08
4.3308910409e-09
4.35013602394e-09
2.29962530641e-09
1.75427942148e-09
4.43110220601e-09
1.32106045232e-09
1.4625058562e-10
9.38070673702e-09
1.07206185188e-08
1.25701301689e-08
1.41861071908e-08
7.37469547557e-09
4.71035839756e-09
1.17335635024e-09
8.30963203829e-09
8.37397465196e-09
7.63175638383e-09
1.39584414734e-08
6.7857974698e-09
1.18953656515e-08
1.2660727383e-08
8.82024969196e-10
1.57593812435e-09
4.33117169684e-09
3.59324925365e-09
8.47257346439e-09
9.09452375285e-09
1.07708817775e-08
9.64760882499e-09
6.61992886787e-09
1.65697221556e-08
1.24756698226e-08
4.42076171981e-09
7.3345095135e-09
1.22396654175e-09
7.60516819259e-10
1.71992798975e-09
8.7065935752e-09
2.94202925583e-09
2.38611045947e-09
1.07643424285e-09
7.83282525686e-09
1.10462139282e-09
1.45323579628e-08
6.47185597077e-09
3.75019870212e-09
3.79800110054e-09
4.69301340767e-10
1.92571106508e-09
6.59117289914e-09
2.66307089361e-08
1.60807444869e-08
1.11023578071e-09
6.02641675744e-09
4.5557659083e-09
9.79899803442e-09
3.2208945944e-08
2.8333426615e-09
2.69259942946e-08
2.56277620388e-09
5.52732581654e-09
9.22987892754e-09
7.48755209231e-09
1.90603421692e-08
1.08081497281e-09
3.98907479151e-09
4.39930626877e-09
6.02885076058e-09
6.98158678429e-09
5.55793470221e-10
5.37706019778e-10
2.74101328967e-09
1.19847825729e-09
5.12906346719e-09
4.12358345424e-08
9.57520014887e-08
8.11801379923e-09
5.12570067795e-08
3.25057315981e-08
2.15478271861e-10
2.39429164686e-08
9.9737045817e-10
2.90620678083e-08
1.13813997197e-08
8.21049271381e-08
2.2009455603e-09
1.30189663565e-07
1.02573859449e-07
5.01854651957e-08
3.9978160425e-09
1.6757322678e-08
1.55174501448e-10
1.34930455402e-08
1.64521032227e-08
1.77036808276e-09
1.42826481725e-08
9.80091685914e-09
2.27896912466e-08
9.66620906056e-09
9.31362571105e-09
1.97057351965e-09
8.22265826146e-09
3.80022730835e-09
3.79967037552e-09
3.94828945768e-08
8.60847051581e-09
1.54748534659e-08
7.08448794349e-09
1.19307266287e-08
9.37779205163e-08
1.44899508259e-07
1.12728990624e-07
1.0266901138e-07
2.64489949879e-08
5.03420504412e-08
3.30259667606e-09
4.51855073874e-08
1.79841451532e-08
2.46525054721e-08
1.23766145636e-08
6.84337058783e-08
1.23455867779e-07
1.70497529456e-07
2.41279400423e-09
1.52585679556e-07
2.94388257022e-08
9.00219926784e-09
1.96460170732e-07
5.00465056227e-08
6.92129568557e-08
9.52361700421e-09
2.82235318144e-08
1.93816046244e-08
3.91764952536e-08
7.06926655115e-08
1.24410476463e-08
2.56298078689e-08
1.40362089476e-07
2.83717235606e-07
2.88902506745e-07
1.19074697421e-07
1.85575737159e-08
9.52570271011e-09
2.55038849268e-08
2.90703138982e-08
1.06866602939e-08
8.26688365832e-09
7.07984012342e-09
3.64289469791e-09
9.30860438423e-09
6.47853593476e-09
2.60148472722e-08
3.0668218934e-09
2.1073235126e-09
4.27057594484e-10
9.39069569762e-09
2.07507376397e-09
3.56368754966e-09
3.18173046684e-08
9.99279729298e-09
9.60645658462e-09
1.16728140519e-08
2.69104370124e-09
5.55889229511e-09
4.7708162978e-10
9.7893268411e-09
1.48534026199e-10
1.66927893418e-08
7.75941786711e-10
1.78816367096e-08
1.68806197995e-09
1.03302211023e-08
2.10551517058e-09
6.56282604233e-09
2.18000297247e-09
6.90818622859e-09
4.36009713729e-11
2.5333327167e-09
3.68831988199e-09
1.81919116483e-09
2.27244664194e-09
2.12326359317e-09
2.47021588411e-10
7.0317682481e-09
5.84009892526e-09
8.40451109427e-09
3.46315675321e-09
2.56513493478e-09
5.8575141957e-09
6.90948560111e-09
1.2227224569e-08
6.22437177872e-09
2.21168128653e-08
6.29038322312e-10
9.4998899385e-09
4.47287592137e-10
6.59572173406e-09
3.92904338045e-09
9.73219150499e-09
1.53703166602e-09
1.26935420491e-10
2.51388132893e-08
1.83093968518e-08
2.12036635536e-08
3.1863345528e-08
4.89735924558e-08
6.18035032391e-09
7.04399913682e-09
6.7354239571e-08
7.83837926796e-08
9.82132115519e-08
5.75374816064e-08
1.65139608632e-07
5.63939862382e-08
2.52609844857e-08
9.36420365408e-08
3.29979172125e-08
4.02736372551e-08
1.82317872925e-08
5.95140771113e-08
7.5911585723e-09
4.96215053769e-09
2.3494554285e-08
7.77099294565e-09
1.278815115e-08
1.69995579585e-08
2.03027816222e-08
7.81722341302e-09
4.5353870355e-09
1.17294656758e-08
2.81048714513e-08
5.95147360546e-08
5.29628793875e-08
3.6018623502e-08
1.75783371429e-08
2.7467493474e-08
2.61118768025e-08
2.32431432924e-08
2.7507076541e-08
8.95377653798e-08
5.25947233423e-08
5.60594890239e-08
5.27607002611e-08
2.11376348295e-08
1.546611817e-09
7.90596116718e-08
7.65859203494e-08
7.88332069938e-08
3.72757210284e-08
3.49015747448e-08
2.53962194146e-08
7.57579742959e-09
1.40789673794e-08
3.33347712229e-09
1.071832949e-08
6.03293969959e-09
2.7069015527e-08
2.63761532167e-08
2.53822051967e-08
5.1062256625e-08
3.64441713784e-08
1.38951909746e-08
2.45617594524e-08
2.79634484793e-08
2.0305205134e-08
1.54459632288e-08
6.26069584003e-09
7.08625962702e-09
1.22822828191e-07
7.01591407121e-08
3.52034866541e-07
2.02009620274e-07
5.55482571306e-08
3.23631414423e-08
7.78356897281e-09
1.19247329317e-08
2.1660850789e-09
1.7503438318e-08
3.71273602284e-08
4.76595451146e-08
1.2585969056e-07
1.30951414123e-07
2.39470990987e-08
1.75808181883e-07
1.58799430781e-07
2.67159867638e-08
1.40039345021e-08
3.77569785989e-07
6.41699514755e-08
5.43019989112e-08
2.52570574429e-09
2.2630956473e-08
6.59853881716e-09
8.19053485175e-10
1.93260710452e-08
5.33326912358e-08
1.25392421912e-07
2.54831572963e-08
1.86285011258e-08
1.59551430705e-09
1.94256113855e-08
1.82186131523e-08
3.40912373449e-08
2.29666451941e-08
3.53507085181e-09
1.07647492253e-08
9.73625789103e-09
1.4991992638e-08
2.39354493649e-08
9.73515114175e-08
7.52850477294e-08
1.73030971616e-08
5.07629797138e-09
2.10450761913e-09
3.57365911698e-08
2.2239594181e-09
1.51286016489e-08
1.2859389201e-08
1.69360842337e-08
1.52814557244e-08
3.85316280274e-08
4.29827551739e-08
1.97657627152e-08
9.23480605314e-08
2.89581425427e-07
6.57468156978e-08
2.57191149018e-08
1.6216333216e-08
1.17244241448e-08
1.93733889386e-08
4.77778931149e-08
1.08141514427e-07
2.3705607054e-07
1.06767206367e-07
5.05098010179e-09
4.90020944472e-08
1.3758471649e-08
5.34423699858e-09
1.28529883429e-08
1.14758867773e-08
8.50582023241e-08
1.85776108981e-08
4.87495695346e-08
5.51069327838e-08
1.11140148779e-07
6.05175739084e-08
1.67760840993e-08
7.01926532034e-08
2.29832327223e-08
1.2559524668e-08
4.01115534411e-10
2.93147832743e-09
2.50125139482e-10
1.22316756117e-08
2.98104253497e-08
2.38849390693e-08
1.36382819534e-07
1.8035224744e-07
4.00276972711e-08
9.13454340397e-08
9.88193504839e-08
2.45084639671e-08
2.87137182648e-08
1.87862463414e-08
1.08149064148e-08
4.28390211526e-09
9.66914103416e-08
2.0325549695e-08
2.10230139208e-08
9.87984018274e-09
1.16297372826e-09
5.03605345444e-10
1.87196047951e-08
2.34214003788e-08
5.51748584552e-08
2.55974032883e-07
1.85152057514e-08
2.55007303773e-07
1.78643512101e-08
1.07271348492e-08
5.38493974489e-09
2.95142880892e-09
8.41349579655e-09
1.21652961321e-08
7.12473507791e-09
1.04455332904e-07
8.52913196195e-08
6.52374114114e-08
2.04680747226e-07
1.23759207749e-07
2.92774069542e-08
2.57653915676e-08
2.26059694908e-08
1.23059920261e-08
2.07269736814e-08
4.92235747631e-09
3.99538853142e-08
3.00853843281e-08
2.50116531607e-08
2.27827343329e-08
9.38083568903e-08
6.19457243211e-08
1.78565946038e-08
2.3108951e-08
2.94640647975e-08
9.8703946259e-10
2.7448580848e-08
5.04070864613e-09
8.51804885141e-09
2.79054723299e-09
1.17526900655e-08
1.02684044588e-07
5.2961969845e-09
1.25083654407e-08
1.59116908561e-09
1.54298972495e-09
8.88185700215e-09
5.90577252413e-09
4.64505223253e-10
2.56681114913e-08
5.31771491358e-10
3.08189841998e-09
5.85254808505e-09
3.24777457932e-09
6.91516350726e-09
1.0356549863e-08
3.12494506541e-09
1.78964974837e-08
7.55442574841e-09
2.83476134535e-09
3.78071068475e-09
1.56139046951e-09
3.97996567999e-09
3.04712534291e-10
3.61893945223e-09
6.58347512869e-09
4.75832649704e-09
1.02894558672e-08
9.22576927442e-09
7.36998699479e-09
2.60533579176e-09
2.35217213711e-10
4.81390363522e-09
1.02860954825e-09
4.08708059494e-09
1.19083382533e-08
1.58150336582e-08
8.8185434571e-09