# vtk DataFile Version 3.0
File Name: Molecule/arg/arg_2.0-5.vtk
ASCII
DATASET UNSTRUCTURED_GRID
FIELD FieldData 1
TIME 1 1 double
0.0
POINTS 357 double
-2.9627063274 -0.40133184195 1.829887867
-3.3811421394 0.27799168229 1.5827281475
-2.9811003208 -0.64235526323 1.0240175724
-3.3819174767 0.010711178184 0.8004681468
-2.8666045666 -0.1066147536 0.18640726805
-2.4905576706 -0.4687461853 0.13671059906
-2.6263079643 0.0601965487 -0.43386918306
-2.2093763351 -0.45952278376 -0.91302663088
-2.2769258022 -0.33539307117 -0.50228744745
-2.4294111729 -0.148120597 -0.99696058035
-2.7996022701 0.6935697794 -0.82440978289
-3.2557411194 0.89863020182 -0.36946505308
-3.1765189171 0.14519560337 0.11105130613
-2.6213126183 0.45615524054 -1.5058524609
-2.4537067413 1.3750855923 -0.86927264929
-2.8893616199 1.7807965279 -0.40932744741
-2.246389389 1.1806666851 -1.4462993145
-2.4457249641 2.0024273396 -0.40793561935
-1.8354179859 1.7575223446 -1.1137746572
-1.5212278366 3.1626534462 0.27745905519
-1.7690063715 2.604487896 -0.53977495432
-2.4781720638 2.6634366512 0.6465460062
-3.1541731358 2.3251638412 1.525575161
-1.8942308426 3.3093173504 1.4924371243
-2.5444417 2.9617307186 2.2706296444
-2.7333159447 2.5294175148 2.3667294979
-3.0078861713 1.9746631384 2.4626340866
-3.4301838875 1.7754015923 1.7643618584
-3.4101688862 0.58880776167 1.8151495457
-3.1240341663 1.7659959793 2.9862978458
-3.1125524044 0.61498266459 2.9892556667
-3.0989067554 0.08889002353 1.8726308346
-3.0882723331 0.33146482706 2.1190824509
-2.7771542072 0.056394219398 2.6006858349
-2.9307656288 0.35369423032 3.1568872929
-2.8827629089 -0.17816539109 2.1466517448
-2.5087180138 -0.71264433861 2.4367454052
-2.3583939075 -0.21423086524 3.3819279671
-2.1385450363 -1.4887114763 2.0165030956
-2.022131443 -1.0695061684 3.2045373917
-1.7373354435 -1.9506458044 2.7849178314
-1.0040414333 -2.2497649193 2.0743510723
-1.5812387466 -1.7292143106 1.2508270741
-1.0186020136 -2.1105406284 0.39568802714
-1.7065931559 -1.7167685032 0.019301919267
-2.2081410885 -1.4411809444 0.78951537609
-2.3180463314 -0.99510669708 0.28558075428
-2.0007817745 -1.0484229326 -0.39587241411
-2.0476067066 -0.78043460846 -0.81887811422
-1.8823916912 -1.3987356424 -0.99024027586
-2.0199589729 -0.8438706398 -1.2344352007
-1.6762517691 -1.3437153101 -1.7576265335
-2.311501503 -0.42578279972 -1.3941532373
-1.8599020243 -0.73611664772 -1.912707448
-2.2241327763 -0.42076089978 -1.8955746889
-2.0939121246 0.18718597293 -2.4202749729
-1.582521677 0.13635219634 -2.6705696583
-2.0516085625 1.0139523745 -2.1301691532
-1.6969624758 1.2469319105 -2.2639541626
-1.1656360626 0.42286881804 -3.1828012466
-1.8541975021 1.5242530107 -1.6333725452
-1.330567956 1.4866195917 -2.7241075039
-1.0822107792 2.049654007 -2.2552418709
-1.4776614904 1.8249976635 -1.7433319092
-1.241902709 2.4724743366 -1.3075736761
-0.52152186632 2.5502362251 -2.3308141232
-0.66866445541 2.9802072048 -1.3584082127
-0.093075253069 2.9744610786 -2.1315670013
0.3173160851 2.995316267 -1.8159409761
0.45618903637 3.1520855427 -0.88848090172
-0.070630684495 3.323949337 -2.9641301632
0.53033638 3.2343418598 -2.5413854122
1.0573687553 2.5637497902 -0.35093790293
0.72480428219 2.7118325233 -1.5243573189
1.5512260199 2.0252835751 -1.2233082056
0.85611689091 2.8126254082 0.4820240736
1.5413870811 1.9151126146 0.022689076141
1.2411085367 2.1817901134 1.0548292398
0.40902343392 3.0908541679 0.87332230806
0.72771376371 2.5287044048 1.2126023769
0.48218759894 2.6834704876 1.6848766804
1.1377738714 2.4008536339 2.1215615273
0.58020186424 2.7595820427 2.309738636
-0.19507560134 3.4712450504 0.79595631361
-0.035981357098 3.2003788948 1.9109895229
-0.52800452709 3.6688988209 1.8595471382
-1.2354973555 3.6120882034 1.4606792927
-0.90634298325 3.5383994579 0.31831106544
-0.1576153785 3.4282913208 2.9595608711
0.54823768139 2.9178299904 3.2530040741
-0.65060138702 3.1865851879 3.6547994614
0.10886868089 2.5770351887 4.093919754
-1.2805860043 3.1857867241 3.7545464039
-0.65932732821 2.6984128952 4.0106253624
-1.4577745199 2.7895786762 3.9835348129
-2.044490099 2.9424953461 3.5820763111
-1.8715019226 3.2170176506 3.546353817
-2.3223438263 3.1638314724 3.0724527836
-2.5054531097 2.888011694 2.9343123436
-2.3472352028 3.3946182728 2.5028479099
-0.60508191586 1.69548738 4.5549378395
-1.0558271408 2.0768299103 4.4211211205
-1.9848889112 2.0214629173 4.4669427872
-1.4448008537 1.6286581755 4.5984687805
-1.490585804 2.3384790421 4.2857480049
-2.468957901 2.2011480331 4.1065993309
-2.207681179 2.5195717812 3.8388886452
-2.8586819172 2.1722595692 3.454611063
-2.7019395828 2.4726362228 3.1173892021
-1.1131161451 1.0735675097 4.606400013
-0.28920596838 1.08456707 4.7722425461
-0.78335726261 0.30025908351 4.6710615158
-1.5508098602 0.56325030327 4.5804924965
-0.89778614044 -0.37785944343 4.7739167213
-1.7564759254 -0.56895238161 4.2204174995
-2.3516695499 0.23589454591 4.2274141312
-0.026079608127 -0.33430320024 5.1239328384
-0.43272307515 -0.73290920258 5.0444097519
0.17830790579 -1.1748850346 5.0897350311
0.52602481842 -0.55022072792 5.1916227341
1.0745105743 -0.8024366498 5.2657318115
1.2139770985 -1.5518680811 4.9260935783
0.48920601606 -1.8773661852 4.8191332817
0.80584925413 -2.2675902843 4.3759465218
1.6696145535 -2.00572896 4.3962826729
1.1409446001 -2.390982151 3.6258349419
1.9025297165 -2.1257252693 3.7773735523
1.8196110725 -1.9956128597 2.9586567879
1.1112190485 -2.339271307 2.807510376
1.0264049768 -1.8515224457 2.1306834221
1.915222168 -1.4787877798 2.30337286
0.77408587933 -1.6625806093 1.2488965988
0.1387527138 -2.1473867893 1.2167127132
0.018815033138 -2.508259058 2.0830280781
1.0452882051 -1.8251413107 0.34562024474
0.042804144323 -2.475733757 0.33986273408
-0.77304387093 -1.9857004881 1.2127501965
1.4679763317 -1.0985912085 0.029657416046
1.0761420727 -1.3337285519 0.97285526991
1.3539532423 -0.84868735075 0.8239890933
1.3702325821 -1.2312831879 1.7319265604
1.6618455648 -0.76977753639 1.5758421421
2.3387534618 -0.73470717669 2.0015928745
1.6585276127 -0.65529507399 -0.54537862539
1.6874521971 -0.15279822052 0.64827847481
1.8460595608 0.22670201957 0.08833488822
1.6700819731 -1.4016106129 -1.0155137777
2.0623474121 -0.23200187087 -1.3440428972
2.2021870613 -0.84814250469 -1.8550624847
1.3704209328 -1.7548282146 -1.7108861208
1.7418283224 -1.3577479124 -2.2799711227
0.88939774036 -1.9233283997 -2.1275858879
1.4293899536 -1.4279280901 -2.8852376938
0.56057214737 -1.3936111927 -2.9428639412
0.11729624122 -1.8944844007 -2.4572472572
-0.4034756422 -1.2833446264 -2.6630382538
0.12758089602 -0.81378692389 -3.3991086483
-0.34522807598 -0.59821552038 -3.1873054504
-1.1471600533 -0.73088103533 -2.5791852474
-0.77496898174 -0.3198967576 -3.1333756447
-1.0465508699 -1.4781979322 -2.3483264446
-0.2711327374 0.012658775784 -3.7789187431
0.21026973426 -0.25050216913 -3.9592652321
0.048651739955 0.68514233828 -4.0596790314
0.53917384148 0.42092081904 -4.2427477837
0.93764907122 3.228423357 -2.8133187294
1.5052502155 2.7594640255 -2.623021841
1.1172164679 3.2365479469 -3.2354574203
1.1216737032 2.6322565079 -2.0254771709
2.1161732674 1.6454638243 -1.9676246643
1.9539763927 2.4563074112 -2.3523828983
2.0315613747 1.1113042831 -1.3026118279
2.4370718002 1.2406218052 -2.2769036293
2.3398649693 0.57883965969 -1.5553388596
1.8646429777 0.76817631721 -0.73369622231
1.9722908735 0.93405681849 0.040048234165
1.8067495823 0.12653487921 -0.80864012241
1.8544340134 1.3187158108 -3.8090610504
2.2656450272 1.8915871382 -3.0461440086
2.7300262451 0.64887624979 -3.4161407948
0.66291069984 1.940636158 -4.4692058563
1.0704487562 1.774612546 -4.2670264244
0.38843640685 1.3846524954 -4.394153595
2.0721054077 0.65573823452 0.81870555878
1.8568392992 -0.26922142506 1.4475374222
2.1804311275 0.37591394782 1.6056631804
2.7308726311 0.12572410703 2.1537666321
1.8930906057 1.4214419127 1.2218291759
2.0404529572 1.011269331 1.9542088509
2.5366663933 0.96412199736 2.5893406868
1.818097353 1.6032648087 2.2689340115
1.9973255396 1.7544931173 3.1127538681
2.5708806515 1.3148838282 3.3394117355
2.2207708359 1.4814419746 3.9221253395
1.5689300299 2.0371572971 3.8491947651
1.4164408445 1.6076946259 4.4144124985
1.9466640949 1.2118327618 4.6746301651
1.3092757463 0.81677520275 5.0635662079
0.67401957512 1.4011876583 4.7826604843
0.47884246707 0.79539185762 5.007850647
-0.081745758653 0.40173181891 5.03434515
1.1782295704 0.010541858152 5.3568496704
0.57620579004 0.1366392374 5.2226390839
2.2060146332 2.1370782852 -2.5130753517
1.8209148645 1.8833224773 -3.4746744633
1.2635439634 1.8356039524 -3.934399128
-3.7269201279 1.95099473 0.85686010122
-3.2787282467 2.260818243 0.23600657284
-3.7201106548 1.5626782179 0.16413497925
-3.7284758091 0.79627877474 0.18425410986
-3.7282004356 0.41906139255 0.83774983883
-3.9382500648 1.1844370365 0.87044686079
-2.7542808056 -1.1466120481 1.4842623472
-2.452498436 0.034888833761 -2.0116119385
0.46049228311 3.4535832405 -0.05042450875
-0.29801854491 3.6723544598 -0.41358566284
-1.2176525593 3.2953488827 -0.67566210032
-0.50244772434 3.8237431049 2.5018701553
-1.1119116545 4.0115709305 2.4684064388
-1.1115407944 3.7846972942 3.2505748272
-1.8816182613 3.830302 2.476433754
-1.8819845915 3.5769677162 3.2300486565
-1.9709866047 1.2830604315 4.7375020981
-2.5786156654 1.6373586655 4.4805173874
-2.5883321762 0.86314511299 4.5000967979
-3.0522654057 1.5973931551 4.0113415718
-3.1393477917 0.88702374697 3.8786282539
0.4510807395 -2.7117965221 3.9984641075
-0.16048917174 -2.4460160732 4.5786566734
-0.18837194145 -2.8630023003 3.9189043045
0.46300795674 -2.8566594124 3.2295720577
-0.19911497831 -2.9712696075 3.2851669788
-0.15424354374 -2.8611760139 2.6735639572
0.58225214481 -2.6464726925 2.5849618912
-0.18505649269 -1.9169596434 4.9504532814
-0.80362671614 -1.5002391338 4.9754714966
-0.80382466316 -2.2228138447 4.6331839561
-0.94629251957 -2.6427912712 4.0064840317
-0.9463775754 -2.8019444942 3.3737473488
-0.79908853769 -2.7166433334 2.6108188629
-1.4848912954 -1.3505901098 4.5676493645
[...]
CELL_DATA 710
SCALARS cell_data_0 double
LOOKUP_TABLE default
2.66957176021e-07
5.71130781086e-07
6.37983864364e-07
4.24573383386e-07
2.40106256696e-07
1.960419211e-07
7.74257154946e-07
6.52555343982e-07
1.64496400335e-06
6.82314114073e-07
8.64888177126e-07
5.01298141124e-07
2.16345015316e-06
9.6370930676e-07
6.77163570061e-07
1.86870392191e-07
7.2511057713e-07
2.3013638642e-06
9.64479298946e-07
4.95451633755e-07
3.45337708791e-07
3.46068502486e-07
1.8270645507e-06
4.60736447116e-07
2.70794442015e-07
5.90930283245e-07
4.84010766117e-07
1.66979105829e-06
6.50182177419e-07
4.19241978655e-07
1.97844700444e-07
1.14735666244e-05
9.52340113674e-06
7.77876943732e-06
5.60936850739e-06
1.21994796811e-05
4.19836526468e-06
2.19943911549e-06
1.31603824651e-06
9.41423231307e-07
1.15808773364e-06
1.39438186865e-06
1.55922406317e-06
1.21794601263e-07
1.19731867091e-06
6.49715177503e-07
9.79839645903e-07
4.16932406096e-07
1.64755389082e-06
2.00535121786e-06
3.22989482717e-06
3.78421567616e-06
3.83768056415e-06
1.56082363367e-06
9.84273623964e-06
2.38778647459e-06
3.74283330052e-06
4.72800149726e-07
7.5638402221e-07
1.51317987826e-06
7.88954456573e-06
8.56245830613e-06
2.49751815687e-05
7.39436991493e-06
7.8045020678e-06
5.22190701598e-06
2.18556083025e-06
2.82115800979e-06
6.48755403697e-07
1.98073922666e-06
2.89953807807e-06
1.64581594059e-07
9.32888016325e-07
1.30724958029e-06
4.60352047746e-07
1.30073439728e-06
2.09181554193e-06
5.79010846921e-07
1.35933262537e-06
8.64182399898e-08
5.04764933422e-06
8.75913840898e-07
7.44374350221e-07
7.61897818277e-08
9.43951490001e-08
1.98160643657e-07
1.53127640301e-07
1.8824715968e-08
4.40419547577e-07
3.05119895452e-07
1.60476616616e-06
1.59505454128e-07
2.85237840585e-07
3.30022432284e-07
3.81234864823e-07
4.83885180259e-07
1.01219423138e-07
2.82224624123e-07
1.86421905363e-07
7.13414227114e-07
1.09453741346e-06
2.16839838071e-07
1.106742453e-06
1.6495394256e-06
3.49845016252e-06
1.45293566753e-06
2.1450722477e-06
1.11190754596e-06
9.3904704233e-07
2.68053659855e-07
8.36316777475e-08
6.74944668358e-07
4.52533837395e-06
2.565749315e-06
2.54875011991e-06
1.48420457729e-05
1.26732304442e-05
2.87464314997e-05
3.24013869571e-05
2.07257433642e-06
2.78296169249e-06
6.17404960221e-06
3.4377801844e-06
7.76263609975e-06
6.19189227839e-06
1.2059037005e-05
2.09249844532e-06
9.0666433496e-06
3.52411336265e-08
7.94020244219e-06
2.26251622086e-06
5.71791930004e-06
3.88433549839e-06
3.70968442483e-07
1.02726164551e-06
2.21339632778e-06
3.51916696467e-06
2.77770712371e-06
2.81819394116e-06
3.02956803391e-06
3.54212649756e-06
3.46535771374e-07
5.07782528255e-07
2.37025893817e-06
2.68209382979e-06
7.89445486633e-07
1.49754343916e-06
3.21027986128e-06
1.0587789483e-08
9.19974658356e-07
2.37102415348e-06
4.16264135601e-06
1.64345039127e-06
7.95324014555e-06
5.71357516379e-07
5.10084399568e-07
7.61564783173e-07
4.37429550843e-06
1.00952728857e-05
1.61696793871e-05
1.7533855573e-05
2.06676942665e-05
6.56469857511e-06
1.09182709865e-06
3.9540077044e-06
7.42474192816e-06
2.38391891112e-06
1.6295603368e-06
2.51590265841e-06
1.7539262106e-06
6.9583018596e-06
1.36591224465e-05
1.8813593294e-07
1.44751303319e-06
1.908351419e-06
4.37906104293e-07
7.37697708145e-07
2.286129006e-06
1.53571125634e-06
4.97981139987e-07
8.583404649e-06
5.26834698127e-06
1.43288236991e-05
1.88041678716e-05
1.60289345879e-05
1.82960036864e-05
2.46657601054e-06
8.82637451785e-07
4.65905993909e-06
9.91236909781e-08
5.46109730792e-07
5.30580398909e-07
2.40678931287e-07
3.7187130867e-07
5.57633617559e-07
7.23569521705e-07
5.39350720705e-07
1.5964698364e-06
1.05107009528e-06
8.87743861131e-07
1.13866577467e-06
4.33999035541e-06
4.20666214085e-06
1.81082566697e-06
1.84196510393e-06
1.21798770194e-06
1.75844677407e-06
1.38623203131e-05
1.57745311948e-06
3.74939618528e-06
8.783401023e-07
9.36574329012e-07
1.82006241108e-06
1.558952437e-06
6.18250680853e-06
4.09781118335e-06
1.97303202397e-05
5.36568751944e-06
4.44322405181e-06
6.41154373474e-06
6.64154230332e-06
6.08040814664e-06
2.46029426172e-06
7.88722684537e-07
3.34489514871e-07
1.74091902541e-07
3.58151443203e-07
8.17262548905e-07
8.92356032129e-08
1.2690077897e-06
4.59961070806e-06
1.18144988846e-06
2.94695529908e-06
2.1013379962e-06
2.30724832036e-06
2.49528739766e-06
9.96813281434e-07
1.62318848545e-07
1.52461276591e-06
2.01327645275e-06
4.48209851961e-08
1.59272950681e-06
2.68624470942e-05
1.70488750468e-05
3.96771967955e-06
1.27483063045e-06
1.00462943085e-05
5.35687279515e-06
2.45711642806e-06
5.03286242378e-07
8.86109755952e-08
1.44534094975e-07
6.72709371967e-08
5.96489923926e-09
2.64027289853e-07
2.56732364618e-06
1.23425309521e-07
1.72630713692e-07
2.91639987256e-07
1.23103364557e-06
9.4521485006e-07
5.80987586141e-07
7.43645989455e-08
1.48139306959e-06
4.36294941801e-07
4.09382755938e-07
4.04068347752e-07
1.17260334611e-07
1.20438742978e-07
5.18665700613e-07
1.38403694943e-07
6.01037891699e-07
1.88828820302e-06
1.73942174397e-06
3.48273670636e-07
1.61440563419e-06
1.43203696906e-07
3.62773545838e-06
3.71721845179e-06
5.34955741981e-07
1.01301034361e-06
4.18900652689e-07
1.8242590103e-06
3.2356064168e-06
1.42540527684e-06
2.8348501606e-06
1.17384500574e-06
1.07611470967e-06
8.6548695041e-07
1.02812120848e-06
2.03667996755e-06
8.90304763943e-07
1.72812123607e-06
1.35383224213e-06
2.25638286018e-06
1.79623497211e-06
2.49525356267e-06
1.61499894659e-07
1.64171820985e-06
4.92657886579e-06
2.83186099028e-06
4.53976117659e-07
3.69267458436e-06
7.59103160441e-07
1.30454201458e-06
9.4875215076e-07
3.425971507e-07
2.2736870101e-08
6.81937006195e-08
2.84792666759e-07
1.7535920846e-08
1.14951317394e-07
4.45697236618e-07
3.09068944572e-07
3.21915818769e-06
8.20599315571e-07
1.87012562001e-06
4.41745545857e-08
6.61167617984e-07
1.94684109506e-06
7.84318398307e-07
1.06829128045e-06
2.81417056085e-07
1.23094452148e-06
3.07511330638e-07
1.46025637376e-07
1.73646343455e-07
2.287481741e-07
4.35255004098e-07
2.80474971343e-08
4.22476288573e-07
2.21684235769e-07
1.27332358692e-06
7.0339933456e-08
3.48606800881e-07
1.71336524622e-07
9.276542273e-07
7.19831543017e-07
2.08080619777e-07
4.54754787691e-07
2.47098241234e-07
1.76319259704e-08
1.50542406431e-07
9.1089476183e-08
1.49295061336e-07
5.61502082618e-07
4.5843930667e-07
3.18444958748e-07
3.27197902469e-06
1.04022917103e-06
1.92751341728e-06
1.53181626057e-06
1.90836039927e-07
1.38082534232e-05
1.17174339675e-05
1.19003664582e-05
8.72953920676e-06
1.14890417888e-05
1.37531937255e-06
1.35327759099e-06
1.94755927881e-06
1.18773081317e-06
3.50416592362e-06
3.0684823262e-07
8.34216444838e-08
1.45833727233e-06
4.67270701168e-07
7.38204959725e-07
7.74964071143e-07
2.27240207473e-07
1.15792943471e-06
2.38828384806e-06
2.36463255822e-06
1.27400326468e-06
7.12321862934e-07
3.1007662314e-07
4.77919805202e-06
2.81176659842e-06
8.14172757749e-07
8.80711221938e-07
4.73653352733e-06
8.46116101315e-06
5.99037848964e-06
1.04377274442e-06
1.21473317073e-05
1.84144375886e-05
2.60906228259e-05
1.62775158963e-05
1.7834841753e-06
1.59374201461e-05
7.42494791049e-07
2.1012942284e-06
1.14967797147e-07
1.65553577595e-07
4.65065782993e-07
3.24270588495e-06
1.74144020791e-07
2.42309805642e-06
3.20471048156e-06
1.3056603575e-05
2.52745629406e-06
9.8402774582e-08
1.04209249434e-06
4.31223980433e-06
4.15682491305e-07
1.08736906315e-06
3.3226368474e-07
3.64243861022e-07
9.33630556534e-07
1.33374043206e-06
2.9837271903e-07
7.22889748551e-08
1.21562750899e-07
2.82633331749e-07
1.15907629571e-06
2.96325692267e-07
5.17468790151e-07
1.60682500273e-07
3.97821486224e-07
2.89250626958e-07
4.45229438256e-07
4.58997154947e-07
5.20428433984e-07
7.0848786801e-07
4.42494459177e-07
1.3060792811e-07
9.88228348524e-07
7.43967471814e-07
2.27146915496e-06
3.67036702012e-06
2.59226351222e-06
7.61756182005e-06
3.24649627096e-07
3.0619609868e-06
3.78113281422e-06
6.82533554013e-07
1.78205101311e-06
5.00080476636e-07
7.38227501933e-07
1.23560870338e-06
9.16453754274e-08
2.35366021145e-07
6.70056256252e-07
2.20175036856e-06
4.00298915331e-06
4.48735533873e-06
1.26752725094e-07
2.22164203712e-06
5.88354705988e-06
2.14315344954e-06
8.61909712536e-07
3.46643136699e-06
7.76759108372e-07
4.10135432583e-06
1.25753672411e-06
5.41236299648e-06
2.14145564602e-05
1.20610715082e-05
3.42727190807e-05
1.81140457591e-05
3.69749842497e-06
6.21218840607e-07
5.07576427605e-07
2.37563080071e-07
9.10708262385e-07
8.7141058738e-07
1.45015421689e-06
1.87837596445e-06
4.19608519853e-06
5.61780416036e-07
1.53143835856e-06
1.3187593678e-05
4.63269037954e-06
4.94801127585e-06
7.9960921982e-07
1.91344602221e-06
1.14581759542e-06
2.67275958167e-07
5.46558413059e-07
2.193264901e-06
4.4776631069e-06
6.86987989176e-08
3.14622313999e-07
4.12424499226e-07
3.03657399242e-07
5.20308943073e-07
4.01601429052e-07
4.14709976377e-07
3.27866478367e-07
8.47030577238e-07
5.66942769497e-08
1.02779208001e-05
1.28079785109e-06
1.09034045535e-06
1.73172901739e-06
1.54966473891e-06
2.31508923642e-06
8.49728063211e-07
2.57730083512e-06
3.66673740205e-07
8.56824894601e-07
4.48342895306e-07
6.65109064701e-07
1.78696191882e-07
2.2730912862e-06
7.90131674272e-06
1.29177323975e-05
7.01300375764e-06
4.37245105787e-06
4.56410809113e-06
1.35498055228e-06
1.35418511225e-06
2.90942166609e-07
1.53689400495e-06
1.33291590336e-06
6.76474750186e-06
1.00492371677e-05
6.40352433396e-06
1.74986675354e-06
1.58536753767e-06
7.49979336348e-06
3.07199196464e-06
2.21518975006e-07
1.21765202032e-08
9.72189240696e-07
9.86665934751e-07
1.13512340308e-06
1.99615733555e-06
1.58573269472e-06
9.78608954147e-06
7.70781921977e-06
3.67739218752e-05
3.01487693649e-05
8.61929484009e-06
1.93435080961e-06
4.11709308288e-06
2.0600750549e-06
9.49442404129e-07
3.29743097097e-07
5.68951435283e-07
1.09050103891e-06
1.83650199325e-07
2.07986855274e-06
6.67741944932e-07
1.35356605269e-05
2.87215750228e-06
2.71272036439e-05
3.51392228303e-05
6.29829525432e-07
3.98007358963e-06
2.74699143431e-06
1.76351005024e-06
8.10522092182e-07
9.94884536937e-07
7.27958779103e-07
1.85910896185e-06
1.01769637698e-06
5.66860221276e-07
8.63112169488e-06
1.16067136355e-06
1.49789693027e-06
8.62081603869e-07
3.7049659522e-06
1.60460627412e-06
1.24519509834e-07
3.12179446337e-08
3.359559299e-06
2.03100411353e-06
3.14954878281e-07
3.36174120498e-07
2.18686659146e-06
1.47979106279e-06
1.01238307954e-06
1.6862501984e-06
1.01975986873e-06
1.31126203956e-06
4.85991931098e-06
2.19261637142e-06
3.90373909626e-06
4.34410337874e-06
4.46981633803e-07
1.47138990418e-06
2.98905412303e-06
4.0068376473e-08
3.52387040337e-06
2.02026316135e-06
1.50423083902e-08
1.89087167272e-06
1.08732885709e-06
6.79887266038e-07
1.11940195687e-06
1.3061156202e-06
8.41644573396e-07
2.10391095133e-06
1.38739403019e-06
1.3761062859e-06
3.81214720222e-07
1.77110496823e-06
2.17123918745e-06
2.46243006411e-06
1.6626754668e-05
1.30931070847e-05
8.04658068124e-06
1.64832165281e-05
1.34357678921e-05
1.56792100567e-05
2.30674793284e-05
2.51182711404e-06
1.32727113631e-05
1.18699502237e-05
5.91157874784e-07
2.38232197052e-05
1.79531493512e-05
1.09217769976e-05
7.23481100487e-06
2.9536749166e-05
2.63410385138e-05
2.56461056639e-05
1.5962266368e-06
1.76752272862e-05
9.25784697689e-06
1.14801701912e-06
2.04784267259e-05
1.89206450344e-05
2.30327176177e-05
8.0597690277e-07
1.36612547619e-05
8.93712442282e-06
1.19586848296e-05
1.29004456843e-05
6.67295688652e-06
9.23669343828e-07
6.42429491153e-06
1.23804440032e-06
8.53729038066e-06
6.10115101434e-06
7.43141693548e-06
5.79810405833e-07
4.19925379411e-06
1.43425554713e-05
1.79458870113e-06
4.44799006896e-06
3.11638299981e-06
1.64693584329e-05
4.2667535469e-06
8.42600898731e-06
7.01750040605e-06
1.07934176831e-05
1.16364562683e-06
9.63316668173e-06
3.52133333642e-06
9.17899208904e-06
1.86844603234e-05
6.33064009538e-06
2.19952225955e-06
3.16733983704e-06
1.17240887773e-06
1.2902324017e-06
1.0110658213e-05
1.6033078407e-05
2.82936593173e-06
8.81425287001e-07
2.26508507333e-06
7.64744253889e-07
5.95137747984e-06
2.93120387786e-05
7.57786218015e-06
3.79677524767e-06
3.80527113252e-06
4.66617408706e-06
4.89135514264e-06
1.57806849621e-05
1.1415106675e-05
2.66555917968e-06
1.03987239364e-06
2.6283203894e-07
2.41887956064e-06
1.62090013449e-06
6.76347584085e-07
3.99778198678e-06
7.71254851732e-06
4.21973045038e-06
9.15579072157e-06
1.8663734983e-06
1.4891168452e-06
4.46255098325e-06
4.44801936188e-06
4.38883918355e-06
3.43705361768e-06
6.15708755522e-06
4.20145185233e-06
4.72742806426e-06
8.66806210704e-06
2.1950472018e-06
1.97678997105e-06
9.05756503495e-07
8.91156925531e-07
8.46477569205e-07
3.70395505857e-06
3.92017013199e-06
5.02845709361e-06
3.50496583285e-06
9.66166256486e-06
3.92409776185e-06
6.73671695323e-06
5.24657683953e-06
1.64894545657e-07
1.61881093154e-06
2.66638036364e-06
1.56550577711e-08

