# vtk DataFile Version 3.0
File Name: Molecule/arg/arg_8.0-1.vtk
ASCII
DATASET UNSTRUCTURED_GRID
FIELD FieldData 1
TIME 1 1 double
0.0
POINTS 1383 double
-3.403 0.327 1.604
-3.458 0.149 1.214
-3.138 0.005 1.702
-3.19 -0.164 1.33
-2.981 -0.361 1.858
-3.036 -0.538 1.468
-3.398 0.034 0.803
-3.133 -0.274 0.938
-2.976 -0.654 1.057
-3.231 -0.009 0.408
-2.974 -0.315 0.561
-2.809 -0.697 0.662
-2.971 0.024 0.066
-2.725 -0.284 0.235
-2.549 -0.664 0.32
-2.984 0.046 0.042
-2.617 -0.045 -0.207
-2.63 -0.024 -0.229
-2.351 -0.22 -0.527
-2.365 -0.198 -0.55
-2.2 -0.483 -0.862
-2.216 -0.458 -0.889
-3.183 0.343 -0.145
-2.753 0.07 -0.229
-2.923 0.323 -0.389
-2.57 0.022 -0.532
-2.724 0.253 -0.678
-2.446 -0.093 -0.847
-2.6 0.138 -0.992
-2.39 -0.269 -1.153
-2.559 -0.016 -1.312
-3.263 0.702 -0.308
-2.991 0.63 -0.528
-2.786 0.532 -0.805
-2.663 0.417 -1.12
-2.628 0.291 -1.452
-3.216 1.083 -0.43
-2.951 0.955 -0.632
-2.75 0.829 -0.899
-2.626 0.714 -1.214
-2.587 0.616 -1.556
-3.047 1.443 -0.495
-2.807 1.262 -0.688
-2.618 1.109 -0.95
-2.495 0.993 -1.265
-2.443 0.924 -1.611
-2.776 1.74 -0.497
-2.575 1.516 -0.689
-2.407 1.34 -0.951
-2.283 1.225 -1.266
-2.211 1.177 -1.613
-2.622 1.932 -0.429
-2.434 1.563 -0.734
-2.291 1.743 -0.67
-2.16 1.459 -1.077
-2.01 1.647 -1.011
-1.982 1.439 -1.492
-1.81 1.654 -1.416
-2.666 2.281 -0.134
-2.227 2.054 -0.482
-2.267 2.371 -0.214
-1.881 2.228 -0.637
-1.921 2.545 -0.369
-1.615 2.438 -0.879
-1.659 2.787 -0.585
-2.622 2.533 0.247
-2.227 2.6 0.132
-1.881 2.773 -0.023
-1.614 3.039 -0.203
-2.495 2.657 0.67
-2.111 2.713 0.516
-1.765 2.886 0.361
-1.488 3.163 0.22
-2.797 2.625 0.927
-2.251 2.77 1.005
-2.52 2.741 1.234
-2.033 3.002 1.293
-2.299 2.974 1.519
-1.863 3.333 1.507
-2.155 3.302 1.755
-3.035 2.497 1.22
-2.731 2.627 1.494
-2.507 2.861 1.775
-2.385 3.178 2.038
-3.186 2.284 1.521
-2.865 2.437 1.761
-2.64 2.674 2.039
-2.53 2.972 2.328
-3.419 1.801 1.788
-2.888 2.359 1.917
-3.122 1.876 2.185
-2.717 2.558 2.345
-2.979 2.017 2.644
-3.552 1.393 1.822
-3.202 1.735 2.161
-3.319 1.374 2.191
-3.094 1.732 2.585
-3.21 1.376 2.614
-3.107 1.793 3.017
-3.235 1.399 3.05
-3.548 0.964 1.825
-3.316 0.994 2.194
-3.206 1.001 2.617
-3.231 0.984 3.053
-3.408 0.559 1.798
-3.191 0.635 2.17
-3.084 0.647 2.593
-3.095 0.593 3.027
-3.105 0.348 2.085
-3.1 0.088 1.867
-2.97 0.105 2.152
-3.02 0.504 2.546
-2.901 0.29 2.606
-2.978 0.383 3.085
-2.865 -0.346 2.113
-2.52 -0.7 2.425
-2.789 -0.06 2.411
-2.48 -0.378 2.69
-2.828 0.19 2.745
-2.523 -0.123 3.02
-2.645 0.041 3.387
-2.483 -1.039 2.238
-2.249 -0.827 2.688
-2.214 -1.15 2.51
-2.072 -0.978 3.011
-2.036 -1.312 2.826
-2.003 -1.142 3.367
-1.962 -1.514 3.162
-2.359 -1.33 2.011
-2.096 -1.427 2.294
-1.914 -1.599 2.602
-1.826 -1.833 2.912
-2.159 -1.55 1.761
-1.905 -1.637 2.055
-1.716 -1.817 2.356
-1.606 -2.075 2.638
-1.897 -1.684 1.507
-1.655 -1.765 1.813
-1.457 -1.949 2.105
-1.318 -2.222 2.359
-1.592 -1.721 1.268
-1.365 -1.8 1.585
-1.156 -1.986 1.869
-0.984 -2.263 2.097
-1.926 -1.641 1.017
-1.351 -1.766 0.91
-1.664 -1.691 0.675
-1.133 -1.941 0.578
-1.457 -1.864 0.334
-0.96 -2.23 0.303
-1.327 -2.142 0.027
-2.203 -1.444 0.759
-1.923 -1.507 0.433
-1.726 -1.673 0.084
-1.631 -1.926 -0.256
-2.396 -1.15 0.52
-2.103 -1.231 0.209
-1.913 -1.387 -0.149
-1.843 -1.603 -0.519
-2.487 -0.785 0.321
-2.189 -0.889 0.022
-2.002 -1.032 -0.342
-1.943 -1.202 -0.738
-2.264 -0.668 -0.026
-2.322 -0.554 -0.027
-2.141 -0.611 -0.433
-2.203 -0.492 -0.433
-2.131 -0.618 -0.861
-2.114 -0.682 -1.181
-1.927 -1.264 -1.052
-2.312 -0.441 -1.376
-2.121 -0.506 -1.916
-2.042 -0.816 -1.214
-1.838 -0.886 -1.79
-1.682 -1.348 -1.746
-1.975 -0.256 -2.322
-1.864 -0.768 -1.888
-1.672 -0.441 -2.421
-1.897 0.192 -2.527
-1.57 0.147 -2.691
-1.996 0.646 -2.441
-1.495 0.306 -2.776
-1.602 0.798 -2.682
-1.198 0.386 -3.152
-1.328 0.981 -3.039
-2.011 1.039 -2.18
-1.619 1.224 -2.399
-1.348 1.496 -2.696
-1.72 1.257 -2.235
-1.631 1.561 -2.005
-1.259 1.801 -2.466
-1.479 1.817 -1.75
-1.107 2.057 -2.211
-1.346 2.153 -1.415
-1.642 2.007 -1.116
-1.319 2.584 -1.178
-1.091 2.821 -1.245
-1.159 2.356 -1.471
-0.94 2.583 -1.535
-1.087 2.175 -1.825
-0.858 2.412 -1.893
-0.852 2.322 -2.287
-0.816 3.013 -1.267
-0.676 2.767 -1.557
-0.583 2.604 -1.915
-0.543 2.537 -2.312
-0.229 3.384 -1.004
-0.488 2.934 -1.522
-0.105 3.176 -1.351
-0.228 2.93 -1.855
0.02 3.086 -1.745
-0.059 3.001 -2.236
0.134 3.123 -2.15
0.003 3.141 -2.63
0.229 3.284 -2.529
-0.048 3.337 -3.001
0.294 3.553 -2.848
0.466 3.148 -0.891
0.348 3.022 -1.277
0.313 2.987 -1.697
0.364 3.045 -2.112
0.497 3.193 -2.485
0.833 2.913 -0.61
0.553 2.897 -1.196
0.905 2.671 -0.926
0.699 2.74 -1.539
1.067 2.504 -1.257
0.892 2.689 -1.891
1.303 2.425 -1.576
1.057 2.557 -0.305
1.12 2.33 -0.634
1.29 2.148 -0.952
1.553 2.026 -1.234
1.025 2.711 0.026
1.24 2.204 -0.113
1.21 2.35 0.201
1.539 1.918 0.039
1.507 2.071 0.37
0.916 2.809 0.362
1.106 2.444 0.521
1.398 2.17 0.706
0.737 2.845 0.68
0.936 2.478 0.823
1.22 2.206 1.024
0.406 3.093 0.833
0.701 2.629 1.02
0.405 2.851 1.157
0.756 2.48 1.392
0.466 2.698 1.526
0.897 2.411 1.765
0.584 2.646 1.91
1.112 2.426 2.108
0.748 2.699 2.276
0.102 3.399 0.689
0.198 3.058 1.115
-0.072 3.33 0.987
0.05 3.076 1.433
-0.206 3.335 1.311
-0.029 3.146 1.769
-0.293 3.414 1.643
-0.034 3.266 2.099
-0.327 3.561 1.96
-0.29 3.571 0.538
-0.421 3.483 0.852
-0.539 3.48 1.183
-0.636 3.563 1.511
-0.705 3.727 1.814
-0.721 3.587 0.398
-0.805 3.497 0.727
-0.904 3.494 1.065
-1.012 3.577 1.389
-1.123 3.742 1.679
-1.138 3.445 0.287
-1.176 3.371 0.629
-1.257 3.373 0.971
-1.376 3.453 1.292
-1.525 3.605 1.572
-1.488 3.12 0.569
-1.554 3.135 0.914
-1.681 3.207 1.233
-0.038 3.383 2.443
0.304 2.919 2.221
0.3 3.037 2.566
0.743 2.833 2.666
-0.112 3.436 2.794
0.225 3.091 2.918
0.658 2.893 3.065
-0.253 3.42 3.128
0.084 3.075 3.254
0.499 2.875 3.445
-0.449 3.338 3.421
-0.113 2.992 3.549
0.276 2.781 3.779
-0.687 3.194 3.654
-0.352 2.847 3.783
0.006 2.617 4.044
-1.016 3.185 3.753
-0.58 2.815 3.881
-0.962 2.805 3.996
-1.359 3.167 3.763
-1.359 2.784 4.008
-1.693 3.142 3.685
-1.746 2.755 3.917
-1.995 3.111 3.523
-2.096 2.719 3.73
-2.244 3.076 3.289
-2.384 2.678 3.458
-2.423 3.039 2.998
-2.593 2.636 3.121
-2.521 3.004 2.671
-2.706 2.595 2.741
-0.749 2.537 4.164
-0.16 2.345 4.321
-0.912 2.194 4.368
-0.321 2.009 4.521
-1.061 1.806 4.483
-0.466 1.628 4.634
-1.28 2.135 4.399
-1.452 1.611 4.604
-1.641 1.894 4.531
-1.543 2.398 4.242
-1.868 2.121 4.396
-1.833 2.577 4.025
-2.118 2.276 4.208
-2.128 2.66 3.763
-2.373 2.347 3.982
-2.409 2.64 3.473
-2.615 2.33 3.732
-2.655 2.52 3.176
-2.827 2.227 3.476
-2.849 2.307 2.894
-2.995 2.043 3.232
-1.464 1.095 4.666
-0.956 1.592 4.533
-0.968 1.074 4.596
-0.48 1.041 4.705
-1.655 0.731 4.634
-1.079 0.886 4.596
-1.26 0.541 4.565
-0.689 0.687 4.666
-0.881 0.322 4.633
-0.333 0.517 4.869
-0.555 0.096 4.831
-1.956 0.515 4.553
-1.383 0.368 4.531
-1.661 0.166 4.457
-1.114 -0.009 4.584
-1.407 -0.22 4.505
-0.878 -0.357 4.785
-1.219 -0.603 4.693
-2.226 0.322 4.369
-1.912 -0.012 4.286
-1.67 -0.408 4.326
-1.526 -0.822 4.484
-2.442 0.172 4.097
-2.112 -0.152 4.033
-1.88 -0.555 4.06
-1.772 -0.993 4.174
-2.586 0.075 3.76
-2.246 -0.241 3.721
-2.021 -0.649 3.731
-1.935 -1.103 3.791
-2.301 -0.273 3.375
-2.078 -0.682 3.368
-0.642 -0.546 4.955
-0.314 -0.097 5.005
-0.383 -0.749 5.065
-0.05 -0.304 5.117
-0.111 -0.96 5.11
0.227 -0.52 5.163
0.164 -1.171 5.088
0.507 -0.734 5.141
0.328 -1.528 5.007
0.615 -0.976 5.092
0.771 -1.314 5.015
1.043 -0.806 5.264
1.207 -1.163 5.184
0.496 -1.85 4.839
0.93 -1.621 4.855
1.375 -1.486 5.015
0.658 -2.122 4.593
1.084 -1.878 4.621
1.537 -1.757 4.769
0.805 -2.327 4.281
1.224 -2.073 4.326
1.684 -1.962 4.458
0.93 -2.454 3.923
1.343 -2.194 3.985
1.809 -2.089 4.099
1.026 -2.497 3.536
1.433 -2.234 3.618
1.905 -2.132 3.712
1.086 -2.453 3.142
1.491 -2.193 3.244
1.965 -2.088 3.318
1.109 -2.324 2.763
1.512 -2.07 2.884
1.988 -1.959 2.939
1.092 -2.118 2.42
1.496 -1.875 2.558
1.971 -1.753 2.596
1.037 -1.846 2.131
1.444 -1.616 2.284
1.916 -1.481 2.307
0.796 -2.146 2.122
0.866 -1.735 1.801
0.66 -1.991 1.794
0.779 -1.673 1.428
0.591 -1.907 1.421
0.784 -1.666 1.039
0.596 -1.899 1.033
0.88 -1.714 0.666
0.674 -1.97 0.659
1.061 -1.813 0.337
0.819 -2.113 0.328
0.482 -2.37 2.114
0.391 -2.182 1.787
0.347 -2.08 1.414
0.352 -2.073 1.026
0.406 -2.161 0.652
0.505 -2.337 0.32
0.119 -2.499 2.107
0.081 -2.292 1.78
0.065 -2.18 1.409
0.07 -2.173 1.021
0.096 -2.271 0.646
0.142 -2.466 0.313
-0.266 -2.524 2.101
-0.247 -2.313 1.776
-0.234 -2.2 1.405
-0.229 -2.193 1.016
-0.232 -2.292 0.641
-0.243 -2.491 0.308
-0.643 -2.443 2.098
-0.569 -2.244 1.773
-0.527 -2.137 1.402
-0.522 -2.13 1.014
-0.554 -2.224 0.638
-0.62 -2.41 0.304
-0.86 -2.09 1.772
-0.792 -1.997 1.401
-0.787 -1.99 1.013
-0.845 -2.07 0.637
1.343 -1.496 0.161
1.028 -1.535 0.641
1.242 -1.295 0.508
1.078 -1.33 0.996
1.248 -1.139 0.89
1.205 -1.217 1.373
1.361 -1.043 1.276
1.4 -1.205 1.737
1.57 -1.014 1.631
1.644 -1.296 2.058
1.857 -1.056 1.925
2.198 -1.164 2.131
1.48 -1.078 0.031
1.346 -0.978 0.409
1.331 -0.887 0.812
1.436 -0.812 1.205
1.652 -0.762 1.553
1.961 -0.739 1.826
2.335 -0.746 2.002
1.639 -0.712 -0.547
1.451 -0.719 0.207
1.594 -0.39 -0.313
1.526 -0.39 0.423
1.664 -0.072 -0.079
1.697 -0.118 0.66
1.842 0.216 0.134
1.696 -1.065 -0.74
1.721 -0.524 -0.905
1.773 -0.846 -1.081
1.914 -0.328 -1.213
1.966 -0.645 -1.386
2.201 -0.141 -1.444
2.256 -0.481 -1.629
1.664 -1.393 -0.979
1.744 -1.145 -1.299
1.937 -0.939 -1.601
2.226 -0.795 -1.858
1.546 -1.673 -1.249
1.636 -1.4 -1.545
1.831 -1.191 -1.843
2.112 -1.064 -2.117
1.348 -1.888 -1.533
1.457 -1.596 -1.804
1.654 -1.384 -2.098
1.923 -1.27 -2.389
1.085 -2.024 -1.812
1.217 -1.72 -2.058
1.418 -1.506 -2.348
1.67 -1.4 -2.657
0.772 -2.072 -2.068
0.932 -1.764 -2.291
1.137 -1.549 -2.578
1.371 -1.446 -2.902
0.431 -2.029 -2.284
0.62 -1.725 -2.489
0.83 -1.51 -2.772
1.043 -1.405 -3.11
0.082 -1.898 -2.448
0.302 -1.605 -2.638
0.517 -1.392 -2.919
0.708 -1.279 -3.267
-0.251 -1.687 -2.547
-0.001 -1.412 -2.728
0.218 -1.203 -3.008
0.389 -1.077 -3.362
-0.548 -1.409 -2.576
-0.272 -1.16 -2.755
-0.048 -0.954 -3.034
0.104 -0.811 -3.39
-0.822 -1.287 -2.506
[...]
CELL_DATA 2762
SCALARS cell_data_0 double
LOOKUP_TABLE default
3.59274725881e-09
2.60467853971e-09
1.76941877801e-08
1.0020682983e-08
4.33399204961e-09
8.12775134396e-09
7.58019645936e-09
3.38116483477e-09
5.57761113931e-09
1.23171810866e-08
5.81108845131e-09
4.55561675741e-09
1.6712176573e-08
1.92426938406e-08
1.51991363919e-10
1.35515648515e-08
5.07123147224e-09
7.75919621725e-10
2.85956437528e-09
9.85121486936e-09
4.41986248288e-09
3.00180279027e-09
1.32240799039e-08
1.41839611581e-08
1.71687607435e-08
1.86799630384e-08
1.44105672258e-08
1.90477569908e-08
4.37448382197e-08
2.02547833928e-08
4.28624548239e-09
2.35930531745e-11
6.47815130352e-09
1.22545618258e-09
1.79211316357e-09
3.29244900424e-09
1.10279319816e-08
6.52568585802e-09
1.19318322054e-09
9.82603283689e-10
1.75238337441e-09
6.72697978814e-10
3.07267657291e-09
6.13354554042e-09
1.46282882324e-08
4.70263336856e-09
2.34652892168e-09
4.2308170086e-09
7.7416784873e-11
4.47585498396e-09
8.33378736008e-09
8.39645470147e-09
7.77779460684e-09
6.57657326441e-09
5.49570327841e-09
1.07098292951e-08
9.23195058074e-09
8.02697542967e-09
2.36146000572e-08
1.61558180461e-08
2.67762684736e-09
1.23691660679e-08
9.99785399102e-09
9.14073321255e-09
6.17083414603e-09
9.92867470784e-09
7.78419262381e-09
6.82077811257e-09
1.77884083437e-08
2.09431523754e-08
2.45418139471e-08
3.3704879682e-08
2.42700476377e-08
2.36986776724e-08
5.97261817124e-09
1.0979680728e-09
8.50371968591e-09
6.07443396928e-09
8.27509208551e-09
6.3802968722e-09
5.73690139565e-09
1.28691191691e-08
6.26838000841e-09
7.61222314872e-09
4.98841741211e-10
3.38012653474e-09
5.99005503938e-09
4.24758151823e-09
4.73667496059e-09
6.50866568729e-09
6.21238043769e-09
3.32320435651e-09
3.92653279483e-10
2.21561250146e-09
7.03300644639e-10
4.20043267806e-10
5.91137998677e-09
1.46916706919e-09
2.71439753341e-09
7.42750478375e-09
7.1183475575e-10
6.78185592948e-09
4.48864481792e-09
7.54488299103e-11
2.99111974244e-09
6.07822829156e-09
1.46647619148e-08
4.57800139394e-10
1.22151978897e-09
2.86237594606e-09
6.07283523629e-09
2.58070025683e-09
8.87023811515e-09
1.37022083593e-09
3.81056411921e-09
8.09813947315e-09
3.43960899289e-09
4.43241581022e-09
5.32876487242e-09
3.93137810163e-10
1.02113176353e-08
9.70236312011e-09
7.21428729986e-09
3.44294929498e-09
3.82047438844e-09
1.20892648608e-09
3.27646648358e-09
3.22212400744e-09
6.43596549152e-09
6.13137784443e-09
1.44704389941e-08
1.18663595486e-08
2.93058848735e-09
6.78696533509e-09
1.92042463786e-08
2.63165833993e-08
1.17978156887e-09
7.01929846697e-09
2.171003997e-08
1.66536469813e-09
4.97642089937e-08
5.95241168957e-08
1.90581917514e-07
8.08419770602e-08
3.07696052701e-07
3.82052145251e-08
3.19040688824e-10
1.79248899344e-09
5.28009701101e-08
5.59502746391e-08
1.2974241051e-07
3.63042926556e-08
1.33818766091e-08
8.50442901707e-10
1.76541906606e-08
3.90910597101e-08
4.34243235985e-08
1.71674573622e-08
1.41617343651e-08
5.73088102794e-09
3.68217681462e-09
9.64090767216e-09
2.34105309541e-08
1.76586263049e-08
3.07803639872e-08
2.05476845991e-08
9.49073956476e-09
3.64374366525e-08
1.97322028002e-09
8.99154570613e-09
9.29781312823e-10
2.70191935527e-08
3.63092807293e-08
3.60333568951e-08
4.10411452944e-08
8.61324672974e-09
4.20978889275e-09
6.52819999372e-09
1.38915578311e-09
1.56378965414e-09
1.64040594651e-08
2.05651326226e-09
1.00467215925e-08
9.29418436671e-09
6.01385420796e-09
7.9166602125e-09
1.49797693344e-08
4.55071270315e-09
2.27366310821e-08
2.33089302859e-08
1.85292741351e-08
2.32793369599e-08
2.25031305465e-09
1.74358801443e-08
1.65169721298e-08
5.60163167383e-09
4.85950671789e-09
2.11286280675e-08
2.59698016497e-08
2.9079336469e-09
3.32624822093e-08
4.62473747618e-08
2.07799431381e-08
1.2733418475e-08
3.48097074676e-08
7.32596432861e-08
2.21326501114e-08
5.73242166105e-08
1.46829969704e-08
2.27698470656e-08
6.04401137706e-08
9.06506770695e-08
2.03051547691e-08
4.5985143438e-08
1.26418047003e-07
3.73837062287e-08
7.06427241839e-08
1.17299411047e-07
1.65223298665e-08
7.72045655604e-08
4.42450169967e-08
3.16190751636e-08
4.76260555859e-08
2.57691934047e-08
5.48098083478e-08
1.8142569412e-08
3.54328349631e-08
3.61877531969e-08
1.20831636915e-08
2.76899100714e-09
1.88760243565e-10
1.64993346979e-09
4.20893015029e-08
5.68928230483e-09
8.69936769611e-08
9.54824212624e-09
1.58310124712e-08
1.93112395981e-08
1.40913673401e-08
6.26321315008e-08
2.05438508859e-08
2.40264722303e-08
8.54980678873e-08
6.63533406866e-08
6.70910725706e-08
7.6352257825e-08
2.15934111182e-08
5.65499222069e-08
2.22828443553e-08
7.8181954317e-08
1.94886125988e-07
1.13725206309e-07
2.20078296983e-09
6.34044528879e-08
2.13410256475e-08
3.13622124043e-08
1.11244146154e-08
2.0816990754e-08
1.08424106366e-07
2.20058400826e-08
3.44694638093e-07
1.95346730303e-08
1.14559694302e-08
8.20417959491e-08
7.21268999569e-08
1.66140570502e-07
1.44885718502e-07
1.94580256463e-08
2.76724860894e-08
1.2778824479e-08
5.2877164928e-08
1.78822687751e-08
2.1298471072e-08
2.75263292398e-09
9.52358703621e-09
1.21159212865e-08
1.24804067017e-08
1.45446941675e-09
4.6726486713e-09
1.27847718456e-08
6.67275137084e-09
6.01261145805e-09
1.2586313152e-08
6.33018343633e-09
4.33764593797e-09
2.9159586606e-09
6.27426571257e-10
2.34548924537e-09
6.49406021291e-09
3.70829052934e-09
1.86315967522e-08
2.15897676894e-08
3.45582365418e-08
4.94374323265e-09
9.15850381132e-09
5.2017565355e-09
7.61208367229e-09
2.71427023999e-09
7.51303658338e-09
1.10668908829e-08
7.89004769116e-09
6.8710542375e-10
5.50657182659e-11
1.99127383329e-09
2.65439736111e-09
1.14447058345e-09
1.42202652298e-09
3.59994145539e-09
7.75046384217e-10
1.13176529176e-09
1.75734086874e-09
2.25237659252e-09
1.76871722511e-09
1.28602401344e-09
8.62696810817e-10
2.77128607801e-09
1.84486739641e-09
1.78971858669e-09
2.59750986091e-09
1.12803073045e-09
1.25619681996e-09
7.97097708212e-10
4.39578268858e-09
3.86995128963e-10
1.32736046099e-09
3.75296065194e-09
6.41135792639e-09
5.1664192635e-09
2.89762699405e-09
5.03017195778e-09
5.10120824417e-09
1.00260813317e-09
1.10387934551e-09
2.59762312634e-10
1.32477233525e-08
2.00929207301e-09
4.35845269697e-08
3.26015378261e-10
1.31232223392e-08
9.07568520147e-09
3.51221762275e-08
3.34491108541e-10
9.56952480051e-09
1.18985910871e-08
4.68278486994e-08
8.72615134924e-10
6.78176434345e-09
5.07179260951e-09
4.26730971947e-08
3.30323628789e-09
3.52198699861e-09
5.95150547047e-09
3.29346920737e-08
2.98898271658e-09
4.37744493676e-09
6.06817062315e-10
3.76430854227e-11
9.67708913034e-10
1.18339449669e-09
8.24073277291e-10
1.78061766798e-09
2.45314255956e-09
2.42871811162e-09
2.85947058872e-09
1.29965294559e-09
1.80660920365e-09
2.86395538815e-09
2.63432709472e-10
7.41365360903e-09
1.15333295491e-08
2.41153147664e-08
3.03981907586e-10
2.02431755848e-08
7.49249064776e-09
1.7396923815e-08
9.01349898568e-09
3.55694315033e-09
1.34442147419e-09
1.53158108365e-09
3.49402131826e-10
3.64834243873e-10
8.62906748936e-10
9.52351655029e-10
1.45961820293e-09
1.49502165819e-09
2.52231123389e-09
2.08284703705e-09
2.19049132766e-09
4.26183592859e-10
2.95110336258e-09
5.45654974856e-10
1.09805138774e-08
1.4847810966e-08
3.54638382083e-09
1.96126036124e-08
1.76107302045e-09
9.08606941109e-09
6.07052023384e-09
2.4762523362e-09
1.75109504843e-09
6.35190487303e-09
2.79780776429e-10
5.20019808189e-09
9.95877794149e-09
8.1403240814e-09
1.24722360539e-08
6.4569523234e-09
6.23153276205e-09
1.11737060533e-08
4.26951615175e-09
1.32804411122e-08
3.88371362566e-08
1.90122729174e-08
1.2525422995e-08
1.55551872722e-08
1.46220371858e-09
2.58106403599e-08
7.27123154417e-08
5.5604812182e-08
1.48116147606e-08
2.94011269279e-08
2.9622946631e-08
7.20334136203e-08
1.16876066705e-07
1.08955638835e-07
4.177611316e-08
3.6347909936e-08
8.23217377243e-08
1.38834798343e-07
1.30503162193e-07
1.84273945331e-07
7.06046832473e-09
1.90224933159e-08
6.48314656037e-09
2.11815725161e-08
1.36120500994e-08
1.81841900467e-08
2.01718677297e-08
8.68276164878e-09
1.37640596248e-08
7.12824233141e-09
1.66803607069e-08
1.66567053316e-08
1.53906209087e-08
1.64638311362e-08
1.91332689706e-08
2.8588385014e-08
1.25247494141e-08
8.8015197292e-08
5.2843325367e-09
3.94494597706e-08
1.06547879231e-07
1.64363197209e-07
7.12162107963e-08
3.68865424851e-08
1.84302221558e-07
2.35014131168e-07
1.94693026791e-07
1.28215527168e-07
9.54257841646e-08
1.16264158932e-07
1.73416401333e-07
6.12887923852e-08
2.20341653014e-08
6.78580224487e-08
7.64165379555e-08
1.09023794056e-07
5.13038351848e-08
2.78193158214e-08
3.0435488148e-08
8.73648383672e-08
1.97298650609e-08
9.54773697857e-09
1.97836776382e-08
3.20321512667e-08
9.14587526667e-09
3.33010530271e-09
8.77002915316e-09
4.38191471595e-10
1.99903693898e-08
1.5354853138e-08
6.81855670522e-09
5.95386561321e-09
1.1991493894e-08
1.43504018573e-08
3.14650674741e-08
1.11363419022e-08
5.97469539895e-08
8.10863197428e-09
6.8514851267e-09
1.9509317589e-08
8.36588257214e-10
3.41626864562e-09
1.54526517432e-09
8.93089140785e-09
3.41135809003e-09
2.49337893334e-08
4.11228397792e-08
4.05637206214e-10
1.33117514076e-08
1.45188957652e-08
2.11905848861e-09
3.9166652875e-09
6.12933040939e-09
8.36048287774e-09
6.33313870845e-10
2.39268947387e-08
3.39645031445e-08
5.30471491581e-09
6.41327128521e-09
1.00603823302e-08
2.71719157128e-09
4.92948851595e-09
6.42594932895e-09
9.04954984592e-09
1.70315137734e-09
2.29211626828e-08
2.48458439605e-08
8.36437979978e-10
7.24381345464e-09
5.11154466499e-09
5.28365222559e-09
5.79652158075e-09
9.81179109742e-09
1.09878809283e-08
3.71496919004e-09
2.61788231015e-08
2.33462027396e-08
5.64598208546e-09
1.27216284946e-08
4.46597890635e-09
1.74730104796e-08
7.21280378147e-09
1.78798971729e-08
1.16760879934e-08
1.49908856114e-08
2.22487891463e-08
1.55295915212e-08
3.4718287797e-09
5.98250961278e-08
1.61118388219e-08
6.28470038953e-08
4.25806219652e-08
2.20151772818e-09
1.73759680623e-08
4.3105447884e-09
9.06904917121e-11
1.29844867384e-09
4.47931578253e-09
1.36116074489e-08
1.12277243359e-08
3.08223700974e-09
9.00317330564e-08
3.87509444899e-08
1.79243149872e-08
1.01772348405e-08
1.67648917053e-10
4.90775057189e-09
3.89566983762e-09
1.52243131388e-08
2.2845201206e-08
2.31413147581e-09
4.88988688423e-10
1.1169179013e-07
2.85826415963e-08
3.62434982569e-08
1.33080348412e-08
2.32369946991e-09
1.2141007033e-08
7.37210705178e-09
4.26256746401e-09
1.08934549852e-08
2.63493384558e-08
3.73100645564e-08
2.46796722157e-08
1.26346811656e-09
1.28830554981e-08
3.84174931867e-09
3.17264939242e-08
1.5146188676e-08
2.21893417164e-08
2.17833139293e-09
1.2572912943e-08
9.87855993508e-09
3.12846134193e-08
4.09545450639e-09
1.83885787836e-08
6.88199615501e-10
1.10410960341e-08
1.40028598074e-08
3.09617768071e-08
2.17085860542e-09
1.28689411806e-08
3.79277800316e-09
1.0085324854e-08
2.07266587295e-08
2.48862155061e-08
6.02024008488e-09
1.36221021924e-08
5.78733380043e-09
8.86466367824e-09
2.66483757641e-08
2.04594656329e-08
1.31634652353e-08
9.27906162441e-09
6.14288739429e-09
7.4886964832e-09
3.33156152691e-08
1.49043823756e-08
1.8683684684e-08
5.16216705051e-09
6.77574104595e-09
6.96955487193e-09
4.078450814e-08
7.9854092993e-09
2.76363902949e-08
3.5451209488e-09
6.20642405259e-09
7.0981018925e-09
4.86616157491e-08
4.54449854058e-10
3.53111073943e-08
6.62281737828e-09
4.43051310139e-09
1.02444192207e-08
6.12903626838e-08
1.54524714848e-08
5.89730502491e-08
4.0405961607e-08
4.87906807687e-09
1.46562209841e-08
2.93006535918e-09
3.97440043803e-09
2.80275494285e-08
1.20645353353e-08
6.67051400061e-09
4.32663120809e-09
1.50796956906e-08
3.99242296306e-08
1.91611127017e-08
2.52758679115e-09
1.45328194852e-08
6.47564756682e-09
9.40579215852e-10
5.72653777866e-09
5.47620408153e-09
5.73608612296e-08
7.74005945812e-08
5.36174247191e-08
1.22843747823e-07
3.7184126385e-08
1.67270144276e-07
1.66934623706e-08
2.99361693988e-07
4.47406929224e-08
2.30480049474e-07
1.21371206923e-07
3.57254231155e-07
1.3437578245e-08
4.03085257419e-07
2.31659938167e-07
7.05976547713e-08
3.00876010212e-07
2.38079487604e-07
2.20175199084e-07
1.94126945679e-07
3.35775249762e-07
4.20049619453e-07
1.50160923961e-07
6.41510417917e-08
1.54016760183e-07
1.7035664814e-07
2.86114092418e-08
7.4046393685e-08
4.01475252159e-07
3.71376394825e-07
2.69204393286e-07
3.6985999333e-08
4.09364581133e-07
2.65914606267e-07
1.70918206712e-07
2.77519174406e-07
3.41411466568e-07
7.39439407194e-08
2.93328090469e-08
1.12489083826e-07
2.81009182783e-07
9.56911668978e-08
3.97132308292e-07
3.45623833184e-07
1.27447559844e-07
3.06283923949e-07
3.37734416569e-07
1.18856140849e-07
1.31504038888e-07
5.55558655421e-07
2.61499387053e-09
1.93774425351e-07
1.63128266591e-11
5.74189424002e-08
4.59932461825e-08
1.08739802576e-08
4.95555605229e-07
5.04303678117e-07
8.09654431898e-09
1.70841606602e-07
2.34633547924e-08
6.34123878322e-08
8.59394501291e-08
3.41544876594e-08
1.13425293268e-07
3.66727239488e-08
3.9309840733e-09
1.4991475578e-08
2.62662643832e-08
8.2229861386e-09
1.89773678833e-08
8.27736103243e-09
2.36924558593e-09
3.4585419583e-08
2.02799019007e-08
1.90333626596e-09
1.11013062401e-08
6.83427219512e-09
4.67648437167e-09
4.67476938873e-08
1.65008085604e-08
1.19113068578e-08
1.0254328013e-08
4.02550389711e-09
5.28095670915e-09
1.24276026038e-08
1.06921294742e-08
1.1933979278e-09
2.91806205847e-08
3.09456712208e-08
1.44423510139e-08
3.20651259409e-08
2.18132397236e-08
2.47934630461e-08
8.30575534373e-09
1.56214387387e-08
3.81469247862e-08
4.73125099035e-08
3.54242613403e-08
4.01538906149e-08
5.69814683221e-07
2.16346837652e-07
2.31961096033e-07
5.34567679561e-07
4.19119442694e-07
1.79606533882e-07
3.66254053756e-07
1.72263100678e-07
6.00233954109e-07
9.06414803578e-08
7.08882215833e-07
4.34177964592e-07
2.47966177443e-08
3.0788264023e-07
5.40269869997e-08
1.50481652827e-07
7.12799643843e-08
9.76617265511e-08
1.15787040543e-07
3.14148866924e-09
9.81823855185e-09
3.28514383805e-09
4.99898767043e-09
6.45600410897e-09
4.43224840469e-09
4.16540715462e-09
8.14949107077e-09
2.25234012996e-09
8.34234670284e-09
9.31043106151e-09
1.15917296384e-09
8.23773884811e-10
1.10779088829e-08
7.06125971506e-09
4.78500232174e-09
9.73830201723e-09
2.74641406982e-09
7.43312633973e-09
1.72497532156e-09
5.59553467586e-11
1.13635899949e-08
4.4911780423e-09
5.62787338587e-09
1.73922825993e-08
6.19227461469e-09
6.30234808362e-09
1.08760304567e-09
5.00159072834e-10
6.45803569602e-09
2.53331763047e-09
8.62152803883e-11
1.59034017986e-08
3.60368090755e-09
7.59718269611e-09
3.21106710251e-09
1.46918479808e-09
1.82318226607e-09
2.87672843632e-09
2.63168703465e-08
1.51057725755e-08
1.56473421925e-09
7.16104516067e-09
3.05156673012e-09
1.7294697593e-08
1.72329836377e-08
7.37442679649e-09
1.20146006935e-09
5.66843544993e-10
7.32844746635e-09
1.49061122184e-08
4.61609729519e-09
3.26182588987e-08
8.91594236992e-09
7.41586576562e-09
1.23633359149e-08
1.13591549337e-08
6.03937158601e-10
7.51666926407e-09
3.99123083296e-08
1.18209484415e-07
3.99311285248e-09
2.69629930508e-08
1.43176201199e-07
1.743337794e-07
1.1839267942e-07
5.95556427798e-08
1.72805747395e-07
1.82516309715e-07
1.60769008015e-07
7.74651418454e-08
6.32350625932e-09
5.83958430269e-08
8.67191151976e-08
1.09534942919e-07
6.5929983608e-08
2.91875831941e-08
2.47563678723e-09
1.82874922088e-07
3.11053272406e-08
1.95944840562e-08
8.30375328466e-09
9.14215987039e-08
4.16752625032e-09
4.73682591579e-09
5.16123621547e-09
2.22946011621e-08
2.31119932499e-09
1.08991483762e-08
6.26662267051e-12
1.28894885938e-09
3.22656975134e-09
1.7352561135e-08
1.79915414713e-09
1.86099375954e-08
7.91130460967e-09
2.01178877296e-08
6.18476460337e-09
2.92512627563e-09
1.49539540963e-08
1.82191589703e-09
2.2841750204e-08
6.8288913729e-09
2.8748589039e-08
1.36183252597e-08
9.73818602064e-10
1.07094006504e-09
6.54733045347e-09
1.0364815185e-08
5.79438957121e-09
2.80137557119e-08
1.93211227425e-08
2.63610858509e-08
2.15335855903e-08
3.31846074551e-09
1.02619460796e-08
6.55562144022e-10
1.16313882841e-08
8.05089927006e-09
3.0127507921e-09
8.10884826327e-09
3.99094020166e-08
1.48789512732e-08
1.18978075773e-08
5.50347829924e-09
6.13447577059e-10
4.4396786349e-09
1.1012966738e-08
1.97997576776e-08
4.85342850041e-09
1.0332436863e-08
6.14562103542e-09
1.82086618671e-08
2.56101143049e-11
2.07504530881e-08
2.08358310929e-08
1.88777038329e-08
1.31291008656e-09
1.62899546253e-09
7.94864049454e-10
7.01449570648e-09
2.80285495283e-11
1.60459235636e-09
5.74151250403e-09
9.25347783074e-09
1.09641737924e-10
1.2513136791e-08
1.27371498743e-09
1.44164532217e-10
3.35167767605e-09
2.7942563333e-09
9.53939966805e-10
5.37343162946e-09
4.88246511859e-10
2.17852901567e-09
1.27928687947e-09
6.42030288532e-09
7.30436432622e-10
1.766691769e-09
5.82463653035e-09
6.24370624956e-10
9.8230009166e-09
1.70627847919e-09
1.32686778352e-10
9.90068458472e-09
3.2511197979e-08
1.26748577847e-07
2.0484572262e-07
3.35127375097e-07
1.45209155748e-07
4.06108506679e-08
1.51760595422e-07
1.24729682557e-07
5.1865128653e-08
1.30502038253e-08
1.32350854033e-08
2.03653568835e-08
9.37911892841e-09
2.04629696319e-08
3.23954675009e-08
1.87829596303e-09
3.77143646245e-08
2.30699975343e-10
1.39131972933e-08
2.47441094388e-09
4.4914158489e-08
2.76581118306e-08
1.15755448899e-08
2.6702527709e-09
4.96031786985e-09
2.53543851876e-08
3.09221261947e-08
2.49995267184e-08
3.95571534515e-08
4.93491375602e-08
1.45436285937e-08
3.85509724924e-08
5.88300639158e-08
2.72107321131e-08
6.13418690912e-09
9.19630870911e-09
1.28418174893e-08
3.26166269031e-08
1.08897968993e-07
8.58770115535e-08
1.22260188066e-07
6.9473138835e-09
5.16913824661e-08
5.91871046794e-09
2.67944819636e-08
8.86708340519e-09
2.57055017181e-08
1.95306684387e-08
5.41556216546e-08
6.10998801852e-08
8.20282870028e-08
8.74875110915e-08
6.45107387819e-08
4.09106994915e-08
3.38686256914e-09
3.76908057431e-08
2.17326850336e-08
3.91594621754e-08
5.11627626045e-08
4.17018455634e-09
1.01478882349e-07
9.86695754401e-09
4.20921754381e-08
1.44326726906e-09
5.05157194483e-08
2.33573848251e-08
6.47142616521e-09
2.18019498479e-08
1.31173130471e-08
9.24765834694e-09
8.77718266838e-09
4.21148811139e-09
5.40788312193e-09
6.91956437064e-09
8.01332844522e-09
3.5826324713e-09
1.48132505894e-09
4.67688251772e-09
4.14519063045e-09
2.37251447018e-09
3.25903390961e-09
1.04908593953e-08
2.75886308523e-09
3.63861948221e-09
1.98388773983e-09
7.47269322773e-09
4.46048860074e-09
4.3421894527e-09
7.19322218548e-09
2.65057064105e-09
1.28533273464e-09
1.55905301776e-09
5.19578492722e-09
5.30791501123e-09
2.37420489804e-09
1.17619342251e-09
2.14200640526e-08
3.41908573733e-09
1.23930603005e-09
1.93875381922e-09
3.47208825575e-10
3.33641951323e-09
1.92954049876e-09
2.59911936716e-09
1.15935047334e-08
1.96107495779e-09
1.41547341355e-08
1.78638858836e-08
2.6642802378e-08
2.90960265077e-08
4.77210738867e-08
8.79556643159e-09
8.4793857643e-08
1.76407934994e-08
1.6125189616e-09
7.30455614857e-09
2.54295396824e-09
1.47267570655e-09
1.41957747156e-08
6.91959885362e-09
3.07831949537e-08
5.22605670668e-09
1.42005256867e-08
2.08892575985e-08
1.63342013596e-09
1.14879225402e-08
5.14509526943e-09
1.85732550946e-08
2.2971343466e-08
4.01603344804e-08
5.27642851495e-08
7.08428691844e-08
1.94042753737e-08
1.23832147819e-08
2.70673326429e-08
1.58730127123e-09
1.79953970809e-08
2.0261220331e-08
3.98684217102e-08
8.00453629965e-09
2.48092472002e-09
2.91117399713e-08
1.72250960394e-08
4.22011516266e-08
1.25275680242e-08
7.46609377883e-08
2.77406321094e-08
1.03734406294e-08
2.77255884486e-08
4.22621604081e-08
1.38212136116e-08
7.56696430235e-08
5.00097196176e-08
1.2020502366e-10
8.63241866491e-09
3.70351474773e-09
7.85289221302e-09
4.63427889434e-08
8.56417878131e-09
1.81339604731e-08
1.15681888811e-07
3.63173482823e-08
1.70202287563e-07
1.9291854508e-07
5.792442433e-08
3.0275819118e-07
7.24983399155e-08
2.23603499354e-09
1.94680081262e-07
3.02224145982e-07
2.68266245892e-07
3.57188667595e-09
1.03890393227e-07
4.14878336553e-07
1.575774031e-08
1.64540982034e-07
2.01454044682e-07
1.78430852636e-07
2.14337410973e-07
1.66655989266e-07
4.79472744634e-08
2.89520323167e-08
8.96533275233e-08
8.34099547166e-08