# vtk DataFile Version 3.0
File Name: Molecule/arg/arg_1.0-6.vtk
ASCII
DATASET UNSTRUCTURED_GRID
FIELD FieldData 1
TIME 1 1 double
0.0
POINTS 240 double
-3.4445781708 0.24730086327 1.3992964029
-3.1820788383 -0.077750995755 0.62354153395
-3.0525679588 -0.48499599099 1.4882940054
-2.7168490887 -0.53988003731 0.45907846093
-3.1105871201 0.24763011932 -0.072441980243
-2.3024859428 -0.36359706521 -0.28975054622
-2.2837424278 -0.37404033542 -1.0239229202
-2.0580108166 -0.78570085764 -0.75820815563
-2.6540002823 1.3084127903 -0.75634795427
-2.5913853645 0.15138983727 -1.0485252142
-2.2310564518 1.1302645206 -1.60620296
-1.9570934772 1.676472187 -1.0546712875
-2.6591489315 2.085981369 -0.29062575102
-1.4425786734 3.1749875546 0.22929753363
-1.7702410221 2.599070549 -0.54985517263
-2.4834036827 2.659954071 0.6503443718
-3.0304632187 2.3583040237 1.6165052652
-1.8310043812 3.3358461857 1.5183897018
-2.5165445805 2.9912075996 2.2958557606
-2.7308087349 2.5498921871 2.7211639881
-3.0881435871 1.8154420853 2.3515126705
-3.5416879654 1.7613157034 1.6405742168
-3.394554615 0.81353759766 1.9424371719
-3.1898827553 0.96752345562 2.9081940651
-3.0133314133 0.4460529685 2.4269173145
-3.1176788807 0.12713766098 1.8562891483
-2.8461356163 0.23054383695 3.3776960373
-2.6817312241 -0.072743117809 2.7216324806
-2.8729431629 -0.19453716278 2.1612036228
-2.4848735332 -0.75634616613 2.4008181095
-2.2190804482 -0.37894248962 3.3974826336
-1.7260962725 -1.7046958208 1.441899538
-1.9419505596 -1.4922703505 3.1757280827
-0.9751509428 -2.2638485432 2.1321918964
-2.224216938 -1.2630569935 0.51242691278
-1.0100278854 -2.1957118511 0.3174418807
-1.8661744595 -1.4197646379 -0.26249885559
-1.879114747 -1.3056036234 -1.0989276171
-1.4905841351 -1.6616690159 -1.859946847
-1.7415853739 -0.76912838221 -2.0782496929
-2.0743973255 -0.7228499651 -1.4382952452
-2.0960745811 -0.69532251358 -1.0654011965
-2.2593808174 -0.41289159656 -1.8250738382
-2.2540147305 0.22755174339 -2.2944555283
-1.5419363976 0.12977643311 -2.7162463665
-1.7072051764 1.0173834562 -2.4778449535
-1.0770418644 0.71327286959 -3.4123427868
-1.4752672911 1.5241992474 -2.3237242699
-1.8366738558 1.46291399 -1.8133554459
-1.1722047329 1.6604526043 -2.9727447033
-1.0912978649 2.0814816952 -2.1980352402
-1.4685173035 1.8330934048 -1.7435859442
-1.2044975758 2.4058828354 -1.3473784924
-0.40361130238 2.6009838581 -2.4696917534
-0.35949659348 2.9135932922 -1.673746109
-0.91104072332 3.293006897 -0.95325130224
0.39617484808 3.0928838253 -1.0333909988
0.3657540977 3.0491333008 -2.1239221096
-0.038075838238 3.2426898479 -2.8205649853
0.33664822578 3.4452102184 -2.736189127
1.0541769266 2.4731664658 -0.4801376164
0.84795969725 2.6486029625 -1.4063020945
1.5107423067 1.9454782009 -1.0554907322
0.93221384287 2.7934165001 0.337431252
1.5395392179 1.9171333313 0.089518241584
1.2167955637 2.2068915367 0.99716740847
0.25979700685 3.0750579834 1.0057154894
1.2422802448 2.2617330551 1.9676775932
0.56953537464 2.8857171535 2.5285861492
-0.17001540959 3.40422225 2.0597445965
-0.35494035482 3.3662018776 3.3242828846
0.79344189167 2.8327996731 3.3561770916
-0.78079479933 2.833124876 3.9218044281
-1.2985879183 3.6748740673 3.3959317207
-1.7363060713 2.8422529697 3.8481669426
-2.1620759964 3.2284052372 3.2736411095
-2.3986670971 2.633780241 3.4918525219
-1.0397455692 2.1068587303 4.4048638344
0.07945022732 2.5767667294 4.1001081467
-0.4171872139 1.637778163 4.6305522919
-2.4501824379 2.2192339897 4.1076250076
-1.6977747679 1.7619001865 4.5845255852
-3.0297906399 1.920088172 3.1720025539
-0.25454369187 0.94959527254 4.7881598473
-1.1002988815 1.1330399513 4.5941119194
-0.11983219534 0.34484836459 5.0327539444
-0.72418737411 0.48524478078 4.6938385963
-1.6354696751 0.66825473309 4.6489224434
-0.76356947422 -0.45326721668 4.8709311485
-1.6911541224 -0.86649155617 4.3359217644
-2.3486042023 0.22280441225 4.2260227203
0.17795282602 -1.1954232454 5.0799155235
0.36542418599 -0.31830739975 5.2138705254
1.2777842283 -0.80939364433 5.3323135376
1.2343561649 -1.8829401731 4.5845160484
0.49665167928 -2.2637951374 4.5176978111
1.1295461655 -2.4431660175 3.2125766277
1.0254690647 -1.8574882746 2.1494312286
1.9304940701 -1.9313604832 2.812186718
0.80320888758 -1.641305089 1.2523603439
0.13553981483 -2.1554405689 1.2510259151
0.14511808753 -2.6036500931 2.2770116329
1.0410430431 -1.8301858902 0.32723033428
0.042599778622 -2.4809398651 0.28146359324
-0.77686715126 -1.9850440025 1.1816049814
1.3897172213 -0.84109556675 1.0977978706
1.4235240221 -1.0159395933 0.15354429185
1.9090949297 -1.4752758741 2.286386013
1.403435111 -1.2165313959 1.7607759237
2.3341879845 -0.70353716612 1.9761503935
1.7042987347 -0.094352841377 0.67871040106
1.749417901 0.1902050674 -0.35277575254
1.6508295536 -0.67020636797 -0.74183273315
1.5720714331 -1.485157609 -1.6208102703
2.1965203285 -0.16571770608 -1.4576958418
2.1181311607 -1.1287933588 -2.4169683456
1.0436214209 -1.4546558857 -2.8945930004
0.50320774317 -2.1615099907 -2.1375896931
-0.25453695655 -1.4163020849 -2.6615059376
0.11190891266 -0.69681918621 -3.5284469128
-0.99131405354 -1.3414537907 -2.3854749203
-0.99848014116 -0.69001287222 -2.6640977859
-0.73207241297 -0.21343542635 -3.2718560696
-0.39503929019 -0.71298056841 -3.0162026882
-0.40219175816 0.39810371399 -3.8707220554
0.51041984558 2.5296390057 -4.0191116333
0.62029623985 3.139821291 -3.857323885
0.93168336153 2.5681610107 -3.6989898682
1.1197161674 2.5753109455 -1.8372049332
2.0995974541 1.6489984989 -1.9451096058
1.4539192915 2.5470087528 -2.2931523323
2.4438309669 1.2295566797 -2.3119325638
2.3917608261 0.7186473608 -1.6899627447
1.958647728 0.90587925911 -1.0811078548
1.9703509808 0.9370521307 0.022469898686
1.8786206245 1.2550114393 -3.7800559998
2.2492220402 1.9411281347 -3.0419986248
1.8893773556 1.3005280495 1.3405770063
2.5365099907 0.9521035552 2.5637147427
1.8403245211 1.586533308 2.3525562286
1.7918539047 2.095638752 3.2172403336
2.2324604988 1.5257467031 3.3783328533
1.517766118 1.6689505577 4.2915129662
2.321105957 1.1444847584 4.6602377892
1.3624334335 0.76286512613 5.0773410797
0.55936485529 1.6787680387 4.7329926491
0.47293704748 0.79542827606 5.0075788498
0.63763993979 3.3110272884 -2.6752893925
1.0762932301 2.7963757515 -2.4625189304
2.1887845993 2.1644394398 -2.4999136925
-3.5216562748 2.2033240795 0.79670798779
-3.5300543308 1.614746213 -0.093036718667
-3.9330463409 1.1362085342 0.8316654563
-2.6703152657 -1.2522294521 1.340043664
0.40543529391 3.4713606834 -0.084017500281
-1.1090403795 4.0097093582 2.4921045303
-2.1088223457 3.6516685486 2.514882803
-2.8536121845 1.3224600554 4.3406605721
-0.62776815891 -2.6134364605 4.2848958969
-0.79641270638 -1.663744688 4.9325146675
-1.5515688658 -1.8610049486 4.2402529716
-0.85712009668 -2.8405199051 3.1994001865
0.08692702651 -2.9484920502 3.3003766537
0.47785046697 -2.7898879051 -0.89732092619
-0.92274004221 -2.6987867355 -0.76274609566
-0.58857530355 -2.4390406609 -1.9513682127
1.3823639154 -2.0938038826 -0.77289605141
-0.51642793417 1.90026474 -3.4676954746
-0.28444817662 1.4426109791 -3.9110181332
1.309610486 2.5821242332 2.8397512436
0.98306465149 2.4003062248 4.0840678215
3.6673882008 -0.31749668717 3.697627306
3.3634362221 0.68824642897 3.7180781364
3.3183624744 0.19753141701 4.6429934502
3.3380959034 -0.8811275363 4.5787291527
3.2480847836 -1.4707624912 3.714019537
3.2541294098 -0.85252857208 2.6999118328
3.3349654675 0.19653269649 2.779671669
2.3034934998 0.21333946288 5.3897385597
2.4870660305 -0.83008348942 5.3248782158
2.6734578609 -1.6084648371 4.6651644707
2.7450244427 -1.6704822779 2.8791377544
2.8743333817 1.1892744303 3.4816298485
2.0028903484 -1.8016175032 4.7207632065
2.8902938366 0.035548236221 -2.4776525497
2.5720088482 -0.6166613698 -3.3733077049
2.6685833931 0.47359082103 -3.6024653912
1.8072857857 -1.2056103945 -3.4224114418
1.8093241453 -0.27701982856 -4.2480487823
0.88850969076 -0.72660201788 -4.0898981094
0.59830355644 0.32607397437 -4.2181639671
1.4724347591 1.2895065546 -4.0461730957
-0.16629695892 3.0211338997 -3.2759373188
-0.1392865926 2.4042878151 -3.5127086639
0.54599124193 3.7240633965 -3.0981988907
0.23046374321 3.3183736801 -3.7992019653
0.091639429331 2.87301898 -3.7012553215
0.055288683623 3.4706022739 -3.5750398636
0.067048981786 3.6110272408 -3.2461428642
0.96368038654 3.4433557987 -3.1366479397
0.97328442335 3.023337841 -3.5637800694
0.69714128971 3.5983855724 -3.5930716991
1.0510566235 3.0968866348 -2.8331637383
0.69623160362 1.8935331106 -4.4800591469
0.37452930212 1.3949898481 -4.394674778
0.38231113553 2.114657402 -4.304558754
0.92550641298 2.1542959213 -4.0619058609
1.6744892597 2.1828818321 -3.4663975239
1.2199083567 1.8864284754 -4.0820932388
1.1394671202 2.3418011665 -3.6590194702
0.16626477242 2.3724963665 -3.8792259693
1.0599215031 1.9024944305 -4.1744303703
0.10687193274 1.9610033035 -4.1357326508
1.1245707273 1.6608496904 -4.198196888
1.8258966208 2.7315690517 -2.8159325123
1.6800848246 2.6714224815 -2.5262525082
2.1175203323 2.5213561058 -2.9460201263
2.0589261055 2.3557274342 -3.2264761925
1.8359521627 2.635376215 -3.1458768845
0.97529745102 -2.4335467815 3.9410393238
1.6262938976 -2.1178407669 4.0522370338
1.9405064583 -2.1165776253 3.4611973763
2.3074090481 1.4021033049 4.1128091812
0.41038623452 -2.7258980274 3.9800584316
0.6793935895 -2.7419872284 3.3203692436
2.3334107399 -2.01486063 4.10216856
2.9083590508 1.0895472765 4.175693512
0.14218254387 0.4590074718 -4.0777864456
0.5018954277 0.95882892609 -4.2433104515
0.16102641821 0.93212223053 -4.1315712929
1.400655508 2.8065805435 -2.6787078381
1.3705033064 2.4069314003 3.6209557056
2.5947639942 -1.9561877251 3.4512000084
1.4859995842 2.5625679493 -3.3504550457
1.2191464901 2.7789919376 -3.4213631153
1.5265778303 2.843133688 -3.0581891537
-0.107227467 1.9625808001 -3.823237896
1.3006066084 1.6140642166 -4.0991773605
1.7498389482 1.694745183 -3.6239326
0.017678555101 1.5378106833 -4.1788415909

CELLS 476 1904
3 0 1 2
3 2 1 3
3 1 4 3
3 5 6 7
3 4 8 9
3 9 8 10
3 8 11 10
3 12 11 8
3 13 14 15
3 12 15 14
3 15 16 17
3 17 16 18
3 19 16 20
3 21 20 16
3 21 22 20
3 22 23 20
3 24 22 25
3 0 25 22
3 23 24 26
3 27 26 24
3 25 28 24
3 28 25 2
3 2 29 28
3 29 30 27
3 29 31 32
3 32 31 33
3 31 34 35
3 35 34 36
3 34 5 36
3 3 5 34
3 36 7 37
3 38 37 39
3 40 41 6
3 9 6 5
3 9 42 6
3 40 39 37
3 42 43 39
3 44 39 43
3 43 45 44
3 44 45 46
3 47 45 48
3 10 48 45
3 49 47 50
3 51 50 47
3 51 11 52
3 52 11 14
3 53 50 54
3 52 54 50
3 55 56 54
3 54 56 57
3 54 57 53
3 58 57 59
3 56 60 61
3 61 60 62
3 60 63 64
3 64 63 65
3 63 66 65
3 67 66 68
3 69 66 17
3 13 17 66
3 69 70 68
3 68 70 71
3 72 73 74
3 75 74 73
3 74 75 76
3 18 19 75
3 72 77 78
3 78 77 79
3 80 81 74
3 76 80 74
3 80 76 82
3 20 82 19
3 83 79 84
3 81 84 77
3 85 83 86
3 87 86 84
3 88 87 89
3 90 89 87
3 90 30 89
3 89 30 32
3 86 88 85
3 91 92 88
3 93 91 94
3 95 94 91
3 96 97 98
3 99 97 100
3 101 100 97
3 99 100 102
3 103 102 100
3 104 100 33
3 101 33 100
3 100 104 103
3 103 104 35
3 102 105 99
3 106 105 102
3 107 108 109
3 105 109 108
3 110 106 111
3 112 111 106
3 112 113 114
3 114 113 115
3 115 113 116
3 117 116 113
3 117 118 116
3 116 118 119
3 120 121 118
3 122 123 121
3 121 120 39
3 38 39 120
3 121 44 122
3 122 44 46
3 124 119 122
3 125 126 127
3 61 128 57
3 128 129 130
3 131 129 132
3 133 132 129
3 133 62 134
3 134 62 64
3 134 111 133
3 111 114 133
3 131 135 136
3 110 137 109
3 109 137 138
3 139 137 67
3 65 67 137
3 140 141 139
3 138 139 141
3 140 142 141
3 143 142 144
3 145 144 142
3 145 83 146
3 146 83 85
3 146 92 144
3 144 92 93
3 25 0 2
3 5 3 4
3 4 9 5
3 48 10 11
3 14 11 12
3 17 13 15
3 19 18 16
3 82 20 23
3 24 23 22
3 26 27 30
3 32 30 29
3 104 33 31
3 104 31 35
3 7 36 5
3 40 37 41
3 42 39 40
3 49 46 45
3 47 49 45
3 52 50 51
3 58 53 57
3 55 54 52
3 147 57 148
3 61 57 56
3 64 62 60
3 67 65 66
3 69 68 66
3 72 78 70
3 79 77 84
3 84 86 83
3 88 86 87
3 93 92 91
3 108 107 97
3 108 97 99
3 108 99 105
3 110 109 105
3 110 105 106
3 114 111 112
3 123 119 118
3 123 118 121
3 131 149 129
3 132 133 114
3 139 138 137
3 146 144 145
3 150 151 152
3 152 151 4
3 0 152 1
3 152 0 22
3 152 22 21
3 152 21 150
3 150 21 16
3 150 16 15
3 151 150 12
3 15 12 150
3 151 12 8
3 151 8 4
3 4 1 152
3 3 34 153
3 3 153 2
3 2 153 29
3 27 28 29
3 29 153 31
3 31 153 34
3 7 41 37
3 41 7 6
3 10 43 9
3 42 9 43
3 40 6 42
3 45 43 10
3 11 51 48
3 48 51 47
3 13 66 154
3 13 154 55
3 13 55 14
3 52 14 55
3 55 154 56
3 56 154 60
3 60 154 63
3 63 154 66
3 73 155 156
3 73 156 75
3 70 73 72
3 73 70 155
3 155 70 69
3 155 69 17
3 155 17 156
3 156 17 18
3 156 18 75
3 77 74 81
3 19 76 75
3 76 19 82
3 74 77 72
3 23 26 157
3 23 157 82
3 82 157 80
3 80 157 81
3 157 87 81
3 84 81 87
3 87 157 90
3 90 157 26
3 90 26 30
3 27 24 28
3 158 159 160
3 158 160 161
3 158 161 162
3 158 95 159
3 159 95 91
3 159 91 88
3 159 88 89
3 159 89 160
3 160 89 32
3 160 32 161
3 161 32 33
3 161 33 101
3 161 101 162
3 96 101 97
3 163 164 165
3 163 165 117
3 163 117 166
3 163 166 102
3 163 102 103
3 163 103 164
3 164 103 35
3 164 35 36
3 164 36 37
3 164 37 38
3 164 38 165
3 165 38 120
3 165 120 118
3 165 118 117
3 102 166 106
3 106 166 112
3 112 166 113
3 113 166 117
3 44 121 39
3 167 49 53
3 49 167 46
3 124 46 168
3 46 124 122
3 123 122 119
3 50 53 49
3 62 133 129
3 62 129 128
3 62 128 61
3 65 137 64
3 64 137 134
3 111 134 110
3 137 110 134
3 140 139 169
3 142 170 145
3 145 170 78
3 145 78 79
3 145 79 83
3 92 85 88
3 85 92 146
3 171 172 173
3 171 173 174
3 171 174 175
3 171 175 176
3 171 176 177
3 171 177 172
3 173 178 179
3 174 173 179
3 174 179 180
3 175 174 180
3 107 109 181
3 176 109 177
3 177 109 138
3 172 177 182
3 173 143 178
3 178 143 144
3 178 144 93
3 178 93 179
3 179 93 183
3 184 185 186
3 185 187 188
3 186 185 188
3 188 187 189
3 188 189 190
3 135 188 191
3 188 135 186
3 186 135 131
3 186 131 184
3 184 131 132
3 184 132 114
3 184 114 115
3 184 115 185
3 185 115 187
3 187 115 116
3 187 116 189
3 189 116 119
3 189 119 190
3 58 192 53
3 167 53 193
3 59 147 194
3 147 59 57
3 195 196 197
3 59 198 58
3 58 198 192
3 199 200 201
3 195 126 196
3 196 126 125
3 200 199 202
3 202 199 147
3 203 204 205
3 131 136 149
3 205 206 203
3 207 208 209
3 125 205 210
3 211 203 206
3 125 206 205
3 212 205 204
3 204 203 213
3 208 211 206
3 213 203 211
3 211 208 213
3 214 215 216
3 217 207 218
3 216 136 217
3 216 149 136
3 217 136 207
3 95 219 94
3 94 219 220
3 221 220 96
3 96 220 219
3 143 222 142
3 142 222 141
3 162 223 158
3 158 223 95
3 96 224 101
3 101 224 162
3 162 224 223
3 224 219 223
3 224 96 219
3 223 219 95
3 180 225 175
3 141 182 138
3 138 182 177
3 172 182 226
3 182 222 226
3 182 141 222
3 226 222 143
3 172 226 173
3 226 143 173
3 94 183 93
3 179 183 180
3 180 183 225
3 183 220 225
3 183 94 220
3 225 220 221
3 107 98 97
3 96 98 221
3 124 227 119
3 119 227 190
3 128 148 57
3 147 148 202
3 215 130 149
3 149 130 129
3 204 228 229
3 190 227 228
3 229 228 227
3 229 227 124
3 128 130 148
3 130 230 148
3 130 215 230
3 148 230 202
3 170 71 78
3 78 71 70
3 68 71 169
3 71 231 169
3 71 170 231
3 169 231 140
3 68 169 67
3 67 169 139
3 140 231 142
3 231 170 142
3 175 232 181
3 232 98 181
3 232 221 98
3 181 98 107
3 175 181 176
3 176 181 109
3 198 197 192
3 192 197 196
3 195 201 126
3 126 201 200
3 197 198 201
3 194 201 198
3 194 199 201
3 197 201 195
3 199 194 147
3 59 194 198
3 190 191 188
3 228 204 213
3 221 232 225
3 225 232 175
3 196 193 192
3 192 193 53
3 233 234 235
3 202 234 200
3 213 191 228
3 228 191 190
3 196 210 193
3 210 236 193
3 210 212 236
3 193 236 167
3 233 209 234
3 209 127 234
3 209 206 127
3 234 127 200
3 213 237 191
3 208 238 237
3 207 238 208
3 191 238 135
3 167 236 168
3 212 239 236
3 168 236 239
3 168 239 229
3 200 127 126
3 125 127 206
3 212 210 205
3 125 210 196
3 135 238 136
3 136 238 207
3 191 237 238
3 208 237 213
3 206 209 208
3 209 233 207
3 233 218 207
3 217 218 216
3 149 216 215
3 215 214 230
3 229 239 204
3 204 239 212
3 167 168 46
3 168 229 124
3 230 235 202
3 202 235 234
3 233 235 218
3 235 214 218
3 235 230 214
3 218 214 216

CELL_TYPES 476
5
5
5
5
5
5
5
5
5
5
5
5
5
5
5
5
5
5
5
5
5
5
5
5
5
5
5
5
5
5
5
5
5
5
5
5
5
5
5
5
5
5
5
5
5
5
5
5
5
5
5
5
5
5
5
5
5
5
5
5
5
5
5
5
5
5
5
5
5
5
5
5
5
5
5
5
5
5
5
5
5
5
5
5
5
5
5
5
5
5
5
5
5
5
5
5
5
5
5
5
5
5
5
5
5
5
5
5
5
5
5
5
5
5
5
5
5
5
5
5
5
5
5
5
5
5
5
5
5
5
5
5
5
5
5
5
5
5
5
5
5
5
5
5
5
5
5
5
5
5
5
5
5
5
5
5
5
5
5
5
5
5
5
5
5
5
5
5
5
5
5
5
5
5
5
5
5
5
5
5
5
5
5
5
5
5
5
5
5
5
5
5
5
5
5
5
5
5
5
5
5
5
5
5
5
5
5
5
5
5
5
5
5
5
5
5
5
5
5
5
5
5
5
5
5
5
5
5
5
5
5
5
5
5
5
5
5
5
5
5
5
5
5
5
5
5
5
5
5
5
5
5
5
5
5
5
5
5
5
5
5
5
5
5
5
5
5
5
5
5
5
5
5
5
5
5
5
5
5
5
5
5
5
5
5
5
5
5
5
5
5
5
5
5
5
5
5
5
5
5
5
5
5
5
5
5
5
5
5
5
5
5
5
5
5
5
5
5
5
5
5
5
5
5
5
5
5
5
5
5
5
5
5
5
5
5
5
5
5
5
5
5
5
5
5
5
5
5
5
5
5
5
5
5
5
5
5
5
5
5
5
5
5
5
5
5
5
5
5
5
5
5
5
5
5
5
5
5
5
5
5
5
5
5
5
5
5
5
5
5
5
5
5
5
5
5
5
5
5
5
5
5
5
5
5
5
5
5
5
5
5
5
5
5
5
5
5
5
5
5
5
5
5
5
5
5
5
5
5
5
5
5
5
5
5
5
5
5
5
5
5
5
5
5
5
5
5
5
5
5
5
5
5
5
5
5
5
5
5
5
5
5
5
5
5
5
5
5
5
5
5
5
5
5
5
5

CELL_DATA 476
SCALARS cell_data_0 double
LOOKUP_TABLE default
1.33101769705e-07
4.77302534933e-07
1.16621023716e-06
3.74133796043e-08
4.85299733984e-06
4.71820460246e-06
8.25355812679e-06
1.00702135344e-06
7.03725241193e-07
2.62197499669e-06
1.74454537423e-06
5.76930256964e-07
6.8445958025e-07
7.79366054404e-07
8.77687135139e-07
7.83989579975e-07
5.07734633482e-07
6.77339455193e-08
1.74062554321e-07
2.44328448017e-06
3.79718718711e-09
1.03247119896e-06
2.74893948442e-06
1.26466247818e-06
6.19355125741e-06
1.87168064064e-05
4.94700747713e-06
6.05418757963e-07
1.1544019667e-06
1.19639660216e-06
2.77289883801e-06
4.64475943608e-06
7.93295321303e-07
1.22479870313e-06
1.83125003116e-07
1.08308359061e-06
3.1267126503e-06
2.31042850614e-07
4.55468238752e-06
3.02908907492e-06
2.03568215e-06
4.03794486018e-08
1.4069658809e-06
9.09638588905e-08
3.26171335129e-06
2.94438270415e-06
2.17119828523e-06
3.79832107405e-06
1.17421144996e-06
8.98420885263e-07
1.31067998065e-05
8.5477199618e-06
1.1730978064e-06
1.62237744552e-06
3.50206813265e-06
1.95082089107e-06
3.01295898061e-06
8.54429990398e-06
3.69215866422e-06
6.928357387e-07
3.95520552898e-06
1.92546593513e-06
8.47917811614e-08
9.60762584062e-07
5.30427637857e-07
1.39645148963e-06
2.44516477787e-06
5.71561978328e-07
9.53920423341e-08
6.674252918e-07
8.98074727816e-07
1.18813425364e-06
1.67370638415e-07
5.6292656189e-07
4.48848718058e-07
2.45318719048e-06
7.40742219652e-07
3.01036619321e-06
1.00902124543e-05
3.92395229861e-05
2.70184365001e-06
2.76787946945e-08
1.84678685408e-05
1.37916462558e-05
6.12892100682e-06
2.86548596901e-06
1.41456267904e-05
7.50727946068e-06
1.41097254043e-05
1.95167787408e-06
9.07843612725e-06
1.25630947521e-06
4.59201116587e-06
1.1783141199e-06
2.30309254332e-06
6.67941875994e-07
1.92920777542e-06
1.04495485266e-05
3.34221133656e-06
1.50125392092e-06
1.02525429038e-06
3.18026719414e-06
4.41341134056e-06
7.28533315147e-06
5.10282097195e-06
6.79561973319e-07
9.95726026885e-07
1.33919010978e-06
3.52717045587e-06
3.24788206142e-06
2.75179854381e-06
5.27563435139e-06
1.30431187681e-06
3.89510668116e-06
1.72880232349e-05
9.72395054509e-06
5.79443394441e-06
2.14286414275e-06
6.51313328709e-06
5.09669538586e-06
1.33432418036e-05
5.74329465715e-06
2.23058907338e-05
4.25217290823e-06
7.94198551103e-06
2.40168462363e-06
1.98076821248e-05
1.2810923471e-05
7.707212301e-06
3.79519684811e-06
1.28902406046e-05
2.30766695283e-06
1.89748324485e-07
2.50204628239e-06
3.9192008708e-06
3.41621608525e-07
1.60103083884e-06
1.00958726037e-05
1.88715992123e-06
4.17209487784e-06
1.0576581387e-05
2.02371902295e-06
4.61563711569e-07
3.27549609497e-06
9.05362571882e-06
2.24002190539e-05
3.66356826362e-06
8.23867298323e-06
1.70695148402e-06
1.55376907538e-06
7.36881686032e-07
9.54383163614e-08
3.5359022019e-06
4.63274617013e-06
3.85713956543e-06
6.19837602721e-06
9.94557924129e-06
3.07541538984e-06
6.68188570607e-06
4.9080968547e-06
8.47704859863e-06
1.4180751534e-06
1.44833411362e-06
1.19421271894e-06
9.63025048289e-07
8.12993160976e-06
4.91741877722e-06
6.52987779628e-06
7.31291100146e-07
4.32394039607e-07
4.18116275785e-06
6.83036700304e-06
6.67439306381e-07
1.55548328239e-06
3.39006923972e-05
1.34734231498e-06
2.40211650877e-05
3.29163600844e-06
9.13495368075e-07
2.91147387551e-06
2.56666833829e-07
3.90843356738e-08
1.22569988148e-06
4.10365141906e-07
4.47152659574e-07
5.15689118065e-07
2.76781619608e-07
3.27013154248e-06
1.24296204868e-06
7.64098609619e-06
1.37406908524e-06
5.41300022371e-07
5.07037623963e-06
7.39993979391e-06
6.30048516989e-07
2.03296345364e-06
2.7137149171e-06
6.79114510108e-08
2.32282266376e-07
2.58754978981e-05
2.38254281859e-06
7.56830043191e-08
2.96426577582e-06
1.7607110752e-06
1.43860458307e-07
7.6481762568e-06
5.87649193735e-06
6.86881380801e-07
1.93686887604e-06
2.12775656416e-06
6.02911073469e-07
1.82946745687e-06
2.51928997316e-06
2.65493684795e-07
6.53212795427e-07
1.53144164073e-06
9.93240399482e-07
2.01022907795e-06
4.05369450578e-06
1.77910157216e-06
4.96179088599e-08
2.53639119039e-07
6.55001713558e-07
3.77460903326e-07
2.18701024718e-07
8.80445490566e-07
5.12434976456e-06
1.18544858061e-07
1.54816740686e-07
3.39281727128e-07
1.88489970676e-06
2.9860975696e-07
3.03544941708e-06
8.71853865405e-06
1.40145340647e-05
2.54539501817e-06
2.71995869554e-06
2.35362818551e-05
1.64197292337e-05
6.39519072718e-06
1.16436028484e-05
2.88344674563e-07
6.78305302358e-06
1.05126490918e-05
2.01041702478e-06
4.96888934941e-05
3.46297238578e-05
2.77281161785e-05
9.91443240054e-08
2.6086267677e-05
8.35051355145e-06
2.73467505093e-07
7.36776278852e-06
1.45680208767e-05
2.01741737101e-06
7.27606044634e-06
1.44369222725e-06
3.57863450934e-06
1.52767251101e-06
6.91513440751e-06
4.74077539507e-07
1.62176821385e-06
3.63938310552e-07
7.75283396882e-06
2.0892459153e-06
7.29235924202e-06
9.78907821948e-07
3.94372160109e-06
8.03849085882e-06
1.08657395045e-05
3.32189672311e-06
9.44396648386e-06
2.18930728261e-06
1.88406151228e-06
4.46470232953e-06
1.67778680476e-06
2.66269460075e-05
8.05509664027e-07
2.07904041863e-06
4.82349572215e-06
6.83110764565e-07
3.25537529933e-06
3.4532011271e-05
8.8093640448e-07
3.70042623835e-06
2.93650453206e-07
9.48119251803e-07
3.87047672198e-07
2.82245026083e-06
3.48835724049e-06
1.79761766233e-06
4.32748431134e-06
8.24858525181e-06
1.14077498713e-05
2.88272399682e-06
2.46123086912e-06
7.61138698646e-07
4.98593796919e-06
8.5694798739e-06
7.71839613566e-06
5.73677881651e-06
6.8338441684e-06
5.39551559528e-06
1.7480591423e-05
8.62441694922e-06
6.84589521361e-06
6.03275023582e-06
4.84608430318e-06
2.92084394263e-06
8.19192026857e-07
3.75051520322e-06
4.33355099025e-06
6.70330677632e-06
2.31449911136e-06
5.49319803275e-06
7.28934642866e-06
1.84906796646e-06
5.30245998638e-06
1.78820350898e-06
7.66162916612e-06
8.57801737679e-07
1.67312971836e-06
7.6086763849e-07
5.04908442616e-06
9.82678930551e-06
8.87810876279e-08
2.20016377901e-05
2.07271052545e-05
5.32849105062e-06
1.95179637032e-05
6.73075391402e-06
1.23471843925e-05
1.92137105016e-05
6.55296931334e-06
8.32098801581e-06
2.0874721487e-06
8.03735847019e-06
9.16866700002e-07
2.25720641937e-06
1.43454019072e-05
6.07004700286e-06
8.81384096279e-06
1.47453192593e-06
7.05155741707e-06
7.54136191969e-07
2.51626415882e-05
1.42698921865e-05
3.26650718279e-06
1.37436406267e-05
4.62386115748e-06
9.9006152957e-06
5.11631221436e-06
9.29827431058e-06
8.13931089655e-06
1.62484656144e-05
2.57309662216e-06
1.33131962428e-05
1.11035658096e-05
1.35636206074e-05
1.37182189033e-05
7.62501691507e-06
1.15147443181e-05
1.38568673259e-06
7.83579746287e-06
2.17915811318e-05
2.39712873649e-06
6.06185997253e-06
1.6261765328e-05
4.54969301757e-06
2.29332081215e-05
6.76596792025e-06
7.57192057021e-06
4.01284348614e-06
5.95992064742e-06
1.01488494659e-05
3.93825171663e-06
2.75325758536e-06
9.42475405222e-06
5.58130641107e-06
3.40589926882e-06
4.22577836346e-06
6.85558772141e-06
1.94270255622e-05
1.19605388656e-05
6.02907285795e-06
1.6835362541e-05
4.35235901419e-06
2.57793636961e-06
1.9362193194e-05
9.61956832072e-07
1.24923033476e-05
4.05968186685e-05
2.21482691986e-05
5.73813043037e-06
1.61066424674e-06
5.08830004109e-07
2.25968077563e-05
4.48617454276e-06
1.73859494168e-05
1.56072731949e-07
1.12058313689e-05
7.86223108717e-06
6.56252940086e-06
2.4689908842e-06
2.74487821947e-06
6.34803931997e-06
1.2949379643e-05
1.59958856379e-05
5.68623161346e-06
7.92314586008e-06
1.35421493339e-06
1.12565583148e-06
1.0524839398e-05
3.2795137261e-06
5.20927482209e-06
5.04600984741e-06
5.20617871404e-06
2.39874477349e-05
9.55058798799e-07
1.89577882697e-06
6.99014627796e-06
2.66341654843e-06
1.36885332342e-05
1.8744387326e-06
1.84431459391e-05
1.33050224432e-06
1.03538025123e-05
3.4501479298e-05
7.25899003413e-07
3.62756804032e-06
5.36706924789e-06
2.51794646468e-05
1.16979670136e-06
8.24131351264e-06
1.33920960777e-05
1.64372966568e-05
1.42112070571e-05
1.0902385602e-05
3.05466861247e-06
8.69600201131e-06
2.43374473423e-06
1.03085181891e-05
8.49882365308e-06
1.2802138846e-05
8.69351201172e-06
1.25740985143e-05
1.94017968463e-05
5.49919582971e-06
4.34803846686e-06
3.27075713192e-06
4.88557275304e-06
9.29031801685e-06
8.01817473636e-06
6.53766921239e-06
1.12156543956e-05
3.9567221308e-06
8.62891307442e-06
2.25310150245e-05
8.62485475228e-06
5.38309104887e-06
8.66714309748e-06
4.49129551299e-06
1.03300717738e-05
1.07093930796e-05
3.2962924197e-05
7.26521831369e-06
1.62113408121e-05
6.8620055371e-08
1.50844685416e-06
1.29953613259e-05
6.51227136219e-06
4.32708300486e-06
1.63345136193e-06
1.20419601718e-06
1.47508452318e-05
6.6168313521e-06

