# vtk DataFile Version 3.0
File Name: Molecule/sphere_cent/sphere_cent_0-s1.vtk
ASCII
DATASET UNSTRUCTURED_GRID
FIELD FieldData 1
TIME 1 1 double
0.0
POINTS 42 double
0.85065078735 -0.52573114634 0.0
0.80892920494 -0.30898347497 -0.49994572997
0.99989145994 -9.7521670739e-09 4.178319557e-07
0.8089287281 0.30898413062 -0.49994596839
0.52573114634 0.0 -0.85065078735
0.85065078735 0.52573114634 0.0
0.49994561076 0.80892938375 -0.30898311734
0.30898275971 0.49994546175 -0.80892956257
4.4408920985e-16 0.85065078735 -0.52573108673
0.49994587898 0.80892896652 0.3089838028
-8.4288416247e-07 0.99989140034 5.4063709065e-09
-4.4408920985e-16 0.85065078735 0.52573108673
-0.49994584918 0.80892896652 0.3089838028
-0.49994596839 0.8089287281 -0.30898413062
-0.85065078735 0.52573108673 4.4408920985e-16
-0.30898311734 0.49994561076 0.80892938375
-0.80892956257 0.30898275971 0.49994546175
-0.52573108673 5.5511151231e-17 0.85065078735
0.30898344517 0.49994570017 0.80892914534
-4.8660275809e-10 -8.3941046114e-07 0.99989140034
0.52573114634 0.0 0.85065078735
-0.3089838028 -0.49994584918 0.80892896652
0.30898413062 -0.49994596839 0.8089287281
0.0 -0.85065078735 0.52573114634
0.80892914534 -0.30898344517 0.49994570017
0.49994543195 -0.80892956257 0.30898275971
0.30898311734 -0.49994558096 -0.80892938375
1.2810824401e-08 -4.7860773122e-09 -0.99989140034
-0.30898413062 -0.49994593859 -0.8089287281
4.4408920985e-16 -0.85065078735 -0.52573108673
-0.52573114634 0.0 -0.85065078735
0.80892908573 0.30898341537 0.49994567037
-0.80892938375 -0.30898311734 -0.49994558096
-0.80892914534 0.30898344517 -0.49994570017
-0.99989134073 3.287883743e-09 4.1392792127e-07
-0.85065072775 -0.52573108673 0.0
-0.30898341537 0.49994564056 -0.80892908573
-0.49994546175 -0.80892956257 -0.30898275971
-0.49994570017 -0.80892914534 0.30898344517
4.2680741785e-07 -0.99989134073 8.4696401004e-09
-0.80892908573 -0.30898341537 0.49994567037
0.49994564056 -0.80892908573 -0.30898344517

CELLS 80 320
3 0 1 2
3 1 3 2
3 1 4 3
3 2 3 5
3 5 3 6
3 3 7 6
3 3 4 7
3 6 7 8
3 5 6 9
3 6 10 9
3 6 8 10
3 9 10 11
3 11 10 12
3 10 13 12
3 10 8 13
3 12 13 14
3 11 12 15
3 12 16 15
3 12 14 16
3 15 16 17
3 11 15 18
3 15 19 18
3 15 17 19
3 18 19 20
3 17 21 19
3 21 22 19
3 21 23 22
3 19 22 20
3 20 22 24
3 22 25 24
3 22 23 25
3 24 25 0
3 4 26 27
3 26 28 27
3 26 29 28
3 27 28 30
3 0 2 24
3 2 31 24
3 2 5 31
3 24 31 20
3 5 9 31
3 9 18 31
3 9 11 18
3 31 18 20
3 30 32 33
3 32 34 33
3 32 35 34
3 33 34 14
3 8 36 13
3 36 33 13
3 36 30 33
3 13 33 14
3 35 37 38
3 37 39 38
3 37 29 39
3 38 39 23
3 35 38 40
3 38 21 40
3 38 23 21
3 40 21 17
3 17 16 40
3 16 34 40
3 16 14 34
3 40 34 35
3 30 28 32
3 28 37 32
3 28 29 37
3 32 37 35
3 29 41 39
3 41 25 39
3 41 0 25
3 39 25 23
3 4 1 26
3 1 41 26
3 1 0 41
3 26 41 29
3 4 27 7
3 27 36 7
3 27 30 36
3 7 36 8

CELL_TYPES 80
5
5
5
5
5
5
5
5
5
5
5
5
5
5
5
5
5
5
5
5
5
5
5
5
5
5
5
5
5
5
5
5
5
5
5
5
5
5
5
5
5
5
5
5
5
5
5
5
5
5
5
5
5
5
5
5
5
5
5
5
5
5
5
5
5
5
5
5
5
5
5
5
5
5
5
5
5
5
5
5

CELL_DATA 80
SCALARS cell_data_0 double
LOOKUP_TABLE default
2.05527556023e-07
4.01435985952e-07
1.8757235031e-07
1.86959957231e-07
2.06413393467e-07
4.01284795711e-07
1.86507948306e-07
1.8761808361e-07
2.0551976862e-07
4.01657852947e-07
1.88174211212e-07
1.88018031751e-07
2.05940581829e-07
4.02455339823e-07
1.87709969842e-07
1.87643050458e-07
2.06111982885e-07
4.01700256352e-07
1.88082831483e-07
1.8693929703e-07
2.0555439731e-07
4.01348081888e-07
1.87755212702e-07
1.87656329938e-07
2.05686325837e-07
4.01341618778e-07
1.87496908456e-07
1.88006654866e-07
2.05903291243e-07
4.01640624289e-07
1.87376989174e-07
1.88614454323e-07
2.05330196435e-07
3.99702196815e-07
1.87921455307e-07
1.89464773739e-07
2.05603415433e-07
4.01402828907e-07
1.86891403841e-07
1.8904102194e-07
2.06374310851e-07
4.014599272e-07
1.87356819662e-07
1.87774029981e-07
2.06215960638e-07
4.01085010959e-07
1.87127042202e-07
1.89126907791e-07
2.05396296852e-07
4.01623377921e-07
1.8806231323e-07
1.88620472556e-07
2.05497212813e-07
4.01765180006e-07
1.87538316677e-07
1.88031541589e-07
2.05899464489e-07
4.01473790114e-07
1.8788176165e-07
1.87006470453e-07
2.05186273796e-07
4.01457347222e-07
1.88178584237e-07
1.87774652475e-07
2.05946155277e-07
4.01496929427e-07
1.88117793853e-07
1.87056812565e-07
2.05680627422e-07
4.01943453508e-07
1.87873070115e-07
1.87873233439e-07
2.04593014637e-07
4.01453664666e-07
1.88641275259e-07
1.87227739478e-07
2.05032330776e-07
4.01237458414e-07
1.88506267815e-07
1.87264870287e-07

