# vtk DataFile Version 3.0
File Name: Molecule/sphere_dip_C5/sphere_dip_C5_0-s3.vtk
ASCII
DATASET UNSTRUCTURED_GRID
FIELD FieldData 1
TIME 1 1 double
0.0
POINTS 67 double
0.0 0.850650808352 0.525731112119
-0.309016994375 0.5 0.809016994375
0.309016994375 0.5 0.809016994375
0.0 0.0 1.0
-0.525731112119 0.0 0.850650808352
0.525731112119 0.0 0.850650808352
-0.309016994375 -0.5 0.809016994375
0.309016994375 -0.5 0.809016994375
0.0 -0.850650808352 0.525731112119
0.809016994375 -0.309016994375 0.5
0.5 -0.809016994375 0.309016994375
0.850650808352 -0.525731112119 0.0
0.525731112119 0.0 -0.850650808352
0.309016994375 -0.5 -0.809016994375
0.0 0.0 -1.0
-0.309016994375 -0.5 -0.809016994375
0.0 -0.850650808352 -0.525731112119
-0.525731112119 0.0 -0.850650808352
1.0 0.0 0.0
0.809016994375 0.309016994375 0.5
0.850650808352 0.525731112119 0.0
0.5 0.809016994375 0.309016994375
-0.809016994375 -0.309016994375 -0.5
-0.809016994375 0.309016994375 -0.5
-1.0 0.0 0.0
-0.850650808352 -0.525731112119 0.0
-0.850650808352 0.525731112119 0.0
0.0 0.850650808352 -0.525731112119
-0.309016994375 0.5 -0.809016994375
-0.5 0.809016994375 -0.309016994375
-0.5 -0.809016994375 -0.309016994375
-0.5 -0.809016994375 0.309016994375
0.0 -1.0 0.0
-0.809016994375 -0.309016994375 0.5
-0.809016994375 0.309016994375 0.5
0.5 -0.809016994375 -0.309016994375
0.309016994375 0.5 -0.809016994375
0.5 0.809016994375 -0.309016994375
0.5 0.809016994375 0.0
0.25 0.904508497187 -0.154508497188
0.25 0.904508497187 0.154508497188
0.0 1.0 0.0
-0.25 0.904508497187 0.154508497188
-0.5 0.809016994375 0.309016994375
-0.25 0.904508497187 -0.154508497188
-0.5 0.809016994375 0.0
-0.675325404176 0.667374053247 0.154508497188
-0.675325404176 0.667374053247 -0.154508497188
-0.404508497188 0.654508497187 0.559016994375
-0.654508497187 0.559016994375 0.404508497188
-0.559016994375 0.404508497188 0.654508497187
-0.829833901363 0.417374053247 0.25
0.829833901363 -0.417374053247 -0.25
0.925325404176 -0.26286555606 0.0
0.904508497187 -0.154508497188 -0.25
0.809016994375 -0.309016994375 -0.5
0.809016994375 0.0 -0.5
0.904508497187 0.154508497188 -0.25
0.809016994375 0.309016994375 -0.5
0.667374053247 -0.154508497188 -0.675325404176
0.667374053247 0.154508497188 -0.675325404176
0.654508497187 0.559016994375 -0.404508497188
0.559016994375 0.404508497188 -0.654508497187
0.404508497188 0.654508497187 -0.559016994375
0.417374053247 0.25 -0.829833901363
0.675325404176 -0.667374053247 -0.154508497188
0.654508497187 -0.559016994375 -0.404508497188

CELLS 130 520
3 0 1 2
3 1 3 2
3 1 4 3
3 2 3 5
3 4 6 3
3 6 7 3
3 6 8 7
3 3 7 5
3 5 7 9
3 7 10 9
3 7 8 10
3 9 10 11
3 12 13 14
3 13 15 14
3 13 16 15
3 14 15 17
3 18 19 9
3 18 20 19
3 9 19 5
3 20 21 19
3 21 2 19
3 21 0 2
3 19 2 5
3 17 22 23
3 22 24 23
3 22 25 24
3 23 24 26
3 27 28 29
3 28 23 29
3 28 17 23
3 25 30 31
3 30 32 31
3 30 16 32
3 31 32 8
3 25 31 33
3 31 6 33
3 31 8 6
3 33 6 4
3 4 34 33
3 34 24 33
3 33 24 25
3 17 15 22
3 15 30 22
3 15 16 30
3 22 30 25
3 16 35 32
3 35 10 32
3 32 10 8
3 13 35 16
3 14 28 36
3 14 17 28
3 36 28 27
3 37 38 20
3 20 38 21
3 37 39 38
3 39 40 38
3 39 41 40
3 38 40 21
3 41 39 27
3 27 39 37
3 21 40 0
3 40 41 0
3 41 42 0
3 0 42 43
3 41 44 42
3 44 45 42
3 44 29 45
3 42 45 43
3 29 44 27
3 27 44 41
3 43 45 46
3 45 47 46
3 45 29 47
3 46 47 26
3 43 48 0
3 0 48 1
3 43 49 48
3 49 50 48
3 49 34 50
3 48 50 1
3 43 46 49
3 46 51 49
3 46 26 51
3 49 51 34
3 1 50 4
3 50 34 4
3 26 47 23
3 23 47 29
3 34 51 24
3 51 26 24
3 11 52 53
3 52 54 53
3 52 55 54
3 53 54 18
3 55 56 54
3 56 57 54
3 56 58 57
3 54 57 18
3 55 59 56
3 59 60 56
3 59 12 60
3 56 60 58
3 18 57 20
3 57 58 20
3 58 61 20
3 20 61 37
3 58 62 61
3 62 63 61
3 62 36 63
3 61 63 37
3 58 60 62
3 60 64 62
3 60 12 64
3 62 64 36
3 37 63 27
3 63 36 27
3 11 53 9
3 53 18 9
3 35 65 10
3 65 11 10
3 12 59 13
3 59 55 13
3 55 66 13
3 66 35 13
3 55 52 66
3 52 65 66
3 52 11 65
3 66 65 35
3 36 64 14
3 14 64 12

CELL_TYPES 130
5
5
5
5
5
5
5
5
5
5
5
5
5
5
5
5
5
5
5
5
5
5
5
5
5
5
5
5
5
5
5
5
5
5
5
5
5
5
5
5
5
5
5
5
5
5
5
5
5
5
5
5
5
5
5
5
5
5
5
5
5
5
5
5
5
5
5
5
5
5
5
5
5
5
5
5
5
5
5
5
5
5
5
5
5
5
5
5
5
5
5
5
5
5
5
5
5
5
5
5
5
5
5
5
5
5
5
5
5
5
5
5
5
5
5
5
5
5
5
5
5
5
5
5
5
5
5
5
5
5

CELL_DATA 130
SCALARS cell_data_0 double
LOOKUP_TABLE default
0.000145850814698
0.000427156749403
0.000354556506262
0.000382231486926
0.00036623961522
0.000407334003384
0.000174042496314
0.000360564622801
0.000159982608272
0.00017697072642
0.000115993598255
7.77164448637e-05
0.0002119697221
7.27043506577e-05
0.000753011088095
0.000263581673651
0.000116855237023
1.69255809514e-05
8.88118901723e-05
3.81501529173e-05
0.000182943077657
8.38501287387e-05
0.000164226338182
0.000353963748604
0.000115910419339
6.65183589651e-05
8.42942351912e-05
0.000178851506453
6.33866426153e-05
0.000248474001002
4.99785978873e-06
2.26383124753e-05
0.000610283734578
1.42880344502e-05
1.44243815557e-05
0.000154102473049
0.000100530321656
0.000140538810718
7.7849486998e-05
9.8690010119e-05
1.01641473287e-05
0.000336617371608
0.000105828851481
0.000705474905682
7.11511501666e-05
0.000633820711072
4.09325154426e-05
4.11527808395e-05
0.000650374694135
1.51570402331e-05
0.000194388721014
0.000169167466085
2.10347926834e-05
4.56311497392e-06
5.81806783765e-06
4.23573582838e-07
9.59918148974e-07
1.09711232709e-05
9.17347537356e-05
8.45076043785e-05
1.01407855299e-05
3.78236964968e-05
4.11395343685e-05
5.5399629613e-05
2.48423529353e-06
4.33373951647e-06
5.65488547835e-06
3.2202720138e-06
0.000103859144452
9.56870869496e-05
2.142271935e-05
2.2130404638e-05
1.29330893031e-05
4.39658490934e-05
8.09599856027e-05
1.02810918627e-05
1.25710476588e-05
3.07443792513e-05
3.61078892503e-05
3.96421720141e-05
1.93725234151e-05
2.59096662387e-06
2.418134236e-05
1.65585057108e-05
8.79376725127e-05
6.72733143083e-05
7.95139852535e-05
5.56927037737e-05
3.25166727393e-05
6.2057805668e-06
3.0124201723e-06
7.41915913954e-06
1.7957815998e-06
8.63241185282e-06
7.95046634421e-07
5.65799095587e-06
2.5868200626e-06
9.36741342344e-06
1.91123328028e-06
1.34856496654e-06
4.67517353204e-05
1.83264384746e-06
5.48223602353e-07
6.23824456235e-06
1.66755090691e-05
1.53359892999e-05
4.01636964041e-07
1.16808175108e-06
2.77554560767e-06
5.14961266177e-07
4.74265822772e-07
1.20423887136e-06
4.62443381701e-05
2.70559877627e-06
8.01958342591e-05
9.04869493655e-05
2.74844925611e-05
3.56383024566e-05
1.34878985274e-05
1.72417242603e-05
9.74196312934e-05
7.36645133943e-07
1.83581078786e-07
8.22853805894e-06
3.19553793359e-07
5.21878350852e-07
1.7421618451e-06
3.65341982738e-06
9.80183168033e-06
0.000101896750346

