# vtk DataFile Version 3.0
File Name: Molecule/sphere_dip_C5/sphere_dip_C5_0-s5.vtk
ASCII
DATASET UNSTRUCTURED_GRID
FIELD FieldData 1
TIME 1 1 double
0.0
POINTS 96 double
0.525731112119 0.0 0.850650808352
0.309016994375 -0.5 0.809016994375
0.809016994375 -0.309016994375 0.5
0.5 -0.809016994375 0.309016994375
0.0 -0.850650808352 0.525731112119
0.850650808352 -0.525731112119 0.0
0.525731112119 0.0 -0.850650808352
0.309016994375 -0.5 -0.809016994375
0.0 0.0 -1.0
-0.309016994375 -0.5 -0.809016994375
-0.525731112119 0.0 -0.850650808352
1.0 0.0 0.0
0.809016994375 0.309016994375 0.5
0.850650808352 0.525731112119 0.0
0.5 0.809016994375 0.309016994375
0.309016994375 0.5 0.809016994375
0.0 0.850650808352 0.525731112119
-0.809016994375 -0.309016994375 -0.5
-0.809016994375 0.309016994375 -0.5
-1.0 0.0 0.0
-0.850650808352 -0.525731112119 0.0
-0.850650808352 0.525731112119 0.0
-0.309016994375 0.5 -0.809016994375
-0.5 -0.809016994375 -0.309016994375
-0.5 -0.809016994375 0.309016994375
0.0 -1.0 0.0
-0.809016994375 -0.309016994375 0.5
-0.309016994375 -0.5 0.809016994375
-0.525731112119 0.0 0.850650808352
-0.809016994375 0.309016994375 0.5
0.5 0.809016994375 -0.309016994375
0.5 0.809016994375 0.0
0.25 0.904508497187 -0.154508497188
0.25 0.904508497187 0.154508497188
0.0 1.0 0.0
-0.25 0.904508497187 0.154508497188
-0.5 0.809016994375 0.309016994375
-0.25 0.904508497187 -0.154508497188
-0.5 0.809016994375 0.0
-0.675325404176 0.667374053247 0.154508497188
-0.675325404176 0.667374053247 -0.154508497188
-0.5 0.809016994375 -0.309016994375
-0.404508497188 0.654508497187 0.559016994375
-0.309016994375 0.5 0.809016994375
-0.654508497187 0.559016994375 0.404508497188
-0.559016994375 0.404508497188 0.654508497187
-0.829833901363 0.417374053247 0.25
0.829833901363 -0.417374053247 -0.25
0.925325404176 -0.26286555606 0.0
0.904508497187 -0.154508497188 -0.25
0.809016994375 -0.309016994375 -0.5
0.809016994375 0.0 -0.5
0.904508497187 0.154508497188 -0.25
0.809016994375 0.309016994375 -0.5
0.667374053247 -0.154508497188 -0.675325404176
0.667374053247 0.154508497188 -0.675325404176
0.654508497187 0.559016994375 -0.404508497188
0.559016994375 0.404508497188 -0.654508497187
0.404508497188 0.654508497187 -0.559016994375
0.309016994375 0.5 -0.809016994375
0.417374053247 0.25 -0.829833901363
0.5 -0.809016994375 -0.309016994375
0.675325404176 -0.667374053247 -0.154508497188
0.654508497187 -0.559016994375 -0.404508497188
0.0 0.5 0.809016994375
-0.154508497188 0.25 0.904508497187
0.154508497188 0.25 0.904508497187
0.0 0.0 1.0
0.0 -0.5 -0.809016994375
0.154508497188 -0.675325404176 -0.667374053247
-0.154508497188 -0.675325404176 -0.667374053247
0.0 -0.850650808352 -0.525731112119
-0.25 -0.904508497187 -0.154508497188
-0.25 -0.829833901363 -0.417374053247
0.0 -0.925325404176 -0.26286555606
-0.404508497188 -0.654508497187 -0.559016994375
0.25 -0.829833901363 -0.417374053247
0.25 -0.904508497187 -0.154508497188
0.404508497188 -0.654508497187 -0.559016994375
-0.154508497188 -0.25 0.904508497187
0.0 -0.5 0.809016994375
0.154508497188 -0.25 0.904508497187
0.0 0.850650808352 -0.525731112119
-0.154508497188 0.675325404176 -0.667374053247
-0.25 0.829833901363 -0.417374053247
-0.404508497188 0.654508497187 -0.559016994375
0.0 0.5 -0.809016994375
0.154508497188 0.675325404176 -0.667374053247
0.375 0.856762745781 -0.231762745782
0.125 0.952254248593 -0.077254248594
0.0 0.925325404176 -0.26286555606
0.125 0.87757965277 -0.340119804654
0.25 0.829833901363 -0.417374053247
-0.125 0.952254248593 -0.077254248594
-0.375 0.856762745781 -0.231762745782
-0.125 0.87757965277 -0.340119804654

CELLS 188 752
3 0 1 2
3 1 3 2
3 1 4 3
3 2 3 5
3 6 7 8
3 8 9 10
3 11 12 2
3 11 13 12
3 2 12 0
3 13 14 12
3 14 15 12
3 14 16 15
3 12 15 0
3 10 17 18
3 17 19 18
3 17 20 19
3 18 19 21
3 22 10 18
3 20 23 24
3 24 25 4
3 20 24 26
3 24 27 26
3 24 4 27
3 26 27 28
3 28 29 26
3 29 19 26
3 26 19 20
3 10 9 17
3 17 23 20
3 25 3 4
3 8 10 22
3 30 31 13
3 13 31 14
3 32 33 31
3 31 33 14
3 14 33 16
3 33 34 16
3 34 35 16
3 16 35 36
3 37 38 35
3 35 38 36
3 36 38 39
3 38 40 39
3 38 41 40
3 39 40 21
3 36 42 16
3 16 42 43
3 36 44 42
3 44 45 42
3 44 29 45
3 42 45 43
3 36 39 44
3 39 46 44
3 39 21 46
3 44 46 29
3 43 45 28
3 45 29 28
3 21 40 18
3 18 40 41
3 29 46 19
3 46 21 19
3 5 47 48
3 47 49 48
3 47 50 49
3 48 49 11
3 50 51 49
3 51 52 49
3 51 53 52
3 49 52 11
3 50 54 51
3 54 55 51
3 54 6 55
3 51 55 53
3 11 52 13
3 52 53 13
3 53 56 13
3 13 56 30
3 53 57 56
3 57 58 56
3 57 59 58
3 56 58 30
3 53 55 57
3 55 60 57
3 55 6 60
3 57 60 59
3 5 48 2
3 48 11 2
3 61 62 3
3 62 5 3
3 6 54 7
3 54 50 7
3 50 63 7
3 50 47 63
3 47 62 63
3 47 5 62
3 63 62 61
3 59 60 8
3 8 60 6
3 43 64 16
3 16 64 15
3 43 65 64
3 65 66 64
3 65 67 66
3 64 66 15
3 67 65 28
3 28 65 43
3 15 66 0
3 66 67 0
3 7 68 8
3 68 9 8
3 7 69 68
3 69 70 68
3 69 71 70
3 68 70 9
3 23 72 24
3 72 25 24
3 23 73 72
3 73 74 72
3 73 71 74
3 72 74 25
3 9 75 17
3 75 23 17
3 9 70 75
3 70 73 75
3 70 71 73
3 75 73 23
3 71 76 74
3 76 77 74
3 76 61 77
3 74 77 25
3 25 77 3
3 3 77 61
3 7 78 69
3 78 76 69
3 78 61 76
3 69 76 71
3 61 78 63
3 63 78 7
3 27 79 28
3 28 79 67
3 27 80 79
3 80 81 79
3 80 1 81
3 79 81 67
3 1 80 4
3 4 80 27
3 67 81 0
3 81 1 0
3 82 83 84
3 83 85 84
3 83 22 85
3 84 85 41
3 41 85 18
3 18 85 22
3 22 86 8
3 8 86 59
3 59 86 87
3 86 83 87
3 86 22 83
3 87 83 82
3 30 88 31
3 88 32 31
3 32 89 33
3 89 34 33
3 34 89 90
3 89 91 90
3 89 32 91
3 90 91 82
3 82 91 92
3 91 88 92
3 91 32 88
3 92 88 30
3 34 93 35
3 93 37 35
3 37 94 38
3 94 41 38
3 41 94 84
3 94 95 84
3 94 37 95
3 84 95 82
3 82 95 90
3 95 93 90
3 95 37 93
3 90 93 34
3 82 92 58
3 58 92 30
3 59 87 58
3 58 87 82

CELL_TYPES 188
5
5
5
5
5
5
5
5
5
5
5
5
5
5
5
5
5
5
5
5
5
5
5
5
5
5
5
5
5
5
5
5
5
5
5
5
5
5
5
5
5
5
5
5
5
5
5
5
5
5
5
5
5
5
5
5
5
5
5
5
5
5
5
5
5
5
5
5
5
5
5
5
5
5
5
5
5
5
5
5
5
5
5
5
5
5
5
5
5
5
5
5
5
5
5
5
5
5
5
5
5
5
5
5
5
5
5
5
5
5
5
5
5
5
5
5
5
5
5
5
5
5
5
5
5
5
5
5
5
5
5
5
5
5
5
5
5
5
5
5
5
5
5
5
5
5
5
5
5
5
5
5
5
5
5
5
5
5
5
5
5
5
5
5
5
5
5
5
5
5
5
5
5
5
5
5
5
5
5
5
5
5
5
5
5
5
5
5

CELL_DATA 188
SCALARS cell_data_0 double
LOOKUP_TABLE default
9.44610843537e-05
0.000176171751189
0.000202811765524
0.000237625891109
5.85458389687e-05
3.1858690959e-05
2.35859938976e-05
5.42251439236e-05
5.49089492881e-05
8.34549776299e-05
0.000179683880633
7.87702092924e-05
0.00019917341467
3.44379252004e-05
6.91138710465e-05
2.86070847752e-05
3.9691524361e-06
2.68285637049e-05
2.36099679134e-05
0.000105865976788
6.99969439401e-05
0.000163966766679
2.65052091543e-05
0.000198643338215
0.000158317518248
0.000100920836124
4.26339227953e-05
6.22043381392e-05
1.90358137066e-05
0.000305891713471
2.68243507056e-05
0.000102029154611
2.71637584622e-06
6.47865875671e-05
1.8759606335e-05
3.07293657075e-05
4.32930259961e-05
8.25637462215e-05
8.02716624006e-05
2.57202430061e-05
1.6431414119e-05
6.39397093331e-06
6.94356505345e-06
4.56338421938e-07
5.62233488452e-06
1.54447924079e-05
5.04888745771e-05
3.1316573087e-05
5.15583685037e-05
4.32864497585e-05
5.2192193841e-05
1.44725658234e-05
2.09687374287e-05
1.21757644123e-05
2.39412550093e-05
0.000111742911649
9.30700960592e-05
5.29614817701e-06
7.2619743236e-06
3.21587636739e-05
1.88085878373e-05
5.4815865375e-06
9.69610484251e-06
1.41687573434e-05
3.86346606799e-06
1.81590970778e-05
6.38786475719e-06
8.05178661072e-06
1.74891014116e-06
1.3097519726e-05
3.97754278112e-06
6.41224192473e-07
8.78543271339e-06
1.43178648552e-05
1.74901768622e-06
2.5340460128e-06
4.76604180576e-05
1.27139105973e-05
1.89837611887e-06
2.83720262792e-05
4.19780100432e-05
1.35915302536e-05
5.85223769045e-05
5.58675771255e-05
8.97617020899e-05
2.63402367296e-05
2.51727191488e-05
0.000334266377931
0.000341637968163
2.18598091924e-05
5.47816360514e-05
0.000405886055621
0.000137719281174
0.000274306814036
0.000105138246786
0.000282381279981
0.000161200496702
0.000111699448849
5.20911803035e-05
4.24838549321e-05
8.05756698513e-05
0.000145948323689
0.000134296481761
8.22890708469e-05
0.000197577653027
0.000148847870918
0.000155359110995
0.000201229997273
3.41447212743e-05
2.03840565835e-05
1.35450585562e-05
2.39718692208e-06
1.49011467529e-05
1.49575192711e-05
8.29627487434e-06
9.42473794837e-06
2.51857150697e-06
4.30375324216e-06
1.09158728143e-05
8.09864493188e-07
4.02335647985e-05
2.66123291039e-05
1.5722059467e-05
4.84859902291e-06
1.767371978e-05
5.89054901453e-06
1.45755726057e-05
2.35850051754e-06
1.199486328e-06
4.63304938075e-07
7.64421637512e-05
6.38800364296e-05
0.00013950500415
0.000113233716334
0.000118315834624
1.37221251591e-05
0.000337515677966
0.000396663939936
0.000148273897841
0.000205641685327
3.30144082666e-05
0.000116384142437
7.09551542992e-05
0.000139032491168
0.000116230969242
7.36028902209e-05
0.000187591485439
0.000148220339039
1.58776069309e-05
9.14202743419e-07
9.2601203159e-06
4.57473573018e-06
9.88617899319e-06
2.04732642712e-05
2.02546367763e-05
4.14066813563e-05
1.86038594321e-05
8.50513340508e-07
8.96871811572e-06
1.64273702924e-05
3.76385892512e-05
2.75448042262e-05
1.79602006239e-05
2.36550560711e-06
4.25616558404e-07
5.45684784131e-07
1.23213580156e-05
8.74094604636e-06
9.17797065302e-06
4.69759203493e-07
1.20790320492e-05
1.85973584941e-05
1.1416017081e-05
1.62118277895e-05
5.4165987414e-07
6.24463236551e-07
2.27073766921e-06
4.90632944617e-07
2.63956819853e-06
8.90905952738e-06
8.84712275534e-06
5.9303213152e-07
2.65007183712e-06
4.82327223962e-07
1.77603472259e-05
3.96227794467e-05
1.97705879186e-05
1.77581310055e-05

