# vtk DataFile Version 3.0
File Name: Molecule/sphere_dip_sim/sphere_dip_sim_0-s2.vtk
ASCII
DATASET UNSTRUCTURED_GRID
FIELD FieldData 1
TIME 1 1 double
0.0
POINTS 48 double
0.850650808352 -0.525731112119 0.0
0.809016994375 -0.309016994375 -0.5
1.0 0.0 0.0
0.809016994375 0.309016994375 -0.5
0.525731112119 0.0 -0.850650808352
0.850650808352 0.525731112119 0.0
0.5 0.809016994375 -0.309016994375
0.309016994375 0.5 -0.809016994375
0.0 0.850650808352 -0.525731112119
0.5 0.809016994375 0.309016994375
0.0 1.0 0.0
0.0 0.850650808352 0.525731112119
-0.5 0.809016994375 0.309016994375
-0.309016994375 0.5 0.809016994375
-0.809016994375 0.309016994375 0.5
-0.850650808352 0.525731112119 0.0
-0.525731112119 0.0 0.850650808352
0.309016994375 0.5 0.809016994375
0.0 0.0 1.0
0.525731112119 0.0 0.850650808352
-0.309016994375 -0.5 0.809016994375
0.309016994375 -0.5 0.809016994375
0.0 -0.850650808352 0.525731112119
0.309016994375 -0.5 -0.809016994375
0.0 0.0 -1.0
-0.309016994375 -0.5 -0.809016994375
0.0 -0.850650808352 -0.525731112119
-0.525731112119 0.0 -0.850650808352
0.809016994375 -0.309016994375 0.5
0.809016994375 0.309016994375 0.5
-0.809016994375 -0.309016994375 -0.5
-0.809016994375 0.309016994375 -0.5
-1.0 0.0 0.0
-0.850650808352 -0.525731112119 0.0
-0.309016994375 0.5 -0.809016994375
-0.5 0.809016994375 -0.309016994375
-0.5 -0.809016994375 -0.309016994375
-0.5 -0.809016994375 0.309016994375
0.0 -1.0 0.0
-0.809016994375 -0.309016994375 0.5
0.5 -0.809016994375 -0.309016994375
0.5 -0.809016994375 0.309016994375
-0.25 0.904508497187 0.154508497188
-0.25 0.904508497187 -0.154508497188
-0.5 0.809016994375 0.0
0.559016994375 -0.404508497188 0.654508497187
0.404508497188 -0.654508497187 0.559016994375
0.654508497187 -0.559016994375 0.404508497188

CELLS 92 368
3 0 1 2
3 1 3 2
3 1 4 3
3 2 3 5
3 5 3 6
3 3 7 6
3 3 4 7
3 6 7 8
3 5 6 9
3 6 10 9
3 6 8 10
3 9 10 11
3 11 12 13
3 12 14 13
3 12 15 14
3 13 14 16
3 11 13 17
3 13 18 17
3 13 16 18
3 17 18 19
3 16 20 18
3 20 21 18
3 20 22 21
3 18 21 19
3 4 23 24
3 23 25 24
3 23 26 25
3 24 25 27
3 0 2 28
3 2 29 28
3 2 5 29
3 28 29 19
3 5 9 29
3 9 17 29
3 9 11 17
3 29 17 19
3 27 30 31
3 30 32 31
3 30 33 32
3 31 32 15
3 8 34 35
3 34 31 35
3 34 27 31
3 35 31 15
3 33 36 37
3 36 38 37
3 36 26 38
3 37 38 22
3 33 37 39
3 37 20 39
3 37 22 20
3 39 20 16
3 16 14 39
3 14 32 39
3 14 15 32
3 39 32 33
3 27 25 30
3 25 36 30
3 25 26 36
3 30 36 33
3 26 40 38
3 40 41 38
3 40 0 41
3 38 41 22
3 4 1 23
3 1 40 23
3 1 0 40
3 23 40 26
3 4 24 7
3 24 34 7
3 24 27 34
3 7 34 8
3 10 42 11
3 11 42 12
3 10 43 42
3 43 44 42
3 43 35 44
3 42 44 12
3 35 43 8
3 10 43 8
3 12 44 15
3 44 35 15
3 21 45 19
3 19 45 28
3 21 46 45
3 46 47 45
3 46 41 47
3 45 47 28
3 41 46 22
3 21 46 22
3 28 47 0
3 47 41 0

CELL_TYPES 92
5
5
5
5
5
5
5
5
5
5
5
5
5
5
5
5
5
5
5
5
5
5
5
5
5
5
5
5
5
5
5
5
5
5
5
5
5
5
5
5
5
5
5
5
5
5
5
5
5
5
5
5
5
5
5
5
5
5
5
5
5
5
5
5
5
5
5
5
5
5
5
5
5
5
5
5
5
5
5
5
5
5
5
5
5
5
5
5
5
5
5
5

CELL_DATA 92
SCALARS cell_data_0 double
LOOKUP_TABLE default
8.52186657827e-05
7.3893974624e-05
8.11539359803e-06
0.000106184956681
1.14765897697e-05
1.74736735055e-05
1.10064201411e-05
7.57780517859e-06
8.89771724728e-05
0.000684638295073
0.000353197442998
0.000597993550561
0.000120105887398
0.000134744690167
9.22142797386e-05
5.33482511235e-05
1.39440002397e-05
2.08867562199e-05
8.41125857659e-05
3.83470430088e-05
9.02574052533e-05
8.76644685639e-05
8.15318439177e-05
5.49891155344e-05
0.000225491322085
0.000263386811899
8.01673392139e-05
0.00021291084068
0.000210911690989
0.000179861835449
8.41051389369e-05
7.09105224448e-05
7.45459683793e-05
8.62411332133e-05
0.000104865337952
7.74483131408e-06
2.2843037767e-05
4.82984190856e-05
5.37438957959e-06
7.14508064527e-05
1.42418679413e-06
9.24074768102e-05
6.84246752592e-05
0.000166333786663
1.11647555293e-06
8.75715676267e-06
1.34695216898e-05
4.3043068657e-06
7.16063924959e-06
3.34699015818e-06
1.26940666774e-07
6.94210536861e-05
5.2703700765e-05
7.7507692012e-06
1.01596528056e-05
1.27222936078e-06
9.29591834636e-05
5.44552684762e-05
3.12477404532e-05
8.99432047603e-06
1.25628435748e-05
2.11423713745e-05
2.03176190395e-05
5.60398828157e-06
5.98767805628e-05
5.22611533267e-05
8.65019500697e-07
3.26359877036e-05
0.000208715396712
0.000272296611477
0.000206570450927
6.12190504315e-05
0.000218424264044
4.25917794329e-05
0.000120033405423
5.84273040773e-08
2.63557532472e-05
2.6688227304e-05
3.41318108281e-05
0.000212296115233
4.55168392084e-05
3.96246068048e-05
2.78159105837e-05
4.89503434582e-05
2.02974724974e-05
8.67637140245e-07
7.94731209242e-06
2.56811780366e-05
4.40548639695e-06
9.89037176126e-06
4.78745927989e-05
1.10220783725e-05

