# vtk DataFile Version 3.0
File Name: Molecule/sphere_dip_sim/sphere_dip_sim_0-s3.vtk
ASCII
DATASET UNSTRUCTURED_GRID
FIELD FieldData 1
TIME 1 1 double
0.0
POINTS 21 double
0.850650808352 0.525731112119 0.0
0.0 0.850650808352 -0.525731112119
0.0 0.850650808352 0.525731112119
-0.850650808352 0.525731112119 0.0
-0.525731112119 0.0 0.850650808352
0.525731112119 0.0 0.850650808352
0.0 -0.850650808352 0.525731112119
0.850650808352 -0.525731112119 0.0
0.525731112119 0.0 -0.850650808352
0.0 -0.850650808352 -0.525731112119
-0.525731112119 0.0 -0.850650808352
-0.688190960236 -0.26286555606 -0.425325404176
-0.688190960236 0.26286555606 -0.425325404176
-0.850650808352 0.0 0.0
-0.850650808352 -0.525731112119 0.0
-0.425325404176 -0.688190960236 -0.26286555606
-0.425325404176 -0.688190960236 0.26286555606
0.0 -0.850650808352 0.0
0.688190960236 -0.26286555606 -0.425325404176
0.850650808352 0.0 0.0
0.688190960236 0.26286555606 -0.425325404176

CELLS 38 152
3 0 1 2
3 2 1 3
3 2 3 4
3 2 4 5
3 4 6 5
3 5 6 7
3 8 9 10
3 0 2 5
3 8 10 1
3 10 11 12
3 11 13 12
3 11 14 13
3 12 13 3
3 10 12 1
3 1 12 3
3 3 13 4
3 4 13 14
3 10 11 9
3 14 15 16
3 15 17 16
3 15 9 17
3 16 17 6
3 14 16 4
3 16 6 4
3 6 17 7
3 9 17 7
3 9 15 11
3 14 15 11
3 7 18 19
3 18 20 19
3 18 8 20
3 19 20 0
3 0 20 1
3 20 8 1
3 7 19 5
3 19 0 5
3 8 18 9
3 18 7 9

CELL_TYPES 38
5
5
5
5
5
5
5
5
5
5
5
5
5
5
5
5
5
5
5
5
5
5
5
5
5
5
5
5
5
5
5
5
5
5
5
5
5
5

CELL_DATA 38
SCALARS cell_data_0 double
LOOKUP_TABLE default
0.00141354113161
0.000200284183714
0.000661932887083
0.000512424570792
0.0006967375919
0.000500613606792
0.000558057748335
0.00214852645055
0.000746932147625
0.00011133329828
3.73545936972e-05
0.000209214123971
1.91634000621e-05
0.000143847717534
3.05888863203e-07
0.000324038023728
0.00103312922485
9.35044320035e-05
0.000286336172869
1.08062507798e-05
3.77782275929e-05
8.67332490037e-06
0.00109673223615
8.50792456175e-05
7.0025757425e-05
0.000100290010409
3.52056838217e-05
0.000399395471282
5.34797296457e-05
3.01287754817e-05
3.24318650477e-05
0.000308227051799
0.000612926717489
0.000114020524029
0.000417511021139
0.00112005566221
7.1454175847e-05
7.58652118839e-05

