# vtk DataFile Version 3.0
File Name: Molecule/sphere_cent/sphere_cent_0-s22.vtk
ASCII
DATASET UNSTRUCTURED_GRID
FIELD FieldData 1
TIME 1 1 double
0.0
POINTS 991 double
0.88995218277 0.27018263936 0.36732372642
0.83984154463 0.43589729071 0.32334655523
0.78802984953 0.3712772131 0.48974472284
0.78285777569 -0.39572066069 0.48006394506
0.71063280106 -0.55719786882 0.42953333259
0.82170814276 -0.48460257053 0.29978862405
0.88934630156 -0.29666125774 0.34733626246
0.99924463034 0.0096152676269 0.037569653243
0.98922508955 0.13341216743 -0.060263901949
0.98721176386 0.13292044401 0.088057085872
0.98621881008 -0.097266070545 0.13374309242
0.98080897331 0.050282355398 0.18831388652
-0.85020756721 -0.066730722785 -0.52215516567
-0.91023236513 -0.11137841642 -0.39810717106
-0.89389574528 0.020424421877 -0.44748994708
-0.44793185592 0.88797855377 -0.10337355733
-0.54684305191 0.83646720648 -0.026990124956
-0.40913322568 0.90935367346 0.075347580016
-0.27032715082 0.94690543413 0.17102639377
-0.38845038414 0.88240092993 0.26491740346
-0.5532591939 0.81785029173 0.15815278888
-0.51129686832 0.79207599163 0.33335122466
-0.12059183419 -0.98981428146 -0.074691861868
-0.015034407377 -0.99968034029 0.019768597558
-0.1926382184 -0.97991943359 0.051345519722
0.088335350156 -0.99257320166 -0.079504929483
-0.038225889206 -0.99006825686 -0.13310544193
0.061369236559 -0.98857402802 0.13764372468
0.16578190029 -0.98486256599 0.050017271191
-0.09497231245 -0.98420953751 0.14923557639
0.31214511395 -0.12399338931 -0.94172143936
0.16787692904 -0.23944354057 -0.95625275373
0.17687551677 -0.061061762273 -0.98206305504
0.023398753256 -0.12584932148 -0.99149960279
-0.97010672092 -0.04556306079 0.23820920289
-0.95866006613 0.14690105617 0.24178233743
-0.99254727364 0.084402434528 0.087383598089
0.060336153954 0.99743068218 -0.027956908569
0.072760902345 0.97969126701 -0.18684160709
-0.10083746165 0.98734682798 -0.12230944633
-0.6369560957 0.50318086147 0.5828666687
-0.50768315792 0.52809840441 0.67922687531
-0.55864179134 0.62726736069 0.54256033897
-0.69948250055 0.70763772726 0.098299100995
-0.65184879303 0.71426165104 0.25307789445
-0.98963391781 -0.02993969433 -0.13988296688
-0.99946534634 -0.028373349458 -0.01532444451
-0.99340504408 0.093224860728 -0.066805288196
-0.95495337248 0.27248454094 0.11632418633
-0.04457090795 0.95499753952 -0.29263713956
0.10133206844 0.93396967649 -0.34235134721
0.40049347281 0.57951205969 0.70866924524
0.55634468794 0.54154264927 0.63016194105
0.45435661077 0.67645716667 0.57947635651
0.32852628827 0.6950609684 0.63890635967
0.10728413612 0.21821199358 0.96997630596
0.25477555394 0.26071414351 0.9307692647
0.14085841179 0.33706313372 0.9306037426
0.83249723911 0.14882440865 0.5320700407
0.92469191551 0.095819979906 0.36837229133
0.014949046075 -0.0093685397878 0.99963080883
-0.039914436638 0.14333251119 0.988681674
-0.10773020238 -0.046151634306 0.99260622263
-0.19745194912 0.029731703922 0.97905695438
-0.17522017658 0.18392828107 0.96661657095
-0.35252961516 -0.80860340595 0.46953526139
-0.32569724321 -0.69360649586 0.64249074459
-0.46869495511 -0.70162588358 0.53669917583
-0.45718991756 -0.60349208117 0.65325665474
-0.78030174971 -0.58585399389 -0.21868535876
-0.6947221756 -0.69010490179 -0.20274294913
-0.74156290293 -0.66663146019 -0.075236327946
-0.53128093481 -0.067996583879 0.84441918135
-0.5137924552 0.12176630646 0.84901052713
-0.64732074738 0.02068743296 0.76198226213
-0.70991694927 0.38344478607 0.59073203802
-0.62225848436 0.37177118659 0.68816453218
-0.70450842381 0.14277629554 0.69518637657
-0.59370142221 0.22779227793 0.77176243067
-0.70276904106 0.26609426737 0.65977364779
-0.0032153809443 0.31621330976 0.94801050425
-0.11638546735 0.25462144613 0.95945650339
-0.59563660622 -0.32849869132 0.73299866915
-0.5049136281 -0.2414522022 0.82841938734
-0.62236320972 -0.17043998837 0.76367086172
-0.38288086653 -0.88711905479 0.25685149431
-0.50126791 -0.85554355383 0.12819132209
-0.35804468393 -0.92827290297 0.10048794001
-0.77826416492 0.43368554115 0.45362502337
-0.78734713793 0.28726965189 0.54535597563
0.55948573351 0.044928628951 0.82759177685
0.54097056389 0.21675601602 0.81262981892
0.45172128081 0.14902882278 0.87956553698
0.4224691391 0.28671386838 0.85903126001
-0.58703380823 -0.56201654673 0.58267831802
-0.49653598666 -0.46726381779 0.7304456234
-0.24271154404 -0.57536578178 0.78100478649
-0.36198207736 -0.58879953623 0.72226423025
-0.82279664278 -0.56082296371 -0.0919463709
-0.87007141113 -0.46659806371 -0.15881054103
-0.88196241856 -0.47041425109 -0.028409717605
-0.81042104959 -0.58360683918 0.049943231046
-0.90863382816 -0.40421891212 0.10452502966
-0.7095874548 -0.70101356506 0.069286391139
-0.61582702398 -0.77939528227 -0.11327746511
-0.3285638392 -0.48589158058 0.80975043774
-0.23861046135 -0.45232060552 0.85933893919
-0.773016572 -0.056074365973 0.63185369968
-0.77678120136 0.058071084321 0.62710475922
-0.8648968339 0.20491628349 0.45790219307
-0.79059177637 0.16651789844 0.589158535
0.66162002087 0.16530504823 0.73042368889
-0.92965483665 -0.18488168716 0.31728515029
-0.95206588507 -0.24267596006 0.18606027961
-0.88935697079 -0.3646081686 0.27580195665
-0.69788360596 -0.57543802261 0.42641505599
-0.70369172096 -0.48175624013 0.52218788862
-0.8012188077 -0.46753811836 0.37332981825
-0.52419984341 -0.76511579752 0.37234258652
-0.59176623821 -0.66357201338 0.45769244432
-0.6589948535 -0.67634236813 0.32902422547
0.33350303769 -0.90527868271 -0.26117542386
0.20019368827 -0.95731264353 -0.20653811097
0.20055802166 -0.92732930183 -0.31506112218
-0.96620821953 -0.19624806941 -0.16565044224
-0.98611199856 -0.16143518686 -0.039485212415
-0.98923498392 -0.11236717552 0.093267798424
-0.9649117589 -0.25685930252 0.054586630315
-0.94213503599 -0.33123645186 -0.05131976679
-0.83417624235 -0.51353663206 0.20057654381
-0.75575578213 -0.58352082968 0.29694467783
-0.84781610966 -0.3057051301 0.43174436688
-0.91172325611 -0.028842920437 0.40925657749
-0.62520956993 -0.43476426601 0.64814060926
-0.69130676985 -0.33341279626 0.64095067978
-0.74445217848 -0.64305317402 0.1793371588
-0.64897620678 -0.73323827982 0.20184099674
-0.38106399775 0.81887924671 0.42876586318
-0.0843436867 0.86333727837 0.4968752861
-0.20726820827 0.79437744617 0.57086539268
-0.085309706628 0.75904518366 0.64535188675
-0.22123511136 0.69650501013 0.68246537447
-0.11395763606 0.62262171507 0.77327144146
0.9177069068 0.34561228752 0.1958257556
0.37397947907 -0.81669330597 -0.43837064505
0.26432657242 -0.78450119495 -0.56101632118
0.42864274979 -0.72869855165 -0.53407788277
0.1337750107 -0.85503703356 -0.5010150075
0.08747087419 -0.79391032457 -0.60081315041
0.24096165597 -0.87213373184 -0.42551288009
-0.021660951898 -0.87695813179 -0.48003831506
0.96189719439 -0.05371440202 0.26803204417
0.95468658209 0.19701568782 0.2229206562
0.85173410177 -0.025564102456 0.52330595255
0.9611107707 0.26720651984 0.069911412895
0.90611332655 0.42303806543 0.0042166654021
-0.22375799716 0.86006617546 0.45831361413
-0.31338253617 -0.94887512922 -0.032923452556
-0.45906037092 -0.88785582781 -0.019235182554
-0.23506979644 -0.95009970665 0.20503543317
0.30338776112 -0.95196557045 -0.035318590701
0.27449274063 -0.95499795675 0.11200195551
0.18966448307 -0.95914256573 0.20972928405
0.30372729897 -0.92581164837 0.22496818006
0.042133398354 0.68188673258 0.73018831015
0.040317028761 0.81925284863 0.56988924742
-0.37436759472 -0.055314444005 0.92487990856
-0.28344902396 -0.13663415611 0.94908547401
-0.34462159872 0.00028052646667 0.93735814095
-0.42483457923 -0.14417091012 0.89370036125
-0.41808587313 -0.010082038119 0.90731555223
-0.35933074355 -0.25185006857 0.89857816696
-0.1604128927 -0.21058431268 0.96415936947
-0.23528406024 -0.31631436944 0.91898787022
0.35514354706 -0.86598235369 -0.35131171346
0.091891206801 -0.9107323885 -0.40262833238
0.035945683718 -0.97767239809 -0.20581169426
0.088849917054 -0.94951814413 -0.30073469877
-0.033928822726 -0.93719023466 -0.34716442227
-0.14848081768 -0.88485956192 -0.4406336844
-0.12720921636 -0.95541346073 -0.26584589481
-0.15861481428 -0.92295199633 -0.34974688292
0.36709523201 -0.91884028912 0.14331844449
0.38977193832 -0.8792937994 0.27339881659
0.92105847597 -0.26115676761 -0.28886833787
0.88830399513 -0.21693964303 -0.40420901775
0.9331895113 -0.14537903666 -0.32761463523
-0.3420869112 -0.3777487576 0.86023306847
-0.094112940133 -0.3273306489 0.94015306234
0.0094746556133 -0.89748197794 0.44093519449
-0.12841467559 -0.88522005081 0.44703397155
-0.11708158255 -0.94260030985 0.31274193525
-0.25027135015 -0.9013723135 0.35335880518
0.83510154486 0.54582923651 -0.067298471928
0.8725477457 0.46163579822 -0.15980678797
0.8073990941 0.56090080738 -0.18303889036
0.73534357548 -0.65175575018 0.18534852564
0.83351868391 -0.54244965315 0.1047571227
0.90893673897 -0.37841787934 0.17484912276
0.81996536255 -0.42358699441 -0.38499492407
0.81880700588 -0.48950463533 -0.29839101434
0.74680143595 -0.48572254181 -0.45406395197
0.76000005007 -0.60135412216 -0.24630104005
0.70959508419 -0.5659519434 -0.41798943281
0.63183373213 -0.69082969427 -0.35122653842
0.86733436584 -0.46925497055 -0.16559278965
0.8256470561 -0.55892437696 -0.073721818626
0.90834212303 -0.41813114285 -0.00705973804
0.72722226381 -0.68452203274 0.047227855772
0.92593324184 -0.33925068378 -0.16600880027
0.88107246161 -0.38129836321 -0.27976769209
0.8690148592 -0.32517674565 -0.37297394872
0.82326942682 0.43529745936 -0.36419519782
0.82200962305 0.50038975477 -0.27184864879
0.879558146 0.38477966189 -0.27990579605
0.91824781895 0.25902450085 -0.29954129457
0.86338895559 0.32287377119 -0.38752821088
0.92493164539 0.33778944612 -0.17424981296
0.1529045552 -0.76559114456 0.62467181683
0.081100583076 -0.83737099171 0.54056203365
0.21225191653 -0.81091362238 0.54523766041
0.26232117414 -0.89968526363 0.34890785813
0.29920014739 -0.82813185453 0.47389280796
0.37890064716 -0.83883041143 0.39064702392
0.95957267284 -0.20247574151 -0.19543974102
[...]
CELL_DATA 1978
SCALARS cell_data_0 double
LOOKUP_TABLE default
7.33370226515e-09
2.91091569797e-09
5.45094946382e-09
1.74067670918e-09
7.20602846389e-09
7.07619819328e-09
1.7554575089e-09
2.80266937133e-09
6.54606571395e-09
1.59234189128e-09
1.41332375711e-09
9.20504203873e-09
2.37611209168e-09
2.71272028934e-09
6.948250054e-11
4.51702547963e-09
5.02384256409e-09
6.81467557183e-09
7.60796413904e-09
8.111656846e-09
3.8881728748e-09
3.89811844624e-09
4.96175878517e-09
7.99252389217e-10
2.55225394716e-09
2.20615818199e-09
8.63736116675e-09
1.13929799451e-09
3.97343178194e-09
9.40171886813e-09
8.89799153143e-09
8.10029777918e-09
1.63550647113e-08
8.82750191498e-09
4.15867029747e-09
2.17650486486e-09
5.7575739367e-09
6.46551861077e-09
1.00513591352e-08
7.5576314377e-09
5.86255390893e-09
4.7910506934e-09
7.55979480632e-10
5.05726713757e-09
1.26406911149e-08
6.02719450094e-09
8.29927126241e-10
3.04939952185e-09
1.28013110329e-08
9.74738648936e-09
5.55115875409e-09
1.86612167959e-09
5.28970773511e-10
8.98828047209e-09
3.46135928552e-09
1.73189070953e-09
6.24633286136e-09
5.43899634003e-09
3.05360264152e-09
8.00096065053e-10
8.98341734476e-09
4.72543569973e-09
3.97744422177e-09
7.43766905578e-09
5.4201432577e-09
9.85187858171e-09
3.94340993992e-10
5.36546403037e-10
4.33142869265e-10
4.11961967135e-09
1.1324761294e-08
2.92335183105e-09
3.38936283434e-09
5.20000205021e-09
1.31395588333e-09
1.53658293468e-09
2.37668660393e-09
6.21609237902e-09
1.1586559975e-09
3.94632847607e-09
6.68742710066e-11
3.49600838584e-09
5.0262639621e-09
2.5279172058e-09
5.84256126369e-09
2.19371666689e-09
2.36077516079e-09
7.3802069691e-09
2.78241832478e-09
9.12090332587e-09
1.50641269213e-09
6.2016217844e-09
2.56892577898e-09
9.94120706751e-10
5.31175252849e-09
3.61552116815e-09
1.04894868799e-09
6.71533553515e-09
9.88615083003e-09
1.34534201394e-09
4.05468710738e-11
2.27734145613e-09
3.34415218695e-09
5.39501196326e-09
5.27371027388e-09
4.66559713029e-09
1.03077953811e-08
4.67216369365e-09
1.04559696344e-09
4.2352818038e-09
9.03080951482e-09
3.23700702822e-09
5.88227771626e-09
7.46588644774e-09
5.72547226237e-10
5.74068910873e-09
8.73055848431e-09
8.98787569493e-09
1.54103336691e-09
7.14122354412e-09
1.74743345316e-09
1.45096290752e-09
3.85632640826e-09
7.01773174961e-09
1.18021193596e-08
4.73462927032e-09
9.45031313051e-09
1.12269442936e-08
1.04322163936e-08
1.18622914136e-08
1.07293749338e-10
6.51910172383e-09
2.94870010389e-09
1.07424493772e-08
3.99966343718e-09
2.18560082401e-09
6.4108933294e-10
2.77412374757e-09
7.87991859721e-10
5.76352614082e-10
5.21659768128e-09
8.64483396114e-09
5.58110833511e-09
8.15273800028e-09
9.45259498045e-09
2.19577083504e-09
2.06032734675e-09
4.18807337941e-09
1.49105982302e-09
4.93870306949e-09
1.54737850922e-09
6.41101774164e-09
4.5680222677e-10
4.18574347871e-10
3.04387099817e-09
4.13839543942e-09
2.39539963284e-09
7.17611821403e-09
3.84464284259e-09
5.43882742264e-09
3.03824900095e-09
4.38874913954e-09
3.16465876769e-09
6.43878998269e-09
6.7080938499e-09
4.36216522904e-09
3.58262326779e-09
1.21334242405e-09
6.95815758181e-10
3.08794635892e-09
1.13796171283e-10
2.05582844287e-10
8.43381939761e-09
2.59549463105e-09
3.20097998066e-09
3.99828777689e-09
3.67091088139e-09
8.31570118154e-09
1.31204105868e-09
1.03720637867e-08
4.68246854383e-09
2.63408460275e-09
2.09479425044e-11
6.10116650218e-10
6.3256120717e-09
1.35230293221e-08
9.56286087821e-09
6.64023442831e-09
2.89099214624e-09
4.89432782201e-09
5.04378366431e-09
1.10742976355e-09
2.70414142368e-09
5.50111821703e-10
4.46703774236e-09
1.73754063074e-09
6.05119945208e-10
5.24606002361e-10
6.64555461741e-09
5.23402600922e-09
9.75032311432e-09
1.35882760885e-09
9.66235479021e-10
5.32748082331e-09
4.08315345019e-09
3.26645902677e-09
2.71713296113e-09
6.61971162808e-10
4.05008298515e-09
4.85612775134e-10
3.13216509876e-09
4.38561842621e-09
3.76390608759e-09
3.38492468267e-10
6.0655073243e-09
6.57901366071e-09
1.42052032871e-09
7.02383814208e-10
6.20190297759e-10
2.51341482236e-10
3.07573281928e-09
1.66690453142e-09
1.80147232234e-09
1.33558017095e-09
1.13622828487e-09
1.2512546948e-09
1.04681659836e-09
1.41204786022e-09
7.43600072202e-09
3.26468679051e-09
6.06061108037e-09
7.1602432014e-09
2.57535601752e-09
4.2320250135e-11
9.12756669018e-09
8.52378707592e-09
3.01673766509e-09
3.98207379614e-09
3.37284836e-09
1.42733216439e-08
6.96565925122e-09
1.33808420525e-08
2.96191947642e-09
3.9962534449e-09
8.71506427262e-09
4.84940051906e-09
9.14845658598e-09
1.8473667821e-09
4.88921347713e-09
8.802969567e-09
8.11674289384e-09
6.19735771043e-09
5.70904565782e-09
4.66680564537e-09
6.71954398258e-09
5.18391715564e-09
1.7150343939e-09
2.29756155371e-09
8.76839003057e-09
8.23018197476e-09
1.18393155802e-08
2.29333747517e-09
1.05859431088e-09
1.2030255144e-09
6.45401805898e-09
2.47378168675e-09
6.90501472432e-10
3.40488114841e-09
1.03489333652e-08
7.09569605798e-09
7.16663821298e-09
3.69020557409e-09
4.52136872961e-09
1.52774680936e-09
3.46138628517e-09
6.36431481516e-09
1.02613451786e-09
4.39889971093e-09
1.56776654111e-09
6.90456180633e-10
1.40186127965e-09
4.97265496838e-09
2.3803046559e-09
1.32280012683e-10
4.10587195966e-09
2.53490549597e-09
4.53388782801e-09
4.31032384323e-09
7.22756911381e-09
5.38586018579e-09
1.85328749443e-09
6.16982710948e-09
6.03398399462e-09
4.64454522563e-10
1.08185669453e-09
6.56090256119e-09
4.81966894691e-09
3.29983813399e-09
5.928654728e-09
2.9831814565e-09
5.4182890951e-09
1.4874284968e-08
4.12462781242e-09
2.77671885624e-09
1.06260803943e-10
6.13744238554e-10
1.04800997394e-08
1.394806529e-09
1.21954429542e-09
3.90027460711e-09
5.4639064543e-09
8.89046036389e-09
7.27229215633e-09
1.62647070049e-09
6.93857776648e-09
2.33474083689e-09
4.16769231865e-09
7.15049411642e-09
2.52206154146e-09
2.33303775877e-10
6.10729959931e-09
2.54243146833e-09
2.40258263081e-09
1.14165316214e-09
1.21134270246e-10
7.06393671687e-09
6.07119768034e-09
4.10614301431e-09
2.59881887835e-09
7.86757129758e-09
3.07727773928e-10
2.67942409679e-10
1.10661143865e-10
1.40377353193e-09
5.47096099393e-10
2.62691582693e-09
4.16494495254e-10
6.91446234128e-10
1.16101379207e-10
6.07199991837e-10
7.86774691282e-09
6.94796136035e-09
2.29433489559e-09
2.71610263361e-09
4.35439289147e-10
2.97361576079e-09
1.85977637747e-09
2.75421134778e-09
4.6941325979e-09
7.81757071402e-09
3.39187367656e-10
2.67858645752e-10
4.33702472936e-09
4.43054006842e-09
6.23456299808e-09
4.73057155806e-09
5.1271554086e-09
7.37363019076e-10
1.18510078664e-09
4.80918150321e-11
1.64662663425e-09
5.69298149984e-09
6.06922227498e-09
9.09398982068e-09
2.94651526459e-09
5.06968685392e-10
2.08014733538e-09
9.75861990613e-09
8.05254831003e-09
1.95143013141e-09
1.55618777901e-10
1.37033863279e-09
1.52014313673e-09
3.71479256603e-09
8.99350055638e-10
4.44916532195e-09
5.26508589116e-09
2.1433853837e-09
8.72188465084e-10
3.66820204493e-09
5.26207278288e-09
4.33347715832e-10
6.96372471934e-09
4.36730264446e-09
3.68299646579e-09
6.09099484676e-09
1.88378884648e-09
3.59455231053e-10
1.4101713471e-09
4.42484381718e-09
5.99636302986e-09
7.33458209156e-10
3.38968647469e-09
8.10317893755e-09
7.48453146446e-09
1.68099377105e-09
4.84631519506e-09
1.30330263595e-09
3.70334296798e-09
1.06296175282e-09
1.07735038996e-09
6.92131002287e-09
5.5842383481e-09
1.8226481534e-09
7.57651118308e-10
4.97129054578e-09
3.65954009003e-09
7.92364618496e-09
3.74581250974e-09
4.12534698261e-09
2.82143388786e-09
1.15316054869e-08
8.8318485806e-09
5.14851326225e-09
9.0569018936e-10
1.65806431177e-09
3.92988175403e-10
4.76562509151e-09
3.02228980907e-09
2.04144789967e-09
9.70025476908e-11
2.15183665025e-09
8.3037334543e-10
1.49356786932e-09
5.37609608046e-09
4.67687763891e-09
5.93039862487e-10
6.49811816388e-09
2.96587260726e-09
3.68697281614e-09
7.71184863164e-10
3.4706031779e-09
2.54672213885e-09
1.02283851365e-09
5.20113077361e-09
5.83144323937e-09
3.97758412528e-09
3.94819109285e-09
2.49123239427e-09
3.93325286952e-09
9.07223921758e-09
1.56348445605e-09
1.15925227015e-09
3.37585282261e-09
1.81232121424e-09
2.40849366065e-10
6.72104358218e-11
1.10555660189e-08
1.86430372359e-09
2.03391784921e-09
1.12461224441e-09
5.35088060379e-09
2.51687127417e-09
8.04638091835e-10
2.87068703904e-09
5.8573350628e-09
1.49372647877e-09
1.50811635605e-09
3.55016255482e-09
3.94910392098e-09
1.15803137406e-09
6.70461709987e-10
8.33530475139e-10
9.97372849956e-10
1.13394801034e-09
5.78443152625e-10
5.34864202168e-09
3.59135545697e-09
3.28040393721e-09
1.18055240904e-09
2.63701116858e-09
3.14241663277e-09
6.87242808152e-10
1.58740163595e-10
1.53577384196e-09
2.23108025218e-09
2.35147764519e-09
5.44808601707e-10
8.90373952062e-10
1.9750817693e-09
4.05759768724e-09
2.59217331963e-10
4.00564883263e-09
9.52352364409e-10
1.92004415873e-09
4.92181811265e-09
2.67156477638e-09
5.11439754159e-09
1.6287960756e-09
6.43460360331e-09
8.70055078875e-10
1.93708654737e-09
3.64058853155e-09
2.28849559437e-09
1.69300482284e-09
6.46798791038e-10
4.20873638065e-09
3.31694272902e-09
7.9374780443e-09
2.06041363392e-09
2.96692717704e-09
3.72138221088e-09
1.83545206084e-09
1.5205699284e-09
4.46646876749e-09
1.26454301895e-08
2.28802355919e-09
3.22500718129e-09
4.35888902213e-09
6.74270897664e-10
8.77009203896e-09
1.05220845871e-08
7.83868710672e-09
1.12735919268e-09
3.83304561141e-09
1.81901420951e-09
3.17001728777e-09
1.85187127226e-10
2.86205124786e-09
3.2216882928e-10
4.14578258687e-09
2.22297269881e-10
5.93036574768e-09
9.91101483957e-11
3.36418530102e-09
5.83111851443e-09
4.31408317012e-09
3.09483700408e-09
6.98530956329e-10
1.4332438805e-08
5.02872504759e-09
7.85991009839e-09
3.8295730043e-09
2.16634097341e-09
8.88329031301e-09
1.44175710745e-09
5.37702673655e-09
5.8762180038e-09
1.15436329103e-08
2.78938155139e-09
6.92521721859e-10
5.87438803249e-12
6.99747773555e-09
9.08203230265e-09
3.34688274879e-09
1.57366751262e-08
3.08387232693e-09
6.76591126741e-09
1.28525671885e-09
6.47870365769e-09
2.70551068019e-09
1.83522157005e-09
3.74396058529e-09
2.28275824957e-09
5.50925981439e-09
5.44449706849e-09
6.64069178344e-09
8.31070720797e-10
3.00389547246e-10
2.08841655206e-09
1.1204702904e-09
1.49354194687e-09
7.64763518618e-09
4.35887695395e-09
1.47362940098e-09
3.09774150291e-09
3.04988962036e-09
1.15378230652e-09
1.41047306415e-09
6.01331540218e-10
6.05176789383e-09
2.485735384e-09
2.19844009735e-09
2.06961914458e-09
1.71475117527e-10
3.02410314104e-09
2.83428069654e-09
2.48837838674e-10
2.28207120821e-09
3.33236991844e-09
4.08671583555e-09
1.6419148833e-10
3.90970263646e-10
1.06942756105e-09
9.60803588861e-10
1.95323142979e-09
3.46473028739e-09
2.18565655174e-09
6.28252328819e-12
2.75453953661e-10
2.38670894753e-09
4.97479538849e-09
7.26431974275e-10
2.02354322998e-09
1.64778275556e-09
5.19631569658e-10
1.7637575943e-09
3.49288550089e-09
1.08997712465e-09
2.6686256817e-09
9.62806162615e-10
4.01967125999e-09
5.00859993071e-09
1.74074530889e-09
1.64626695005e-09
6.19900536535e-09
2.25059398905e-09
2.39881183575e-09
1.56898735216e-09
1.57186959418e-09
7.92146262428e-10
4.54797344112e-10
1.57313301235e-09
2.04502689201e-10
1.5499918171e-09
3.39191990438e-10
1.62314939282e-09
3.05203743242e-10
8.471082876e-10
4.54200634792e-10
4.68964025997e-09
1.87848638419e-09
3.35780911899e-09
2.76633931533e-09
2.93821022025e-09
6.5133175716e-09
3.60515296392e-09
7.30251854464e-09
6.90545696907e-09
2.53022671459e-10
8.46995068375e-10
6.441285016e-09
5.14795931952e-09
3.53919376269e-09
7.57870531573e-09
2.42553762324e-09
8.68014997777e-10
5.60901773958e-10
1.36151563353e-09
5.44173849231e-10
5.44936581761e-11
2.84723072721e-09
7.32723409264e-10
4.2621601596e-09
3.74034420347e-09
4.05394066897e-09
3.51127671245e-09
2.02412690161e-09
7.30068787619e-09
8.6256914379e-09
3.25324425462e-09
6.18322234878e-11
3.10344924002e-09
2.8954426823e-09
4.00170583668e-10
1.21943895136e-09
2.01583848927e-09
9.68802383391e-09
4.86401926526e-09
3.94523959661e-10
2.95156784817e-09
6.03621633393e-10
1.13644688027e-09
3.24576724742e-09
3.15497512208e-09
1.9519620941e-09
1.10310949192e-09
1.48622043307e-09
3.90915318457e-09
1.38039078504e-09
5.11569687082e-10
1.52359790726e-09
1.51205315231e-10
1.32530097426e-09
3.18938606249e-09
3.70511611835e-09
1.36285586259e-09
7.30693637539e-09
1.74185712457e-10
2.42902925263e-09
5.07297857364e-09
3.77179642764e-09
3.88864695698e-09
3.75412317261e-09
5.71353559805e-09
8.04159088631e-09
2.99665188424e-09
8.28597591259e-09
4.21347728173e-09
3.42850304066e-09
1.48820353245e-09
5.37478389945e-09
4.7969971636e-09
4.57164995447e-09
3.58710186788e-09
1.55139434575e-09
6.68209814534e-09
1.8260487808e-09
3.59801444889e-09
2.34766179541e-09
6.51217093727e-09
7.65414726153e-10
3.80836049247e-10
3.98852937921e-09
5.31279778295e-10
2.68474523897e-09
6.46938560725e-09
2.19524934666e-09
1.60301012427e-09
7.12452619997e-09
4.5979722692e-09
8.49981641725e-09
2.22760596318e-09
6.57729815809e-09
1.54274305137e-09
3.96324136364e-09
4.0636954385e-09
2.24754234729e-09
7.77820870362e-09
3.44878883691e-09
1.02077938863e-09
1.15159342561e-09
9.48020852685e-09
2.38421577851e-09
1.77785072918e-09
5.86934999885e-09
8.16396228589e-09
1.31002020348e-09
2.21911385452e-10
4.1288700047e-09
4.77528863473e-09
4.48431184671e-09
9.14051645693e-10
7.9875798533e-09
8.42374687732e-09
6.34324515449e-09
6.6441366057e-09
5.7420071915e-09
1.4693043789e-09
4.54140362441e-10
3.5654429737e-09
1.0706796157e-09
1.9697287029e-09
1.04793376374e-09
2.48009609861e-09
3.60851645797e-09
5.89246074618e-09
8.03211048825e-10
2.05485768769e-09
2.88103792454e-09
2.49663934996e-10
1.10223451464e-09
4.92943653802e-10
7.52598422477e-09
1.92769062555e-09
4.60821513724e-10
2.33972442607e-09
1.89847525736e-09
7.36559019724e-10
3.65530625949e-10
1.88754623864e-09
1.13161219176e-09
2.2016124701e-09
6.07422491229e-10
1.86953972335e-09
1.20927667524e-09
4.78764809297e-10
5.71741710406e-11
9.33893322251e-09
3.03060250923e-09
2.60209684451e-09
9.59660457976e-10
2.16237723028e-09
5.49782038633e-09
2.61629368186e-09
1.86608606622e-09
5.9016499199e-09
3.01100153269e-09
2.47754916002e-09
4.1247225928e-09
1.70588896545e-09
3.52086657442e-09
2.57216917606e-09
3.78811504381e-09
1.90016102839e-09
4.26899922258e-09
5.90980050363e-09
6.63782005377e-09
1.17154389546e-10
5.84083882216e-09
1.19308466262e-09
4.94808950486e-11
5.53158519808e-10
3.92033916051e-09
3.35503084332e-09
2.09736705132e-09
3.06156410494e-09
8.07055094004e-09
1.53713782881e-09
3.50915374118e-09
2.05613412448e-10
2.79537095591e-09
5.22231124649e-09
1.37056260965e-09
8.99350694603e-10
2.47991672965e-09
2.34450222621e-09
2.42816919192e-09
2.29777535801e-09
6.12582485765e-09
9.13448162504e-10
9.18819150507e-10
4.33605596066e-10
1.45356863613e-09
3.77080657087e-09
7.32815051944e-10
1.3640673043e-09
1.42679620382e-09
6.29435568898e-09
2.90809024466e-09
3.64647669372e-10
2.19408887417e-09
3.10444490662e-09
8.82553095768e-10
2.61242630045e-09
2.7525237449e-10
2.52719216438e-09
1.0027704059e-09
9.39250346117e-09
2.42582719102e-09
6.53076148677e-10
1.09886078432e-09
1.45654649478e-09
5.6152154609e-09
3.30813758472e-09
8.9227300376e-09
4.91348626316e-11
4.36077622142e-09
6.27354020303e-09
1.04689283256e-08
4.9591823012e-09
7.39781451653e-10
3.76300638704e-10
8.51266352411e-09
3.90589609216e-11
3.22747554858e-09
5.92798701613e-09
7.1365364265e-09
8.70206077926e-09
1.306821389e-09
1.56917573485e-10
3.50290757331e-09
8.3202471073e-09
7.58920653043e-10
2.83660200721e-09
7.4318764334e-09
3.13616129969e-09
4.32131304413e-09
6.39302056303e-09
2.42371088564e-09
4.82198778167e-09
1.4189944979e-09
3.69020791645e-09
2.44082755696e-09
7.22801936728e-09
1.04122141861e-08
8.37709775961e-09
3.94094693246e-10
9.85467390081e-11
3.10807186145e-10
2.01557173378e-09
3.34318236715e-09
4.61711169383e-09
1.51495977882e-11
2.33840775307e-10
8.77434167962e-09
5.06869237734e-09
1.06276016394e-09
2.25590137552e-09
3.88141397846e-09
7.77964023016e-09
5.88127424469e-10
1.23704295009e-09
6.52736147975e-09
1.05946442874e-09
4.74847193628e-09
5.7247781912e-12
3.28107036511e-09
1.85724624055e-09
1.41931005457e-09
5.60334346925e-09
2.29931547341e-09
3.6344955205e-09
3.26571722346e-09
6.57442554379e-09
6.54234313264e-09
5.22310578314e-09
2.69821147322e-09
2.67029285666e-09
1.43298535599e-09
1.06283386932e-09
7.90055184784e-11
2.08317243487e-10
6.2615904557e-09
2.37960507011e-09
1.71481913047e-09
8.74459094103e-10
2.4840940254e-09
1.24622252725e-09
7.46953789221e-10
6.56397452223e-09
3.44083863189e-10
2.23847704771e-09
1.4127124895e-10
3.05078777658e-09
1.859633981e-09
3.60900360229e-09
2.90593613421e-09
1.4535059495e-10
3.292474325e-09
3.6129768627e-09
2.58019147559e-09
2.20429416593e-09
3.54540750577e-09
5.45403847634e-10
4.22481354769e-09
2.40853728266e-09
1.54237016308e-09
3.37533302016e-09
3.68248802048e-10
1.01739687289e-09
5.91007135126e-09
8.94509749819e-10
4.20802110268e-09
5.60828430581e-09
3.11968426056e-09
6.34513189615e-10
5.12538292735e-10
1.45132639162e-09
8.72222677181e-11
2.84113534606e-09
6.45142387375e-09
2.67217843781e-09
8.31383857517e-10
4.46498853819e-09
2.7367483048e-09
2.3916828615e-09
4.90409351883e-09
1.20146157641e-09
6.12566276187e-09
2.6100896023e-09
5.15013124446e-10
2.00033914862e-09
7.68308472697e-10
1.45357177335e-09
2.44322583199e-10
5.25672169482e-10
1.24537794218e-09
1.62764679244e-09
7.66566364251e-10
1.11968564971e-09
1.07804172069e-09
1.43428252843e-11
3.0886001734e-10
1.316464306e-09
1.58104530024e-10
8.20160318834e-09
2.43286869307e-09
2.04204364445e-09
3.22846442088e-09
6.21852439723e-09
3.22248940196e-09
2.2151711051e-10
5.17130163982e-09
5.63667532625e-09
3.38772254023e-09
1.18286681637e-09
4.45388009439e-09
6.95426093632e-09
5.22964320522e-10
2.36541189648e-09
2.95091602244e-09
4.2756445461e-09
2.63569576465e-09
7.31284774877e-09
4.25620116507e-09
5.93023989947e-09
1.56059797096e-09
5.57253296564e-10
4.44236174823e-10
5.49185568212e-11
1.46894663997e-09
5.85811603369e-10
8.53231356536e-11
1.35511904889e-09
2.56540509879e-10
1.8785226029e-09
2.38826740956e-10
9.86372418537e-10
2.76328059505e-09
4.75188048145e-09
2.36504681187e-09
2.03818701909e-09
2.49760026044e-09
1.52616190912e-09
2.88106353918e-09
2.35620400438e-09
2.77046319767e-09
2.26434669739e-09
9.84106870108e-11
4.77356652972e-10
4.48175499392e-09
4.25230004493e-09
7.36663836393e-10
2.27549034642e-09
1.98443150418e-09
3.67880365025e-09
2.39778091835e-09
6.90704117427e-09
5.96383466861e-10
2.47268199982e-09
3.58872990139e-09
3.268374947e-09
1.10941420156e-09
4.79516810966e-11
6.18342722789e-09
6.09230500051e-10
3.37061338908e-09
2.33345693806e-09
1.56514034603e-09
2.82691489495e-09
2.12926486151e-09
1.16911115858e-09
7.07569113913e-10
2.6029831116e-09
1.07928469081e-09
3.10318590252e-09
3.43673168715e-09
3.43762544016e-09
2.65846195624e-09
6.10978430958e-10
1.24002010861e-09
5.44889520266e-09
4.34798440607e-09
2.3215732787e-09
4.57251300118e-09
6.11139356856e-09
1.25286360202e-08
5.02316612684e-09
1.75042630634e-09
6.63417980897e-11
2.66452889743e-10
2.64852387457e-09
2.12295553675e-09
5.96992846361e-09
1.26408181808e-09
2.45714614391e-09
1.14911505362e-09
2.95694108311e-10
1.77362288011e-09
1.4132238281e-09
9.28050134791e-11
1.07826360784e-09
3.34230365881e-09
3.9892523645e-09
4.446203916e-10
2.85749096524e-09
2.17579879012e-09
4.53960415861e-09
3.07340883467e-09
1.17503535589e-09
6.65303538376e-10
2.10442091308e-09
4.97645539983e-09
3.52060657815e-09
4.32966032099e-09
3.25251318963e-09
5.57736341949e-09
1.20414041203e-09
5.89350977856e-10
2.06074075133e-09
2.90460492378e-09
4.48398451131e-09
5.88288397801e-09
2.99526104269e-09
3.70148445398e-09
1.1942372282e-09
1.84208065687e-09
3.288966526e-09
4.8313474816e-09
5.44509847219e-09
6.4245572455e-09
4.42859235639e-09
6.49759793188e-09
1.4377321699e-09
3.04746918523e-09
3.60975681021e-09
1.66541133396e-09
4.10371692768e-10
6.15921972438e-09
2.26032301728e-09
8.5192712071e-10
2.19630261738e-09
4.63674286976e-09
5.35784006854e-09
3.86800599378e-09
2.45568259705e-09
4.23641731439e-09
4.98094916356e-10
1.21724588083e-09
8.16410625083e-10
2.86747222908e-09
9.07609144314e-10
1.77563116329e-09
7.3243668143e-10