# vtk DataFile Version 3.0
File Name: Molecule/sphere_cent/sphere_cent_0-s19.vtk
ASCII
DATASET UNSTRUCTURED_GRID
FIELD FieldData 1
TIME 1 1 double
0.0
POINTS 665 double
-0.40326437354 0.67316442728 0.61980032921
-0.50079041719 0.5133638978 0.69675594568
-0.31420791149 0.52436000109 0.7913210392
-0.50320887566 -0.83257466555 -0.23042823374
-0.31790420413 -0.92282813787 -0.21722944081
-0.46638533473 -0.88299757242 -0.05140702799
0.51545524597 -0.80287855864 -0.29859122634
0.51419168711 -0.85141909122 -0.10066601634
0.35424998403 -0.90365880728 -0.24071054161
-0.46178224683 0.27090442181 -0.84457856417
-0.52159619331 0.0036709641572 -0.85312461853
-0.67291891575 0.15549257398 -0.72192454338
-0.5172585845 -0.78000307083 0.35216104984
-0.35306668282 -0.81328624487 0.46228852868
-0.46745041013 -0.69955682755 0.54042834044
-0.38422495127 -0.88443464041 0.26457837224
0.89146405458 0.27029314637 0.36348500848
0.84123957157 0.43788412213 0.31661766768
0.7888289094 0.35628882051 0.50080817938
-0.3212172091 0.097617954016 -0.94190174341
0.78420656919 -0.38522106409 0.4859688282
0.6935275197 -0.57574701309 0.43152371049
0.82498115301 -0.47961974144 0.29853516817
-0.19026993215 0.7019482255 -0.68540352583
-0.43831166625 0.68823337555 -0.57610678673
-0.2795946002 0.82929575443 -0.48159724474
-0.494612813 0.79694074392 -0.34428945184
0.36921605468 -0.82177323103 -0.43376120925
0.6734188199 -0.71922630072 -0.17016786337
0.89587128162 -0.27955776453 0.34364655614
-0.85303246975 0.45410618186 -0.25709408522
-0.93318665028 0.34172201157 -0.10503512621
-0.83696395159 0.53176987171 -0.12457962334
-0.61119043827 0.71341234446 -0.34070783854
0.99945539236 0.0085971700028 0.031447533518
0.98879802227 0.13365909457 -0.066001452506
0.98762744665 0.13159051538 0.085328690708
0.98680514097 -0.096271581948 0.13008163869
0.98123151064 0.046393483877 0.18715508282
-0.85004633665 -0.037436321378 -0.52163279057
-0.91091400385 -0.1415283829 -0.38570830226
-0.88294148445 0.042842701077 -0.46422740817
-0.95340788364 -0.0048454380594 -0.30169382691
-0.97535741329 0.1174204275 -0.183358863
-0.92752188444 0.20271742344 -0.3129068017
-0.13068202138 0.13196717203 -0.98247212172
-0.21986114979 0.28167194128 -0.93392205238
-0.0029261631425 0.28344860673 -0.95888859034
0.12623026967 0.13320581615 -0.98291301727
0.19323731959 0.29184755683 -0.93637895584
0.056912153959 0.99826198816 -0.0083456858993
-0.10120522976 0.98737061024 -0.12174472958
-0.091628238559 0.99224293232 0.083687134087
-0.26073095202 0.96507441998 -0.025109410286
-0.28535443544 0.92968642712 -0.22888982296
-0.24575771391 0.95687901974 0.15498681366
-0.41721066833 0.90144068003 -0.11549010128
-0.40947788954 0.90910464525 0.076484568417
-0.56314831972 0.82365107536 -0.046302117407
-0.37586787343 0.88324165344 0.27904191613
-0.55213522911 0.8177497983 0.16256906092
-0.50954341888 0.79053765535 0.3394306004
-0.29741346836 -0.95365142822 -0.044983964413
-0.12348211557 -0.98746353388 -0.098010495305
-0.012373748235 -0.99963063002 0.021726872772
-0.18786938488 -0.98095887899 0.049092244357
0.097696520388 -0.99174916744 -0.082539319992
0.31553211808 -0.94773423672 -0.046202603728
0.066013075411 -0.98854869604 0.13547880948
0.17298017442 -0.9836345315 0.05009996146
-0.091839037836 -0.9850474596 0.14522348344
0.33329409361 -0.11082346737 -0.93560498953
0.18150310218 -0.053235303611 -0.98190438747
0.29076331854 0.10265036672 -0.95099204779
0.16582606733 -0.24659314752 -0.9545968771
-0.1584995687 -0.26467272639 -0.95100164413
-0.18382589519 -0.056804802269 -0.98131895065
0.0009393558139 -0.11734118313 -0.99280679226
-0.34563779831 -0.11498806626 -0.93127989769
-0.45517840981 -0.23566615582 -0.85837644339
-0.95152336359 0.14556591213 0.27078256011
-0.9706209898 -0.049566999078 0.2353888303
-0.90688163042 -0.013270345517 0.41947966814
-0.87397140265 0.21976006031 0.43334165215
-0.89204537868 0.35774216056 0.27343341708
-0.95236867666 0.28812873363 0.099196873605
-0.99324285984 0.088246427476 0.070242136717
0.072048775852 0.9794600606 -0.1883469522
-0.64468371868 0.50815910101 0.57097774744
-0.55668276548 0.63217449188 0.53874832392
-0.68816334009 0.59700948 0.41208979487
-0.78829181194 0.4347730875 0.43528860807
-0.71154046059 0.380428195 0.59072715044
-0.77991056442 0.5700917244 0.25399285555
-0.66010814905 0.7047547698 0.25996139646
-0.7107026577 0.69779992104 0.079287968576
-0.34423565865 -0.5402635932 -0.76734346151
-0.14321506023 -0.55018460751 -0.82261544466
-0.24047186971 -0.66027206182 -0.71145367622
-0.022934095934 -0.68467026949 -0.72847241163
0.040586717427 -0.52811181545 -0.84787184
-0.42632585764 -0.64489257336 -0.63375419378
0.011807233095 0.8740196228 -0.48309743404
0.12639933825 0.9284440279 -0.34933030605
0.28397402167 0.83721321821 -0.46735289693
0.29819443822 0.93215405941 -0.20252542198
-0.96698468924 -0.18657040596 -0.17342855036
-0.98994106054 -0.021102059633 -0.13847620785
-0.9990350008 -0.03592498228 -0.018338276073
-0.9926045537 0.10115084052 -0.065690368414
-0.87060302496 0.49045830965 -0.0048041697592
-0.067448608577 0.94637095928 -0.31285780668
-0.067990429699 0.87419682741 0.48067739606
0.10305974633 0.92445772886 0.3669218719
-0.076678231359 0.95552402735 0.28454646468
0.070856384933 0.98136806488 0.17858208716
0.26004493237 0.94354099035 0.20333103836
0.047853581607 0.51589035988 0.85525935888
-0.11235911399 0.61694651842 0.77871572971
-0.15697781742 0.43044015765 0.88883394003
0.14698840678 0.35617637634 0.9227643609
-0.019069069996 0.32128685713 0.94677305222
0.3044680655 0.4446438849 0.84236824512
-0.17893825471 0.23548300564 0.9552462697
-0.32508575916 0.30656656623 0.89454084635
0.5174869895 0.40987202525 0.75098198652
0.41059857607 0.56752991676 0.71366810799
0.56249475479 0.5378112793 0.62775701284
0.45918211341 0.68694716692 0.56257075071
-0.45827999711 -0.73297446966 -0.5022778511
-0.30177351832 -0.7673381567 -0.56566184759
0.21899656951 0.60557687283 0.76506972313
0.041194509715 0.68178021908 0.73034417629
0.17207154632 0.73345434666 0.65743625164
0.31628233194 0.69659733772 0.64401382208
0.24367620051 0.82959091663 0.50120830536
0.070083476603 0.82113021612 0.56635612249
0.11279324442 0.20943662524 0.97125023603
0.27453768253 0.25255194306 0.92743468285
0.82275927067 0.15713182092 0.54619139433
0.92687654495 0.095549613237 0.36274829507
0.85492062569 -0.028513630852 0.51782363653
0.72520267963 0.0048404159024 0.68848693371
0.67420184612 0.16401085258 0.71987050772
0.5509570837 0.030297694728 0.8336185813
-0.31741845608 0.13621024787 0.93845278025
-0.18116414547 0.015317312442 0.98331081867
-0.48042064905 0.13393905759 0.86669558287
-0.3839327395 -0.0075643989258 0.9232634902
-0.53707194328 -0.072399325669 0.84038496017
0.02601467818 -0.014565194026 0.99924051762
-0.041669137776 0.14595805109 0.98842138052
-0.3236861527 -0.69512206316 0.64192050695
-0.45477759838 -0.59977763891 0.65835422277
-0.78438740969 -0.57658606768 -0.2278097868
-0.69550400972 -0.68734967709 -0.20928198099
-0.74456548691 -0.6624750495 -0.081789948046
-0.64373415709 0.026415992528 0.76467317343
-0.47624570131 0.35307478905 0.80528926849
-0.59473347664 0.22221523523 0.77252572775
-0.60670679808 0.3770070374 0.69983273745
-0.70240545273 0.137613222 0.69828760624
-0.70108032227 0.26303610206 0.66277873516
-0.59596896172 -0.33232977986 0.73101788759
-0.49617633224 -0.26054599881 0.82814657688
-0.64461815357 -0.17862789333 0.74181675911
-0.35746136308 -0.37909722328 0.85343444347
-0.47853335738 -0.45436754823 0.75127071142
-0.5300950408 -0.83765470982 0.13122132421
-0.62070554495 -0.78039252758 -0.073780611157
-0.69241684675 -0.71880716085 0.061784423888
-0.35759392381 -0.92864894867 0.098395571113
-0.78676104546 0.28079003096 0.54953098297
0.53920298815 0.21422423422 0.81446939707
0.43347978592 0.14781311154 0.88824379444
0.41968083382 0.30237925053 0.85578429699
-0.58930695057 -0.55452412367 0.58758890629
-0.23597115278 -0.58554440737 0.775390625
-0.35722562671 -0.58351653814 0.72926670313
-0.32629984617 -0.49740317464 0.80365848541
-0.82420533895 -0.55777513981 -0.097717799246
-0.87330830097 -0.4618127346 -0.15442712605
-0.88052147627 -0.47288998961 -0.031700152904
-0.80916118622 -0.5858733654 0.043074022979
-0.90649312735 -0.41047900915 0.098694331944
-0.2333945334 -0.45561259985 0.85896265507
-0.77498286963 -0.055041592568 0.62957090139
-0.78125411272 0.050072707236 0.62191385031
-0.79240578413 0.15075334907 0.5903955698
-0.84319543839 -0.28134816885 0.45733124018
-0.92064124346 -0.19784602523 0.33638861775
-0.88809585571 -0.36895632744 0.27398973703
-0.9512988925 -0.24753980339 0.18346753716
-0.70108896494 -0.57019346952 0.42819711566
-0.71165800095 -0.46922343969 0.52214753628
-0.79894542694 -0.47409832478 0.36947125196
-0.59392476082 -0.66079217196 0.4588739872
-0.66058129072 -0.67535018921 0.32789009809
0.19843330979 -0.96155720949 -0.1896482259
0.18852803111 -0.93113702536 -0.31187447906
0.014037341811 -0.9778419733 -0.20864659548
-0.98549747467 -0.16373477876 -0.045802671462
-0.9895607233 -0.11360792071 0.088554479182
-0.96469134092 -0.2588891089 0.048403717577
-0.9413138032 -0.33278867602 -0.056365855038
-0.83298009634 -0.51901197433 0.19108177722
-0.75609487295 -0.58826851845 0.28594923019
-0.63471490145 -0.74361938238 0.21009682119
-0.62462830544 -0.43027570844 0.65165281296
-0.69567787647 -0.34104368091 0.63207495213
-0.74104213715 -0.64943361282 0.17019928992
-0.36646211147 0.81022727489 0.45734775066
-0.23509241641 0.79228651524 0.56307452917
-0.086244769394 0.76341325045 0.64012753963
-0.23776833713 0.68603402376 0.68758559227
0.91900879145 0.34541302919 0.1900639832
0.26248002052 -0.78074675798 -0.56697654724
0.43241620064 -0.71926891804 -0.54336589575
0.2000939101 -0.69601690769 -0.6894724369
0.091093309224 -0.78714460135 -0.60995173454
0.12904213369 -0.85537689924 -0.5016592145
0.2341798991 -0.87620222569 -0.42100822926
-0.027415432036 -0.8781915307 -0.4774517417
0.96042782068 -0.051148150116 0.27359265089
0.95614385605 0.19525626302 0.21823745966
[...]
CELL_DATA 1326
SCALARS cell_data_0 double
LOOKUP_TABLE default
7.53963342426e-09
2.0381281587e-08
1.15832554261e-08
4.82597583844e-08
1.05339985758e-09
1.16931871405e-09
4.55270154737e-09
7.68841678308e-09
1.3877932607e-08
4.13177609568e-08
4.03135949648e-09
5.28702729467e-09
1.4092673088e-08
4.94417646172e-09
2.58543581396e-08
1.62236698084e-09
1.71110627489e-09
5.29026714032e-09
3.93827638484e-09
1.54555036769e-08
9.20481284985e-09
8.59808845809e-09
4.36259269913e-10
3.06672857668e-09
1.37317549884e-08
7.79910197146e-09
2.61233339758e-08
5.08774267597e-09
4.06677960228e-09
8.68849003137e-09
4.17046937015e-08
8.55666743177e-09
1.74657352899e-09
7.38531444567e-09
5.71558054849e-10
3.61296587512e-09
1.29215373319e-08
8.3449367471e-10
4.62631887072e-09
1.96167227409e-08
4.19644848837e-09
8.05536636777e-11
3.55026880439e-10
7.1991826781e-09
1.44742169503e-09
1.76963768907e-08
1.03561160555e-08
1.5594712579e-08
6.62041232518e-09
1.68003425794e-08
1.32411098013e-08
6.14811851624e-09
1.61385442557e-08
1.81585221807e-08
4.06307532629e-09
9.59558945399e-09
1.56662963257e-08
1.19884591511e-08
1.35981825125e-09
3.52185093106e-09
1.72195241501e-10
2.57909172953e-09
1.0936722142e-09
2.24995870976e-08
5.85984468565e-09
5.99174637082e-09
1.65800390988e-08
8.84823891194e-09
8.49102036995e-09
1.09221708173e-08
2.58529026904e-09
1.11494256272e-09
1.60635928535e-08
1.28194189933e-08
1.18260102132e-08
4.55862455331e-10
9.34352238403e-09
3.20386650283e-08
1.02901871115e-08
2.60477065697e-09
8.87142576373e-10
5.21420014097e-09
1.66924713676e-08
1.61118903407e-08
1.98729911645e-08
1.21249726171e-09
1.02546624633e-08
5.13009771743e-09
1.4153718291e-08
8.30899111962e-10
4.17919422911e-10
1.42985842723e-08
1.2702959808e-08
1.0391179477e-08
2.71188449383e-09
2.95877635363e-09
1.39323808029e-08
1.82163229005e-08
1.82788899607e-09
4.02459023238e-09
1.69738552405e-08
9.8667123459e-10
1.73962884718e-09
1.13909394732e-08
1.39945341705e-08
1.27418905291e-08
1.41776012613e-08
3.74313284192e-09
1.13667016502e-08
4.68643180385e-09
3.81152746516e-09
3.59188372455e-09
3.66783104638e-09
1.99945724947e-08
1.21841878437e-08
7.41877613526e-09
2.10126652024e-08
1.48120687884e-08
1.07490268048e-09
7.63255756799e-09
2.10899988215e-09
7.62237620934e-09
7.254509333e-09
3.82133957242e-09
7.60385130701e-10
1.3916949894e-08
6.31677199392e-09
4.7818244461e-09
2.89951047882e-10
2.86650158673e-09
2.87490972824e-09
8.72364258711e-09
1.23314440035e-08
4.46677284128e-09
2.89844550503e-09
6.54787661854e-09
8.37713477686e-09
3.35263742247e-09
9.56224058511e-09
6.80856143703e-09
2.12729170602e-09
1.67877240003e-08
1.35455632124e-08
1.6360219421e-09
2.1327828009e-08
1.46263890824e-08
4.23641400235e-09
5.83927634451e-09
1.57278102295e-08
1.14137063307e-09
2.41389580899e-09
5.64766497355e-09
6.40702021942e-09
2.8464218661e-09
4.44706801096e-09
1.04194733497e-08
1.57297166799e-09
6.84901480764e-09
1.02144453823e-08
2.2503116166e-09
6.15451516182e-09
9.17019705365e-09
3.23972000758e-09
3.9098295016e-09
1.39435022796e-09
8.93225273237e-09
2.32269135063e-09
3.66456721171e-09
1.17893333402e-08
2.84188105272e-09
6.36354369103e-09
5.29190742943e-10
2.0875748421e-10
1.55320626098e-09
4.34303649149e-09
6.73378170265e-09
6.14209293945e-09
1.14391860885e-08
1.41507813663e-08
1.0171046264e-08
3.58856225573e-09
2.79815750162e-09
6.06624542063e-09
8.14757360187e-09
5.09129003634e-09
8.23023177953e-10
7.54614903305e-09
1.39819796314e-08
3.21764015769e-09
3.09091842091e-09
5.53814768139e-09
3.68411171054e-09
6.66171649677e-09
5.12002398775e-09
7.57439046658e-09
1.24313054026e-08
1.20999695853e-08
6.66100587002e-09
1.05229974127e-08
6.32670931619e-09
2.45278134517e-09
1.05759468427e-09
7.74738606522e-09
5.0193706082e-10
3.86481930643e-09
5.62698656006e-10
1.29256998617e-09
8.17502468139e-09
2.50664302308e-09
6.70581550016e-09
2.28355064448e-10
5.46886403875e-09
1.16105436553e-09
1.2017201552e-09
1.58522286449e-08
4.2109410116e-09
2.50366508843e-09
6.36845966086e-09
8.96140936504e-09
6.51677647471e-09
5.86732277437e-09
3.95009099333e-10
2.87811943195e-09
4.61957607408e-09
8.92530591003e-09
7.97028754358e-09
3.42574182592e-09
1.2493201617e-09
4.52203896034e-09
6.96885430339e-09
3.03521447446e-09
6.26464531085e-10
3.41298565674e-09
8.8138518979e-09
2.97229584438e-09
6.53199351937e-09
7.88694179977e-09
9.94029150622e-09
1.43194927367e-08
1.17963144764e-08
8.45389986225e-09
5.17513676524e-09
1.00189153004e-09
1.28566810426e-08
1.28536260735e-08
5.40927991256e-09
4.75012591943e-09
6.74416543263e-09
1.5673843583e-09
6.80062955659e-09
4.82847998745e-09
6.49982361225e-09
1.3408272616e-08
2.56627154496e-09
4.51181435568e-09
3.86614989139e-09
7.19786761427e-09
1.14071366413e-09
1.17248139889e-08
8.17789382385e-09
4.51551031355e-09
1.22557162289e-08
2.13643677817e-08
9.23549790969e-09
3.96756220285e-09
3.36022794828e-10
1.10106780777e-08
2.63344409271e-09
1.05170501773e-08
1.13090643893e-08
2.66691198613e-09
1.00552448005e-08
1.68836207705e-08
4.06623285539e-09
7.9007163062e-09
7.49910824949e-09
8.62458855471e-09
7.17400818789e-10
2.19494743509e-09
3.66737642339e-09
4.32417521135e-09
1.30088622398e-08
1.4934925972e-08
6.27939029722e-09
9.9966926655e-09
6.91624690417e-09
1.30280523906e-08
4.10921213113e-09
6.27082118256e-09
4.08197922985e-09
1.17885413529e-08
1.03911124531e-09
1.55827521835e-08
5.67244947923e-09
1.08122810721e-09
3.15900402479e-09
3.27318143067e-09
6.40552089698e-09
4.64587321937e-09
4.43292200933e-09
3.87431441748e-09
3.56428888126e-09
8.52714788647e-09
3.23773527988e-09
1.32640112288e-08
3.65177470635e-09
1.39729561522e-09
3.3508248325e-09
1.36845529569e-08
5.94776630483e-09
2.08164091532e-09
9.48209171574e-10
5.71372176367e-09
7.14909116927e-10
5.18043046155e-09
1.43862857159e-08
5.10273792466e-09
4.84247223165e-10
1.58647192822e-09
1.52203797544e-08
1.59140357821e-08
5.8860829492e-09
1.71214401723e-11
3.86901834039e-09
2.52803435117e-09
4.94294110663e-09
1.2937757182e-09
1.6714048207e-08
6.91951856937e-09
7.43194273202e-09
1.64566998151e-09
1.29364843922e-08
1.08035086902e-08
8.84500765616e-10
3.57374450783e-09
4.35191224374e-09
6.22211152166e-10
1.20398409629e-08
1.99473195634e-09
1.5110425965e-08
3.29984070514e-09
1.60292625686e-10
1.6449602272e-09
3.20513405042e-09
1.12985143187e-09
1.90605231468e-09
8.14585273299e-09
1.06263220764e-10
4.11130048037e-09
1.44368994251e-09
7.14488043255e-09
7.29202846381e-09
7.83695505571e-09
6.70071237943e-09
2.01289273919e-09
2.87325520872e-09
3.99589950934e-09
8.64673169591e-10
3.68439657477e-09
1.80277185234e-09
3.91531114732e-09
7.7189921032e-10
5.18017808347e-09
3.69041578077e-09
6.79691472331e-09
1.53264399363e-09
6.91552957992e-09
1.45333024813e-08
2.07130487581e-09
1.34107563936e-09
1.25102312385e-08
2.30611017944e-09
5.73487775736e-09
1.00601605579e-08
4.73754322416e-09
2.41238452647e-10
1.65369051641e-09
1.45683238944e-09
5.2649226743e-09
1.12374217966e-08
1.97425467858e-09
3.2196877019e-09
1.03756675097e-09
7.7977486292e-10
5.92872517878e-11
2.97789925517e-11
8.87351212667e-09
5.13716678515e-09
4.97829424731e-09
7.95707113376e-09
2.78858852272e-09
1.9598425534e-09
1.04094759676e-08
6.9685445485e-09
8.78050236039e-10
6.86199584594e-09
4.45343580713e-09
1.02248942505e-08
1.03003855793e-08
1.35083396177e-08
4.76294863371e-09
1.31970653755e-09
6.44185543321e-10
3.05058681366e-09
5.25595727178e-09
1.3138733901e-09
7.07554115043e-09
3.37608158546e-09
8.14828831148e-09
9.41610971e-09
5.53186480711e-09
4.07455407876e-09
9.42911070627e-09
4.83300054389e-09
6.88274057307e-09
1.69777164169e-09
4.91836426959e-09
5.52388466813e-09
9.5376750462e-09
9.35080050475e-09
1.22979289063e-09
2.5129075227e-09
3.35444095977e-09
2.36263233438e-09
1.67446798383e-09
1.44169139549e-08
1.56861446546e-09
7.10976641769e-09
6.90621414336e-09
5.93887858792e-09
2.0942155451e-10
6.93824742227e-11
1.04797627874e-08
5.72717174821e-09
3.51624926997e-09
7.67428559928e-10
4.99599975129e-09
2.71871091966e-09
5.39770200968e-10
1.58882478678e-08
5.9397972906e-09
5.75323021624e-09
3.52101742751e-09
5.30248770299e-09
1.80350796447e-09
4.77119643439e-09
1.61153160241e-08
2.05250693815e-09
7.21554007739e-09
3.9517366268e-09
5.83223204681e-09
7.05085253039e-09
2.67359201403e-09
1.0190042503e-08
3.55775254733e-09
8.38583803124e-10
9.75861175498e-09
1.35021485056e-08
1.33667273465e-08
1.39564097282e-08
3.01330332492e-10
1.93332606604e-09
1.20865480268e-08
1.57245215015e-08
2.0517677131e-08
7.52309204516e-09
6.24212985067e-09
2.13048996362e-09
4.61634477615e-09
1.66421917978e-08
9.99255713131e-09
5.71343681851e-09
2.52137074425e-09
5.88490080487e-09
2.50638671747e-09
1.94444800496e-09
1.22565612764e-08
2.84689396939e-09
5.28523430953e-09
4.34533455729e-09
3.96677481983e-09
8.9518686662e-09
9.86665875499e-09
9.77839289046e-09
6.79849375738e-09
6.61522911733e-09
9.4779892481e-09
1.77390638935e-10
1.31265232201e-10
1.34874500657e-08
1.10839018532e-08
4.49146264322e-09
3.60343737407e-09
4.17807260695e-09
7.11503599609e-09
7.5536257847e-09
2.3747020303e-09
1.05180822897e-08
8.79456463917e-09
1.41710607197e-08
8.59502805506e-09
1.960795958e-09
6.11505463723e-10
7.43407187338e-09
3.01487802105e-09
1.57804059599e-09
5.9558692224e-10
1.8255669751e-09
9.08810884845e-09
6.58063846011e-09
7.84564729853e-09
4.16309931188e-09
9.04416114344e-09
1.96805735832e-09
1.13353969886e-08
2.12163324218e-09
8.39177902917e-09
6.76681386058e-09
2.34342657332e-09
9.06885155073e-10
2.1983550165e-09
1.43622544926e-09
3.50435941802e-09
5.72326430608e-09
1.07942837848e-08
3.5810995754e-09
7.98066413488e-10
6.15649869927e-09
6.00515137997e-09
6.5596471589e-10
1.78437075967e-10
4.00022280508e-09
1.54941720794e-09
2.06932584234e-09
5.45246823814e-09
7.61800539138e-09
8.44263967068e-10
2.8010293158e-09
1.56080897832e-09
1.08077754288e-08
9.2083240675e-09
7.97281112424e-10
7.31665806124e-10
9.39741362741e-09
6.77581036565e-10
4.26047818192e-10
6.02905328886e-09
1.1124449859e-08
5.11601648517e-09
1.23103125599e-08
9.21989750038e-09
9.08958087868e-09
3.46105669057e-09
4.85589878953e-09
3.89970887298e-10
5.73886277265e-10
1.28922032949e-08
1.9481077464e-08
9.48853495269e-09
2.55973906282e-09
2.08221538935e-09
4.70942130287e-11
5.35846907485e-09
1.3046861516e-09
2.06853282825e-09
7.70921010719e-10
8.21443843365e-10
1.55716494819e-08
1.97679186133e-09
1.05717763054e-09
4.1605346645e-09
4.98398866263e-09
8.88584448223e-10
7.0654915631e-10
7.35837906305e-09
1.1317289955e-08
6.90752325924e-09
9.50441679705e-10
7.66102552339e-10
1.32249091165e-09
2.39880514131e-09
8.27616507599e-09
1.52011864446e-08
8.71242493333e-09
7.40290212051e-09
9.93401828273e-09
1.09201512119e-08
7.0256936335e-09
3.98822397582e-09
1.12039727357e-08
1.9866467781e-09
1.05568884782e-08
1.16732430671e-09
4.30537888089e-09
5.3933936233e-09
5.81121435269e-09
5.13097973668e-10
4.90720875054e-10
3.55542385035e-09
5.83162542983e-10
4.60742439298e-09
7.76337351892e-09
1.93557274918e-09
2.43633808218e-09
6.76496352244e-09
1.56328157266e-08
1.32266627457e-08
1.46858830757e-09
7.06437988043e-11
2.16710475714e-09
5.21868264343e-09
5.80536620532e-09
1.58647068545e-09
2.08779753072e-09
4.39892254484e-10
9.54738917848e-10
3.1813803811e-10
3.78522177504e-09
5.52903577321e-09
8.00384650856e-10
3.84192744069e-09
1.78931698354e-09
1.35267949174e-09
8.81314002906e-10
1.54129950561e-09
8.25578943726e-09
5.61383558255e-09
1.696846029e-08
2.03916282073e-09
2.3059485362e-09
5.08850261796e-09
3.50822343112e-10
8.28575326041e-09
7.11599912762e-09
5.15103682965e-09
2.26463613878e-09
1.22149757517e-08
3.69884516787e-09
2.50162000988e-10
7.82854375477e-10
7.84051185651e-09
2.97762834391e-09
2.02612743493e-09
2.08210662239e-09
7.08950392663e-10
1.40433030048e-09
7.39767658933e-09
1.14672503313e-09
1.83494860029e-09
1.34076365181e-08
6.16151985605e-10
2.48147763658e-09
7.21859888322e-09
4.34217869647e-09
8.84947036483e-10
5.00137011363e-09
1.0781906058e-09
2.66639208255e-11
2.47642179353e-09
9.15935270988e-09
3.49535690594e-09
5.60899557893e-09
8.97112184598e-10
2.20544929336e-09
3.22196581888e-09
2.33722179077e-10
2.50428093681e-09
3.58326486222e-11
4.39859415571e-10
7.58164956847e-11
1.41839469932e-09
3.17508723765e-09
2.85952969846e-09
4.98649099398e-10
8.71513874107e-09
7.25276353817e-09
1.46922753624e-08
1.46130718528e-09
9.34947836002e-10
5.51710831683e-10
6.58223861846e-10
3.32898386346e-09
2.32956113035e-09
5.43215373563e-09
4.47570034878e-09
5.87840841113e-09
3.74936558099e-09
2.80278783971e-09
1.9396481406e-09
5.50660604939e-09
6.91684403848e-09
1.64651370229e-09
1.7352804775e-09
6.50993175034e-09
2.85290048331e-09
2.07053492749e-09
1.48169272097e-08
2.00260223868e-09
4.44705752782e-09
8.77044366384e-09
3.17165285942e-10
3.07681466576e-09
3.12222004964e-09
6.10256505344e-10
1.39317984291e-08
1.97432538014e-08
1.05782707167e-09
3.58880591193e-11
3.97981342516e-09
9.10393623677e-09
2.10988715267e-09
1.82171894568e-09
5.47557205255e-10
1.26427147818e-08
6.69102900393e-09
8.49915696543e-09
3.92400637323e-10
4.76293225046e-09
3.6787431594e-09
1.64555863076e-09
3.67949923239e-09
3.65006313269e-09
4.93645260063e-09
2.09696748564e-08
2.88996465038e-09
1.02431566257e-09
8.20658760469e-10
5.74382828944e-09
1.0765436142e-08
6.68515200363e-09
7.19570959375e-09
4.9615581555e-10
3.25336420667e-09
2.32713530716e-09
3.1529915965e-10
5.46844345851e-09
7.95340361357e-09
4.98322747572e-09
4.6400548004e-09
8.60231533771e-09
6.70242811057e-09
2.40259366651e-09
2.37839716154e-09
8.47629343657e-09
4.63371085203e-09
6.96633830227e-10
1.56532081143e-09
8.00464742972e-09
4.65245336447e-09
1.11027203117e-10
3.48696540045e-09
4.80556042459e-10
5.76620007628e-09
2.29561575336e-10
1.07801703329e-09
5.22060323215e-09
1.28617804288e-08
1.7198754407e-09
4.73654296795e-09
6.05885750749e-09
6.64143183062e-09
4.95165990352e-10
1.44747829215e-08
2.50706799707e-09
2.80398699535e-09
2.89421966083e-09
2.28131265512e-09
7.45518035371e-09
1.69127431846e-08
5.55649672448e-09
6.64480955655e-09
1.12066068133e-09
2.87707138435e-09
6.03021759046e-09
5.36851408196e-10
3.82731060611e-09
5.34277285003e-09
1.14246466544e-08
1.66606915445e-09
3.65340159971e-09
6.66764289462e-10
2.70121969469e-09
3.6643196694e-09
4.77984576189e-09
7.12054591483e-09
2.14638443263e-09
2.17506892396e-09
2.88174989048e-09
5.27192871042e-09
1.86904570813e-09
2.24798003214e-09
3.34761720537e-10
2.66936901396e-09
3.38933844003e-09
3.18626687271e-09
1.54563439734e-09
2.91627675062e-09
2.51052480686e-10
2.88395845147e-10
8.5010983367e-10
1.12697472061e-09
1.78776322959e-09
2.58392810294e-09
1.59061830604e-09
2.97330346265e-09
9.26288003334e-09
9.34778984732e-10
2.34724954566e-10
1.57223508372e-08
1.14681952536e-08
4.56168376326e-09
2.05462159101e-09
7.80329873572e-10
8.20774541004e-10
5.12579138017e-09
3.9176773366e-10
1.37478140973e-09
4.29140838313e-10
2.34227001381e-09
2.85069089796e-09
2.6086067696e-09
1.75696744781e-09
1.16533164383e-09
4.52364105556e-09
2.46122830361e-09
1.43026492828e-09
1.34032392322e-09
1.24714892205e-09
7.40153276801e-10
3.64313869731e-10
1.06871621363e-09
1.05169068908e-09
1.37758216421e-09
2.15416919175e-09
1.41573289348e-09
1.9456449722e-09
1.89175310577e-09
1.48184435083e-09
2.73237090092e-09
1.01734972182e-10
2.59297961463e-09
8.45335310028e-09
1.80471812899e-08
2.63864955522e-09
5.14394760711e-09
1.06008514167e-09
5.39719061483e-09
8.51003367093e-09
4.63579417954e-09
1.60431100136e-08
2.75358907383e-09
8.52867944643e-10
3.39453203682e-09
4.40313158136e-09
6.26784685923e-09
1.06147842597e-08
2.26889032498e-09
3.10061408711e-09
2.63158037719e-09
5.62940467759e-09
1.61295205222e-08
2.51206151899e-09
8.54787926786e-10
2.15806155722e-09
3.48587509449e-09
2.85596023287e-09
2.78400774741e-09
6.26828589441e-11
1.18335515215e-09
3.64505261175e-09
1.08773183846e-08
3.66963496467e-09
3.4174874651e-09
3.95077792378e-09
1.86398936681e-10
3.67319540821e-09
4.77032059493e-09
6.37138264517e-09
3.89692669211e-10
3.18015300538e-09
1.98398691172e-09
1.04921633593e-08
2.38388005734e-09
8.15736215302e-09
1.54048214047e-09
2.1407551446e-08
2.76680725621e-09
2.67507601175e-09
4.15704829837e-09
5.73404183855e-09
5.95682480831e-09
2.6623136e-09
1.05796904452e-08
2.12178026805e-09
5.25087822056e-10
2.76625139408e-09
4.06812451011e-09
4.68821683272e-09
9.65633079974e-09
1.44457279834e-09
6.87435049715e-09
1.00983343706e-08
7.63994455004e-10
4.44863836991e-09
3.11251235236e-08
9.13063921775e-09
5.5765807639e-09
1.45205886847e-08
5.92436866068e-10
8.6850132618e-10
1.02465033313e-08
4.70027634969e-09
3.88954263154e-09
3.95880533759e-09
2.27114407688e-09
2.00157271507e-09
2.89586775595e-09
3.512911678e-09
2.60187038326e-09
3.75771143605e-09
9.66825300077e-10
8.41329685193e-09
5.73528339626e-09
5.82548320146e-09
6.36182582276e-09
4.76875989875e-09
4.86154025006e-09
3.59985624195e-09
1.70609346079e-08
1.95218968222e-09
9.66172928124e-09
6.58798566491e-09
1.01573047101e-09
7.54253018841e-09
1.76787651134e-09
1.60973222768e-08
1.36361780633e-09
1.89142011684e-09
5.20747769685e-09
4.26951920065e-09
5.54861231688e-09
2.26172500481e-09
1.43076741752e-09
6.51974253581e-09
3.82936614178e-09
7.78329911159e-10
2.24658864923e-09
1.20573618124e-09
6.18250541633e-09
7.88207227847e-09
1.12454911724e-08
8.5551103827e-09
7.60044060646e-09
3.3557388432e-09
7.58390333024e-09
2.49319894251e-09
1.83336292182e-10
4.83151656865e-09
1.5739600966e-09
6.64492174232e-09
1.03378508277e-10
5.45600110613e-09
1.83234298039e-09
1.015381248e-08
4.69285459764e-09
1.10897768482e-08
3.45866428543e-09
7.53868422105e-09
1.01820371608e-08
1.86887332838e-09
1.21021945947e-09
1.02424506556e-09
2.86637442214e-09
4.2813250855e-09
3.11524222447e-10
8.18332393067e-09
1.37309897017e-09
8.46960835244e-09
8.90956973656e-09
1.61943227008e-09
3.98216779611e-09
3.20997816206e-09
4.84942101972e-09
8.01175016459e-09
1.04616904428e-08
7.18837536113e-10
1.92967003025e-09
8.72431951716e-10
2.62192381472e-09
1.24227163219e-09
1.33982384746e-08
3.57722444409e-09
3.50186774778e-09
6.28780887792e-09
7.1924006287e-09
1.04936323328e-09
1.52021131231e-09
1.36891856224e-08
1.21292329931e-10
5.07324072243e-10
7.22768916903e-09
1.52956614725e-09
4.54080045418e-10
1.27314410602e-08
6.32356297701e-10
5.80310695677e-09
2.54400437043e-09
2.38514402076e-09
4.06434497178e-09
1.77385283334e-09
1.83436882084e-09
2.40146375552e-09
2.6684739851e-09
4.85887021551e-09
1.972185817e-09
7.39258927579e-11
4.37996169913e-09
2.14313472874e-09
9.15584518344e-10
1.20464596639e-08
2.66483379581e-09
3.15206611148e-09
1.56217601335e-09
2.9577979984e-09
5.83320133073e-09
2.02742217787e-09
6.21124297108e-10
1.7181397281e-09
7.22078567336e-10
5.26937436134e-09
1.02796299187e-08
3.5469808229e-09
1.27859571945e-08
1.22369439371e-08
5.52155719574e-09
4.14781771254e-09
2.51234250688e-09
7.32673372767e-10
2.68652330779e-09
9.54138696017e-09
1.33000491117e-08
1.61693989127e-09
2.2571151771e-09
5.59906337246e-09
2.64549347339e-09
7.99118761759e-09
8.62025172508e-10
3.91551330987e-09
1.35661105063e-09
2.09112929927e-09
3.73186766221e-09
2.25353610761e-09
1.16823045714e-10
5.06160772528e-10
6.03123483113e-09
1.0898950133e-08
2.23357733616e-10
2.6797358319e-09
1.24145227486e-09
8.57728054325e-10
3.4770951965e-09
8.05751095957e-09
7.39912566127e-10
2.68798286919e-09
1.18439210787e-09
1.89855897074e-09
1.54505260394e-09
9.42924507428e-10
1.70208250613e-09
5.26198686525e-09
6.89150673595e-09
1.18082005745e-10
5.90098122856e-10
8.22039606016e-09
3.76487633605e-09
4.69820434924e-10
1.10480152511e-09
6.70335171716e-11
7.68809698758e-11
5.07166565035e-10
3.93399204301e-09
5.60202427122e-10
1.4433964664e-08
4.21948117817e-09
2.88076554485e-08
4.9835417373e-09
1.60985026809e-08
9.82966965057e-09
5.65539851002e-09
1.7311970207e-08
2.81364259647e-08
5.71126244995e-09
1.61138553723e-08
7.98977171271e-09
8.6404178455e-09
1.46529446526e-08
6.82916293268e-09
1.84124972996e-10
1.03694306375e-08
1.1739133224e-08
6.84182183677e-09
4.57511733165e-09
1.12327544787e-08
2.26150597435e-10
1.80639641666e-09
9.89013940724e-09
8.46148302415e-09
4.78612937348e-11
2.93425769156e-09
4.56725004479e-09
4.6730109798e-09
2.64599823943e-09
1.6835586442e-08
3.69854896442e-09