# vtk DataFile Version 3.0
File Name: Molecule/sphere_cent/sphere_cent_0-s29.vtk
ASCII
DATASET UNSTRUCTURED_GRID
FIELD FieldData 1
TIME 1 1 double
0.0
POINTS 2700 double
0.43047371507 0.60700523853 0.6678647995
0.51794189215 0.57261770964 0.63538968563
0.45798206329 0.66919904947 0.58517676592
0.34929201007 0.68943798542 0.63453167677
-0.58713597059 -0.15914383531 0.79339069128
-0.51384305954 -0.20332179964 0.83338469267
-0.52576249838 -0.097136847675 0.84503340721
0.51697576046 0.24483504891 0.81998842955
0.42890658975 0.26899680495 0.86237150431
0.45243704319 0.17466437817 0.8745123148
-0.6951046586 0.38626793027 0.60623025894
-0.70547837019 0.30141746998 0.64142215252
-0.64861929417 0.35425522923 0.67352700233
-0.64468854666 -0.53897619247 0.5419190526
-0.64084768295 -0.45079728961 0.62136155367
-0.69236606359 -0.47734704614 0.5410643816
-0.72768944502 -0.65679979324 0.1977005899
-0.76799184084 -0.57880318165 0.27413353324
-0.78833943605 -0.58911460638 0.17717152834
-0.65587043762 -0.73235565424 0.18271371722
-0.66288518906 -0.69634389877 0.27501431108
-0.70679092407 -0.70351666212 0.074219405651
0.96530681849 0.21122340858 0.15325768292
0.98445814848 0.14468739927 0.098403699696
0.9707993269 0.23247231543 0.05656902492
-0.43076169491 -0.14656411111 0.89047580957
-0.43694189191 -0.041874110699 0.89849054813
-0.37283977866 -0.084870688617 0.92399394512
-0.32164815068 -0.15579378605 0.93392962217
-0.35851305723 -0.23342108727 0.90386110544
0.32382899523 -0.90755212307 -0.26668006182
0.23725838959 -0.92341542244 -0.30146616697
0.33551651239 -0.87206578255 -0.35626411438
0.35723882914 -0.82509487867 -0.43757835031
0.27149274945 -0.85119193792 -0.44914880395
0.32955819368 -0.79656356573 -0.50665313005
-0.14055392146 -0.88783806562 0.43810787797
-0.22116243839 -0.9044932723 0.36464461684
-0.12839324772 -0.93287152052 0.33635732532
0.82448446751 0.42902964354 -0.36901444197
0.81724482775 0.49523687363 -0.29346695542
0.87571030855 0.39716494083 -0.27340310812
0.16527628899 -0.77775943279 0.60633862019
0.098108112812 -0.83418148756 0.54222339392
0.21708936989 -0.80452144146 0.55275958776
0.97050923109 -0.23755279183 -0.041424974799
0.98952639103 -0.14250935614 -0.011684967205
0.97301536798 -0.22411580384 0.054433859885
0.98568719625 -0.13828721642 -0.095614686608
0.9887227416 -0.054528467357 -0.13904342055
0.9961925745 -0.070861339569 -0.049234725535
0.95499962568 0.05492869392 -0.29121643305
0.95154994726 0.14336624742 -0.27191567421
0.97698640823 0.056919146329 -0.20508810878
0.92221915722 0.2422093451 -0.3006760478
0.95851516724 0.21284538507 -0.1887704581
0.93564170599 0.3084025681 -0.16990625858
0.95943814516 0.26865261793 -0.082675926387
-0.32981032133 -0.47555926442 0.81552267075
-0.25104227662 -0.42905673385 0.86768120527
-0.34499406815 -0.3947262764 0.85156083107
0.7197291255 0.66970425844 0.18190801144
0.71401435137 0.6428822875 0.27715653181
0.76848948002 0.59847861528 0.22618120909
0.34055274725 -0.29337412119 -0.8932967186
0.38762274384 -0.36923456192 -0.84453982115
0.30257230997 -0.39480301738 -0.86738872528
0.44949197769 -0.27282109857 -0.85021865368
-0.81824588776 -0.38856175542 -0.42363089323
-0.85243302584 -0.39662393928 -0.34057557583
-0.87275493145 -0.30479416251 -0.38129213452
-0.93127036095 -0.31095311046 -0.18974725902
-0.90665012598 -0.30635085702 -0.29000109434
-0.88689827919 -0.38442319632 -0.25566142797
-0.94469028711 -0.21835151315 -0.24474671483
-0.91209745407 -0.22617954016 -0.34126016498
0.51046168804 -0.85578620434 -0.081090904772
0.55571717024 -0.83083027601 0.029627345502
0.47145566344 -0.88184088469 0.0078899795189
0.82473599911 0.15047127008 -0.5445727706
0.83584564924 0.22901670635 -0.4989015162
0.87601357698 0.13963507116 -0.46161934733
-0.14482937753 -0.41321048141 0.8990445137
-0.21063423157 -0.34919792414 0.9130281806
-0.093797683716 -0.31979617476 0.9428191185
-0.09263009578 -0.50434792042 0.85848706961
-0.055088769644 -0.4309232235 0.90062600374
0.00040166359395 -0.49133422971 0.87089425325
0.83366334438 -0.40576934814 -0.37462103367
0.86964905262 -0.32948571444 -0.36755019426
0.87338370085 -0.38615107536 -0.29600688815
0.83076542616 -0.32799309492 -0.44965392351
0.77127361298 0.43438321352 -0.46506384015
0.80678677559 0.37528905272 -0.45623645186
0.88539528847 0.22703538835 -0.4055544436
0.8748793602 0.32505640388 -0.35883772373
0.052533540875 -0.98451071978 0.16680835187
0.057022504508 -0.9649849534 0.25604739785
-0.017628444359 -0.97251671553 0.23217633367
0.029353763908 -0.94695466757 0.31999975443
0.10946916044 -0.93640846014 0.33336910605
-0.65216100216 -0.09667211026 -0.75182598829
-0.61308223009 -0.16271404922 -0.772973001
-0.67832541466 -0.18022505939 -0.71231395006
0.66226488352 -0.12886883318 -0.73805737495
0.58181816339 -0.20789022744 -0.78598994017
0.58886551857 -0.078285932541 -0.80440223217
0.79607188702 -0.29855376482 -0.52643322945
0.74003708363 -0.28769806027 -0.60746747255
0.79490381479 -0.22771267593 -0.56234765053
0.72220146656 0.41017225385 -0.55693298578
0.77263885736 0.37014099956 -0.51572835445
0.72151911259 0.36219576001 -0.59004384279
0.57122528553 -0.44035279751 -0.69236624241
0.53917008638 -0.53301864862 -0.65203720331
0.49491414428 -0.4881632328 -0.71873956919
-0.31752339005 -0.81390184164 0.48613458872
-0.22419324517 -0.85166442394 0.47369271517
-0.25258913636 -0.8000151515 0.54420387745
-0.16238458455 -0.82480204105 0.54157614708
0.57963699102 -0.79152411222 0.19372242689
0.64337199926 -0.75746285915 0.11085481197
0.65191417933 -0.72582083941 0.21927320957
0.71832460165 -0.67625743151 0.16315892339
0.71399641037 -0.69800812006 0.054474335164
0.65566885471 0.71025311947 0.25585973263
-0.47193339467 -0.38700532913 -0.7919973731
-0.52286696434 -0.33325311542 -0.78449475765
-0.45339149237 -0.33941847086 -0.82414317131
-0.78267008066 -0.47733318806 -0.39948579669
-0.75885856152 -0.44721090794 -0.47261112928
-0.78450858593 -0.37295696139 -0.49542665482
-0.83386158943 -0.29804033041 -0.46451690793
-0.87265431881 -0.22074699402 -0.43483874202
0.56002116203 -0.8199236393 0.11865166575
0.49299484491 -0.86523908377 0.091284446418
0.51182591915 -0.84299468994 0.16547833383
0.75040364265 -0.19786845148 -0.63050174713
0.75608497858 0.32758772373 -0.56657153368
0.7937092185 0.2903072238 -0.53451961279
0.76440656185 0.25056487322 -0.5937153101
0.79704213142 0.20411966741 -0.56801640987
0.034661322832 -0.29251146317 0.95540267229
-0.035285644233 -0.21936877072 0.97500282526
-0.1344036907 -0.21529187262 0.967253685
0.06420584023 -0.17107953131 0.98280966282
-0.0076093263924 -0.12204425037 0.99243402481
0.12049499899 -0.082027830184 0.98911762238
0.038198400289 -0.031360827386 0.99877226353
0.084591597319 -0.12417221814 0.98820894957
0.73005920649 0.44739207625 -0.51627260447
0.63150197268 -0.77474910021 0.0043489336967
0.79378139973 -0.41177648306 -0.44757714868
0.86889499426 -0.26051816344 -0.42065081
0.83727288246 -0.2479660511 -0.48728233576
0.75434672832 -0.34212133288 -0.56016254425
0.78178197145 -0.36786988378 -0.50347667933
0.82081139088 0.31127893925 -0.47886499763
0.50112056732 0.39577949047 -0.76951026917
0.46132642031 0.4799066186 -0.74618160725
0.53739380836 0.44980821013 -0.71329629421
0.53597825766 -0.14024053514 0.83249586821
0.58038413525 -0.21208415926 0.78598606586
0.61682271957 -0.11936873943 0.77798753977
0.65726363659 -0.19187383354 0.72881507874
-0.59218758345 -0.72089546919 -0.36001884937
-0.60222506523 -0.74769294262 -0.27941024303
-0.65983253717 -0.67992973328 -0.31954276562
0.68427395821 -0.022538857535 -0.72886866331
0.75547081232 -0.078501954675 -0.65044730902
0.74636280537 0.03737809509 -0.66446524858
0.68298947811 0.094423539937 -0.72429406643
0.93609672785 -0.15465964377 0.31531944871
0.95213133097 -0.065412543714 0.29859980941
0.92657721043 -0.050282374024 0.37272030115
-0.44548436999 -0.62842869759 -0.63762813807
-0.456133008 -0.69766354561 -0.552300632
-0.52948367596 -0.63452672958 -0.56305539608
0.1525478512 -0.0068831043318 0.98821336031
0.092768810689 0.06700014323 0.99343025684
0.19099077582 0.098016597331 0.97666674852
0.25567191839 0.028930595145 0.96631962061
0.97065532207 -0.10147617012 0.21800269186
0.67789417505 0.73487740755 -0.010759557597
0.65778708458 0.74969667196 0.071701735258
0.72663903236 0.68531900644 0.036860380322
0.83862680197 0.53455352783 -0.10451421142
0.78461164236 0.61040782928 -0.10857168585
0.82028079033 0.57123178244 -0.027775766328
0.47707730532 0.84494793415 0.24098421633
0.39824709296 0.89866048098 0.18374165893
0.39400836825 0.88093841076 0.26186999679
0.4907450974 0.85884779692 0.14674986899
0.3097961545 0.92704004049 0.21106424928
0.32548344135 0.93888640404 0.11182165146
0.41102397442 0.90560418367 0.10458219051
0.7191311121 0.30942294002 -0.62195950747
0.71655881405 0.24767251313 -0.65198075771
0.73817378283 0.1472659111 -0.65808755159
0.68518251181 0.20696382225 -0.69828408957
0.64895778894 0.36756375432 -0.66600459814
0.62027174234 0.31685400009 -0.71749347448
0.57730644941 0.37750247121 -0.7240062356
0.55721586943 0.30453497171 -0.77228426933
0.59176796675 -0.3305619657 0.73513323069
0.52867048979 -0.33156493306 0.78113126755
0.55206471682 -0.40690150857 0.72769677639
0.47394943237 -0.43727099895 0.76428729296
0.43994167447 -0.51038122177 0.73883676529
0.50484001637 -0.47399401665 0.72134363651
0.53709435463 0.79411047697 0.28430366516
0.5554202795 0.80615907907 0.20392253995
0.62438493967 0.75814658403 0.18645465374
0.59508633614 0.75832468271 0.26607581973
0.58109945059 0.80553352833 0.11579270661
0.52991616726 0.84586119652 0.060560241342
0.60247945786 0.79768675566 0.024629950523
0.45451128483 -0.57968652248 -0.67619758844
0.50042289495 -0.61817663908 -0.60610049963
0.58152544498 -0.57732242346 -0.57316970825
0.63537687063 -0.49959117174 -0.58801656961
-0.52672326565 -0.55052703619 -0.6476662755
-0.60636776686 -0.49588403106 -0.62150502205
-0.55084705353 -0.46359446645 -0.69387459755
0.76232039928 0.53998351097 -0.35677927732
0.7612811923 0.59088897705 -0.26697263122
[...]
CELL_DATA 5396
SCALARS cell_data_0 double
LOOKUP_TABLE default
5.93076184133e-10
7.23572703371e-10
1.04953928157e-09
1.26593101629e-09
1.09222380263e-09
1.07704039832e-09
2.81940818331e-09
5.73832810253e-10
3.09297398864e-09
9.34337344512e-10
2.07793980988e-09
2.77947277664e-09
1.15856441714e-09
3.04438005391e-09
1.19169255829e-09
8.7289426192e-10
1.58987497216e-10
6.5710480367e-10
3.89559687407e-09
1.18051123928e-09
1.75892586012e-09
1.55426702316e-09
2.4286043068e-09
3.85474343838e-09
1.79737168873e-09
1.36503764815e-09
1.49842464043e-09
3.35100070082e-10
1.39297115102e-10
1.16343953509e-09
2.85659352897e-10
1.43368288132e-09
5.13031633887e-10
3.13426633176e-09
1.14212772343e-09
1.77012300594e-09
5.32451366306e-11
4.53862101711e-10
2.50391837688e-10
5.08670332196e-10
3.33142163858e-10
2.07117364519e-10
1.25228346802e-09
1.07383786544e-10
2.04539730773e-09
4.54491127657e-09
2.6908717617e-09
1.16272529842e-09
1.52552962733e-09
3.06128381162e-10
1.44578999786e-09
8.44902203839e-10
5.65742583147e-10
2.02337023062e-09
5.74561590216e-10
6.98316463384e-11
9.89174744375e-10
3.02867714667e-10
8.12417107676e-10
1.09669278282e-09
1.70846255898e-09
1.58591466707e-09
2.23087355924e-10
6.93305571669e-10
4.32842377321e-10
8.64074101908e-10
2.47934748584e-10
2.12474123392e-09
2.0251197264e-09
8.61177401481e-10
1.51176009337e-09
1.03055904149e-09
4.30285772759e-09
4.49168994308e-10
2.73440487664e-09
4.17494313611e-10
1.15298002835e-10
1.67275098376e-09
2.95543387216e-09
1.10749718289e-09
1.07573087246e-09
1.66338848726e-09
8.45514853394e-10
3.67405288523e-10
1.96651844707e-11
7.94630747038e-10
3.44493321e-09
1.8280936379e-10
2.58433522669e-09
3.5735006239e-11
9.99614428083e-10
1.90582761825e-09
1.238614995e-09
2.4578640524e-09
1.24182361544e-09
1.54032950665e-09
4.97611375687e-10
2.92609693893e-10
6.72453280854e-12
1.8596506739e-09
9.1353580261e-10
1.37675158923e-09
9.27442701232e-11
1.70202345112e-09
4.81358296698e-10
3.27541143113e-10
1.72375254343e-09
1.18470162353e-09
1.67723843808e-09
3.92749978079e-10
5.17046077173e-10
2.53188371479e-09
7.19770289769e-10
1.78055611283e-09
6.66001486472e-10
1.14233017219e-09
6.6721669231e-10
1.74838513965e-09
7.25141836328e-12
5.57526669054e-10
3.95097472566e-10
1.29834437841e-09
1.82375143244e-09
2.16590060997e-09
1.17926166634e-09
8.87973774787e-11
3.61204118247e-09
5.4379342687e-10
6.67757632131e-10
9.96922756054e-11
1.09313945738e-09
2.49201973666e-10
1.91278183998e-09
5.27335310145e-10
1.02531998328e-10
5.89019766798e-10
5.12905129665e-10
1.25255037742e-10
6.58909720922e-11
4.99905217496e-10
1.19361676647e-09
1.24995730801e-09
1.5793260782e-09
2.52743551993e-09
1.68746971521e-09
1.82357576252e-09
9.4836235278e-10
1.84116774349e-09
3.97399544798e-09
1.85304626594e-09
4.2013905674e-09
3.24615129735e-10
8.2760835826e-10
1.32898889534e-09
1.71956777533e-09
3.7057189365e-10
7.63690727502e-10
1.14695806451e-09
1.46592408943e-09
2.09530668713e-09
4.92830677342e-10
7.8195945803e-10
5.0689725211e-10
5.61211094947e-10
3.5490193973e-10
4.14962555737e-10
1.96448751294e-09
1.46621755019e-10
3.96211593652e-10
8.21079485634e-10
1.72754026469e-09
3.9890648268e-10
3.51621351297e-10
8.14182306618e-11
1.16223370305e-09
1.67478243636e-09
1.13855096062e-09
2.9703993045e-09
2.03523825071e-09
1.45734788186e-09
7.281752992e-10
1.9823487551e-09
2.55163497167e-09
1.49365129738e-09
3.71714011584e-10
1.45807453738e-09
1.33251034675e-09
1.19100205441e-09
9.65992021691e-10
2.31909860999e-09
3.87646402597e-10
4.70576105951e-10
2.26775890396e-09
2.20909773509e-10
1.1390567667e-09
1.42070312387e-09
1.36054447514e-09
5.30830445767e-10
5.09353497478e-09
9.43111186918e-10
5.39727864152e-10
1.30978917939e-09
1.39298497593e-09
6.62509041252e-10
1.15443971783e-09
6.41130931495e-10
4.22589303516e-10
4.84254149534e-10
2.64070653999e-09
1.8691234362e-09
5.24593201048e-10
5.60086624506e-10
2.26947490208e-09
7.03292098534e-10
5.2170902725e-10
2.85327299587e-10
6.8114645186e-10
2.53008975126e-11
2.26919086712e-10
5.83583205036e-10
1.03773126263e-09
5.5442295463e-11
1.07702245633e-09
6.22408996011e-11
4.03160088228e-10
1.7144690294e-09
5.90545525136e-10
9.69214109401e-11
2.01570813601e-09
1.97549751167e-09
5.73932258084e-10
1.06855380695e-09
9.56379716417e-10
1.03992654685e-09
8.26486959163e-11
2.25505731828e-09
1.38173660463e-09
8.87913102456e-11
9.11527898018e-11
4.23323423102e-10
2.0049677915e-09
8.6080401919e-10
1.1091418389e-09
4.33186355945e-10
1.76481403092e-10
4.6923389337e-10
9.43009326235e-10
1.37930918407e-09
1.31310334768e-10
3.36886854893e-09
6.61199850779e-10
4.20767813545e-10
4.83224549754e-10
5.33692736666e-10
1.62826498214e-10
3.03933435124e-09
2.05016562401e-09
5.53032825312e-10
1.29368462145e-09
1.30421796783e-09
1.22586977857e-09
4.09639210487e-10
2.84186096167e-10
7.94511053352e-10
2.96770861942e-10
1.87278304295e-09
1.07246855576e-09
1.31001972592e-09
5.19627222319e-10
1.38356878732e-09
5.7378693378e-10
1.86893179428e-09
3.23150611279e-10
3.04278445014e-10
2.15761959694e-09
1.06819331606e-09
3.17700150521e-10
1.5571214004e-09
2.08319767977e-09
1.24917217666e-09
8.16587340999e-10
5.28082125492e-10
5.58878528436e-10
1.17813352573e-09
1.0900765756e-09
1.79514607749e-09
4.02490388037e-09
5.02434848475e-10
8.42891846459e-10
6.47684990311e-10
2.81622951981e-10
4.32766143069e-10
1.42903204043e-09
1.14243913942e-09
5.05546495191e-10
1.5454612115e-09
7.53361164764e-10
1.64176719705e-09
1.55340857539e-09
1.6477547304e-09
8.4095887864e-10
2.41958480327e-09
7.1322341319e-10
1.95894211333e-09
1.48789574913e-09
3.50660713661e-10
5.32443685978e-11
1.87404969066e-09
6.49314188925e-10
1.25642152527e-09
1.36429688094e-09
1.60752558236e-09
1.27556210746e-09
1.62526328205e-09
7.68779124371e-10
8.56583484453e-11
5.75692363848e-11
2.35648889141e-10
2.56881674898e-10
2.33568940719e-10
6.7709404965e-10
1.92906838031e-10
3.30349333916e-09
2.21508366975e-09
1.52486221257e-10
1.48749042333e-10
6.37734878502e-10
1.0379381389e-10
3.99668736162e-10
3.39994111399e-10
9.81907535926e-10
9.06420364188e-10
6.64465072555e-10
9.02748311752e-10
1.76220125092e-09
5.59620793864e-11
4.59812310932e-10
1.61588809333e-09
1.05356442239e-09
9.68945739084e-10
7.98328591284e-10
5.24426359619e-10
8.89399654148e-10
4.23292355286e-10
2.20507605075e-09
4.45308219609e-10
1.26348639153e-10
3.18638162621e-10
6.9148287204e-11
4.83542462262e-10
1.25287261231e-09
2.58392713566e-10
2.10676573207e-11
1.3951036956e-10
9.85486578706e-11
1.08041155647e-10
2.62864843098e-09
7.96859358999e-10
9.45989846838e-10
4.99235960624e-10
2.40792202405e-10
1.71795539277e-09
3.12545402976e-09
7.30918282265e-10
9.28139259841e-10
1.75629291815e-09
7.55445384247e-10
2.03362629537e-09
1.49120115108e-09
8.66599264076e-10
1.75805104548e-09
1.95115006436e-09
1.3742510866e-09
1.57279306166e-09
6.44858690093e-10
6.42617830149e-10
2.87004832251e-10
8.42456416637e-10
2.75138084944e-10
1.45534686487e-09
5.25309288198e-10
1.13142155951e-09
1.80240782203e-09
2.20310179114e-09
2.18216472963e-09
6.33267697634e-10
2.72639797267e-10
1.28937601486e-09
3.43838737263e-10
1.16172773668e-09
8.61478262977e-10
1.92422883618e-09
2.27836246867e-09
2.75335212841e-09
7.31762640559e-10
6.33165207091e-10
3.66996820457e-10
8.79483498055e-10
1.09652419471e-09
6.43039615699e-10
2.10731611668e-09
2.77168303571e-10
3.91459033369e-10
3.80127034207e-10
1.28518647496e-09
1.09789098025e-09
6.89357415632e-10
1.31556154741e-09
7.73324296989e-10
2.38240002463e-10
1.64026543937e-09
1.31444859802e-09
3.6717378938e-09
3.35090700109e-09
2.49041450421e-10
2.21432401186e-10
3.59531671329e-09
2.3323200773e-10
5.33600877278e-10
7.79914973393e-11
4.68067049148e-10
8.60962033312e-10
1.90020596394e-09
2.72787305334e-10
1.58368900499e-09
2.481159917e-09
1.49139661739e-10
1.12578554046e-09
6.63188934983e-10
4.73527319151e-10
1.55758931017e-09
1.0445287259e-09
3.60977843189e-10
5.73656035697e-10
7.822125265e-10
4.87399702879e-10
2.74621674133e-09
2.24976557157e-09
2.09008365464e-09
1.52544978048e-09
1.66736126314e-09
1.01168481653e-09
1.07792319049e-09
4.00688389736e-10
7.41837360051e-10
1.14423320118e-10
3.15512944413e-09
4.52876437746e-10
5.53929079253e-10
1.51686692974e-09
1.41322460177e-09
2.24104125216e-09
1.26009037956e-09
1.19470675863e-09
4.86529845882e-10
1.22121791712e-09
3.34310547707e-10
1.27192933586e-09
3.3269642445e-09
2.76874732099e-09
1.0741598598e-09
3.94568954781e-11
1.39653484703e-09
2.68656367286e-09
1.89840444073e-09
1.82901109549e-09
8.2820007236e-10
2.83999860239e-10
8.69928569395e-10
9.12721671923e-10
3.99483254643e-10
1.1353213642e-09
1.28482473073e-09
6.76663042403e-10
2.3324092439e-09
2.97314244282e-10
1.52772507626e-09
2.42675596374e-10
5.07123184956e-10
6.05677029623e-10
3.9202516167e-10
6.59262567591e-10
4.06234614068e-10
4.25770690914e-11
1.38283513718e-09
2.47811761058e-11
4.16795974809e-10
2.83906389695e-10
2.11430666746e-09
4.54289249188e-10
1.07545497454e-09
9.48210867163e-10
1.4071642197e-09
8.60265237273e-10
8.97638162075e-10
4.15523915841e-11
2.17803638082e-09
1.16661767821e-09
1.32234414506e-09
2.9161290943e-10
2.50790530405e-10
5.43042319806e-10
1.64463583557e-11
8.88504694196e-10
1.70544939382e-09
9.33113054498e-10
2.16445335134e-09
2.96037471914e-11
3.77998849703e-11
2.42220440771e-10
3.29486180086e-09
1.90678489095e-09
6.61523148386e-11
8.6776951825e-11
3.55953478601e-10
8.41254572491e-10
6.152884607e-10
6.69375195637e-11
2.18964916572e-09
9.01168425926e-10
6.14702041011e-10
6.60121326432e-10
1.04156405543e-09
2.6000579777e-09
1.32881510464e-10
3.33812914941e-09
9.44145850148e-10
1.22324520922e-09
3.80225456628e-10
1.3743365298e-09
9.30126976531e-10
3.73723097419e-10
1.81677635447e-09
1.48203641364e-09
1.08007650277e-09
4.64537556392e-09
8.14747552636e-10
1.01216418967e-09
6.47794606781e-10
1.34187995211e-09
1.42848416779e-09
3.77784299393e-10
3.61862358e-10
1.80281394682e-10
7.7302311036e-10
3.8783328852e-10
1.1925017055e-09
1.06435498888e-09
1.39930770508e-09
8.66214521341e-10
6.38479570736e-11
8.11780678628e-10
1.11666489006e-09
4.7088235707e-10
8.77091961083e-10
1.41192767003e-11
3.04727310086e-10
4.6484970152e-10
5.64362935829e-10
2.74278088046e-10
4.12479385326e-10
1.63304223759e-09
1.39791600968e-09
6.00003557394e-10
8.84418104966e-10
7.79086549587e-10
8.81420839551e-10
1.80992254366e-09
1.51164238091e-09
5.07395778653e-10
1.57706499623e-09
3.70620587105e-10
6.42892974042e-10
7.84906068812e-11
1.16192737475e-09
1.52990772495e-09
3.08584623246e-10
6.19002906962e-10
1.18673284051e-09
1.37264048597e-10
2.22521895825e-09
1.66975162296e-09
1.08192998796e-09
5.9720136506e-10
9.88528142501e-10
1.22329872712e-09
2.18309645228e-09
9.87980815916e-11
5.92805701371e-10
8.68951823635e-10
7.60223864078e-10
2.97217290514e-10
9.99396112495e-10
6.83297721697e-10
1.31438541892e-09
2.14652518406e-09
1.37750798728e-09
1.12494448483e-09
2.37014701092e-10
8.42268823245e-10
3.93962321426e-10
4.78223742457e-10
1.14292078064e-09
1.24930931429e-09
1.48820228476e-09
4.07878520885e-10
8.90956258111e-10
1.35665323242e-09
3.13508872536e-09
2.07808104351e-09
7.42575757527e-10
1.63701075892e-10
2.65820922607e-10
8.31391079188e-10
4.48866295345e-10
7.39477866009e-10
3.08663249749e-10
5.10765371732e-11
2.0826838749e-10
5.71315430479e-11
2.36170353067e-09
6.84814577346e-10
4.13126104905e-11
3.74699799513e-11
1.77300608286e-10
1.44487632779e-09
7.98278314773e-10
4.90355056419e-10
1.53642330494e-09
5.56192189845e-11
1.79335607899e-09
6.41185563702e-10
4.14869503108e-10
8.62972076737e-10
1.37285811057e-09
2.32788083421e-09
2.97546183295e-10
1.9776853124e-10
8.89080363744e-10
1.12131139874e-09
7.28100827625e-10
1.7398306576e-09
7.55110883764e-10
1.17867815823e-09
1.16313123614e-09
1.31641657144e-09
1.24691012086e-09
2.47216799097e-09
3.39892176152e-10
8.50015168992e-10
6.25240399776e-11
2.17383332312e-10
1.48543071082e-10
2.22533700773e-11
3.31288298496e-10
3.65687554094e-10
2.00012371304e-10
1.35455889912e-09
1.27240572399e-09
1.5078342802e-09
5.66050067347e-10
4.38173275385e-10
6.1472511397e-10
1.6712552398e-10
8.7530357224e-11
9.73385497828e-10
9.85124873186e-10
6.64810718429e-11
5.31567190247e-10
7.1150631272e-10
2.13262952382e-10
1.59553044899e-09
2.26806714104e-09
1.41044114318e-09
1.00353475136e-09
1.9386216144e-09
1.60029806594e-11
5.81034406473e-10
2.04177736695e-09
2.87652357029e-10
2.26362208544e-10
7.3057205316e-10
4.43750037859e-10
5.65851021845e-10
1.25340137662e-09
7.43128650727e-10
9.77977476815e-10
1.72792770717e-09
6.55977185771e-10
1.72627134677e-09
2.44795953037e-09
2.84129107592e-10
1.49596008023e-10
1.30555934267e-09
9.1507258316e-10
4.58931994194e-10
1.08287925799e-09
4.00952834843e-10
5.64626677364e-11
1.83149518593e-09
6.22942332158e-10
1.51066364782e-09
6.42800953002e-10
9.75527542049e-10
3.36010024234e-10
1.42206830763e-09
1.62969024763e-09
1.36201714023e-09
1.75118233038e-09
5.72592467836e-10
1.37809577216e-09
4.19599437553e-10
1.26281756389e-09
1.15418252086e-11
1.39543255607e-09
1.60211446887e-09
1.4166680307e-09
6.25026175845e-10
1.29806269391e-09
9.67357379007e-10
1.11768905491e-10
4.33313030697e-10
2.66872886535e-09
1.37530212146e-10
1.40528127778e-09
4.83513840564e-10
7.85080892066e-10
3.67544331926e-10
1.47778034757e-10
1.04387897878e-09
5.74267192295e-10
1.51968831082e-09
1.29299948673e-09
5.81652547218e-10
9.26021716611e-10
5.64404854215e-10
1.89107536337e-09
3.01210071499e-10
2.98286593945e-10
2.70059085897e-10
1.69337845088e-09
5.04994832699e-11
1.05566572443e-09
1.77475472259e-10
8.01983066775e-10
1.70786882777e-09
6.34910659915e-13
2.34301046792e-09
4.59867210946e-10
4.37749440186e-10
1.40580849372e-09
1.85226568044e-09
7.05555697705e-11
2.64713964228e-09
1.121036514e-10
3.52007308284e-10
9.75072338927e-10
2.16428597323e-09
2.60907618888e-10
1.03474593097e-09
1.69229102777e-10
4.19491097648e-10
5.78537108543e-11
1.22636588156e-09
1.09433425404e-09
4.13684513757e-10
2.10030879731e-09
4.98833640325e-10
1.20760430436e-09
2.4522375247e-10
2.42318729879e-09
3.98821087578e-11
4.57926987863e-10
1.2892723954e-09
8.59688132307e-10
1.88473860828e-10
4.05280214446e-10
9.73814520402e-10
2.26774280195e-10
8.34182161898e-10
9.0663141184e-10
5.85000376802e-10
3.25119526968e-11
2.64818804732e-09
3.30870330975e-10
1.74805190388e-09
6.08223592121e-10
8.56818907734e-10
1.93828108251e-10
1.311921339e-09
5.49593417108e-10
8.61375984581e-10
1.82900080437e-09
2.27551169617e-10
1.96190094736e-10
7.39403680985e-10
1.13785895876e-09
2.98067664077e-09
1.07623649871e-09
3.53392650953e-10
1.49957327996e-09
2.4551746272e-09
1.38077301563e-09
3.57009287557e-10
1.22366755933e-09
2.05262201875e-09
1.33303060929e-09
6.20446860079e-10
1.76395996664e-09
1.62280901861e-09
1.25226914886e-09
1.25050501054e-09
7.53827575215e-10
3.75113661276e-09
1.15809706334e-09
1.31503467098e-09
2.73741070747e-09
2.01980567178e-09
2.06804052247e-09
1.22466198687e-09
3.81211276088e-10
1.05509755228e-09
9.52627231046e-11
1.05171204414e-09
6.32592250824e-10
2.85813283652e-10
6.34559826005e-10
1.53365133894e-09
1.77439353829e-10
1.25531721868e-09
1.62381052243e-09
1.54969415713e-09
1.03758388595e-09
7.07379815056e-10
7.6182789137e-10
2.18191358015e-10
8.70735510721e-10
4.85719383391e-09
1.58367782908e-09
1.27003584801e-09
2.14940433726e-11
2.89226426004e-10
1.40249788232e-09
1.31852881157e-09
3.51168343068e-10
1.78453017565e-09
7.57864241726e-10
6.32396692282e-10
6.68371716745e-10
2.37285437211e-09
2.8534441281e-09
4.06626104066e-10
1.01977589112e-09
4.6746105896e-10
1.39151871675e-09
4.52854770299e-10
1.54738867369e-09
1.24606857703e-09
9.00552470125e-10
2.49768852197e-09
8.93312548883e-10
1.60595113509e-09
8.40075490107e-10
9.089462326e-10
1.93228166405e-09
1.19768955676e-09
4.26891028391e-10
2.40364731641e-09
3.61114781275e-10
8.84357230015e-10
1.96834033049e-09
9.60869284277e-10
6.58267760294e-10
2.27932003125e-09
3.99690153997e-10
1.2830843739e-09
2.7398237386e-09
1.10504162913e-09
1.79660808278e-09
2.03261492584e-09
1.25489495919e-09
1.49532816852e-09
1.24297884905e-09
2.30555487828e-11
1.39816924963e-10
1.20853319166e-09
1.70034362554e-09
9.55266099044e-10
1.34628909206e-09
4.49459318074e-10
3.07998894579e-09
1.71776826041e-09
8.05862281474e-10
7.78532342028e-10
5.95014750238e-10
7.37839851889e-10
4.44931542756e-10
1.06354854996e-09
2.0659795567e-09
5.61297002861e-10
2.40608267653e-09
5.12964817636e-10
8.17697268212e-10
7.17918859169e-10
7.52543868828e-10
1.15859371889e-09
4.51813442574e-10
9.66247616468e-11
7.3945435743e-10
3.5571825291e-10
8.24147631852e-10
1.5452642969e-09
1.65288409086e-09
8.95720370654e-12
1.20248250754e-09
1.50745645648e-09
1.92486418232e-09
1.66691097238e-09
2.99109650846e-10
1.07895215275e-09
5.94657799035e-11
8.72681069648e-11
1.76406069317e-09
7.72332771645e-11
3.04293685172e-10
5.18535996522e-10
2.29838829674e-10
2.68288207378e-10
1.38824149359e-10
3.06977080303e-09
7.28743392218e-10
2.51748878166e-09
7.21765968642e-10
7.07753187319e-10
1.25466092312e-09
1.27896139168e-09
9.25706827502e-11
6.06827521178e-10
9.38895927717e-10
8.7304457267e-10
2.14564200602e-10
4.78161952909e-10
6.17943362741e-10
5.56001322345e-10
2.03908890144e-10
5.12069892201e-10
6.87432568297e-10
2.88674925736e-11
1.72276283284e-09
7.33924171199e-10
2.16383607868e-09
4.08132825372e-10
1.03589667373e-10
6.2632153322e-10
2.48276907517e-09
9.58343716282e-11
1.45354306053e-09
1.27998093182e-10
8.73253085434e-10
1.77462439218e-10
3.4542795487e-10
8.26263808049e-10
9.35103636382e-10
3.50837224312e-10
2.91015459592e-10
5.85227859842e-10
1.14657419142e-09
7.46186091525e-10
1.43008262591e-10
2.95971508318e-09
6.32386503027e-10
7.37811415008e-10
2.40001115098e-10
6.96122974885e-10
1.51565330701e-09
4.59300872854e-11
1.54967434354e-10
4.69681268695e-10
2.10453806918e-09
5.05921217948e-10
2.16781037979e-09
7.08826494694e-10
2.27680524753e-09
8.12406142083e-10
9.38452780767e-10
9.34356927409e-10
6.18181765461e-10
1.58271348223e-09
5.60482515535e-10
6.89356087883e-10
2.12657731775e-09
7.03980898687e-11
6.62011259987e-10
1.39491168616e-09
5.56036407506e-11
3.51921151683e-10
6.13809329276e-10
2.5863805258e-09
1.12530686998e-09
1.02319611877e-09
3.93654510487e-10
4.52747572532e-10
1.04180853565e-09
4.12879448404e-10
3.59978347215e-10
6.29065159401e-10
5.62312675723e-10
5.20374505715e-10
9.55580557057e-10
3.63185232815e-11
1.24904147425e-09
3.40971524371e-10
4.09503405367e-10
4.91573116731e-10
4.47861946969e-11
1.45899789741e-09
2.2544604373e-10
1.13723229065e-09
3.0246213611e-10
1.0324651594e-09
3.04853792477e-09
6.06544241346e-10
7.96176500675e-10
7.56654284186e-10
1.55442584869e-09
1.14872800173e-10
7.15015758416e-10
2.69939850919e-10
6.06567571212e-10
1.27082449135e-10
1.06206959357e-10
5.55688066375e-10
5.4334020514e-10
8.83877336169e-10
1.24480752198e-09
4.09373316363e-10
8.23726440918e-10
1.10801619128e-10
1.0264759241e-09
6.07345946019e-10
7.36983161217e-10
1.6800742093e-09
1.98218118487e-09
1.93338480318e-09
1.28179237324e-09
1.30327164757e-10
8.6836499563e-10
1.11126324111e-09
7.83958748629e-10
1.90055099119e-10
3.55434660769e-10
1.36066045472e-09
3.49289823698e-09
1.47896005617e-09
2.67833659523e-09
2.86559852765e-09
2.22151838804e-09
4.42879620442e-10
5.04280220893e-10
2.87874016502e-10
1.40104773909e-10
8.98888091096e-10
1.78931307405e-09
5.31375757133e-10
1.38627767135e-09
4.60659419099e-10
1.6351638656e-09
1.64267112481e-09
2.36043289068e-10
3.64434595994e-11
6.51362276546e-10
1.06533564891e-09
8.48041847376e-11
9.62349583521e-10
1.66310328312e-10
5.78817664655e-10
7.32724823081e-10
1.18028356291e-09
5.74180503825e-11
1.31284398521e-09
9.93135786169e-10
1.1813018458e-10
1.4024804935e-09
1.12868380259e-09
4.33793222924e-10
8.88774103572e-10
2.89687646972e-10
8.09187386325e-10
8.04704848609e-10
1.58529573448e-10
6.08483854428e-11
5.07847281708e-10
9.72998982242e-10
2.57423913241e-09
2.42261373378e-09
1.06844674286e-09
1.68937020396e-09
2.55566734196e-09
2.26090564839e-09
3.64629035831e-10
1.07919672508e-09
4.62629085943e-10
1.38254563045e-09
1.15901530393e-09
5.5142140526e-10
1.28080206653e-09
1.72359139831e-09
1.28937315209e-09
1.54771759042e-09
3.45264586295e-10
4.44129758237e-10
1.88870569571e-09
5.89075777361e-10
2.10971703186e-11