# vtk DataFile Version 3.0
File Name: Molecule/sphere_dip/sphere_dip_0-s5.vtk
ASCII
DATASET UNSTRUCTURED_GRID
FIELD FieldData 1
TIME 1 1 double
0.0
POINTS 317 double
0.0 0.850650808352 0.525731112119
0.0 0.961938357784 0.273266528913
-0.259891913008 0.862668480416 0.433888564553
-0.26286555606 0.951056516295 0.162459848116
-0.5 0.809016994375 0.309016994375
-0.26286555606 0.951056516295 -0.162459848116
-0.525731112119 0.850650808352 0.0
-0.702046444776 0.69378047756 0.16062203564
-0.5 0.809016994375 -0.309016994375
-0.702046444776 0.69378047756 -0.16062203564
-0.425325404176 0.688190960236 0.587785252292
-0.16062203564 0.702046444776 0.69378047756
-0.309016994375 0.5 0.809016994375
-0.688190960236 0.587785252292 0.425325404176
-0.587785252292 0.425325404176 0.688190960236
-0.809016994375 0.309016994375 0.5
-0.525731112119 0.0 0.850650808352
0.525731112119 0.0 0.850650808352
0.433888564553 -0.259891913008 0.862668480416
0.69378047756 -0.16062203564 0.702046444776
0.587785252292 -0.425325404176 0.688190960236
0.309016994375 -0.5 0.809016994375
0.809016994375 -0.309016994375 0.5
0.425325404176 -0.688190960236 0.587785252292
0.688190960236 -0.587785252292 0.425325404176
0.702046444776 -0.69378047756 0.16062203564
0.862668480416 -0.433888564553 0.259891913008
0.5 -0.809016994375 0.309016994375
0.850650808352 0.0 0.525731112119
0.69378047756 0.16062203564 0.702046444776
0.809016994375 0.309016994375 0.5
-0.162459848116 0.26286555606 0.951056516295
0.0 0.525731112119 0.850650808352
0.162459848116 0.26286555606 0.951056516295
0.309016994375 0.5 0.809016994375
-0.433888564553 0.259891913008 0.862668480416
-0.273266528913 0.0 0.961938357784
0.433888564553 0.259891913008 0.862668480416
0.0 -0.525731112119 -0.850650808352
-0.309016994375 -0.5 -0.809016994375
-0.162459848116 -0.26286555606 -0.951056516295
0.0 -0.850650808352 -0.525731112119
0.309016994375 -0.5 -0.809016994375
-0.433888564553 -0.259891913008 -0.862668480416
0.809016994375 -0.309016994375 -0.5
0.688190960236 -0.587785252292 -0.425325404176
0.587785252292 -0.425325404176 -0.688190960236
0.425325404176 -0.688190960236 -0.587785252292
0.5 -0.809016994375 -0.309016994375
0.862668480416 -0.433888564553 -0.259891913008
0.702046444776 -0.69378047756 -0.16062203564
0.850650808352 -0.525731112119 0.0
0.990438881957 -0.137952242128 0.0
0.917539630891 -0.301683612961 -0.259052163504
0.951056516295 -0.162459848116 -0.26286555606
0.961938357784 -0.273266528913 0.0
0.915043421233 -0.403355348617 0.0
0.78384304242 -0.615642020874 0.0810862934433
0.951056516295 -0.162459848116 0.26286555606
1.0 0.0 0.0
0.622785464303 -0.778605872826 -0.0768840702267
0.5 0.809016994375 0.309016994375
0.425325404176 0.688190960236 0.587785252292
0.688190960236 0.587785252292 0.425325404176
0.587785252292 0.425325404176 0.688190960236
0.0 0.850650808352 -0.525731112119
-0.16062203564 0.702046444776 -0.69378047756
-0.259891913008 0.862668480416 -0.433888564553
-0.425325404176 0.688190960236 -0.587785252292
-0.309016994375 0.5 -0.809016994375
-0.587785252292 0.425325404176 -0.688190960236
-0.688190960236 0.587785252292 -0.425325404176
-0.809016994375 0.309016994375 -0.5
-0.5 -0.809016994375 0.309016994375
-0.702046444776 -0.69378047756 0.16062203564
-0.5 -0.809016994375 -0.309016994375
-0.850650808352 -0.525731112119 0.0
0.0 -0.961938357784 -0.273266528913
0.0 -1.0 0.0
-0.862668480416 -0.433888564553 0.259891913008
-0.688190960236 -0.587785252292 0.425325404176
-0.809016994375 -0.309016994375 0.5
-0.309016994375 -0.5 0.809016994375
-0.850650808352 0.0 0.525731112119
-0.951056516295 0.162459848116 0.26286555606
-0.951056516295 -0.162459848116 0.26286555606
-1.0 0.0 0.0
-0.961938357784 -0.273266528913 0.0
-0.425325404176 -0.688190960236 -0.587785252292
-0.587785252292 -0.425325404176 -0.688190960236
-0.688190960236 -0.587785252292 -0.425325404176
-0.809016994375 -0.309016994375 -0.5
0.259891913008 -0.862668480416 -0.433888564553
0.26286555606 -0.951056516295 -0.162459848116
0.525731112119 -0.850650808352 0.0
0.26286555606 -0.951056516295 0.162459848116
0.259052163504 0.917539630891 0.301683612961
0.0 0.990438881957 0.137952242128
0.0 1.0 0.0
-0.133071104141 0.987688340595 -0.0822424652791
-0.386187385588 0.891006524188 -0.238676930319
-0.135045378369 0.925614793411 -0.353553390593
0.0 0.961938357784 -0.273266528913
0.850650808352 0.525731112119 0.0
0.862668480416 0.433888564553 0.259891913008
0.951056516295 0.162459848116 0.26286555606
0.78384304242 0.615642020874 -0.0810862934433
0.711281734962 0.702907030488 0.0
0.78384304242 0.615642020874 0.0810862934433
0.702046444776 0.69378047756 0.16062203564
0.702046444776 0.69378047756 -0.16062203564
0.620239582613 0.78020437071 -0.08114185162
0.620239582613 0.78020437071 0.08114185162
0.525731112119 0.850650808352 0.0
0.606825149272 0.758652300163 -0.237086325351
0.519258489728 0.840177885327 -0.15643446504
0.5 0.809016994375 -0.309016994375
0.606825149272 0.758652300163 0.237086325351
0.519258489728 0.840177885327 0.15643446504
0.386187385588 0.891006524188 -0.238676930319
0.399607051702 0.912982492932 -0.0823235800317
0.26286555606 0.951056516295 -0.162459848116
0.266404701135 0.963861263467 0.0
0.399607051702 0.912982492932 0.0823235800317
0.26286555606 0.951056516295 0.162459848116
0.133071104141 0.987688340595 -0.0822424652791
0.133071104141 0.987688340595 0.0822424652791
0.386187385588 0.891006524188 0.238676930319
0.135045378369 0.925614793411 -0.353553390593
0.259891913008 0.862668480416 -0.433888564553
0.0 0.266404701135 0.963861263467
-0.0822424652791 0.133071104141 0.987688340595
0.0822424652791 0.133071104141 0.987688340595
0.0 0.0 1.0
-0.220117027473 0.132792476828 0.966392597402
-0.137952242128 0.0 0.990438881957
0.220117027473 0.132792476828 0.966392597402
0.137952242128 0.0 0.990438881957
0.273266528913 0.0 0.961938357784
-0.433888564553 -0.259891913008 0.862668480416
-0.220117027473 -0.132792476828 0.966392597402
-0.0822424652791 -0.133071104141 0.987688340595
-0.162459848116 -0.26286555606 0.951056516295
0.0 -0.266404701135 0.963861263467
0.0822424652791 -0.133071104141 0.987688340595
0.162459848116 -0.26286555606 0.951056516295
0.273266528913 0.0 -0.961938357784
0.0822424652791 -0.133071104141 -0.987688340595
0.0 0.0 -1.0
0.0 -0.266404701135 -0.963861263467
0.162459848116 -0.26286555606 -0.951056516295
-0.0822424652791 -0.133071104141 -0.987688340595
-0.137952242128 0.0 -0.990438881957
-0.220117027473 -0.132792476828 -0.966392597402
-0.273266528913 0.0 -0.961938357784
0.782888506207 0.519553709322 0.342271135182
0.0822424652791 0.133071104141 -0.987688340595
-0.0822424652791 0.133071104141 -0.987688340595
0.0 0.266404701135 -0.963861263467
-0.162459848116 0.26286555606 -0.951056516295
0.162459848116 0.26286555606 -0.951056516295
-0.220117027473 0.132792476828 -0.966392597402
0.132792476828 0.966392597402 0.220117027473
0.224799542734 -0.134651124684 0.965056599484
0.301258879093 -0.264082750659 0.916244175191
0.358228793487 -0.131655371352 0.924304600611
-0.525731112119 0.0 -0.850650808352
-0.69378047756 -0.16062203564 -0.702046444776
-0.69378047756 0.16062203564 -0.702046444776
-0.850650808352 0.0 -0.525731112119
-0.951056516295 -0.162459848116 -0.26286555606
-0.951056516295 0.162459848116 -0.26286555606
-0.862668480416 0.433888564553 -0.259891913008
-0.961938357784 0.273266528913 0.0
-0.850650808352 0.525731112119 0.0
-0.26286555606 -0.951056516295 0.162459848116
-0.259891913008 -0.862668480416 0.433888564553
0.0 -0.961938357784 0.273266528913
0.0 -0.850650808352 0.525731112119
-0.711281734962 0.702907030488 0.0
-0.78384304242 0.615642020874 0.0810862934433
-0.78384304242 0.615642020874 -0.0810862934433
-0.0810862934433 0.78384304242 0.615642020874
-0.757935420048 0.453990499739 0.468429850867
-0.702309846744 0.647411893882 0.296004592578
-0.792649229259 0.571251659136 0.213022865649
-0.783451698363 0.516121620051 0.346153014789
-0.862668480416 0.433888564553 0.259891913008
-0.864929335863 0.484441642061 0.131200378813
-0.843911474622 0.375038567478 0.383613732685
0.16062203564 0.702046444776 0.69378047756
0.0768840702267 0.622785464303 0.778605872826
0.468429850867 -0.757935420048 0.453990499739
0.259891913008 -0.862668480416 0.433888564553
0.218508012224 -0.790569415042 0.572061402817
0.843911474622 -0.375038567478 0.383613732685
0.916244175191 -0.301258879093 0.264082750659
0.891006524188 -0.238676930319 0.386187385588
0.963861263467 0.0 0.266404701135
0.912982492932 0.0823235800317 0.399607051702
0.912982492932 -0.0823235800317 0.399607051702
0.840177885327 -0.15643446504 0.519258489728
-0.782888506207 0.519553709322 -0.342271135182
-0.965056599484 0.224799542734 0.134651124684
0.840177885327 -0.15643446504 -0.519258489728
0.891006524188 -0.238676930319 -0.386187385588
0.912982492932 -0.0823235800317 -0.399607051702
0.850650808352 0.0 -0.525731112119
0.912982492932 0.0823235800317 -0.399607051702
0.963861263467 0.0 -0.266404701135
0.951056516295 0.162459848116 -0.26286555606
0.840177885327 0.15643446504 -0.519258489728
0.891006524188 0.238676930319 -0.386187385588
0.809016994375 0.309016994375 -0.5
0.987688340595 -0.0822424652791 -0.133071104141
0.987688340595 0.0822424652791 -0.133071104141
0.758652300163 -0.237086325351 -0.606825149272
0.78020437071 -0.08114185162 -0.620239582613
0.69378047756 -0.16062203564 -0.702046444776
0.702907030488 0.0 -0.711281734962
0.78020437071 0.08114185162 -0.620239582613
0.69378047756 0.16062203564 -0.702046444776
0.615642020874 -0.0810862934433 -0.78384304242
0.615642020874 0.0810862934433 -0.78384304242
0.525731112119 0.0 -0.850650808352
0.758652300163 0.237086325351 -0.606825149272
0.990438881957 0.137952242128 0.0
0.966392597402 0.220117027473 -0.132792476828
0.961938357784 0.273266528913 0.0
0.916244175191 0.301258879093 -0.264082750659
0.924304600611 0.358228793487 -0.131655371352
0.862668480416 0.433888564553 -0.259891913008
0.843911474622 0.375038567478 -0.383613732685
0.915043421233 0.403355348617 0.0
0.864929335863 0.484441642061 -0.131200378813
[...]
CELL_DATA 630
SCALARS cell_data_0 double
LOOKUP_TABLE default
1.9412387208e-05
2.86082056743e-05
1.19060516601e-05
2.1354873531e-05
2.02121518101e-05
1.5396775704e-05
1.42749311337e-05
1.02814214841e-05
3.80823201834e-06
1.13980279355e-05
2.34248452997e-07
1.45662002105e-05
1.39819336488e-05
4.22288097463e-05
2.87000044736e-05
2.39883958861e-05
2.68945959649e-05
1.39691714499e-05
2.26608255428e-05
1.45089224029e-05
1.18934147716e-05
1.66364645918e-06
1.59262334329e-06
9.27275335226e-06
1.85682816039e-05
2.21583515902e-05
3.82923326685e-05
4.74163843988e-05
3.43100011684e-05
4.12643133651e-05
3.90563497821e-05
4.04872779206e-05
1.36173662574e-05
4.50207187444e-05
3.50806730043e-05
3.18767221836e-06
1.35660065591e-05
2.59141053406e-06
1.78205379774e-05
1.02878702854e-05
8.3195367745e-07
8.81970373696e-06
3.08593453744e-06
2.91696039035e-05
5.56523455931e-07
9.04590051063e-06
6.1162318212e-06
1.69525202475e-07
8.89096515294e-06
4.34204753483e-06
2.97446349879e-05
2.17467913908e-05
2.01071833753e-05
2.76974033996e-07
3.75489140736e-06
3.85761699948e-06
8.70568950228e-06
1.33348779695e-05
3.70300286111e-06
3.00110643384e-05
4.74233071585e-06
3.26363654401e-07
8.02657529634e-07
2.50559413944e-06
3.40119980922e-06
1.27168475147e-05
1.38487778924e-05
1.98096592073e-05
7.12811707331e-06
1.10598247035e-05
9.3302210083e-06
1.18479252152e-05
5.46041979854e-06
1.71326633591e-07
5.79310186394e-06
1.50228423301e-05
1.63432093123e-06
8.67919461639e-07
9.90292454988e-05
5.36926546282e-05
2.58686839141e-05
8.40408998483e-05
3.99187546516e-06
2.96416975178e-06
1.86890091638e-05
3.11593213443e-05
5.14462435238e-07
3.33059685036e-05
2.56166709526e-06
1.72599139921e-06
2.96371255361e-05
3.99318383669e-05
3.86907591086e-05
9.53334114899e-07
0.000172464324636
0.000238957726041
0.000193626564943
0.00023402407503
0.00011855355968
0.000114479847606
0.000193775708545
5.1653647156e-05
0.000137761903638
0.000147796936408
7.48542078136e-05
0.000166863973116
0.000286529746805
8.24049282205e-05
8.87137441604e-05
4.42806197877e-05
4.45153911613e-05
3.73319556095e-05
2.46950332046e-05
4.39380079616e-05
4.31584515737e-05
2.83962450273e-05
6.25560686011e-05
7.48566537468e-05
2.34280496904e-05
5.86530931981e-05
9.14963406574e-05
5.80013980448e-05
6.52542114588e-05
4.86511613742e-05
7.96563917344e-05
3.9680871588e-06
2.39020775861e-05
5.05394057949e-06
7.50692865498e-05
4.13851586337e-05
3.97996580762e-05
6.7104271189e-05
3.0753571449e-05
3.84327548229e-05
2.86812673449e-05
5.65385705473e-05
3.26435858581e-05
3.2915018661e-05
3.22038537501e-05
5.8449813201e-05
2.97199058958e-05
4.62253519269e-05
4.15984285921e-05
4.06795482128e-05
1.71015492822e-05
2.02650826049e-05
4.86291352525e-05
5.01475925166e-05
1.85757909186e-05
7.10325893271e-05
5.16472030253e-05
4.15116240688e-05
4.00572521791e-05
6.8209366585e-05
3.99606583168e-05
4.82432821434e-05
8.47642113409e-05
5.37407167942e-05
5.66387608675e-05
6.29261497165e-05
3.25385920002e-05
2.97554030247e-05
1.73642265678e-05
1.8607954321e-05
2.06803204872e-05
1.88564144087e-05
2.79945052949e-05
2.32897655042e-05
8.23831029685e-06
1.09283686193e-05
1.56611118115e-05
1.80682857183e-05
2.63217299207e-05
1.53754608174e-05
1.68894946542e-05
1.88060431992e-05
1.56947981723e-05
2.73826272367e-05
1.61206552099e-05
1.74324702002e-05
1.41738623772e-05
1.84958787781e-05
1.64668710682e-05
1.7523575452e-05
1.61158168234e-05
1.87814247137e-05
3.10909041644e-05
2.80267294117e-05
2.86779953572e-05
1.57970535146e-05
1.68585025137e-05
1.55166443067e-05
1.83472276533e-05
1.51963832691e-05
1.39168543019e-05
1.29209954162e-05
1.3080624514e-05
2.44072994511e-05
2.32212718573e-05
6.74070228268e-05
7.32093696404e-05
3.12929708159e-05
4.34604212264e-05
2.96041101836e-05
2.88085551273e-05
4.22673197222e-05
9.98529809201e-06
3.8476846001e-05
5.91724836624e-05
5.90468640155e-05
4.22157689665e-05
3.06283541588e-05
1.77549547439e-05
1.61656167562e-05
1.52937230692e-05
1.54788346084e-05
1.49495809499e-05
1.44078412654e-05
1.38077622326e-05
1.35006545727e-05
4.61727424059e-05
3.40154982813e-05
1.21327387718e-05
2.6577312372e-05
2.20388058891e-05
2.89023087234e-05
1.2644623011e-05
4.20480652566e-05
1.60475927719e-05
1.34083400681e-05
1.3051327183e-05
1.09044580717e-05
1.75651653391e-05
1.85351883416e-05
1.09702484623e-05
1.49568087313e-05
1.50181144811e-05
1.7564653468e-05
3.10924221444e-05
3.25200892394e-05
2.30989288933e-05
1.50350281707e-05
2.28671334484e-05
1.26322604146e-06
5.49680275139e-05
2.17992886889e-05
6.28345857699e-05
3.02345076952e-05
3.2366878139e-05
1.66366265571e-05
4.32488569521e-05
3.44582161058e-06
0.000124271462951
0.000138648944991
2.78806448718e-05
2.94079442796e-06
2.37198508111e-05
9.63531961787e-07
4.88703159159e-06
2.56624255501e-05
3.96028173862e-06
4.12371587476e-06
8.00287176981e-07
9.65065756052e-07
1.09134065045e-06
7.08382404371e-07
4.17921814561e-06
2.30183888157e-06
4.19274969263e-06
2.49764292534e-06
4.60104938697e-06
2.7536114679e-06
2.98279395441e-07
5.15997449977e-07
4.90723743843e-07
1.82571923554e-07
3.12338237697e-07
3.89924488356e-07
5.83877533742e-07
3.22669411888e-07
2.70673189337e-07
7.19226935273e-07
6.54038548122e-07
5.46004544615e-07
4.54618293098e-06
7.91470848426e-06
8.26341734577e-06
1.01062877897e-05
4.16591143482e-06
8.95582167721e-07
3.82740812652e-07
2.17363145446e-06
2.77027826522e-06
1.06573723186e-07
1.49111248213e-05
1.48842611893e-05
1.28851004341e-06
2.02237919855e-06
1.56848701885e-05
1.10002294639e-05
5.7231760011e-07
2.30483801462e-07
1.44051729919e-06
6.63542500978e-07
1.80478052795e-06
3.73676620811e-06
1.57537471179e-06
2.21943232133e-06
4.57684609074e-06
2.66695166003e-06
1.81990400988e-05
1.5203038523e-05
2.11161998162e-06
2.32903233429e-06
5.11370221667e-06
5.45168805083e-07
2.38236518198e-06
7.67817376332e-07
1.81066006051e-06
6.05710050815e-06
5.00818073573e-06
1.41573100676e-05
3.20905917292e-06
4.63460203506e-06
1.64700337217e-06
1.76445658018e-05
1.1196901733e-05
1.06597822903e-05
7.79820115022e-06
8.78120531721e-06
1.383934017e-05
1.37758255865e-05
1.03063792611e-05
6.40577888152e-06
5.8885609378e-06
3.26056490494e-06
1.46893642534e-08
6.69720837645e-06
1.88099508367e-06
1.44785533509e-06
3.17342895339e-06
7.83834747137e-07
3.36202345161e-06
1.30178181511e-06
9.62092693274e-07
1.25227861474e-06
1.59935941816e-06
3.5902144473e-06
2.96449402398e-06
1.43331946472e-06
3.12462999051e-06
5.46077271436e-06
6.53154220982e-06
3.90895686337e-06
1.02843002816e-06
2.70881231202e-06
2.31939714758e-06
7.26107599737e-07
1.05635279595e-06
8.97770188582e-07
1.91387747812e-06
1.45671899143e-06
2.43472639793e-06
2.60226158667e-06
2.80001289819e-06
2.70990470261e-06
1.29856339107e-06
7.81788765845e-07
1.73635679052e-06
1.97166246469e-06
4.68636649241e-06
6.03578405845e-06
4.03539293965e-06
4.56103477151e-06
2.65739871891e-06
5.20213963985e-06
2.85498364444e-06
4.70801320129e-06
1.9888808316e-06
3.12970981843e-06
4.29913071422e-06
1.67755904971e-06
8.03977091792e-06
4.33424764366e-06
6.76405449018e-08
4.30594071014e-07
3.32538090376e-06
5.93365267184e-07
1.06696225353e-06
5.2898118787e-08
2.32198714836e-06
5.36335399157e-07
4.80933752813e-06
1.36616595082e-06
7.42820680384e-06
1.74798371569e-05
6.07571082719e-06
1.58340192509e-05
2.68356277884e-06
3.58478576824e-06
8.31825790541e-07
3.44780814674e-06
3.51687077884e-08
1.1510081212e-06
6.41789508141e-06
4.67171908253e-07
4.23381644244e-06
3.46315387463e-06
5.38371435508e-06
4.84182038439e-06
1.98537881249e-06
3.21838222174e-07
5.00405349034e-06
3.05609714024e-06
1.08445976912e-05
2.39785274824e-05
1.25163684793e-05
1.84704378059e-05
5.7099678612e-06
2.36185183057e-06
1.0003982381e-05
4.1739935566e-06
2.06899849726e-05
2.08847730231e-05
2.3488716709e-06
1.00812039471e-06
3.04149387074e-06
9.90125854909e-06
3.53951475612e-06
6.13196380041e-08
3.23835450211e-06
1.13020679635e-05
3.75132719006e-06
2.72656672263e-06
2.28188566437e-06
8.76994822942e-06
1.51012404572e-05
1.1885670843e-05
7.06894135601e-06
1.07863090351e-05
5.1874601696e-06
2.47961838385e-06
3.85265930941e-06
8.21395659387e-06
6.34240389076e-06
4.70602975519e-06
1.27896820416e-05
1.14588053916e-05
5.24047880147e-06
8.52183043309e-07
9.16875132068e-07
1.01673035949e-05
2.6593481888e-05
1.53609152603e-05
1.84553465269e-05
2.43245709871e-05
1.20930267723e-05
8.53490920186e-06
1.33248459948e-05
2.27099988098e-06
3.8280366081e-06
4.41702637382e-06
2.53587600263e-06
2.09279951592e-05
2.41803910254e-05
1.58819463105e-06
5.96713154704e-06
7.31820844336e-06
2.52322931613e-07
2.82975813838e-05
6.58562080599e-06
2.5739660106e-07
1.79465764541e-06
1.86390412796e-06
7.10756756742e-06
6.99008061007e-06
3.56188193772e-06
4.44373456519e-07
2.36943411423e-06
8.75079146348e-06
3.53168964032e-06
5.27843283944e-06
8.19329362695e-06
1.56104907053e-06
1.11030546222e-05
1.76409298151e-06
1.24694476404e-05
4.82471651337e-06
5.45261883381e-06
7.26167499179e-07
9.48536042509e-06
2.51265897688e-06
1.16218108845e-05
1.44801681108e-06
1.13239256614e-05
7.43162723264e-06
1.07637424444e-05
4.0515727309e-08
5.82834004839e-06
2.67772304642e-06
1.04233898318e-05
4.87129124689e-06
7.59877029662e-06
6.91159886459e-06
8.29068859836e-06
9.91327770778e-07
4.99058611985e-06
8.92720732744e-06
1.05779334277e-05
6.07284171552e-06
9.00722994982e-06
4.58860680479e-06
4.13883143818e-07
7.42202096918e-07
7.05635905304e-06
3.43542504387e-06
1.3462989024e-05
1.17478538551e-05
2.30120531224e-06
2.44910744585e-06
6.44270234696e-06
5.18490417489e-06
8.71820083628e-06
7.88271313998e-06
1.14585542186e-05
1.52359906262e-05
2.54946241077e-06
1.32667657772e-07
7.51311441587e-08
1.94269126731e-05
2.67505237676e-05
3.53520343337e-06
1.12704627847e-08
1.67153103511e-05
1.72712217467e-05
4.18152944915e-05
3.93408058377e-05
1.47188844126e-05
1.24709707388e-05
1.07485636746e-06
2.17810580963e-07
2.16623209889e-06
5.9278933556e-05
0.000110060852962
3.57996542681e-05
7.70878557046e-05
6.83732974499e-05
4.49748594706e-05
8.7260394683e-06
2.54809528572e-07
2.15893445998e-05
7.56000866843e-07
2.17774823594e-05
8.17278885401e-07
4.36841640808e-07
1.72465644755e-07
1.07899320517e-05
3.07792726754e-06
3.01094577284e-06
1.65513256832e-05
4.89711699947e-07
1.69940088754e-07
7.03708682488e-07
5.6898861445e-07
6.9736613781e-06
9.67819249468e-07
1.21934268527e-06
7.06223704436e-07
6.87496272994e-06
9.16032301267e-07
1.75595229666e-05
2.05036908157e-05
1.55596173144e-05
1.38636614277e-05
3.74052759497e-05
4.1269470578e-05
4.21839431362e-05
3.35002566811e-05
7.21836570214e-06
1.82931438718e-05
2.05212988626e-05
8.68709838343e-06
7.36419846968e-06
5.0049131301e-07
9.16809864197e-06
2.04750716356e-05
2.9004884293e-05
2.81279772477e-05
5.80933989509e-06
1.00231364061e-08
2.44827016634e-07
5.56936012648e-06
2.98596827184e-05
3.04784894162e-05
5.54091093678e-06
1.86846968502e-08
2.35457776524e-07
5.7045022354e-06
1.3578781545e-05
1.18532960762e-05
1.12305031246e-05
1.37576449723e-05
1.40798496661e-05
1.65782870663e-05
1.63310816675e-05
1.40353141932e-05
1.60966997604e-05
1.53987357805e-05
1.0295091884e-05
2.4149729231e-06
6.40794330261e-06
1.16336901643e-05
1.60401968119e-05
1.67742222234e-05
1.45720582503e-05
1.7138387662e-05
1.67015349218e-05
1.46911751589e-05
1.16225039847e-05
1.35455559601e-05
1.40741995028e-05
1.16998868003e-05
1.11474807582e-05
7.68303273333e-06
4.08893616978e-06
1.01483172224e-05
1.06989140911e-05
8.28620214313e-06
9.54641485617e-06
1.15123383082e-05

