# vtk DataFile Version 3.0
File Name: Molecule/sphere_dip/sphere_dip_0-s2.vtk
ASCII
DATASET UNSTRUCTURED_GRID
FIELD FieldData 1
TIME 1 1 double
0.0
POINTS 66 double
0.809016994375 -0.309016994375 -0.5
0.809016994375 0.309016994375 -0.5
1.0 0.0 0.0
0.525731112119 0.0 -0.850650808352
0.850650808352 0.525731112119 0.0
0.5 0.809016994375 -0.309016994375
0.309016994375 0.5 -0.809016994375
0.0 0.850650808352 -0.525731112119
0.5 0.809016994375 0.309016994375
0.0 1.0 0.0
-0.309016994375 0.5 0.809016994375
0.0 0.0 1.0
0.309016994375 0.5 0.809016994375
-0.525731112119 0.0 0.850650808352
0.525731112119 0.0 0.850650808352
-0.309016994375 -0.5 0.809016994375
0.309016994375 -0.5 0.809016994375
0.0 -0.850650808352 0.525731112119
0.309016994375 -0.5 -0.809016994375
0.0 0.0 -1.0
-0.309016994375 -0.5 -0.809016994375
0.0 -0.850650808352 -0.525731112119
-0.525731112119 0.0 -0.850650808352
0.809016994375 0.309016994375 0.5
0.0 0.850650808352 0.525731112119
-0.809016994375 -0.309016994375 -0.5
-0.809016994375 0.309016994375 -0.5
-1.0 0.0 0.0
-0.850650808352 -0.525731112119 0.0
-0.850650808352 0.525731112119 0.0
-0.309016994375 0.5 -0.809016994375
-0.5 0.809016994375 -0.309016994375
-0.5 -0.809016994375 -0.309016994375
-0.5 -0.809016994375 0.309016994375
0.0 -1.0 0.0
-0.809016994375 -0.309016994375 0.5
-0.809016994375 0.309016994375 0.5
0.5 -0.809016994375 -0.309016994375
0.5 -0.809016994375 0.309016994375
0.850650808352 -0.525731112119 0.0
0.961938357784 -0.273266528913 0.0
0.0 0.961938357784 0.273266528913
-0.259891913008 0.862668480416 0.433888564553
-0.26286555606 0.951056516295 0.162459848116
-0.5 0.809016994375 0.309016994375
-0.26286555606 0.951056516295 -0.162459848116
-0.525731112119 0.850650808352 0.0
-0.702046444776 0.69378047756 0.16062203564
-0.702046444776 0.69378047756 -0.16062203564
-0.16062203564 0.702046444776 0.69378047756
-0.425325404176 0.688190960236 0.587785252292
-0.688190960236 0.587785252292 0.425325404176
-0.587785252292 0.425325404176 0.688190960236
-0.862668480416 0.433888564553 0.259891913008
0.433888564553 -0.259891913008 0.862668480416
0.69378047756 -0.16062203564 0.702046444776
0.587785252292 -0.425325404176 0.688190960236
0.809016994375 -0.309016994375 0.5
0.425325404176 -0.688190960236 0.587785252292
0.688190960236 -0.587785252292 0.425325404176
0.862668480416 -0.433888564553 0.259891913008
0.702046444776 -0.69378047756 0.16062203564
0.951056516295 -0.162459848116 0.26286555606
0.951056516295 0.162459848116 0.26286555606
0.850650808352 0.0 0.525731112119
0.69378047756 0.16062203564 0.702046444776

CELLS 128 512
3 0 1 2
3 0 3 1
3 2 1 4
3 4 1 5
3 1 6 5
3 1 3 6
3 5 6 7
3 4 5 8
3 5 9 8
3 5 7 9
3 10 11 12
3 10 13 11
3 12 11 14
3 13 15 11
3 15 16 11
3 15 17 16
3 3 18 19
3 18 20 19
3 18 21 20
3 19 20 22
3 4 8 23
3 8 12 23
3 8 24 12
3 22 25 26
3 25 27 26
3 25 28 27
3 26 27 29
3 7 30 31
3 30 26 31
3 30 22 26
3 28 32 33
3 32 34 33
3 32 21 34
3 33 34 17
3 28 33 35
3 33 15 35
3 33 17 15
3 35 15 13
3 13 36 35
3 36 27 35
3 35 27 28
3 22 20 25
3 20 32 25
3 20 21 32
3 25 32 28
3 21 37 34
3 37 38 34
3 34 38 17
3 3 0 18
3 0 37 18
3 0 39 37
3 18 37 21
3 3 19 6
3 19 30 6
3 19 22 30
3 6 30 7
3 2 40 0
3 0 40 39
3 9 41 8
3 8 41 24
3 24 41 42
3 41 43 42
3 41 9 43
3 42 43 44
3 9 45 43
3 45 46 43
3 45 31 46
3 43 46 44
3 31 45 7
3 7 45 9
3 44 46 47
3 46 48 47
3 46 31 48
3 47 48 29
3 24 42 49
3 42 50 49
3 42 44 50
3 49 50 10
3 44 51 50
3 51 52 50
3 51 36 52
3 50 52 10
3 44 47 51
3 47 53 51
3 47 29 53
3 51 53 36
3 10 52 13
3 52 36 13
3 24 49 12
3 49 10 12
3 16 54 11
3 11 54 14
3 14 54 55
3 54 56 55
3 54 16 56
3 55 56 57
3 16 58 56
3 58 59 56
3 58 38 59
3 56 59 57
3 38 58 17
3 17 58 16
3 57 59 60
3 59 61 60
3 59 38 61
3 60 61 39
3 39 40 60
3 40 62 60
3 40 2 62
3 60 62 57
3 2 63 62
3 63 64 62
3 63 23 64
3 62 64 57
3 23 63 4
3 4 63 2
3 57 64 55
3 64 65 55
3 64 23 65
3 55 65 14
3 14 65 12
3 12 65 23
3 29 48 26
3 26 48 31
3 36 53 27
3 53 29 27
3 39 61 37
3 37 61 38

CELL_TYPES 128
5
5
5
5
5
5
5
5
5
5
5
5
5
5
5
5
5
5
5
5
5
5
5
5
5
5
5
5
5
5
5
5
5
5
5
5
5
5
5
5
5
5
5
5
5
5
5
5
5
5
5
5
5
5
5
5
5
5
5
5
5
5
5
5
5
5
5
5
5
5
5
5
5
5
5
5
5
5
5
5
5
5
5
5
5
5
5
5
5
5
5
5
5
5
5
5
5
5
5
5
5
5
5
5
5
5
5
5
5
5
5
5
5
5
5
5
5
5
5
5
5
5
5
5
5
5
5
5

CELL_DATA 128
SCALARS cell_data_0 double
LOOKUP_TABLE default
0.000365682117869
8.03774257822e-05
0.000205309690316
0.000179770053686
0.000241054317567
5.62171785908e-06
8.2336708659e-05
9.6686361866e-05
0.000236160896896
0.000158954731443
0.000263375175797
0.000208646085465
0.000215898016974
0.000210013939067
0.000265716290014
8.19170110995e-05
0.000226538307318
0.000277042517566
6.32504038949e-05
0.000219141735914
3.97641290812e-06
4.68950530146e-05
2.69916835906e-05
2.04414409822e-05
1.13223673704e-05
9.21308909086e-05
3.91432300609e-06
1.05014892268e-05
7.1948748364e-06
6.53508963455e-05
8.48043930805e-05
3.71607668655e-06
6.83515401954e-05
3.43113937099e-07
5.73231130009e-05
5.73042814358e-05
3.21428189518e-05
9.03584300036e-05
1.94858798035e-05
7.15654242772e-05
7.86388359391e-05
6.82322333076e-05
5.76775611098e-05
1.35581340052e-05
6.80890884176e-05
6.36693778529e-05
1.30957460464e-05
6.72139017525e-06
6.55631350527e-05
1.00737584783e-05
0.000563094836237
4.13363874785e-06
0.00021677818302
0.000272872519416
0.000217334883204
6.39916446978e-05
0.000109393633057
0.000318391130596
4.39460404488e-05
3.19849278205e-06
2.49104344177e-07
1.64212361285e-06
2.0446977909e-05
0.000107525670092
2.47977872947e-05
6.43892290928e-07
2.37954258001e-05
0.000130318193043
2.83952504897e-05
3.31899108773e-05
0.000110301503423
7.16250116919e-06
3.20816965396e-05
8.34248368958e-06
2.14827453363e-06
6.47066229352e-06
0.00010261051378
1.10569956322e-05
0.00013902264879
5.69835885439e-06
2.20087887036e-05
1.60837412554e-05
0.000122652160017
2.23429718899e-05
1.64830676356e-05
5.2666676146e-05
4.90064266548e-05
1.16321284677e-05
2.65856678392e-05
4.83048711104e-05
0.000106042436494
0.000106023616347
2.10542495493e-05
1.48942672282e-05
1.75671684319e-05
6.77053232074e-06
1.33949271964e-05
5.6678469937e-06
6.32462499489e-07
6.75968447912e-06
3.52175723907e-06
1.77712879999e-05
1.89129025451e-06
2.9610333343e-07
1.58299946218e-07
0.000111017786907
0.000119177955734
2.00305056099e-06
2.89728273187e-05
1.7849103375e-06
2.888260835e-05
5.51566371229e-07
1.44512906613e-06
2.73984168498e-06
2.1108862039e-07
4.94745387794e-05
2.82910586631e-06
1.46553027315e-06
8.85885038188e-08
1.4068291604e-05
5.04911194422e-05
2.65222982875e-05
1.03706192289e-05
4.94633313186e-05
9.64280166232e-05
4.09705349364e-05
0.000212137217723
2.6532545543e-06

