# vtk DataFile Version 3.0
File Name: Molecule/sphere_dip/sphere_dip_0-s4.vtk
ASCII
DATASET UNSTRUCTURED_GRID
FIELD FieldData 1
TIME 1 1 double
0.0
POINTS 187 double
-0.525731112119 0.0 -0.850650808352
-0.809016994375 -0.309016994375 -0.5
-0.809016994375 0.309016994375 -0.5
-1.0 0.0 0.0
-0.850650808352 0.525731112119 0.0
-0.5 -0.809016994375 -0.309016994375
0.0 -1.0 0.0
-0.5 -0.809016994375 0.309016994375
0.0 -0.850650808352 0.525731112119
-0.309016994375 -0.5 0.809016994375
0.0 0.850650808352 0.525731112119
0.0 0.961938357784 0.273266528913
-0.259891913008 0.862668480416 0.433888564553
-0.26286555606 0.951056516295 0.162459848116
-0.5 0.809016994375 0.309016994375
-0.26286555606 0.951056516295 -0.162459848116
-0.525731112119 0.850650808352 0.0
-0.702046444776 0.69378047756 0.16062203564
-0.702046444776 0.69378047756 -0.16062203564
-0.5 0.809016994375 -0.309016994375
-0.16062203564 0.702046444776 0.69378047756
-0.425325404176 0.688190960236 0.587785252292
-0.309016994375 0.5 0.809016994375
-0.688190960236 0.587785252292 0.425325404176
-0.587785252292 0.425325404176 0.688190960236
-0.809016994375 0.309016994375 0.5
-0.862668480416 0.433888564553 0.259891913008
-0.525731112119 0.0 0.850650808352
0.309016994375 0.5 0.809016994375
0.525731112119 0.0 0.850650808352
0.433888564553 -0.259891913008 0.862668480416
0.69378047756 -0.16062203564 0.702046444776
0.587785252292 -0.425325404176 0.688190960236
0.309016994375 -0.5 0.809016994375
0.809016994375 -0.309016994375 0.5
0.425325404176 -0.688190960236 0.587785252292
0.688190960236 -0.587785252292 0.425325404176
0.5 -0.809016994375 0.309016994375
0.862668480416 -0.433888564553 0.259891913008
0.702046444776 -0.69378047756 0.16062203564
0.961938357784 -0.273266528913 0.0
0.951056516295 -0.162459848116 0.26286555606
1.0 0.0 0.0
0.951056516295 0.162459848116 0.26286555606
0.850650808352 0.0 0.525731112119
0.809016994375 0.309016994375 0.5
0.69378047756 0.16062203564 0.702046444776
0.809016994375 -0.309016994375 -0.5
0.850650808352 0.0 -0.525731112119
0.951056516295 -0.162459848116 -0.26286555606
0.951056516295 0.162459848116 -0.26286555606
0.809016994375 0.309016994375 -0.5
0.69378047756 -0.16062203564 -0.702046444776
0.69378047756 0.16062203564 -0.702046444776
0.525731112119 0.0 -0.850650808352
0.961938357784 0.273266528913 0.0
0.862668480416 0.433888564553 -0.259891913008
0.850650808352 0.525731112119 0.0
0.688190960236 0.587785252292 -0.425325404176
0.702046444776 0.69378047756 -0.16062203564
0.587785252292 0.425325404176 -0.688190960236
0.425325404176 0.688190960236 -0.587785252292
0.309016994375 0.5 -0.809016994375
0.5 0.809016994375 -0.309016994375
0.433888564553 0.259891913008 -0.862668480416
0.0 0.850650808352 -0.525731112119
-0.162459848116 0.26286555606 0.951056516295
0.0 0.525731112119 0.850650808352
0.162459848116 0.26286555606 0.951056516295
-0.433888564553 0.259891913008 0.862668480416
-0.273266528913 0.0 0.961938357784
0.433888564553 0.259891913008 0.862668480416
0.273266528913 0.0 0.961938357784
-0.433888564553 -0.259891913008 0.862668480416
-0.162459848116 -0.26286555606 0.951056516295
0.0 -0.525731112119 0.850650808352
0.162459848116 -0.26286555606 0.951056516295
0.433888564553 -0.259891913008 -0.862668480416
0.273266528913 0.0 -0.961938357784
0.162459848116 -0.26286555606 -0.951056516295
0.309016994375 -0.5 -0.809016994375
0.0 -0.525731112119 -0.850650808352
-0.309016994375 -0.5 -0.809016994375
-0.162459848116 -0.26286555606 -0.951056516295
0.0 -0.850650808352 -0.525731112119
-0.433888564553 -0.259891913008 -0.862668480416
-0.273266528913 0.0 -0.961938357784
-0.433888564553 0.259891913008 -0.862668480416
-0.809016994375 -0.309016994375 0.5
0.587785252292 -0.425325404176 -0.688190960236
0.688190960236 -0.587785252292 -0.425325404176
0.425325404176 -0.688190960236 -0.587785252292
0.5 -0.809016994375 -0.309016994375
0.862668480416 -0.433888564553 -0.259891913008
0.702046444776 -0.69378047756 -0.16062203564
0.850650808352 -0.525731112119 0.0
0.162459848116 0.26286555606 -0.951056516295
-0.162459848116 0.26286555606 -0.951056516295
-0.309016994375 0.5 -0.809016994375
0.0 0.525731112119 -0.850650808352
0.990438881957 -0.137952242128 0.0
0.917539630891 -0.301683612961 -0.259052163504
0.915043421233 -0.403355348617 0.0
0.78384304242 -0.615642020874 0.0810862934433
0.622785464303 -0.778605872826 -0.0768840702267
0.5 0.809016994375 0.309016994375
0.425325404176 0.688190960236 0.587785252292
0.688190960236 0.587785252292 0.425325404176
0.587785252292 0.425325404176 0.688190960236
-0.850650808352 -0.525731112119 0.0
-0.961938357784 -0.273266528913 0.0
-0.16062203564 0.702046444776 -0.69378047756
-0.259891913008 0.862668480416 -0.433888564553
-0.425325404176 0.688190960236 -0.587785252292
-0.587785252292 0.425325404176 -0.688190960236
-0.688190960236 0.587785252292 -0.425325404176
-0.702046444776 -0.69378047756 0.16062203564
0.0 -0.961938357784 -0.273266528913
-0.862668480416 -0.433888564553 0.259891913008
-0.688190960236 -0.587785252292 0.425325404176
-0.850650808352 0.0 0.525731112119
-0.951056516295 0.162459848116 0.26286555606
-0.951056516295 -0.162459848116 0.26286555606
-0.425325404176 -0.688190960236 -0.587785252292
-0.587785252292 -0.425325404176 -0.688190960236
-0.688190960236 -0.587785252292 -0.425325404176
0.259891913008 -0.862668480416 -0.433888564553
0.26286555606 -0.951056516295 -0.162459848116
0.525731112119 -0.850650808352 0.0
0.26286555606 -0.951056516295 0.162459848116
0.259052163504 0.917539630891 0.301683612961
0.0 0.990438881957 0.137952242128
0.0 1.0 0.0
-0.133071104141 0.987688340595 -0.0822424652791
-0.386187385588 0.891006524188 -0.238676930319
-0.135045378369 0.925614793411 -0.353553390593
0.0 0.961938357784 -0.273266528913
0.862668480416 0.433888564553 0.259891913008
0.78384304242 0.615642020874 -0.0810862934433
0.606825149272 0.758652300163 -0.237086325351
0.259891913008 0.862668480416 -0.433888564553
0.78384304242 0.615642020874 0.0810862934433
0.711281734962 0.702907030488 0.0
0.702046444776 0.69378047756 0.16062203564
0.620239582613 0.78020437071 -0.08114185162
0.620239582613 0.78020437071 0.08114185162
0.525731112119 0.850650808352 0.0
0.519258489728 0.840177885327 -0.15643446504
0.606825149272 0.758652300163 0.237086325351
0.519258489728 0.840177885327 0.15643446504
0.386187385588 0.891006524188 -0.238676930319
0.399607051702 0.912982492932 -0.0823235800317
0.26286555606 0.951056516295 -0.162459848116
0.266404701135 0.963861263467 0.0
0.399607051702 0.912982492932 0.0823235800317
0.26286555606 0.951056516295 0.162459848116
0.133071104141 0.987688340595 -0.0822424652791
0.133071104141 0.987688340595 0.0822424652791
0.386187385588 0.891006524188 0.238676930319
0.135045378369 0.925614793411 -0.353553390593
0.0 0.266404701135 0.963861263467
-0.0822424652791 0.133071104141 0.987688340595
0.0822424652791 0.133071104141 0.987688340595
0.0 0.0 1.0
-0.220117027473 0.132792476828 0.966392597402
-0.137952242128 0.0 0.990438881957
0.220117027473 0.132792476828 0.966392597402
0.137952242128 0.0 0.990438881957
-0.220117027473 -0.132792476828 0.966392597402
-0.0822424652791 -0.133071104141 0.987688340595
0.0 -0.266404701135 0.963861263467
0.0822424652791 -0.133071104141 0.987688340595
0.0822424652791 -0.133071104141 -0.987688340595
0.0 0.0 -1.0
0.0 -0.266404701135 -0.963861263467
-0.0822424652791 -0.133071104141 -0.987688340595
-0.137952242128 0.0 -0.990438881957
-0.220117027473 -0.132792476828 -0.966392597402
0.782888506207 0.519553709322 0.342271135182
0.0822424652791 0.133071104141 -0.987688340595
-0.0822424652791 0.133071104141 -0.987688340595
0.0 0.266404701135 -0.963861263467
-0.220117027473 0.132792476828 -0.966392597402
0.132792476828 0.966392597402 0.220117027473
0.224799542734 -0.134651124684 0.965056599484
0.301258879093 -0.264082750659 0.916244175191
0.358228793487 -0.131655371352 0.924304600611

CELLS 370 1480
3 0 1 2
3 1 3 2
3 2 3 4
3 5 6 7
3 7 6 8
3 7 8 9
3 10 11 12
3 11 13 12
3 12 13 14
3 15 16 13
3 13 16 14
3 14 16 17
3 16 18 17
3 16 19 18
3 17 18 4
3 10 12 20
3 12 21 20
3 12 14 21
3 20 21 22
3 14 23 21
3 23 24 21
3 23 25 24
3 21 24 22
3 14 17 23
3 17 26 23
3 17 4 26
3 23 26 25
3 24 25 27
3 10 20 28
3 29 30 31
3 30 32 31
3 30 33 32
3 31 32 34
3 33 35 32
3 35 36 32
3 35 37 36
3 32 36 34
3 37 35 8
3 8 35 33
3 34 36 38
3 36 39 38
3 36 37 39
3 40 41 38
3 38 41 34
3 42 43 41
3 43 44 41
3 43 45 44
3 41 44 34
3 34 44 31
3 44 46 31
3 44 45 46
3 31 46 29
3 4 18 2
3 26 4 3
3 47 48 49
3 48 50 49
3 48 51 50
3 49 50 42
3 47 52 48
3 52 53 48
3 52 54 53
3 48 53 51
3 42 50 55
3 50 56 55
3 50 51 56
3 55 56 57
3 56 58 59
3 56 51 58
3 51 60 58
3 60 61 58
3 60 62 61
3 58 61 63
3 51 53 60
3 53 64 60
3 53 54 64
3 60 64 62
3 61 62 65
3 22 66 67
3 67 68 28
3 22 69 66
3 69 27 70
3 28 68 71
3 71 72 29
3 27 73 70
3 73 9 74
3 9 75 74
3 75 33 76
3 33 75 8
3 8 75 9
3 54 77 78
3 77 79 78
3 77 80 79
3 80 81 79
3 81 82 83
3 82 81 84
3 84 81 80
3 83 82 85
3 86 85 0
3 87 0 2
3 9 73 88
3 88 73 27
3 0 85 1
3 54 52 77
3 52 89 77
3 52 47 89
3 77 89 80
3 47 90 89
3 90 91 89
3 90 92 91
3 89 91 80
3 47 93 90
3 93 94 90
3 93 95 94
3 90 94 92
3 80 91 84
3 54 78 64
3 78 96 64
3 64 96 62
3 97 98 99
3 96 99 62
3 86 0 87
3 97 87 98
3 62 99 65
3 42 100 49
3 100 101 49
3 100 40 101
3 49 101 47
3 47 101 93
3 101 102 93
3 101 40 102
3 93 102 95
3 27 69 24
3 24 69 22
3 22 67 20
3 20 67 28
3 39 103 38
3 38 103 95
3 95 102 38
3 102 40 38
3 40 100 41
3 100 42 41
3 42 55 43
3 43 55 57
3 28 71 46
3 46 71 29
3 95 103 94
3 103 104 94
3 103 39 104
3 94 104 92
3 104 39 37
3 105 106 107
3 106 108 107
3 106 28 108
3 107 108 45
3 28 106 10
3 10 106 105
3 109 110 1
3 1 110 3
3 65 111 112
3 111 113 112
3 111 98 113
3 112 113 19
3 98 114 113
3 114 115 113
3 114 2 115
3 113 115 19
3 7 116 5
3 5 116 109
3 84 117 5
3 5 117 6
3 109 116 118
3 116 119 118
3 116 7 119
3 118 119 88
3 88 119 9
3 9 119 7
3 25 120 27
3 27 120 88
3 25 121 120
3 121 122 120
3 121 3 122
3 120 122 88
3 88 122 118
3 122 110 118
3 122 3 110
3 118 110 109
3 82 123 124
3 123 125 124
3 123 5 125
3 124 125 1
3 5 123 84
3 84 123 82
3 1 125 109
3 125 5 109
3 84 126 117
3 126 127 117
3 126 92 127
3 117 127 6
3 92 128 127
3 128 129 127
3 128 37 129
3 127 129 6
3 6 129 8
3 129 37 8
3 105 130 10
3 130 11 10
3 11 131 13
3 131 132 13
3 132 133 13
3 133 15 13
3 15 134 16
3 134 19 16
3 19 134 112
3 134 135 112
3 134 15 135
3 112 135 65
3 65 135 136
3 135 133 136
3 135 15 133
3 136 133 132
3 57 137 43
3 43 137 45
3 45 108 46
3 46 108 28
3 19 115 18
3 18 115 2
3 3 121 26
3 26 121 25
3 59 138 56
3 56 138 57
3 63 139 58
3 58 139 59
3 65 140 61
3 61 140 63
3 57 138 141
3 138 142 141
3 138 59 142
3 141 142 143
3 59 144 142
3 144 145 142
3 144 146 145
3 142 145 143
3 59 139 144
3 139 147 144
3 139 63 147
3 144 147 146
3 143 145 148
3 145 149 148
3 145 146 149
3 148 149 105
3 63 150 147
3 150 151 147
3 150 152 151
3 147 151 146
3 152 153 151
3 153 154 151
3 153 155 154
3 151 154 146
3 152 156 153
3 156 157 153
3 156 132 157
3 153 157 155
3 146 154 149
3 154 158 149
3 154 155 158
3 149 158 105
3 132 156 136
3 156 159 136
3 156 152 159
3 136 159 65
3 65 159 140
3 159 150 140
3 159 152 150
3 140 150 63
3 66 160 67
3 160 68 67
3 66 161 160
3 161 162 160
3 161 163 162
3 160 162 68
3 70 164 69
3 69 164 66
3 66 164 161
3 164 165 161
3 164 70 165
3 161 165 163
3 68 166 71
3 166 72 71
3 68 162 166
3 162 167 166
3 162 163 167
3 166 167 72
3 74 168 73
3 73 168 70
3 70 168 165
3 168 169 165
3 168 74 169
3 165 169 163
3 76 170 75
3 75 170 74
3 74 170 169
3 170 171 169
3 170 76 171
3 169 171 163
3 79 172 78
3 78 172 173
3 83 174 81
3 81 174 79
3 79 174 172
3 174 175 172
3 174 83 175
3 172 175 173
3 173 175 176
3 175 177 176
3 175 83 177
3 176 177 86
3 86 177 85
3 85 177 83
3 57 141 137
3 141 178 137
3 141 143 178
3 137 178 45
3 143 148 178
3 148 107 178
3 148 105 107
3 178 107 45
3 2 114 87
3 87 114 98
3 82 124 85
3 85 124 1
3 92 126 91
3 91 126 84
3 173 179 78
3 78 179 96
3 173 180 179
3 180 181 179
3 180 97 181
3 179 181 96
3 96 181 99
3 99 181 97
3 173 176 180
3 176 182 180
3 176 86 182
3 180 182 97
3 97 182 87
3 87 182 86
3 98 111 99
3 99 111 65
3 105 158 130
3 158 183 130
3 158 155 183
3 130 183 11
3 11 183 131
3 183 157 131
3 183 155 157
3 131 157 132
3 163 171 184
3 171 185 184
3 171 76 185
3 184 185 30
3 30 185 33
3 185 76 33
3 72 186 29
3 29 186 30
3 30 186 184
3 186 167 184
3 186 72 167
3 184 167 163
3 37 128 104
3 104 128 92

CELL_TYPES 370
5
5
5
5
5
5
5
5
5
5
5
5
5
5
5
5
5
5
5
5
5
5
5
5
5
5
5
5
5
5
5
5
5
5
5
5
5
5
5
5
5
5
5
5
5
5
5
5
5
5
5
5
5
5
5
5
5
5
5
5
5
5
5
5
5
5
5
5
5
5
5
5
5
5
5
5
5
5
5
5
5
5
5
5
5
5
5
5
5
5
5
5
5
5
5
5
5
5
5
5
5
5
5
5
5
5
5
5
5
5
5
5
5
5
5
5
5
5
5
5
5
5
5
5
5
5
5
5
5
5
5
5
5
5
5
5
5
5
5
5
5
5
5
5
5
5
5
5
5
5
5
5
5
5
5
5
5
5
5
5
5
5
5
5
5
5
5
5
5
5
5
5
5
5
5
5
5
5
5
5
5
5
5
5
5
5
5
5
5
5
5
5
5
5
5
5
5
5
5
5
5
5
5
5
5
5
5
5
5
5
5
5
5
5
5
5
5
5
5
5
5
5
5
5
5
5
5
5
5
5
5
5
5
5
5
5
5
5
5
5
5
5
5
5
5
5
5
5
5
5
5
5
5
5
5
5
5
5
5
5
5
5
5
5
5
5
5
5
5
5
5
5
5
5
5
5
5
5
5
5
5
5
5
5
5
5
5
5
5
5
5
5
5
5
5
5
5
5
5
5
5
5
5
5
5
5
5
5
5
5
5
5
5
5
5
5
5
5
5
5
5
5
5
5
5
5
5
5
5
5
5
5
5
5
5
5
5
5
5
5
5
5
5
5
5
5
5
5
5
5
5
5
5
5
5
5
5
5
5
5
5
5
5
5
5
5
5
5
5
5

CELL_DATA 370
SCALARS cell_data_0 double
LOOKUP_TABLE default
3.61713305484e-05
7.20557516205e-05
9.47086940778e-05
1.34205820638e-05
5.78273339812e-05
6.67324801424e-06
2.63023428705e-06
4.42341148014e-06
4.31355339669e-06
2.15873803201e-05
7.12375160826e-06
7.08525147094e-06
7.97099792233e-06
1.2724151303e-05
2.63789160226e-05
3.13984989356e-06
6.81261316715e-06
5.42069589804e-08
1.4838993931e-05
5.74215276972e-06
7.48675591932e-06
2.94775449123e-05
1.18861147116e-05
1.09468251154e-05
3.77378426512e-05
5.52852368516e-05
5.08317250045e-05
1.4064671482e-05
3.78665556493e-05
2.81782334879e-05
2.4269393208e-05
2.65558681851e-05
4.5976084336e-07
2.13597549385e-05
1.29870742759e-05
1.53226002682e-05
8.09041400509e-06
7.37689877349e-05
6.6007905932e-06
2.72976652981e-05
1.14473584068e-05
2.36659976399e-05
2.83148629498e-05
5.89839852199e-05
2.0864923733e-05
5.22483124898e-05
2.91767045015e-05
9.02748649952e-05
3.17210424602e-05
3.09138284836e-06
2.00110948859e-05
2.16235712235e-05
3.78915998253e-05
0.000108239710096
8.28042702947e-05
0.000187622938624
0.000113043596388
9.06147244104e-05
5.56692086692e-05
0.000119268357588
2.48668413711e-05
8.33662623681e-05
8.03898422904e-05
0.000177598846174
0.000108758964444
9.99542554675e-05
0.000170164320916
0.000103318332227
6.25846530074e-05
0.000148572730296
3.50684718113e-05
0.00010566406449
4.6850506428e-05
5.78615740116e-05
1.04855887116e-05
5.10276128331e-06
2.18793516429e-05
2.05845515744e-05
3.50118413688e-05
2.73376401813e-05
2.200586066e-05
3.50449527996e-05
4.14891476018e-05
3.14736336713e-05
3.81421843427e-05
4.65035593149e-05
4.66314972732e-05
2.46516169364e-05
1.84898545616e-05
4.03196695609e-05
4.96217291517e-05
3.89027008431e-05
2.5035463321e-05
1.10120267351e-05
4.59015821806e-06
2.77898902911e-05
7.57407550174e-06
3.71674665895e-05
5.14955753911e-05
4.61762035922e-05
4.9089457408e-05
1.58567953217e-05
2.17608246147e-05
1.54037192198e-05
1.30244303732e-06
2.06113486128e-05
1.05071490484e-05
1.40570785007e-05
7.407561016e-06
1.09258081746e-05
3.86755893614e-06
1.73051754646e-06
7.80055897372e-07
1.10503676439e-06
1.61709422005e-05
4.16457749502e-05
5.49814818972e-05
3.61329996184e-05
4.7044798067e-05
4.58203150951e-05
4.25929357998e-05
3.83086866759e-05
4.30083880604e-05
1.11036451892e-05
1.0125980809e-05
2.80245194132e-07
9.20230742483e-06
1.04206588662e-06
2.83434660775e-06
3.16827182237e-06
3.71462869091e-06
1.76420117357e-05
8.36733692548e-06
4.28192355868e-06
1.29960333158e-05
8.17878291245e-06
5.25435108009e-06
8.74151588018e-06
8.26571507516e-06
8.97161053831e-06
9.30493773063e-06
2.3983379448e-05
3.01346493391e-05
2.11245225344e-05
1.99066473438e-05
2.19274923468e-06
5.08229623344e-06
7.31268516307e-06
3.7364143423e-06
3.52574615485e-05
1.53959007885e-06
6.39185787898e-06
1.62135236232e-05
3.8767607857e-06
2.08261728297e-05
4.48467470999e-07
4.04594954525e-05
4.11919585131e-05
4.85133510422e-06
7.45832597294e-06
1.56027241707e-05
6.28866661226e-06
1.90409713075e-05
1.06218613674e-05
7.24727220519e-06
5.28345184307e-06
8.41625864562e-06
1.84805046204e-05
2.85536807078e-06
9.14210930713e-06
1.19480783421e-05
6.06671437715e-06
6.10854226465e-06
7.23835626506e-07
3.20503979862e-05
2.16669623152e-05
1.67880306149e-05
3.31591605543e-05
9.14083742675e-06
4.98178932098e-06
4.69478435763e-06
6.03895942625e-06
2.07178420415e-06
1.001696299e-06
5.8753238666e-06
7.16966435242e-06
1.71319982815e-05
1.34801457566e-05
4.98302582179e-06
3.72325137215e-06
1.39063465143e-05
2.64175018619e-05
3.24752934577e-05
3.48156712371e-06
2.03752999006e-06
3.97890685064e-06
1.95064286786e-06
7.11212243682e-06
7.40552777101e-07
1.40255757058e-06
2.43025418308e-05
9.91096619102e-07
3.75003438868e-05
8.42590803713e-05
2.71178091186e-06
1.1141838358e-06
1.34858129057e-06
1.18193065553e-06
1.88621937987e-06
8.32381421774e-06
9.6307833856e-06
8.62040953261e-06
4.89166797235e-06
1.36352084299e-08
4.76902708515e-06
1.03747965898e-07
4.19755452625e-07
8.7305336516e-07
4.13080882866e-06
9.51090476781e-08
3.65372822893e-06
4.40628357972e-06
5.9829107758e-06
2.42571484616e-05
6.9551419749e-06
1.43872435216e-06
2.62640205065e-05
3.68618292762e-05
4.33265467906e-05
2.85074285586e-05
1.72806421985e-05
3.6960037335e-05
3.09200128991e-05
2.97920974697e-05
1.30792910111e-06
1.10475850382e-07
5.85114217826e-06
1.28637698615e-05
6.05405374316e-06
2.39246402576e-07
1.16692883511e-05
1.38301205252e-05
5.52633423683e-06
1.6854480402e-07
2.03175731736e-07
1.08189695539e-05
1.30457663959e-05
3.9961327087e-08
1.11880289656e-05
1.34970802493e-07
2.73523849588e-07
1.21470816296e-07
5.21895863169e-06
1.31012562338e-05
5.72735135807e-06
8.10784584817e-08
6.92772851118e-06
1.38007969439e-05
5.45388711422e-06
4.37394831516e-07
5.14390295876e-07
7.22637046021e-06
1.27999069947e-05
1.30388615676e-05
2.47940818782e-05
1.26667451997e-05
2.22141067756e-07
2.48081445267e-05
4.11329962017e-05
2.60320293854e-05
2.48923431132e-05
2.29190304186e-05
4.01044428225e-05
1.48513479196e-06
1.58509669374e-06
9.00921919438e-06
2.40235146201e-06
1.85698175754e-06
1.44891730589e-05
1.05226682529e-05
3.06709645818e-06
7.23006227789e-06
1.67651279708e-06
1.4984638192e-06
4.90616586446e-07
1.19631603081e-05
1.39158995006e-05
1.63585356115e-05
8.41454308327e-06
1.94121507284e-06
1.37767352244e-05
9.41322492547e-06
2.10586169348e-05
6.26980921519e-06
2.87635074553e-07
2.39801174217e-06
9.75829114577e-06
1.4020998353e-05
2.6770502279e-05
2.62169198327e-05
1.15941663773e-05
3.88704909622e-10
1.04865163384e-05
1.53997088596e-05
3.32026434846e-05
3.43052585912e-05
1.3380510064e-05
1.73022034123e-05
1.13229128142e-05
1.73227847803e-06
6.45593007618e-07
8.44550546007e-06
8.55956766417e-06
4.61943116068e-07
9.2247617931e-07
6.14161566733e-06
1.32682094549e-05
5.25202383889e-07
2.26409880945e-06
6.49726086207e-08
2.4891314995e-05
2.35560275996e-06
2.43266083096e-05
1.79250642198e-07
6.40185827877e-07
2.35864692217e-06
1.92378167283e-05
2.49893398942e-05
1.40595112665e-05
5.52829520715e-06
5.74718288352e-06
9.04683379139e-06
3.50045126957e-05
3.15179480645e-05
1.01414642929e-05
6.32686671298e-07
1.19204489533e-05
9.8954086844e-06
2.50989142638e-05
2.69531830929e-05
8.57993900929e-06
5.36119657531e-07
6.17080504694e-06
9.7763756705e-06
2.49663809193e-05
2.31640467358e-05
2.32164312874e-05
1.31136722762e-05
1.10753854358e-05
1.1604003558e-05
2.07807683278e-05
2.20089184016e-08
1.50254015444e-07
2.20900796977e-07
6.05027864592e-06
3.45739652651e-07
1.27148679705e-05
2.49758442274e-07
1.03523947524e-05
6.34984321047e-06
1.4981716382e-05
1.93121438639e-05
2.0874243199e-05
1.68712802918e-05
6.21361789027e-06
2.33411356058e-06
1.12147754982e-05
1.39597296356e-05
1.52491597373e-05
3.54044014214e-06

