# vtk DataFile Version 3.0
File Name: Molecule/sphere_dip_12/sphere_dip_12_0-s5.vtk
ASCII
DATASET UNSTRUCTURED_GRID
FIELD FieldData 1
TIME 1 1 double
0.0
POINTS 82 double
0.850650808352 -0.525731112119 0.0
0.809016994375 -0.309016994375 -0.5
1.0 0.0 0.0
0.809016994375 0.309016994375 -0.5
0.525731112119 0.0 -0.850650808352
0.850650808352 0.525731112119 0.0
0.5 0.809016994375 -0.309016994375
0.309016994375 0.5 -0.809016994375
0.0 0.850650808352 -0.525731112119
0.5 0.809016994375 0.309016994375
0.0 1.0 0.0
0.0 0.850650808352 0.525731112119
-0.309016994375 0.5 0.809016994375
0.309016994375 0.5 0.809016994375
0.0 0.0 1.0
0.525731112119 0.0 0.850650808352
0.309016994375 -0.5 -0.809016994375
0.0 0.0 -1.0
-0.309016994375 -0.5 -0.809016994375
0.0 -0.850650808352 -0.525731112119
-0.525731112119 0.0 -0.850650808352
0.809016994375 0.309016994375 0.5
-0.809016994375 -0.309016994375 -0.5
-0.809016994375 0.309016994375 -0.5
-1.0 0.0 0.0
-0.850650808352 -0.525731112119 0.0
-0.309016994375 0.5 -0.809016994375
-0.5 0.809016994375 -0.309016994375
-0.850650808352 0.525731112119 0.0
-0.5 -0.809016994375 -0.309016994375
-0.5 -0.809016994375 0.309016994375
0.0 -1.0 0.0
0.5 -0.809016994375 -0.309016994375
0.5 -0.809016994375 0.309016994375
0.0 -0.850650808352 0.525731112119
0.417374053247 -0.25 0.829833901363
0.667374053247 -0.154508497188 0.675325404176
0.559016994375 -0.404508497188 0.654508497187
0.309016994375 -0.5 0.809016994375
0.809016994375 -0.309016994375 0.5
0.404508497188 -0.654508497187 0.559016994375
0.654508497187 -0.559016994375 0.404508497188
0.829833901363 -0.417374053247 0.25
0.675325404176 -0.667374053247 0.154508497188
0.809016994375 0.0 0.5
0.667374053247 0.154508497188 0.675325404176
-0.26286555606 0.0 0.925325404176
-0.525731112119 0.0 0.850650808352
-0.417374053247 -0.25 0.829833901363
-0.154508497188 -0.25 0.904508497187
-0.309016994375 -0.5 0.809016994375
0.0 -0.5 0.809016994375
0.154508497188 -0.25 0.904508497187
-0.154508497188 -0.675325404176 0.667374053247
0.154508497188 -0.675325404176 0.667374053247
-0.25 -0.829833901363 0.417374053247
-0.654508497187 -0.559016994375 0.404508497188
-0.809016994375 -0.309016994375 0.5
-0.404508497188 -0.654508497187 0.559016994375
-0.559016994375 -0.404508497188 0.654508497187
-0.667374053247 -0.154508497188 0.675325404176
-0.675325404176 0.667374053247 0.154508497188
-0.404508497188 0.654508497187 0.559016994375
-0.5 0.809016994375 0.309016994375
-0.654508497187 0.559016994375 0.404508497188
-0.559016994375 0.404508497188 0.654508497187
-0.809016994375 0.309016994375 0.5
-0.829833901363 0.417374053247 0.25
-0.417374053247 0.25 0.829833901363
-0.667374053247 0.154508497188 0.675325404176
-0.925325404176 0.26286555606 0.0
-0.904508497187 0.154508497188 0.25
-0.809016994375 0.0 0.5
-0.904508497187 -0.154508497188 0.25
0.0 0.925325404176 0.26286555606
-0.25 0.829833901363 0.417374053247
-0.25 0.904508497187 0.154508497188
-0.25 0.904508497187 -0.154508497188
-0.5 0.809016994375 0.0
0.154508497188 0.25 -0.904508497187
-0.154508497188 0.25 -0.904508497187
0.0 0.5 -0.809016994375

CELLS 160 640
3 0 1 2
3 1 3 2
3 1 4 3
3 2 3 5
3 5 3 6
3 3 7 6
3 3 4 7
3 6 7 8
3 5 6 9
3 6 10 9
3 6 8 10
3 11 12 13
3 12 14 13
3 13 14 15
3 4 16 17
3 16 18 17
3 16 19 18
3 17 18 20
3 2 5 21
3 5 9 21
3 9 13 21
3 9 11 13
3 20 22 23
3 22 24 23
3 22 25 24
3 8 26 27
3 26 23 27
3 26 20 23
3 27 23 28
3 25 29 30
3 29 31 30
3 29 19 31
3 20 18 22
3 18 29 22
3 18 19 29
3 22 29 25
3 19 32 31
3 32 33 31
3 31 33 34
3 4 1 16
3 1 32 16
3 1 0 32
3 16 32 19
3 14 35 15
3 15 35 36
3 35 37 36
3 35 38 37
3 36 37 39
3 38 40 37
3 40 41 37
3 40 33 41
3 37 41 39
3 33 40 34
3 39 41 42
3 41 43 42
3 41 33 43
3 42 43 0
3 39 42 2
3 2 42 0
3 21 44 2
3 2 44 39
3 39 44 36
3 44 45 36
3 44 21 45
3 36 45 15
3 15 45 13
3 13 45 21
3 0 43 32
3 32 43 33
3 12 46 14
3 47 48 46
3 48 49 46
3 48 50 49
3 46 49 14
3 50 51 49
3 51 52 49
3 51 38 52
3 49 52 14
3 50 53 51
3 53 54 51
3 53 34 54
3 51 54 38
3 34 55 31
3 31 55 30
3 30 56 25
3 25 56 57
3 30 58 56
3 58 59 56
3 58 50 59
3 56 59 57
3 30 55 58
3 55 53 58
3 55 34 53
3 58 53 50
3 57 59 60
3 59 48 60
3 59 50 48
3 60 48 47
3 14 52 35
3 35 52 38
3 38 54 40
3 40 54 34
3 28 61 27
3 11 62 12
3 63 64 62
3 64 65 62
3 64 66 65
3 62 65 12
3 63 61 64
3 61 67 64
3 61 28 67
3 64 67 66
3 12 65 68
3 65 69 68
3 65 66 69
3 68 69 47
3 24 70 23
3 23 70 28
3 66 71 72
3 71 73 72
3 71 24 73
3 72 73 57
3 66 67 71
3 67 70 71
3 67 28 70
3 71 70 24
3 57 73 25
3 73 24 25
3 12 68 46
3 46 68 47
3 66 72 60
3 60 72 57
3 47 69 60
3 60 69 66
3 10 74 9
3 9 74 11
3 11 74 75
3 74 76 75
3 74 10 76
3 75 76 63
3 10 77 76
3 77 78 76
3 77 27 78
3 76 78 63
3 27 77 8
3 8 77 10
3 17 79 4
3 4 79 7
3 17 80 79
3 80 81 79
3 80 26 81
3 79 81 7
3 26 80 20
3 20 80 17
3 7 81 8
3 81 26 8
3 63 78 61
3 61 78 27
3 11 75 62
3 62 75 63

CELL_TYPES 160
5
5
5
5
5
5
5
5
5
5
5
5
5
5
5
5
5
5
5
5
5
5
5
5
5
5
5
5
5
5
5
5
5
5
5
5
5
5
5
5
5
5
5
5
5
5
5
5
5
5
5
5
5
5
5
5
5
5
5
5
5
5
5
5
5
5
5
5
5
5
5
5
5
5
5
5
5
5
5
5
5
5
5
5
5
5
5
5
5
5
5
5
5
5
5
5
5
5
5
5
5
5
5
5
5
5
5
5
5
5
5
5
5
5
5
5
5
5
5
5
5
5
5
5
5
5
5
5
5
5
5
5
5
5
5
5
5
5
5
5
5
5
5
5
5
5
5
5
5
5
5
5
5
5
5
5
5
5
5
5

CELL_DATA 160
SCALARS cell_data_0 double
LOOKUP_TABLE default
6.06455671369e-05
0.000348527980959
0.000139229333875
0.000478878794093
0.000397363758573
0.000402499968705
0.000165774894968
1.89648249944e-05
0.00199028437181
0.0031465472148
0.000307194559942
3.76171967069e-05
0.00024247698681
6.62597792626e-05
0.00081876426348
0.000820147354253
0.000344933372709
0.000690061964596
0.000182898604752
0.00192074378044
0.00214252955842
0.0019676599217
0.000246568963123
9.16742947164e-05
1.520790791e-05
1.10845530632e-05
1.73759654768e-05
0.000387411182349
0.00023074296269
3.91759495382e-05
2.34373619466e-05
6.95521606011e-07
0.000362593356857
0.000288224184834
0.000187017402444
6.1086492772e-05
2.52107487836e-05
3.39421512733e-05
8.26945254377e-06
0.000300764544302
0.000250174437097
3.86690347307e-05
0.000164266049563
1.05471345688e-05
5.15425225113e-05
2.85744318482e-05
3.68812697855e-05
3.40744868026e-07
7.66922333094e-05
5.88910474055e-05
7.48725015532e-05
7.47752267203e-05
5.76320898779e-06
8.3848553859e-05
0.000107502091755
9.6709430789e-05
3.63789918291e-05
7.33099361817e-05
5.05175908821e-05
0.000212349742215
0.000214305998898
5.29548821261e-05
3.21939197804e-05
6.31571095018e-05
7.31286190276e-05
0.000173368891001
2.17266753901e-05
3.14592970515e-05
3.64003164299e-05
0.000141028534032
5.1875225674e-06
4.74106609384e-05
1.66526089844e-05
8.02974434898e-05
5.19453126469e-05
9.33424387191e-05
6.37655409298e-06
9.39269291591e-05
2.05165919165e-05
2.52422886347e-05
8.44090358584e-06
3.75906740407e-05
6.17161683234e-06
1.66129819145e-05
3.13000866772e-05
3.25483629064e-05
2.74350296691e-05
6.32248995523e-08
1.29291124353e-05
1.00375023674e-05
2.0236690832e-05
8.24115194272e-07
2.36490032858e-06
6.93679257353e-06
1.04053823738e-06
9.92974303802e-06
9.04631244004e-06
1.08225360911e-05
7.20308394609e-05
2.53487961883e-06
5.65298905882e-05
6.1615086334e-06
0.000154399738906
9.32849548012e-06
2.90052692139e-05
1.07270348017e-05
1.74848994095e-05
1.85445026053e-05
2.08236972082e-05
3.57518886468e-07
1.74039489786e-06
2.67207117476e-05
1.26513055432e-05
1.26964868523e-05
1.29255626263e-05
8.70438203902e-06
9.83865950666e-06
2.44243469547e-05
2.46717115058e-05
1.69712040285e-06
3.18412524664e-05
1.12931640655e-05
1.91011925717e-05
2.55322624623e-06
9.98781198579e-07
2.63195348663e-05
1.54109589468e-05
4.86799625075e-05
3.49744747587e-05
2.90438112423e-05
1.4121516404e-05
7.1909202793e-06
1.13920654167e-05
1.66550369623e-05
0.00125312399538
0.000928452238598
2.07309082342e-05
1.42640378596e-06
9.3504116335e-05
1.96016410426e-05
0.000109875898125
3.10118756716e-06
0.000110721684551
2.18749428207e-05
0.000126134684492
0.000133862529005
0.000531302496842
1.49576562679e-05
0.000353255658353
4.88614203185e-05
7.92428162435e-05
6.12963204929e-05
0.000329041472289
0.000577721215648
4.19830475302e-06
0.000139011557711
1.39249962876e-05
7.97600795511e-05
1.36251273694e-05
1.81330132548e-05

