# vtk DataFile Version 3.0
File Name: Molecule/sphere_dip_12/sphere_dip_12_0-s3.vtk
ASCII
DATASET UNSTRUCTURED_GRID
FIELD FieldData 1
TIME 1 1 double
0.0
POINTS 63 double
0.850650808352 -0.525731112119 0.0
0.809016994375 -0.309016994375 -0.5
1.0 0.0 0.0
0.809016994375 0.309016994375 -0.5
0.525731112119 0.0 -0.850650808352
0.850650808352 0.525731112119 0.0
0.5 0.809016994375 -0.309016994375
0.309016994375 0.5 -0.809016994375
0.0 0.850650808352 -0.525731112119
0.5 0.809016994375 0.309016994375
0.0 1.0 0.0
0.0 0.850650808352 0.525731112119
-0.5 0.809016994375 0.309016994375
-0.5 0.809016994375 -0.309016994375
-0.850650808352 0.525731112119 0.0
-0.309016994375 0.5 0.809016994375
-0.809016994375 0.309016994375 0.5
-0.525731112119 0.0 0.850650808352
0.309016994375 0.5 0.809016994375
0.0 0.0 1.0
0.525731112119 0.0 0.850650808352
0.309016994375 -0.5 -0.809016994375
0.0 0.0 -1.0
-0.309016994375 -0.5 -0.809016994375
0.0 -0.850650808352 -0.525731112119
-0.525731112119 0.0 -0.850650808352
0.809016994375 0.309016994375 0.5
-0.809016994375 -0.309016994375 -0.5
-0.809016994375 0.309016994375 -0.5
-1.0 0.0 0.0
-0.850650808352 -0.525731112119 0.0
-0.309016994375 0.5 -0.809016994375
-0.5 -0.809016994375 -0.309016994375
-0.5 -0.809016994375 0.309016994375
0.0 -1.0 0.0
-0.809016994375 -0.309016994375 0.5
0.5 -0.809016994375 -0.309016994375
0.5 -0.809016994375 0.309016994375
0.0 -0.850650808352 0.525731112119
0.417374053247 -0.25 0.829833901363
0.667374053247 -0.154508497188 0.675325404176
0.559016994375 -0.404508497188 0.654508497187
0.309016994375 -0.5 0.809016994375
0.809016994375 -0.309016994375 0.5
0.404508497188 -0.654508497187 0.559016994375
0.654508497187 -0.559016994375 0.404508497188
0.829833901363 -0.417374053247 0.25
0.675325404176 -0.667374053247 0.154508497188
0.809016994375 0.0 0.5
0.667374053247 0.154508497188 0.675325404176
-0.26286555606 0.0 0.925325404176
-0.417374053247 -0.25 0.829833901363
-0.154508497188 -0.25 0.904508497187
-0.309016994375 -0.5 0.809016994375
0.0 -0.5 0.809016994375
0.154508497188 -0.25 0.904508497187
-0.154508497188 -0.675325404176 0.667374053247
0.154508497188 -0.675325404176 0.667374053247
-0.25 -0.829833901363 0.417374053247
-0.654508497187 -0.559016994375 0.404508497188
-0.404508497188 -0.654508497187 0.559016994375
-0.559016994375 -0.404508497188 0.654508497187
-0.667374053247 -0.154508497188 0.675325404176

CELLS 122 488
3 0 1 2
3 1 3 2
3 1 4 3
3 2 3 5
3 5 3 6
3 3 7 6
3 3 4 7
3 6 7 8
3 5 6 9
3 6 10 9
3 6 8 10
3 9 10 11
3 11 10 12
3 10 13 12
3 10 8 13
3 12 13 14
3 11 12 15
3 12 16 15
3 12 14 16
3 15 16 17
3 11 15 18
3 15 19 18
3 18 19 20
3 4 21 22
3 21 23 22
3 21 24 23
3 22 23 25
3 2 5 26
3 5 9 26
3 9 18 26
3 9 11 18
3 25 27 28
3 27 29 28
3 27 30 29
3 28 29 14
3 8 31 13
3 31 28 13
3 31 25 28
3 13 28 14
3 30 32 33
3 32 34 33
3 32 24 34
3 16 29 35
3 16 14 29
3 35 29 30
3 25 23 27
3 23 32 27
3 23 24 32
3 27 32 30
3 24 36 34
3 36 37 34
3 34 37 38
3 4 1 21
3 1 36 21
3 1 0 36
3 21 36 24
3 4 22 7
3 22 31 7
3 22 25 31
3 7 31 8
3 19 39 20
3 20 39 40
3 39 41 40
3 39 42 41
3 40 41 43
3 42 44 41
3 44 45 41
3 44 37 45
3 41 45 43
3 37 44 38
3 43 45 46
3 45 47 46
3 45 37 47
3 46 47 0
3 43 46 2
3 2 46 0
3 26 48 2
3 2 48 43
3 43 48 40
3 48 49 40
3 48 26 49
3 40 49 20
3 20 49 18
3 18 49 26
3 0 47 36
3 36 47 37
3 17 50 15
3 15 50 19
3 17 51 50
3 51 52 50
3 51 53 52
3 50 52 19
3 53 54 52
3 54 55 52
3 54 42 55
3 52 55 19
3 53 56 54
3 56 57 54
3 56 38 57
3 54 57 42
3 38 58 34
3 34 58 33
3 33 59 30
3 30 59 35
3 33 60 59
3 60 61 59
3 60 53 61
3 59 61 35
3 33 58 60
3 58 56 60
3 58 38 56
3 60 56 53
3 35 61 62
3 61 51 62
3 61 53 51
3 62 51 17
3 35 62 16
3 16 62 17
3 19 55 39
3 39 55 42
3 42 57 44
3 44 57 38

CELL_TYPES 122
5
5
5
5
5
5
5
5
5
5
5
5
5
5
5
5
5
5
5
5
5
5
5
5
5
5
5
5
5
5
5
5
5
5
5
5
5
5
5
5
5
5
5
5
5
5
5
5
5
5
5
5
5
5
5
5
5
5
5
5
5
5
5
5
5
5
5
5
5
5
5
5
5
5
5
5
5
5
5
5
5
5
5
5
5
5
5
5
5
5
5
5
5
5
5
5
5
5
5
5
5
5
5
5
5
5
5
5
5
5
5
5
5
5
5
5
5
5
5
5
5
5

CELL_DATA 122
SCALARS cell_data_0 double
LOOKUP_TABLE default
3.2250409601e-05
0.000109721131711
0.000139141681631
3.16002739653e-05
2.88472385081e-05
0.000277211412075
0.000320704393594
0.000220363918626
0.000201999257815
0.000230635190224
1.90941423249e-05
0.000248435244421
0.000628427372743
0.000651412889343
2.0852638932e-05
0.00040889059129
0.000978235626209
0.0042044379217
0.00265464202496
0.00225060866518
0.000805433593665
0.000473046091402
0.000470264938379
0.00085352169199
0.00103339035402
0.000247836454032
0.000846511573086
0.000121633934193
0.00017279086942
0.000501883719608
0.000520962932421
0.000247475838713
0.000132449134093
4.97383570647e-05
4.90907029139e-05
0.00019177112839
0.000245916012039
0.000349713450777
3.68399337709e-05
1.91196716509e-05
5.32237810415e-05
4.57718631087e-05
0.00219240329373
0.00175470085025
2.78051474137e-05
0.000297034130243
9.19007535682e-05
2.23564893669e-05
7.83191367475e-05
0.000101546775226
0.000244563065581
0.000183144332445
0.000319816157876
0.000286008188834
6.48554507854e-05
0.000186590943269
0.000872514878627
0.000835077146423
0.000678547166837
0.000350521187438
4.36473213908e-05
5.4634065067e-05
2.35137635268e-05
1.84722284743e-05
9.60825254862e-06
1.51754227211e-05
1.11113246941e-05
1.95184588741e-05
2.09627265118e-05
2.72507008719e-05
1.89868815223e-05
4.0541750513e-07
2.57862423869e-05
5.28208944859e-06
4.80280624802e-05
1.04482813911e-05
4.66912300888e-05
7.61288989457e-05
1.67893284647e-05
3.46897845237e-05
7.14798171206e-05
0.000138332011828
0.000548233602496
0.000304457697751
1.12884812218e-05
5.96713770484e-05
4.8550623362e-05
1.41315986412e-05
9.61559728913e-06
4.7683975963e-05
9.25450047648e-05
6.37322760173e-05
6.79241533432e-05
6.04081608363e-05
5.44301563274e-06
7.18594580909e-05
0.000105944092588
7.21262920895e-09
2.72630284358e-06
3.89075140334e-06
4.74956285924e-05
4.65658879079e-05
4.95114916182e-06
1.78074425177e-05
3.67657244665e-06
3.19432164562e-06
0.000110151003924
1.14888420792e-05
4.16158336284e-06
2.28019151534e-06
2.33662916467e-06
9.34360256218e-05
1.2355370186e-05
2.42371753687e-05
0.000145069554581
1.36026402239e-05
0.000946910835369
0.000831395026728
5.0893673319e-05
1.61581007169e-05
9.11669401466e-06
4.22325323146e-06

