# vtk DataFile Version 3.0
File Name: Molecule/sphere_dip_12/sphere_dip_12_0-s2.vtk
ASCII
DATASET UNSTRUCTURED_GRID
FIELD FieldData 1
TIME 1 1 double
0.0
POINTS 51 double
0.850650808352 -0.525731112119 0.0
0.809016994375 -0.309016994375 -0.5
1.0 0.0 0.0
0.809016994375 0.309016994375 -0.5
0.525731112119 0.0 -0.850650808352
0.850650808352 0.525731112119 0.0
0.5 0.809016994375 -0.309016994375
0.309016994375 0.5 -0.809016994375
0.0 0.850650808352 -0.525731112119
0.5 0.809016994375 0.309016994375
0.0 1.0 0.0
0.0 0.850650808352 0.525731112119
-0.5 0.809016994375 0.309016994375
-0.5 0.809016994375 -0.309016994375
-0.850650808352 0.525731112119 0.0
-0.309016994375 0.5 0.809016994375
-0.809016994375 0.309016994375 0.5
-0.525731112119 0.0 0.850650808352
0.309016994375 0.5 0.809016994375
0.0 0.0 1.0
0.525731112119 0.0 0.850650808352
-0.309016994375 -0.5 0.809016994375
0.309016994375 -0.5 0.809016994375
0.0 -0.850650808352 0.525731112119
0.309016994375 -0.5 -0.809016994375
0.0 0.0 -1.0
-0.309016994375 -0.5 -0.809016994375
0.0 -0.850650808352 -0.525731112119
-0.525731112119 0.0 -0.850650808352
0.809016994375 0.309016994375 0.5
-0.809016994375 -0.309016994375 -0.5
-0.809016994375 0.309016994375 -0.5
-1.0 0.0 0.0
-0.850650808352 -0.525731112119 0.0
-0.309016994375 0.5 -0.809016994375
-0.5 -0.809016994375 -0.309016994375
-0.5 -0.809016994375 0.309016994375
0.0 -1.0 0.0
-0.809016994375 -0.309016994375 0.5
0.5 -0.809016994375 -0.309016994375
0.5 -0.809016994375 0.309016994375
0.417374053247 -0.25 0.829833901363
0.667374053247 -0.154508497188 0.675325404176
0.559016994375 -0.404508497188 0.654508497187
0.809016994375 -0.309016994375 0.5
0.404508497188 -0.654508497187 0.559016994375
0.654508497187 -0.559016994375 0.404508497188
0.829833901363 -0.417374053247 0.25
0.675325404176 -0.667374053247 0.154508497188
0.809016994375 0.0 0.5
0.667374053247 0.154508497188 0.675325404176

CELLS 98 392
3 0 1 2
3 1 3 2
3 1 4 3
3 2 3 5
3 5 3 6
3 3 7 6
3 3 4 7
3 6 7 8
3 5 6 9
3 6 10 9
3 6 8 10
3 9 10 11
3 11 10 12
3 10 13 12
3 10 8 13
3 12 13 14
3 11 12 15
3 12 16 15
3 12 14 16
3 15 16 17
3 11 15 18
3 15 19 18
3 15 17 19
3 18 19 20
3 17 21 19
3 21 22 19
3 21 23 22
3 4 24 25
3 24 26 25
3 24 27 26
3 25 26 28
3 2 5 29
3 5 9 29
3 9 18 29
3 9 11 18
3 28 30 31
3 30 32 31
3 30 33 32
3 31 32 14
3 8 34 13
3 34 31 13
3 34 28 31
3 13 31 14
3 33 35 36
3 35 37 36
3 35 27 37
3 36 37 23
3 33 36 38
3 36 21 38
3 36 23 21
3 38 21 17
3 17 16 38
3 16 32 38
3 16 14 32
3 38 32 33
3 28 26 30
3 26 35 30
3 26 27 35
3 30 35 33
3 27 39 37
3 39 40 37
3 37 40 23
3 4 1 24
3 1 39 24
3 1 0 39
3 24 39 27
3 4 25 7
3 25 34 7
3 25 28 34
3 7 34 8
3 22 41 19
3 19 41 20
3 20 41 42
3 41 43 42
3 41 22 43
3 42 43 44
3 22 45 43
3 45 46 43
3 45 40 46
3 43 46 44
3 40 45 23
3 23 45 22
3 44 46 47
3 46 48 47
3 46 40 48
3 47 48 0
3 44 47 2
3 2 47 0
3 29 49 2
3 2 49 44
3 44 49 42
3 49 50 42
3 49 29 50
3 42 50 20
3 20 50 18
3 18 50 29
3 0 48 39
3 39 48 40

CELL_TYPES 98
5
5
5
5
5
5
5
5
5
5
5
5
5
5
5
5
5
5
5
5
5
5
5
5
5
5
5
5
5
5
5
5
5
5
5
5
5
5
5
5
5
5
5
5
5
5
5
5
5
5
5
5
5
5
5
5
5
5
5
5
5
5
5
5
5
5
5
5
5
5
5
5
5
5
5
5
5
5
5
5
5
5
5
5
5
5
5
5
5
5
5
5
5
5
5
5
5
5

CELL_DATA 98
SCALARS cell_data_0 double
LOOKUP_TABLE default
3.18830683649e-05
0.000109824440486
0.000139351021698
3.18865193622e-05
2.69177145333e-05
0.000275926811686
0.000320504899774
0.000219425105408
0.000216793125135
0.000241756140039
1.40692116969e-05
0.000263015647816
0.00067894804431
0.000693125216612
1.31406169372e-05
0.000448022990596
0.000591273802527
0.000651087563602
0.000497068742417
3.65087852578e-07
2.41329352676e-05
2.78737858854e-05
4.33098437197e-06
0.000336970007167
0.00165150355804
0.00296516831841
0.00225941113408
0.000871608697056
0.000933051482063
0.000337405819283
0.000769175457609
9.19726212843e-05
0.00015535548729
2.46325174875e-05
0.000111843993311
0.000104189730898
0.000206218757018
2.16273845015e-05
0.00028081659048
0.000212044301156
2.64780755381e-05
0.000297648702802
0.000279797213975
6.12381882608e-06
5.1263106879e-06
3.79757472456e-06
2.71304275296e-05
3.71906640516e-06
0.00193429297066
0.00166998514138
0.00143173993567
7.9092623633e-06
7.95741993474e-05
8.00629055328e-05
2.30756638749e-05
0.000344847342461
0.000228309902521
0.000140894792777
6.76051800498e-05
8.30796336073e-05
0.000659478359561
0.000427217766612
0.000325003754716
0.000281533541963
3.08968459377e-05
0.000169731404566
0.000882056310138
0.000890296563645
0.000725249432954
0.000352757260407
0.000174711510267
0.000193733289418
7.43332730149e-05
2.31504802459e-05
5.0464816053e-05
1.10207771743e-05
7.18389854482e-05
1.3552923503e-05
0.000127023229815
1.02879434242e-05
0.000199525282995
0.000141664175678
1.97549772615e-05
1.7324250515e-06
0.000104015468453
2.39257732071e-06
4.75741289625e-05
1.1999418993e-05
1.8145088154e-05
5.8933515382e-05
2.29905703852e-05
1.99589500925e-06
6.13614643918e-06
9.1970687974e-05
0.000118824362638
2.2797266641e-05
2.66569439639e-05
0.000263874149682

