# vtk DataFile Version 3.0
File Name: Molecule/sphere_dip_12/sphere_dip_12_0-s4.vtk
ASCII
DATASET UNSTRUCTURED_GRID
FIELD FieldData 1
TIME 1 1 double
0.0
POINTS 74 double
0.850650808352 -0.525731112119 0.0
0.809016994375 -0.309016994375 -0.5
1.0 0.0 0.0
0.809016994375 0.309016994375 -0.5
0.525731112119 0.0 -0.850650808352
0.850650808352 0.525731112119 0.0
0.5 0.809016994375 -0.309016994375
0.309016994375 0.5 -0.809016994375
0.0 0.850650808352 -0.525731112119
0.5 0.809016994375 0.309016994375
0.0 1.0 0.0
0.0 0.850650808352 0.525731112119
-0.5 0.809016994375 0.309016994375
-0.5 0.809016994375 -0.309016994375
-0.309016994375 0.5 0.809016994375
0.309016994375 0.5 0.809016994375
0.0 0.0 1.0
0.525731112119 0.0 0.850650808352
0.309016994375 -0.5 -0.809016994375
0.0 0.0 -1.0
-0.309016994375 -0.5 -0.809016994375
0.0 -0.850650808352 -0.525731112119
-0.525731112119 0.0 -0.850650808352
0.809016994375 0.309016994375 0.5
-0.809016994375 -0.309016994375 -0.5
-0.809016994375 0.309016994375 -0.5
-1.0 0.0 0.0
-0.850650808352 -0.525731112119 0.0
-0.309016994375 0.5 -0.809016994375
-0.850650808352 0.525731112119 0.0
-0.5 -0.809016994375 -0.309016994375
-0.5 -0.809016994375 0.309016994375
0.0 -1.0 0.0
0.5 -0.809016994375 -0.309016994375
0.5 -0.809016994375 0.309016994375
0.0 -0.850650808352 0.525731112119
0.417374053247 -0.25 0.829833901363
0.667374053247 -0.154508497188 0.675325404176
0.559016994375 -0.404508497188 0.654508497187
0.309016994375 -0.5 0.809016994375
0.809016994375 -0.309016994375 0.5
0.404508497188 -0.654508497187 0.559016994375
0.654508497187 -0.559016994375 0.404508497188
0.829833901363 -0.417374053247 0.25
0.675325404176 -0.667374053247 0.154508497188
0.809016994375 0.0 0.5
0.667374053247 0.154508497188 0.675325404176
-0.26286555606 0.0 0.925325404176
-0.525731112119 0.0 0.850650808352
-0.417374053247 -0.25 0.829833901363
-0.154508497188 -0.25 0.904508497187
-0.309016994375 -0.5 0.809016994375
0.0 -0.5 0.809016994375
0.154508497188 -0.25 0.904508497187
-0.154508497188 -0.675325404176 0.667374053247
0.154508497188 -0.675325404176 0.667374053247
-0.25 -0.829833901363 0.417374053247
-0.654508497187 -0.559016994375 0.404508497188
-0.809016994375 -0.309016994375 0.5
-0.404508497188 -0.654508497187 0.559016994375
-0.559016994375 -0.404508497188 0.654508497187
-0.667374053247 -0.154508497188 0.675325404176
-0.675325404176 0.667374053247 0.154508497188
-0.404508497188 0.654508497187 0.559016994375
-0.654508497187 0.559016994375 0.404508497188
-0.559016994375 0.404508497188 0.654508497187
-0.809016994375 0.309016994375 0.5
-0.829833901363 0.417374053247 0.25
-0.417374053247 0.25 0.829833901363
-0.667374053247 0.154508497188 0.675325404176
-0.925325404176 0.26286555606 0.0
-0.904508497187 0.154508497188 0.25
-0.809016994375 0.0 0.5
-0.904508497187 -0.154508497188 0.25

CELLS 144 576
3 0 1 2
3 1 3 2
3 1 4 3
3 2 3 5
3 5 3 6
3 3 7 6
3 3 4 7
3 6 7 8
3 5 6 9
3 6 10 9
3 6 8 10
3 9 10 11
3 11 10 12
3 10 13 12
3 10 8 13
3 11 14 15
3 14 16 15
3 15 16 17
3 4 18 19
3 18 20 19
3 18 21 20
3 19 20 22
3 2 5 23
3 5 9 23
3 9 15 23
3 9 11 15
3 22 24 25
3 24 26 25
3 24 27 26
3 8 28 13
3 28 25 13
3 28 22 25
3 13 25 29
3 27 30 31
3 30 32 31
3 30 21 32
3 22 20 24
3 20 30 24
3 20 21 30
3 24 30 27
3 21 33 32
3 33 34 32
3 32 34 35
3 4 1 18
3 1 33 18
3 1 0 33
3 18 33 21
3 4 19 7
3 19 28 7
3 19 22 28
3 7 28 8
3 16 36 17
3 17 36 37
3 36 38 37
3 36 39 38
3 37 38 40
3 39 41 38
3 41 42 38
3 41 34 42
3 38 42 40
3 34 41 35
3 40 42 43
3 42 44 43
3 42 34 44
3 43 44 0
3 40 43 2
3 2 43 0
3 23 45 2
3 2 45 40
3 40 45 37
3 45 46 37
3 45 23 46
3 37 46 17
3 17 46 15
3 15 46 23
3 0 44 33
3 33 44 34
3 14 47 16
3 48 49 47
3 49 50 47
3 49 51 50
3 47 50 16
3 51 52 50
3 52 53 50
3 52 39 53
3 50 53 16
3 51 54 52
3 54 55 52
3 54 35 55
3 52 55 39
3 35 56 32
3 32 56 31
3 31 57 27
3 27 57 58
3 31 59 57
3 59 60 57
3 59 51 60
3 57 60 58
3 31 56 59
3 56 54 59
3 56 35 54
3 59 54 51
3 58 60 61
3 60 49 61
3 60 51 49
3 61 49 48
3 16 53 36
3 36 53 39
3 39 55 41
3 41 55 35
3 29 62 13
3 13 62 12
3 12 63 11
3 11 63 14
3 12 64 63
3 64 65 63
3 64 66 65
3 63 65 14
3 12 62 64
3 62 67 64
3 62 29 67
3 64 67 66
3 14 65 68
3 65 69 68
3 65 66 69
3 68 69 48
3 26 70 25
3 25 70 29
3 66 71 72
3 71 73 72
3 71 26 73
3 72 73 58
3 66 67 71
3 67 70 71
3 67 29 70
3 71 70 26
3 58 73 27
3 73 26 27
3 14 68 47
3 47 68 48
3 66 72 61
3 61 72 58
3 48 69 61
3 61 69 66

CELL_TYPES 144
5
5
5
5
5
5
5
5
5
5
5
5
5
5
5
5
5
5
5
5
5
5
5
5
5
5
5
5
5
5
5
5
5
5
5
5
5
5
5
5
5
5
5
5
5
5
5
5
5
5
5
5
5
5
5
5
5
5
5
5
5
5
5
5
5
5
5
5
5
5
5
5
5
5
5
5
5
5
5
5
5
5
5
5
5
5
5
5
5
5
5
5
5
5
5
5
5
5
5
5
5
5
5
5
5
5
5
5
5
5
5
5
5
5
5
5
5
5
5
5
5
5
5
5
5
5
5
5
5
5
5
5
5
5
5
5
5
5
5
5
5
5
5
5

CELL_DATA 144
SCALARS cell_data_0 double
LOOKUP_TABLE default
3.21378356138e-05
7.6708178949e-05
0.000107720234607
0.000100043913649
0.000103820113436
3.59288071712e-05
0.000156827277715
7.7622655788e-05
0.000217191612661
0.000655738626235
0.000298541204504
0.000604670418385
0.00293753689223
0.00422478205539
0.000649324674105
3.15996673959e-05
0.00019964777261
5.5120974238e-05
0.000836152647341
0.000771685845295
0.000332326111256
0.000675687332241
9.71992122362e-05
0.000153811315332
2.26641807369e-05
0.000103940436735
0.000234617092643
0.000112666236161
2.43975925423e-05
3.12096158831e-05
2.03405781011e-06
0.000423206617094
0.000179310849327
4.91205301833e-05
6.70093255961e-05
1.57668423178e-05
0.000341335107786
0.000254705143167
0.000185723049728
3.5029224687e-05
1.31833345462e-05
0.000446357416569
0.00036761430349
0.000312636390783
0.000273869699579
7.26040798973e-05
0.000186189977987
0.00108342902455
0.00149353876697
0.000886473653517
0.000438624493345
3.14608637123e-05
5.1878531618e-05
2.85928540815e-05
2.31688647578e-05
8.86468231653e-06
1.7063263224e-05
7.05430695356e-06
0.000126557304373
1.13276716715e-06
0.000171940735073
7.1580708586e-05
8.03090196533e-05
0.00012201145633
7.24938738359e-05
0.000132041688097
0.000128835957749
7.29084833373e-05
6.79602398181e-05
1.61721685897e-05
5.76698010397e-05
8.25051702298e-05
0.000141545983058
0.000232863546909
4.7821264738e-05
1.4584138874e-05
0.000212349087809
9.60212924136e-05
3.40139221487e-05
4.44038631475e-05
3.00092227491e-05
5.43085734792e-05
2.10100050947e-06
7.92437021788e-05
5.12900023883e-05
7.68795434096e-05
6.787676407e-06
2.47923449365e-05
7.05169523483e-06
2.03346538636e-05
4.35196324483e-06
2.47462971822e-05
3.58469358287e-05
8.86339317956e-06
2.89290494149e-05
6.11510471099e-06
1.85218738886e-05
5.40516242162e-06
1.65257962936e-05
6.79367446912e-06
4.89593186492e-06
9.47821053828e-06
4.40389127835e-06
7.42973246084e-06
1.96205130218e-05
1.25055609361e-05
6.93356822736e-05
4.08671898756e-05
1.09402349522e-05
6.47202435751e-06
0.000162007929964
0.0013402661791
0.00100128974131
4.49306160035e-05
0.000565244797485
1.09778457354e-05
0.000113523373245
3.32392364854e-06
0.00050318562852
8.32012110851e-06
5.26449696742e-06
0.00011468550298
4.27055703476e-06
1.27159565647e-05
9.26158583421e-05
8.50685745854e-06
2.58922933092e-05
2.55074857185e-05
0.000124383475924
1.76382704431e-06
1.67176573031e-06
1.84596764199e-06
0.000101186275248
2.45773386894e-06
1.09026835607e-06
1.73481632106e-06
2.64680964764e-06
2.23108839272e-06
2.69092310953e-05
3.74494692674e-05
8.69590324638e-05
4.37698158053e-06
1.42780476078e-05
9.15009006011e-05

