# vtk DataFile Version 3.0
File Name: Molecule/sphere_cent/sphere_cent_0-s18.vtk
ASCII
DATASET UNSTRUCTURED_GRID
FIELD FieldData 1
TIME 1 1 double
0.0
POINTS 588 double
0.49661540985 0.80770379305 -0.31394228339
0.31542390585 0.92713785172 -0.20099493861
0.53862977028 0.83670192957 -0.071053490043
-0.40563595295 0.67311537266 0.61827552319
-0.50078058243 0.51050627232 0.69879478216
-0.31162399054 0.52555125952 0.7915135026
-0.50658798218 -0.82704496384 -0.24092872441
-0.3187662065 -0.92304009199 -0.21505904198
-0.46942043304 -0.88136315346 -0.051063355058
0.51639705896 -0.79972833395 -0.30457746983
0.51733267307 -0.8502073884 -0.092022791505
0.35272455215 -0.90487134457 -0.23833155632
-0.36101329327 0.52748304605 -0.76713907719
-0.4615675807 0.27033680677 -0.84489583969
-0.59069347382 0.43978446722 -0.67649704218
-0.68350833654 0.15655629337 -0.71295368671
-0.52119553089 0.0027985959314 -0.85340040922
-0.78328418732 0.3209670186 -0.53079032898
-0.51760333776 -0.77983260155 0.35203057528
-0.34782072902 -0.8138038516 0.46515381336
-0.46702420712 -0.69847011566 0.54218131304
-0.3822299242 -0.88571375608 0.26302617788
0.8923317194 0.26974570751 0.36167421937
0.84221303463 0.43894401193 0.31218701601
0.78656351566 0.35824680328 0.50293594599
-0.68878644705 -0.098810061812 -0.71774965525
-0.84611827135 -0.0076942620799 -0.53085154295
-0.31973016262 0.098155222833 -0.94240087271
0.78559082747 -0.3783133924 0.48905572295
0.6830598712 -0.58826696873 0.43057090044
0.82661944628 -0.4778817296 0.296810776
0.71053761244 -0.66928768158 0.21639697254
0.53767049313 -0.74187082052 0.39720892906
-0.17503543198 0.70616066456 -0.68431180716
-0.44304683805 0.67565250397 -0.58917731047
-0.26338267326 0.84169638157 -0.47130385041
-0.5077688098 0.79593884945 -0.32961937785
0.0022042891942 0.8629502058 -0.50375276804
-0.082061387599 0.94164997339 -0.32642284036
-0.27579718828 0.92846018076 -0.24854205549
-0.71297156811 0.67868232727 -0.16928938031
-0.57950526476 0.81310117245 -0.054888054729
-0.71647155285 0.694465518 0.066173113883
0.36334398389 -0.8221154809 -0.43790316582
0.67669451237 -0.71556782722 -0.17197018862
0.89902967215 -0.27080282569 0.3419495523
-0.86143285036 0.50781601667 0.0047224527225
-0.8524248004 0.45135873556 -0.26041814685
-0.93770360947 0.32858246565 -0.10520960391
-0.65862131119 0.59261536598 -0.46109804511
0.45265865326 -0.67398995161 0.58327913284
0.31022876501 -0.81512475014 0.48879152536
0.28330209851 0.83716267347 -0.4677914083
0.99953055382 0.0081502115354 0.028794001788
0.98859190941 0.13355341554 -0.068968877196
0.98773086071 0.13116694987 0.084742590785
0.98695862293 -0.096946559846 0.12836784124
0.98131144047 0.044982064515 0.18702888489
-0.91367250681 -0.15187850595 -0.37580662966
-0.95348370075 -0.006023873575 -0.30142450333
-0.97552162409 0.12504370511 -0.17462997139
-0.92392253876 0.20948849618 -0.31700447202
-0.12122292817 0.1273290962 -0.98398530483
-0.21886621416 0.29079863429 -0.93117886782
-0.0018478590064 0.28662180901 -0.95797514915
0.11862828583 0.12829656899 -0.98414230347
0.19811841846 0.29731121659 -0.93332922459
0.060354448855 0.99809640646 -0.0077915266156
-0.10070350766 0.98764711618 -0.12001542002
-0.090817682445 0.99225646257 0.084627479315
-0.26015883684 0.9652582407 -0.02440357767
-0.245201841 0.9566655755 0.1571418494
-0.41534814239 0.9021756053 -0.11593914032
-0.40914160013 0.90921378136 0.077269643545
-0.36840876937 0.88413727283 0.28564709425
-0.55116397142 0.81792187691 0.16506910324
-0.50987786055 0.78911221027 0.34214487672
-0.29666632414 -0.95393162966 -0.043506987393
-0.12170436978 -0.98762309551 -0.09860663116
-0.010626788251 -0.9996727109 0.020349550992
-0.18715566397 -0.98110663891 0.048789836466
0.097905300558 -0.99161410332 -0.083853721619
0.31381040812 -0.94843697548 -0.042884625494
0.067452967167 -0.98857289553 0.13460583985
0.17506994307 -0.9832469821 0.050401769578
-0.090697936714 -0.98543435335 0.14318783581
0.3445841372 -0.11401645839 -0.93174833059
0.18235318363 -0.055182073265 -0.98165941238
0.300542593 0.10149808973 -0.94763708115
0.16398558021 -0.25199964643 -0.95339632034
-0.15624704957 -0.27154627442 -0.94919800758
-0.1831984967 -0.05820774287 -0.98134535551
0.00096479424974 -0.10746244341 -0.99354040623
0.45507621765 -0.24476158619 -0.85573613644
0.52813333273 -0.012069527991 -0.84822118282
-0.3457224369 -0.11666608602 -0.93105143309
-0.45712393522 -0.24079504609 -0.8557600975
-0.95090132952 0.14399203658 0.2737403214
-0.97126358747 -0.051024731249 0.23260854185
-0.89878851175 -0.01995716989 0.434202075
-0.87261426449 0.21875406802 0.43656358123
-0.88871777058 0.37200400233 0.26783415675
-0.95279532671 0.28678530455 0.098959796131
-0.99400085211 0.089890815318 0.056983210146
0.07104831934 0.97950094938 -0.18844522536
-0.64374428988 0.50863164663 0.57164341211
-0.5569819808 0.634760499 0.53529596329
-0.68589627743 0.59929001331 0.41254341602
-0.78695732355 0.43601351976 0.4365054965
-0.71153718233 0.38005846739 0.59097909927
-0.78994345665 0.56454956532 0.23924264312
-0.66002506018 0.70506221056 0.25932985544
-0.35463094711 -0.52889746428 -0.77096199989
-0.1431902945 -0.54853433371 -0.82370364666
-0.23982091248 -0.66007834673 -0.71188390255
-0.022942747921 -0.68566191196 -0.72751712799
0.048278681934 -0.52591782808 -0.84860372543
-0.43547224998 -0.64374893904 -0.6283313632
0.12608988583 0.92797768116 -0.35056063533
-0.96640080214 -0.18795074522 -0.1752217859
-0.99031746387 -0.017880119383 -0.13567468524
-0.9986500144 -0.041995156556 -0.018765095621
-0.99194175005 0.10742154717 -0.063662230968
-0.06808757782 0.87347739935 0.48192173243
0.1028668955 0.92547696829 0.3643912375
-0.083675727248 0.95377618074 0.28784281015
0.070787623525 0.98135560751 0.17866258323
0.26926362514 0.94169330597 0.19867669046
0.046499770135 0.51696127653 0.85467398167
-0.1102271378 0.62144708633 0.77531599998
-0.15721462667 0.42855271697 0.88968575001
0.1458285749 0.35574385524 0.92310261726
-0.019520604983 0.32033497095 0.94708752632
0.30489525199 0.44393318892 0.84257948399
-0.17966741323 0.23521912098 0.95517146587
-0.32613390684 0.30358490348 0.89515894651
0.52151793242 0.40847036242 0.74891012907
0.41251081228 0.56703996658 0.71295553446
0.56614899635 0.53418886662 0.62731033564
0.46211236715 0.69497233629 0.5502768755
-0.45704656839 -0.73824810982 -0.49545872211
-0.29882904887 -0.76872879267 -0.56531530619
0.21946486831 0.60473263264 0.76561951637
0.040383078158 0.68278121948 0.72943806648
0.16956204176 0.73208391666 0.65957093239
0.31575194001 0.6972334981 0.64354687929
0.25949630141 0.82825773954 0.49609357119
0.070252276957 0.82058048248 0.56707406044
0.11480303109 0.20279380679 0.97229266167
0.28285238147 0.24143540859 0.92827636003
0.82257443666 0.15702718496 0.54650199413
0.92809545994 0.095855392516 0.35944256186
0.85677850246 -0.031972404569 0.51434355974
0.72389048338 0.0075343959033 0.68982636929
0.67446297407 0.16746273637 0.71872401237
0.54471260309 0.020879227668 0.83746570349
-0.31868976355 0.13529290259 0.93814826012
-0.18236093223 0.016055652872 0.98305886984
-0.48017710447 0.13261765242 0.86702728271
-0.38541799784 -0.0084284907207 0.92262423038
-0.5391150713 -0.071995340288 0.8390942812
0.033454593271 -0.017371123657 0.99876594543
-0.042766608298 0.14574386179 0.98839920759
-0.32249879837 -0.69586247206 0.64173173904
-0.45358681679 -0.59854650497 0.66028469801
-0.78761202097 -0.56900292635 -0.23543038964
-0.69359308481 -0.68793690205 -0.21352221072
-0.74548447132 -0.66111689806 -0.084312260151
-0.64115720987 0.027160581201 0.76683741808
-0.47619003057 0.35148030519 0.8060195446
-0.59282207489 0.22199515998 0.77404767275
-0.60714352131 0.37557646632 0.70023387671
-0.700088799 0.13574536145 0.70069825649
-0.70061981678 0.26226946712 0.6635722518
-0.59559774399 -0.33342579007 0.7308216691
-0.49584707618 -0.25993087888 0.82851064205
-0.65984046459 -0.18310368061 0.72765147686
-0.35470765829 -0.38015398383 0.85410094261
-0.47685489058 -0.4546738863 0.75212645531
-0.53147536516 -0.8364251256 0.13335771859
-0.62454074621 -0.7775272727 -0.07075163722
-0.69363343716 -0.71754407883 0.062563091516
-0.35516732931 -0.92950642109 0.098866529763
-0.78610998392 0.27922651172 0.55130887032
0.53867357969 0.2140545696 0.81485152245
0.42099505663 0.14719031751 0.89506727457
0.42125114799 0.30220103264 0.85508865118
0.30164641142 0.023167863488 0.95274448395
-0.5899567008 -0.55128741264 0.58995652199
-0.2299271673 -0.59241521358 0.77159154415
-0.35447025299 -0.5851148963 0.72933125496
-0.32276377082 -0.49952223897 0.80376821756
-0.82481324673 -0.55648374557 -0.099917083979
-0.87507992983 -0.45925235748 -0.15168063343
-0.87989968061 -0.47396561503 -0.032777667046
-0.80923765898 -0.58593952656 0.040755484253
-0.90532666445 -0.41351649165 0.096529856324
-0.2294857651 -0.45702919364 0.85922789574
-0.7749543786 -0.05513388291 0.62963682413
-0.78461575508 0.044812999666 0.61784291267
-0.79398518801 0.1390529573 0.59059524536
-0.83605998755 -0.27724292874 0.47221145034
-0.91982376575 -0.20072801411 0.33689838648
-0.88743025064 -0.37103825808 0.27328968048
-0.95106762648 -0.24991299212 0.1813698709
-0.70225274563 -0.56862181425 0.42828452587
-0.7170817256 -0.4590933919 0.52284646034
-0.79812043905 -0.47792196274 0.36611917615
-0.59500437975 -0.65912592411 0.45985236764
-0.66138410568 -0.67519366741 0.32657632232
0.19835476577 -0.96149796247 -0.19003093243
0.18541140854 -0.93158090115 -0.31236037612
0.015631638467 -0.97705960274 -0.21201750636
-0.98523926735 -0.16435089707 -0.048822805285
-0.9897993207 -0.11323641986 0.086464233696
-0.96470957994 -0.25925260782 0.04590915516
-0.94083321095 -0.33375832438 -0.058539845049
-0.83231663704 -0.5213701129 0.18734334409
-0.75631517172 -0.59047955275 0.28040543199
-0.63531863689 -0.74309170246 0.21012794971
-0.62468022108 -0.42899253964 0.65241581202
-0.69829946756 -0.34330275655 0.62792253494
-0.7405461669 -0.6506421566 0.16762235761
-0.36591798067 0.80977964401 0.45858192444
-0.23524281383 0.79331940413 0.56151551008
[...]
CELL_DATA 1172
SCALARS cell_data_0 double
LOOKUP_TABLE default
3.17401282481e-08
7.96336530172e-09
2.13045533441e-08
8.90231982397e-09
1.26350889751e-08
8.90303811045e-09
5.09976598795e-09
4.91295386434e-08
5.51183156221e-09
5.92644617888e-09
2.93340133138e-09
1.87087120155e-08
4.30232164174e-08
1.90459919564e-10
1.14270889798e-08
4.51059827964e-09
2.96570374312e-08
1.50886438608e-08
1.83336063969e-08
7.29651397281e-09
2.93646447431e-08
1.39363403898e-08
4.35145322536e-08
4.21504277188e-08
7.32422725302e-09
1.79817376654e-08
6.21051733271e-09
2.19999951997e-08
1.92695660213e-08
3.79686806284e-08
2.28576772567e-08
4.30080190946e-08
2.28675336143e-08
7.06651519611e-10
5.77808957748e-09
2.15132928846e-08
1.95060116414e-08
1.7718249636e-08
1.56473838694e-08
4.06667470692e-09
6.24437691411e-10
1.32072147107e-08
7.73314925979e-09
8.78723647203e-09
8.58850004651e-09
5.64498641066e-09
8.89975693293e-09
2.13155539504e-10
1.49715923373e-09
8.59220396082e-09
5.85202254564e-09
4.80310954671e-09
1.07513430229e-09
9.76772684958e-09
1.0119564677e-08
8.76382554631e-10
1.22920665213e-09
1.96306751365e-08
2.98140329827e-09
4.40844628175e-10
1.38432290911e-09
2.05137828762e-09
2.50991479628e-09
1.90625915768e-08
2.822135212e-08
1.80136060683e-08
1.70529197723e-08
6.11938653375e-09
1.22088577562e-08
1.27682397635e-08
2.11433697423e-09
2.08859630653e-08
1.10974478944e-08
6.75390503738e-09
5.46305699171e-09
1.13642521407e-08
2.02089040959e-08
1.9073809021e-08
4.49073681832e-10
5.02266420279e-09
1.85324390828e-09
4.04629187615e-09
7.90330265198e-10
7.61879754402e-09
2.16062460826e-08
9.71512865439e-09
2.56268839779e-08
1.42242389829e-08
7.0588786234e-09
2.95747625069e-10
2.57551045605e-10
1.23121026789e-08
6.38589819306e-10
1.16088444009e-08
5.986313783e-11
4.77967317628e-09
3.07931605375e-09
9.70311608714e-09
1.17613578675e-08
4.96543917586e-09
1.52652669027e-08
8.1087596277e-09
8.19114794717e-10
2.44798509436e-08
2.10475612895e-08
8.50868513466e-09
3.18966623032e-10
1.19342296677e-08
5.68188740947e-09
2.91576962168e-08
2.45197061932e-09
1.61185437426e-08
2.2975871126e-08
2.01015478206e-08
2.37943972077e-09
9.9931395645e-09
7.68945926899e-09
1.27571666184e-08
2.44554210463e-09
1.5773223282e-09
1.76925633314e-08
1.55400918149e-08
1.18360224533e-08
1.09547793752e-09
2.28578860355e-09
1.16947674627e-08
1.61194404815e-08
4.95196489112e-09
3.37580784354e-09
1.4286592888e-09
1.24093178779e-08
1.64046489184e-08
5.73751683576e-09
8.09510739962e-09
1.35677589077e-08
1.75051503844e-08
1.71514200884e-08
3.14328982214e-09
1.07282046367e-08
5.31376398456e-09
6.55963407007e-09
3.69805689361e-09
7.5614642385e-09
2.05751018103e-08
8.03041151763e-09
7.81137674515e-09
1.97591948859e-08
1.41469086555e-08
1.30611934234e-09
1.35039478967e-08
8.04031168789e-10
3.89882924169e-09
3.96528515232e-09
1.05982365841e-10
5.12839970111e-09
1.30986841035e-08
4.41671105631e-09
2.92521234072e-09
3.29420891529e-10
6.06241015242e-09
3.236436074e-09
4.58919311645e-09
1.36520512012e-08
2.95018922028e-09
4.003146285e-09
5.94349551533e-09
1.42069002193e-09
8.20575439849e-09
9.71973858757e-09
8.41805660804e-09
9.61154250177e-10
1.5934826059e-08
1.90921575389e-08
2.36518601353e-09
1.75606586956e-08
1.57868466202e-08
8.33095435953e-09
4.44416026168e-09
1.55282772042e-08
4.2893517907e-09
2.39714468765e-09
2.65516477283e-09
1.35335418533e-08
2.8256617271e-09
1.00189973793e-08
2.69749754768e-08
4.05405678389e-09
1.05080691982e-08
2.02155715913e-09
6.14471761614e-09
1.00499037827e-08
4.39939277226e-09
7.0547277705e-09
9.83989262582e-09
3.33587715055e-09
3.23500736542e-09
4.2226608293e-11
8.58945876109e-09
2.05153060483e-09
5.19401576319e-09
4.73706564706e-09
7.7911213202e-09
5.48240666823e-10
7.69993750421e-10
6.91078342953e-10
1.85782189362e-09
7.47599854343e-09
7.76125639102e-09
9.5971299775e-09
8.26291152878e-09
1.29630161694e-08
1.06571894971e-08
7.00511296322e-09
4.85074299406e-09
8.85875681841e-09
1.50595214866e-08
6.77411827126e-11
1.30692914739e-09
1.02099816589e-08
1.49887264199e-08
1.26994524289e-09
4.19462556236e-09
1.04856875525e-08
1.12639616797e-08
6.48105010739e-10
4.11208294219e-09
9.7268669904e-09
1.21012374587e-08
1.39387129986e-08
8.90979042403e-09
1.3356421271e-08
5.46689432825e-09
9.32700922747e-10
5.81383695301e-10
7.26402978662e-09
1.71769490127e-09
3.32099750496e-09
1.42638800848e-09
4.19333864538e-09
8.10942098795e-09
4.17152616511e-09
4.5059449999e-09
4.12050433409e-10
5.80724351065e-09
6.834680201e-09
1.04523997713e-09
2.19336655709e-08
6.36098851917e-09
2.17321662668e-09
1.09941278302e-08
3.00778895442e-09
7.62263895521e-09
7.2301969201e-09
1.88855229429e-10
7.45028566259e-11
5.74939779537e-09
8.86531794399e-09
4.2038501553e-09
3.21147920251e-09
2.68435644761e-09
7.47363069847e-09
3.21983050999e-09
5.0401292726e-10
6.08241844668e-09
4.17544518683e-09
9.45454226298e-09
2.67066319472e-09
6.11050572293e-10
1.33867804056e-09
9.34837541598e-09
1.20988008194e-08
1.2911537183e-08
7.93544622747e-09
3.0019740261e-09
3.77540758501e-09
1.38743759141e-08
1.35385660527e-08
4.12915475675e-09
5.74293267941e-09
8.38361348808e-09
2.88735814704e-09
7.33990674308e-09
6.10578824442e-09
7.14136208391e-09
1.24707100933e-08
2.92189463068e-09
8.02726943254e-09
2.06652694556e-09
9.16718360945e-09
8.53977322397e-10
1.10747317577e-08
6.500833668e-09
3.65664803834e-09
1.32438492678e-08
2.14534703588e-08
5.59582617404e-09
1.38449852112e-09
6.08218568802e-10
9.54968254998e-09
2.31983751229e-09
1.18771684008e-08
1.02358971889e-08
4.00399793114e-09
1.12974093709e-08
1.60029523048e-08
5.05700932558e-09
6.77039926436e-09
6.39546243402e-09
1.09105379028e-08
3.41658046013e-10
7.33117161306e-10
3.15986624544e-09
6.18283327749e-09
8.46888032786e-09
1.34973952105e-08
5.07625069164e-09
7.53356931398e-09
6.98923525415e-09
1.5122834916e-08
5.97122432389e-09
9.02430148697e-09
5.99663491712e-09
1.25682858305e-08
4.23087402917e-09
1.57259081607e-08
2.83076698106e-09
2.51833123534e-09
1.45574434014e-09
8.23478311249e-09
6.89141323103e-09
4.69123493849e-09
2.57366195551e-09
4.21707299004e-09
2.38988802257e-09
1.06168047149e-08
7.4416825258e-09
1.31480694442e-08
6.33397215338e-09
2.34469410742e-09
5.93601396802e-09
1.46683950026e-08
5.51593495815e-09
1.86788477189e-09
1.15201365343e-09
4.06156753758e-09
1.64001170564e-09
6.50416033396e-09
1.04294382278e-08
4.45939666623e-09
7.0956206219e-10
2.78099764514e-09
1.51627392009e-08
1.86239132333e-08
4.04018724973e-09
1.55848830084e-09
3.47316786063e-11
3.49237516446e-09
5.36886269814e-09
3.20530882976e-09
2.17030600632e-09
1.81097102047e-09
9.68802571999e-09
3.32633041438e-09
1.63616717378e-08
1.39186045671e-08
2.0210017738e-09
5.54872722398e-10
6.64971002172e-09
2.49151281333e-09
1.56625135207e-08
5.68716636813e-10
1.26561630857e-08
5.5844836931e-09
9.79180299567e-11
1.2686087886e-09
5.98489001958e-09
8.63178245067e-10
2.97153753256e-09
1.14682876356e-08
1.27733183924e-09
4.62490848621e-09
1.19752368112e-09
8.0646305833e-09
7.30253327766e-09
7.22786987152e-09
7.65752016508e-09
3.57967479628e-09
5.58748541361e-09
8.06063639844e-09
1.0415289635e-08
4.49857428316e-09
4.25537442313e-09
3.62244419549e-09
1.76248241578e-09
4.77621535475e-09
4.81101233698e-09
3.98309587731e-09
7.95778165768e-10
6.65075733462e-09
1.78508683533e-08
1.86297908046e-09
2.99529707694e-10
1.39393945844e-08
1.12921625517e-09
7.24491970879e-09
1.21067272743e-08
2.98937446781e-09
1.13357099093e-10
3.35299330446e-09
2.7912662922e-09
9.07437644976e-10
1.09511638575e-08
4.40006939462e-09
5.49088636318e-10
9.3391085245e-10
2.24539994474e-09
1.89265725788e-09
1.13037028194e-09
7.27213989324e-09
4.47333086027e-09
7.51341297208e-09
9.69022274503e-09
3.80510454991e-09
6.149544175e-10
1.07821259699e-08
7.32702546786e-09
2.97058727502e-09
7.23321223228e-09
2.90503922061e-09
1.24756143854e-08
9.41226733156e-09
1.27037682328e-08
3.54527740171e-09
3.28949777994e-10
4.2734753766e-10
3.83117857912e-09
8.31166067101e-09
2.10604343294e-10
6.88414040584e-09
4.37236518109e-09
8.79982980237e-09
1.04164398373e-08
5.43018440364e-09
8.34762535711e-09
5.70369274126e-09
6.27690581215e-09
1.44641699514e-08
2.94822373833e-09
4.81352265075e-09
7.17321593085e-09
4.78586126134e-09
1.33624390785e-08
3.8789154582e-09
1.93869648155e-09
4.23439450658e-09
2.12021115958e-09
1.53735566279e-09
9.93105982948e-09
3.14485043481e-09
8.88820205281e-09
8.68901295263e-09
5.11424115006e-09
7.31977972789e-10
3.93658449345e-09
6.76136148929e-09
7.88611588406e-09
5.23551640063e-09
1.12106559897e-09
4.53289535264e-09
3.94024565162e-09
5.9419375346e-10
1.50162600341e-08
2.65310569775e-08
5.01028917817e-10
1.29034647674e-09
3.55546098289e-09
4.63759861637e-09
1.68020822271e-08
1.68251952343e-09
5.71467050238e-09
1.70983114395e-08
2.30699465783e-09
9.45291298328e-09
2.8431851075e-09
4.97441381692e-09
6.77339821245e-09
4.49520191201e-09
8.92716622095e-09
3.94097258792e-09
2.94837646817e-10
1.00400202175e-08
1.47125689758e-08
1.5222533047e-08
1.41603829153e-08
3.42269965713e-10
4.32450365756e-09
2.0161517298e-08
1.28810318839e-08
1.9162035414e-08
2.24180750986e-08
6.18296393675e-09
5.96045804008e-09
4.98840805848e-09
3.92542686077e-09
9.57412174048e-09
6.88208858232e-09
4.53632884497e-09
3.40498136669e-09
4.34466118633e-09
2.6542184977e-09
7.68280672205e-10
1.34840205977e-08
2.65008519776e-09
4.79533775571e-09
2.13328511669e-09
1.70497165854e-09
5.2313214176e-09
1.06653783552e-08
9.03179626836e-09
4.88767779772e-09
5.79354438566e-09
5.25157372197e-09
2.76955298229e-09
1.12014077734e-09
1.51925756756e-08
1.09079047437e-08
3.01189283469e-09
2.34514357988e-09
1.11870922911e-09
4.53917841956e-09
1.39909555274e-08
1.23983891898e-09
1.1235723084e-08
9.58724757305e-09
1.60752717127e-08
8.41239335574e-09
1.22194942148e-09
1.43278267154e-09
6.04207229682e-09
3.29704005425e-09
6.21173077336e-10
3.40111070222e-09
7.7598948499e-10
8.41292899887e-09
6.07203511145e-09
1.03656816878e-08
4.18700079544e-09
6.33821463157e-09
3.50836350083e-09
1.24172426998e-08
3.78635664502e-10
4.6161844177e-09
1.27719301852e-08
4.03152789835e-09
2.32839004951e-09
3.95119318502e-09
5.52916631083e-10
5.8676178071e-09
3.55141978145e-09
1.18019473683e-08
3.13069439575e-09
2.50787901604e-09
1.99780766002e-09
6.1227062325e-09
8.65459470786e-10
6.15100489306e-10
2.18357801202e-09
8.18488064105e-10
3.05816873382e-09
5.10194047519e-09
1.01370690622e-08
9.64477085821e-10
1.67172860567e-09
9.72118917052e-10
1.46854090311e-08
1.10940426743e-08
3.31086164571e-09
2.25824735058e-09
7.24417096414e-09
9.52032071106e-10
1.50035127946e-09
8.06215212483e-09
1.74543528127e-08
1.51876794529e-08
9.43833177042e-09
3.61183588009e-09
4.08620163039e-10
3.07047595969e-09
1.63001396824e-08
3.5958376893e-09
3.5454682476e-10
8.29088161487e-09
1.22757026465e-08
1.18864958104e-08
6.20949545721e-09
1.20595016178e-08
1.53881825769e-09
3.41324802092e-09
1.30487221558e-08
8.02409835162e-10
4.20811188166e-09
8.21383126408e-10
7.36343961281e-09
5.67637476358e-10
1.44039068272e-08
1.34771704385e-09
3.66150238838e-09
2.67559181219e-09
6.65485323835e-09
9.93299132294e-10
8.00032323375e-11
1.15870511155e-08
1.94566648561e-08
6.38526925463e-09
2.01282449521e-08
6.36317303796e-09
1.04418141396e-09
2.04922502379e-09
1.80757756178e-09
2.47207789253e-09
1.62820462869e-08
1.66469769938e-08
3.50201817387e-09
8.41112811365e-09
8.49698540563e-09
8.94881675333e-09
3.28164287742e-09
1.60877826855e-08
8.11751446335e-10
4.6139169174e-09
1.44303694152e-10
5.61884437638e-09
4.15868369968e-09
1.08746029907e-08
8.72576664267e-10
3.182190909e-09
4.4697288662e-09
2.92603605286e-10
4.38967426272e-09
1.95535288703e-09
4.30911095905e-10
5.65903811251e-09
5.38060262965e-09
1.93339003869e-08
1.82716396356e-08
1.76565960749e-09
3.0346292622e-09
2.9183894576e-09
4.53540432873e-09
2.20062786949e-09
2.6159162342e-09
2.78698507786e-09
2.6955039414e-08
1.51514417902e-09
1.21040546197e-09
2.6165631531e-09
2.30447695059e-11
4.06150930228e-09
1.46826016713e-09
1.43667113336e-09
2.76382697712e-09
2.34275261747e-10
4.61952763775e-11
5.31540379152e-10
2.77936213017e-09
7.12598403205e-10
2.4150561907e-09
1.60166109386e-08
5.15275970961e-10
4.76173956708e-09
1.90468123419e-09
5.19921422284e-10
8.06153367865e-09
4.35149290295e-09
1.39136365888e-08
3.68269890486e-09
1.17682396125e-08
1.56456513238e-09
2.7261350677e-10
1.25310255384e-09
6.75988384461e-09
8.33902667081e-09
3.16630095724e-09
2.58655583725e-09
2.40602025275e-09
1.07238599678e-09
8.24871389568e-09
1.04235437278e-09
2.94770001307e-09
1.38696247982e-08
2.21857809228e-09
1.94621383147e-09
9.47282028044e-09
7.55494484735e-09
4.63894991273e-09
6.71928876607e-09
2.74203075944e-09
2.98621539251e-09
1.8799373169e-09
7.12032819187e-09
6.80859414872e-10
8.37770927355e-09
2.47308687199e-09
5.6760583514e-09
2.60033407526e-09
4.55522801509e-10
2.44187658233e-09
7.28953409613e-10
2.88792602331e-10
8.84780206763e-10
8.94876172956e-10
4.42927357322e-09
2.49949732739e-09
4.01678594672e-10
7.4810410364e-09
1.39419108715e-08
1.80874540853e-08
2.36029337845e-09
7.06004489737e-10
1.78934100409e-10
5.38721318094e-09
3.44583691867e-09
2.62872334298e-08
3.57944837021e-09
5.35552841246e-09
6.97713107649e-09
4.229144428e-09
5.82169504062e-09
2.68101230245e-09
3.25520270786e-09
1.04364441753e-08
3.67444116329e-09
3.42615814255e-09
4.47061125359e-09
1.21383155698e-08
1.9880729135e-09
3.97327382683e-09
3.49713497655e-09
1.01595428609e-08
6.12697204495e-09
6.31641619703e-10
1.05467870212e-08
1.00852490299e-08
1.95407073126e-09
2.51650646613e-09
1.26810759539e-10
1.16829013199e-08
1.93301473729e-08
4.55625110852e-10
2.76374067395e-09
5.1766640758e-10
5.61948116169e-09
1.77229043107e-09
7.57638891247e-10
4.85762690782e-10
1.27052748856e-08
6.74520001135e-09
1.2757429435e-08
2.14024835449e-10
3.52350763374e-09
6.67240070551e-09
3.43899300919e-09
2.10084402975e-09
7.7841269884e-09
2.87210285336e-09
1.48350419135e-08
7.49395009137e-09
4.4304949522e-09
5.76017178964e-10
8.63941550285e-10
7.84198129793e-09
8.88486635396e-09
8.5178241937e-09
6.08553361447e-10
3.67245764774e-10
1.74773271488e-08
2.62069778467e-08
2.53047569631e-09
1.21938372362e-09
2.28683100629e-08
5.76698197269e-09
1.19903378969e-09
5.91239321356e-09
6.63774877542e-09
3.89734011648e-09
8.57135769073e-09
5.99367778545e-09
3.82943922052e-09
6.91107095422e-09
9.64860417432e-09
6.60328126433e-09
3.72408187455e-10
5.62446799233e-09
8.56929403489e-09
3.14230050753e-09
1.62226919098e-09
2.88799728185e-09
3.42575632568e-09
7.8153829061e-09
1.82181705484e-09
1.33425641467e-08
4.4467289281e-09
1.6751992943e-10
8.40903195519e-09
3.5933230325e-09
3.41298923116e-09
6.44385018234e-09
3.62536676343e-09
9.53579411173e-11
1.53041378382e-08
1.96446190672e-09
8.68946617074e-10
3.44864534899e-09
3.84568569031e-09
7.41918284439e-09
6.90905180967e-09
9.70650750304e-09
1.00278360505e-08
3.24621723888e-09
4.99548057402e-09
4.05927017364e-09
3.45326004845e-09
1.30827287076e-09
2.53915030489e-09
2.07415357447e-10
9.6208004669e-09
4.95188484981e-09
1.96543250324e-09
1.53386857395e-09
3.06440978497e-09
7.29379588137e-09
5.27859552137e-09
8.31704458617e-09
2.33615573217e-09
1.44940752737e-09
3.04858406743e-09
5.08693607603e-09
6.62174833634e-10
4.21246232156e-10
1.32976402704e-09
4.3959475229e-09
7.28768211066e-10
1.68176402447e-09
2.34481336113e-10
2.43882168627e-09
2.60165426659e-10
1.74992303053e-09
5.17269923795e-10
1.76091737772e-09
1.26338150677e-09
3.59091497448e-09
4.63659661754e-09
2.42150682429e-09
1.30481894708e-08
1.58033841739e-09
4.18547327154e-10
2.09161676264e-08
8.22342253937e-09
1.56046258233e-09
1.88505398904e-09
5.66284280381e-10
5.61749970131e-09
1.30649372504e-09
1.12032113704e-09
1.28196405539e-08
9.86377851017e-10
4.0057010794e-10
3.51773269529e-10
7.04166773865e-09
2.75419415125e-11
4.53465305362e-10
5.2500943189e-09
3.84628406488e-09
9.74549950136e-10
4.7771960973e-11
2.90990523922e-10
1.97611556286e-09
1.0953276414e-09
7.70489396795e-10
1.94379029897e-09
5.06675302514e-10
1.10274065745e-09
6.14977306072e-10
2.70805349242e-11
2.70132671901e-09
2.82688204656e-09
6.53129167812e-09
7.30847908463e-09
3.57479471351e-09
5.12925859772e-09
1.31723321707e-08
2.09086073634e-08
1.09525615624e-09
2.62672262903e-09
8.10788440534e-09
4.2698971024e-09
8.06109029714e-09
1.07185778141e-08
1.84223267892e-08
1.85739768897e-09
6.9217203172e-10
2.91685339208e-09
2.55751567114e-09
8.98272564787e-09
1.23509087896e-08
3.85346529027e-09
1.17645995048e-09
2.45728565015e-09
1.19977299729e-08
1.77431676949e-08
9.97195039e-10
6.35199796013e-10
2.85835409813e-09
7.042278505e-09
2.53047471672e-10
9.4288787074e-09
1.32206376111e-09
4.08398963863e-09
3.09074575622e-08
7.14313915987e-09
8.04096621542e-10
1.05502507681e-08
8.05576722989e-09
1.29528325392e-08
1.21352146512e-08
4.53880222501e-09
8.18905174348e-09
5.9118124525e-09
1.1353106411e-08
1.93768988648e-08
9.20737811485e-09
3.20928060791e-09
1.07102109866e-08
2.66811567001e-09
5.64978931641e-09
3.97471711853e-09
5.66835727535e-09
1.40467377473e-08
7.68201795386e-09
8.66652910084e-09
4.24051492442e-09
1.26244515768e-09
1.59665775577e-08
7.58699272634e-09
1.22353210925e-08
3.66824321574e-08
1.40643602276e-08
6.88398126892e-09
1.09241181401e-08
7.54137337515e-09
1.21909314966e-08
8.80593514934e-09
1.37072705718e-08
8.33304753663e-09
5.12824012073e-09
7.56378699613e-09
1.19683382875e-08
2.91056828057e-09
3.32416772358e-10
2.14744167392e-09
4.04915958019e-09
8.20132683662e-09
1.01558321283e-08
3.03388230639e-09
6.0806651507e-09
2.19550202466e-08
1.23412901728e-08
9.64383970646e-09
1.31993406349e-09
3.73278943717e-09
1.02870080189e-08
1.05542665359e-08
1.39480263562e-08
1.5347051063e-08
3.83904368569e-09
1.62848448778e-08
2.75335950606e-08
4.49977805867e-09
7.82621806938e-10
8.94888219775e-09
3.26487351832e-09
1.39946467939e-08
2.45866012628e-09
5.03205912798e-09
4.86629511058e-09
6.28184991244e-09
8.26168530792e-09
6.39852020092e-09
4.24286189332e-09
5.68964307522e-09
3.31757619732e-08
8.33803247974e-09
5.66166357857e-09
1.32046452637e-08
1.45724659005e-09
1.27636079432e-08
4.61718834762e-09
3.36395583007e-09
1.59528221524e-09
1.80930419063e-08
3.82670677707e-09
4.1154350486e-09
4.13824147999e-09
6.63228003374e-09
2.00550323304e-09
1.15214065309e-08
8.19480104192e-09
2.75212536012e-10
1.46620969576e-08
3.22919925498e-09
1.21354576987e-08
1.23887928187e-09
5.83408327549e-10
3.77224939159e-09
1.58327434721e-08
7.9462543892e-09
1.13597404657e-09
8.27017782803e-10
8.60912947015e-09
8.8702526536e-09
5.81988482894e-09
4.3480917455e-09
3.91581255442e-09
8.30788330317e-09
7.31100336704e-09
1.21645526485e-08
1.6540262602e-09
6.42500585886e-09
4.35554830386e-09
6.57441947011e-09
9.72848757574e-09
2.85202819358e-09
4.50334782349e-09
5.44830797314e-10
7.4840751487e-09
3.04090679827e-09
5.59192013696e-09
5.98113173172e-09
8.05188120054e-09
7.00035677808e-09
1.26665713898e-08
3.40833450613e-09
8.4229920211e-09
9.81814369692e-09
7.94754024639e-10
2.51706186414e-09
4.33994785149e-09
2.78884724123e-09
4.67855136728e-09
5.12375484734e-09
5.56953181476e-09
2.6896626998e-10
6.06120540897e-09
5.58584168267e-09
1.27803621329e-08
5.0995350439e-10
6.4929283237e-09
8.41712707426e-10
3.24461329138e-09
7.50043913426e-09
1.17691361981e-08
9.84413521773e-10
4.76449637944e-09
5.34976781613e-09
4.55885163757e-09
2.39572812039e-09
1.50869726623e-08
4.53401543802e-09
4.41109509779e-09
5.60243131776e-09
9.59763833773e-09
1.69573680504e-10
1.66112472936e-09
1.60471860846e-08
2.48225553634e-10
4.03898409256e-09
7.23812090106e-09
4.95782594825e-09
1.19230804367e-09
1.12154477906e-08
1.44829850478e-09
5.0174250805e-09
5.79974171553e-09
1.94002842529e-09
2.79477268506e-08
1.09052676236e-08
7.14766441743e-10
3.13342920102e-09
1.0951536785e-08
2.42479802769e-09
7.18504679522e-09
6.68797980385e-09
5.37410699848e-09
2.94222704304e-09
5.46112071027e-09
2.69577080265e-09
5.8963996487e-09
3.61436211062e-09
2.90554719519e-09
6.71373996214e-09
6.7291424339e-10
9.03760975703e-10
9.81274111203e-09
1.26144874904e-10
7.67826802842e-09
1.77566738929e-09
2.07251251081e-10
1.13235384526e-09
4.51059627662e-09
2.03168532536e-09
6.0702798947e-09
3.05119468836e-09
2.88433319051e-10
7.23310140151e-09