# vtk DataFile Version 3.0
File Name: Molecule/sphere_cent/sphere_cent_0-s5.vtk
ASCII
DATASET UNSTRUCTURED_GRID
FIELD FieldData 1
TIME 1 1 double
0.0
POINTS 3388 double
-0.077254248594 0.587662702088 0.738195523811
0.077254248594 0.587662702088 0.738195523811
0.0 0.675325404176 0.667374053247
0.154508497188 0.675325404176 0.667374053247
0.231762745782 0.587662702088 0.738195523811
0.0 0.5 0.809016994375
0.154508497188 0.5 0.809016994375
0.279508497188 0.664916950682 0.613195523811
-0.738195523811 -0.077254248594 -0.587662702088
-0.809016994375 0.0 -0.5
-0.738195523811 0.077254248594 -0.587662702088
-0.154508497188 0.25 -0.904508497187
-0.285941275218 0.25 -0.867171199275
-0.231762745782 0.375 -0.856762745781
0.25 0.904508497187 0.154508497188
0.125 0.952254248593 0.077254248594
0.125 0.914916950682 0.208687026624
-0.904508497187 -0.154508497188 -0.25
-0.914916950682 -0.208687026624 -0.125
-0.952254248593 -0.077254248594 -0.125
-0.925325404176 -0.26286555606 0.0
-0.962662702088 -0.13143277803 0.0
0.925325404176 -0.26286555606 0.0
0.938789826385 -0.170059902327 -0.0625
0.962662702088 -0.13143277803 0.0
0.809016994375 -0.154508497188 -0.5
0.832889870078 -0.115881372891 -0.4375
0.832889870078 -0.193135621485 -0.4375
0.856762745781 -0.154508497188 -0.375
0.856762745781 -0.077254248594 -0.375
0.809016994375 -0.077254248594 -0.5
0.832889870078 -0.038627124297 -0.4375
0.880635621484 -0.115881372891 -0.3125
0.880635621484 -0.193135621485 -0.3125
0.809016994375 0.0 -0.5
0.832889870078 0.038627124297 -0.4375
0.856762745781 0.0 -0.375
0.809016994375 0.077254248594 -0.5
0.832889870078 0.115881372891 -0.4375
0.809016994375 0.154508497188 -0.5
0.856762745781 0.077254248594 -0.375
0.832889870078 0.193135621485 -0.4375
0.856762745781 0.154508497188 -0.375
0.880635621484 0.193135621485 -0.3125
0.880635621484 0.115881372891 -0.3125
0.856762745781 0.231762745782 -0.375
0.904508497187 0.154508497188 -0.25
0.904508497187 -0.154508497188 -0.25
0.904508497187 -0.077254248594 -0.25
0.92838137289 -0.115881372891 -0.1875
0.92838137289 -0.038627124297 -0.1875
0.952254248593 -0.077254248594 -0.125
0.904508497187 0.0 -0.25
0.92838137289 0.038627124297 -0.1875
0.952254248593 0.0 -0.125
0.904508497187 0.077254248594 -0.25
0.92838137289 0.115881372891 -0.1875
0.738195523811 0.154508497188 -0.587662702088
0.667374053247 0.077254248594 -0.675325404176
0.667374053247 0.154508497188 -0.675325404176
0.596552582683 0.077254248594 -0.762988106264
0.596552582683 0.0 -0.762988106264
0.596552582683 -0.077254248594 -0.762988106264
0.667374053247 -0.077254248594 -0.675325404176
0.667374053247 -0.154508497188 -0.675325404176
0.738195523811 -0.077254248594 -0.587662702088
0.738195523811 -0.154508497188 -0.587662702088
0.738195523811 -0.231762745782 -0.587662702088
0.809016994375 -0.231762745782 -0.5
0.914916950682 0.208687026624 -0.125
0.87757965277 0.340119804654 -0.125
0.901452528473 0.301492680357 -0.0625
0.938789826385 0.170059902327 -0.0625
0.925325404176 0.26286555606 0.0
0.891044074979 0.247314150921 -0.1875
0.867171199276 0.285941275218 -0.25
0.843298323572 0.324568399515 -0.3125
0.853706777066 0.37874692895 -0.1875
0.829833901363 0.417374053247 -0.25
0.864115230561 0.432925458386 -0.0625
0.840242354857 0.471552582683 -0.125
0.742171199276 0.488195523811 -0.327254248594
0.791206777066 0.479874053247 -0.226127124297
0.780798323572 0.425695523811 -0.351127124297
0.75257965277 0.542374053247 -0.202254248594
0.801615230561 0.534052582683 -0.101127124297
0.850650808352 0.525731112119 0.0
0.762988106264 0.596552582683 -0.077254248594
0.713952528473 0.604874053247 -0.178381372891
0.703544074979 0.550695523811 -0.303381372891
0.577254248593 0.684016994375 -0.356762745782
0.645389870078 0.419262745782 -0.55338137289
0.669262745781 0.457889870079 -0.490881372891
0.707889870078 0.395389870079 -0.514754248593
0.606762745781 0.481762745782 -0.529508497188
0.684016994375 0.356762745782 -0.577254248593
0.621516994375 0.380635621485 -0.61588137289
0.582889870078 0.443135621485 -0.592008497187
0.559016994375 0.404508497188 -0.654508497187
0.731762745781 0.434016994375 -0.452254248594
0.693135621484 0.496516994375 -0.428381372891
0.630635621484 0.520389870079 -0.467008497188
0.520389870079 0.467008497188 -0.630635621484
0.550695523811 0.303381372891 -0.703544074979
0.434016994375 0.452254248594 -0.731762745781
0.542374053247 0.202254248594 -0.75257965277
0.425695523811 0.351127124297 -0.780798323573
0.534052582683 0.101127124297 -0.801615230561
0.604874053247 0.178381372891 -0.713952528473
0.613195523811 0.279508497188 -0.664916950682
0.675695523811 0.255635621485 -0.626289826385
0.452254248594 0.731762745781 -0.434016994375
0.365881372891 0.698339848231 -0.523606259093
0.327254248594 0.742171199275 -0.488195523811
0.288627124297 0.786002550319 -0.452784788529
0.375 0.819425447869 -0.363195523811
0.240881372891 0.708748301725 -0.577784788529
0.163627124297 0.796411003813 -0.506963317965
0.038627124297 0.806819457308 -0.561141847401
0.125 0.840242354857 -0.471552582683
0.077254248594 0.762988106264 -0.596552582683
0.0 0.850650808352 -0.525731112119
0.675325404176 0.667374053247 -0.077254248594
0.762988106264 0.596552582683 0.0
0.675325404176 0.667374053247 0.0
0.587662702088 0.738195523811 0.0
0.5 0.809016994375 0.077254248594
0.587662702088 0.738195523811 0.077254248594
0.5 0.809016994375 0.154508497188
0.25 0.829833901363 -0.417374053247
0.1875 0.853706777066 -0.37874692895
0.25 0.867171199275 -0.285941275218
0.0625 0.86411523056 -0.432925458386
0.125 0.877579652769 -0.340119804654
0.125 0.877579652769 0.340119804654
0.125 0.896248301725 0.274403415639
0.0 0.925325404176 0.26286555606
0.25 0.885839848231 0.220224886203
-0.25 0.829833901363 0.417374053247
-0.1875 0.83503812811 0.444463317965
-0.125 0.877579652769 0.340119804654
-0.0625 0.882783879516 0.367209069371
-0.125 0.840242354857 0.471552582683
0.0 0.887988106264 0.394298334089
-0.0625 0.845446581605 0.498641847401
-0.125 0.896248301725 0.274403415639
-0.25 0.848502550319 0.351657664233
-0.375 0.856762745781 0.231762745782
-0.375 0.838094096825 0.297479134797
-0.25 0.867171199275 0.285941275218
-0.375 0.819425447869 0.363195523811
-0.4375 0.814221221122 0.336106259093
-0.4375 0.832889870078 0.270389870079
-0.25 0.904508497187 -0.154508497188
-0.25 0.904508497187 -0.077254248594
-0.125 0.952254248593 -0.077254248594
-0.125 0.952254248593 0.0
-0.25 0.904508497187 0.0
-0.25 0.904508497187 0.077254248594
-0.3125 0.880635621484 -0.115881372891
-0.3125 0.880635621484 0.038627124297
-0.3125 0.880635621484 0.115881372891
-0.375 0.856762745781 0.077254248594
-0.25 0.904508497187 0.154508497188
-0.3125 0.880635621484 -0.193135621485
-0.375 0.856762745781 -0.154508497188
-0.375 0.856762745781 -0.231762745782
-0.4375 0.832889870078 0.193135621485
-0.0625 0.901452528472 -0.301492680357
-0.125 0.896248301725 -0.274403415639
-0.0625 0.920121177429 -0.235776291342
-0.125 0.877579652769 -0.340119804654
-0.1875 0.872375426022 -0.313030539936
-0.1875 0.891044074979 -0.247314150921
-0.25 0.867171199275 -0.285941275218
-0.125 0.914916950682 -0.208687026624
-0.1875 0.853706777066 -0.37874692895
-0.25 0.848502550319 -0.351657664233
-0.25 0.885839848231 -0.220224886203
-0.1875 0.909712723934 -0.181597761906
-0.0625 0.86411523056 -0.432925458386
0.0 0.887988106264 -0.394298334089
0.0 0.925325404176 -0.26286555606
-0.3125 0.861966972528 -0.2588520105
-0.3125 0.843298323572 -0.324568399515
-0.375 0.838094096825 -0.297479134797
-0.375 0.819425447869 -0.363195523811
-0.3125 0.824629674616 -0.390284788529
-0.25 0.829833901363 -0.417374053247
-0.4375 0.832889870078 -0.270389870079
-0.4375 0.814221221122 -0.336106259093
-0.101127124297 0.80161523056 0.534052582683
-0.038627124297 0.806819457308 0.561141847401
-0.077254248594 0.762988106264 0.596552582683
-0.202254248594 0.752579652769 0.542374053247
-0.413627124297 0.775594096825 0.398606259093
-0.452254248594 0.731762745781 0.434016994375
-0.327254248594 0.742171199275 0.488195523811
-0.476127124297 0.770389870078 0.371516994375
-0.428381372891 0.693135621484 0.496516994375
-0.577254248593 0.684016994375 0.356762745782
-0.55338137289 0.645389870078 0.419262745782
-0.514754248593 0.707889870078 0.395389870079
-0.490881372891 0.669262745781 0.457889870079
-0.434016994375 0.452254248594 0.731762745781
-0.395389870079 0.514754248593 0.707889870078
-0.481762745782 0.529508497188 0.606762745781
-0.371516994375 0.476127124297 0.770389870078
-0.538627124296 0.746516994375 0.332889870079
-0.58245847534 0.711106259093 0.294262745782
-0.425695523811 0.351127124297 0.780798323572
-0.363195523811 0.375 0.819425447869
-0.417374053247 0.25 0.829833901363
-0.488195523811 0.327254248594 0.742171199276
-0.479874053247 0.226127124297 0.791206777066
-0.675695523811 0.255635621485 0.626289826385
-0.667374053247 0.154508497188 0.675325404176
-0.604874053247 0.178381372891 0.713952528473
0.0 0.762988106264 0.596552582683
0.038627124297 0.806819457308 0.561141847401
0.077254248594 0.762988106264 0.596552582683
-0.038627124297 0.71915675522 0.631963317965
0.038627124297 0.71915675522 0.631963317965
-0.154508497188 0.675325404176 0.667374053247
0.115881372891 0.71915675522 0.631963317965
0.077254248594 0.675325404176 0.667374053247
0.193135621485 0.543831351044 0.773606259093
0.0 0.125 0.952254248593
0.077254248594 0.125 0.952254248593
0.038627124297 0.1875 0.92838137289
-0.077254248594 0.125 0.952254248593
-0.038627124297 0.0625 0.976127124296
0.038627124297 0.0625 0.976127124296
0.115881372891 0.4375 0.832889870078
0.077254248594 0.375 0.856762745781
0.154508497188 0.375 0.856762745781
0.193135621485 0.4375 0.832889870078
0.231762745782 0.375 0.856762745781
0.115881372891 0.3125 0.880635621484
0.193135621485 0.3125 0.880635621484
0.231762745782 0.5 0.809016994375
0.270389870079 0.4375 0.832889870078
-0.208687026624 0.125 0.914916950682
-0.301492680357 0.0625 0.901452528473
-0.170059902327 0.0625 0.938789826385
-0.340119804654 0.125 0.87757965277
-0.432925458386 0.0625 0.864115230561
[...]
CELL_DATA 6772
SCALARS cell_data_0 double
LOOKUP_TABLE default
3.12541132317e-07
2.76904648836e-07
8.41530704853e-09
2.03196130452e-07
2.35502387156e-07
1.10780284253e-07
1.28506784778e-07
6.96502502186e-08
7.96768575478e-08
1.56951782218e-07
9.5068454392e-10
9.26532116124e-08
1.45783976097e-07
3.5860639514e-08
1.41902418519e-07
1.5684863706e-07
1.08417341344e-07
1.16047684483e-07
1.80516477749e-07
2.464611526e-08
6.60321533197e-08
1.28363516041e-07
4.7333445002e-08
7.88786971821e-08
2.69613222698e-08
9.98226634111e-08
1.49457951389e-08
2.49380741229e-08
4.54256234294e-08
1.02600271008e-08
1.30129032416e-07
2.563289496e-08
2.57258279721e-09
1.22515450748e-07
8.54582492901e-08
1.00997703076e-07
2.03846201282e-07
5.37888316374e-08
5.71495701815e-08
1.36957366373e-07
1.41794643971e-07
1.48744050855e-08
1.16731367047e-07
7.48310476123e-08
8.18835007445e-08
1.11183345204e-08
9.82133911051e-08
1.13518421757e-07
6.71464475361e-08
5.68103815267e-08
5.99428590756e-08
3.74363661302e-08
2.7097877692e-08
7.189564574e-08
1.01471098782e-08
3.39638259813e-08
9.5768636571e-08
1.46244926601e-07
6.24303004906e-08
4.16769634481e-10
3.55545182752e-07
1.10337261208e-07
4.37089153398e-08
2.41722710336e-08
5.25085153865e-08
3.24133342236e-09
7.11719188076e-08
6.9818706663e-08
7.27577761199e-08
1.92642555024e-08
1.01919416977e-07
3.72669673377e-08
1.99677776373e-08
1.63326821193e-07
3.20485208609e-07
1.35158250553e-07
1.45490356443e-08
1.69191912529e-07
6.01875968194e-09
3.0832390385e-09
4.47392346296e-08
8.49768457447e-08
2.93444132829e-08
9.29409165409e-09
5.69771512352e-08
2.21145251439e-09
1.39056345805e-07
1.40027901763e-07
1.60010204373e-07
2.37481367732e-07
4.64285443996e-07
3.23773966926e-08
1.01664314257e-07
1.70610345212e-07
1.72960921584e-08
6.08277072299e-08
1.91681750342e-07
8.56102810736e-08
1.8275413901e-07
5.28770512822e-08
5.21638332938e-08
1.33302498534e-08
9.41121530934e-08
2.34166782477e-08
1.60889982615e-07
9.10831518462e-08
4.87411707907e-08
9.82172265963e-08
1.37497572728e-07
4.64315166508e-08
7.45028950675e-09
1.99983992519e-08
3.92975336355e-08
6.70805012264e-08
1.13266449669e-07
7.6243751054e-08
6.38683402673e-08
7.0206298304e-08
5.09910489539e-08
6.81534937361e-08
5.76400252695e-08
9.46874380481e-08
3.8989873822e-08
2.260473127e-08
2.71173363021e-09
9.05581177304e-08
4.94691255877e-08
1.88400263789e-07
1.86265398136e-07
6.46087701583e-08
3.52822402816e-08
7.00568451255e-08
9.63269702336e-08
8.74757463538e-08
9.27124011471e-08
7.4639333363e-08
7.34750722337e-08
7.94221164817e-08
5.62230977668e-08
4.19901027942e-08
3.45933421214e-08
1.04412988709e-07
3.95968887685e-08
4.38261895895e-08
3.2732566256e-09
1.03737225505e-07
2.838135186e-08
6.03488917069e-08
7.99046633828e-08
7.48227232383e-08
1.31904836761e-08
2.92348954721e-08
8.99130299178e-09
1.14888583316e-07
9.25536103458e-08
1.57474460141e-07
8.31349040505e-08
1.96446870817e-07
9.5193171687e-08
4.70538978453e-08
2.57423104827e-08
5.52207499259e-08
1.36546874007e-07
1.41564359499e-07
3.92045407618e-08
8.30822482923e-08
3.40887672626e-08
4.73914109535e-08
2.07785976195e-07
1.94902384485e-09
9.15249357905e-08
3.05323002055e-09
9.96801572779e-08
6.07688754064e-08
2.80433846871e-08
4.16673601675e-09
4.15949289218e-09
2.15501918065e-07
1.26497629787e-07
1.15553182392e-07
3.87885264332e-08
3.84149334296e-08
6.47226917465e-08
3.56276913014e-08
8.11411522189e-08
2.99574963543e-08
4.15241189546e-08
3.06458560697e-08
1.50647549574e-07
1.54496552367e-07
8.23653713381e-08
1.52708196789e-08
8.9777505756e-08
3.76887933359e-08
1.56763371009e-08
4.83551420969e-08
9.83732798677e-08
3.21077442471e-08
2.34239578064e-08
1.33024138575e-08
1.42514518969e-08
3.08637534622e-09
1.71110094661e-07
5.57474943456e-08
1.60182945648e-07
1.53223911282e-07
8.4086233098e-08
9.83003792051e-08
7.68986520076e-08
3.55555881723e-08
5.64731779738e-09
6.56424089115e-08
4.37638966539e-08
1.00317066465e-08
5.0890158747e-08
3.5295419067e-09
7.91594717938e-09
8.4189983918e-08
1.97035226507e-07
2.49962084477e-07
2.45354030161e-07
1.0370001675e-07
2.00847348436e-08
5.64883432524e-08
8.41579981061e-08
7.92885829698e-08
8.91319260057e-08
1.37813171806e-07
2.59485246513e-08
6.05280764438e-08
2.63970434775e-08
4.87125081536e-09
1.74940556168e-09
5.21203700165e-08
5.77675005808e-08
5.937477004e-08
6.21502483549e-08
8.27981621516e-09
2.90981278452e-08
3.85455696385e-08
2.04438485472e-09
1.10280453463e-08
1.47394301124e-07
4.16528101209e-08
1.47797749617e-07
1.90055825156e-09
2.05158159477e-07
1.36065420213e-08
1.23701978079e-07
6.9511808387e-08
1.47279076674e-07
5.00362528431e-08
1.11802036947e-07
1.99603424756e-08
7.85093268352e-08
4.29744610735e-08
5.46818997271e-09
2.74173012843e-08
1.7247909112e-07
6.24739759557e-08
3.58031030021e-08
6.16125251372e-08
1.81315910499e-08
5.55446819868e-08
8.15340553608e-08
5.03952945157e-08
1.32032909332e-08
1.01846751324e-07
3.73601273133e-08
9.20883770965e-08
1.22486011377e-07
8.55322886033e-08
9.41846229583e-08
7.13259900439e-08
1.38910307335e-07
5.89919901916e-08
7.27905857112e-08
7.1835938044e-08
1.43625778882e-07
1.03099151701e-07
2.71746060672e-08
4.83273942472e-08
7.48957053799e-08
3.76144151244e-08
1.14163755759e-08
4.98676642056e-08
7.89324041795e-08
3.49117770012e-09
1.13994946409e-07
1.39432863734e-08
7.95362584596e-08
1.07246511406e-07
5.12960498342e-08
2.83432805211e-09
2.73581103577e-08
1.09062018108e-07
2.01776053238e-07
1.30372018061e-07
3.02918213839e-08
2.0662860177e-08
1.37069905685e-07
1.13225975534e-07
3.10877908014e-08
9.82031248537e-08
4.9076951354e-08
6.62955053336e-08
1.2455257867e-08
4.21995777819e-08
2.86749990237e-08
3.22258272028e-08
2.96500857919e-09
1.07316147478e-08
4.99739391626e-08
4.62005035113e-08
1.19624000542e-08
2.18101108125e-08
7.38027922123e-08
1.16424938925e-07
1.00391162879e-07
4.94481507129e-08
3.85192975396e-08
6.99850096284e-08
2.38056914974e-08
6.76299252761e-08
2.59327469256e-08
1.05227496053e-08
4.4492102206e-08
2.63553311365e-08
8.93981224849e-08
6.95867376614e-08
2.07315643557e-07
4.45451859512e-08
6.19460202345e-08
2.46975633565e-07
1.33789463712e-07
1.84695181644e-07
4.91927117312e-08
8.32813881327e-09
5.4945817508e-09
5.30131874233e-09
1.74078423391e-07
1.52162136306e-07
1.29887541588e-07
9.74805437131e-08
1.00274184193e-07
7.03871243213e-08
7.83864478731e-08
2.62333080392e-08
1.12544095818e-07
1.48365362736e-07
1.14460394172e-07
1.0781975015e-07
5.63970166188e-08
1.48823102402e-08
5.0552609608e-08
1.01701629004e-08
8.87005390596e-08
2.03860467712e-08
8.94584776578e-09
5.15667431201e-08
6.08084829865e-08
8.87465659904e-08
9.95654603111e-08
9.81267478463e-08
4.41219680344e-08
5.784768816e-08
1.53102482406e-08
1.66095122501e-07
1.19957364518e-07
5.66212983859e-08
2.41071254197e-08
1.08189684098e-07
2.66100732563e-08
8.04253662687e-08
6.35179940126e-08
1.18178234962e-07
1.14332557061e-08
1.16927304143e-07
1.44656064585e-07
1.2603373306e-07
7.95723420257e-08
3.96517744679e-08
8.01390614755e-08
4.04988082903e-08
3.84629203879e-08
5.65510834114e-08
1.3022881723e-08
4.75514945696e-08
8.88849226127e-08
8.78736020658e-08
9.04342156216e-08
7.98787524382e-09
1.1240019592e-07
1.15088533925e-07
1.26008076549e-07
6.01788152056e-08
7.40604088862e-08
7.04656159963e-08
8.00136213937e-08
1.20165087862e-07
6.58652879228e-08
1.14883926785e-07
8.91306787606e-08
7.77077755056e-08
2.4659627499e-08
3.23395820526e-08
7.04663917448e-08
7.21476607957e-08
1.66796138805e-08
3.02103623422e-08
5.83923104137e-08
4.69530805584e-08
1.08917005681e-07
2.84375624604e-08
8.12124881911e-08
1.38574040545e-07
2.12860783552e-08
3.30205533138e-08
6.88371631822e-08
6.96539943249e-09
2.43182877557e-08
5.02569005784e-08
4.5101115866e-09
7.8107023386e-08
1.55661204111e-08
4.74220200763e-08
8.77751111805e-08
1.86578776574e-08
8.03336114344e-08
1.39825022204e-07
1.11031603665e-07
1.1465679921e-07
9.13353273419e-08
7.54569494757e-08
6.62538536743e-08
3.64853541128e-08
2.36432842573e-08
5.62050807838e-08
1.06650448851e-07
2.95931851518e-08
1.46494491695e-07
1.45598513249e-07
6.45643835259e-08
9.70480971269e-08
1.63710015805e-07
1.08124078911e-07
7.6612758444e-08
1.89983807189e-08
6.74632875417e-08
2.59317062261e-08
1.11182508316e-08
5.75555295862e-08
4.29767044576e-08
3.38616160976e-08
2.62435104376e-08
4.98176137258e-08
3.62487963038e-08
5.51152680863e-08
3.81762154989e-09
8.4313899608e-08
2.23778569714e-08
1.67570813685e-07
2.46275672875e-07
1.00417613115e-07
3.73662640242e-08
7.23073675111e-09
3.24761599525e-08
1.28570925803e-08
1.31265092461e-08
6.5101101242e-08
5.24869607803e-08
3.33989113866e-08
8.67907886947e-09
2.53328484226e-08
5.49209737237e-08
1.6110609291e-08
5.32826307393e-08
6.55446681946e-08
7.33576635933e-08
1.07820587292e-07
9.9531090396e-08
1.01197369388e-07
7.55866530612e-08
8.46517928269e-08
7.21063840733e-08
1.42215699501e-08
9.76913626726e-08
5.66585995521e-08
5.27466249425e-08
7.3176078609e-08
3.27801645988e-08
6.73045839737e-08
4.08885204222e-08
6.26033610673e-08
3.94945831053e-08
5.96483666832e-08
1.00086558506e-07
6.13172525888e-08
2.08385653218e-09
1.96547763094e-08
4.00196489693e-08
7.30281937465e-08
1.15731884563e-09
8.73174791508e-08
8.39134104018e-08
1.952107127e-08
2.64978384567e-07
2.72112882555e-07
1.00769297055e-07
1.08221709804e-07
2.98710768606e-08
1.26370948116e-07
9.40648401153e-09
1.00920238669e-07
2.17460574057e-08
8.15548571567e-08
1.04890608218e-07
2.79909985404e-08
2.82170445426e-08
2.72262707176e-07
2.52114983321e-07
2.51048578764e-08
1.0116306461e-07
1.42185623216e-07
1.01793450911e-07
1.26527049875e-07
1.16515768176e-07
1.15893550757e-07
1.24958394114e-07
9.55270322527e-08
4.59736116321e-08
4.77928522679e-08
3.70763720644e-08
5.79451454872e-08
5.74357162481e-08
2.70917562709e-08
2.15938800413e-08
5.19682765464e-08
1.14703595153e-07
8.73514518159e-08
1.450548919e-09
9.63991829591e-08
6.9934819163e-08
1.61822106719e-07
4.59222678259e-08
9.3462530545e-08
4.77083396004e-08
1.91027908889e-07
2.14457598826e-07
1.51673546672e-07
8.82449813727e-08
9.65746866106e-08
1.59014033156e-07
2.20630443222e-09
9.47024592815e-08
1.46084520237e-07
6.78115760681e-08
9.12920601842e-08
6.24852147455e-08
2.99628023665e-08
5.8016558955e-08
6.12936269156e-08
5.41052106587e-08
2.38179333137e-08
7.80701740456e-08
6.94145823105e-08
8.83878911211e-08
1.36594177457e-07
1.40866554591e-07
1.30200882221e-07
1.52169311642e-07
1.59762844948e-07
8.66414898125e-08
1.4255553805e-07
9.18740205342e-08
8.94372320313e-08
1.03717939408e-07
1.12781304992e-07
7.52349498487e-08
1.19677253061e-07
8.91812974508e-08
8.0333870686e-08
5.57447417426e-08
5.17486251903e-08
5.11928219748e-08
8.18536385223e-08
6.67895835187e-09
7.57386300335e-08
7.36705989089e-08
7.10945159848e-08
7.18892444412e-08
5.1866916308e-08
1.893985909e-08
1.38153692905e-07
3.57351436076e-08
3.31848028644e-08
5.41847182427e-08
7.65167333973e-08
8.01843119828e-08
2.50360752982e-07
2.84019517262e-07
1.14564908041e-07
1.97609095475e-08
7.17887118393e-08
3.32437981735e-07
2.08946476362e-07
1.58824787017e-08
5.42203539465e-08
2.43456390985e-07
1.16205133516e-07
8.72012132055e-09
2.44712418042e-08
1.66948205226e-07
2.33251215247e-08
5.96615658351e-08
1.44125159283e-07
1.79137643026e-07
2.74319291177e-07
1.49322326481e-07
1.88622776701e-07
2.12658234189e-07
1.82354099982e-07
2.25514092877e-07
2.16023101653e-07
8.19753890355e-08
3.77523039629e-07
1.47633498981e-07
2.42345905055e-07
2.31442926128e-07
3.53583274902e-07
3.96351631818e-08
4.49703001265e-08
9.28634850259e-09
1.73458548757e-08
1.34349081744e-07
3.99156789518e-08
8.99656019606e-08
4.9566112358e-08
1.96163141385e-08
5.91151806399e-08
1.04539551925e-07
1.31002591386e-08
1.20254697664e-08
1.27578898903e-07
1.2132430792e-07
1.36870022532e-07
1.88506049583e-07
1.83699629712e-07
1.98062410472e-07
8.15741344558e-08
3.20181384237e-08
2.10203248537e-08
2.04928331272e-08
1.544410001e-08
2.84405385941e-08
2.11062894856e-07
3.43943473331e-10
7.18556440297e-08
5.04686128544e-08
7.37581208511e-08
2.04567584414e-07
1.06852726895e-07
4.23943378519e-08
7.60420881742e-08
9.58717633881e-08
3.07087322663e-08
1.01453738154e-07
1.28687668825e-07
1.38045188583e-07
1.1468040043e-07
1.16162532892e-07
7.16204842691e-08
7.60870494197e-08
8.206578922e-08
9.87342660602e-08
3.18714907779e-08
9.06625168736e-09
5.90026276649e-08
9.6874742868e-08
6.33351476873e-08
4.9019042408e-08
3.61663805525e-08
1.37712289724e-08
4.14413539042e-08
3.36757618773e-08
1.23001971793e-07
7.50485777444e-08
5.68995856834e-08
2.03610486792e-08
8.16900121123e-08
2.65299441747e-08
1.12916173906e-07
8.06370255009e-08
6.88213376188e-08
1.27697891356e-08
9.39390121436e-08
4.67540507599e-08
8.50017029485e-08
1.14273282891e-07
9.57277179712e-08
6.76932839505e-08
7.4133333817e-10
2.2182512029e-08
1.44163605762e-08
2.56635781466e-08
1.75080239551e-08
1.99600800677e-07
6.05493928486e-08
5.12305553147e-08
3.97592830479e-09
4.50426745148e-09
6.10387162787e-08
4.33122022075e-08
4.47875453898e-08
3.1040446024e-08
7.6845835394e-08
5.67409434937e-08
9.92155288548e-08
1.11254612405e-07
1.06450602025e-07
9.18232503685e-08
1.35513135249e-07
1.20130315017e-07
1.22319555205e-07
1.17884827398e-07
8.25688205281e-08
8.18166570886e-08
9.47405163909e-09
4.43088748253e-08
3.02973418041e-09
3.52692733304e-08
4.25610895092e-08
5.20608203046e-08
2.50182324921e-08
2.19189892744e-09
2.4692799099e-08
1.14733825295e-07
1.66159316692e-07
2.06901630353e-07
1.76773964712e-07
3.89169854744e-08
2.03251128538e-08
3.90730498241e-08
6.34566851091e-08
3.60465888167e-08
3.79733237211e-08
4.55942404745e-08
2.35246387877e-08
6.98564442543e-08
5.91629633725e-08
8.47637965622e-09
2.30150637232e-08
4.5141036374e-08
4.45325855701e-08
2.80518145218e-08
8.38772749507e-08
4.6361055517e-08
4.30574424777e-08
7.07397214918e-08
3.15550219608e-08
4.80643872888e-08
1.93403248715e-08
2.70951031374e-08
5.13359087337e-08
5.02203643261e-08
1.05534791307e-08
5.74607833827e-09
2.83263713984e-08
5.52254856273e-08
5.00230294189e-09
4.05228785082e-08
1.34685385594e-08
1.31352936576e-07
1.22391383387e-07
7.19672245763e-08
1.03558875712e-07
6.24046158356e-08
1.00520188537e-07
8.91530055097e-08
7.77534107295e-08
4.08975159403e-08
1.04228275386e-07
1.15038982496e-07
5.77792963279e-08
9.16075501852e-08
1.9740274387e-08
1.76171126576e-07
1.44391090263e-08
6.11451735822e-08
3.58281606933e-09
1.03989170305e-07
7.14729298006e-08
4.77425621765e-08
1.26031288159e-07
9.23647354896e-08
1.41479753528e-07
1.36964743748e-07
1.18438581342e-07
6.76985361832e-09
5.4093638678e-08
3.03854759705e-08
1.08379865997e-07
9.00036421067e-08
5.44625279433e-08
4.94502490911e-08
1.20396448094e-08
1.48974078437e-08
9.96303955764e-08
2.52853077758e-08
7.94912238114e-08
8.7924323948e-08
1.24047147844e-08
6.32970939919e-08
1.48560245635e-07
1.34354544488e-07
7.80611047812e-08
6.03405992319e-08
9.17559481952e-08
1.44334434732e-07
1.00526898725e-07
2.51303081227e-08
4.12094917434e-08
3.69761318363e-08
1.18516000092e-07
3.89095309073e-08
4.69110604932e-09
8.83116870801e-08
1.00455367508e-07
3.61323643549e-08
3.76454358746e-08
1.68403471955e-08
1.21058929096e-08
2.83712197176e-08
3.62656060508e-08
4.53139410283e-08
2.96257601199e-08
3.64346725036e-08
1.92733282117e-08
5.40521544398e-08
1.12404111512e-07
3.66497346679e-08
5.31244306446e-08
4.94541543709e-08
3.37086437029e-08
5.18364026056e-08
5.63070982979e-08
1.31896972463e-07
1.59832965848e-07
1.2706685922e-07
1.34997534954e-07
7.82553533448e-08
1.01470378702e-07
6.55404168766e-08
1.0956992121e-07
2.03577828982e-08
6.81900086444e-08
1.45630698668e-08
1.01026487048e-07
9.73276320015e-08
2.01078954127e-08
6.90972789952e-08
2.14646290088e-07
1.43022156099e-08
8.52771478574e-08
8.26463893908e-08
9.91159750276e-08
1.17057343442e-07
1.83342012832e-07
1.12231799277e-07
1.88446607044e-07
8.50306423576e-08
1.02296163231e-07
1.12766249383e-07
7.66191276247e-08
1.18991256651e-07
1.41244442238e-07
8.71323587369e-08
1.4929815424e-07
1.97722713933e-07
5.9085082299e-08
9.26483951047e-08
8.45688869969e-08
1.81645697234e-07
2.50313605146e-08
5.11808835279e-08
7.2366841342e-08
6.94798387223e-08
3.98469102624e-08
2.6451946565e-08
9.70036933674e-09
7.21177427124e-09
4.35433057585e-08
4.62885245e-08
7.87686272338e-09
1.02616703373e-08
1.27897289468e-08
8.41443233736e-08
7.00644452925e-08
1.0127500497e-07
1.35234211036e-08
8.76731688544e-08
5.82118597203e-08
6.80262835317e-08
2.05076647754e-09
7.22146970826e-09
3.13456540253e-08
5.81295920206e-08
1.93471234666e-07
3.22948768524e-08
4.25368370675e-08
2.10039949372e-08
5.26628795476e-08
8.85739712561e-08
8.58747311782e-08
5.81806995641e-08
9.38519484321e-08
1.26170481569e-07
3.73903206401e-08
1.10233644172e-07
1.06406971132e-07
9.20913774977e-08
7.41587660121e-08
8.62500181193e-08
6.41821187128e-08
2.03754139014e-08
7.76958987182e-08
3.24136182044e-08
5.43631821167e-08
4.56172486458e-09
9.99191079039e-08
4.96377839468e-08
7.89675145337e-08
3.52367484473e-08
9.78709333385e-08
1.04167474498e-07
1.08835425112e-07
5.39519321692e-08
4.03209361587e-08
1.02278674587e-07
2.85596674145e-08
1.25120002817e-07
2.26725307632e-09
1.52097689772e-07
8.53221263945e-08
8.94840845998e-08
1.0809514577e-07
4.3310201374e-08
4.78911703059e-08
6.41543193732e-08
1.00625252185e-07
5.54295568005e-09
9.62251082275e-08
9.86301471715e-08
7.26950217176e-08
6.14468105204e-08
1.8606165178e-07
4.52786703692e-08
5.97727842834e-08
4.7864027799e-09
7.96970318534e-08
5.93411159507e-08
2.65113691263e-08
9.28979711261e-08
7.8958303539e-08
1.44313982284e-08
9.79646680754e-08
4.85521063399e-09
1.99786172727e-08
3.24697807807e-08
4.88154993831e-08
2.50176018019e-08
4.5953667722e-09
3.50732456065e-08
6.02683791805e-08
7.35504990208e-08
1.45089302563e-08
2.05160525676e-09
3.55057432597e-09
5.96073599522e-08
1.91844156682e-08
7.68915217568e-09
5.85198618082e-08
8.09467548456e-08
1.00761827968e-07
4.56070303583e-08
6.64511695434e-08
4.18541864721e-08
8.99847155569e-08
4.54694427091e-08
3.04201993282e-08
4.23025055525e-08
2.70962633042e-08
1.40555133381e-08
6.74213754552e-08
8.93825248721e-08
7.44078261125e-09
4.74948195058e-08
8.07884876437e-08
5.79595689906e-08
9.3108167896e-08
4.42255929165e-08
3.4721127734e-09
3.69473321245e-08
4.98441346379e-08
4.06905368415e-08
3.72413357189e-08
1.79229262212e-08
2.19508307767e-09
5.30296966006e-08
3.99545241568e-08
1.35121962074e-08
7.57802905669e-08
8.62093336978e-08
4.49569475311e-08
5.2202718805e-08
8.41838131396e-08
2.73588318909e-08
9.80851928518e-09
5.97526194526e-08
7.62734384774e-08
7.19691629015e-08
2.52019491886e-08
4.43817374828e-08
7.85786036713e-08
5.86797320618e-08
4.02982262703e-09
2.49251697654e-08
3.0846356102e-08
6.67056841563e-08
1.46494933227e-09
3.23702734111e-08
4.13439028437e-08
8.15716037294e-08
4.47584708161e-08
5.08327314382e-08
4.12225722931e-08
1.02084146548e-09
1.1459161763e-08
4.10299899379e-08
3.87431975848e-08
4.55974801808e-08
5.81988619197e-08
1.59285782949e-07
6.3055122544e-08
4.50912156903e-08
1.43808319348e-08
6.40873063196e-08
1.43518740166e-08
7.03062345793e-08
1.43559980502e-08
5.52786928403e-08
3.23775757603e-08
7.61689760473e-08
6.30383836782e-08
3.02534502016e-08
2.18806930512e-08
1.88430208534e-07
8.87109089815e-08
7.86764916122e-08
9.12473631229e-08
2.50967506557e-08
7.9152233653e-08
1.03890431931e-07
9.42087650604e-09
4.12617960206e-08
1.30607756516e-07
7.02734282466e-08
1.31033848822e-07
1.60843455412e-09
1.28493000724e-07
1.45588052532e-07
9.87593997237e-08
1.08364865076e-07
1.85461305956e-07
1.33771957372e-07
1.66981778045e-07
1.27068178612e-07
1.53639873456e-07
1.04598202066e-07
1.37919034443e-07
6.21317563868e-08
6.16464877607e-08
2.549766913e-08
7.24620220661e-08
1.40172921196e-07
1.64972491825e-07
1.17821609676e-07
1.56440608467e-07
4.81913750884e-09
7.51724987306e-08
4.69376666531e-08
9.62739494946e-08
1.9923497841e-08
2.01588341337e-08
4.42182861745e-08
3.19471600641e-08
9.33356380092e-08
7.74327379341e-08
7.6540233778e-08
3.39242235877e-08
2.94501393277e-08
1.92532266986e-08
3.30659198552e-08
3.02536550585e-08
7.74826323106e-08
8.02442182355e-09
6.90013234061e-09
3.73433497956e-08
1.13778546724e-07
5.40803123031e-08
7.68570955155e-08
3.31541665977e-08
2.94562022682e-07
1.02796687468e-07