# vtk DataFile Version 3.0
File Name: Molecule/sphere_cent/sphere_cent_0-s4.vtk
ASCII
DATASET UNSTRUCTURED_GRID
FIELD FieldData 1
TIME 1 1 double
0.0
POINTS 1224 double
0.829833901363 -0.417374053247 -0.25
0.87757965277 -0.340119804654 -0.125
0.850650808352 -0.525731112119 0.0
0.675325404176 0.667374053247 -0.154508497188
0.577254248593 0.684016994375 -0.356762745782
0.5 0.809016994375 -0.309016994375
0.529508497188 0.606762745781 -0.481762745782
0.452254248594 0.731762745781 -0.434016994375
0.375 0.856762745781 -0.231762745782
0.5 0.809016994375 -0.154508497188
0.375 0.856762745781 -0.077254248594
0.25 0.904508497187 -0.154508497188
0.375 0.856762745781 0.077254248594
0.5 0.809016994375 0.0
0.375 0.819425447869 -0.363195523811
0.25 0.867171199275 -0.285941275218
0.25 0.829833901363 -0.417374053247
-0.375 0.856762745781 0.077254248594
-0.5 0.809016994375 0.0
-0.5 0.809016994375 0.154508497188
-0.077254248594 0.762988106264 0.596552582683
-0.202254248594 0.752579652769 0.542374053247
-0.154508497188 0.675325404176 0.667374053247
-0.25 0.829833901363 0.417374053247
-0.327254248594 0.742171199275 0.488195523811
-0.279508497188 0.664916950682 0.613195523811
-0.404508497188 0.654508497187 0.559016994375
-0.375 0.819425447869 0.363195523811
-0.231762745782 0.587662702088 0.738195523811
-0.356762745782 0.577254248593 0.684016994375
-0.731762745781 0.434016994375 0.452254248594
-0.684016994375 0.356762745782 0.577254248593
-0.606762745781 0.481762745782 0.529508497188
-0.559016994375 0.404508497188 0.654508497187
-0.481762745782 0.529508497188 0.606762745781
-0.434016994375 0.452254248594 0.731762745781
-0.587662702088 0.738195523811 0.231762745782
-0.675325404176 0.667374053247 0.154508497188
-0.664916950682 0.613195523811 0.279508497188
-0.752579652769 0.542374053247 0.202254248594
-0.742171199275 0.488195523811 0.327254248594
-0.829833901363 0.417374053247 0.25
-0.654508497187 0.559016994375 0.404508497188
-0.819425447869 0.363195523811 0.375
-0.077254248594 0.587662702088 0.738195523811
0.0 0.675325404176 0.667374053247
0.077254248594 0.587662702088 0.738195523811
0.0 0.5 0.809016994375
-0.154508497188 0.5 0.809016994375
0.154508497188 0.675325404176 0.667374053247
0.231762745782 0.587662702088 0.738195523811
0.154508497188 0.5 0.809016994375
-0.231762745782 0.375 0.856762745781
-0.154508497188 0.25 0.904508497187
-0.077254248594 0.375 0.856762745781
0.154508497188 -0.5 -0.809016994375
0.077254248594 -0.375 -0.856762745781
0.231762745782 -0.375 -0.856762745781
0.0 -0.5 -0.809016994375
0.154508497188 -0.25 -0.904508497187
-0.077254248594 -0.375 -0.856762745781
0.0 -0.25 -0.904508497187
0.077254248594 -0.125 -0.952254248593
-0.154508497188 -0.25 -0.904508497187
-0.077254248594 -0.125 -0.952254248593
0.309016994375 -0.5 -0.809016994375
0.231762745782 -0.587662702088 -0.738195523811
0.077254248594 -0.587662702088 -0.738195523811
0.154508497188 -0.675325404176 -0.667374053247
0.0 -0.675325404176 -0.667374053247
0.077254248594 -0.762988106264 -0.596552582683
-0.077254248594 -0.762988106264 -0.596552582683
-0.154508497188 -0.675325404176 -0.667374053247
-0.208687026624 -0.125 -0.914916950682
-0.13143277803 0.0 -0.962662702088
-0.26286555606 0.0 -0.925325404176
-0.417374053247 -0.25 -0.829833901363
0.904508497187 0.154508497188 0.25
0.856762745781 0.077254248594 0.375
0.904508497187 0.0 0.25
0.856762745781 0.231762745782 0.375
0.809016994375 0.154508497188 0.5
0.375 0.819425447869 0.363195523811
0.25 0.829833901363 0.417374053247
0.327254248594 0.742171199275 0.488195523811
0.202254248594 0.752579652769 0.542374053247
0.279508497188 0.664916950682 0.613195523811
0.404508497188 0.654508497187 0.559016994375
0.684016994375 0.356762745782 0.577254248593
0.559016994375 0.404508497188 0.654508497187
0.542374053247 0.202254248594 0.75257965277
-0.596552582683 0.077254248594 -0.762988106264
-0.667374053247 0.0 -0.675325404176
-0.667374053247 0.154508497188 -0.675325404176
-0.667374053247 -0.154508497188 -0.675325404176
-0.738195523811 -0.077254248594 -0.587662702088
-0.738195523811 0.077254248594 -0.587662702088
-0.809016994375 0.0 -0.5
-0.738195523811 -0.231762745782 -0.587662702088
-0.809016994375 0.309016994375 -0.5
-0.231762745782 0.587662702088 -0.738195523811
-0.356762745782 0.577254248593 -0.684016994375
-0.279508497188 0.664916950682 -0.613195523811
-0.434016994375 0.452254248594 -0.731762745781
-0.559016994375 0.404508497188 -0.654508497187
-0.481762745782 0.529508497188 -0.606762745781
-0.404508497188 0.654508497187 -0.559016994375
-0.606762745781 0.481762745782 -0.529508497188
-0.363195523811 0.375 -0.819425447869
-0.417374053247 0.25 -0.829833901363
-0.488195523811 0.327254248594 -0.742171199275
-0.542374053247 0.202254248594 -0.752579652769
-0.613195523811 0.279508497188 -0.664916950682
-0.471552582683 0.125 -0.840242354857
-0.742171199275 0.488195523811 -0.327254248594
-0.829833901363 0.417374053247 -0.25
-0.752579652769 0.542374053247 -0.202254248594
-0.664916950682 0.613195523811 -0.279508497188
-0.675325404176 0.667374053247 -0.154508497188
-0.675325404176 -0.667374053247 -0.154508497188
-0.587662702088 -0.738195523811 -0.077254248594
-0.675325404176 -0.667374053247 0.0
-0.587662702088 -0.738195523811 0.077254248594
-0.5 -0.809016994375 0.0
-0.587662702088 -0.738195523811 -0.231762745782
-0.5 -0.809016994375 -0.154508497188
-0.5 -0.809016994375 0.154508497188
-0.587662702088 -0.738195523811 0.231762745782
-0.5 -0.809016994375 -0.309016994375
-0.375 -0.856762745781 -0.231762745782
-0.375 -0.856762745781 -0.077254248594
-0.375 -0.856762745781 0.077254248594
-0.375 -0.819425447869 -0.363195523811
-0.25 -0.867171199275 -0.285941275218
-0.25 -0.829833901363 -0.417374053247
-0.25 -0.904508497187 -0.154508497188
-0.125 -0.877579652769 -0.340119804654
-0.125 -0.914916950682 -0.208687026624
0.0 -0.925325404176 -0.26286555606
0.0 -0.962662702088 -0.13143277803
-0.664916950682 -0.613195523811 0.279508497188
-0.654508497187 -0.559016994375 0.404508497188
-0.742171199275 -0.488195523811 0.327254248594
-0.731762745781 -0.434016994375 0.452254248594
-0.613195523811 -0.279508497188 -0.664916950682
-0.202254248594 -0.752579652769 -0.542374053247
-0.404508497188 -0.654508497187 -0.559016994375
-0.327254248594 -0.742171199275 -0.488195523811
-0.452254248594 -0.731762745781 -0.434016994375
-0.664916950682 -0.613195523811 -0.279508497188
0.125 -0.840242354857 -0.471552582683
0.25 -0.829833901363 -0.417374053247
0.125 -0.877579652769 -0.340119804654
0.0 -0.887988106264 -0.394298334089
0.25 -0.867171199275 -0.285941275218
0.125 -0.914916950682 -0.208687026624
0.25 -0.904508497187 -0.154508497188
0.375 -0.819425447869 -0.363195523811
0.375 -0.856762745781 -0.231762745782
0.5 -0.809016994375 -0.309016994375
0.125 -0.952254248593 -0.077254248594
0.5 -0.809016994375 -0.154508497188
0.375 -0.856762745781 -0.077254248594
0.5 -0.809016994375 0.0
0.375 -0.856762745781 0.077254248594
0.25 -0.904508497187 0.0
0.25 -0.904508497187 0.154508497188
0.5 -0.809016994375 0.154508497188
0.375 -0.856762745781 0.231762745782
0.125 -0.952254248593 0.077254248594
0.577254248593 -0.684016994375 -0.356762745782
0.75257965277 -0.542374053247 -0.202254248594
0.675325404176 -0.667374053247 -0.154508497188
0.654508497187 -0.559016994375 -0.404508497188
0.356762745782 -0.577254248593 -0.684016994375
0.279508497188 -0.664916950682 -0.613195523811
0.404508497188 -0.654508497187 -0.559016994375
0.327254248594 -0.742171199275 -0.488195523811
0.202254248594 -0.752579652769 -0.542374053247
0.452254248594 -0.731762745781 -0.434016994375
-0.077254248594 0.125 -0.952254248593
-0.154508497188 0.25 -0.904508497187
0.0 0.25 -0.904508497187
-0.077254248594 0.375 -0.856762745781
0.077254248594 0.375 -0.856762745781
-0.231762745782 0.375 -0.856762745781
-0.154508497188 0.5 -0.809016994375
0.0 0.5 -0.809016994375
-0.208687026624 0.125 -0.914916950682
-0.340119804654 0.125 -0.877579652769
-0.285941275218 0.25 -0.867171199275
-0.394298334089 0.0 -0.887988106264
-0.077254248594 0.587662702088 -0.738195523811
0.077254248594 0.587662702088 -0.738195523811
0.0 0.675325404176 -0.667374053247
-0.154508497188 0.675325404176 -0.667374053247
0.154508497188 0.675325404176 -0.667374053247
0.404508497188 0.654508497187 -0.559016994375
0.356762745782 0.577254248593 -0.684016994375
0.279508497188 0.664916950682 -0.613195523811
0.231762745782 0.587662702088 -0.738195523811
0.309016994375 0.5 -0.809016994375
0.25 0.904508497187 0.154508497188
0.125 0.952254248593 0.077254248594
0.125 0.914916950682 0.208687026624
0.0 0.962662702088 0.13143277803
0.0 1.0 0.0
0.0 0.925325404176 0.26286555606
-0.125 0.914916950682 0.208687026624
-0.125 0.952254248593 0.077254248594
-0.25 0.904508497187 0.154508497188
-0.675325404176 0.667374053247 0.0
-0.762988106264 0.596552582683 0.077254248594
-0.762988106264 0.596552582683 -0.077254248594
-0.850650808352 0.525731112119 0.0
-0.231762745782 -0.375 -0.856762745781
-0.285941275218 -0.25 -0.867171199275
-0.363195523811 -0.375 -0.819425447869
-0.309016994375 -0.5 -0.809016994375
-0.904508497187 -0.154508497188 -0.25
-0.914916950682 -0.208687026624 -0.125
-0.952254248593 -0.077254248594 -0.125
-0.962662702088 -0.13143277803 0.0
-0.925325404176 -0.26286555606 0.0
-1.0 0.0 0.0
-0.856762745781 0.231762745782 -0.375
-0.819425447869 0.363195523811 -0.375
-0.867171199275 0.285941275218 -0.25
-0.904508497187 0.154508497188 -0.25
-0.914916950682 0.208687026624 -0.125
-0.877579652769 0.340119804654 -0.125
-0.925325404176 0.26286555606 0.0
-0.952254248593 0.077254248594 -0.125
-0.962662702088 0.13143277803 0.0
-0.840242354857 0.471552582683 -0.125
-0.887988106264 0.394298334089 0.0
-0.840242354857 0.471552582683 0.125
-0.877579652769 0.340119804654 0.125
-0.904508497187 0.154508497188 0.25
-0.914916950682 0.208687026624 0.125
-0.952254248593 0.077254248594 0.125
-0.488195523811 -0.327254248594 -0.742171199275
-0.434016994375 -0.452254248594 -0.731762745781
-0.559016994375 -0.404508497188 -0.654508497187
-0.356762745782 -0.577254248593 -0.684016994375
[...]
CELL_DATA 2444
SCALARS cell_data_0 double
LOOKUP_TABLE default
6.08094427529e-07
1.65345774672e-06
1.54142995915e-09
7.00576307317e-07
1.35609843674e-07
3.23520833741e-07
4.19462634035e-07
9.25211456917e-08
1.25377356408e-07
2.65274122423e-08
5.54186973478e-08
2.14595708159e-07
5.16070817298e-08
2.69931015926e-07
2.40164948186e-07
2.33182393592e-07
4.7095342983e-07
1.30402931455e-07
3.44073365743e-08
2.43626533617e-07
5.13890206785e-07
5.31989488306e-07
1.2939058637e-07
4.84569390231e-07
6.23521215116e-08
3.14128133778e-07
2.07309120682e-07
4.55075827429e-07
4.42056171613e-07
2.2600122439e-07
1.46925337314e-08
7.74930781243e-08
2.06377744042e-08
2.91858669231e-07
1.65559558151e-07
8.1923181459e-08
5.95085209047e-08
2.93456042628e-09
4.40916830254e-07
2.13910315729e-07
1.27966976236e-07
1.67314627271e-08
2.96427446765e-07
5.29884464859e-07
4.2362082577e-07
2.08088369367e-07
7.65026058383e-08
5.16896651858e-07
3.43565709028e-08
9.78543139016e-09
2.90493808597e-07
6.39278995821e-08
7.23604328021e-09
1.12182105927e-07
1.80171646203e-07
2.2269990049e-08
5.33729398015e-07
2.88464709565e-07
3.07024721905e-07
1.43481857797e-07
4.92151543007e-07
4.30587844458e-07
1.0315569534e-07
6.54271584316e-07
2.18975918184e-07
5.72194340513e-08
1.38960069704e-07
3.1255341025e-08
3.13333808789e-08
2.67879399946e-07
1.18313037109e-06
8.95549600652e-09
3.57319350547e-07
1.42402418639e-07
2.74850486252e-07
1.02171571183e-06
1.16217705592e-08
2.39546195738e-07
3.77352939264e-07
2.92513239958e-07
1.96959441541e-07
2.98160677366e-08
5.64313082311e-07
4.15173688768e-08
1.2110033025e-08
4.87115946951e-07
5.06482851913e-07
4.39417423606e-07
4.11260148423e-07
3.88225645136e-07
2.69181473921e-07
2.61188720139e-08
9.85953273331e-08
1.68163918921e-07
2.60848859621e-07
2.83224700258e-07
3.07465434033e-08
1.6473701915e-07
3.18849543072e-08
1.18343578319e-07
9.84132196019e-08
2.49634451125e-07
1.38472118256e-07
2.21458015461e-07
3.56323251683e-07
1.450174659e-07
1.88261007896e-07
3.11863081218e-07
1.95528139791e-07
2.04539395524e-07
2.30695382071e-07
4.5301578566e-07
4.8885294123e-07
6.84872908708e-08
6.36198184586e-08
1.76113379558e-07
2.23794255174e-07
1.91714004818e-07
8.15207257249e-08
4.7466803559e-07
2.3794144931e-08
4.52999903359e-07
6.19106172452e-08
4.71818217646e-07
9.44944368697e-09
8.13110656001e-09
5.90550939877e-08
3.33635261874e-07
6.69928078743e-07
5.37756069261e-07
5.46841849488e-07
2.80928512348e-07
4.01659571327e-07
4.05035065218e-07
2.16256101939e-07
2.54392494973e-07
5.25733399742e-07
3.08031828284e-07
1.08765769777e-07
2.4707828608e-08
4.28559358924e-07
6.00392262987e-07
3.96736178983e-07
3.27263770337e-07
1.68814335648e-07
1.81949785529e-07
9.21434291051e-08
1.33789377828e-07
1.89112907691e-07
9.06009606486e-08
4.18752500174e-07
7.07201063149e-07
1.41934584991e-07
3.07395443631e-07
6.99689965658e-08
2.35039007423e-07
1.06647216863e-08
9.45890263914e-08
1.66033543673e-07
4.21344271838e-09
3.53455185213e-07
1.83075956632e-07
7.4867093449e-08
1.32253759786e-07
1.25730292807e-07
2.09969952335e-07
3.28907470263e-07
3.48441678738e-07
1.57083596026e-07
1.91126767574e-07
1.84604985266e-07
1.25777813572e-07
2.12708726498e-07
1.58611183175e-07
1.70530559444e-07
1.36407292688e-07
1.41960511359e-07
1.24000070802e-07
4.3319963183e-07
1.30656685193e-07
1.71848669738e-07
3.2646710521e-07
2.20259986813e-07
3.33273017383e-07
2.19520478068e-07
1.09069485808e-07
1.43834028066e-07
5.51191156297e-07
6.73357064148e-08
1.32064091791e-07
4.67002226356e-07
3.43283534761e-07
3.68783523336e-08
7.83536320281e-08
1.9210124264e-08
3.40954645197e-07
6.59016388411e-07
2.02388084996e-07
2.64099605126e-07
6.7399485148e-08
3.44070752618e-07
4.61887169269e-07
2.67629061649e-07
2.76962684902e-07
2.1953998553e-08
1.21165857817e-07
5.71920494094e-07
7.75523470354e-08
2.5100255272e-07
1.25439044636e-07
2.30456410875e-08
6.43596873068e-07
3.20429182573e-07
1.75795732888e-07
6.12561257673e-07
4.8358661545e-08
1.16499625783e-07
3.28789326614e-07
2.18324790712e-07
6.29694921782e-07
4.2954729212e-07
3.28782498977e-07
5.80099943062e-07
3.60814734172e-07
8.14289506241e-07
4.53924959088e-07
3.67834198199e-07
3.26421073167e-07
4.71091695099e-07
4.37742813817e-07
2.03884276244e-07
2.63854138147e-07
1.73584489375e-07
2.40297483625e-07
3.24667400112e-07
1.47438606041e-07
1.85582055763e-07
4.97290004495e-08
5.52236409168e-07
1.64990915865e-08
1.36544283024e-08
7.08620723413e-08
7.47443562573e-08
7.43266799141e-07
7.36762494413e-07
7.3887698895e-08
3.30759597825e-07
1.04482422022e-07
5.31066724721e-07
4.70957943494e-07
5.67815087955e-07
4.24703575132e-07
1.97043849344e-07
2.75593048104e-07
2.62499499149e-07
5.41999918791e-07
2.39509158377e-08
1.06674244779e-08
3.94895250811e-07
6.44064031192e-07
6.73294966863e-07
1.46051879148e-07
2.13602436055e-07
1.05107736416e-07
7.64958687353e-08
8.53879390744e-08
1.26193255875e-07
1.87874104774e-07
1.95994227274e-07
1.45659682019e-07
5.04126075239e-07
2.34589770807e-07
5.564025058e-08
1.36812932127e-07
3.54400799596e-07
5.63877165085e-07
4.03329243095e-07
2.43676711634e-07
4.03270530274e-07
1.09907618405e-08
6.2229882971e-07
6.57813057506e-07
5.69555180697e-07
3.58703583424e-07
5.15717640905e-07
3.00261736107e-07
3.09120047072e-07
1.61817610136e-07
2.92163005841e-08
1.03181064146e-07
2.30778562594e-07
6.54871503516e-07
6.30202344914e-07
1.59095588276e-07
7.95880334166e-09
2.50030862398e-07
1.54433626524e-07
2.27184648074e-07
2.31208863102e-07
1.19698310882e-07
1.12202980216e-07
3.04353146091e-08
3.91604973859e-07
1.01194426758e-07
1.5626766098e-07
6.9856098925e-08
2.09146697698e-07
3.00759260405e-07
4.3795114823e-07
1.41025512739e-07
9.21249502531e-09
3.00540761049e-07
4.41298544254e-07
5.71923662008e-07
4.05199433627e-07
4.48054640498e-07
3.10439820429e-07
4.5137105608e-07
2.40326771841e-08
2.88963135581e-07
2.72337127488e-07
4.80301546383e-07
3.61192390387e-07
1.1008931836e-07
6.39250259411e-07
2.57318226138e-07
4.07175068522e-07
1.74835427393e-07
2.83256403405e-07
1.42900140687e-07
2.52231402069e-07
4.82458479878e-08
3.37178786002e-07
2.66930563078e-07
5.23707149831e-07
4.71708490034e-07
1.32096216903e-09
1.69856646386e-07
4.71480438151e-07
3.56249000361e-07
2.8130073974e-08
3.08139936838e-07
2.8612963975e-07
5.17260344797e-08
2.73566491618e-07
3.83665066427e-07
3.16716171693e-07
2.61739454254e-07
1.70500047519e-07
3.16384479722e-07
3.98929928257e-08
2.39964826868e-07
6.20924416174e-08
1.60134255842e-07
1.27602548483e-08
6.72855119774e-07
7.93747984931e-07
2.36058020964e-07
2.89118014751e-07
9.93457766901e-08
1.12875218226e-08
2.54631953147e-07
2.12738397542e-07
2.14582446451e-07
3.07177062058e-07
3.14391675431e-07
6.90087542914e-07
1.9675973499e-07
1.89754395274e-07
8.62378131369e-08
5.82449040313e-08
5.74849366759e-07
4.67985002282e-07
1.91542393427e-07
1.39416771554e-07
1.45776614764e-07
4.06471205056e-07
5.44267344933e-07
4.39912679328e-07
3.51150722936e-07
6.41380783963e-08
2.35641280297e-07
5.18771211318e-07
3.19497978639e-07
4.6512122155e-08
2.25773107846e-07
5.29882897734e-08
4.30412856661e-07
5.01761843829e-07
2.37435285848e-07
2.56428280674e-07
2.47438506313e-07
9.06285740957e-08
7.7141392021e-08
2.61596516368e-07
3.94402458055e-07
1.21301407266e-08
1.40054008391e-07
2.79118712249e-07
8.83975796322e-08
1.46693287566e-07
1.38352536714e-07
3.3781669888e-08
4.32791300779e-08
8.59335625749e-09
2.04637975059e-07
2.69240556458e-07
1.13777608348e-07
1.23234254334e-07
1.69208913979e-07
6.18537634881e-08
4.42411258939e-08
1.26668859e-07
2.47158712016e-08
2.00394716445e-09
7.55445336402e-08
6.94287687769e-08
9.59541636979e-08
5.01204043316e-08
1.22786189808e-07
1.23933507597e-07
5.3208690462e-08
5.43105904892e-08
5.23315476471e-08
9.02631008612e-08
1.12151114211e-07
1.40579640984e-07
1.49624861983e-07
1.34956237639e-07
1.54443542663e-07
1.75335137807e-07
1.90687078283e-07
1.30893883406e-07
1.45925273264e-07
1.30143198187e-07
1.65671350316e-07
1.69810496029e-07
1.1128478333e-07
1.79807775699e-08
1.09296900484e-08
1.88475396221e-08
4.42251162507e-08
1.64005551601e-08
2.20153090089e-08
7.77697154656e-09
5.9320471662e-08
7.12226692065e-08
1.57953374745e-07
2.70809183487e-07
1.33556987868e-07
1.46390939853e-07
7.72526626362e-08
7.58991259755e-08
1.29070799225e-08
7.41274365538e-08
8.21005399825e-08
1.07070948203e-07
5.75185712981e-08
3.82678177885e-08
1.12901259631e-07
1.40331357218e-07
8.52795602567e-08
7.11230724068e-08
1.32173197476e-08
7.85465995865e-09
1.48196382513e-07
9.64643960941e-08
1.64095138801e-07
2.2072451764e-07
2.36310416674e-07
3.08023757349e-07
2.16551020199e-07
1.61067324219e-07
1.31651017733e-07
8.40062308573e-08
8.5488211304e-08
1.79668951782e-07
2.70266794119e-08
7.64920283602e-08
1.95987273764e-07
1.62443887318e-07
2.49396672923e-07
5.76120553136e-08
9.22314518611e-08
9.60175260942e-08
6.61564113544e-08
2.1364838165e-07
2.78298041851e-08
1.45473669298e-07
2.27063051348e-08
1.86487834655e-07
1.45055643873e-07
1.14490905507e-08
1.13614239245e-07
2.14417736364e-07
2.28645249937e-07
2.27188556429e-07
1.67157467489e-08
9.17523360404e-08
9.29853757652e-08
1.02965905382e-07
4.16265120549e-07
4.44457071856e-07
2.45713687202e-07
2.5386794489e-07
1.61569713013e-08
7.65622657278e-08
1.51259414901e-08
5.60335664508e-08
8.25076931102e-08
1.7636358711e-07
4.55918949157e-08
1.13260857263e-07
7.60715191283e-08
2.27528777414e-08
1.97654601497e-07
1.4605575871e-08
3.45383404908e-07
8.9760027656e-08
4.12311200097e-10
1.25194743878e-07
9.82221289093e-08
4.61394194154e-08
6.6030314391e-08
3.55788412074e-08
1.30082951983e-07
2.45829861104e-07
2.40014678873e-07
3.62267948924e-07
1.28820734158e-07
4.31023784016e-08
1.25449246345e-08
2.48127289006e-08
2.12233655425e-07
2.60066211028e-07
1.36805632768e-07
1.8026188373e-07
1.26074752405e-07
6.13319720802e-08
8.67801821642e-08
1.03613084945e-07
3.9308573396e-08
2.28065181617e-08
1.89150770891e-07
1.13270326308e-07
1.42170943778e-07
2.58675717637e-08
1.02492611021e-07
1.18198276095e-07
7.33742535892e-08
3.8544819105e-08
1.28993611869e-07
1.14050875873e-07
4.06770146294e-08
2.28117105222e-07
2.32390641383e-08
9.49742641544e-08
6.65569478757e-08
1.9310597297e-07
1.34411817366e-07
1.580099162e-07
1.46598819508e-07
5.00404351312e-08
2.85175770403e-08
5.61210030689e-08
1.08430409206e-07
6.9163189088e-08
6.72366986689e-09
4.7416725052e-08
8.61415148685e-08
5.70472102071e-08
1.06662495453e-07
1.26448813489e-07
7.73330433419e-08
5.80701028744e-08
1.33779354247e-07
1.58207330433e-07
1.33386169156e-07
1.65773330958e-07
1.91865732989e-07
1.86246847921e-07
1.84305403658e-07
1.46367290888e-07
1.60574401866e-07
1.07894273606e-07
1.7810147488e-07
1.95116418857e-07
2.18819557367e-07
2.10998855337e-07
1.61982131059e-07
1.5928126971e-07
2.48645154333e-07
2.56264482559e-07
6.03933193627e-08
1.0769598244e-07
1.61278794896e-07
2.82055912767e-07
1.55802713233e-08
4.99242298816e-08
2.20752293397e-07
2.44072037267e-07
1.04848861953e-07
1.87749862639e-07
4.8826142323e-07
4.92531395992e-08
1.28257116108e-08
1.64359011725e-08
3.31283073024e-07
4.83877428146e-07
2.11620232486e-07
8.55881990208e-08
4.82576756958e-07
7.16025934858e-08
2.80403067812e-08
9.55439529643e-08
1.183586891e-08
8.34664429572e-08
9.72991291849e-08
9.67187615647e-08
1.23892183274e-07
1.89078972762e-08
2.01648803751e-08
6.54275961448e-08
1.29075094269e-07
1.47076675091e-07
2.05383531331e-07
2.41293313174e-07
2.83461925127e-07
2.72668663665e-07
1.63015016824e-07
1.03347006429e-07
2.0017322353e-07
1.25911236349e-07
1.01693953104e-07
8.33406060666e-08
2.10523805097e-08
3.51945778477e-08
1.13392577321e-07
1.40122296207e-07
2.39380447182e-07
1.16153469696e-07
2.57355883318e-07
1.31028910138e-07
9.62831756915e-08
1.10053543758e-07
2.66335099392e-08
1.14005938769e-07
2.29227762365e-07
1.74227411193e-08
2.24831961737e-07
1.9841161683e-08
2.47727056059e-08
6.47146677614e-09
1.11165087215e-07
3.55722284585e-07
3.96078674659e-07
1.4274996449e-07
2.01557414221e-07
1.28613852397e-07
1.26789810846e-08
2.84737382498e-08
1.49352704319e-07
8.36199430413e-08
1.26812346541e-07
7.25180605311e-08
5.19014808941e-09
1.47507566156e-08
1.45599933058e-07
3.11750082579e-07
6.60265801179e-08
5.61508682227e-08
1.15804599786e-07
1.65786527356e-07
1.1433470625e-07
1.71118526123e-08
3.68321092816e-08
1.06095596904e-07
9.48192001304e-08
4.80972144973e-08
2.46338050339e-08
2.25836989927e-07
1.42945919747e-07
1.68944276273e-07
3.87626321933e-07
2.04848506137e-07
6.72048852996e-08
2.85726886706e-07
2.9808828358e-07
3.1709978981e-07
2.68425965363e-07
1.72751933103e-07
1.88258670158e-07
1.46746186483e-07
1.24442302724e-07
1.33262322947e-07
1.72910876827e-07
2.77922327381e-07
1.92415457281e-07
1.69384286068e-07
1.59360453161e-07
2.43731039103e-07
1.25998713842e-07
1.03532065797e-07
5.50357179543e-08
1.54597542893e-07
8.79094216007e-08
1.43570076566e-08
7.09510295107e-09
9.41588935996e-08
3.82753864537e-08
1.0789314103e-07
2.01698248894e-07
4.44232623513e-07
2.19615859696e-07
8.94228485869e-09
4.50792335776e-08
1.52911532525e-07
1.58996724577e-07
1.00153952687e-07
1.21121720405e-07
5.62532986251e-08
1.27252487287e-07
1.59732651e-07
1.37001978314e-07
6.3597984367e-08
1.5116955724e-07
1.39641611348e-07
8.27442029892e-08
9.26890387257e-09
1.53569416366e-08
1.03656510374e-07
5.12699993204e-08
9.87208918023e-08
7.48217502743e-08
1.63720044975e-07
2.28447599048e-07
1.60187157145e-07
1.48745848023e-08
6.74340032986e-08
3.47901115261e-07
2.61170495528e-07
1.58981299942e-07
1.44906244945e-07
2.06725193191e-07
1.76755385702e-07
2.35054134255e-07
1.43759528854e-07
1.62258037628e-07
1.12053562871e-07
2.84324596044e-07
1.80540020523e-07
7.42724770932e-08
5.92804842965e-08
2.87276714058e-08
7.80634822238e-08
3.84723703254e-08
5.26180557906e-08
8.34154945884e-08
3.5065826534e-07
1.17662822867e-07
2.3088971869e-07
8.12768376679e-08
4.81436399923e-08
4.56958333467e-08
1.57927766558e-07
1.71268693329e-07
1.2619104623e-07
1.12438372271e-07
9.62902984415e-08
1.38566953799e-07
2.67596225915e-08
7.18036771899e-08
3.07054024501e-08
2.54029715133e-07
1.73339894916e-07
1.58602954906e-07
1.4790160401e-07
1.20322038556e-07
7.59684073226e-08
8.39319260239e-08
1.06771167561e-07
3.37775723518e-08
2.80174384325e-07
2.2954088561e-09
1.41887987723e-09
1.89168748849e-08
6.38626832575e-08
3.01422958413e-08
1.11935307727e-07
7.03546864405e-08
1.0753335474e-07
1.41055480225e-07
9.94811728314e-08
5.09212796919e-08
1.33836819828e-07
3.40720964013e-07
2.18306642336e-07
4.30193350944e-08
3.22446604854e-08
1.15782280032e-07
8.53982263041e-08
1.42883123602e-07
1.25602889723e-07
1.5141492935e-07
1.51025505204e-07
1.21183295529e-07
1.11563563945e-07
1.04500178833e-07
1.9522109495e-07
1.94578618853e-07
6.48083516133e-08
7.38440274723e-08
1.04334262963e-07
7.57106408715e-08
2.75423390399e-08
5.58699730571e-08
1.21196569814e-08
8.06592847412e-08
1.57384501357e-07
1.1325748295e-08
5.96836475752e-08
1.80007996374e-07
5.85962799625e-08
5.3697145832e-08
1.46926251462e-08
9.16890522687e-08
8.06113625699e-10
1.13829215231e-08
1.35203808899e-07
1.27869569578e-07
1.60203605008e-07
1.96516382671e-07
2.44132378042e-07
1.2822813586e-07
8.95020224518e-08
2.82011873867e-07
1.77602325296e-07
6.83499818968e-08
1.84877043152e-07
1.95271310453e-08
5.49987483277e-08
1.43373418897e-08
8.17144072853e-08
4.22089329202e-08
1.01500054201e-07
8.60710994425e-08
8.41741614187e-08
1.10237160705e-07
1.15279480191e-07
5.56164539467e-08
3.43011389118e-09
3.47091067102e-08
1.24250171257e-07
1.17414793367e-07
1.00451724084e-07
6.61625221764e-08
1.42903647495e-07
7.46954273952e-08
1.73597954508e-07
1.73928688361e-07
9.01926130073e-09
1.88191572369e-08
9.15446398001e-08
3.22484351147e-09
4.22764867755e-08
4.74737344987e-08
3.92964374715e-08
1.67187977838e-08
3.50429690645e-08
2.43683862227e-08
2.03353086878e-08
2.76944757541e-08
5.32221951484e-08
4.88836541422e-08
5.22393312516e-08
6.54875596566e-09
4.71029001276e-08
6.87255261666e-08
8.78026486004e-08
1.59492934102e-07
1.59626475066e-07
1.24028104015e-07
1.62889176093e-07
1.46863237908e-07
9.14084101051e-08
6.56834306395e-08
9.79640742449e-08
5.01832432918e-08
7.36354261626e-08
1.86813736528e-07
9.43281444291e-09
2.1688798933e-07
2.53515862955e-07
1.58890904384e-07
2.54285774666e-07
2.89798044857e-07
2.24527937634e-07
1.93843788296e-07
1.06694561998e-07
1.17190692548e-07
1.05588053419e-07
1.38201871163e-07
2.33862633315e-07
2.630853912e-07
2.23536459774e-07
9.17198251914e-08
9.78946794512e-08
5.82932296703e-08
1.20138730695e-07
5.68248997959e-08
1.11174219134e-07
1.21625750998e-07
9.60098656437e-08
2.04827063475e-08
9.82219919726e-08
5.46842494603e-08
1.40010537596e-07
6.15766904542e-08
3.80881587107e-08
1.02551582049e-07
1.94008050028e-07
4.61055189026e-07
1.99930909556e-07
1.50766236809e-07
1.05646106275e-07
1.07569767943e-07
1.43971909987e-08
3.15043792668e-08
1.11606618966e-07
6.0858783681e-08
1.68916928101e-08
1.0812613889e-07
1.35879946207e-07
1.76188058799e-07
2.98315943336e-09
1.18418429683e-07
1.69624283659e-07
1.13185685203e-07
2.03196187461e-07
2.07557656726e-07
1.95074964782e-07
2.09699399927e-07
1.77760021083e-07
2.03684567999e-07
1.77243670919e-07
2.20033813369e-07
2.66728689364e-07
3.25995598242e-07
2.25328735919e-07
1.97000091011e-07
1.55255929815e-07
1.41061990542e-07
3.2537509127e-07
2.94670393343e-07
3.05487577268e-08
1.9286685648e-07
1.29546545395e-07
1.62823968851e-07
9.01405818188e-08
1.38711970463e-07
2.43517605695e-08
1.7691356704e-08
3.99671579545e-09
2.21051479516e-07
1.65694054731e-07
1.10208978816e-07
1.29498362539e-07
8.87415884385e-08
1.88074621558e-08
1.5913332694e-07
1.56614418586e-07
4.57056499312e-08
3.05079647344e-07
2.32518421828e-07
1.21568427008e-07
1.15860659787e-07
5.40105138336e-08
9.86285132453e-08
9.36315308041e-08
2.1504107461e-07
2.38198562021e-07
4.87118791378e-08
9.14640021436e-08
3.4596531769e-08
3.36948210843e-08
1.90507702977e-08
7.38332066933e-08
6.63746338073e-08
3.36147948938e-07
7.37699775397e-08
2.70757155217e-08
1.65693738826e-07
3.99077575534e-08
1.69564160072e-07
3.3750600509e-07
3.63013430944e-07
1.83711298277e-07
8.8444781343e-08
6.89561576914e-08
1.02053606355e-07
1.5857999131e-07
3.20081751243e-08
1.6661869007e-07
4.81342447053e-08
2.62642963551e-08
1.63172857251e-07
5.50517260942e-08
1.8568410907e-07
2.47535251592e-07
1.16333387305e-07
5.54009464501e-08
1.1371363866e-07
6.00845154595e-08
5.67510939031e-08
8.0435841566e-08
2.91482188549e-08
7.81989238512e-08
7.72944659704e-08
4.24674216917e-08
4.95560380992e-08
6.66291109293e-08
8.63766739472e-09
6.46261276486e-08
8.28023931681e-08
4.61484180403e-07
2.21139532172e-07
2.25782685525e-08
7.33848048238e-08
1.4212502398e-07
1.90250840643e-07
1.11320416632e-07
2.46892711444e-07
3.37088609254e-07
1.75874336851e-07
1.15950537676e-07
9.6401887739e-08
1.25366102546e-07
1.49421414247e-07
2.40446913138e-07
2.54846440655e-07
9.9890428442e-08
1.14760682493e-07
1.20403710108e-07
1.6545408023e-07
1.7087810075e-07
1.47526218788e-07
1.57387462312e-07
6.70678916315e-08
2.88917718103e-07
1.91802246342e-07
1.2776313724e-08
2.19443354371e-07
4.29534951921e-08
6.03932404018e-09
4.61323990405e-08
9.49732120626e-08
8.77373129882e-08
8.64324647358e-08
2.28804578228e-07
1.37536621455e-07
1.7559593524e-07
1.54807409395e-07
4.77888217222e-09
1.35539492974e-07
1.27243030061e-07
6.51190831664e-08
8.47495814586e-08
7.85849858416e-08
2.49668510596e-08
7.39433000967e-08
6.62034459752e-08
2.36288660914e-08
2.3940341112e-08
3.63884805295e-08
7.11275655315e-08
1.28479385508e-07
5.93815626088e-08
2.52324512395e-07
3.82291051442e-07
1.44632370536e-07
1.20465644671e-07
1.53050836551e-07
5.18063476025e-08
1.23081823302e-07
1.3617667764e-07
1.08807653786e-08
3.50187611328e-07
2.41920869562e-07
9.95432892208e-08
1.14363630956e-07
9.06289988802e-09
1.88937315556e-07
1.25029548365e-07
1.36942467699e-07
9.79133689642e-08
8.8908415423e-09
7.41850879431e-09
1.0528812393e-08
6.65845312895e-08
8.03446178896e-08
2.05114089061e-07
2.39174743739e-07
6.15353251922e-08
1.6665507436e-07
1.51338649257e-07
4.15770546563e-07
3.55961369184e-07
2.00331330437e-07
1.16073708305e-07
1.37862368547e-07
1.37233175773e-08
3.10549984978e-08
3.39321418567e-09
4.94725022827e-08