# vtk DataFile Version 3.0
File Name: Molecule/sphere/sphere_0-s3.vtk
ASCII
DATASET UNSTRUCTURED_GRID
FIELD FieldData 1
TIME 1 1 double
0.0
POINTS 28 double
0.850650808352 0.525731112119 0.0
0.0 0.850650808352 -0.525731112119
0.0 0.850650808352 0.525731112119
-0.850650808352 0.525731112119 0.0
-0.850650808352 -0.525731112119 0.0
0.0 -0.850650808352 -0.525731112119
0.0 -0.850650808352 0.525731112119
0.850650808352 -0.525731112119 0.0
0.26286555606 0.425325404176 -0.688190960236
0.525731112119 0.0 -0.850650808352
0.26286555606 -0.425325404176 -0.688190960236
0.0 0.0 -0.850650808352
-0.26286555606 -0.425325404176 -0.688190960236
-0.525731112119 0.0 -0.850650808352
-0.26286555606 0.425325404176 -0.688190960236
0.688190960236 -0.26286555606 -0.425325404176
0.850650808352 0.0 0.0
0.688190960236 0.26286555606 -0.425325404176
0.525731112119 0.0 0.850650808352
-0.688190960236 -0.26286555606 -0.425325404176
-0.688190960236 0.26286555606 -0.425325404176
-0.850650808352 0.0 0.0
-0.525731112119 0.0 0.850650808352
-0.26286555606 0.425325404176 0.688190960236
0.26286555606 0.425325404176 0.688190960236
0.0 0.0 0.850650808352
-0.26286555606 -0.425325404176 0.688190960236
0.26286555606 -0.425325404176 0.688190960236

CELLS 52 208
3 0 1 2
3 2 1 3
3 4 5 6
3 5 7 6
3 0 8 1
3 9 10 11
3 10 12 11
3 10 5 12
3 11 12 13
3 1 14 3
3 12 5 4
3 5 10 7
3 9 11 8
3 11 14 8
3 11 13 14
3 8 14 1
3 7 15 16
3 15 17 16
3 15 9 17
3 16 17 0
3 7 16 18
3 16 0 18
3 13 19 20
3 19 21 20
3 19 4 21
3 20 21 3
3 3 21 22
3 22 21 4
3 0 17 8
3 9 17 8
3 13 20 14
3 14 20 3
3 4 19 12
3 13 19 12
3 7 15 10
3 9 15 10
3 22 23 3
3 2 23 3
3 2 23 24
3 23 25 24
3 23 22 25
3 24 25 18
3 22 26 25
3 26 27 25
3 26 6 27
3 25 27 18
3 18 27 7
3 27 6 7
3 2 24 0
3 0 24 18
3 6 26 4
3 4 26 22

CELL_TYPES 52
5
5
5
5
5
5
5
5
5
5
5
5
5
5
5
5
5
5
5
5
5
5
5
5
5
5
5
5
5
5
5
5
5
5
5
5
5
5
5
5
5
5
5
5
5
5
5
5
5
5
5
5

CELL_DATA 52
SCALARS cell_data_0 double
LOOKUP_TABLE default
7.65763118332e-06
3.61392836968e-05
2.61504906163e-05
2.99904685957e-05
2.87188486256e-05
3.34732972997e-06
6.301812048e-07
4.93773527134e-06
1.4656488781e-05
4.48666457049e-05
5.90066724454e-06
7.26232937532e-08
7.45072743661e-07
1.00685695027e-05
3.72814105915e-05
3.50988166633e-05
3.29800749205e-05
4.70784743052e-05
1.51704710544e-06
4.80692455386e-05
3.49356661981e-06
1.06003052106e-06
2.29447144783e-05
5.97139784819e-05
4.41343523359e-05
5.09787892056e-05
1.80544045069e-05
1.61734044392e-05
1.57150733663e-06
1.01284767348e-05
5.24768330373e-05
8.89688961564e-06
1.03533484172e-06
2.65762048874e-05
4.34257810416e-07
3.86898243163e-06
8.95233649254e-05
5.61097642642e-06
2.47185996951e-05
2.99319279717e-05
9.99234917361e-06
3.5581531464e-05
3.95755354947e-06
4.3981923561e-05
1.36046713734e-05
3.72299819367e-05
9.02528458323e-05
1.57137545524e-06
1.77023984713e-05
8.64550412036e-05
1.01983452964e-05
0.000109138911203

