# vtk DataFile Version 3.0
File Name: Molecule/sphere/sphere_0-s2.vtk
ASCII
DATASET UNSTRUCTURED_GRID
FIELD FieldData 1
TIME 1 1 double
0.0
POINTS 23 double
0.850650808352 0.525731112119 0.0
0.0 0.850650808352 -0.525731112119
0.0 0.850650808352 0.525731112119
-0.850650808352 0.525731112119 0.0
-0.525731112119 0.0 0.850650808352
0.525731112119 0.0 0.850650808352
0.0 -0.850650808352 0.525731112119
0.850650808352 -0.525731112119 0.0
-0.850650808352 -0.525731112119 0.0
0.0 -0.850650808352 -0.525731112119
0.26286555606 0.425325404176 -0.688190960236
0.525731112119 0.0 -0.850650808352
0.26286555606 -0.425325404176 -0.688190960236
0.0 0.0 -0.850650808352
-0.26286555606 -0.425325404176 -0.688190960236
-0.525731112119 0.0 -0.850650808352
-0.26286555606 0.425325404176 -0.688190960236
0.688190960236 -0.26286555606 -0.425325404176
0.850650808352 0.0 0.0
0.688190960236 0.26286555606 -0.425325404176
-0.688190960236 -0.26286555606 -0.425325404176
-0.688190960236 0.26286555606 -0.425325404176
-0.850650808352 0.0 0.0

CELLS 42 168
3 0 1 2
3 2 1 3
3 2 3 4
3 2 4 5
3 4 6 5
3 5 6 7
3 0 2 5
3 8 9 6
3 8 6 4
3 9 7 6
3 0 10 1
3 11 12 13
3 12 14 13
3 12 9 14
3 13 14 15
3 1 16 3
3 14 9 8
3 9 12 7
3 11 13 10
3 13 16 10
3 13 15 16
3 10 16 1
3 7 17 18
3 17 19 18
3 17 11 19
3 18 19 0
3 7 18 5
3 18 0 5
3 15 20 21
3 20 22 21
3 20 8 22
3 21 22 3
3 3 22 4
3 4 22 8
3 0 19 10
3 11 19 10
3 15 21 16
3 16 21 3
3 8 20 14
3 15 20 14
3 7 17 12
3 11 17 12

CELL_TYPES 42
5
5
5
5
5
5
5
5
5
5
5
5
5
5
5
5
5
5
5
5
5
5
5
5
5
5
5
5
5
5
5
5
5
5
5
5
5
5
5
5
5
5

CELL_DATA 42
SCALARS cell_data_0 double
LOOKUP_TABLE default
2.29811976525e-05
4.95714229671e-06
9.52939710308e-05
0.000842127169176
0.000658501291579
0.000199946605057
0.000181565498922
2.05389937138e-05
0.000197707474747
6.98478228023e-05
3.93504710248e-05
2.05900881542e-07
6.20895015621e-07
2.65094451677e-07
1.76925908906e-05
5.22684947875e-05
6.07259292479e-06
4.88272234871e-06
4.75072381178e-06
2.59750107626e-06
3.83282654994e-05
3.48569336907e-05
3.39161888887e-06
2.14673886797e-06
3.96108018158e-06
2.2816570187e-06
0.00023689086721
0.000261409131627
4.93322103135e-05
2.3145594229e-06
3.17985469352e-07
2.93931044659e-06
0.000252453275965
0.00025459454686
7.46721221694e-07
1.06313866547e-05
4.60189212575e-05
2.63715238186e-06
1.47593733727e-07
3.99487399016e-05
3.51304130926e-07
4.28422195125e-06

