# vtk DataFile Version 3.0
File Name: Molecule/sphere_excent/sphere_excent_0-s3.vtk
ASCII
DATASET UNSTRUCTURED_GRID
FIELD FieldData 1
TIME 1 1 double
0.0
POINTS 642 double
0.85065081 -0.52573111 0.0
0.86492934 -0.48444164 -0.13120038
0.91504342 -0.40335535 0.0
0.9243046 -0.35822879 -0.13165537
0.86266848 -0.43388856 -0.25989191
0.96193836 -0.27326653 0.0
0.91624418 -0.30125888 -0.26408275
0.9663926 -0.22011703 -0.13279248
0.95105652 -0.16245985 -0.26286556
0.84391148 -0.37503856 -0.38361373
0.89100652 -0.23867693 -0.38618739
0.80901699 -0.30901699 -0.5
0.99043888 -0.13795224 0.0
0.98768834 -0.08224247 -0.13307111
1.0 0.0 0.0
0.84017789 -0.15643446 -0.51925849
0.91298249 -0.08232358 -0.39960705
0.85065081 0.0 -0.52573111
0.91298249 0.08232358 -0.39960705
0.96386126 0.0 -0.2664047
0.95105652 0.16245985 -0.26286556
0.84017789 0.15643446 -0.51925849
0.89100652 0.23867693 -0.38618739
0.80901699 0.30901699 -0.5
0.98768834 0.08224247 -0.13307111
0.7586523 -0.23708632 -0.60682515
0.78020437 -0.08114185 -0.62023958
0.69378048 -0.16062203 -0.70204645
0.70290703 0.0 -0.71128174
0.78020437 0.08114185 -0.62023958
0.69378048 0.16062203 -0.70204645
0.61564202 -0.08108629 -0.78384304
0.61564202 0.08108629 -0.78384304
0.52573111 0.0 -0.85065081
0.7586523 0.23708632 -0.60682515
0.99043888 0.13795224 0.0
0.9663926 0.22011703 -0.13279248
0.96193836 0.27326653 0.0
0.91624418 0.30125888 -0.26408275
0.9243046 0.35822879 -0.13165537
0.86266848 0.43388856 -0.25989191
0.84391148 0.37503856 -0.38361373
0.91504342 0.40335535 0.0
0.86492934 0.48444164 -0.13120038
0.85065081 0.52573111 0.0
0.78384304 0.61564202 -0.08108629
0.79264923 0.57125166 -0.21302286
0.70204645 0.69378048 -0.16062203
0.7834517 0.51612162 -0.34615301
0.70230985 0.64741189 -0.29600459
0.68819096 0.58778525 -0.4253254
0.75793542 0.4539905 -0.46842985
0.60682515 0.7586523 -0.23708632
0.60150096 0.70710678 -0.37174803
0.5 0.80901699 -0.30901699
0.70710678 0.37174803 -0.60150096
0.64657779 0.51337544 -0.56425421
0.58778525 0.4253254 -0.68819096
0.51337544 0.56425421 -0.64657779
0.56425421 0.64657779 -0.51337544
0.4253254 0.68819096 -0.58778525
0.4539905 0.46842985 -0.75793542
0.37174803 0.60150096 -0.70710678
0.30901699 0.5 -0.80901699
0.46842985 0.75793542 -0.4539905
0.64741189 0.29600459 -0.70230985
0.57125166 0.21302286 -0.79264923
0.51612162 0.34615301 -0.7834517
0.43388856 0.25989191 -0.86266848
0.48444164 0.13120038 -0.86492934
0.37503856 0.38361373 -0.84391148
0.38361373 0.84391148 -0.37503856
0.34615301 0.7834517 -0.51612162
0.25989191 0.86266848 -0.43388856
0.29600459 0.70230985 -0.64741189
0.21302286 0.79264923 -0.57125166
0.16062203 0.70204645 -0.69378048
0.23708632 0.60682515 -0.7586523
0.13120038 0.86492934 -0.48444164
0.08108629 0.78384304 -0.61564202
0.0 0.85065081 -0.52573111
0.78384304 0.61564202 0.08108629
0.71128174 0.70290703 0.0
0.70204645 0.69378048 0.16062203
0.62023958 0.78020437 -0.08114185
0.62023958 0.78020437 0.08114185
0.52573111 0.85065081 0.0
0.51925849 0.84017789 -0.15643446
0.60682515 0.7586523 0.23708632
0.51925849 0.84017789 0.15643446
0.5 0.80901699 0.30901699
0.38618739 0.89100652 -0.23867693
0.39960705 0.91298249 -0.08232358
0.26286556 0.95105652 -0.16245985
0.2664047 0.96386126 0.0
0.39960705 0.91298249 0.08232358
0.26286556 0.95105652 0.16245985
0.13307111 0.98768834 -0.08224247
0.13307111 0.98768834 0.08224247
0.0 1.0 0.0
0.38618739 0.89100652 0.23867693
0.26408275 0.91624418 -0.30125888
0.13165537 0.9243046 -0.35822879
0.13279248 0.9663926 -0.22011703
0.0 0.96193836 -0.27326653
0.0 0.91504342 -0.40335535
0.0 0.99043888 -0.13795224
0.38361373 0.84391148 0.37503856
0.26408275 0.91624418 0.30125888
0.25989191 0.86266848 0.43388856
0.13279248 0.9663926 0.22011703
0.13165537 0.9243046 0.35822879
0.0 0.96193836 0.27326653
0.0 0.99043888 0.13795224
0.13120038 0.86492934 0.48444164
0.0 0.91504342 0.40335535
0.0 0.85065081 0.52573111
-0.13120038 0.86492934 0.48444164
-0.13165537 0.9243046 0.35822879
-0.25989191 0.86266848 0.43388856
-0.13279248 0.9663926 0.22011703
-0.26408275 0.91624418 0.30125888
-0.26286556 0.95105652 0.16245985
-0.13307111 0.98768834 0.08224247
-0.38361373 0.84391148 0.37503856
-0.38618739 0.89100652 0.23867693
-0.5 0.80901699 0.30901699
-0.13307111 0.98768834 -0.08224247
-0.2664047 0.96386126 0.0
-0.26286556 0.95105652 -0.16245985
-0.39960705 0.91298249 -0.08232358
-0.39960705 0.91298249 0.08232358
-0.52573111 0.85065081 0.0
-0.38618739 0.89100652 -0.23867693
-0.51925849 0.84017789 -0.15643446
-0.5 0.80901699 -0.30901699
-0.51925849 0.84017789 0.15643446
-0.13279248 0.9663926 -0.22011703
-0.13165537 0.9243046 -0.35822879
-0.26408275 0.91624418 -0.30125888
-0.25989191 0.86266848 -0.43388856
-0.13120038 0.86492934 -0.48444164
-0.38361373 0.84391148 -0.37503856
-0.60682515 0.7586523 0.23708632
-0.62023958 0.78020437 0.08114185
-0.70204645 0.69378048 0.16062203
-0.62023958 0.78020437 -0.08114185
-0.71128174 0.70290703 0.0
-0.70204645 0.69378048 -0.16062203
-0.60682515 0.7586523 -0.23708632
-0.78384304 0.61564202 0.08108629
-0.78384304 0.61564202 -0.08108629
-0.85065081 0.52573111 0.0
-0.08108629 0.78384304 0.61564202
-0.21302286 0.79264923 0.57125166
-0.16062203 0.70204645 0.69378048
-0.34615301 0.7834517 0.51612162
-0.29600459 0.70230985 0.64741189
-0.4253254 0.68819096 0.58778525
-0.46842985 0.75793542 0.4539905
-0.23708632 0.60682515 0.7586523
-0.37174803 0.60150096 0.70710678
-0.30901699 0.5 0.80901699
-0.60150096 0.70710678 0.37174803
-0.56425421 0.64657779 0.51337544
-0.68819096 0.58778525 0.4253254
-0.64657779 0.51337544 0.56425421
-0.51337544 0.56425421 0.64657779
-0.58778525 0.4253254 0.68819096
-0.75793542 0.4539905 0.46842985
-0.70710678 0.37174803 0.60150096
-0.80901699 0.30901699 0.5
-0.4539905 0.46842985 0.75793542
-0.70230985 0.64741189 0.29600459
-0.79264923 0.57125166 0.21302286
-0.7834517 0.51612162 0.34615301
-0.86266848 0.43388856 0.25989191
-0.86492934 0.48444164 0.13120038
-0.84391148 0.37503856 0.38361373
-0.37503856 0.38361373 0.84391148
-0.51612162 0.34615301 0.7834517
-0.43388856 0.25989191 0.86266848
-0.64741189 0.29600459 0.70230985
-0.57125166 0.21302286 0.79264923
-0.69378048 0.16062203 0.70204645
-0.7586523 0.23708632 0.60682515
-0.48444164 0.13120038 0.86492934
-0.61564202 0.08108629 0.78384304
-0.52573111 0.0 0.85065081
0.08108629 0.78384304 0.61564202
0.0 0.71128174 0.70290703
0.16062203 0.70204645 0.69378048
-0.08114185 0.62023958 0.78020437
0.08114185 0.62023958 0.78020437
0.0 0.52573111 0.85065081
-0.15643446 0.51925849 0.84017789
0.23708632 0.60682515 0.7586523
0.15643446 0.51925849 0.84017789
0.30901699 0.5 0.80901699
-0.23867693 0.38618739 0.89100652
-0.08232358 0.39960705 0.91298249
-0.16245985 0.26286556 0.95105652
0.0 0.2664047 0.96386126
0.08232358 0.39960705 0.91298249
0.16245985 0.26286556 0.95105652
-0.08224247 0.13307111 0.98768834
0.08224247 0.13307111 0.98768834
0.0 0.0 1.0
0.23867693 0.38618739 0.89100652
-0.30125888 0.26408275 0.91624418
-0.35822879 0.13165537 0.9243046
-0.22011703 0.13279248 0.9663926
-0.27326653 0.0 0.96193836
-0.40335535 0.0 0.91504342
-0.13795224 0.0 0.99043888
0.37503856 0.38361373 0.84391148
0.30125888 0.26408275 0.91624418
0.43388856 0.25989191 0.86266848
0.22011703 0.13279248 0.9663926
0.35822879 0.13165537 0.9243046
0.27326653 0.0 0.96193836
0.13795224 0.0 0.99043888
0.48444164 0.13120038 0.86492934
0.40335535 0.0 0.91504342
0.52573111 0.0 0.85065081
-0.48444164 -0.13120038 0.86492934
-0.35822879 -0.13165537 0.9243046
-0.43388856 -0.25989191 0.86266848
-0.30125888 -0.26408275 0.91624418
-0.22011703 -0.13279248 0.9663926
-0.16245985 -0.26286556 0.95105652
-0.37503856 -0.38361373 0.84391148
-0.23867693 -0.38618739 0.89100652
-0.30901699 -0.5 0.80901699
-0.08224247 -0.13307111 0.98768834
-0.15643446 -0.51925849 0.84017789
-0.08232358 -0.39960705 0.91298249
0.0 -0.52573111 0.85065081
0.08232358 -0.39960705 0.91298249
0.0 -0.2664047 0.96386126
0.16245985 -0.26286556 0.95105652
0.15643446 -0.51925849 0.84017789
0.23867693 -0.38618739 0.89100652
0.30901699 -0.5 0.80901699
0.08224247 -0.13307111 0.98768834
-0.23708632 -0.60682515 0.7586523
-0.08114185 -0.62023958 0.78020437
-0.16062203 -0.70204645 0.69378048
0.0 -0.71128174 0.70290703
0.08114185 -0.62023958 0.78020437
0.16062203 -0.70204645 0.69378048
-0.08108629 -0.78384304 0.61564202
0.08108629 -0.78384304 0.61564202
0.0 -0.85065081 0.52573111
0.23708632 -0.60682515 0.7586523
0.22011703 -0.13279248 0.9663926
0.30125888 -0.26408275 0.91624418
0.35822879 -0.13165537 0.9243046
0.43388856 -0.25989191 0.86266848
0.37503856 -0.38361373 0.84391148
0.48444164 -0.13120038 0.86492934
0.61564202 -0.08108629 0.78384304
0.57125166 -0.21302286 0.79264923
0.69378048 -0.16062203 0.70204645
0.51612162 -0.34615301 0.7834517
0.64741189 -0.29600459 0.70230985
0.58778525 -0.4253254 0.68819096
0.4539905 -0.46842985 0.75793542
0.7586523 -0.23708632 0.60682515
0.70710678 -0.37174803 0.60150096
0.80901699 -0.30901699 0.5
0.37174803 -0.60150096 0.70710678
0.51337544 -0.56425421 0.64657779
0.4253254 -0.68819096 0.58778525
0.56425421 -0.64657779 0.51337544
0.64657779 -0.51337544 0.56425421
0.68819096 -0.58778525 0.4253254
0.46842985 -0.75793542 0.4539905
0.60150096 -0.70710678 0.37174803
0.5 -0.80901699 0.30901699
0.75793542 -0.4539905 0.46842985
0.29600459 -0.70230985 0.64741189
0.21302286 -0.79264923 0.57125166
0.34615301 -0.7834517 0.51612162
0.25989191 -0.86266848 0.43388856
0.13120038 -0.86492934 0.48444164
0.38361373 -0.84391148 0.37503856
0.84391148 -0.37503856 0.38361373
0.7834517 -0.51612162 0.34615301
0.86266848 -0.43388856 0.25989191
0.70230985 -0.64741189 0.29600459
0.79264923 -0.57125166 0.21302286
0.70204645 -0.69378048 0.16062203
0.60682515 -0.7586523 0.23708632
0.86492934 -0.48444164 0.13120038
0.78384304 -0.61564202 0.08108629
0.48444164 -0.13120038 -0.86492934
0.40335535 0.0 -0.91504342
0.35822879 -0.13165537 -0.9243046
0.43388856 -0.25989191 -0.86266848
0.27326653 0.0 -0.96193836
0.30125888 -0.26408275 -0.91624418
0.22011703 -0.13279248 -0.9663926
0.16245985 -0.26286556 -0.95105652
[...]
CELL_DATA 1280
SCALARS cell_data_0 double
LOOKUP_TABLE default
5.0244748434e-06
8.75188593263e-06
7.65189003398e-06
1.92203480684e-06
3.15615345315e-06
5.58954873755e-06
3.54505511687e-06
3.29287531586e-06
4.51137487136e-06
9.34958691447e-06
7.65058002264e-06
5.08307822665e-06
2.68998396239e-06
6.01037900726e-06
4.51091882667e-06
2.96927698451e-06
7.40395417127e-06
1.55407872012e-05
8.9624543482e-06
1.13527798564e-05
7.63856444181e-06
8.39852275123e-06
1.71036807251e-06
6.80725867859e-06
2.75584420708e-06
3.56728044616e-06
2.74229024084e-06
1.8747138674e-06
3.45809764069e-06
3.64645744491e-06
9.64866679958e-07
2.3855494917e-06
3.69497573644e-06
1.29581086922e-05
9.7136503406e-06
1.05717685243e-05
1.6914563345e-05
3.34533801366e-05
1.74978381027e-05
2.05696643222e-05
1.16239048013e-05
2.22773368619e-05
1.22255365862e-05
1.36842775437e-05
1.02885965785e-05
1.71122051582e-05
1.42660746347e-05
5.73909700848e-06
1.87700921019e-06
1.08981378152e-05
7.19061476837e-06
9.20746726351e-06
1.50247776122e-05
2.9596364833e-05
1.37682662958e-05
1.64331860105e-05
5.74264799341e-06
1.02037375212e-05
3.8585805393e-06
7.89093589382e-06
1.00284849854e-05
1.74520877239e-05
1.05424006256e-05
6.02613515585e-06
7.79838928029e-06
1.72102003693e-05
8.32152117417e-06
9.88555124613e-06
1.40400133285e-05
2.90474811561e-05
1.76024314426e-05
1.31433352669e-05
1.03388428633e-05
2.02354935695e-05
8.81507291012e-06
1.41516361175e-05
1.49740343144e-05
2.88435569534e-05
1.51567660565e-05
1.41222224326e-05
2.15398883613e-05
4.6405592687e-05
3.12336149684e-05
2.24034572715e-05
4.09866340669e-05
8.53765598829e-05
4.91839638869e-05
4.28740649255e-05
3.95475639502e-05
7.94732933442e-05
3.99202591755e-05
4.47369409291e-05
3.12437340015e-05
7.62942541811e-05
5.38936834407e-05
3.40581796443e-05
1.67679449457e-05
4.94876115301e-05
2.72720146094e-05
3.69367505737e-05
5.68082995891e-05
8.80019478451e-05
4.16358085727e-05
3.8802403686e-05
3.34579441947e-05
6.10561802019e-05
2.22029203237e-05
4.22520725569e-05
2.70022434594e-05
5.44240829594e-05
2.78673484752e-05
3.04745549654e-05
4.28476176723e-05
8.28831675466e-05
4.46309587306e-05
3.85341626481e-05
3.54613396121e-05
7.90009741317e-05
3.98861934444e-05
4.55351875789e-05
3.3062111804e-05
5.31967244297e-05
2.77406393295e-05
2.26253624494e-05
3.70572479316e-05
6.08674237107e-05
3.32601535962e-05
2.47520601078e-05
2.0286709306e-05
4.32382114592e-05
1.64009082025e-05
2.65423427405e-05
3.03701941384e-05
6.95950011312e-05
3.83241244739e-05
3.17298871717e-05
2.38884403518e-05
4.32455891136e-05
1.61362014646e-05
2.42943671665e-05
2.80070405081e-05
4.7981494505e-05
2.52790353491e-05
1.44245521384e-05
2.06972001471e-05
4.73889420922e-05
2.48706896565e-05
2.4074668865e-05
2.50324565718e-05
5.27157570007e-05
2.12307719763e-05
2.86761004537e-05
2.9310240349e-05
6.33687022224e-05
3.79577972224e-05
2.40769003018e-05
1.99841156617e-05
3.6797787592e-05
1.76755139226e-05
1.25919246031e-05
2.73071077794e-05
5.03829811381e-05
2.97258783152e-05
1.88933407656e-05
1.79891741309e-05
5.28615459746e-05
2.82396439464e-05
3.3148902443e-05
1.93914242816e-05
3.583139556e-05
2.29463283819e-05
1.38969639782e-05
3.96183429963e-05
6.91797965442e-05
3.34072636277e-05
2.88811310967e-05
9.53906570237e-06
2.74474338103e-05
1.36361698942e-05
1.14595630899e-05
2.369268579e-05
5.23675528773e-05
2.703789915e-05
1.88479134051e-05
2.80067156979e-05
4.77774852244e-05
1.99535439165e-05
1.92374067597e-05
1.49391896497e-05
2.90484995735e-05
1.37692940922e-05
7.91087828327e-06
1.57042788899e-05
2.73192467321e-05
5.39336470976e-06
1.39827296173e-05
5.76109962934e-06
1.19671462089e-05
4.85956631721e-06
2.99326423578e-06
8.65451592977e-06
1.6953059483e-05
8.58431307927e-06
5.54909137372e-06
3.20295298005e-06
9.88213404959e-06
3.24113736193e-06
4.52008516814e-06
5.54112594212e-06
1.073021856e-05
4.30824035136e-06
4.38868097448e-06
3.62577977096e-06
1.14492768865e-05
5.37367543569e-06
5.70955538087e-06
1.89002234081e-05
4.48363230113e-05
3.76389961674e-05
1.25858844464e-05
5.8091933631e-06
2.56061013195e-05
1.60628551956e-05
1.32427617044e-05
1.22380110267e-05
2.79172533921e-05
2.00534923446e-05
9.3376222124e-06
1.68174230831e-05
3.52206382453e-05
1.72653724048e-05
1.73348043291e-05
1.53332322539e-05
2.84619776345e-05
1.53978290494e-05
1.3336354136e-05
2.59853185896e-05
4.29922431479e-05
1.45138943304e-05
2.43527979618e-05
1.12962402697e-05
2.25732600834e-05
1.42129548531e-05
5.47881770009e-06
7.02991919728e-06
1.43551404361e-05
6.27806769853e-06
6.19049173219e-06
1.31150792005e-05
2.50393973301e-05
1.70314465257e-05
7.82928209743e-06
3.33088909331e-06
8.26202213157e-06
4.69265159685e-06
3.32266702815e-06
8.3556715273e-06
1.42735935271e-05
1.10242910919e-05
2.28366812371e-06
1.417935825e-08
1.72155143795e-06
1.66566006255e-06
2.32944201889e-06
1.79766175079e-06
4.74914533925e-06
2.10437715716e-06
1.00029216531e-06
3.7978169316e-06
3.15785221918e-06
3.03138971599e-06
4.91371380337e-06
3.71538594906e-07
2.1506269321e-08
1.54406794067e-06
2.1115824131e-06
2.44966484265e-06
2.45693509831e-06
3.90238082457e-06
3.11659914744e-06
1.48522600866e-06
2.02005817677e-07
1.00673617958e-06
3.41251884047e-06
3.78647317233e-06
4.26636705978e-06
4.67981091516e-06
5.84634477299e-06
1.47935179897e-06
3.24024355045e-06
1.48654480824e-06
6.50135223739e-07
2.16578574151e-07
1.3231087684e-06
1.63011122334e-07
7.92963047803e-07
1.37656630181e-06
3.39934081576e-06
1.73298650639e-06
2.43901596257e-07
4.37565310905e-07
9.51315062691e-07
7.91221748883e-07
6.83425006912e-07
5.60918821454e-06
5.68446105784e-06
4.57982063165e-06
5.62970107379e-06
4.24626180505e-06
4.96552342262e-06
4.25018005165e-06
5.4239931252e-06
3.45578443339e-06
2.82586451439e-06
2.27806674793e-06
3.43587588225e-06
5.26847669704e-06
5.37000121629e-06
4.22882725124e-06
5.46886699634e-06
2.67237865174e-06
3.1941805015e-06
3.44076952388e-06
2.41236440219e-06
2.86456718872e-06
2.8840461947e-06
3.38065747459e-06
2.83317875742e-06
4.42348951424e-06
5.08750245619e-06
5.26859068542e-06
3.36436379009e-06
2.82110265327e-06
2.98260670404e-06
3.3912140138e-06
3.23712759813e-06
4.27907400479e-06
4.44886098803e-06
6.41842317881e-06
4.58091732357e-06
7.32805949362e-06
5.47823480308e-06
7.07552078762e-06
5.2074821481e-06
7.42007389182e-06
5.79521913407e-06
7.31469818261e-06
7.19620598696e-06
4.53270869698e-06
4.35095257441e-06
6.15217630212e-06
4.26025355744e-06
4.97666964982e-06
5.43721402436e-06
5.30493984401e-06
5.39452613329e-06
4.19783648232e-06
4.53132132399e-06
6.421554701e-06
6.05714059069e-06
4.95953860227e-06
5.20261712007e-06
5.58278680094e-06
5.82488189905e-06
6.15459856077e-06
4.79754359584e-06
6.58724114841e-06
6.09098595003e-06
3.57629419967e-06
3.6896345855e-06
5.16796538935e-06
4.41132634777e-06
5.88817432391e-06
4.64465042736e-06
6.25553409697e-06
5.05374958846e-06
6.01315092574e-06
4.8396946872e-06
6.08665222674e-06
6.29995255068e-06
4.60490452962e-06
4.10597294563e-06
5.69050749028e-06
4.28693700298e-06
4.68543329226e-06
4.10614671844e-06
4.81761265395e-06
5.88832971732e-06
5.29929013319e-06
4.89207680577e-06
5.79466769905e-06
6.69164874592e-06
4.82445278015e-06
4.27505188184e-06
3.91805268618e-06
5.2422519191e-06
6.79416886855e-06
5.44912106595e-06
6.1593834411e-06
6.48407014304e-06
4.58009372582e-06
4.75841818294e-06
6.02995465951e-06
6.04769212417e-06
6.69560925541e-06
5.1241987362e-06
7.44662053078e-06
6.45200776261e-06
5.94980124192e-06
4.37008350763e-06
4.19899296316e-06
6.62245937915e-06
7.08440438666e-06
6.25666676772e-06
7.72060309564e-06
7.84876666921e-06
3.29220176212e-06
3.08220702375e-06
3.76233190904e-06
4.47096692684e-06
3.72337923499e-06
2.85990063551e-06
3.05694315787e-06
4.34930408331e-06
3.38828284518e-06
3.07355920201e-06
2.5956281919e-06
3.08350207314e-06
4.40560254926e-06
4.15795688536e-06
3.89138545304e-06
4.32129431108e-06
6.14300206406e-06
7.31246218036e-06
8.45337811054e-06
8.32911947502e-06
9.17905723327e-06
9.66879155711e-06
7.88684660085e-06
1.00261552702e-05
6.79380695809e-06
6.08385817848e-06
4.62208077853e-06
6.3332411722e-06
7.7583795496e-06
7.39764748406e-06
7.25287230868e-06
5.64600214816e-06
5.74393828405e-06
5.94975362991e-06
6.24534716565e-06
4.69517195115e-06
6.15207423877e-06
5.04702833986e-06
4.40586402338e-06
4.59788819575e-06
5.90297275973e-06
5.59352942026e-06
5.19210316272e-06
4.53714571202e-06
3.27435195671e-06
1.95840716598e-06
3.12829275617e-06
2.18905038326e-06
5.85914556692e-06
4.67100920102e-06
3.77402510878e-06
4.58605066513e-06
3.30787165423e-06
3.1955534395e-06
2.34091334891e-06
3.87563372167e-06
2.44728105281e-06
1.79671922669e-06
1.66297091279e-06
1.79088702146e-06
3.32161597943e-06
1.85634954854e-06
1.77338933026e-06
2.31562383634e-06
4.80193017021e-06
3.43156574312e-06
3.84436351631e-06
2.51330767718e-06
2.41597907069e-06
1.79016312396e-06
5.12816407339e-07
4.85139738221e-07
2.83617918139e-06
4.28040435026e-09
1.35292666531e-06
5.42943885618e-07
7.2962125377e-07
1.95530741534e-06
1.27334961513e-06
6.13925199001e-07
3.82100889554e-07
2.25497370573e-06
9.62261041469e-07
2.10365026783e-06
7.53696065399e-07
3.10218928213e-09
6.20563404943e-08
2.60652798718e-07
8.70379594866e-07
1.80019045196e-08
8.29630746543e-07
2.14056981428e-07
4.53103570657e-07
1.82836486081e-06
9.14835900494e-07
8.79574414157e-07
4.6294128527e-06
8.31011325938e-06
6.41289158401e-06
5.63086873565e-06
9.02664054518e-06
1.19651598193e-05
7.12106292949e-06
6.45701264976e-06
1.01748990094e-05
1.58178657191e-05
9.0013776643e-06
8.91915038408e-06
9.2241742612e-06
1.45144962313e-05
6.29386107715e-06
9.11197997469e-06
8.0444718774e-06
1.39484295235e-05
6.5539111119e-06
9.39563472962e-06
8.81954278235e-06
1.72255206109e-05
1.13234793714e-05
9.85414880413e-06
1.31425951865e-05
2.59699745537e-05
1.61126995036e-05
1.35009464334e-05
9.86778825548e-06
9.35688038433e-06
4.8193882324e-06
2.98443706494e-06
1.69066555346e-06
1.63677626899e-06
9.92217578201e-08
2.10358569842e-06
1.12622296048e-07
3.85251685292e-08
2.69108235292e-07
2.75247553612e-07
9.18645820231e-08
2.22018718874e-09
1.80095025773e-07
2.33419590768e-07
5.49778741715e-06
5.05118963853e-06
3.37856578546e-07
4.94296676401e-06
1.97307605587e-07
2.55444510367e-07
3.98912896364e-07
1.45762066201e-06
5.08260910136e-07
3.35073030834e-07
1.22778586705e-06
1.49282021875e-06
6.04116734192e-06
5.68832300343e-06
5.26599738823e-06
1.20595702426e-06
1.41715271458e-06
3.53094927366e-07
1.22217468266e-06
5.06121499767e-07
6.73277727226e-07
5.80118310236e-07
5.91885530222e-09
2.66876253991e-07
6.97761552921e-07
9.77328970774e-07
5.29639458997e-07
9.73914661317e-07
3.46718648919e-07
1.14681925002e-08
2.59225291392e-07
3.99846786309e-07
1.52959381395e-06
7.2126313281e-07
8.86407044947e-07
3.17979422697e-07
7.49936063121e-07
1.04390615818e-06
8.32223443071e-07
6.09809558221e-07
1.25144634341e-06
1.80721670804e-06
2.08448774745e-06
1.1470212861e-06
1.50632993699e-06
2.12650653558e-06
2.20118493546e-06
2.24727660788e-06
1.39235362195e-06
2.12900226984e-06
2.34526864142e-06
2.2447560539e-06
1.11156423277e-06
9.32060529196e-07
9.50899606318e-07
5.25510363334e-07
6.12997911032e-07
7.46406861798e-07
5.55026358254e-07
6.27301615132e-07
1.7492704923e-06
1.73480662046e-06
1.77399603873e-06
4.49042154517e-07
1.05458793928e-06
1.35068424323e-06
8.22916419057e-07
1.7095493532e-06
2.3334185086e-06
2.58223260969e-06
2.39644551633e-06
3.15372632712e-06
2.73988620381e-06
3.19852469649e-06
3.47972901547e-06
3.338090065e-06
2.38904916551e-06
2.54764218352e-06
2.16439674751e-06
3.04180204855e-06
3.88853607578e-06
4.22087682972e-06
3.70726882764e-06
4.80553054888e-06
1.08167885553e-05
1.04986777514e-05
9.29990729538e-06
5.49072578461e-07
1.07137447366e-06
1.14450643573e-06
8.66377658288e-07
7.98523763141e-07
5.05239983598e-06
5.38723613039e-06
4.65658732967e-06
8.86503371467e-07
9.60852445237e-07
1.54775993776e-06
1.19809215895e-06
1.83917897486e-06
1.8049488783e-06
2.19668709607e-06
2.58978124734e-06
1.8420523077e-06
3.33554658117e-06
2.74605933888e-06
3.95600650717e-06
2.64639366793e-06
3.76385782702e-06
3.4623517629e-06
3.89320900441e-06
4.56124863372e-06
2.31345680959e-06
2.62879937679e-06
3.57982839048e-06
2.47106831162e-06
1.6541542235e-06
6.66040123928e-07
4.97828204032e-09
2.19250451873e-06
1.92536807798e-06
2.16339464227e-06
2.43328027099e-06
2.71437104567e-06
1.5432669317e-07
8.13413349241e-07
3.74975980344e-08
2.29802175725e-06
3.06909507493e-06
2.56142050449e-06
2.53540352918e-06
3.06024891473e-06
2.20260532634e-06
2.66466719018e-06
3.42443193193e-06
3.17261899039e-06
4.23419179977e-06
3.32754644049e-06
4.08956655397e-06
3.77070222997e-06
4.28035074588e-06
3.24917351151e-06
3.48215434938e-06
3.90512983048e-06
3.92182158635e-06
3.80076988808e-06
4.19989170066e-06
4.19239595575e-06
2.8853101096e-07
1.42922016366e-07
1.54593075869e-06
1.14422857815e-06
1.72597875868e-06
1.36662631794e-07
1.29865793076e-06
1.10679755141e-06
1.62915810922e-06
1.74529741072e-07
2.32588825056e-09
1.3502958119e-06
8.58421093143e-07
1.16524422376e-07
1.00400734036e-06
1.48426286876e-07
1.97294012098e-07
2.24837034528e-07
1.27980875592e-07
1.21453065354e-06
1.17644702499e-07
4.34917147198e-07
2.51018566283e-07
8.86954306976e-07
1.68568190561e-07
4.00613393519e-07
2.48940653911e-07
2.95257103741e-07
9.24542387932e-07
1.54367613017e-07
6.10072232256e-07
3.94657590066e-08
8.22880097561e-08
2.72159895116e-07
9.49775808137e-07
5.64910796301e-07
8.90710977947e-07
3.97271433487e-07
1.77940644853e-07
8.22127613552e-07
8.70332406402e-07
3.38379172118e-07
4.38598531249e-08
1.2317323401e-07
3.3623870309e-07
4.08159823345e-08
1.47111297419e-07
2.02540460652e-08
2.90890611385e-07
3.6476128719e-07
7.57712233961e-07
1.16916401187e-06
6.51599745851e-07
1.01991061695e-07
1.59184893213e-07
7.04145785964e-07
4.5750707725e-07
1.31757870014e-07
1.5252074559e-07
6.20388950367e-07
1.03057002315e-06
6.23346663649e-07
6.35352355517e-07
4.43043762559e-07
5.63067064201e-06
5.5645783208e-06
1.47346014251e-06
4.63610919645e-06
1.65717293256e-06
9.4258554544e-07
9.36987363996e-07
4.30049229133e-07
1.95710587968e-06
1.59493272955e-06
1.68851575767e-06
1.24631907348e-06
4.89827976758e-06
6.00368184245e-06
8.89693544495e-07
5.1852463119e-06
2.00933283508e-06
2.15772780649e-06
1.78471697979e-06
1.71471621267e-06
2.17018570565e-06
1.54258975517e-06
1.14957655784e-06
9.11101017435e-07
1.62092945838e-06
1.00181611005e-06
1.07266706932e-07
1.01830973808e-06
6.65603724083e-07
3.23968557533e-07
2.34823358751e-07
2.83145873426e-07
1.19687894174e-06
1.07221563568e-06
8.78871342445e-07
1.25643233756e-06
7.11462301335e-07
4.24309407705e-07
1.33148530133e-06
7.67652399633e-07
8.11122784985e-07
4.68505627648e-07
6.09143396074e-07
1.19234467794e-06
6.48959800054e-07
1.54492687816e-07
1.01335222599e-06
1.57082348645e-08
3.74791492025e-06
5.45760629096e-06
1.03239362444e-06
5.06860794976e-06
2.08473347023e-06
3.53585575733e-06
3.43748376397e-06
1.98725240849e-06
8.64737480146e-07
1.02158582443e-06
2.08497065479e-07
2.16159497927e-06
2.90942595874e-06
3.82527784955e-06
2.6044770601e-06
1.70515430814e-06
5.26048175039e-07
1.41130933543e-06
1.06412387692e-06
6.95223441418e-07
9.54921791669e-07
1.8031585921e-06
9.33614596501e-07
1.16984334149e-06
1.54239618214e-06
1.64624801775e-06
1.60902905032e-06
3.17057633638e-07
6.16676255836e-07
1.08983387278e-06
8.26370172084e-07
4.82251304849e-07
1.50219317297e-06
2.18618481701e-06
1.64812413505e-06
8.50619304833e-07
1.92823731293e-06
2.97547990599e-06
1.02593827592e-06
1.22001169746e-06
1.96934187878e-06
3.52827354169e-06
1.84751953869e-06
1.37402753596e-06
5.5401541844e-07
1.93244644245e-06
8.74074134327e-07
1.41841593607e-07
2.45446960498e-06
4.39208882872e-06
4.07748894694e-06
2.33219615933e-06
5.31725250678e-06
8.69626727492e-06
5.48130188501e-06
4.70270241795e-06
5.73043629626e-06
1.0102438171e-05
6.43718332863e-06
6.00397506501e-06
3.45633972833e-06
8.33795333035e-06
6.50455980905e-06
3.85837103232e-06
2.43401337592e-06
5.72414487653e-06
1.34149681032e-06
2.32909086399e-06
1.49327495372e-06
3.61667370565e-06
8.90219011302e-07
6.46382595487e-07
1.17205939998e-06
4.49877753181e-06
2.79149732403e-06
1.93183074908e-06
8.46918795713e-08
3.83508366118e-06
1.67618080966e-06
9.18717691701e-07
2.54516923083e-06
8.50055158655e-06
3.91850006255e-06
5.5288064658e-06
8.4604921332e-06
1.5788127584e-05
5.60976615039e-06
6.62391481619e-06
2.97517022282e-06
6.46135176882e-06
8.63069643953e-07
4.03089232875e-06
3.26331869784e-06
6.31566769291e-06
2.21612386349e-06
2.69573646309e-07
1.47645890631e-06
3.05134379527e-06
1.71701105541e-06
4.47370507142e-07
2.76702317609e-06
1.64111279156e-06
3.3721388668e-06
2.02423576937e-06
3.79319879647e-06
4.59048122105e-06
5.61557500362e-06
4.520595709e-06
1.36652515661e-06
1.30521403013e-06
3.29717177653e-06
1.89406671681e-06
1.83493319306e-06
2.56623263905e-06
4.85780132882e-07
1.67242629974e-06
1.99752813876e-06
2.46991625081e-06
3.18590503483e-06
2.69922104374e-06
1.40492566133e-06
1.69700721333e-06
1.76728983152e-06
2.92027767483e-06
3.21915060184e-06
3.90258437593e-06
3.70553222612e-06
4.19981911351e-06
2.50909281353e-06
3.05912975911e-06
3.31311894674e-06
3.4556022766e-06
4.38956524484e-06
5.02217689508e-06
5.66226224379e-06
4.46098681985e-06
4.49059747471e-06
5.1039795595e-06
4.48161746574e-06
5.24871544243e-06
4.43602061342e-06
4.9318441348e-06
5.09594449187e-06
4.97863187735e-06
5.03035026222e-06
4.62940683924e-06
4.02663865846e-06
4.16318597453e-06
3.66582059612e-06
3.42096340111e-06
2.75412927454e-06
3.69684432541e-06
3.14572089752e-06
2.67652393023e-06
2.30950775639e-06
2.43788888265e-06
3.14700370131e-06
2.66694732283e-06
2.43533107144e-06
2.30011413147e-06
2.1135141869e-06
1.94698385251e-06
1.71881909291e-06
2.35717657753e-06
1.66130737757e-06
1.79194000692e-06
1.67321417281e-06
2.26594234761e-06
1.30265458455e-06
1.24131539703e-06
9.19785512162e-07
1.30103233074e-06
2.36125934872e-06
1.98639007059e-06
1.735923179e-06
2.16979835578e-06
1.68932785609e-06
1.37272756642e-06
1.18457831629e-06
1.30535238567e-06
1.144705655e-06
1.04450977257e-06
5.52383160536e-07
1.08011406485e-06
6.85101312912e-07
3.47382417596e-07
6.12300314895e-07
1.99412890764e-07
9.46207808193e-07
5.76003616238e-07
1.43105022882e-07
2.44812067406e-07
1.26443470618e-06
8.44166873061e-07
1.28559162616e-06
5.2811415836e-07
1.04053167249e-06
1.02801119863e-06
6.43076452357e-07
1.12601095687e-06
9.22832955359e-07
6.67766956485e-07
3.86630389585e-07
2.20382806481e-07
6.60200030322e-07
1.44882154136e-06
3.77078507825e-07
1.70319731878e-06
3.87740887546e-07
2.05967346533e-07
1.15750223175e-06
1.50148348293e-06
1.06798084416e-06
1.60364415734e-07
3.70114341378e-07
1.65525357143e-06
1.11263693728e-06
3.06624316567e-07
2.3772997658e-07
4.61224114089e-07
1.60940561976e-06
2.30918811315e-07
4.37676221625e-07
6.13707102327e-08
4.22538645254e-07
5.04427774542e-07
5.05380013954e-07
5.37361105061e-07
3.31562226896e-07
2.01876861882e-07
5.93015718363e-07
4.24695116646e-07
3.42614505447e-07
2.48323036949e-07
4.34470664568e-07
6.05919729161e-07
5.05541245256e-07
4.07403227492e-07
7.07414306781e-07
1.90198137717e-07
2.70243361392e-07
3.85809254259e-07
4.31440438298e-07
4.83983575205e-07
5.49384690118e-07
3.60403752965e-07
7.79992714125e-07
3.63871618905e-07
3.9728914039e-07
2.02433846026e-06
2.09812445983e-06
2.87002651219e-06
3.21693591249e-07
1.4084465819e-06
2.00952906215e-06
1.59615175127e-06
2.12913890015e-07
5.44779012889e-07
7.53397456497e-07
8.0225067119e-07
6.79977776606e-07
3.71008147894e-07
4.20329217253e-07
7.14327423817e-07
5.45306497846e-07
1.11495227143e-06
1.29852018609e-06
1.3194895683e-06
8.44698142818e-07
8.01163283761e-07
7.03228595513e-07
3.62401436636e-07
3.82998825659e-06
4.16235899997e-06
9.41981023604e-07
3.52010437317e-06
8.85162421962e-07
1.09109374263e-06
7.96532664635e-07
8.13019505395e-07
9.74936655374e-07
1.36609543875e-06
9.60842323182e-07
9.243619946e-07
3.52956657062e-06
3.88433939365e-06
6.99526345576e-07
2.91851606938e-06
4.39160976661e-07
5.17839190586e-07
1.91485652793e-06
7.73207552031e-07
1.73206764195e-06
2.49442898561e-07
1.07090154506e-06
1.61545776229e-07
1.51359395332e-06