# vtk DataFile Version 3.0
File Name: Molecule/sphere_excent/sphere_excent_0-s5.vtk
ASCII
DATASET UNSTRUCTURED_GRID
FIELD FieldData 1
TIME 1 1 double
0.0
POINTS 60 double
0.85065081 -0.52573111 0.0
0.80901699 -0.30901699 -0.5
1.0 0.0 0.0
0.80901699 0.30901699 -0.5
0.52573111 0.0 -0.85065081
0.85065081 0.52573111 0.0
0.5 0.80901699 -0.30901699
0.30901699 0.5 -0.80901699
0.0 0.85065081 -0.52573111
0.5 0.80901699 0.30901699
0.0 1.0 0.0
0.0 0.85065081 0.52573111
-0.5 0.80901699 -0.30901699
-0.5 0.80901699 0.30901699
-0.85065081 0.52573111 0.0
-0.80901699 0.30901699 0.5
-0.30901699 0.5 0.80901699
-0.52573111 0.0 0.85065081
-0.30901699 -0.5 0.80901699
0.0 -0.85065081 0.52573111
0.30901699 -0.5 0.80901699
0.5 -0.80901699 0.30901699
0.80901699 -0.30901699 0.5
0.30901699 -0.5 -0.80901699
0.0 0.0 -1.0
-0.30901699 -0.5 -0.80901699
0.0 -0.85065081 -0.52573111
-0.52573111 0.0 -0.85065081
0.80901699 0.30901699 0.5
0.30901699 0.5 0.80901699
-0.80901699 -0.30901699 -0.5
-0.80901699 0.30901699 -0.5
-1.0 0.0 0.0
-0.85065081 -0.52573111 0.0
-0.30901699 0.5 -0.80901699
-0.5 -0.80901699 -0.30901699
-0.5 -0.80901699 0.30901699
0.0 -1.0 0.0
-0.80901699 -0.30901699 0.5
0.5 -0.80901699 -0.30901699
-0.27326653 0.0 0.96193836
-0.43388856 -0.25989191 0.86266848
-0.16245985 -0.26286556 0.95105652
0.16245985 0.26286556 0.95105652
0.43388856 0.25989191 0.86266848
0.27326653 0.0 0.96193836
0.52573111 0.0 0.85065081
-0.25989191 0.86266848 0.43388856
-0.16062203 0.70204645 0.69378048
-0.4253254 0.68819096 0.58778525
-0.13795224 0.0 0.99043888
0.0 0.0 1.0
-0.22011703 -0.13279248 0.9663926
-0.08224247 -0.13307111 0.98768834
0.69378048 -0.16062203 0.70204645
0.85065081 0.0 0.52573111
0.69378048 0.16062203 0.70204645
0.08224247 0.13307111 0.98768834
0.22011703 0.13279248 0.9663926
0.13795224 0.0 0.99043888

CELLS 116 464
3 0 1 2
3 1 3 2
3 1 4 3
3 2 3 5
3 5 3 6
3 3 7 6
3 3 4 7
3 6 7 8
3 5 6 9
3 6 10 9
3 6 8 10
3 9 10 11
3 10 12 13
3 10 8 12
3 13 12 14
3 13 14 15
3 16 15 17
3 18 19 20
3 20 21 22
3 20 19 21
3 22 21 0
3 4 23 24
3 23 25 24
3 23 26 25
3 24 25 27
3 0 2 22
3 2 5 28
3 5 9 28
3 9 29 28
3 9 11 29
3 27 30 31
3 30 32 31
3 30 33 32
3 31 32 14
3 8 34 12
3 34 31 12
3 34 27 31
3 12 31 14
3 33 35 36
3 35 37 36
3 35 26 37
3 36 37 19
3 33 36 38
3 36 18 38
3 36 19 18
3 17 15 38
3 15 32 38
3 15 14 32
3 38 32 33
3 27 25 30
3 25 35 30
3 25 26 35
3 30 35 33
3 26 39 37
3 39 21 37
3 39 0 21
3 37 21 19
3 4 1 23
3 1 39 23
3 1 0 39
3 23 39 26
3 4 24 7
3 24 34 7
3 24 27 34
3 7 34 8
3 17 40 16
3 17 41 40
3 41 18 42
3 20 42 18
3 18 41 38
3 38 41 17
3 16 43 29
3 29 43 44
3 44 45 46
3 46 45 20
3 29 44 28
3 13 47 10
3 10 47 11
3 11 47 48
3 47 49 48
3 47 13 49
3 48 49 16
3 16 49 15
3 15 49 13
3 11 48 29
3 48 16 29
3 40 50 16
3 16 50 51
3 42 52 41
3 41 52 40
3 40 52 50
3 52 53 50
3 52 42 53
3 50 53 51
3 51 53 20
3 53 42 20
3 22 54 20
3 20 54 46
3 28 55 2
3 2 55 22
3 22 55 54
3 55 56 54
3 55 28 56
3 54 56 46
3 51 57 16
3 57 43 16
3 43 58 44
3 58 45 44
3 43 57 58
3 57 59 58
3 57 51 59
3 58 59 45
3 45 59 20
3 20 59 51
3 46 56 44
3 44 56 28

CELL_TYPES 116
5
5
5
5
5
5
5
5
5
5
5
5
5
5
5
5
5
5
5
5
5
5
5
5
5
5
5
5
5
5
5
5
5
5
5
5
5
5
5
5
5
5
5
5
5
5
5
5
5
5
5
5
5
5
5
5
5
5
5
5
5
5
5
5
5
5
5
5
5
5
5
5
5
5
5
5
5
5
5
5
5
5
5
5
5
5
5
5
5
5
5
5
5
5
5
5
5
5
5
5
5
5
5
5
5
5
5
5
5
5
5
5
5
5
5
5

CELL_DATA 116
SCALARS cell_data_0 double
LOOKUP_TABLE default
5.95597144938e-07
4.94069238849e-07
1.43866830233e-07
4.12559089267e-07
1.13391001767e-07
2.35170587718e-07
5.99252860772e-08
7.31478368184e-08
1.94905663976e-06
5.7924798143e-07
7.36562444282e-07
2.70650516695e-06
2.55085051607e-06
1.49532590301e-07
4.80812243619e-07
3.19907270138e-06
1.61455254173e-05
7.97471114537e-06
6.17484915032e-06
9.28615391361e-06
6.33617052484e-07
5.1112040553e-08
8.05957472584e-09
4.26840387675e-08
3.85934842875e-08
3.04110524182e-06
3.82080137883e-06
3.68108469453e-07
1.18619605133e-05
1.2896978164e-05
2.33676652746e-08
5.1220299631e-07
3.19781138556e-08
2.86122272196e-08
2.69616862382e-07
1.08668398833e-08
1.81560611237e-07
3.82769607135e-07
1.82004361e-06
4.12842763111e-07
9.05782196418e-07
2.42366766323e-06
5.50601770482e-07
1.2922770908e-05
1.39252055794e-05
5.30684636729e-07
3.09892082445e-06
1.07473875037e-06
9.81484231318e-07
1.12580605379e-07
1.08164149698e-09
1.63747819867e-07
1.96196238852e-07
3.80712556063e-07
7.89353392654e-08
7.10883770514e-07
5.87654285608e-07
1.0117420103e-07
2.28788379957e-07
3.4424735656e-07
1.76845329422e-07
4.98419067052e-08
3.33573792035e-08
3.62924184383e-08
5.77689286187e-08
1.28468861781e-06
7.17966836171e-06
1.03843626129e-05
1.84359464044e-06
6.18990291645e-06
1.50224325826e-06
1.36934147917e-06
9.49008348844e-06
7.13301982187e-06
2.83357387487e-07
6.06299884822e-06
5.73409225742e-07
6.22389053175e-07
1.22709083986e-06
2.90213475848e-07
4.10318599416e-07
7.82748843621e-06
4.0363218235e-06
1.21044278861e-06
1.57380223388e-06
4.46840177541e-06
3.43632441454e-07
3.89306181207e-06
7.83552172528e-07
3.944406009e-07
2.59420330473e-06
2.70334441209e-06
3.13632535778e-06
9.43036983057e-06
1.06859993026e-06
2.35349035714e-06
4.29614952155e-06
4.78082728361e-08
2.16694426317e-06
2.19239531153e-07
1.22048513455e-06
3.74257737986e-07
6.58445263421e-07
3.30981358441e-06
8.5852268305e-07
2.3029204475e-06
6.16683841789e-07
1.49902163876e-06
3.15383847773e-06
2.91012566932e-06
9.401501813e-06
2.54164031934e-06
6.28347255521e-07
4.31070815483e-06
2.23711506646e-06
2.10399139305e-08

