# vtk DataFile Version 3.0
File Name: Molecule/sphere_excent/sphere_excent_0-s3.vtk
ASCII
DATASET UNSTRUCTURED_GRID
FIELD FieldData 1
TIME 1 1 double
0.0
POINTS 48 double
0.85065081 -0.52573111 0.0
0.80901699 -0.30901699 -0.5
1.0 0.0 0.0
0.80901699 0.30901699 -0.5
0.52573111 0.0 -0.85065081
0.85065081 0.52573111 0.0
0.5 0.80901699 -0.30901699
0.30901699 0.5 -0.80901699
0.0 0.85065081 -0.52573111
0.5 0.80901699 0.30901699
0.0 1.0 0.0
0.0 0.85065081 0.52573111
-0.5 0.80901699 0.30901699
-0.5 0.80901699 -0.30901699
-0.85065081 0.52573111 0.0
-0.30901699 0.5 0.80901699
-0.80901699 0.30901699 0.5
-0.52573111 0.0 0.85065081
-0.30901699 -0.5 0.80901699
0.0 0.0 1.0
0.0 -0.85065081 0.52573111
0.30901699 -0.5 0.80901699
0.5 -0.80901699 0.30901699
0.80901699 -0.30901699 0.5
0.30901699 -0.5 -0.80901699
0.0 0.0 -1.0
-0.30901699 -0.5 -0.80901699
0.0 -0.85065081 -0.52573111
-0.52573111 0.0 -0.85065081
0.80901699 0.30901699 0.5
0.52573111 0.0 0.85065081
0.30901699 0.5 0.80901699
-0.80901699 -0.30901699 -0.5
-0.80901699 0.30901699 -0.5
-1.0 0.0 0.0
-0.85065081 -0.52573111 0.0
-0.30901699 0.5 -0.80901699
-0.5 -0.80901699 -0.30901699
-0.5 -0.80901699 0.30901699
0.0 -1.0 0.0
-0.80901699 -0.30901699 0.5
0.5 -0.80901699 -0.30901699
0.27326653 0.0 0.96193836
0.16245985 -0.26286556 0.95105652
0.43388856 -0.25989191 0.86266848
0.0 0.52573111 0.85065081
-0.16245985 0.26286556 0.95105652
0.16245985 0.26286556 0.95105652

CELLS 92 368
3 0 1 2
3 1 3 2
3 1 4 3
3 2 3 5
3 5 3 6
3 3 7 6
3 3 4 7
3 6 7 8
3 5 6 9
3 6 10 9
3 6 8 10
3 9 10 11
3 11 10 12
3 10 13 12
3 10 8 13
3 12 13 14
3 11 12 15
3 12 16 15
3 12 14 16
3 15 16 17
3 17 18 19
3 18 20 21
3 21 22 23
3 21 20 22
3 23 22 0
3 4 24 25
3 24 26 25
3 24 27 26
3 25 26 28
3 0 2 23
3 2 29 23
3 2 5 29
3 23 29 30
3 5 9 29
3 9 31 29
3 9 11 31
3 29 31 30
3 28 32 33
3 32 34 33
3 32 35 34
3 33 34 14
3 8 36 13
3 36 33 13
3 36 28 33
3 13 33 14
3 35 37 38
3 37 39 38
3 37 27 39
3 38 39 20
3 35 38 40
3 38 18 40
3 38 20 18
3 40 18 17
3 17 16 40
3 16 34 40
3 16 14 34
3 40 34 35
3 28 26 32
3 26 37 32
3 26 27 37
3 32 37 35
3 27 41 39
3 41 22 39
3 41 0 22
3 39 22 20
3 4 1 24
3 1 41 24
3 1 0 41
3 24 41 27
3 4 25 7
3 25 36 7
3 25 28 36
3 7 36 8
3 31 42 30
3 21 43 18
3 18 43 19
3 19 43 42
3 43 44 42
3 43 21 44
3 42 44 30
3 30 44 23
3 44 21 23
3 15 45 11
3 11 45 31
3 15 46 45
3 46 47 45
3 46 19 47
3 45 47 31
3 19 46 17
3 17 46 15
3 31 47 42
3 42 47 19

CELL_TYPES 92
5
5
5
5
5
5
5
5
5
5
5
5
5
5
5
5
5
5
5
5
5
5
5
5
5
5
5
5
5
5
5
5
5
5
5
5
5
5
5
5
5
5
5
5
5
5
5
5
5
5
5
5
5
5
5
5
5
5
5
5
5
5
5
5
5
5
5
5
5
5
5
5
5
5
5
5
5
5
5
5
5
5
5
5
5
5
5
5
5
5
5
5

CELL_DATA 92
SCALARS cell_data_0 double
LOOKUP_TABLE default
8.32605254678e-08
2.91988388703e-07
1.58943790296e-08
2.32315286112e-08
2.4697824585e-07
2.04144960344e-07
9.3739534285e-08
1.38339394901e-07
6.30710269719e-07
2.92307828435e-07
1.96425130557e-07
9.95601082166e-07
1.03665375337e-06
1.04126819629e-06
4.75391736548e-07
7.1881051377e-07
8.19759345076e-06
1.84299062976e-07
8.06721950158e-07
9.140323892e-06
2.21423655024e-05
4.69769966352e-06
1.11618544207e-05
1.08100085155e-05
1.61293036436e-06
1.14941326442e-08
5.11608606478e-08
6.4760288433e-10
3.18597490288e-08
4.48430552636e-07
2.32517921694e-06
6.68576923539e-07
4.16438132984e-06
1.40279900824e-06
1.32284939996e-07
2.31059702033e-07
1.14098936871e-05
1.16655943874e-07
2.80202483754e-07
5.87845216767e-07
4.93794949097e-07
8.75970888539e-08
1.34828227383e-08
5.01405541623e-09
1.46257825359e-07
5.81530172189e-07
3.11600786541e-07
1.98461385885e-07
1.11463275032e-06
1.02026870111e-06
4.56259178183e-07
1.39494922369e-06
1.56660129901e-05
1.29204404514e-05
1.32888896408e-06
2.08076533492e-06
1.7057272937e-06
3.80154661312e-08
6.78189325643e-09
3.15606388389e-08
1.54389941795e-07
3.23556427166e-07
3.59396483481e-07
2.52169446219e-07
6.91521264932e-07
4.50002410356e-08
1.97915502146e-07
1.09906074507e-07
2.79261904746e-08
1.11229097501e-08
2.93364876641e-08
2.92780949287e-08
6.73284505784e-10
5.77086050534e-06
1.84927544958e-06
8.96348067977e-07
2.93185042593e-06
2.52996017367e-06
3.51613887505e-06
2.27066892856e-06
1.16185639129e-06
4.34685484766e-06
2.68503995274e-06
3.55396169143e-06
3.34732314011e-07
2.87397525845e-06
1.64048614019e-06
5.3461596642e-07
5.12452377383e-06
3.18895915163e-06
2.8782774388e-08
7.82867366248e-07

