# vtk DataFile Version 3.0
File Name: Molecule/sphere_excent/sphere_excent_0-s14.vtk
ASCII
DATASET UNSTRUCTURED_GRID
FIELD FieldData 1
TIME 1 1 double
0.0
POINTS 251 double
2.0 3.23606798 -1.23606798
2.10292445 3.40260323 0.0
3.40260323 2.10292445 0.0
2.0 3.23606798 1.23606798
1.05146222 3.80422607 -0.64983939
1.05146222 3.80422607 0.64983939
0.0 4.0 0.0
-1.05146222 3.80422607 0.64983939
0.0 3.40260323 2.10292445
-1.05146222 3.80422607 -0.64983939
-2.10292445 3.40260323 0.0
-2.0 3.23606798 -1.23606798
-2.0 3.23606798 1.23606798
0.0 3.40260323 -2.10292445
-3.40260323 2.10292445 0.0
3.40260323 -2.10292445 0.0
3.45067392 -1.73555426 -1.03956765
3.84775343 -1.09306612 0.0
3.80422607 -0.64983939 -1.05146222
4.0 0.0 0.0
3.80422607 0.64983939 -1.05146222
3.84775343 1.09306612 0.0
3.45067392 1.73555426 -1.03956765
3.23606798 1.23606798 -2.0
3.23606798 1.23606798 2.0
3.23606798 -1.23606798 -2.0
2.0 -3.23606798 -1.23606798
2.75276384 2.35114101 -1.70130162
-0.64983939 1.05146222 3.80422607
0.0 0.0 4.0
0.64983939 1.05146222 3.80422607
-3.23606798 1.23606798 -2.0
-3.40260323 0.0 -2.10292445
-4.0 0.0 0.0
-3.23606798 -1.23606798 -2.0
2.35114101 -1.70130162 -2.75276384
1.23606798 -2.0 3.23606798
1.70130162 -2.75276384 2.35114101
2.35114101 -1.70130162 2.75276384
2.75276384 -2.35114101 1.70130162
2.0 -3.23606798 1.23606798
-1.70130162 -2.75276384 2.35114101
-2.35114101 -1.70130162 2.75276384
-2.75276384 -2.35114101 1.70130162
-3.23606798 -1.23606798 2.0
-1.23606798 2.0 -3.23606798
-1.73555426 1.03956765 -3.45067392
-2.77512191 0.64248814 -2.80818578
-2.10292445 0.0 -3.40260323
-1.73555426 -1.03956765 -3.45067392
-2.77512191 -0.64248814 -2.80818578
-2.75276384 2.35114101 1.70130162
-2.35114101 1.70130162 2.75276384
-1.70130162 2.75276384 2.35114101
-3.23606798 1.23606798 2.0
-1.23606798 2.0 3.23606798
2.75276384 2.35114101 1.70130162
1.70130162 2.75276384 2.35114101
2.35114101 1.70130162 2.75276384
1.23606798 2.0 3.23606798
2.77512191 0.64248814 2.80818578
1.73555426 1.03956765 3.45067392
2.10292445 0.0 3.40260323
3.80422607 0.64983939 1.05146222
3.80422607 -0.64983939 1.05146222
3.40260323 0.0 2.10292445
3.23606798 -1.23606798 2.0
-2.10292445 0.0 3.40260323
-2.77512191 0.64248814 2.80818578
-2.77512191 -0.64248814 2.80818578
-3.40260323 0.0 2.10292445
3.5640261 -0.95470772 -1.54474954
3.36071154 -0.62573786 -2.07703396
3.65192997 -0.32929432 -1.59842821
3.40260323 0.0 -2.10292445
3.65192997 0.32929432 -1.59842821
3.85544506 0.0 -1.0656188
-1.09306612 0.0 3.84775343
1.09306612 0.0 3.84775343
-1.23606798 -2.0 3.23606798
-0.95470772 -1.54474954 3.5640261
-1.73555426 -1.03956765 3.45067392
-1.41421356 -0.54018151 3.70245917
-0.64983939 -1.05146222 3.80422607
-0.32896986 -0.53228441 3.95075336
0.0 -2.10292445 3.40260323
0.64983939 -1.05146222 3.80422607
0.0 -1.0656188 3.85544506
0.95470772 -1.54474954 3.5640261
0.32896986 -0.53228441 3.95075336
1.41421356 -0.54018151 3.70245917
1.73555426 -1.03956765 3.45067392
2.77512191 -0.64248814 -2.80818578
-3.40260323 -2.10292445 0.0
-3.84775343 -1.09306612 0.0
-2.0 -3.23606798 1.23606798
-1.05146222 -3.80422607 0.64983939
-1.03956765 -3.45067392 1.73555426
0.0 -3.84775343 1.09306612
0.0 -3.40260323 2.10292445
-3.80422607 -0.64983939 1.05146222
-3.45067392 -1.73555426 1.03956765
0.0 -4.0 0.0
1.05146222 -3.80422607 0.64983939
1.03956765 -3.45067392 1.73555426
-0.62573786 2.07703396 3.36071154
-0.64248814 2.80818578 2.77512191
0.0 2.82842712 2.82842712
0.0 2.10292445 3.40260323
0.64248814 2.80818578 2.77512191
0.62573786 2.07703396 3.36071154
-0.95470772 1.54474954 3.5640261
-0.32929432 1.59842821 3.65192997
-1.41421356 0.54018151 3.70245917
-1.73555426 1.03956765 3.45067392
0.62573786 -2.07703396 3.36071154
0.64248814 -2.80818578 2.77512191
0.0 -2.82842712 2.82842712
-0.64248814 -2.80818578 2.77512191
-0.62573786 -2.07703396 3.36071154
-1.8737194 -3.03174168 1.815962
-1.48699214 -2.40600382 2.82842713
-0.87403205 -3.16227766 2.28824561
-3.84775343 1.09306612 0.0
-3.45067392 1.73555426 1.03956765
-3.80422607 0.64983939 1.05146222
2.82842713 1.48699214 -2.40600382
2.10292445 0.0 -3.40260323
2.28824561 0.87403205 -3.16227766
2.77512191 0.64248814 -2.80818578
2.35114101 1.70130162 -2.75276384
1.54474954 3.5640261 -0.95470772
0.54018151 3.70245917 -1.41421356
1.03956765 3.45067392 -1.73555426
2.28824561 -0.87403205 3.16227766
2.77512191 -0.64248814 2.80818578
2.82842713 -1.48699214 2.40600382
0.30471214 -1.58610071 -3.65943097
-0.32896986 -0.53228441 -3.95075336
0.64983939 -1.05146222 -3.80422607
-0.64983939 -1.05146222 -3.80422607
0.0 0.0 -4.0
-0.55180897 0.0 -3.96175553
-0.88046811 -0.5311699 -3.86557039
-1.09306612 0.0 -3.84775343
-1.20503552 -1.056331 -3.6649767
-1.43291518 -0.52662148 -3.6972184
-1.23606798 -2.0 -3.23606798
-0.32896986 0.53228441 -3.95075336
-0.88046811 0.5311699 -3.86557039
-0.64983939 1.05146222 -3.80422607
-1.43291518 0.52662148 -3.6972184
-1.20503552 1.056331 -3.6649767
1.73555426 1.03956765 -3.45067392
0.64983939 1.05146222 -3.80422607
-2.80818578 -2.77512191 -0.64248814
-2.80818578 -2.77512191 0.64248814
-2.10292445 -3.40260323 0.0
-2.0 -3.23606798 -1.23606798
2.80818578 -2.77512191 -0.64248814
2.10292445 -3.40260323 0.0
2.80818578 -2.77512191 0.64248814
2.40600382 2.82842713 -1.48699214
2.05350177 2.25701685 -2.58631117
2.58631117 2.05350177 -2.25701685
2.25701685 2.58631117 -2.05350177
1.70130162 2.75276384 -2.35114101
1.815962 1.8737194 -3.03174168
1.48699214 2.40600382 -2.82842713
1.23606798 2.0 -3.23606798
1.8737194 3.03174168 -1.815962
0.62573786 2.07703396 -3.36071154
0.9483453 2.4273006 -3.0346092
0.32456741 2.48095833 -3.12081748
0.0 2.10292445 -3.40260323
0.64248814 2.80818578 -2.77512191
-0.64248814 2.80818578 -2.77512191
0.32434517 3.13537217 -2.46256808
1.18401837 2.80923939 -2.58964758
0.87403205 3.16227766 -2.28824561
-2.35114101 1.70130162 -2.75276384
-1.70130162 2.75276384 -2.35114101
-2.75276384 2.35114101 -1.70130162
-1.70130162 -2.75276384 -2.35114101
-2.35114101 -1.70130162 -2.75276384
-2.75276384 -2.35114101 -1.70130162
-0.64248814 -2.80818578 -2.77512191
-1.03956765 -3.45067392 -1.73555426
0.0 -3.40260323 -2.10292445
-3.0346092 -0.9483453 -2.4273006
-2.07821484 -1.36908454 -3.13155403
1.43291518 0.52662148 -3.6972184
1.09306612 0.0 -3.84775343
0.88046811 0.5311699 -3.86557039
1.20503552 1.056331 -3.6649767
1.50015427 1.53445493 -3.3756459
0.95470772 1.54474954 -3.5640261
-2.81162812 0.0 -2.84512694
-3.12081748 -0.32456741 -2.48095833
-3.12081748 0.32456741 -2.48095833
2.46256808 -0.32434517 -3.13537217
1.93776657 -0.52480151 -3.45971734
2.28500664 -0.85209146 -3.17059692
1.73555426 -1.03956765 -3.45067392
2.58964758 -1.18401837 -2.80923939
2.06448648 -1.38461206 -3.13380679
1.50015427 -1.53445493 -3.3756459
1.815962 -1.8737194 -3.03174168
1.23606798 -2.0 -3.23606798
0.9483453 -2.4273006 -3.0346092
0.0 -2.10292445 -3.40260323
-0.30753628 -2.49114186 -3.11442349
0.64248814 -2.80818578 -2.77512191
1.48699214 -2.40600382 -2.82842713
1.18401837 -2.80923939 -2.58964758
1.70130162 -2.75276384 -2.35114101
2.05350177 -2.25701685 -2.58631117
-0.62573786 2.07703396 -3.36071154
0.55180897 0.0 -3.96175553
0.89919817 -0.5386045 -3.8602264
1.43291518 -0.52662148 -3.6972184
1.6134214 0.0 -3.66017368
-0.95470772 1.54474954 -3.5640261
-0.32929432 1.59842821 -3.65192997
-0.47591828 -1.83247993 -3.52356625
0.77782696 -1.81035942 -3.48103203
1.54474954 3.5640261 0.95470772
1.03956765 3.45067392 1.73555426
0.54018151 3.70245917 1.41421356
-1.03956765 3.45067392 1.73555426
-1.03956765 3.45067392 -1.73555426
3.45067392 -1.73555426 1.03956765
3.03174168 -1.815962 1.8737194
3.16227766 -2.28824561 0.87403205
-1.8737194 3.03174168 1.815962
-0.87403205 3.16227766 2.28824561
0.52480151 -3.45971734 -1.93776657
0.0 -3.84775343 -1.09306612
0.5386045 -3.8602264 -0.89919817
1.03956765 -3.45067392 -1.73555426
1.53445493 -3.3756459 -1.50015427
1.05146222 -3.80422607 -0.64983939
1.8737194 -3.03174168 -1.815962
1.38461206 -3.13380679 -2.06448648
0.85209146 -3.17059692 -2.28500664
0.32434517 -3.13537217 -2.46256808
-0.32434517 3.13537217 -2.46256808
-1.36908454 3.13155403 -2.07821484
-0.53228441 -3.95075336 0.32896986
-1.05146222 -3.80422607 -0.64983939
-1.58610071 -3.65943098 -0.30471214

CELLS 498 1992
3 0 1 2
3 2 1 3
3 4 5 1
3 4 6 5
3 6 7 8
3 6 9 7
3 9 10 7
3 9 11 10
3 7 10 12
3 13 9 6
3 12 10 14
3 10 11 14
3 15 16 17
3 16 18 17
3 17 18 19
3 19 20 21
3 20 22 21
3 20 23 22
3 21 22 2
3 21 2 24
3 25 16 26
3 2 22 27
3 27 22 23
3 28 29 30
3 31 32 33
3 33 32 34
3 26 35 25
3 36 37 38
3 37 39 38
3 37 40 39
3 41 42 43
3 43 42 44
3 45 46 47
3 47 46 48
3 48 49 50
3 51 52 53
3 51 54 52
3 53 52 55
3 14 51 12
3 3 56 2
3 2 56 24
3 3 57 56
3 57 58 56
3 57 59 58
3 56 58 24
3 24 58 60
3 58 61 60
3 58 59 61
3 60 61 62
3 62 61 30
3 30 61 59
3 19 63 64
3 63 65 64
3 63 24 65
3 64 65 66
3 67 68 69
3 68 70 69
3 68 54 70
3 69 70 44
3 19 64 17
3 17 64 66
3 24 63 21
3 21 63 19
3 67 69 42
3 42 69 44
3 54 68 52
3 52 68 67
3 66 65 60
3 60 65 24
3 25 71 16
3 16 71 18
3 25 72 71
3 72 73 71
3 72 74 73
3 71 73 18
3 74 75 73
3 75 76 73
3 75 20 76
3 73 76 18
3 20 75 23
3 23 75 74
3 18 76 19
3 76 20 19
3 28 77 29
3 29 78 30
3 30 78 62
3 79 80 81
3 80 82 81
3 80 83 82
3 81 82 67
3 67 82 77
3 82 84 77
3 82 83 84
3 77 84 29
3 83 80 85
3 86 87 85
3 85 87 83
3 85 88 86
3 83 87 84
3 87 89 84
3 87 86 89
3 84 89 29
3 29 89 78
3 89 90 78
3 89 86 90
3 78 90 62
3 86 88 90
3 88 91 90
3 88 36 91
3 90 91 62
3 74 72 92
3 92 72 25
3 38 91 36
3 79 81 42
3 42 81 67
3 93 94 34
3 34 94 33
3 95 96 97
3 96 98 97
3 97 98 99
3 44 100 101
3 100 94 101
3 100 33 94
3 101 94 93
3 102 103 98
3 103 104 98
3 103 40 104
3 98 104 99
3 55 105 106
3 105 107 106
3 105 108 107
3 106 107 8
3 8 107 109
3 107 110 109
3 107 108 110
3 109 110 59
3 55 111 105
3 111 112 105
3 111 28 112
3 105 112 108
3 108 112 30
3 30 112 28
3 59 110 30
3 30 110 108
3 67 113 114
3 113 111 114
3 113 28 111
3 114 111 55
3 36 115 116
3 115 117 116
3 115 85 117
3 116 117 99
3 99 117 118
3 117 119 118
3 117 85 119
3 118 119 79
3 99 104 37
3 37 104 40
3 36 116 37
3 37 116 99
3 44 101 43
3 43 101 93
3 95 120 43
3 120 41 43
3 41 121 42
3 121 79 42
3 79 121 118
3 121 122 118
3 121 41 122
3 118 122 99
3 99 122 97
3 122 120 97
3 122 41 120
3 97 120 95
3 55 106 53
3 67 114 52
3 52 114 55
3 8 109 57
3 57 109 59
3 33 100 70
3 70 100 44
3 28 113 77
3 77 113 67
3 79 119 80
3 80 119 85
3 85 115 88
3 88 115 36
3 33 123 31
3 31 123 14
3 54 124 125
3 124 123 125
3 124 14 123
3 125 123 33
3 23 126 27
3 127 128 129
3 128 126 129
3 128 130 126
3 129 126 23
3 0 131 1
3 131 4 1
3 4 132 6
3 6 132 13
3 13 132 133
3 132 131 133
3 132 4 131
3 133 131 0
3 127 129 74
3 74 129 23
3 62 134 135
3 134 136 135
3 134 38 136
3 135 136 66
3 39 136 38
3 137 138 139
3 137 140 138
3 139 138 141
3 141 138 142
3 138 143 142
3 138 140 143
3 142 143 144
3 140 145 143
3 145 146 143
3 145 49 146
3 143 146 144
3 49 145 147
3 147 145 140
3 144 146 48
3 146 49 48
3 141 142 148
3 142 149 148
3 142 144 149
3 148 149 150
3 144 151 149
3 151 152 149
3 151 46 152
3 149 152 150
3 46 151 48
3 48 151 144
3 152 46 45
3 14 124 51
3 51 124 54
3 62 135 60
3 60 135 66
3 54 125 70
3 70 125 33
3 130 128 153
3 153 128 127
3 141 148 154
3 154 148 150
3 38 134 91
3 91 134 62
3 93 155 156
3 155 157 156
3 155 158 157
3 156 157 95
3 34 155 93
3 26 159 160
3 159 161 160
3 159 15 161
3 160 161 40
3 27 162 2
3 2 162 0
3 130 163 164
3 163 165 164
3 163 166 165
3 164 165 27
3 130 167 163
3 167 168 163
3 167 169 168
3 163 168 166
3 27 165 162
3 165 170 162
3 165 166 170
3 162 170 0
3 15 159 16
3 16 159 26
3 40 161 39
3 93 156 43
3 43 156 95
3 169 171 172
3 171 173 172
3 171 174 173
3 172 173 175
3 175 173 176
3 176 173 174
3 176 177 175
3 153 167 130
3 169 172 168
3 172 178 168
3 172 175 178
3 168 178 166
3 166 178 179
3 178 177 179
3 178 175 177
3 179 177 13
3 150 171 169
3 95 157 96
3 26 160 103
3 103 160 40
3 130 164 126
3 126 164 27
3 166 179 133
3 133 179 13
3 0 170 133
3 133 170 166
3 45 180 181
3 180 182 181
3 180 31 182
3 181 182 11
3 11 182 14
3 182 31 14
3 147 183 184
3 183 185 184
3 183 158 185
3 184 185 34
3 147 186 183
3 186 187 183
3 186 188 187
3 183 187 158
3 189 34 32
3 31 180 47
3 47 180 45
3 34 189 184
3 189 190 184
3 189 50 190
3 184 190 147
3 147 190 49
3 49 190 50
3 45 181 176
3 127 191 153
3 192 193 191
3 193 194 191
3 193 154 194
3 191 194 153
3 154 193 141
3 153 194 195
3 194 196 195
3 194 154 196
3 195 196 169
3 169 196 150
3 196 154 150
3 34 185 155
3 155 185 158
3 153 195 167
3 167 195 169
3 50 197 48
3 48 197 47
3 50 198 197
3 198 199 197
3 198 32 199
3 197 199 47
3 47 199 31
3 199 32 31
3 127 200 201
3 200 202 201
3 200 92 202
3 201 202 203
3 92 204 202
3 204 205 202
3 204 35 205
3 202 205 203
3 35 204 25
3 25 204 92
3 203 205 206
3 205 207 206
3 205 35 207
3 206 207 208
3 92 200 74
3 74 200 127
3 208 209 210
3 209 211 210
3 209 212 211
3 210 211 147
3 208 213 209
3 213 214 209
3 213 215 214
3 209 214 212
3 26 216 35
3 35 216 207
3 216 213 207
3 216 215 213
3 207 213 208
3 174 217 176
3 217 45 176
3 141 218 219
3 218 220 219
3 218 192 220
3 219 220 203
3 203 220 201
3 220 221 201
3 220 192 221
3 201 221 127
3 45 217 222
3 217 223 222
3 217 174 223
3 222 223 150
3 203 206 139
3 139 206 208
3 141 219 139
3 139 219 203
3 137 224 140
3 140 224 147
3 147 224 210
3 224 225 210
3 224 137 225
3 210 225 208
3 208 225 139
3 225 137 139
3 45 222 152
3 152 222 150
3 150 223 171
3 171 223 174
3 32 198 189
3 189 198 50
3 147 211 186
3 186 211 212
3 127 221 191
3 191 221 192
3 192 218 193
3 193 218 141
3 5 226 1
3 1 226 3
3 3 226 227
3 226 228 227
3 226 5 228
3 227 228 8
3 8 228 6
3 6 228 5
3 12 229 7
3 7 229 8
3 13 230 9
3 9 230 11
3 66 231 17
3 17 231 15
3 66 232 231
3 232 233 231
3 232 39 233
3 231 233 15
3 12 234 229
3 234 235 229
3 234 53 235
3 229 235 8
3 53 234 51
3 51 234 12
3 3 227 57
3 57 227 8
3 188 236 237
3 236 238 237
3 236 239 238
3 237 238 102
3 239 240 238
3 240 241 238
3 240 26 241
3 238 241 102
3 215 242 243
3 242 240 243
3 242 26 240
3 243 240 239
3 212 244 245
3 244 236 245
3 244 239 236
3 245 236 188
3 13 246 230
3 246 247 230
3 246 176 247
3 230 247 11
3 102 248 249
3 248 250 249
3 248 96 250
3 249 250 158
3 96 248 98
3 248 102 98
3 102 241 103
3 103 241 26
3 8 235 106
3 106 235 53
3 39 232 136
3 136 232 66
3 15 233 161
3 161 233 39
3 176 246 177
3 177 246 13
3 158 250 157
3 157 250 96
3 102 249 187
3 187 249 158
3 188 237 187
3 187 237 102
3 212 245 186
3 186 245 188
3 11 247 181
3 181 247 176
3 239 244 214
3 214 244 212
3 215 243 214
3 214 243 239
3 26 242 216
3 216 242 215

CELL_TYPES 498
5
5
5
5
5
5
5
5
5
5
5
5
5
5
5
5
5
5
5
5
5
5
5
5
5
5
5
5
5
5
5
5
5
5
5
5
5
5
5
5
5
5
5
5
5
5
5
5
5
5
5
5
5
5
5
5
5
5
5
5
5
5
5
5
5
5
5
5
5
5
5
5
5
5
5
5
5
5
5
5
5
5
5
5
5
5
5
5
5
5
5
5
5
5
5
5
5
5
5
5
5
5
5
5
5
5
5
5
5
5
5
5
5
5
5
5
5
5
5
5
5
5
5
5
5
5
5
5
5
5
5
5
5
5
5
5
5
5
5
5
5
5
5
5
5
5
5
5
5
5
5
5
5
5
5
5
5
5
5
5
5
5
5
5
5
5
5
5
5
5
5
5
5
5
5
5
5
5
5
5
5
5
5
5
5
5
5
5
5
5
5
5
5
5
5
5
5
5
5
5
5
5
5
5
5
5
5
5
5
5
5
5
5
5
5
5
5
5
5
5
5
5
5
5
5
5
5
5
5
5
5
5
5
5
5
5
5
5
5
5
5
5
5
5
5
5
5
5
5
5
5
5
5
5
5
5
5
5
5
5
5
5
5
5
5
5
5
5
5
5
5
5
5
5
5
5
5
5
5
5
5
5
5
5
5
5
5
5
5
5
5
5
5
5
5
5
5
5
5
5
5
5
5
5
5
5
5
5
5
5
5
5
5
5
5
5
5
5
5
5
5
5
5
5
5
5
5
5
5
5
5
5
5
5
5
5
5
5
5
5
5
5
5
5
5
5
5
5
5
5
5
5
5
5
5
5
5
5
5
5
5
5
5
5
5
5
5
5
5
5
5
5
5
5
5
5
5
5
5
5
5
5
5
5
5
5
5
5
5
5
5
5
5
5
5
5
5
5
5
5
5
5
5
5
5
5
5
5
5
5
5
5
5
5
5
5
5
5
5
5
5
5
5
5
5
5
5
5
5
5
5
5
5
5
5
5
5
5
5
5
5
5
5
5
5
5
5
5
5
5
5
5
5
5
5
5
5
5
5
5
5
5
5
5
5
5
5
5
5
5
5
5
5
5
5
5
5
5
5
5
5
5
5
5
5
5
5
5
5
5
5
5
5
5
5
5
5
5

CELL_DATA 498
SCALARS cell_data_0 double
LOOKUP_TABLE default
1.58690362249e-08
6.69317697491e-07
1.18931855923e-06
9.20382887846e-07
2.16107583366e-06
9.36747045682e-07
1.21201307779e-06
6.68238154892e-07
1.06023148217e-06
6.18687719357e-07
1.53684233087e-06
1.11496574005e-06
9.20855787488e-07
1.89122221503e-06
9.90788249065e-07
9.28154773651e-07
2.00981056646e-06
2.0285975498e-06
1.62561986424e-06
2.14077028786e-07
2.73953300639e-06
2.1749191223e-06
2.04740754805e-06
1.02409843212e-06
1.19181199646e-06
1.96897447777e-06
4.29836880279e-06
1.58028684027e-06
1.44752856873e-06
7.49965826513e-07
1.22352769143e-07
4.29186109682e-07
3.5528594224e-06
2.8205751972e-06
1.29472705458e-06
1.26918448105e-06
1.51628135745e-07
1.63000321076e-07
3.38036514775e-07
1.10760038425e-06
2.18283596459e-07
8.0424539188e-07
1.33513764809e-06
5.39579402983e-07
6.7427959137e-08
2.39568259512e-07
4.88205507391e-07
6.29716280998e-07
5.03330048414e-07
1.04654453955e-06
9.86865667743e-07
9.54829909348e-07
1.12120694823e-06
1.40606380518e-06
1.0832921313e-06
1.0827927877e-06
8.28951773495e-07
9.6942606351e-07
5.36799471188e-07
2.47184810681e-07
3.14468943198e-07
8.39639135366e-07
3.81699309721e-07
6.80670707033e-07
7.23397334727e-08
6.1097403094e-07
8.70895166282e-07
9.65942253148e-07
6.78625423975e-07
8.96690652367e-07
8.96491852828e-07
7.03069193539e-07
7.6736455976e-07
8.19271946745e-07
6.47604236248e-07
7.62893298172e-07
8.67739235289e-07
9.19748092512e-07
8.34998690634e-07
1.28869855848e-06
1.1392477055e-06
7.98752258761e-07
9.46400737471e-07
8.68499504446e-07
7.89442288347e-07
1.26820556895e-06
3.85343223495e-07
1.48931662501e-09
3.1820701392e-08
2.43257000244e-07
3.95166153386e-07
1.94418917974e-07
8.68465223729e-08
3.63861427182e-07
3.88350600229e-08
4.45688538841e-07
1.2813100562e-07
4.38831861529e-07
4.60032677203e-08
1.32810951387e-07
2.45598757684e-07
1.90618177662e-07
3.87778908158e-07
3.2136250423e-07
5.07637687183e-07
5.0095663737e-07
4.49554384339e-07
2.13517489007e-07
4.24158188247e-07
4.74571081417e-07
1.43228693244e-06
1.38182935185e-06
8.69523963098e-07
5.73781457457e-07
4.66265025844e-07
8.51790015218e-07
9.86678731072e-08
8.67450025347e-07
2.85748929594e-07
5.50561985205e-07
1.63614036549e-07
2.16348889266e-07
4.44482248448e-09
3.08578734376e-07
2.79258732578e-07
1.08911515474e-06
4.92934437536e-07
1.12652384391e-06
9.07930316128e-07
9.95159955552e-07
8.16830546473e-07
7.96165252296e-07
7.12602917577e-07
8.82518196378e-07
7.42974532943e-07
8.58815288141e-07
5.45765492029e-07
4.95737177543e-07
2.9647029894e-07
3.19355592647e-07
3.23246356698e-07
3.0742989147e-07
9.63906348021e-07
6.60895739645e-07
4.50706848785e-07
6.37558295282e-07
5.77825675324e-07
7.35687600959e-07
1.02795193905e-06
1.05129461975e-06
8.203655686e-07
8.96500562461e-07
9.13482702003e-07
1.07379827625e-06
8.35863373652e-07
1.06071004583e-06
1.57339700414e-06
6.84841668921e-07
1.76521135797e-06
1.71766380037e-06
5.38621176345e-07
4.93607578249e-07
4.63870607456e-07
4.63207910536e-07
2.01557302613e-07
8.02399804538e-07
9.89001147916e-07
9.75842707803e-07
6.1474164792e-07
8.82585905144e-07
5.39040187524e-07
6.36683525826e-07
5.32883384453e-07
1.42550982524e-07
1.11097947731e-06
7.58732757663e-07
6.12487307587e-07
7.7263660271e-07
1.08589001249e-06
8.41395009346e-07
4.38639917034e-07
2.76543609258e-07
4.76683911943e-07
4.70595476745e-07
3.00784763739e-07
3.30801872229e-07
4.75009381054e-07
1.59355712454e-06
1.13700969509e-06
1.25170165628e-06
1.24607333419e-06
8.48955823276e-07
9.72845921057e-07
6.06455157258e-07
1.84991886975e-07
1.35987828801e-07
1.64758195758e-07
8.64212431104e-08
2.40499389375e-07
4.59249135445e-07
5.91919869192e-07
1.68402301075e-07
6.46021823245e-09
3.03007347333e-07
3.15776593616e-07
1.57438054413e-07
1.00956888182e-06
9.58061825711e-07
7.39762207537e-07
6.3516484086e-07
4.99238302868e-07
5.5633823009e-07
5.68346876522e-07
2.93704093289e-07
3.98207291503e-07
1.02090111643e-06
6.112258704e-07
3.5284336417e-07
2.8344438208e-07
3.18788094333e-07
2.64424811676e-07
2.32082639162e-07
1.20404954836e-07
2.29525767097e-07
2.62726150532e-07
2.79284091099e-07
3.73838677709e-07
3.42489104804e-07
5.40284829033e-07
1.66446726343e-07
1.90561059021e-07
3.48460963367e-07
1.2253187282e-07
7.47590278719e-08
3.54334749976e-07
3.28819420081e-07
9.47564493133e-07
4.05301702894e-07
1.2391118445e-06
3.33290801929e-07
6.23455381855e-07
9.35200632899e-07
1.03715724042e-06
1.26589643759e-06
1.346258772e-06
5.60400307897e-07
4.67990499407e-07
1.3519524467e-06
1.13462422522e-06
3.57922983007e-07
6.39742710043e-07
5.85800784094e-07
8.71946399448e-07
4.07646064566e-08
3.89003144638e-07
2.84537804289e-07
9.37193244965e-08
9.45079071757e-07
7.65621539119e-07
2.81643514751e-07
9.27739850883e-07
1.54310225542e-07
1.93978919027e-07
3.43429432884e-08
1.71794392201e-07
2.18652101728e-07
2.12299600042e-07
1.42345416334e-08
9.17362934382e-08
1.96664132728e-07
1.69722563393e-07
8.89089756733e-08
1.37832474466e-07
1.08318480371e-08
2.51016336616e-08
6.3345886141e-07
4.6252388187e-07
8.84515230764e-07
5.64359297305e-07
1.49111734265e-07
8.99829199281e-08
1.71976645969e-07
1.93111380936e-07
5.96115652132e-07
5.71708344133e-07
4.92219980784e-07
6.29790335397e-07
1.06978539721e-07
6.53974301848e-08
1.86735658298e-07
1.92509492106e-07
1.75796892049e-07
8.0714972718e-09
1.37769074166e-07
8.98905031574e-08
7.72156424594e-07
4.60385526839e-07
4.91793851409e-07
2.85624492734e-07
1.38095841425e-07
1.68462757229e-07
1.66113883005e-07
5.79628208656e-08
7.52092418257e-08
1.3738039396e-07
1.38289601996e-06
6.63466438344e-08
7.9337390484e-08
1.43662947371e-07
7.1939086736e-07
5.72214800618e-07
1.61280975101e-07
5.8479309469e-07
1.96267758645e-07
2.12205679386e-08
1.01971134008e-07
3.95125224061e-07
1.87198502952e-07
2.77529855566e-07
7.21250754067e-07
1.10962844038e-06
2.17851796891e-06
6.21908502929e-08
1.33338349609e-07
2.19101043906e-07
1.68744175895e-08
1.40221676051e-07
3.83516979896e-07
1.66793894278e-06
5.32516037565e-07
2.56298368446e-07
3.10894268951e-08
1.66260447958e-07
1.47064347423e-07
1.09669161661e-06
1.33423669293e-07
4.05507437998e-09
1.40965978472e-07
7.80080531178e-08
6.75845972701e-07
9.96016239455e-07
2.56351825738e-07
9.74611959574e-08
1.43153990406e-07
7.89509022653e-08
5.9109847272e-07
6.76416294071e-07
1.49733265462e-07
4.58937361239e-08
2.36737520971e-07
1.84044767331e-07
4.18756232414e-07
5.67893515811e-07
1.23998564441e-07
1.03360980387e-08
1.98425347156e-07
1.30707519069e-07
2.04013845572e-07
1.19942270005e-08
2.18335624558e-07
1.38803588334e-07
7.51688048318e-07
7.15628537658e-07
1.47929971296e-07
1.08682236894e-09
2.1411965173e-07
3.33852119264e-07
7.52008509064e-07
4.90377283077e-07
6.54495701091e-07
1.89327368776e-08
5.61697829765e-07
1.03277135972e-07
3.57798338917e-07
1.20578977947e-08
2.51779551138e-07
2.9199650967e-07
7.59435530441e-07
2.38305360642e-07
1.68819758783e-08
2.81077661981e-07
3.99171879699e-07
4.47090683472e-07
8.0877626208e-07
3.57064412035e-07
6.46012992423e-09
1.92824574826e-07
1.31609018102e-07
1.34285489732e-07
1.1787190201e-08
1.90820261442e-07
1.11146080482e-07
2.76041305812e-07
2.53583541273e-08
1.08885311337e-07
3.10074898771e-07
2.51562267015e-07
6.1400335862e-07
6.82430886166e-07
2.59343704305e-07
2.19224890501e-07
1.90726167394e-07
5.9435387047e-08
1.37037967348e-07
1.92292770322e-07
5.95515837726e-07
5.74967606326e-07
2.23629549127e-07
2.53295005317e-07
2.65801355998e-07
3.64637503945e-07
1.67324465308e-07
2.02590973215e-07
1.20108838851e-07
5.21479196624e-08
4.95714221797e-07
1.20367722433e-07
2.09692733558e-07
2.36653604249e-07
3.70547245721e-07
3.42990289828e-07
1.90031044207e-07
2.73890167722e-08
6.84332392298e-08
1.02847977951e-07
1.02058464351e-07
6.37320541852e-07
5.09948831039e-07
1.00188133305e-06
1.1904001474e-06
3.74534713838e-07
7.20614737763e-08
1.37059693493e-07
5.04086291953e-07
2.55794466548e-07
2.67487559202e-08
2.6344098609e-07
6.43407475046e-08
2.70116940661e-07
4.74237945358e-07
1.39258165073e-07
5.85490521825e-07
5.00305012372e-07
2.14509678515e-07
8.04643611242e-08
2.36989408894e-07
3.19631301053e-07
1.55023491446e-08
4.78385144263e-07
1.35641635364e-07
3.69973220976e-07
6.48310235572e-08
2.77174789593e-07
1.04371950394e-07
2.28063068227e-07
1.88540915302e-08
1.40211447466e-07
2.3517083999e-07
2.78299927087e-07
2.04423488414e-08
2.74663742568e-07
1.69754352607e-07
3.88041517384e-07
1.55476258627e-07
2.21326983708e-07
2.030571258e-07
1.88240584528e-07
1.98455582295e-08
2.01248584193e-07
4.06097157324e-07
1.24242516818e-07
8.18325051146e-08
1.88055099391e-07
8.48722266305e-08
7.20096405786e-07
5.36497745913e-07
2.8504667506e-07
2.68250552706e-07
2.00418480656e-07
3.71450177796e-07
1.23922356616e-07
9.96120806604e-08
2.14452099766e-07
6.29012045159e-08
3.01504364326e-08
4.68868263866e-07
3.36307277235e-07
4.68287710507e-08
4.54714982882e-07
1.81682492713e-07
9.83375205222e-09
2.66632927311e-07
2.23300920408e-07
2.83097814019e-07
2.5357523553e-07
2.31980129573e-07
1.14703962944e-07
2.39109193232e-07

