# vtk DataFile Version 3.0
File Name: Molecule/sphere_excent/sphere_excent_0-s16.vtk
ASCII
DATASET UNSTRUCTURED_GRID
FIELD FieldData 1
TIME 1 1 double
0.0
POINTS 304 double
2.0 3.23606798 -1.23606798
2.10292445 3.40260323 0.0
3.40260323 2.10292445 0.0
2.0 3.23606798 1.23606798
3.40260323 -2.10292445 0.0
3.45067392 -1.73555426 -1.03956765
3.84775343 -1.09306612 0.0
3.80422607 -0.64983939 -1.05146222
4.0 0.0 0.0
-3.23606798 1.23606798 -2.0
-3.40260323 0.0 -2.10292445
-4.0 0.0 0.0
-3.23606798 -1.23606798 -2.0
1.23606798 -2.0 3.23606798
1.70130162 -2.75276384 2.35114101
2.35114101 -1.70130162 2.75276384
2.75276384 -2.35114101 1.70130162
2.0 -3.23606798 1.23606798
-1.70130162 -2.75276384 2.35114101
-2.35114101 -1.70130162 2.75276384
-2.75276384 -2.35114101 1.70130162
-3.23606798 -1.23606798 2.0
-2.10292445 0.0 -3.40260323
-1.73555426 -1.03956765 -3.45067392
-2.77512191 -0.64248814 -2.80818578
-2.75276384 2.35114101 1.70130162
-2.35114101 1.70130162 2.75276384
-1.70130162 2.75276384 2.35114101
-3.23606798 1.23606798 2.0
-1.23606798 2.0 3.23606798
2.75276384 2.35114101 1.70130162
3.23606798 1.23606798 2.0
1.70130162 2.75276384 2.35114101
2.35114101 1.70130162 2.75276384
1.23606798 2.0 3.23606798
2.77512191 0.64248814 2.80818578
1.73555426 1.03956765 3.45067392
3.80422607 0.64983939 1.05146222
3.80422607 -0.64983939 1.05146222
3.40260323 0.0 2.10292445
3.23606798 -1.23606798 2.0
-2.10292445 0.0 3.40260323
-2.77512191 0.64248814 2.80818578
-2.77512191 -0.64248814 2.80818578
-3.40260323 0.0 2.10292445
3.84775343 1.09306612 0.0
3.5640261 -0.95470772 -1.54474954
3.23606798 -1.23606798 -2.0
3.36071154 -0.62573786 -2.07703396
3.65192997 -0.32929432 -1.59842821
3.40260323 0.0 -2.10292445
3.65192997 0.32929432 -1.59842821
3.85544506 0.0 -1.0656188
3.80422607 0.64983939 -1.05146222
3.23606798 1.23606798 -2.0
-1.23606798 -2.0 3.23606798
-0.95470772 -1.54474954 3.5640261
-1.73555426 -1.03956765 3.45067392
-1.41421356 -0.54018151 3.70245917
-0.64983939 -1.05146222 3.80422607
-1.09306612 0.0 3.84775343
-0.32896986 -0.53228441 3.95075336
0.0 0.0 4.0
0.0 -2.10292445 3.40260323
0.64983939 -1.05146222 3.80422607
0.0 -1.0656188 3.85544506
0.95470772 -1.54474954 3.5640261
0.32896986 -0.53228441 3.95075336
1.41421356 -0.54018151 3.70245917
1.09306612 0.0 3.84775343
1.73555426 -1.03956765 3.45067392
2.10292445 0.0 3.40260323
2.77512191 -0.64248814 -2.80818578
-3.40260323 -2.10292445 0.0
-3.84775343 -1.09306612 0.0
-2.0 -3.23606798 1.23606798
-1.05146222 -3.80422607 0.64983939
-1.03956765 -3.45067392 1.73555426
0.0 -3.84775343 1.09306612
0.0 -3.40260323 2.10292445
-3.80422607 -0.64983939 1.05146222
-3.45067392 -1.73555426 1.03956765
0.0 -4.0 0.0
1.05146222 -3.80422607 0.64983939
1.03956765 -3.45067392 1.73555426
-0.62573786 2.07703396 3.36071154
-0.64248814 2.80818578 2.77512191
0.0 2.82842712 2.82842712
0.0 2.10292445 3.40260323
0.0 3.40260323 2.10292445
0.64248814 2.80818578 2.77512191
0.62573786 2.07703396 3.36071154
-0.95470772 1.54474954 3.5640261
-0.32929432 1.59842821 3.65192997
-0.64983939 1.05146222 3.80422607
0.64983939 1.05146222 3.80422607
-1.41421356 0.54018151 3.70245917
-1.73555426 1.03956765 3.45067392
0.62573786 -2.07703396 3.36071154
0.64248814 -2.80818578 2.77512191
0.0 -2.82842712 2.82842712
-0.64248814 -2.80818578 2.77512191
-0.62573786 -2.07703396 3.36071154
-1.8737194 -3.03174168 1.815962
-1.48699214 -2.40600382 2.82842713
-0.87403205 -3.16227766 2.28824561
-3.84775343 1.09306612 0.0
-3.40260323 2.10292445 0.0
-3.45067392 1.73555426 1.03956765
-3.80422607 0.64983939 1.05146222
2.10292445 0.0 -3.40260323
2.28824561 0.87403205 -3.16227766
2.77512191 0.64248814 -2.80818578
2.82842713 1.48699214 -2.40600382
2.35114101 1.70130162 -2.75276384
1.54474954 3.5640261 -0.95470772
1.05146222 3.80422607 -0.64983939
0.54018151 3.70245917 -1.41421356
0.0 4.0 0.0
0.0 3.40260323 -2.10292445
1.03956765 3.45067392 -1.73555426
2.28824561 -0.87403205 3.16227766
2.77512191 -0.64248814 2.80818578
2.82842713 -1.48699214 2.40600382
0.30471214 -1.58610071 -3.65943097
-0.32896986 -0.53228441 -3.95075336
0.64983939 -1.05146222 -3.80422607
-0.64983939 -1.05146222 -3.80422607
0.0 0.0 -4.0
-0.55180897 0.0 -3.96175553
-0.88046811 -0.5311699 -3.86557039
-1.09306612 0.0 -3.84775343
-1.20503552 -1.056331 -3.6649767
-1.43291518 -0.52662148 -3.6972184
-1.23606798 -2.0 -3.23606798
-0.32896986 0.53228441 -3.95075336
-0.88046811 0.5311699 -3.86557039
-0.64983939 1.05146222 -3.80422607
-1.43291518 0.52662148 -3.6972184
-1.20503552 1.056331 -3.6649767
-1.73555426 1.03956765 -3.45067392
1.73555426 1.03956765 -3.45067392
0.64983939 1.05146222 -3.80422607
-2.80818578 -2.77512191 -0.64248814
-2.80818578 -2.77512191 0.64248814
-2.10292445 -3.40260323 0.0
-2.0 -3.23606798 -1.23606798
2.0 -3.23606798 -1.23606798
2.80818578 -2.77512191 -0.64248814
2.10292445 -3.40260323 0.0
2.80818578 -2.77512191 0.64248814
2.40600382 2.82842713 -1.48699214
2.05350177 2.25701685 -2.58631117
2.58631117 2.05350177 -2.25701685
2.25701685 2.58631117 -2.05350177
1.70130162 2.75276384 -2.35114101
2.75276384 2.35114101 -1.70130162
1.815962 1.8737194 -3.03174168
1.48699214 2.40600382 -2.82842713
1.23606798 2.0 -3.23606798
1.8737194 3.03174168 -1.815962
0.62573786 2.07703396 -3.36071154
0.9483453 2.4273006 -3.0346092
0.32456741 2.48095833 -3.12081748
0.0 2.10292445 -3.40260323
0.64248814 2.80818578 -2.77512191
-0.64248814 2.80818578 -2.77512191
0.32434517 3.13537217 -2.46256808
1.18401837 2.80923939 -2.58964758
0.87403205 3.16227766 -2.28824561
-2.35114101 1.70130162 -2.75276384
-2.75276384 2.35114101 -1.70130162
-1.70130162 2.75276384 -2.35114101
-2.0 3.23606798 -1.23606798
-1.70130162 -2.75276384 -2.35114101
-2.35114101 -1.70130162 -2.75276384
-2.75276384 -2.35114101 -1.70130162
-0.64248814 -2.80818578 -2.77512191
-1.03956765 -3.45067392 -1.73555426
0.0 -3.40260323 -2.10292445
-3.0346092 -0.9483453 -2.4273006
-2.07821484 -1.36908454 -3.13155403
-1.23606798 2.0 -3.23606798
1.43291518 0.52662148 -3.6972184
1.09306612 0.0 -3.84775343
0.88046811 0.5311699 -3.86557039
1.20503552 1.056331 -3.6649767
1.50015427 1.53445493 -3.3756459
0.95470772 1.54474954 -3.5640261
-2.81162812 0.0 -2.84512694
-3.12081748 -0.32456741 -2.48095833
-3.12081748 0.32456741 -2.48095833
-2.77512191 0.64248814 -2.80818578
2.46256808 -0.32434517 -3.13537217
1.93776657 -0.52480151 -3.45971734
2.28500664 -0.85209146 -3.17059692
1.73555426 -1.03956765 -3.45067392
2.58964758 -1.18401837 -2.80923939
2.06448648 -1.38461206 -3.13380679
2.35114101 -1.70130162 -2.75276384
1.50015427 -1.53445493 -3.3756459
1.815962 -1.8737194 -3.03174168
1.23606798 -2.0 -3.23606798
0.9483453 -2.4273006 -3.0346092
0.0 -2.10292445 -3.40260323
-0.30753628 -2.49114186 -3.11442349
0.64248814 -2.80818578 -2.77512191
1.48699214 -2.40600382 -2.82842713
1.18401837 -2.80923939 -2.58964758
1.70130162 -2.75276384 -2.35114101
2.05350177 -2.25701685 -2.58631117
-0.62573786 2.07703396 -3.36071154
0.55180897 0.0 -3.96175553
0.89919817 -0.5386045 -3.8602264
1.43291518 -0.52662148 -3.6972184
1.6134214 0.0 -3.66017368
-0.95470772 1.54474954 -3.5640261
-0.32929432 1.59842821 -3.65192997
-0.47591828 -1.83247993 -3.52356625
0.77782696 -1.81035942 -3.48103203
1.54474954 3.5640261 0.95470772
1.03956765 3.45067392 1.73555426
0.54018151 3.70245917 1.41421356
1.05146222 3.80422607 0.64983939
3.45067392 -1.73555426 1.03956765
3.03174168 -1.815962 1.8737194
3.16227766 -2.28824561 0.87403205
-2.0 3.23606798 1.23606798
-1.8737194 3.03174168 1.815962
-1.03956765 3.45067392 1.73555426
-0.87403205 3.16227766 2.28824561
0.52480151 -3.45971734 -1.93776657
0.0 -3.84775343 -1.09306612
0.5386045 -3.8602264 -0.89919817
1.03956765 -3.45067392 -1.73555426
1.53445493 -3.3756459 -1.50015427
1.05146222 -3.80422607 -0.64983939
1.8737194 -3.03174168 -1.815962
1.38461206 -3.13380679 -2.06448648
0.85209146 -3.17059692 -2.28500664
0.32434517 -3.13537217 -2.46256808
-0.32434517 3.13537217 -2.46256808
-1.36908454 3.13155403 -2.07821484
-1.03956765 3.45067392 -1.73555426
-0.53228441 -3.95075336 0.32896986
-1.05146222 -3.80422607 -0.64983939
-1.58610071 -3.65943097 -0.30471214
-0.53228441 3.95075336 0.32896986
0.0 3.84775343 1.09306612
-0.54018151 3.70245917 1.41421356
-1.05146222 3.80422607 0.64983939
3.86557039 0.88046811 -0.5311699
3.6649767 1.20503552 -1.056331
3.6972184 1.43291518 -0.52662148
3.45067392 1.73555426 -1.03956765
3.5640261 0.95470772 -1.54474954
3.3756459 1.50015427 -1.53445493
3.66017368 1.6134214 0.0
3.45971734 1.93776657 -0.52480151
3.3756459 -1.50015427 -1.53445493
2.75276384 -2.35114101 -1.70130162
2.82401774 -2.57581899 -1.17901667
3.16227766 2.28824561 -0.87403205
3.13380679 2.06448648 -1.38461206
3.03174168 1.815962 -1.8737194
2.26165272 -2.56636486 -2.07333026
2.82842713 -1.48699214 -2.40600382
-1.50015427 1.53445493 -3.3756459
-2.07821484 1.36908454 -3.13155403
-2.28500664 0.85209146 -3.17059692
-2.46256808 0.32434517 -3.13537217
-1.93776657 0.52480151 -3.45971734
-1.815962 1.8737194 -3.03174168
-2.58964758 1.18401837 -2.80923939
1.0656188 3.85544506 0.0
1.59842821 3.65192997 -0.32929432
1.59842821 3.65192997 0.32929432
-1.05146222 3.80422607 -0.64983939
-1.59842821 3.65192997 -0.32929432
-1.0656188 3.85544506 0.0
-1.59842821 3.65192997 0.32929432
-2.10292445 3.40260323 0.0
-1.54474954 3.5640261 -0.95470772
-2.07703396 3.36071154 -0.62573786
-1.54474954 3.5640261 0.95470772
-2.07703396 3.36071154 0.62573786
-0.54018151 3.70245917 -1.41421356
0.0 3.84775343 -1.09306612
-0.53228441 3.95075336 -0.32896986
-2.80818578 2.77512191 0.64248814
-2.82842712 2.82842712 0.0
-2.80818578 2.77512191 -0.64248814
-0.32896986 0.53228441 3.95075336
0.0 1.0656188 3.85544506
0.32896986 0.53228441 3.95075336
1.93776657 0.52480151 3.45971734
1.41421356 0.54018151 3.70245917
1.20503552 1.056331 3.6649767
0.55180897 0.0 3.96175553
0.88046811 0.5311699 3.86557039
1.6134214 0.0 3.66017368
-0.52480151 3.45971734 -1.93776657
-1.056331 3.6649767 -1.20503552
-1.53445493 3.3756459 -1.50015427

CELLS 604 2416
3 0 1 2
3 2 1 3
3 4 5 6
3 5 7 6
3 6 7 8
3 9 10 11
3 11 10 12
3 13 14 15
3 14 16 15
3 14 17 16
3 18 19 20
3 20 19 21
3 22 23 24
3 25 26 27
3 25 28 26
3 27 26 29
3 3 30 2
3 2 30 31
3 3 32 30
3 32 33 30
3 32 34 33
3 30 33 31
3 31 33 35
3 33 36 35
3 33 34 36
3 8 37 38
3 37 39 38
3 37 31 39
3 38 39 40
3 41 42 43
3 42 44 43
3 42 28 44
3 43 44 21
3 8 38 6
3 6 38 40
3 31 37 45
3 45 37 8
3 41 43 19
3 19 43 21
3 28 42 26
3 26 42 41
3 40 39 35
3 35 39 31
3 5 46 7
3 47 48 46
3 48 49 46
3 48 50 49
3 46 49 7
3 50 51 49
3 51 52 49
3 51 53 52
3 49 52 7
3 54 51 50
3 7 52 8
3 52 53 8
3 55 56 57
3 56 58 57
3 56 59 58
3 57 58 41
3 41 58 60
3 58 61 60
3 58 59 61
3 60 61 62
3 59 56 63
3 64 65 63
3 63 65 59
3 63 66 64
3 59 65 61
3 65 67 61
3 65 64 67
3 61 67 62
3 67 68 69
3 67 64 68
3 64 66 68
3 66 70 68
3 66 13 70
3 68 70 71
3 50 48 72
3 72 48 47
3 15 70 13
3 55 57 19
3 19 57 41
3 73 74 12
3 12 74 11
3 75 76 77
3 76 78 77
3 77 78 79
3 21 80 81
3 80 74 81
3 80 11 74
3 81 74 73
3 82 83 78
3 83 84 78
3 83 17 84
3 78 84 79
3 29 85 86
3 85 87 86
3 85 88 87
3 86 87 89
3 89 87 90
3 87 91 90
3 87 88 91
3 90 91 34
3 29 92 85
3 92 93 85
3 92 94 93
3 85 93 88
3 88 93 95
3 34 91 95
3 95 91 88
3 41 96 97
3 96 92 97
3 96 94 92
3 97 92 29
3 13 98 99
3 98 100 99
3 98 63 100
3 99 100 79
3 79 100 101
3 100 102 101
3 100 63 102
3 101 102 55
3 79 84 14
3 14 84 17
3 13 99 14
3 14 99 79
3 21 81 20
3 20 81 73
3 75 103 20
3 103 18 20
3 18 104 19
3 104 55 19
3 55 104 101
3 104 105 101
3 104 18 105
3 101 105 79
3 79 105 77
3 105 103 77
3 105 18 103
3 77 103 75
3 29 86 27
3 41 97 26
3 26 97 29
3 89 90 32
3 32 90 34
3 11 80 44
3 44 80 21
3 94 96 60
3 60 96 41
3 55 102 56
3 56 102 63
3 63 98 66
3 66 98 13
3 11 106 9
3 9 106 107
3 28 108 109
3 108 106 109
3 108 107 106
3 109 106 11
3 110 111 112
3 111 113 112
3 111 114 113
3 112 113 54
3 0 115 1
3 116 117 118
3 119 117 120
3 117 115 120
3 117 116 115
3 120 115 0
3 110 112 50
3 50 112 54
3 71 121 122
3 121 123 122
3 121 15 123
3 122 123 40
3 16 123 15
3 124 125 126
3 124 127 125
3 126 125 128
3 128 125 129
3 125 130 129
3 125 127 130
3 129 130 131
3 127 132 130
3 132 133 130
3 132 23 133
3 130 133 131
3 23 132 134
3 134 132 127
3 131 133 22
3 133 23 22
3 128 129 135
3 129 136 135
3 129 131 136
3 135 136 137
3 131 138 136
3 138 139 136
3 138 140 139
3 136 139 137
3 22 138 131
3 107 108 25
3 25 108 28
3 71 122 35
3 35 122 40
3 28 109 44
3 44 109 11
3 114 111 141
3 141 111 110
3 128 135 142
3 142 135 137
3 15 121 70
3 70 121 71
3 73 143 144
3 143 145 144
3 143 146 145
3 144 145 75
3 12 143 73
3 147 148 149
3 148 150 149
3 148 4 150
3 149 150 17
3 2 151 0
3 114 152 153
3 152 154 153
3 152 155 154
3 153 154 156
3 114 157 152
3 157 158 152
3 157 159 158
3 152 158 155
3 156 154 151
3 154 160 151
3 154 155 160
3 151 160 0
3 4 148 5
3 17 150 16
3 73 144 20
3 20 144 75
3 159 161 162
3 161 163 162
3 161 164 163
3 162 163 165
3 165 163 166
3 166 163 164
3 166 167 165
3 141 157 114
3 159 162 158
3 162 168 158
3 162 165 168
3 158 168 155
3 155 168 169
3 168 167 169
3 168 165 167
3 169 167 119
3 137 161 159
3 75 145 76
3 147 149 83
3 83 149 17
3 114 153 113
3 113 153 156
3 155 169 120
3 120 169 119
3 0 160 120
3 120 160 155
3 170 171 172
3 170 9 171
3 172 171 173
3 171 9 107
3 134 174 175
3 174 176 175
3 174 146 176
3 175 176 12
3 134 177 174
3 177 178 174
3 177 179 178
3 174 178 146
3 180 12 10
3 12 180 175
3 180 181 175
3 180 24 181
3 175 181 134
3 134 181 23
3 23 181 24
3 182 172 166
3 110 183 141
3 184 185 183
3 185 186 183
3 185 142 186
3 183 186 141
3 142 185 128
3 141 186 187
3 186 188 187
3 186 142 188
3 187 188 159
3 159 188 137
3 188 142 137
3 12 176 143
3 143 176 146
3 141 187 157
3 157 187 159
3 24 189 22
3 24 190 189
3 190 191 189
3 190 10 191
3 189 191 192
3 192 191 9
3 191 10 9
3 110 193 194
3 193 195 194
3 193 72 195
3 194 195 196
3 72 197 195
3 197 198 195
3 197 199 198
3 195 198 196
3 47 197 72
3 196 198 200
3 198 201 200
3 198 199 201
3 200 201 202
3 72 193 50
3 50 193 110
3 202 203 204
3 203 205 204
3 203 206 205
3 204 205 134
3 202 207 203
3 207 208 203
3 207 209 208
3 203 208 206
3 199 210 201
3 210 207 201
3 210 209 207
3 201 207 202
3 164 211 166
3 211 182 166
3 128 212 213
3 212 214 213
3 212 184 214
3 213 214 196
3 196 214 194
3 214 215 194
3 214 184 215
3 194 215 110
3 182 211 216
3 211 217 216
3 211 164 217
3 216 217 137
3 196 200 126
3 126 200 202
3 128 213 126
3 126 213 196
3 124 218 127
3 127 218 134
3 134 218 204
3 218 219 204
3 218 124 219
3 204 219 202
3 202 219 126
3 219 124 126
3 182 216 139
3 139 216 137
3 137 217 161
3 161 217 164
3 10 190 180
3 180 190 24
3 134 205 177
3 177 205 206
3 110 215 183
3 183 215 184
3 184 212 185
3 185 212 128
3 1 220 3
3 3 220 221
3 220 222 221
3 220 223 222
3 221 222 89
3 118 222 223
3 40 224 6
3 6 224 4
3 40 225 224
3 225 226 224
3 225 16 226
3 224 226 4
3 227 228 229
3 228 230 229
3 228 27 230
3 229 230 89
3 27 228 25
3 25 228 227
3 3 221 32
3 32 221 89
3 179 231 232
3 231 233 232
3 231 234 233
3 232 233 82
3 234 235 233
3 235 236 233
3 235 147 236
3 233 236 82
3 209 237 238
3 237 235 238
3 237 147 235
3 238 235 234
3 206 239 240
3 239 231 240
3 239 234 231
3 240 231 179
3 241 242 243
3 241 166 242
3 82 244 245
3 244 246 245
3 244 76 246
3 245 246 146
3 76 244 78
3 244 82 78
3 82 236 83
3 83 236 147
3 89 230 86
3 86 230 27
3 16 225 123
3 123 225 40
3 4 226 150
3 150 226 16
3 166 241 167
3 167 241 119
3 146 246 145
3 145 246 76
3 82 245 178
3 178 245 146
3 179 232 178
3 178 232 82
3 206 240 177
3 177 240 179
3 173 242 172
3 172 242 166
3 234 239 208
3 208 239 206
3 209 238 208
3 208 238 234
3 147 237 210
3 210 237 209
3 118 247 248
3 247 249 248
3 247 250 249
3 248 249 89
3 53 251 8
3 8 251 45
3 53 252 251
3 252 253 251
3 252 254 253
3 251 253 45
3 53 255 252
3 255 256 252
3 255 54 256
3 252 256 254
3 45 253 257
3 253 258 257
3 253 254 258
3 257 258 2
3 45 257 31
3 257 2 31
3 47 259 260
3 259 261 260
3 259 5 261
3 260 261 147
3 2 258 262
3 258 263 262
3 258 254 263
3 262 263 156
3 156 263 264
3 263 256 264
3 263 254 256
3 264 256 54
3 147 265 260
3 265 266 260
3 265 199 266
3 260 266 47
3 182 267 268
3 267 269 268
3 267 140 269
3 268 269 192
3 192 269 270
3 269 271 270
3 269 140 271
3 270 271 22
3 5 259 46
3 46 259 47
3 54 255 51
3 51 255 53
3 156 264 113
3 113 264 54
3 22 271 138
3 138 271 140
3 140 267 139
3 139 267 182
3 2 262 151
3 151 262 156
3 147 261 148
3 148 261 5
3 182 272 172
3 272 170 172
3 170 273 9
3 9 273 192
3 192 273 268
3 273 272 268
3 273 170 272
3 268 272 182
3 192 270 189
3 189 270 22
3 47 266 197
3 197 266 199
3 199 265 210
3 210 265 147
3 118 248 222
3 222 248 89
3 89 249 229
3 229 249 250
3 116 274 275
3 274 276 275
3 274 223 276
3 275 276 1
3 223 274 118
3 118 274 116
3 277 278 279
3 278 280 279
3 278 281 280
3 279 280 250
3 277 282 278
3 282 283 278
3 282 173 283
3 278 283 281
3 250 280 284
3 280 285 284
3 280 281 285
3 284 285 227
3 119 286 287
3 286 288 287
3 286 277 288
3 287 288 118
3 227 285 289
3 285 290 289
3 285 281 290
3 289 290 107
3 281 283 290
3 283 291 290
3 283 173 291
3 290 291 107
3 94 292 293
3 292 294 293
3 292 62 294
3 293 294 95
3 227 289 25
3 25 289 107
3 36 295 35
3 35 295 71
3 71 295 296
3 295 297 296
3 295 36 297
3 296 297 95
3 95 297 34
3 297 36 34
3 62 292 60
3 60 292 94
3 62 298 294
3 298 299 294
3 298 69 299
3 294 299 95
3 95 299 296
3 299 300 296
3 299 69 300
3 296 300 71
3 69 298 67
3 67 298 62
3 71 300 68
3 68 300 69
3 94 293 93
3 93 293 95
3 116 275 115
3 115 275 1
3 119 287 117
3 117 287 118
3 107 291 171
3 171 291 173
3 1 276 220
3 220 276 223
3 250 284 229
3 229 284 227
3 119 301 286
3 301 302 286
3 301 243 302
3 286 302 277
3 277 302 282
3 302 303 282
3 302 243 303
3 282 303 173
3 243 301 241
3 241 301 119
3 173 303 242
3 242 303 243
3 277 279 247
3 247 279 250
3 118 288 247
3 247 288 277

CELL_TYPES 604
5
5
5
5
5
5
5
5
5
5
5
5
5
5
5
5
5
5
5
5
5
5
5
5
5
5
5
5
5
5
5
5
5
5
5
5
5
5
5
5
5
5
5
5
5
5
5
5
5
5
5
5
5
5
5
5
5
5
5
5
5
5
5
5
5
5
5
5
5
5
5
5
5
5
5
5
5
5
5
5
5
5
5
5
5
5
5
5
5
5
5
5
5
5
5
5
5
5
5
5
5
5
5
5
5
5
5
5
5
5
5
5
5
5
5
5
5
5
5
5
5
5
5
5
5
5
5
5
5
5
5
5
5
5
5
5
5
5
5
5
5
5
5
5
5
5
5
5
5
5
5
5
5
5
5
5
5
5
5
5
5
5
5
5
5
5
5
5
5
5
5
5
5
5
5
5
5
5
5
5
5
5
5
5
5
5
5
5
5
5
5
5
5
5
5
5
5
5
5
5
5
5
5
5
5
5
5
5
5
5
5
5
5
5
5
5
5
5
5
5
5
5
5
5
5
5
5
5
5
5
5
5
5
5
5
5
5
5
5
5
5
5
5
5
5
5
5
5
5
5
5
5
5
5
5
5
5
5
5
5
5
5
5
5
5
5
5
5
5
5
5
5
5
5
5
5
5
5
5
5
5
5
5
5
5
5
5
5
5
5
5
5
5
5
5
5
5
5
5
5
5
5
5
5
5
5
5
5
5
5
5
5
5
5
5
5
5
5
5
5
5
5
5
5
5
5
5
5
5
5
5
5
5
5
5
5
5
5
5
5
5
5
5
5
5
5
5
5
5
5
5
5
5
5
5
5
5
5
5
5
5
5
5
5
5
5
5
5
5
5
5
5
5
5
5
5
5
5
5
5
5
5
5
5
5
5
5
5
5
5
5
5
5
5
5
5
5
5
5
5
5
5
5
5
5
5
5
5
5
5
5
5
5
5
5
5
5
5
5
5
5
5
5
5
5
5
5
5
5
5
5
5
5
5
5
5
5
5
5
5
5
5
5
5
5
5
5
5
5
5
5
5
5
5
5
5
5
5
5
5
5
5
5
5
5
5
5
5
5
5
5
5
5
5
5
5
5
5
5
5
5
5
5
5
5
5
5
5
5
5
5
5
5
5
5
5
5
5
5
5
5
5
5
5
5
5
5
5
5
5
5
5
5
5
5
5
5
5
5
5
5
5
5
5
5
5
5
5
5
5
5
5
5
5
5
5
5
5
5
5
5
5
5
5
5
5
5
5
5
5
5
5
5
5
5
5
5
5
5
5
5
5
5
5
5
5
5
5
5
5
5
5
5
5
5
5
5
5
5
5
5
5
5
5
5
5
5
5
5
5
5
5
5
5
5
5
5
5
5
5
5
5
5
5

CELL_DATA 604
SCALARS cell_data_0 double
LOOKUP_TABLE default
9.67100282162e-07
4.79118943429e-07
1.45119540464e-07
2.982161644e-07
4.20074017238e-07
6.30324795468e-06
5.77341276331e-06
3.71235521157e-07
4.29317151592e-07
3.82300192892e-07
8.55680973073e-07
5.50536468879e-07
2.3690998264e-06
1.11283535988e-06
1.49356340401e-06
1.06876424142e-06
1.24519746213e-07
1.12011579241e-07
3.40376812715e-07
5.49730604362e-07
1.00627281602e-06
6.37621535897e-07
4.14065798927e-07
6.04764779247e-08
1.14036613471e-06
2.24102769684e-06
2.00330303745e-06
1.35155450446e-06
1.35502765137e-06
4.58760326978e-07
6.37409092316e-07
3.50737938864e-07
5.42317323294e-07
1.06830658958e-06
2.69405815267e-07
1.34436204083e-06
2.14284745221e-06
1.10310146512e-06
7.70230442473e-08
8.75708215506e-07
1.1069395875e-06
3.72510026089e-07
7.0189496022e-07
2.90188132851e-07
4.97729491807e-07
5.37641376912e-07
2.82544122238e-07
3.03525599671e-07
1.81600203088e-07
2.83780177211e-07
4.9596424322e-07
1.83289156529e-07
6.33588809022e-07
5.81117210491e-07
1.16111489351e-06
9.30567619871e-07
1.11548483199e-06
8.67249239897e-07
1.04986800475e-06
9.68813230228e-07
1.08498504192e-06
9.14957250614e-07
1.10416877984e-06
5.71003987316e-07
5.53920539627e-07
4.9656988117e-07
4.60343358004e-07
4.85245486641e-07
6.56112794153e-07
4.79330848347e-07
7.00533570713e-07
1.17265443372e-06
8.02795750473e-07
7.13185497567e-07
1.01253035099e-06
7.69518608478e-07
9.53788688463e-07
9.80264501333e-07
1.05922100266e-06
8.82115324754e-07
1.46372758129e-06
1.90917927766e-06
8.44747816668e-08
1.63560696083e-06
7.15556116385e-07
9.51672880642e-07
9.66174525448e-08
1.00128855316e-06
1.19820862339e-06
2.01377783691e-07
8.51639840894e-07
2.82064346117e-08
9.72279908218e-07
9.76008029872e-07
9.1227230288e-07
9.00283290313e-07
1.03966862102e-06
8.16874904735e-07
8.43570394595e-07
8.44258749043e-07
1.03089347809e-06
7.85889985898e-07
1.03043136312e-06
5.50220536031e-07
6.65894161779e-07
5.28573577744e-07
5.01795837673e-07
6.71647730367e-07
1.05665427481e-06
6.05803157612e-07
1.05246577178e-06
1.09798888434e-06
9.29578741507e-07
9.331489947e-07
8.69713423034e-07
1.06971954681e-06
8.00251834458e-07
8.82743788605e-07
8.88716022639e-07
1.02743399343e-06
7.77510026864e-07
9.04143819904e-07
1.09840556492e-06
3.59338038946e-07
7.88826090074e-07
1.27824879822e-06
6.69537451194e-07
9.81879299151e-07
4.85194389322e-07
5.4912228399e-07
5.55018328316e-07
6.51638011933e-07
7.46198417668e-07
7.40741599265e-07
4.29344681369e-07
7.079154517e-07
2.40577744436e-07
3.64628737626e-07
4.85864509819e-07
2.16584547463e-07
1.32610300185e-06
1.98438423652e-06
1.51767702264e-06
1.24785444236e-06
1.59116684268e-06
5.5679759446e-08
3.76096943614e-07
7.90693448839e-07
9.89169400841e-07
5.43423187899e-07
5.00230520071e-07
4.59568950057e-07
4.71165483818e-07
2.58472020819e-06
9.6764800284e-07
1.15165963774e-06
6.02333605742e-07
4.24145836204e-07
3.51197019597e-07
5.82859182394e-07
5.54471724784e-07
7.60155057715e-07
7.65598356525e-07
3.46132224769e-07
5.66400870461e-08
1.72094296277e-07
1.2824935638e-07
1.86075582754e-07
2.73599484185e-07
5.62785088894e-07
1.20672846332e-06
9.03377541485e-07
9.23335154549e-07
6.46210902147e-07
5.86697357529e-07
6.67331728967e-07
1.35546073453e-07
3.43506817033e-07
5.80007058912e-07
2.7079349745e-07
7.58536739225e-08
1.72694431933e-07
1.54390003944e-07
1.42849057202e-07
2.32430834797e-08
1.72912401092e-07
1.33373298242e-07
7.56134373359e-07
6.7580369876e-07
4.35369582918e-07
5.48247310624e-07
2.40635530797e-07
6.90913020538e-08
1.7187972541e-07
2.60427516665e-07
1.70135955433e-07
7.42324568976e-08
1.88540748088e-07
2.8341882145e-07
4.71401658764e-07
8.0304661125e-07
1.12826392619e-06
1.1892404934e-06
8.27224566621e-07
9.33660692024e-07
3.56762502295e-07
1.24273488981e-06
8.30487682201e-07
1.10379682974e-06
1.18904458744e-06
7.29850035512e-07
9.81897830299e-07
6.92261845363e-07
8.59902391972e-07
2.54937225232e-07
6.77266895386e-07
1.37550731065e-08
5.08500230771e-07
6.27279223576e-07
2.61907807298e-07
3.90046527376e-07
3.40327054585e-07
2.84427137333e-07
3.91968100186e-09
2.07051803444e-07
2.32291709261e-07
3.17889398048e-07
6.59754125838e-08
2.92337979706e-07
2.41935224343e-07
1.86094474829e-07
6.06922460635e-08
1.62243270601e-07
1.82443203111e-07
1.07902195176e-07
7.06978560873e-07
8.14255205493e-07
5.53081000636e-07
1.94174588257e-07
9.91282096246e-09
2.54022864266e-07
1.25637143982e-07
9.36929547189e-07
1.24307871423e-06
8.475958291e-07
1.06547136461e-06
1.8773178669e-07
1.60129108115e-08
1.08623956596e-07
1.72503075209e-07
1.09314742397e-07
8.89871944841e-08
7.5794889343e-08
3.33098184792e-08
8.9026326541e-07
1.81373714199e-08
1.63882562929e-07
7.62411999822e-07
3.58203522992e-07
3.03337168133e-07
2.90260289779e-07
1.36743168671e-07
3.00141962278e-07
3.02430475547e-07
4.51749281438e-07
6.89128908912e-07
1.68879013851e-07
6.58914290607e-07
6.71513518457e-07
3.56181366661e-07
3.15325403342e-08
5.78583638085e-07
5.17500185859e-07
2.98006943263e-07
2.09277071418e-07
7.86956908619e-08
9.88858874078e-07
3.03854976172e-07
8.48550491692e-08
4.45970675028e-07
3.70238383979e-07
7.58549492787e-07
9.18389969185e-07
2.41656041242e-06
5.89375150695e-07
2.84067052645e-07
4.28002659599e-08
2.86296567447e-07
2.71894948658e-07
9.4125387025e-07
2.3901966448e-07
2.21621664824e-08
2.76883436411e-07
1.94249973801e-07
9.08657284792e-07
1.17725153713e-06
1.88037300625e-07
6.65125489725e-08
2.71797072138e-07
2.23873129007e-07
7.85198531484e-07
2.71883933178e-07
3.64484762146e-08
2.61293265937e-07
2.40545071046e-07
1.03602679555e-06
1.10726229273e-06
8.47698788235e-08
1.71081525266e-08
2.87639772272e-07
3.31488320901e-07
3.00847509507e-07
1.70424388435e-08
3.2220749851e-07
3.44228756091e-07
6.21906350855e-07
3.64510349551e-07
2.42282228768e-08
2.95581283592e-07
2.85521758587e-07
5.48149768255e-07
4.06005123483e-08
3.97982385682e-07
1.10826156027e-07
1.87196706192e-07
3.2947050373e-07
2.0832703527e-07
6.4640079776e-08
1.66812553336e-07
9.86416619227e-08
2.79827290861e-07
6.65100604478e-08
1.95481080408e-07
2.60810438379e-07
1.23763390139e-06
1.31960686818e-06
3.43286554597e-07
3.23288062541e-07
4.50990900483e-07
7.38303964018e-07
5.65123034631e-07
3.86378828703e-07
6.9754193968e-07
2.51167221394e-07
5.3367656866e-07
3.37183989025e-07
5.18295442685e-07
6.9436994052e-07
7.35178170352e-07
6.27858268628e-07
7.35407939329e-07
1.03295310722e-06
7.01114300267e-07
1.31111509181e-06
4.61966603073e-07
3.34335448885e-07
3.44840121259e-07
4.85163393442e-07
5.59424649784e-07
2.1063067936e-07
4.76322678155e-07
4.04184026387e-07
4.88385860592e-07
5.47703449623e-07
2.31407618575e-07
2.47092140674e-07
3.16169392533e-07
2.00904536982e-07
2.46914982495e-07
4.65891408376e-07
2.64936076862e-07
2.03296889482e-07
8.78489977699e-08
5.36191558769e-08
7.791176856e-08
1.02981079424e-07
9.67375779203e-08
1.68771563482e-08
5.70192344879e-07
3.19487915598e-07
2.59288307317e-07
4.68184358308e-07
5.62845599353e-07
2.26621680676e-07
1.98108469449e-08
4.04290594668e-07
5.02955095292e-07
3.19494693441e-07
5.34633892031e-07
2.32496197278e-07
6.50189080877e-08
4.29004992598e-07
1.65211226836e-07
1.45911277623e-07
2.36477234223e-07
4.01144378133e-08
1.7808312138e-07
2.28455675579e-07
2.95286896417e-07
2.2610075472e-08
2.44086841024e-07
2.1984403106e-08
2.18429025633e-07
1.78947934753e-07
3.12932802404e-07
1.25137675558e-07
2.71508618457e-07
1.95847613324e-07
2.25642328915e-07
9.29765444069e-07
4.93225261786e-07
3.37000193817e-07
4.33541198272e-07
5.06110628094e-07
4.17925234853e-07
3.58467626086e-07
4.84513549435e-07
1.17838434397e-07
7.11682715093e-07
6.84037300828e-07
4.17740429327e-07
2.65611545791e-07
2.12872731789e-07
5.17407464212e-07
3.38911900685e-07
1.40319489061e-07
8.34642512154e-08
1.52189941585e-07
3.33456170309e-07
4.6827759266e-07
2.03907305237e-07
1.08147679955e-07
3.4267172587e-07
3.13623607652e-07
3.34164439752e-07
7.38502076941e-07
2.33708527988e-07
2.10090854552e-07
2.19463212569e-07
1.61046675905e-07
1.90101325354e-07
2.16567246719e-07
1.98594954239e-08
3.50496612178e-07
3.56717822349e-07
4.22736108758e-07
7.37721879339e-07
7.07205290765e-07
1.76803627065e-07
6.10855006212e-08
1.63598037986e-07
1.39660334605e-07
2.48097428666e-07
4.73675233317e-08
2.66014132121e-07
1.99685435733e-07
1.14309052997e-07
9.55011820371e-08
1.43786141741e-07
3.68002906454e-08
3.05371267013e-07
3.48705929235e-07
6.93390142209e-08
5.3859011125e-09
5.90499705979e-08
4.90088200242e-07
3.41866956485e-08
7.11307588144e-08
1.55839403594e-07
1.36899951315e-07
1.6219756311e-07
1.53428040377e-08
2.01779530965e-07
1.84547003998e-07
5.00958125502e-07
1.05962360534e-07
4.85426949962e-07
2.36980377827e-08
2.76394931405e-07
1.83377135242e-08
1.08512408523e-07
2.27887781404e-07
2.42247886255e-07
6.22217092925e-09
1.18175010578e-07
1.08646595403e-07
1.65393193741e-07
2.28429984322e-07
4.22507115902e-07
4.39470353493e-07
2.71034912417e-07
2.93712430331e-07
1.302628203e-07
1.56190748427e-07
1.60304274674e-07
3.09287976567e-07
1.75925846539e-07
2.58665767537e-07
4.16060930982e-07
1.13154689274e-07
8.02785150277e-07
3.5082097956e-08
5.12012689931e-07
1.26447919279e-06
3.23922595373e-07
1.27640584297e-07
1.09347982811e-07
3.85381775975e-07
2.4901372043e-07
9.65354487417e-08
1.54614443351e-08
2.81455308907e-07
2.57840265055e-07
1.67822661414e-07
5.29277330061e-08
2.64524239265e-07
2.59160626036e-07
2.80378130784e-07
3.2811840652e-08
3.28160961533e-08
1.08431682365e-07
3.52714496882e-09
3.5730142575e-08
1.60853591025e-07
1.59798759274e-08
1.01580479606e-08
6.53586452547e-08
1.03911227971e-07
3.20739252537e-08
6.39371056072e-09
1.50666974774e-07
4.4660348751e-08
1.0500987275e-07
8.22550148362e-09
6.61495688617e-08
1.36308146933e-07
2.02838960698e-07
1.83268905757e-08
8.3770226489e-08
2.04206071806e-07
1.9785935869e-07
8.68165411552e-09
1.27160586657e-07
6.22412126786e-08
1.23901100008e-07
1.95051724027e-08
2.36917846621e-07
6.75905513196e-08
4.25171783482e-08
1.54556910376e-08
3.21865922283e-07
3.03124462794e-08
7.38216206657e-08
5.38116596831e-07
9.53691516722e-08
2.61562505647e-07
1.5193087608e-07
7.02775608301e-09
5.15455936438e-08
2.88271255037e-08
5.12274057819e-07
6.02315615977e-07
7.9282584816e-07
2.94071645342e-07
2.71525647516e-07
1.17234541129e-08
2.69612316371e-07
3.24587508556e-08
2.43810081349e-08
6.36123886303e-09
2.81327058215e-07
1.55255853032e-07
4.60831991509e-07
4.47433539957e-07
3.05745958832e-07
4.00529623821e-07
3.13140884166e-07
3.3359570449e-07
8.51590136028e-08
4.80970285726e-08
1.49881202175e-07
1.16101155696e-07
3.70284003244e-07
2.85086975941e-07
6.00444958175e-09
9.18557791518e-08
1.51626156559e-07
2.3282603094e-07
1.08240482458e-07
5.24294122602e-09
1.56557425098e-08
3.20566412045e-08
3.34932519597e-08
1.08399270551e-08
1.15098837002e-08
1.18354190812e-07
4.16638227593e-08
1.72139059105e-07
1.99241864259e-07
6.70120109921e-08
7.68355864328e-08
1.13962366706e-07
9.9682701282e-08
8.5117211988e-08

