# vtk DataFile Version 3.0
File Name: Molecule/sphere_excent/sphere_excent_0-s18.vtk
ASCII
DATASET UNSTRUCTURED_GRID
FIELD FieldData 1
TIME 1 1 double
0.0
POINTS 369 double
2.0 3.23606798 -1.23606798
2.10292445 3.40260323 0.0
3.40260323 2.10292445 0.0
2.0 3.23606798 1.23606798
1.70130162 -2.75276384 2.35114101
2.75276384 -2.35114101 1.70130162
2.35114101 -1.70130162 2.75276384
2.0 -3.23606798 1.23606798
-1.70130162 -2.75276384 2.35114101
-2.35114101 -1.70130162 2.75276384
-2.75276384 -2.35114101 1.70130162
-3.23606798 -1.23606798 2.0
-2.75276384 2.35114101 1.70130162
-2.35114101 1.70130162 2.75276384
-1.70130162 2.75276384 2.35114101
-3.23606798 1.23606798 2.0
-1.23606798 2.0 3.23606798
2.75276384 2.35114101 1.70130162
3.23606798 1.23606798 2.0
2.35114101 1.70130162 2.75276384
2.77512191 0.64248814 2.80818578
1.73555426 1.03956765 3.45067392
1.23606798 2.0 3.23606798
-2.10292445 0.0 3.40260323
-2.77512191 0.64248814 2.80818578
-2.77512191 -0.64248814 2.80818578
-3.40260323 0.0 2.10292445
3.23606798 -1.23606798 2.0
3.40260323 0.0 2.10292445
3.23606798 -1.23606798 -2.0
3.36071154 -0.62573786 -2.07703396
3.5640261 -0.95470772 -1.54474954
3.65192997 -0.32929432 -1.59842821
3.40260323 0.0 -2.10292445
3.80422607 -0.64983939 -1.05146222
3.65192997 0.32929432 -1.59842821
3.85544506 0.0 -1.0656188
3.80422607 0.64983939 -1.05146222
4.0 0.0 0.0
-1.23606798 -2.0 3.23606798
-0.95470772 -1.54474954 3.5640261
-1.73555426 -1.03956765 3.45067392
-1.41421356 -0.54018151 3.70245917
-0.64983939 -1.05146222 3.80422607
-1.09306612 0.0 3.84775343
-0.32896986 -0.53228441 3.95075336
0.0 0.0 4.0
0.0 -2.10292445 3.40260323
0.64983939 -1.05146222 3.80422607
0.0 -1.0656188 3.85544506
0.95470772 -1.54474954 3.5640261
0.32896986 -0.53228441 3.95075336
1.41421356 -0.54018151 3.70245917
1.09306612 0.0 3.84775343
1.73555426 -1.03956765 3.45067392
2.10292445 0.0 3.40260323
2.77512191 -0.64248814 -2.80818578
-3.80422607 -0.64983939 1.05146222
-3.45067392 -1.73555426 1.03956765
-3.84775343 -1.09306612 0.0
-4.0 0.0 0.0
-3.40260323 -2.10292445 0.0
-0.62573786 2.07703396 3.36071154
-0.64248814 2.80818578 2.77512191
0.0 2.82842712 2.82842712
0.0 2.10292445 3.40260323
0.0 3.40260323 2.10292445
0.64248814 2.80818578 2.77512191
0.62573786 2.07703396 3.36071154
-0.95470772 1.54474954 3.5640261
-0.32929432 1.59842821 3.65192997
-0.64983939 1.05146222 3.80422607
0.64983939 1.05146222 3.80422607
-1.41421356 0.54018151 3.70245917
-1.73555426 1.03956765 3.45067392
1.23606798 -2.0 3.23606798
0.62573786 -2.07703396 3.36071154
0.64248814 -2.80818578 2.77512191
0.0 -2.82842712 2.82842712
0.0 -3.40260323 2.10292445
-0.64248814 -2.80818578 2.77512191
-0.62573786 -2.07703396 3.36071154
1.03956765 -3.45067392 1.73555426
-2.0 -3.23606798 1.23606798
-1.8737194 -3.03174168 1.815962
-1.48699214 -2.40600382 2.82842713
-0.87403205 -3.16227766 2.28824561
-1.03956765 -3.45067392 1.73555426
1.70130162 2.75276384 2.35114101
-3.45067392 1.73555426 1.03956765
-3.80422607 0.64983939 1.05146222
-3.84775343 1.09306612 0.0
-3.40260323 2.10292445 0.0
2.10292445 0.0 -3.40260323
2.28824561 0.87403205 -3.16227766
2.77512191 0.64248814 -2.80818578
2.82842713 1.48699214 -2.40600382
2.35114101 1.70130162 -2.75276384
1.54474954 3.5640261 -0.95470772
1.05146222 3.80422607 -0.64983939
0.54018151 3.70245917 -1.41421356
0.0 4.0 0.0
0.0 3.40260323 -2.10292445
1.03956765 3.45067392 -1.73555426
2.28824561 -0.87403205 3.16227766
2.77512191 -0.64248814 2.80818578
2.82842713 -1.48699214 2.40600382
0.30471214 -1.58610071 -3.65943097
-0.32896986 -0.53228441 -3.95075336
0.64983939 -1.05146222 -3.80422607
-0.64983939 -1.05146222 -3.80422607
0.0 0.0 -4.0
-0.55180897 0.0 -3.96175553
-0.88046811 -0.5311699 -3.86557039
-1.09306612 0.0 -3.84775343
-1.20503552 -1.056331 -3.6649767
-1.43291518 -0.52662148 -3.6972184
-1.73555426 -1.03956765 -3.45067392
-1.23606798 -2.0 -3.23606798
-2.10292445 0.0 -3.40260323
-0.32896986 0.53228441 -3.95075336
-0.88046811 0.5311699 -3.86557039
-0.64983939 1.05146222 -3.80422607
-1.43291518 0.52662148 -3.6972184
-1.20503552 1.056331 -3.6649767
-1.73555426 1.03956765 -3.45067392
1.73555426 1.03956765 -3.45067392
0.64983939 1.05146222 -3.80422607
-2.80818578 -2.77512191 -0.64248814
-2.10292445 -3.40260323 0.0
-2.80818578 -2.77512191 0.64248814
-2.0 -3.23606798 -1.23606798
2.0 -3.23606798 -1.23606798
2.80818578 -2.77512191 -0.64248814
2.10292445 -3.40260323 0.0
2.80818578 -2.77512191 0.64248814
3.40260323 -2.10292445 0.0
2.40600382 2.82842713 -1.48699214
2.05350177 2.25701685 -2.58631117
2.58631117 2.05350177 -2.25701685
2.25701685 2.58631117 -2.05350177
1.70130162 2.75276384 -2.35114101
2.75276384 2.35114101 -1.70130162
1.815962 1.8737194 -3.03174168
1.48699214 2.40600382 -2.82842713
1.23606798 2.0 -3.23606798
1.8737194 3.03174168 -1.815962
0.62573786 2.07703396 -3.36071154
0.9483453 2.4273006 -3.0346092
0.32456741 2.48095833 -3.12081748
0.0 2.10292445 -3.40260323
0.64248814 2.80818578 -2.77512191
-0.64248814 2.80818578 -2.77512191
0.32434517 3.13537217 -2.46256808
1.18401837 2.80923939 -2.58964758
0.87403205 3.16227766 -2.28824561
-1.05146222 -3.80422607 0.64983939
1.05146222 -3.80422607 0.64983939
-2.35114101 1.70130162 -2.75276384
-2.75276384 2.35114101 -1.70130162
-1.70130162 2.75276384 -2.35114101
-3.23606798 1.23606798 -2.0
-1.70130162 -2.75276384 -2.35114101
-2.35114101 -1.70130162 -2.75276384
-2.75276384 -2.35114101 -1.70130162
-3.23606798 -1.23606798 -2.0
-0.64248814 -2.80818578 -2.77512191
-1.03956765 -3.45067392 -1.73555426
0.0 -3.40260323 -2.10292445
-3.0346092 -0.9483453 -2.4273006
-2.07821484 -1.36908454 -3.13155403
-2.77512191 -0.64248814 -2.80818578
1.43291518 0.52662148 -3.6972184
1.09306612 0.0 -3.84775343
0.88046811 0.5311699 -3.86557039
1.20503552 1.056331 -3.6649767
1.50015427 1.53445493 -3.3756459
0.95470772 1.54474954 -3.5640261
-3.12081748 -0.32456741 -2.48095833
-2.81162812 0.0 -2.84512694
-3.12081748 0.32456741 -2.48095833
-3.40260323 0.0 -2.10292445
-2.77512191 0.64248814 -2.80818578
2.46256808 -0.32434517 -3.13537217
1.93776657 -0.52480151 -3.45971734
2.28500664 -0.85209146 -3.17059692
1.73555426 -1.03956765 -3.45067392
2.58964758 -1.18401837 -2.80923939
2.06448648 -1.38461206 -3.13380679
2.35114101 -1.70130162 -2.75276384
1.50015427 -1.53445493 -3.3756459
1.815962 -1.8737194 -3.03174168
1.23606798 -2.0 -3.23606798
0.9483453 -2.4273006 -3.0346092
0.0 -2.10292445 -3.40260323
-0.30753628 -2.49114186 -3.11442349
0.64248814 -2.80818578 -2.77512191
1.48699214 -2.40600382 -2.82842713
1.18401837 -2.80923939 -2.58964758
1.70130162 -2.75276384 -2.35114101
2.05350177 -2.25701685 -2.58631117
-0.62573786 2.07703396 -3.36071154
0.55180897 0.0 -3.96175553
0.89919817 -0.5386045 -3.8602264
1.43291518 -0.52662148 -3.6972184
1.6134214 0.0 -3.66017368
-1.23606798 2.0 -3.23606798
-0.95470772 1.54474954 -3.5640261
-0.32929432 1.59842821 -3.65192997
-0.47591828 -1.83247993 -3.52356625
0.77782696 -1.81035942 -3.48103203
1.54474954 3.5640261 0.95470772
1.03956765 3.45067392 1.73555426
0.54018151 3.70245917 1.41421356
1.05146222 3.80422607 0.64983939
3.03174168 -1.815962 1.8737194
3.45067392 -1.73555426 1.03956765
3.16227766 -2.28824561 0.87403205
-2.0 3.23606798 1.23606798
-1.8737194 3.03174168 1.815962
-1.03956765 3.45067392 1.73555426
-0.87403205 3.16227766 2.28824561
0.52480151 -3.45971734 -1.93776657
0.0 -3.84775343 -1.09306612
0.5386045 -3.8602264 -0.89919817
1.03956765 -3.45067392 -1.73555426
0.0 -4.0 0.0
1.53445493 -3.3756459 -1.50015427
1.05146222 -3.80422607 -0.64983939
1.8737194 -3.03174168 -1.815962
1.38461206 -3.13380679 -2.06448648
0.85209146 -3.17059692 -2.28500664
0.32434517 -3.13537217 -2.46256808
-0.32434517 3.13537217 -2.46256808
-1.36908454 3.13155403 -2.07821484
-1.03956765 3.45067392 -1.73555426
-0.53228441 -3.95075336 0.32896986
-1.05146222 -3.80422607 -0.64983939
-1.58610071 -3.65943097 -0.30471214
0.0 -3.84775343 1.09306612
-2.0 3.23606798 -1.23606798
-0.53228441 3.95075336 0.32896986
0.0 3.84775343 1.09306612
-0.54018151 3.70245917 1.41421356
-1.05146222 3.80422607 0.64983939
3.86557039 0.88046811 -0.5311699
3.6649767 1.20503552 -1.056331
3.6972184 1.43291518 -0.52662148
3.45067392 1.73555426 -1.03956765
3.84775343 1.09306612 0.0
3.5640261 0.95470772 -1.54474954
3.3756459 1.50015427 -1.53445493
3.23606798 1.23606798 -2.0
3.66017368 1.6134214 0.0
3.45971734 1.93776657 -0.52480151
3.3756459 -1.50015427 -1.53445493
2.75276384 -2.35114101 -1.70130162
2.82401774 -2.57581899 -1.17901667
3.45067392 -1.73555426 -1.03956765
3.16227766 2.28824561 -0.87403205
3.13380679 2.06448648 -1.38461206
3.03174168 1.815962 -1.8737194
2.26165272 -2.56636486 -2.07333026
2.82842713 -1.48699214 -2.40600382
-1.50015427 1.53445493 -3.3756459
-2.07821484 1.36908454 -3.13155403
-2.28500664 0.85209146 -3.17059692
-2.46256808 0.32434517 -3.13537217
-1.93776657 0.52480151 -3.45971734
-1.815962 1.8737194 -3.03174168
-2.58964758 1.18401837 -2.80923939
1.0656188 3.85544506 0.0
1.59842821 3.65192997 -0.32929432
1.59842821 3.65192997 0.32929432
-1.05146222 3.80422607 -0.64983939
-1.59842821 3.65192997 -0.32929432
-1.0656188 3.85544506 0.0
-1.59842821 3.65192997 0.32929432
-2.10292445 3.40260323 0.0
-1.54474954 3.5640261 -0.95470772
-2.07703396 3.36071154 -0.62573786
-1.54474954 3.5640261 0.95470772
-2.07703396 3.36071154 0.62573786
-0.54018151 3.70245917 -1.41421356
0.0 3.84775343 -1.09306612
-0.53228441 3.95075336 -0.32896986
-2.80818578 2.77512191 0.64248814
-2.82842712 2.82842712 0.0
-2.80818578 2.77512191 -0.64248814
-0.32896986 0.53228441 3.95075336
0.0 1.0656188 3.85544506
0.32896986 0.53228441 3.95075336
1.93776657 0.52480151 3.45971734
1.41421356 0.54018151 3.70245917
1.20503552 1.056331 3.6649767
0.55180897 0.0 3.96175553
0.88046811 0.5311699 3.86557039
1.6134214 0.0 3.66017368
-0.52480151 3.45971734 -1.93776657
-1.056331 3.6649767 -1.20503552
-1.53445493 3.3756459 -1.50015427
-3.36071154 0.62573786 -2.07703396
-3.80422607 0.64983939 -1.05146222
-3.84775343 0.0 -1.09306612
-3.80422607 -0.64983939 -1.05146222
-3.36071154 -0.62573786 -2.07703396
-1.93776657 -0.52480151 -3.45971734
[...]
CELL_DATA 734
SCALARS cell_data_0 double
LOOKUP_TABLE default
3.2975272432e-06
2.3500147861e-06
1.39167992369e-06
1.30892659762e-06
4.40311079529e-07
7.68782914574e-07
2.45224870642e-07
9.29533556761e-08
1.26849208729e-07
7.79167780983e-07
6.98351193952e-07
6.41501823248e-07
6.24167268336e-07
5.49972176697e-07
1.73376350422e-06
1.77323056189e-06
9.72564127094e-07
9.56553844695e-07
5.65700419409e-07
8.33130187794e-07
9.85848048763e-07
1.15646782797e-06
8.09849984006e-07
7.9486920041e-07
8.62522459934e-07
8.381684252e-07
4.48001653771e-07
2.33234944401e-08
9.77588920277e-08
4.09222422554e-07
6.31730773032e-07
9.48287370858e-07
1.16752877688e-06
1.10310256849e-06
1.0711238988e-06
1.23662095122e-06
1.13662064065e-06
1.10044924497e-06
1.0367019432e-06
9.02358705556e-07
1.10718568214e-06
8.20467864333e-07
6.73915238331e-07
7.24757502408e-07
6.04191225358e-07
6.30011954676e-07
1.24297528642e-06
1.02912649834e-06
9.91148966139e-07
1.18718782123e-06
9.95979891835e-07
1.71673934175e-06
1.44410468335e-06
7.79296112747e-07
1.26529375485e-06
9.93343281166e-07
6.3598535962e-07
5.21213960781e-07
7.15192005205e-07
6.89868096121e-07
5.36503865999e-07
5.83104990844e-07
7.88697215823e-07
7.0360036631e-07
6.138938333e-07
3.58836615498e-07
5.26409194311e-07
5.1922294821e-07
4.50616607556e-07
1.07140027406e-06
8.24518745511e-07
1.04638387429e-06
9.0455251973e-07
8.90609509774e-07
6.30800740519e-07
7.77297188607e-07
9.43315232615e-07
7.06887384269e-07
8.30963739564e-07
8.27687836158e-07
9.66655693846e-07
7.51767214778e-07
7.70665580178e-07
2.67833616245e-07
7.273401286e-07
1.12651022094e-06
4.46905396148e-08
7.38539909212e-08
2.33530358366e-07
6.09423920266e-08
4.50875752761e-07
5.62908139261e-07
7.28851816631e-07
8.91623098381e-07
6.3466538392e-07
8.05713513506e-07
7.99327661228e-07
5.02700527563e-07
6.00865417874e-07
2.71915169585e-07
1.19214802742e-06
7.77988761204e-07
1.52894655742e-06
8.96628259244e-07
1.04925374944e-06
9.40471839499e-07
5.16233353283e-07
5.31928829098e-07
4.94159131184e-07
5.06021302793e-07
6.40697192676e-07
1.14255845932e-06
2.66394307548e-07
2.40727941218e-07
9.65148776959e-08
4.76451679963e-07
7.23922963695e-07
1.17411789311e-06
8.19245855773e-08
2.00050119989e-07
2.82519804105e-07
9.94951529607e-08
6.59878666078e-07
6.97367357573e-07
4.44109073709e-07
2.56033360324e-07
3.01685451108e-07
2.12898677678e-07
9.1203721926e-07
2.30969152587e-07
1.41344984534e-07
1.58508188361e-07
4.59779487982e-07
4.21546469349e-07
4.40854181283e-07
1.19184502898e-07
3.54694654842e-07
4.16144349711e-07
6.6364352095e-07
1.23729291794e-06
1.44482391814e-07
1.64322274203e-07
4.25363719159e-07
3.71204088904e-07
4.13016536832e-07
1.4367587092e-07
3.41251503669e-07
3.79513713387e-07
1.22501844957e-06
3.83151131494e-08
1.580720978e-07
6.17347989744e-07
6.43515587252e-07
8.98738937234e-07
1.51211372536e-06
7.08974577439e-07
3.98148112155e-07
4.87559591751e-07
1.01959090697e-06
9.13947991446e-07
8.60276376277e-07
5.10143398267e-07
8.57157180201e-07
8.49587053901e-08
1.04321004721e-06
4.66886847154e-07
7.3478091369e-07
3.88722806009e-07
2.60527638377e-07
1.04639589075e-07
2.62529772157e-07
2.09147305953e-07
3.16352181665e-07
2.86319085123e-08
3.27313847936e-07
2.90896805702e-07
1.76260508329e-07
1.15521138363e-07
2.65690272479e-07
7.49979272577e-08
6.55109537946e-08
8.78424061202e-08
3.059067784e-07
3.37050066769e-07
3.7073097595e-08
7.11535733068e-08
3.38778901184e-08
1.26019974871e-08
2.72632711979e-08
4.42157652558e-08
7.14193487503e-07
2.71383973272e-07
1.60739259448e-08
1.24199500209e-08
2.63717668375e-07
2.34770248959e-07
6.72744834168e-08
1.98387106466e-08
4.72626227647e-08
1.29709410965e-06
1.2001637499e-06
4.1199834613e-07
8.7786322883e-07
2.59591285322e-07
1.90063424194e-07
4.35830484035e-07
8.34828206481e-08
1.34721481276e-07
4.35868050624e-07
3.86104582541e-07
1.59493980716e-07
9.59330577e-08
4.02717910018e-07
3.17163163638e-07
2.96840764221e-07
6.04352163371e-08
3.42365736418e-07
2.09567346347e-07
2.62475934032e-07
5.94874909342e-08
5.40064274778e-08
4.68188374522e-07
5.05545776588e-08
6.16610693475e-07
4.10921175862e-07
1.24495077434e-07
6.17951829656e-08
1.81463185244e-07
9.72905637675e-08
3.32176126277e-07
1.0288408805e-07
5.03653199937e-08
1.57895207473e-07
3.21531684141e-07
1.20376679634e-06
8.23961279877e-07
3.23152718867e-07
8.10703232676e-08
3.08723310171e-07
2.01610472889e-07
7.95068325524e-08
1.38487237835e-07
1.32276269412e-07
3.37972306495e-07
1.39687799744e-07
2.47821938291e-08
2.06761163124e-07
2.0577522925e-07
1.99831403502e-07
4.60134812252e-08
2.1911492286e-07
1.99805751826e-07
7.44627600903e-07
2.07634685197e-07
8.79665509973e-08
3.80686428922e-07
1.34883997989e-07
1.00578641733e-06
7.1515188172e-07
7.21912389171e-07
1.00531447587e-06
9.2105588092e-07
6.5792058594e-07
3.69344478899e-07
4.92599421354e-07
3.7304677299e-07
4.99035320481e-07
6.41342341172e-07
4.73106557496e-07
4.15726016381e-07
3.55717751049e-07
3.17994769547e-07
4.4820188963e-07
6.78881601371e-07
5.10356344317e-07
7.43370508978e-07
4.68633934655e-07
2.40472865467e-07
3.41078868032e-07
1.92517160491e-07
3.44797362286e-07
3.59877957682e-07
3.09142899083e-07
4.66279928192e-07
4.51797473129e-07
5.8946034473e-08
4.79162678792e-07
9.54920504306e-07
4.2303836533e-07
2.07501620934e-07
3.92277419463e-07
1.92494628881e-07
2.05875301882e-07
1.7692484379e-07
3.79167933754e-07
4.11512593809e-07
1.61540616902e-07
1.32815063555e-07
2.16324317431e-07
2.73337345505e-07
5.13420680618e-07
1.98868848718e-07
1.32656839085e-07
3.08358589434e-07
2.43322862647e-07
3.68508490908e-07
2.4955511692e-07
4.83429717098e-07
9.86574922184e-08
4.67911402607e-07
4.62758300383e-07
4.55087178399e-07
6.1000727921e-07
2.32531886492e-07
2.36345115439e-07
3.5541487269e-07
6.20550801902e-07
3.05813379159e-07
5.34768888438e-07
2.0070250257e-07
1.43533678223e-07
3.86496869311e-07
9.49173713421e-07
3.97225991781e-07
2.82758351604e-07
4.44513481159e-07
5.76015706507e-07
3.51665482523e-07
2.27308748677e-07
5.34642580217e-07
5.83141575373e-07
3.14271515305e-07
2.39482724292e-07
3.69681049415e-07
2.57773121555e-07
3.20813853023e-07
1.97045484191e-07
2.69693648848e-07
2.48158854451e-07
5.52450664699e-08
8.91000091373e-08
3.81639237236e-07
1.38539527653e-07
4.72547168824e-07
8.43270765167e-09
8.58534373121e-08
1.86333256377e-07
2.37203091358e-07
5.15256142014e-07
2.91909179924e-07
9.71745035484e-08
1.99147788778e-07
2.59952328128e-07
2.01858331143e-07
1.48299770955e-09
1.14548052503e-07
2.88447567873e-07
5.42512360257e-07
4.04218466835e-07
4.62585443409e-08
3.82430183965e-07
3.09421402474e-07
3.32872033737e-07
3.25484848565e-07
3.75193735914e-07
3.65872898665e-07
4.3310216749e-07
3.57036375096e-07
3.95715480411e-07
5.43188999745e-07
3.44809398918e-07
1.20763095825e-07
3.9124651682e-07
1.02810519542e-07
4.18053738178e-07
6.55571461856e-07
1.83355265868e-07
5.59744831103e-08
4.15002863112e-08
1.10026283223e-07
2.08622219722e-07
1.67905210689e-08
2.1761741658e-07
9.2508816602e-08
1.02600921428e-07
7.6635597411e-08
2.70316449426e-08
8.31676937102e-08
1.06581401267e-06
5.22384221897e-07
2.13391660818e-07
1.23567014883e-07
3.42967257803e-07
3.28703251233e-07
3.98919405005e-08
1.18434734983e-07
7.74833836355e-09
1.3101663e-07
1.66683420522e-07
5.24139205588e-08
5.84577177303e-08
1.67606913133e-07
3.83951253141e-07
1.76686628153e-07
3.8659021335e-07
2.07895931557e-07
5.03176540616e-08
7.99424763586e-08
3.20029593825e-07
2.80710570788e-07
3.66993308928e-07
2.48884053419e-07
4.48500516482e-07
4.34712475293e-07
4.75120333232e-07
3.73287318244e-07
1.49204438849e-07
1.92558135626e-07
1.98904449866e-07
1.36628069261e-07
3.78305893475e-07
3.66558697181e-07
3.07941829871e-07
1.0861192036e-07
1.29390151531e-07
2.08158789172e-07
2.25881107451e-07
2.53827792299e-07
4.61273850995e-08
1.43232837777e-07
5.73753581642e-07
2.68078746109e-07
1.28985886781e-07
1.27445380632e-07
1.16842926995e-07
2.27428810224e-07
2.73664213872e-07
8.70995964214e-08
1.96997119937e-07
4.31373238141e-07
3.48869694591e-07
2.54886015215e-07
5.06309125418e-07
4.70418722356e-07
3.89958828486e-08
3.41490263747e-07
1.21438186643e-08
2.03329112765e-07
3.03236450129e-07
6.80735260505e-07
8.80821835219e-07
2.23091975331e-07
2.41329866548e-08
2.2872781476e-07
2.39779925731e-07
3.09647807724e-07
1.20050633137e-08
2.87213836135e-07
1.61978344897e-07
1.63845213761e-07
9.08491794762e-08
2.08894388237e-07
1.83077942168e-08
4.38872964261e-07
1.88501597279e-07
5.67926816408e-07
2.81759139653e-07
4.64100925451e-07
7.27235306018e-07
6.78797994981e-07
1.2408900287e-06
7.16510633741e-07
8.28167037857e-07
2.4320019643e-07
6.43959601179e-08
1.26573946088e-07
2.26286668237e-07
1.05444265929e-06
1.24336846813e-06
1.96053907835e-07
1.22345719757e-08
1.65054003044e-08
5.14128989881e-08
7.79985100616e-08
1.61600045273e-07
3.59345948652e-07
2.18258247416e-07
7.56564596405e-07
9.00808361504e-07
3.08212949447e-07
4.24395979172e-07
5.46389165784e-07
3.68567006773e-07
3.66831942066e-07
4.00421654687e-07
5.45237926597e-07
2.48437414431e-07
5.80299421654e-07
4.89646641271e-07
4.54616354437e-07
5.57471371781e-07
4.01434630231e-07
4.2543256991e-07
2.61503161261e-07
2.14206455272e-07
2.10911130466e-07
1.88800232317e-07
1.19229923816e-07
8.36902859795e-08
9.91549260294e-08
2.59332972915e-07
1.85977283813e-07
6.99354430865e-08
2.12832185518e-08
3.16716698807e-07
2.95735939983e-07
7.29406707901e-08
6.17007796697e-10
2.86681660567e-07
5.53324005556e-09
1.45281620647e-07
2.48373753913e-07
3.23266349994e-08
1.41550425675e-07
1.16463688128e-07
6.0600748691e-08
1.59772920809e-07
2.35829346106e-08
1.68326254348e-07
3.38684682372e-07
3.34361808923e-07
3.76686952822e-07
3.31303660825e-07
1.82487327455e-07
1.92708105302e-07
5.09019944139e-07
3.73906557655e-07
5.76440084356e-07
5.79174291045e-07
2.30171668113e-07
7.11399157529e-08
2.35817779507e-08
1.02761551461e-07
3.22207238825e-09
2.49543391799e-08
2.26867600653e-07
1.71462557692e-07
6.70912541347e-07
3.85681108296e-07
4.61937690609e-07
3.753109337e-07
5.68698573191e-07
4.79384656368e-08
1.33201288405e-07
1.26113053824e-08
3.40607286027e-07
4.15855274115e-07
5.66970460659e-07
5.24703996961e-07
4.9614774575e-07
3.51648364664e-07
4.52946012557e-07
5.44292502239e-07
1.7614187181e-08
4.13967936328e-08
1.60951210469e-09
2.54452521465e-07
9.13545184947e-08
7.62284601622e-07
7.63623034918e-07
2.91290640529e-07
2.36962828861e-07
7.77615070624e-08
1.46598546111e-07
2.86477791116e-07
1.741021381e-07
3.83288643714e-07
5.47912182267e-07
2.14114758528e-07
2.18273820173e-07
2.96833325819e-07
1.01160116536e-07
1.75117339462e-07
7.37821136586e-08
4.23391130607e-07
3.57747313109e-07
4.2864604954e-07
4.04124726221e-07
2.61117107531e-08
1.41963759779e-07
4.54578316489e-07
4.57712199095e-07
4.37133581207e-08
4.21072290163e-08
2.44518380648e-08
5.36269665501e-08
3.18868961051e-07
3.54199286049e-07
2.0934508213e-07
2.89328308949e-08
2.08332319155e-07
1.39938108621e-07
7.29086747521e-08
7.01335732081e-08
4.5473311523e-08
2.75760177522e-07
2.93526108903e-08
1.31896672775e-07
9.47465670762e-08
1.88836901763e-08
3.04922070719e-07
2.09306694735e-07
2.89455465647e-07
2.04254192004e-08
2.49526758798e-07
2.40989593744e-07
1.96099341781e-07
8.93143691732e-09
2.406524665e-07
1.3910910438e-07
3.44731314381e-07
9.41158823001e-08
2.78991310742e-08
1.41039516817e-07
2.290936126e-08
1.66770122808e-08
1.32332300714e-08
3.69008989151e-08
6.88964448541e-09
5.6177495951e-08
2.64265891426e-07
3.71849459051e-07
2.12619137305e-07
8.03229521779e-09
1.34178164982e-07
2.57889744307e-08
4.96411856889e-07
4.90465797654e-07
2.14288545616e-07
1.27835417945e-07
6.57519345324e-08
1.86922558994e-07
2.86567998009e-07
4.47242648574e-07
7.53727572286e-08
1.96718172861e-09
2.4483975203e-07
2.349157823e-08
5.75613018987e-07
1.38838595488e-07
3.44140073078e-07
4.15782843515e-07
1.22850569295e-07
3.1279940465e-09
1.39352101091e-07
1.56188964613e-07
1.57308939108e-07
8.96988868458e-09
1.34194707855e-07
1.11882970025e-07
2.96843181259e-08
2.00736131494e-08
1.08708535889e-07
1.07872267655e-08
1.6087570628e-07
1.38482593223e-07
2.60171909003e-07
1.76539210963e-07
1.3641691902e-07
4.18921463492e-09
1.43109838059e-07
9.10762695498e-08
2.03113402894e-07
2.01060361828e-07
2.96043100737e-07
2.69833071513e-07
1.41864071551e-07
4.26147473935e-08
2.34710301081e-07
7.82933643769e-07
2.49948122997e-07
8.62975637804e-09
9.95232938215e-09
1.65896464142e-07
3.39852833268e-07
5.50046903487e-08
3.96636793069e-07
1.61133227647e-07
2.65242328118e-08
2.61007178971e-07
1.41260212266e-08
2.19957018907e-08
1.0173997543e-07
1.65159971944e-07
3.4189818305e-07
7.19291912673e-08
1.41439611435e-07
3.49499568604e-07
4.24531227754e-07
7.39308130219e-08
1.56039910673e-07
7.90880329519e-08
7.48899167725e-08
3.8111086875e-07
1.75081864215e-07
9.29272641822e-09
1.99529555252e-08
1.88256487222e-08
1.09920882579e-07
1.25312345797e-07
1.0661182489e-07
2.03644614695e-07
1.10056264476e-07
5.32666097962e-08
1.73614231848e-07
1.49640458963e-07
1.72409295078e-07
1.87560468599e-07
4.38472929068e-07
3.43211698377e-07
1.63296363467e-07
6.53979039511e-09
1.85128757031e-07
1.62832318923e-08
2.31752642956e-08
1.0737830558e-08
2.07701449182e-07
1.9504303752e-07
2.11304502996e-08
1.79821470941e-07
2.15805487939e-07
1.69308497473e-07
9.50739360997e-08
2.33196072237e-07

