# vtk DataFile Version 3.0
File Name: Molecule/sphere_excent/sphere_excent_0-s9.vtk
ASCII
DATASET UNSTRUCTURED_GRID
FIELD FieldData 1
TIME 1 1 double
0.0
POINTS 94 double
0.85065081 -0.52573111 0.0
0.80901699 -0.30901699 -0.5
1.0 0.0 0.0
0.80901699 0.30901699 -0.5
0.52573111 0.0 -0.85065081
0.85065081 0.52573111 0.0
0.5 0.80901699 -0.30901699
0.30901699 0.5 -0.80901699
0.0 0.85065081 -0.52573111
0.5 0.80901699 0.30901699
0.0 1.0 0.0
-0.5 0.80901699 -0.30901699
-0.5 0.80901699 0.30901699
-0.85065081 0.52573111 0.0
-0.80901699 0.30901699 0.5
0.80901699 -0.30901699 0.5
0.5 -0.80901699 0.30901699
0.30901699 -0.5 -0.80901699
0.0 0.0 -1.0
-0.30901699 -0.5 -0.80901699
0.0 -0.85065081 -0.52573111
-0.52573111 0.0 -0.85065081
0.80901699 0.30901699 0.5
-0.80901699 -0.30901699 -0.5
-0.80901699 0.30901699 -0.5
-1.0 0.0 0.0
-0.85065081 -0.52573111 0.0
-0.30901699 0.5 -0.80901699
-0.5 -0.80901699 -0.30901699
-0.5 -0.80901699 0.30901699
0.0 -1.0 0.0
-0.80901699 -0.30901699 0.5
0.5 -0.80901699 -0.30901699
-0.52573111 0.0 0.85065081
-0.43388856 -0.25989191 0.86266848
-0.27326653 0.0 0.96193836
-0.25989191 0.86266848 0.43388856
0.0 0.85065081 0.52573111
-0.16062203 0.70204645 0.69378048
-0.4253254 0.68819096 0.58778525
-0.13795224 0.0 0.99043888
-0.30901699 0.5 0.80901699
-0.22011703 -0.13279248 0.9663926
-0.16245985 -0.26286556 0.95105652
-0.08224247 -0.13307111 0.98768834
0.30901699 -0.5 0.80901699
0.69378048 -0.16062203 0.70204645
0.52573111 0.0 0.85065081
0.85065081 0.0 0.52573111
0.69378048 0.16062203 0.70204645
0.08224247 0.13307111 0.98768834
0.16245985 0.26286556 0.95105652
0.22011703 0.13279248 0.9663926
0.13795224 0.0 0.99043888
0.27326653 0.0 0.96193836
0.43388856 0.25989191 0.86266848
-0.58778525 0.4253254 0.68819096
-0.43388856 0.25989191 0.86266848
-0.69378048 0.16062203 0.70204645
0.0 -0.85065081 0.52573111
-0.25989191 -0.86266848 0.43388856
-0.4253254 -0.68819096 0.58778525
-0.30901699 -0.5 0.80901699
-0.16062203 -0.70204645 0.69378048
0.25989191 0.86266848 0.43388856
0.68819096 0.58778525 0.4253254
0.4253254 0.68819096 0.58778525
0.58778525 0.4253254 0.68819096
0.30901699 0.5 0.80901699
0.16062203 0.70204645 0.69378048
-0.37503856 -0.38361373 0.84391148
-0.30125888 -0.26408275 0.91624418
-0.23867693 -0.38618739 0.89100652
0.23867693 0.38618739 0.89100652
0.37503856 0.38361373 0.84391148
0.30125888 0.26408275 0.91624418
-0.06914159 0.0 0.99760686
0.0 0.0 1.0
-0.11038499 -0.06670938 0.99164763
-0.04124839 -0.0667413 0.99691733
0.04124839 0.0667413 0.99691733
0.11038499 0.06670938 0.99164763
0.06914159 0.0 0.99760686
0.4253254 -0.68819096 0.58778525
0.16062203 -0.70204645 0.69378048
0.25989191 -0.86266848 0.43388856
0.35822879 0.13165537 0.9243046
0.48444164 0.13120038 0.86492934
0.40335535 0.0 0.91504342
-0.29600459 0.70230985 0.64741189
-0.23708632 0.60682515 0.7586523
-0.37174803 0.60150096 0.70710678
0.07688407 -0.62278547 0.77860587
-0.08108629 -0.78384304 0.61564202

CELLS 184 736
3 0 1 2
3 1 3 2
3 1 4 3
3 2 3 5
3 5 3 6
3 3 7 6
3 3 4 7
3 6 7 8
3 5 6 9
3 6 10 9
3 6 8 10
3 10 11 12
3 10 8 11
3 12 11 13
3 12 13 14
3 15 16 0
3 4 17 18
3 17 19 18
3 17 20 19
3 18 19 21
3 0 2 15
3 2 5 22
3 21 23 24
3 23 25 24
3 23 26 25
3 24 25 13
3 8 27 11
3 27 24 11
3 27 21 24
3 11 24 13
3 26 28 29
3 28 30 29
3 28 20 30
3 26 29 31
3 14 25 31
3 14 13 25
3 31 25 26
3 21 19 23
3 19 28 23
3 19 20 28
3 23 28 26
3 20 32 30
3 32 16 30
3 32 0 16
3 4 1 17
3 1 32 17
3 1 0 32
3 17 32 20
3 4 18 7
3 18 27 7
3 18 21 27
3 7 27 8
3 33 34 35
3 31 34 33
3 12 36 10
3 10 36 37
3 37 36 38
3 36 12 39
3 14 39 12
3 35 40 41
3 34 42 35
3 35 42 40
3 42 43 44
3 44 43 45
3 15 46 45
3 45 46 47
3 22 48 2
3 2 48 15
3 15 48 46
3 48 49 46
3 48 22 49
3 46 49 47
3 50 51 41
3 51 50 52
3 52 53 54
3 54 53 45
3 55 49 22
3 41 56 57
3 56 58 57
3 56 14 58
3 57 58 33
3 59 60 30
3 30 60 29
3 29 61 31
3 61 62 31
3 29 60 61
3 60 63 61
3 61 63 62
3 33 58 31
3 58 14 31
3 41 57 35
3 35 57 33
3 14 56 39
3 37 64 10
3 10 64 9
3 9 65 5
3 5 65 22
3 9 66 65
3 66 67 65
3 66 68 67
3 65 67 22
3 9 64 66
3 64 69 66
3 64 37 69
3 66 69 68
3 34 70 71
3 70 72 71
3 70 62 72
3 71 72 43
3 43 72 45
3 45 72 62
3 62 70 31
3 70 34 31
3 22 67 55
3 68 69 38
3 38 69 37
3 34 71 42
3 42 71 43
3 51 73 41
3 41 73 68
3 68 73 74
3 73 75 74
3 73 51 75
3 74 75 55
3 40 76 41
3 41 76 77
3 44 78 42
3 42 78 40
3 40 78 76
3 78 79 76
3 78 44 79
3 76 79 77
3 77 79 45
3 79 44 45
3 77 80 41
3 80 50 41
3 55 75 52
3 52 75 51
3 50 81 52
3 81 53 52
3 50 80 81
3 80 82 81
3 80 77 82
3 81 82 53
3 53 82 45
3 45 82 77
3 68 74 67
3 67 74 55
3 45 83 15
3 83 16 15
3 45 84 83
3 84 85 83
3 84 59 85
3 83 85 16
3 16 85 30
3 30 85 59
3 55 86 87
3 86 88 87
3 86 54 88
3 87 88 47
3 47 88 45
3 88 54 45
3 39 89 36
3 36 89 38
3 38 89 90
3 89 91 90
3 89 39 91
3 90 91 41
3 38 90 68
3 90 41 68
3 54 86 52
3 52 86 55
3 55 87 49
3 49 87 47
3 63 92 62
3 62 92 45
3 63 93 92
3 93 84 92
3 93 59 84
3 92 84 45
3 59 93 60
3 60 93 63
3 41 91 56
3 56 91 39

CELL_TYPES 184
5
5
5
5
5
5
5
5
5
5
5
5
5
5
5
5
5
5
5
5
5
5
5
5
5
5
5
5
5
5
5
5
5
5
5
5
5
5
5
5
5
5
5
5
5
5
5
5
5
5
5
5
5
5
5
5
5
5
5
5
5
5
5
5
5
5
5
5
5
5
5
5
5
5
5
5
5
5
5
5
5
5
5
5
5
5
5
5
5
5
5
5
5
5
5
5
5
5
5
5
5
5
5
5
5
5
5
5
5
5
5
5
5
5
5
5
5
5
5
5
5
5
5
5
5
5
5
5
5
5
5
5
5
5
5
5
5
5
5
5
5
5
5
5
5
5
5
5
5
5
5
5
5
5
5
5
5
5
5
5
5
5
5
5
5
5
5
5
5
5
5
5
5
5
5
5
5
5
5
5
5
5
5
5

CELL_DATA 184
SCALARS cell_data_0 double
LOOKUP_TABLE default
6.26117039199e-07
5.75188003624e-07
1.34899962168e-07
5.10960194752e-07
1.69194993384e-07
2.42327931886e-07
4.30035540351e-08
1.12834126295e-07
2.11133834355e-06
3.79492385603e-07
8.34359703791e-07
2.29879026433e-06
1.81398921352e-07
4.25818822425e-07
3.53393485912e-06
2.53735270556e-07
5.36813417286e-08
1.73957788987e-08
6.45536062366e-08
3.75099655779e-08
3.52036772055e-06
2.66850898346e-06
1.03372554856e-08
4.57772260118e-07
7.54707540887e-09
4.22499335089e-08
2.90787228499e-07
1.48148135305e-08
1.89538509545e-07
3.91605783229e-07
2.31729511259e-06
6.92487418168e-07
7.15021168897e-07
4.40833796514e-07
3.52212983478e-06
9.12379870788e-07
1.24857212245e-06
1.25778637926e-07
2.96119615891e-09
1.57247305881e-07
1.97321920356e-07
2.91770970118e-07
8.36885573878e-07
1.39439571994e-06
1.19463178855e-07
1.97378431482e-07
2.58393445948e-07
1.39241492283e-07
5.02698353542e-08
3.46721475185e-08
4.29243204914e-08
5.00477542611e-08
3.75772946069e-06
6.03178341347e-08
5.96327658862e-07
3.22634852797e-08
1.47403857715e-06
1.38481052716e-06
4.07078845437e-07
3.27513065796e-06
1.79499423762e-08
3.46892757913e-06
3.99018398291e-06
1.70083411375e-06
4.79088034771e-06
1.77843130118e-07
1.57007611581e-06
5.27727484134e-07
1.32785327683e-06
2.71711510557e-07
3.6579273784e-07
3.46274561065e-06
1.87543606979e-06
3.97569553988e-06
3.422256056e-06
3.30642913884e-06
2.33627554244e-07
5.81070243675e-06
4.74231486029e-07
1.3927252873e-06
1.60916389949e-06
7.30241256641e-07
9.79965863383e-08
8.80621384286e-07
5.36277589039e-06
8.54904730862e-07
2.62150557929e-08
3.29337169363e-06
3.92800776504e-07
4.24954339859e-07
2.19026159167e-06
5.42236289122e-07
4.04746571808e-07
8.22345990409e-07
8.21170745054e-08
8.79914503307e-07
5.28339883233e-07
2.20226404915e-07
2.06881636143e-07
3.328546567e-06
4.77440811013e-07
3.14203225626e-07
8.65593282449e-09
2.70786784085e-07
3.38789992104e-06
8.5541214051e-08
6.91132860808e-07
2.48371431639e-06
2.53686312487e-06
3.6062445391e-06
3.41635477094e-06
2.3352324514e-06
3.90671173807e-06
2.70542017904e-06
1.37108220901e-06
4.8120651248e-07
5.04844229287e-07
8.33974684147e-07
3.58263639378e-06
2.93237185583e-06
2.14391991272e-06
6.6597087839e-07
2.73051800011e-06
2.82814455911e-07
5.96461607938e-07
1.63052221424e-06
2.34353079032e-07
3.07073924842e-07
1.025086736e-06
1.04998676354e-06
1.0847763072e-06
3.33138331499e-06
1.37382019156e-06
1.11436386544e-06
1.30670691892e-06
1.09648143405e-06
5.44169111951e-07
8.48454166176e-07
2.31643357341e-07
4.21797995274e-07
1.12051122652e-06
1.09093287712e-06
3.33347470798e-06
9.81351674858e-07
6.5078192846e-07
1.64629254915e-06
9.89536043242e-07
1.66477072611e-07
3.28735548826e-06
1.24806514352e-06
4.14949256357e-06
3.33262103905e-07
3.45207346439e-07
6.36154781502e-07
9.48767606249e-07
3.4413186967e-07
9.73788068292e-08
6.24699017e-07
2.12443231562e-06
1.57150256806e-06
1.60540532573e-06
7.09277617102e-09
1.62095321143e-07
3.19739273994e-07
8.12008603283e-07
2.5971664357e-07
1.29110907216e-07
2.21580608331e-06
2.066311232e-06
3.00529508943e-06
4.90461251672e-07
7.25554313274e-07
3.06171331705e-07
6.35566610992e-07
3.60048733379e-07
3.34411055517e-06
4.8701649513e-07
2.82869604377e-07
2.17975243898e-07
3.34925573514e-06
2.46203654481e-07
2.41415340606e-08
1.87126338601e-06
6.910796622e-07

