# vtk DataFile Version 3.0
File Name: Molecule/sphere_excent/sphere_excent_0-s5.vtk
ASCII
DATASET UNSTRUCTURED_GRID
FIELD FieldData 1
TIME 1 1 double
0.0
POINTS 193 double
0.309016994375 -0.5 0.809016994375
0.5 -0.809016994375 0.309016994375
0.809016994375 -0.309016994375 0.5
1.0 0.0 0.0
0.809016994375 0.309016994375 0.5
0.525731112119 0.0 0.850650808352
-0.809016994375 0.309016994375 -0.5
-1.0 0.0 0.0
-0.850650808352 0.525731112119 0.0
-0.525731112119 0.0 0.850650808352
-0.809016994375 0.309016994375 0.5
-0.809016994375 -0.309016994375 0.5
0.5 0.809016994375 -0.309016994375
0.25 0.904508497187 -0.154508497188
0.5 0.809016994375 0.0
0.25 0.904508497187 0.154508497188
0.0 1.0 0.0
0.0 0.850650808352 -0.525731112119
0.5 0.809016994375 0.309016994375
0.25 0.829833901363 0.417374053247
0.0 0.925325404176 0.26286555606
0.0 0.850650808352 0.525731112119
-0.25 0.829833901363 0.417374053247
-0.25 0.904508497187 0.154508497188
-0.5 0.809016994375 0.309016994375
-0.25 0.904508497187 -0.154508497188
-0.5 0.809016994375 0.0
-0.5 0.809016994375 -0.309016994375
-0.675325404176 0.667374053247 0.154508497188
-0.675325404176 0.667374053247 -0.154508497188
-0.404508497188 0.654508497187 0.559016994375
-0.154508497188 0.675325404176 0.667374053247
-0.654508497187 0.559016994375 0.404508497188
-0.559016994375 0.404508497188 0.654508497187
-0.309016994375 0.5 0.809016994375
-0.829833901363 0.417374053247 0.25
0.309016994375 0.5 0.809016994375
0.829833901363 -0.417374053247 -0.25
0.904508497187 -0.154508497188 -0.25
0.925325404176 -0.26286555606 0.0
0.809016994375 -0.309016994375 -0.5
0.809016994375 0.0 -0.5
0.904508497187 0.154508497188 -0.25
0.809016994375 0.309016994375 -0.5
0.667374053247 -0.154508497188 -0.675325404176
0.667374053247 0.154508497188 -0.675325404176
0.525731112119 0.0 -0.850650808352
0.850650808352 0.525731112119 0.0
0.654508497187 0.559016994375 -0.404508497188
0.559016994375 0.404508497188 -0.654508497187
0.404508497188 0.654508497187 -0.559016994375
0.309016994375 0.5 -0.809016994375
0.417374053247 0.25 -0.829833901363
0.850650808352 -0.525731112119 0.0
-0.904508497187 -0.154508497188 -0.25
-0.829833901363 -0.417374053247 -0.25
-0.925325404176 -0.26286555606 0.0
-0.850650808352 -0.525731112119 0.0
-0.675325404176 -0.667374053247 -0.154508497188
-0.675325404176 -0.667374053247 0.154508497188
-0.5 -0.809016994375 0.0
-0.904508497187 -0.154508497188 0.25
-0.829833901363 -0.417374053247 0.25
0.309016994375 -0.5 -0.809016994375
0.0 0.0 -1.0
-0.154508497188 0.25 0.904508497187
0.0 0.5 0.809016994375
0.154508497188 0.25 0.904508497187
-0.417374053247 0.25 0.829833901363
-0.26286555606 0.0 0.925325404176
0.417374053247 0.25 0.829833901363
0.26286555606 0.0 0.925325404176
-0.309016994375 -0.5 0.809016994375
0.0 -0.5 0.809016994375
-0.154508497188 -0.25 0.904508497187
0.154508497188 -0.25 0.904508497187
0.0 -0.850650808352 0.525731112119
0.417374053247 -0.25 0.829833901363
0.154508497188 -0.25 -0.904508497187
0.0 -0.5 -0.809016994375
-0.154508497188 -0.25 -0.904508497187
-0.309016994375 -0.5 -0.809016994375
0.154508497188 -0.675325404176 -0.667374053247
-0.154508497188 -0.675325404176 -0.667374053247
0.0 -0.850650808352 -0.525731112119
-0.26286555606 0.0 -0.925325404176
-0.417374053247 -0.25 -0.829833901363
-0.525731112119 0.0 -0.850650808352
-0.667374053247 -0.154508497188 -0.675325404176
-0.667374053247 0.154508497188 -0.675325404176
-0.809016994375 0.0 -0.5
-0.809016994375 -0.309016994375 -0.5
-0.154508497188 0.675325404176 -0.667374053247
-0.25 0.829833901363 -0.417374053247
-0.404508497188 0.654508497187 -0.559016994375
-0.309016994375 0.5 -0.809016994375
-0.559016994375 0.404508497188 -0.654508497187
-0.654508497187 0.559016994375 -0.404508497188
-0.417374053247 0.25 -0.829833901363
-0.5 -0.809016994375 -0.309016994375
-0.25 -0.829833901363 -0.417374053247
-0.25 -0.904508497187 -0.154508497188
0.0 -0.925325404176 -0.26286555606
0.0 -1.0 0.0
-0.417374053247 -0.25 0.829833901363
-0.559016994375 -0.404508497188 -0.654508497187
-0.404508497188 -0.654508497187 -0.559016994375
0.25 -0.829833901363 -0.417374053247
0.25 -0.904508497187 -0.154508497188
0.5 -0.809016994375 -0.309016994375
0.404508497188 -0.654508497187 -0.559016994375
-0.154508497188 0.25 -0.904508497187
0.154508497188 0.25 -0.904508497187
0.0 0.5 -0.809016994375
0.154508497188 0.675325404176 -0.667374053247
-0.077254248594 0.762988106264 0.596552582683
-0.231762745782 0.587662702088 0.738195523811
0.154508497188 0.675325404176 0.667374053247
0.0772542485935 0.587662702088 0.738195523811
0.25 -0.829833901363 0.417374053247
0.675325404176 -0.667374053247 0.154508497188
0.829833901363 0.417374053247 0.25
0.675325404176 0.667374053247 0.154508497188
0.654508497187 0.559016994375 0.404508497188
-0.5 -0.809016994375 0.309016994375
-0.25 -0.904508497187 0.154508497188
-0.25 -0.829833901363 0.417374053247
0.0 -0.925325404176 0.26286555606
-0.404508497188 -0.654508497187 0.559016994375
-0.154508497188 -0.675325404176 0.667374053247
0.25 -0.904508497187 0.154508497188
0.675325404176 0.667374053247 0.0
0.5 0.809016994375 0.154508497188
0.840242354857 -0.471552582683 -0.125
0.819425447869 -0.363195523811 -0.375
-0.819425447869 -0.363195523811 -0.375
-0.587662702088 -0.738195523811 -0.231762745782
-0.587662702088 -0.738195523811 0.231762745782
-0.752579652769 -0.542374053247 0.202254248594
-0.664916950682 -0.613195523811 0.279508497188
-0.742171199275 -0.488195523811 0.327254248594
-0.654508497187 -0.559016994375 0.404508497188
-0.577254248593 -0.684016994375 0.356762745782
-0.819425447869 -0.363195523811 0.375
-0.731762745781 -0.434016994375 0.452254248594
-0.559016994375 -0.404508497188 0.654508497187
-0.481762745781 -0.529508497187 0.606762745782
-0.731762745781 -0.434016994375 -0.452254248594
-0.742171199275 -0.488195523811 -0.327254248594
-0.654508497187 -0.559016994375 -0.404508497188
-0.664916950682 -0.613195523811 -0.279508497188
-0.752579652769 -0.542374053247 -0.202254248594
-0.577254248593 -0.684016994375 -0.356762745782
0.587662702088 -0.738195523811 -0.231762745782
0.5 -0.809016994375 0.0
0.587662702088 -0.738195523811 0.0772542485935
0.675325404176 -0.667374053247 -0.154508497188
0.762988106264 -0.596552582683 -0.077254248594
0.559016994375 -0.404508497188 -0.654508497187
0.731762745781 -0.434016994375 -0.452254248594
0.481762745781 -0.529508497187 -0.606762745782
0.654508497187 -0.559016994375 -0.404508497188
0.742171199275 -0.488195523811 -0.327254248594
0.752579652769 -0.542374053247 -0.202254248594
0.664916950682 -0.613195523811 -0.279508497188
0.577254248593 -0.684016994375 -0.356762745782
0.0 0.25 0.904508497187
-0.077254248594 0.125 0.952254248593
0.077254248594 0.125 0.952254248593
0.0 0.0 1.0
-0.208687026624 0.125 0.914916950682
-0.13143277803 0.0 0.962662702088
0.208687026624 0.125 0.914916950682
0.13143277803 0.0 0.962662702088
-0.340119804654 -0.125 0.877579652769
-0.285941275218 -0.25 0.867171199275
-0.208687026624 -0.125 0.914916950682
-0.077254248594 -0.125 0.952254248593
0.0 -0.25 0.904508497187
0.077254248594 -0.125 0.952254248593
0.208687026624 -0.125 0.914916950682
0.285941275218 -0.25 0.867171199275
0.340119804654 -0.125 0.877579652769
-0.434016994375 -0.452254248594 -0.731762745781
-0.684016994375 -0.356762745782 -0.577254248593
-0.356762745782 -0.577254248593 -0.684016994375
-0.452254248594 -0.731762745781 -0.434016994375
0.356762745782 -0.577254248593 -0.684016994375
0.452254248594 -0.731762745781 -0.434016994375
-0.481762745781 -0.529508497187 -0.606762745782
-0.529508497188 -0.606762745781 -0.481762745782
-0.606762745781 -0.481762745782 -0.529508497188
0.529508497188 -0.606762745781 -0.481762745782

CELLS 382 1528
3 0 1 2
3 3 4 2
3 2 4 5
3 6 7 8
3 9 10 11
3 12 13 14
3 13 15 14
3 13 16 15
3 16 13 17
3 17 13 12
3 18 15 19
3 15 20 19
3 15 16 20
3 19 20 21
3 21 20 22
3 20 23 22
3 20 16 23
3 22 23 24
3 16 25 23
3 25 26 23
3 25 27 26
3 23 26 24
3 17 25 16
3 24 26 28
3 26 29 28
3 26 27 29
3 28 29 8
3 22 30 31
3 22 24 30
3 24 32 30
3 32 33 30
3 32 10 33
3 30 33 34
3 24 28 32
3 28 35 32
3 28 8 35
3 32 35 10
3 33 10 9
3 18 19 36
3 8 29 6
3 10 35 7
3 35 8 7
3 37 38 39
3 39 38 3
3 40 41 38
3 41 42 38
3 41 43 42
3 38 42 3
3 40 44 41
3 44 45 41
3 44 46 45
3 41 45 43
3 3 42 47
3 42 43 47
3 43 48 47
3 47 48 12
3 43 49 48
3 49 50 48
3 49 51 50
3 48 50 12
3 43 45 49
3 45 52 49
3 45 46 52
3 49 52 51
3 12 50 17
3 53 39 2
3 39 3 2
3 54 7 6
3 55 56 54
3 55 57 56
3 54 56 7
3 57 58 59
3 58 60 59
3 7 61 10
3 10 61 11
3 61 56 62
3 61 7 56
3 62 56 57
3 46 44 63
3 64 52 46
3 34 65 66
3 66 67 36
3 34 68 65
3 68 9 69
3 36 67 70
3 70 71 5
3 72 73 74
3 73 0 75
3 0 73 76
3 5 77 2
3 77 0 2
3 63 78 46
3 46 78 64
3 63 79 78
3 79 80 78
3 79 81 80
3 78 80 64
3 63 82 79
3 82 83 79
3 82 84 83
3 79 83 81
3 64 80 85
3 80 86 85
3 80 81 86
3 85 86 87
3 36 70 4
3 4 70 5
3 87 88 89
3 88 90 89
3 88 91 90
3 89 90 6
3 17 92 93
3 92 94 93
3 92 95 94
3 93 94 27
3 95 96 94
3 96 97 94
3 96 6 97
3 94 97 27
3 95 98 96
3 98 89 96
3 98 87 89
3 96 89 6
3 99 100 101
3 100 102 101
3 100 84 102
3 101 102 103
3 11 104 9
3 87 86 88
3 86 105 88
3 83 100 106
3 83 84 100
3 84 107 102
3 107 108 102
3 107 109 108
3 102 108 103
3 110 107 82
3 82 107 84
3 64 111 112
3 111 113 112
3 111 95 113
3 112 113 51
3 64 85 111
3 85 98 111
3 85 87 98
3 111 98 95
3 51 113 114
3 113 92 114
3 113 95 92
3 114 92 17
3 17 93 25
3 25 93 27
3 31 115 22
3 22 115 21
3 34 116 30
3 30 116 31
3 9 68 33
3 33 68 34
3 21 115 117
3 115 118 117
3 115 31 118
3 117 118 36
3 31 116 118
3 116 66 118
3 116 34 66
3 118 66 36
3 21 117 19
3 19 117 36
3 27 97 29
3 29 97 6
3 51 114 50
3 50 114 17
3 6 90 54
3 54 90 91
3 99 101 60
3 60 101 103
3 64 112 52
3 52 112 51
3 76 119 0
3 0 119 1
3 1 120 2
3 2 120 53
3 47 121 3
3 3 121 4
3 47 122 121
3 122 123 121
3 122 18 123
3 121 123 4
3 4 123 36
3 36 123 18
3 124 125 126
3 125 127 126
3 125 103 127
3 126 127 76
3 124 126 128
3 126 129 128
3 126 76 129
3 128 129 72
3 103 130 127
3 130 119 127
3 130 1 119
3 127 119 76
3 14 131 12
3 12 131 47
3 47 131 122
3 131 132 122
3 131 14 132
3 122 132 18
3 18 132 15
3 15 132 14
3 53 133 39
3 133 37 39
3 37 134 38
3 134 40 38
3 91 135 54
3 135 55 54
3 58 136 60
3 136 99 60
3 124 137 60
3 60 137 59
3 103 125 60
3 60 125 124
3 59 138 57
3 57 138 62
3 59 139 138
3 139 140 138
3 139 141 140
3 138 140 62
3 59 137 139
3 137 142 139
3 137 124 142
3 139 142 141
3 62 140 143
3 140 144 143
3 140 141 144
3 143 144 11
3 11 144 145
3 144 146 145
3 144 141 146
3 145 146 72
3 72 146 128
3 146 142 128
3 146 141 142
3 128 142 124
3 62 143 61
3 61 143 11
3 91 147 135
3 147 148 135
3 147 149 148
3 135 148 55
3 149 150 148
3 150 151 148
3 150 58 151
3 148 151 55
3 149 152 150
3 152 136 150
3 152 99 136
3 150 136 58
3 55 151 57
3 151 58 57
3 109 153 154
3 153 155 154
3 153 156 155
3 154 155 1
3 156 157 155
3 157 120 155
3 157 53 120
3 155 120 1
3 40 158 44
3 44 158 63
3 40 159 158
3 159 160 158
3 159 161 160
3 158 160 63
3 40 134 159
3 134 162 159
3 134 37 162
3 159 162 161
3 37 163 162
3 163 164 162
3 163 156 164
3 162 164 161
3 37 133 163
3 133 157 163
3 133 53 157
3 163 157 156
3 161 164 165
3 164 153 165
3 164 156 153
3 165 153 109
3 65 166 66
3 166 67 66
3 65 167 166
3 167 168 166
3 167 169 168
3 166 168 67
3 69 170 68
3 68 170 65
3 65 170 167
3 170 171 167
3 170 69 171
3 167 171 169
3 67 172 70
3 172 71 70
3 67 168 172
3 168 173 172
3 168 169 173
3 172 173 71
3 104 174 9
3 9 174 69
3 104 175 174
3 175 176 174
3 175 74 176
3 174 176 69
3 74 175 72
3 72 175 104
3 69 176 171
3 176 177 171
3 176 74 177
3 171 177 169
3 75 178 73
3 73 178 74
3 74 178 177
3 178 179 177
3 178 75 179
3 177 179 169
3 72 129 73
3 73 129 76
3 169 179 173
3 179 180 173
3 179 75 180
3 173 180 71
3 75 181 180
3 181 182 180
3 181 77 182
3 180 182 71
3 77 181 0
3 0 181 75
3 71 182 5
3 182 77 5
3 11 145 104
3 104 145 72
3 81 183 86
3 86 183 105
3 105 184 88
3 88 184 91
3 106 185 83
3 83 185 81
3 99 186 100
3 100 186 106
3 1 130 108
3 108 130 103
3 109 154 108
3 108 154 1
3 63 187 82
3 187 110 82
3 110 188 107
3 188 109 107
3 81 185 189
3 185 190 189
3 185 106 190
3 189 190 149
3 149 190 152
3 190 186 152
3 190 106 186
3 152 186 99
3 91 184 147
3 184 191 147
3 184 105 191
3 147 191 149
3 149 191 189
3 191 183 189
3 191 105 183
3 189 183 81
3 109 188 165
3 188 192 165
3 188 110 192
3 165 192 161
3 161 192 160
3 192 187 160
3 192 110 187
3 160 187 63

CELL_TYPES 382
5
5
5
5
5
5
5
5
5
5
5
5
5
5
5
5
5
5
5
5
5
5
5
5
5
5
5
5
5
5
5
5
5
5
5
5
5
5
5
5
5
5
5
5
5
5
5
5
5
5
5
5
5
5
5
5
5
5
5
5
5
5
5
5
5
5
5
5
5
5
5
5
5
5
5
5
5
5
5
5
5
5
5
5
5
5
5
5
5
5
5
5
5
5
5
5
5
5
5
5
5
5
5
5
5
5
5
5
5
5
5
5
5
5
5
5
5
5
5
5
5
5
5
5
5
5
5
5
5
5
5
5
5
5
5
5
5
5
5
5
5
5
5
5
5
5
5
5
5
5
5
5
5
5
5
5
5
5
5
5
5
5
5
5
5
5
5
5
5
5
5
5
5
5
5
5
5
5
5
5
5
5
5
5
5
5
5
5
5
5
5
5
5
5
5
5
5
5
5
5
5
5
5
5
5
5
5
5
5
5
5
5
5
5
5
5
5
5
5
5
5
5
5
5
5
5
5
5
5
5
5
5
5
5
5
5
5
5
5
5
5
5
5
5
5
5
5
5
5
5
5
5
5
5
5
5
5
5
5
5
5
5
5
5
5
5
5
5
5
5
5
5
5
5
5
5
5
5
5
5
5
5
5
5
5
5
5
5
5
5
5
5
5
5
5
5
5
5
5
5
5
5
5
5
5
5
5
5
5
5
5
5
5
5
5
5
5
5
5
5
5
5
5
5
5
5
5
5
5
5
5
5
5
5
5
5
5
5
5
5
5
5
5
5
5
5
5
5
5
5
5
5
5
5
5
5
5
5
5
5
5
5
5
5
5
5
5
5
5
5
5
5
5
5
5
5
5
5
5
5
5
5

CELL_DATA 382
SCALARS cell_data_0 double
LOOKUP_TABLE default
5.11565846503e-05
2.22972836923e-05
4.77516427978e-05
0.000203382204525
2.96044631577e-05
3.29928783151e-07
3.65486926046e-06
1.70776850121e-06
1.24598823051e-05
1.53694954963e-05
4.85898972017e-06
5.33347042137e-06
2.86342224992e-06
5.74401787612e-06
5.51628265504e-06
5.63782118653e-06
2.78537215555e-06
3.10733025793e-06
1.66020861077e-06
4.26488339301e-06
3.09375887394e-08
2.19119405893e-06
1.26842000013e-05
1.92203211139e-06
3.14368674636e-06
9.91839267021e-08
1.25188860038e-05
1.02518892275e-05
6.80974888483e-06
9.32070364996e-06
1.45711510665e-05
1.13863167516e-05
1.70186973691e-05
3.92681465234e-06
4.62598348768e-06
1.19052234794e-05
4.61440358614e-06
2.21158829351e-05
1.98188388531e-05
8.18683328355e-05
8.19743592633e-08
4.10210705828e-05
2.04069226365e-06
2.05868145942e-06
6.73741541849e-06
1.03422279471e-05
1.16165525109e-05
4.38742146764e-06
3.56258205114e-06
2.48324663284e-06
7.14181765846e-07
5.20508452417e-06
4.05427602329e-06
8.2704950048e-06
0.000146008620747
0.000148757941127
0.00018009918801
0.000353943422085
0.000172697264915
0.000237239499074
3.74035644345e-05
9.37559160403e-05
3.8031071092e-05
0.000105105200469
0.000185894480663
9.61550705118e-07
5.5323647293e-06
0.000237409506523
0.000255948703392
0.000138864151634
0.000168958489193
6.70021765351e-05
0.000163490865088
6.89467944099e-05
2.80758399089e-05
0.000223219778833
0.000116040413522
0.000169247305793
4.7491990883e-06
0.000137857218203
2.46295100274e-05
2.96383818212e-05
1.81280667885e-05
3.58030368404e-05
2.40745332667e-05
2.53403208648e-05
2.59440203912e-05
2.56595020035e-05
4.1155643265e-05
3.37294180273e-05
2.89396052685e-05
7.32164242508e-06
3.24466158031e-05
2.82104776158e-06
8.63371268005e-07
1.75964351401e-05
1.4731503066e-05
1.69985147103e-06
8.03114106646e-07
1.81037893943e-06
1.66857334103e-05
1.1346931134e-05
2.28301333352e-07
1.4401908265e-05
7.87210665787e-07
4.02281426397e-05
4.12491690283e-05
2.14483959593e-06
2.06790085925e-06
1.83136694887e-05
1.67405337939e-05
5.22226199807e-05
3.45512563194e-05
2.12901517669e-05
3.9780275953e-05
2.29657236878e-05
1.96909679221e-07
1.55106698265e-05
2.99875428886e-06
2.37745484882e-05
2.99216285038e-06
3.49254815479e-06
1.59501068665e-05
3.5554371511e-07
1.34359319184e-06
1.77303866983e-07
1.27466770534e-06
4.04221571807e-05
1.08179230354e-06
4.00612974938e-07
2.90841399027e-08
1.54083824418e-06
1.19298130583e-07
4.157491283e-06
5.67105307732e-06
5.5162423444e-06
1.54421214635e-05
8.34640572786e-07
0.000102296227203
8.58253354078e-05
7.55103113848e-05
5.1926305608e-05
3.44154902342e-05
1.69999112196e-05
2.01893189674e-06
5.08987004948e-05
1.26784013955e-05
1.18562285183e-05
3.53424768559e-05
1.25378243078e-05
4.41243009422e-05
3.67650474918e-05
4.69454320482e-06
3.52215159548e-06
6.82164749816e-06
6.41253718241e-06
2.50739640714e-05
1.58977491573e-05
4.84795272954e-06
8.41457484449e-06
6.53526149813e-06
9.97354875664e-06
6.96830930421e-06
9.04731060773e-06
8.55576318218e-06
9.55764034645e-06
9.69822151332e-06
1.63202753166e-05
1.33948094815e-06
1.02582436236e-05
7.98016838981e-05
9.56938014361e-05
0.000111723946744
0.000118866245541
6.8125094867e-05
6.59647229363e-05
0.000123789819308
9.06889962696e-05
1.26929036856e-05
2.16552513485e-05
5.70457913666e-06
3.56788843896e-06
5.27563919825e-07
4.05742010455e-07
7.15714267404e-06
1.61021597879e-05
1.04074318526e-05
7.6618748469e-06
1.76285821871e-05
2.014650943e-05
4.22539481572e-06
3.96952101732e-06
3.72176853825e-07
5.99430094993e-06
7.88668274819e-06
1.12773027788e-05
3.93284747818e-06
1.29328278848e-05
2.10023984596e-06
4.62041781898e-06
3.46548706791e-06
7.73141299118e-06
2.88790541245e-07
1.01916033892e-06
2.66580202645e-06
2.54937699172e-06
6.81881133076e-07
1.76523073686e-06
2.01159266063e-06
1.68599628852e-06
4.21268048743e-06
1.49254002038e-06
2.70989358815e-06
2.73571636041e-06
5.88454704139e-05
7.28415333556e-05
5.47467804054e-05
3.81455375686e-05
2.80210470012e-05
6.14614421062e-05
7.11554323921e-05
6.26558014414e-05
2.0204139086e-05
3.3516116203e-05
8.06045315204e-06
2.60047674963e-06
2.467116914e-06
1.83741587193e-05
8.35303753568e-06
2.96021093865e-06
1.86140090967e-06
2.79549846346e-06
1.45062710228e-05
7.13696922738e-07
6.21991407676e-07
1.32220081768e-06
4.48144149911e-06
7.35035629028e-06
5.43433739531e-06
9.04733782579e-06
8.60856313856e-06
6.29432502264e-06
1.75597694163e-06
1.50570370359e-06
4.24061485955e-05
4.42988178917e-06
6.99612368656e-06
1.28235624128e-06
6.11535867567e-08
1.08270354408e-05
1.9285727989e-07
1.07004629426e-07
3.31049829386e-06
8.42720517712e-06
1.76666658652e-07
1.59975725642e-06
1.89188726654e-06
4.89030748327e-06
2.28165296474e-05
1.08824076005e-05
6.36087556134e-08
9.41522862433e-07
1.09706689454e-06
1.16140378938e-06
1.41705564768e-06
4.61018613719e-07
3.36387760012e-06
2.54148719565e-09
1.96626589858e-07
9.63603732333e-07
3.31251445836e-07
3.69197727781e-07
5.56674961753e-08
1.20084985378e-06
1.03457342195e-06
1.01487720797e-06
1.11947281132e-06
6.69877254759e-08
8.83092144228e-08
6.1295491889e-08
3.3664205075e-07
1.68742561541e-07
5.12144986113e-07
1.41339883331e-07
1.47686020372e-06
3.92442596379e-07
2.29696524524e-05
2.44244906801e-05
1.92330981106e-07
2.48461001646e-05
4.15663995189e-05
4.23691997957e-05
2.21082800189e-05
6.1822010435e-06
1.54898622644e-05
2.01954487977e-05
3.95826822128e-05
3.82701004544e-05
1.92571050668e-05
7.2158692655e-07
1.88597139365e-05
1.24864729697e-05
4.04676565754e-05
4.0413862964e-05
1.78622761206e-05
4.02503473078e-06
1.19765701182e-05
1.85409322994e-05
1.60771441235e-05
2.27509978246e-05
1.10406093288e-05
6.33302147156e-07
1.80886963873e-05
1.86731441547e-05
2.44531260743e-05
1.9655851089e-05
1.88378200578e-05
1.01159614763e-06
1.89450532979e-05
1.2463288602e-05
4.83560323995e-05
4.96600935754e-05
2.33776651731e-05
9.6034290516e-07
2.27540290766e-05
1.60203903784e-05
1.61907758384e-05
1.66920274171e-05
1.24554232589e-05
8.51828246892e-07
1.85103901097e-05
1.85799255871e-05
1.7420871115e-05
7.14746458365e-07
1.09015008758e-05
1.85615889003e-05
1.87002939244e-05
2.2578192967e-05
2.43743068851e-05
1.95053543393e-05
1.14799700399e-05
1.69619807623e-05
7.38681883561e-06
5.01348998058e-08
5.13557117399e-08
8.58437188228e-06
6.4641135046e-08
7.72703268823e-06
2.12633923969e-07
1.46931751004e-07
3.82889277644e-06
4.97155689103e-06
6.56719097648e-06
6.3222673772e-06
5.97902627266e-07
8.07866491199e-06
7.70982674793e-06
1.42274246722e-07
4.27020507292e-06
5.03258669363e-09
7.28190579287e-08
1.90339319224e-07
2.46904748784e-07
4.42109454011e-07
7.74013507663e-08
6.398411906e-07
5.29265215579e-06
1.64685585629e-07
7.04306285392e-08
2.3468642926e-09
1.85760084245e-07
1.16143175376e-09
6.9762152104e-08
4.26794397954e-06
2.90481663651e-05
2.9255940457e-05
4.96513138875e-06
2.7975558863e-05
7.56824433325e-08
1.12674929729e-07
4.85110677506e-06
5.01810169029e-07

