# vtk DataFile Version 3.0
File Name: Molecule/sphere_excent/sphere_excent_0-s3.vtk
ASCII
DATASET UNSTRUCTURED_GRID
FIELD FieldData 1
TIME 1 1 double
0.0
POINTS 81 double
-0.309016994375 0.5 0.809016994375
0.0 0.0 1.0
0.309016994375 0.5 0.809016994375
-0.525731112119 0.0 0.850650808352
0.525731112119 0.0 0.850650808352
-0.309016994375 -0.5 0.809016994375
0.309016994375 -0.5 0.809016994375
0.0 -0.850650808352 0.525731112119
0.809016994375 -0.309016994375 0.5
0.5 -0.809016994375 0.309016994375
0.850650808352 -0.525731112119 0.0
0.525731112119 0.0 -0.850650808352
0.309016994375 -0.5 -0.809016994375
0.0 0.0 -1.0
-0.309016994375 -0.5 -0.809016994375
0.0 -0.850650808352 -0.525731112119
-0.525731112119 0.0 -0.850650808352
1.0 0.0 0.0
0.809016994375 0.309016994375 0.5
0.850650808352 0.525731112119 0.0
0.5 0.809016994375 0.309016994375
-0.809016994375 -0.309016994375 -0.5
-0.809016994375 0.309016994375 -0.5
-1.0 0.0 0.0
-0.850650808352 0.525731112119 0.0
0.0 0.850650808352 -0.525731112119
-0.309016994375 0.5 -0.809016994375
-0.5 0.809016994375 -0.309016994375
-0.5 -0.809016994375 -0.309016994375
0.0 -1.0 0.0
-0.5 -0.809016994375 0.309016994375
-0.809016994375 -0.309016994375 0.5
-0.809016994375 0.309016994375 0.5
0.5 -0.809016994375 -0.309016994375
0.309016994375 0.5 -0.809016994375
0.5 0.809016994375 -0.309016994375
0.5 0.809016994375 0.0
0.25 0.904508497187 -0.154508497188
0.25 0.904508497187 0.154508497188
0.0 1.0 0.0
0.25 0.829833901363 0.417374053247
0.0 0.925325404176 0.26286555606
0.0 0.850650808352 0.525731112119
-0.25 0.829833901363 0.417374053247
-0.25 0.904508497187 0.154508497188
-0.5 0.809016994375 0.309016994375
-0.25 0.904508497187 -0.154508497188
-0.5 0.809016994375 0.0
-0.675325404176 0.667374053247 0.154508497188
-0.675325404176 0.667374053247 -0.154508497188
-0.154508497188 0.675325404176 0.667374053247
-0.404508497188 0.654508497187 0.559016994375
-0.654508497187 0.559016994375 0.404508497188
-0.559016994375 0.404508497188 0.654508497187
-0.829833901363 0.417374053247 0.25
0.829833901363 -0.417374053247 -0.25
0.925325404176 -0.26286555606 0.0
0.904508497187 -0.154508497188 -0.25
0.809016994375 -0.309016994375 -0.5
0.809016994375 0.0 -0.5
0.904508497187 0.154508497188 -0.25
0.809016994375 0.309016994375 -0.5
0.667374053247 -0.154508497188 -0.675325404176
0.667374053247 0.154508497188 -0.675325404176
0.654508497187 0.559016994375 -0.404508497188
0.559016994375 0.404508497188 -0.654508497187
0.404508497188 0.654508497187 -0.559016994375
0.417374053247 0.25 -0.829833901363
-0.904508497187 -0.154508497188 -0.25
-0.829833901363 -0.417374053247 -0.25
-0.925325404176 -0.26286555606 0.0
-0.850650808352 -0.525731112119 0.0
-0.675325404176 -0.667374053247 -0.154508497188
-0.675325404176 -0.667374053247 0.154508497188
-0.5 -0.809016994375 0.0
-0.829833901363 -0.417374053247 0.25
-0.654508497187 -0.559016994375 0.404508497188
-0.904508497187 -0.154508497188 0.25
-0.654508497187 -0.559016994375 -0.404508497188
0.675325404176 -0.667374053247 -0.154508497188
0.654508497187 -0.559016994375 -0.404508497188

CELLS 158 632
3 0 1 2
3 0 3 1
3 2 1 4
3 3 5 1
3 5 6 1
3 5 7 6
3 1 6 4
3 4 6 8
3 6 9 8
3 6 7 9
3 8 9 10
3 11 12 13
3 12 14 13
3 12 15 14
3 13 14 16
3 17 18 8
3 17 19 18
3 8 18 4
3 19 20 18
3 20 2 18
3 18 2 4
3 16 21 22
3 22 23 24
3 25 26 27
3 26 22 27
3 26 16 22
3 28 15 29
3 30 29 7
3 30 7 5
3 31 5 3
3 3 32 31
3 16 14 21
3 14 15 28
3 15 33 29
3 33 9 29
3 29 9 7
3 12 33 15
3 13 26 34
3 13 16 26
3 34 26 25
3 35 36 19
3 19 36 20
3 35 37 36
3 37 38 36
3 37 39 38
3 36 38 20
3 39 37 25
3 25 37 35
3 20 38 40
3 38 41 40
3 38 39 41
3 40 41 42
3 42 41 43
3 41 44 43
3 41 39 44
3 43 44 45
3 39 46 44
3 46 47 44
3 46 27 47
3 44 47 45
3 27 46 25
3 25 46 39
3 45 47 48
3 47 49 48
3 47 27 49
3 48 49 24
3 42 43 50
3 43 51 50
3 43 45 51
3 50 51 0
3 45 52 51
3 52 53 51
3 52 32 53
3 51 53 0
3 45 48 52
3 48 54 52
3 48 24 54
3 52 54 32
3 0 53 3
3 53 32 3
3 42 50 2
3 50 0 2
3 20 40 2
3 40 42 2
3 24 49 22
3 22 49 27
3 32 54 23
3 54 24 23
3 10 55 56
3 55 57 56
3 55 58 57
3 56 57 17
3 58 59 57
3 59 60 57
3 59 61 60
3 57 60 17
3 58 62 59
3 62 63 59
3 62 11 63
3 59 63 61
3 17 60 19
3 60 61 19
3 61 64 19
3 19 64 35
3 61 65 64
3 65 66 64
3 65 34 66
3 64 66 35
3 61 63 65
3 63 67 65
3 63 11 67
3 65 67 34
3 35 66 25
3 66 34 25
3 10 56 8
3 56 17 8
3 21 68 22
3 68 23 22
3 21 69 68
3 69 70 68
3 69 71 70
3 68 70 23
3 71 72 73
3 72 74 73
3 72 28 74
3 73 74 30
3 30 74 29
3 29 74 28
3 71 73 75
3 73 76 75
3 73 30 76
3 75 76 31
3 31 76 5
3 5 76 30
3 23 77 32
3 32 77 31
3 31 77 75
3 77 70 75
3 77 23 70
3 75 70 71
3 28 78 14
3 14 78 21
3 21 78 69
3 78 72 69
3 78 28 72
3 69 72 71
3 33 79 9
3 79 10 9
3 11 62 12
3 62 58 12
3 58 80 12
3 80 33 12
3 58 55 80
3 55 79 80
3 55 10 79
3 80 79 33
3 34 67 13
3 13 67 11

CELL_TYPES 158
5
5
5
5
5
5
5
5
5
5
5
5
5
5
5
5
5
5
5
5
5
5
5
5
5
5
5
5
5
5
5
5
5
5
5
5
5
5
5
5
5
5
5
5
5
5
5
5
5
5
5
5
5
5
5
5
5
5
5
5
5
5
5
5
5
5
5
5
5
5
5
5
5
5
5
5
5
5
5
5
5
5
5
5
5
5
5
5
5
5
5
5
5
5
5
5
5
5
5
5
5
5
5
5
5
5
5
5
5
5
5
5
5
5
5
5
5
5
5
5
5
5
5
5
5
5
5
5
5
5
5
5
5
5
5
5
5
5
5
5
5
5
5
5
5
5
5
5
5
5
5
5
5
5
5
5
5
5

CELL_DATA 158
SCALARS cell_data_0 double
LOOKUP_TABLE default
0.000120398413832
0.000186911207598
0.00019150735974
0.000188918916288
0.000108936518588
7.9924773216e-05
0.000192717250996
8.10024503158e-05
4.18703647597e-05
2.75292175422e-05
1.7646288767e-05
6.00332876065e-05
6.70827199488e-05
0.000197007996174
0.000198575709952
2.49065197341e-05
8.41004450863e-06
1.69620734679e-05
9.6149452414e-06
4.74204950761e-05
5.88396601287e-05
9.88871137153e-05
8.85587265813e-07
0.000146318049852
1.84257953268e-05
0.000119726446914
0.000116278093955
5.00298379191e-05
1.83018929488e-05
7.58193113446e-05
3.15373108023e-05
0.000161467123297
0.000180711511802
0.000138848712526
2.5672308239e-07
3.48881289818e-05
0.000168687096963
2.65198906848e-05
0.000163745700014
0.000120020701573
1.35270172166e-05
1.16351061218e-05
7.89611025076e-06
9.10615793449e-06
1.26890119411e-05
1.88926400801e-06
9.11634939362e-05
6.44841365091e-05
2.27185778861e-06
3.69225121265e-06
2.49963675363e-06
8.36965727378e-05
7.93291262509e-05
4.75835064886e-06
2.1887191123e-06
3.64514038359e-06
5.23431072437e-06
1.37359191518e-05
1.97171471275e-05
1.15143388313e-05
6.01222461611e-05
6.94192529031e-05
1.90435463273e-05
3.11246853259e-05
2.56054314872e-05
1.54142324212e-05
9.29729548669e-05
8.96353362909e-06
6.9225645819e-06
1.62455843455e-05
8.75324185911e-06
1.50112632402e-05
1.12029393985e-05
1.80557287786e-05
6.06970228089e-07
2.06646978748e-06
5.10836332684e-06
6.36840601122e-06
4.95062241698e-05
3.10695205494e-05
0.000116145130222
4.88094526691e-05
1.67251081908e-05
0.000109816065985
1.15788001462e-05
1.25272945688e-05
8.9131830899e-06
2.6739238819e-06
1.8836014207e-06
1.55919372534e-06
6.5626687351e-07
2.03987107781e-06
3.87742939828e-07
1.04960970672e-06
1.01770938085e-06
2.14489041044e-06
2.87767581898e-07
1.89270802917e-07
7.28051152547e-06
9.56988375913e-08
1.65876856932e-06
4.93671676872e-06
6.02985773253e-06
5.97293864505e-06
4.86095671954e-07
7.45205822197e-07
1.9021356571e-07
9.13898562888e-07
4.35240753692e-07
1.81120535268e-06
9.51286969746e-06
1.23969276482e-06
4.42426137567e-05
4.58671677713e-05
7.74133537234e-06
8.23201243939e-06
4.7196798138e-07
2.21837395626e-06
1.0186745148e-06
1.08110324745e-07
5.62407494326e-07
7.05853658208e-07
2.51918130987e-07
4.3476382357e-08
9.98647806011e-07
1.42011159752e-07
1.59013855998e-06
7.74456926982e-07
8.51341378963e-08
4.94134670143e-07
7.48206632134e-08
2.96441035455e-08
2.90982224077e-05
2.49723486433e-05
1.08255949139e-05
1.5045805215e-05
4.26747926857e-07
2.70714726662e-07
3.59561853532e-07
1.30141810066e-07
1.70033463623e-05
1.50561040791e-05
1.12652672718e-06
4.90676753687e-07
7.88307661237e-07
8.48436466473e-07
8.9293761498e-07
5.22477847873e-06
1.83974435353e-05
2.56085450774e-06
3.20012763084e-06
1.31868006239e-05
6.2818760398e-07
6.31124858785e-07
1.30906796633e-06
3.27792641874e-06
8.60759491325e-06
2.74346153739e-05

