# vtk DataFile Version 3.0
File Name: Molecule/sphere_excent/sphere_excent_0-s4.vtk
ASCII
DATASET UNSTRUCTURED_GRID
FIELD FieldData 1
TIME 1 1 double
0.0
POINTS 125 double
0.309016994375 -0.5 0.809016994375
0.5 -0.809016994375 0.309016994375
0.809016994375 -0.309016994375 0.5
0.0 -0.850650808352 0.525731112119
0.850650808352 -0.525731112119 0.0
1.0 0.0 0.0
0.809016994375 0.309016994375 0.5
0.850650808352 0.525731112119 0.0
0.525731112119 0.0 0.850650808352
0.5 0.809016994375 0.309016994375
0.309016994375 0.5 0.809016994375
-0.809016994375 0.309016994375 -0.5
-1.0 0.0 0.0
-0.850650808352 0.525731112119 0.0
-0.5 -0.809016994375 0.309016994375
0.0 -1.0 0.0
-0.309016994375 -0.5 0.809016994375
-0.525731112119 0.0 0.850650808352
-0.809016994375 0.309016994375 0.5
-0.809016994375 -0.309016994375 0.5
0.5 0.809016994375 -0.309016994375
0.5 0.809016994375 0.0
0.25 0.904508497187 -0.154508497188
0.25 0.904508497187 0.154508497188
0.0 1.0 0.0
0.0 0.850650808352 -0.525731112119
0.25 0.829833901363 0.417374053247
0.0 0.925325404176 0.26286555606
0.0 0.850650808352 0.525731112119
-0.25 0.829833901363 0.417374053247
-0.25 0.904508497187 0.154508497188
-0.5 0.809016994375 0.309016994375
-0.25 0.904508497187 -0.154508497188
-0.5 0.809016994375 0.0
-0.5 0.809016994375 -0.309016994375
-0.675325404176 0.667374053247 0.154508497188
-0.675325404176 0.667374053247 -0.154508497188
-0.404508497188 0.654508497187 0.559016994375
-0.154508497188 0.675325404176 0.667374053247
-0.654508497187 0.559016994375 0.404508497188
-0.559016994375 0.404508497188 0.654508497187
-0.309016994375 0.5 0.809016994375
-0.829833901363 0.417374053247 0.25
0.829833901363 -0.417374053247 -0.25
0.925325404176 -0.26286555606 0.0
0.904508497187 -0.154508497188 -0.25
0.809016994375 -0.309016994375 -0.5
0.809016994375 0.0 -0.5
0.904508497187 0.154508497188 -0.25
0.809016994375 0.309016994375 -0.5
0.667374053247 -0.154508497188 -0.675325404176
0.667374053247 0.154508497188 -0.675325404176
0.525731112119 0.0 -0.850650808352
0.654508497187 0.559016994375 -0.404508497188
0.559016994375 0.404508497188 -0.654508497187
0.404508497188 0.654508497187 -0.559016994375
0.309016994375 0.5 -0.809016994375
0.417374053247 0.25 -0.829833901363
-0.904508497187 -0.154508497188 -0.25
-0.809016994375 -0.309016994375 -0.5
-0.829833901363 -0.417374053247 -0.25
-0.925325404176 -0.26286555606 0.0
-0.850650808352 -0.525731112119 0.0
-0.675325404176 -0.667374053247 -0.154508497188
-0.675325404176 -0.667374053247 0.154508497188
-0.5 -0.809016994375 0.0
-0.5 -0.809016994375 -0.309016994375
-0.829833901363 -0.417374053247 0.25
-0.654508497187 -0.559016994375 0.404508497188
-0.904508497187 -0.154508497188 0.25
-0.654508497187 -0.559016994375 -0.404508497188
0.5 -0.809016994375 -0.309016994375
0.675325404176 -0.667374053247 -0.154508497188
0.309016994375 -0.5 -0.809016994375
0.654508497187 -0.559016994375 -0.404508497188
0.0 0.0 -1.0
-0.154508497188 0.25 0.904508497187
0.0 0.5 0.809016994375
0.154508497188 0.25 0.904508497187
0.0 0.0 1.0
-0.417374053247 0.25 0.829833901363
-0.26286555606 0.0 0.925325404176
0.417374053247 0.25 0.829833901363
0.26286555606 0.0 0.925325404176
-0.417374053247 -0.25 0.829833901363
-0.154508497188 -0.25 0.904508497187
0.0 -0.5 0.809016994375
0.154508497188 -0.25 0.904508497187
0.417374053247 -0.25 0.829833901363
0.154508497188 -0.25 -0.904508497187
0.0 -0.5 -0.809016994375
-0.154508497188 -0.25 -0.904508497187
-0.309016994375 -0.5 -0.809016994375
0.154508497188 -0.675325404176 -0.667374053247
-0.154508497188 -0.675325404176 -0.667374053247
0.0 -0.850650808352 -0.525731112119
-0.26286555606 0.0 -0.925325404176
-0.417374053247 -0.25 -0.829833901363
-0.525731112119 0.0 -0.850650808352
-0.667374053247 -0.154508497188 -0.675325404176
-0.667374053247 0.154508497188 -0.675325404176
-0.809016994375 0.0 -0.5
-0.154508497188 0.675325404176 -0.667374053247
-0.25 0.829833901363 -0.417374053247
-0.404508497188 0.654508497187 -0.559016994375
-0.309016994375 0.5 -0.809016994375
-0.559016994375 0.404508497188 -0.654508497187
-0.654508497187 0.559016994375 -0.404508497188
-0.417374053247 0.25 -0.829833901363
-0.25 -0.829833901363 -0.417374053247
-0.25 -0.904508497187 -0.154508497188
0.0 -0.925325404176 -0.26286555606
-0.559016994375 -0.404508497188 -0.654508497187
-0.404508497188 -0.654508497187 -0.559016994375
0.25 -0.829833901363 -0.417374053247
0.25 -0.904508497187 -0.154508497188
0.404508497188 -0.654508497187 -0.559016994375
-0.154508497188 0.25 -0.904508497187
0.154508497188 0.25 -0.904508497187
0.0 0.5 -0.809016994375
0.154508497188 0.675325404176 -0.667374053247
-0.077254248594 0.762988106264 0.596552582683
-0.231762745782 0.587662702088 0.738195523811
0.154508497188 0.675325404176 0.667374053247
0.0772542485935 0.587662702088 0.738195523811

CELLS 246 984
3 0 1 2
3 0 3 1
3 2 1 4
3 5 6 2
3 5 7 6
3 2 6 8
3 7 9 6
3 9 10 6
3 11 12 13
3 14 15 3
3 14 3 16
3 17 18 19
3 15 1 3
3 20 21 7
3 7 21 9
3 20 22 21
3 22 23 21
3 22 24 23
3 21 23 9
3 24 22 25
3 25 22 20
3 9 23 26
3 23 27 26
3 23 24 27
3 26 27 28
3 28 27 29
3 27 30 29
3 27 24 30
3 29 30 31
3 24 32 30
3 32 33 30
3 32 34 33
3 30 33 31
3 25 32 24
3 31 33 35
3 33 36 35
3 33 34 36
3 35 36 13
3 29 37 38
3 29 31 37
3 31 39 37
3 39 40 37
3 39 18 40
3 37 40 41
3 31 35 39
3 35 42 39
3 35 13 42
3 39 42 18
3 40 18 17
3 9 26 10
3 13 36 11
3 18 42 12
3 42 13 12
3 4 43 44
3 43 45 44
3 43 46 45
3 44 45 5
3 46 47 45
3 47 48 45
3 47 49 48
3 45 48 5
3 46 50 47
3 50 51 47
3 50 52 51
3 47 51 49
3 5 48 7
3 48 49 7
3 49 53 7
3 7 53 20
3 49 54 53
3 54 55 53
3 54 56 55
3 53 55 20
3 49 51 54
3 51 57 54
3 51 52 57
3 54 57 56
3 20 55 25
3 4 44 2
3 44 5 2
3 58 12 11
3 59 60 58
3 60 61 58
3 60 62 61
3 58 61 12
3 62 63 64
3 63 65 64
3 63 66 65
3 64 65 14
3 14 65 15
3 62 64 67
3 64 68 67
3 64 14 68
3 67 68 19
3 19 68 16
3 16 68 14
3 12 69 18
3 18 69 19
3 19 69 67
3 69 61 67
3 69 12 61
3 67 61 62
3 59 70 60
3 70 63 60
3 70 66 63
3 60 63 62
3 71 72 1
3 72 4 1
3 52 50 73
3 50 46 73
3 46 74 73
3 46 43 74
3 43 72 74
3 43 4 72
3 74 72 71
3 75 57 52
3 41 76 77
3 76 78 77
3 76 79 78
3 77 78 10
3 41 80 76
3 80 81 76
3 80 17 81
3 76 81 79
3 10 78 82
3 78 83 82
3 78 79 83
3 82 83 8
3 17 84 81
3 84 85 81
3 84 16 85
3 81 85 79
3 16 86 85
3 86 87 85
3 86 0 87
3 85 87 79
3 0 86 3
3 3 86 16
3 79 87 83
3 87 88 83
3 87 0 88
3 83 88 8
3 8 88 2
3 88 0 2
3 73 89 52
3 52 89 75
3 73 90 89
3 90 91 89
3 90 92 91
3 89 91 75
3 73 93 90
3 93 94 90
3 93 95 94
3 90 94 92
3 75 91 96
3 91 97 96
3 91 92 97
3 96 97 98
3 10 82 6
3 6 82 8
3 98 99 100
3 99 101 100
3 99 59 101
3 100 101 11
3 25 102 103
3 102 104 103
3 102 105 104
3 103 104 34
3 105 106 104
3 106 107 104
3 106 11 107
3 104 107 34
3 105 108 106
3 108 100 106
3 108 98 100
3 106 100 11
3 66 109 110
3 109 111 110
3 109 95 111
3 110 111 15
3 16 84 19
3 19 84 17
3 98 97 99
3 97 112 99
3 97 92 112
3 99 112 59
3 92 94 113
3 94 109 113
3 94 95 109
3 113 109 66
3 95 114 111
3 114 115 111
3 114 71 115
3 111 115 15
3 15 115 1
3 1 115 71
3 73 116 93
3 116 114 93
3 116 71 114
3 93 114 95
3 75 117 118
3 117 119 118
3 117 105 119
3 118 119 56
3 75 96 117
3 96 108 117
3 96 98 108
3 117 108 105
3 56 119 120
3 119 102 120
3 119 105 102
3 120 102 25
3 25 103 32
3 32 103 34
3 38 121 29
3 29 121 28
3 41 122 37
3 37 122 38
3 17 80 40
3 40 80 41
3 28 121 123
3 121 124 123
3 121 38 124
3 123 124 10
3 38 122 124
3 122 77 124
3 122 41 77
3 124 77 10
3 28 123 26
3 26 123 10
3 34 107 36
3 36 107 11
3 56 120 55
3 55 120 25
3 11 101 58
3 58 101 59
3 66 110 65
3 65 110 15
3 92 113 70
3 70 113 66
3 59 112 70
3 70 112 92
3 71 116 74
3 74 116 73
3 75 118 57
3 57 118 56

CELL_TYPES 246
5
5
5
5
5
5
5
5
5
5
5
5
5
5
5
5
5
5
5
5
5
5
5
5
5
5
5
5
5
5
5
5
5
5
5
5
5
5
5
5
5
5
5
5
5
5
5
5
5
5
5
5
5
5
5
5
5
5
5
5
5
5
5
5
5
5
5
5
5
5
5
5
5
5
5
5
5
5
5
5
5
5
5
5
5
5
5
5
5
5
5
5
5
5
5
5
5
5
5
5
5
5
5
5
5
5
5
5
5
5
5
5
5
5
5
5
5
5
5
5
5
5
5
5
5
5
5
5
5
5
5
5
5
5
5
5
5
5
5
5
5
5
5
5
5
5
5
5
5
5
5
5
5
5
5
5
5
5
5
5
5
5
5
5
5
5
5
5
5
5
5
5
5
5
5
5
5
5
5
5
5
5
5
5
5
5
5
5
5
5
5
5
5
5
5
5
5
5
5
5
5
5
5
5
5
5
5
5
5
5
5
5
5
5
5
5
5
5
5
5
5
5
5
5
5
5
5
5
5
5
5
5
5
5
5
5
5
5
5
5
5
5
5
5
5
5

CELL_DATA 246
SCALARS cell_data_0 double
LOOKUP_TABLE default
3.97094539512e-05
1.09801405741e-05
6.44327548344e-06
2.52768211151e-05
5.20429808875e-05
5.30237743871e-05
0.00015138971045
1.77431314816e-05
1.17411333408e-05
0.000123280779485
5.82740920331e-06
5.41368706897e-05
7.50611883866e-05
4.92168772476e-05
0.000107143486712
2.49408682286e-06
2.71350156099e-07
3.24863319003e-06
2.28597788097e-05
2.41907593871e-05
1.42615505477e-05
1.01190951636e-05
5.39609296105e-06
2.77101432728e-08
5.86573180162e-06
5.99142257766e-06
5.70942327844e-06
6.85389441528e-07
3.31270171138e-06
1.41181519255e-06
3.75285320894e-06
1.93433991589e-06
1.42788691257e-06
2.09373715967e-05
1.6262107551e-06
3.22298523142e-06
1.78024180711e-06
1.37124357881e-06
1.09281844643e-05
7.10448920845e-06
9.00893669275e-06
1.09010999007e-05
1.06791129183e-05
1.48303502973e-05
3.91021539879e-06
5.85300340144e-06
2.95672062001e-06
7.19155039689e-06
2.53007867911e-05
2.87945940211e-06
1.28974465902e-06
9.60659726362e-06
1.64621081949e-06
1.47981071473e-06
1.21497469226e-06
1.35015285915e-06
8.10998659262e-07
2.84195445776e-06
1.46940014424e-06
5.7666533751e-06
5.86833098505e-07
3.75467837758e-06
4.89353046432e-06
5.64242743883e-06
7.78910522871e-06
3.95915143583e-05
5.33110565833e-05
6.0487728533e-05
4.99793535091e-05
6.02476730323e-06
5.26088800745e-06
3.07250612158e-05
7.0324368727e-06
5.95719202735e-06
1.01938212532e-05
1.3550663763e-05
3.39495670301e-05
2.4250211372e-05
5.72075881922e-06
4.38585870106e-06
1.04084067239e-05
5.08670356788e-06
1.04046854175e-06
1.32201731038e-05
2.94902087204e-06
1.12354627963e-05
2.95196593787e-06
8.21827855123e-06
3.04510410183e-06
2.6850912502e-05
5.33766336597e-06
3.76501687049e-05
7.34987620828e-05
6.65023506415e-05
9.06249612107e-05
0.000106574545158
4.42901687544e-05
6.5031121568e-05
2.93386547825e-05
1.31346375694e-05
2.43655502631e-05
7.65156496413e-06
8.23822130592e-05
7.39402168673e-05
0.000106274520465
1.60106895239e-05
0.000195705121129
0.000120824481783
2.00607913807e-05
1.84680695228e-05
0.000117426599269
3.52080891731e-05
0.000127916029555
5.76037282066e-05
0.000171700950018
3.1154153273e-05
2.51021279152e-05
1.00420431444e-05
8.73977027573e-05
2.13876360713e-05
1.85151074985e-05
3.05744667522e-06
2.42271367994e-05
6.91702007639e-05
1.55978893566e-05
2.63550877242e-06
6.91443012893e-05
2.45940210931e-05
2.47442065966e-05
6.64243498e-05
4.04082956614e-05
8.35250613434e-05
2.07050696114e-05
2.66422310096e-05
3.31637884334e-05
2.93734705279e-05
3.96809463001e-05
4.01639194425e-05
8.30004284502e-05
7.33529604652e-05
2.52931243413e-05
4.58384827667e-05
3.20973583768e-05
4.00342340783e-05
1.68894742602e-05
1.13272415703e-05
7.35509880603e-06
4.92995150786e-07
2.93600196859e-06
4.37816292394e-06
5.34591326279e-06
3.24735312362e-07
5.24138145669e-06
2.17219116339e-06
3.17897729268e-06
2.26543904445e-07
2.58868286896e-06
7.01574383696e-06
3.62190632196e-05
3.85539652882e-05
7.47939188623e-06
7.2885524681e-08
1.29992907528e-06
2.83659285359e-07
6.8095056157e-06
2.61415405674e-07
1.03443381261e-06
3.29874314628e-07
7.65072075737e-07
5.06133407573e-07
3.16370633438e-07
3.04810812727e-07
1.22593091353e-06
2.17733114924e-07
7.62161690106e-06
5.01223217565e-07
1.02184354214e-05
1.00965835691e-07
6.15772668681e-06
3.65070540427e-06
2.65528669113e-05
2.27288517707e-05
7.25622247097e-06
1.0821924001e-07
2.59440420515e-06
1.69157654014e-06
2.15387705488e-06
2.10919925006e-07
5.87153346372e-06
1.00991910499e-05
6.12740592143e-06
8.76169242481e-08
1.15249838141e-05
3.68752652978e-06
1.19557084321e-05
3.28104804267e-05
5.21804781607e-06
3.11208183126e-07
1.10163856014e-05
5.64725425268e-06
3.85175871832e-06
4.69771166946e-08
1.4443246368e-06
2.34154486166e-05
3.00921082829e-06
6.07911755309e-08
6.70012426147e-06
1.23172984977e-06
1.9663510364e-05
2.65205148336e-07
1.67178668511e-06
6.91189896028e-06
4.383184752e-06
7.20288873316e-07
5.34644378604e-06
2.88357870534e-06
8.62862023049e-06
8.65343936141e-06
2.71356714361e-05
2.41779785632e-05
6.8784376595e-07
4.6992366383e-08
6.39802609779e-06
6.92509071218e-06
8.27887842341e-06
7.53234796282e-07
7.17947508062e-06
7.76255225836e-06
6.11272127774e-06
1.38927847168e-05
8.2375544778e-07
8.13799854073e-07
2.57152766173e-05
1.02234248822e-05
2.84989251447e-06
5.6403173893e-06
9.60547536618e-06
1.85674031163e-06
0.000103862803144
0.00012584100671
9.91909125326e-05
0.000103774680071
6.52173393495e-05
5.39517953126e-05
1.20679635736e-05
3.38416227694e-05

