# vtk DataFile Version 3.0
File Name: Molecule/sphere_test/sphere_test_0-s1.vtk
ASCII
DATASET UNSTRUCTURED_GRID
FIELD FieldData 1
TIME 1 1 double
0.0
POINTS 42 double
0.850650808352 -0.525731112119 0.0
0.809016994375 -0.309016994375 -0.5
1.0 0.0 0.0
0.809016994375 0.309016994375 -0.5
0.525731112119 0.0 -0.850650808352
0.850650808352 0.525731112119 0.0
0.5 0.809016994375 -0.309016994375
0.309016994375 0.5 -0.809016994375
0.0 0.850650808352 -0.525731112119
0.5 0.809016994375 0.309016994375
0.0 1.0 0.0
0.0 0.850650808352 0.525731112119
-0.5 0.809016994375 0.309016994375
-0.5 0.809016994375 -0.309016994375
-0.850650808352 0.525731112119 0.0
-0.309016994375 0.5 0.809016994375
-0.809016994375 0.309016994375 0.5
-0.525731112119 0.0 0.850650808352
0.309016994375 0.5 0.809016994375
0.0 0.0 1.0
0.525731112119 0.0 0.850650808352
-0.309016994375 -0.5 0.809016994375
0.309016994375 -0.5 0.809016994375
0.0 -0.850650808352 0.525731112119
0.809016994375 -0.309016994375 0.5
0.5 -0.809016994375 0.309016994375
0.309016994375 -0.5 -0.809016994375
0.0 0.0 -1.0
-0.309016994375 -0.5 -0.809016994375
0.0 -0.850650808352 -0.525731112119
-0.525731112119 0.0 -0.850650808352
0.809016994375 0.309016994375 0.5
-0.809016994375 -0.309016994375 -0.5
-0.809016994375 0.309016994375 -0.5
-1.0 0.0 0.0
-0.850650808352 -0.525731112119 0.0
-0.309016994375 0.5 -0.809016994375
-0.5 -0.809016994375 -0.309016994375
-0.5 -0.809016994375 0.309016994375
0.0 -1.0 0.0
-0.809016994375 -0.309016994375 0.5
0.5 -0.809016994375 -0.309016994375

CELLS 80 320
3 0 1 2
3 1 3 2
3 1 4 3
3 2 3 5
3 5 3 6
3 3 7 6
3 3 4 7
3 6 7 8
3 5 6 9
3 6 10 9
3 6 8 10
3 9 10 11
3 11 10 12
3 10 13 12
3 10 8 13
3 12 13 14
3 11 12 15
3 12 16 15
3 12 14 16
3 15 16 17
3 11 15 18
3 15 19 18
3 15 17 19
3 18 19 20
3 17 21 19
3 21 22 19
3 21 23 22
3 19 22 20
3 20 22 24
3 22 25 24
3 22 23 25
3 24 25 0
3 4 26 27
3 26 28 27
3 26 29 28
3 27 28 30
3 0 2 24
3 2 31 24
3 2 5 31
3 24 31 20
3 5 9 31
3 9 18 31
3 9 11 18
3 31 18 20
3 30 32 33
3 32 34 33
3 32 35 34
3 33 34 14
3 8 36 13
3 36 33 13
3 36 30 33
3 13 33 14
3 35 37 38
3 37 39 38
3 37 29 39
3 38 39 23
3 35 38 40
3 38 21 40
3 38 23 21
3 40 21 17
3 17 16 40
3 16 34 40
3 16 14 34
3 40 34 35
3 30 28 32
3 28 37 32
3 28 29 37
3 32 37 35
3 29 41 39
3 41 25 39
3 41 0 25
3 39 25 23
3 4 1 26
3 1 41 26
3 1 0 41
3 26 41 29
3 4 27 7
3 27 36 7
3 27 30 36
3 7 36 8

CELL_TYPES 80
5
5
5
5
5
5
5
5
5
5
5
5
5
5
5
5
5
5
5
5
5
5
5
5
5
5
5
5
5
5
5
5
5
5
5
5
5
5
5
5
5
5
5
5
5
5
5
5
5
5
5
5
5
5
5
5
5
5
5
5
5
5
5
5
5
5
5
5
5
5
5
5
5
5
5
5
5
5
5
5

CELL_DATA 80
SCALARS cell_data_0 double
LOOKUP_TABLE default
2.72152586991e-05
1.56189631786e-05
1.7002074325e-05
2.6253873418e-06
9.14963800159e-05
0.000196043185791
3.23481214659e-05
0.000168218894392
0.000217149043021
0.000521953958705
0.000263601439141
0.000161390793111
0.000543752127048
0.00119928289355
0.000283419762408
0.00075515346086
0.000370039918748
0.000753224599553
0.000620040173844
2.77490992502e-05
6.73560586107e-05
0.000242157320622
0.000201140500191
0.000155190847046
0.000153133831239
0.000174944521526
6.51627384011e-05
0.000122458823522
4.32714392453e-05
3.89351325705e-05
3.7243077076e-05
1.64597944983e-05
1.49893835308e-06
3.08368523243e-05
2.65319980172e-05
3.02040421521e-05
8.07776674916e-06
2.853690884e-05
1.56004996647e-05
3.67491165396e-05
3.54202318248e-05
1.81135950515e-06
4.54989927585e-06
6.81848350594e-05
8.10169204587e-06
5.49954019564e-06
8.0863937678e-07
1.24809453689e-05
0.000121115950502
0.000141854205373
7.97598754605e-06
0.000138756428093
1.47239814894e-06
5.03107568278e-07
1.00727538595e-06
1.25381446446e-05
1.56362417073e-06
4.21364746705e-05
3.95358078837e-05
7.64422346761e-05
1.84800991895e-05
6.98501793789e-05
7.42881444612e-05
3.19551935755e-06
3.01159865336e-05
2.92542024104e-05
2.55073335019e-05
9.14063006337e-07
1.00728631665e-06
1.14833475204e-05
1.9845907959e-06
1.97521255198e-05
1.23006662506e-05
1.45156776423e-05
3.22069346213e-05
1.56195644353e-06
2.49506191305e-05
2.88077048903e-05
3.16829722621e-06
3.29229170787e-05

