# vtk DataFile Version 3.0
File Name: Molecule/sphere_cent/sphere_cent_0-s6.vtk
ASCII
DATASET UNSTRUCTURED_GRID
FIELD FieldData 1
TIME 1 1 double
0.0
POINTS 93 double
-0.52573111 0.0 -0.85065081
-0.80901699 -0.30901699 -0.5
-0.80901699 0.30901699 -0.5
-1.0 0.0 0.0
-0.85065081 -0.52573111 0.0
-0.85065081 0.52573111 0.0
-0.30901699 -0.5 -0.80901699
-0.5 -0.80901699 -0.30901699
0.0 -0.85065081 -0.52573111
0.52573111 0.0 -0.85065081
0.80901699 -0.30901699 -0.5
0.30901699 -0.5 -0.80901699
0.5 -0.80901699 -0.30901699
0.85065081 -0.52573111 0.0
0.80901699 0.30901699 -0.5
0.68819096 0.58778525 -0.4253254
0.85065081 0.52573111 0.0
0.5 0.80901699 -0.30901699
0.58778525 0.4253254 -0.68819096
0.4253254 0.68819096 -0.58778525
0.30901699 0.5 -0.80901699
0.0 0.85065081 -0.52573111
0.5 0.80901699 0.30901699
0.68819096 0.58778525 0.4253254
0.80901699 0.30901699 0.5
0.4253254 0.68819096 0.58778525
0.58778525 0.4253254 0.68819096
0.30901699 0.5 0.80901699
0.0 0.85065081 0.52573111
0.52573111 0.0 0.85065081
-0.30901699 0.5 -0.80901699
-0.4253254 0.68819096 -0.58778525
-0.5 0.80901699 -0.30901699
-0.58778525 0.4253254 -0.68819096
-0.68819096 0.58778525 -0.4253254
0.26286556 -0.95105652 -0.16245985
0.0 -1.0 0.0
0.52573111 -0.85065081 0.0
0.26286556 -0.95105652 0.16245985
0.5 -0.80901699 0.30901699
0.0 -0.85065081 0.52573111
0.52573111 0.85065081 0.0
0.26286556 0.95105652 -0.16245985
0.26286556 0.95105652 0.16245985
0.0 1.0 0.0
-0.52573111 -0.85065081 0.0
-0.5 -0.80901699 0.30901699
-0.26286556 -0.95105652 -0.16245985
-0.26286556 -0.95105652 0.16245985
0.0 0.0 -1.0
0.16245985 0.26286556 -0.95105652
-0.16245985 0.26286556 -0.95105652
0.0 0.52573111 -0.85065081
-0.26286556 0.95105652 0.16245985
-0.5 0.80901699 0.30901699
-0.26286556 0.95105652 -0.16245985
-0.52573111 0.85065081 0.0
-0.30901699 0.5 0.80901699
0.0 0.52573111 0.85065081
-0.16245985 0.26286556 0.95105652
0.16245985 0.26286556 0.95105652
0.0 0.0 1.0
-0.52573111 0.0 0.85065081
0.30901699 -0.5 0.80901699
0.58778525 -0.4253254 0.68819096
0.80901699 -0.30901699 0.5
0.4253254 -0.68819096 0.58778525
0.68819096 -0.58778525 0.4253254
-0.68819096 -0.58778525 0.4253254
-0.80901699 -0.30901699 0.5
-0.4253254 -0.68819096 0.58778525
-0.58778525 -0.4253254 0.68819096
-0.30901699 -0.5 0.80901699
-0.4253254 0.68819096 0.58778525
-0.68819096 0.58778525 0.4253254
-0.58778525 0.4253254 0.68819096
-0.80901699 0.30901699 0.5
-0.16245985 -0.26286556 0.95105652
0.0 -0.52573111 0.85065081
0.16245985 -0.26286556 0.95105652
1.0 0.0 0.0
0.95105652 -0.16245985 0.26286556
0.95105652 0.16245985 0.26286556
0.85065081 0.0 0.52573111
0.95105652 -0.16245985 -0.26286556
0.85065081 0.0 -0.52573111
0.95105652 0.16245985 -0.26286556
0.16245985 -0.26286556 -0.95105652
0.0 -0.52573111 -0.85065081
-0.16245985 -0.26286556 -0.95105652
-0.85065081 0.0 0.52573111
-0.95105652 0.16245985 0.26286556
-0.95105652 -0.16245985 0.26286556

CELLS 182 728
3 0 1 2
3 1 3 2
3 1 4 3
3 2 3 5
3 0 6 1
3 6 7 1
3 6 8 7
3 1 7 4
3 9 10 11
3 10 12 11
3 10 13 12
3 11 12 8
3 14 15 16
3 16 15 17
3 14 18 15
3 18 19 15
3 18 20 19
3 15 19 17
3 20 18 9
3 9 18 14
3 17 19 21
3 19 20 21
3 22 23 16
3 16 23 24
3 22 25 23
3 25 26 23
3 25 27 26
3 23 26 24
3 27 25 28
3 28 25 22
3 24 26 29
3 26 27 29
3 30 31 21
3 21 31 32
3 30 33 31
3 33 34 31
3 33 2 34
3 31 34 32
3 2 33 0
3 0 33 30
3 32 34 5
3 34 2 5
3 12 35 8
3 8 35 36
3 12 37 35
3 37 38 35
3 37 39 38
3 35 38 36
3 39 37 13
3 13 37 12
3 36 38 40
3 38 39 40
3 17 41 16
3 16 41 22
3 17 42 41
3 42 43 41
3 42 44 43
3 41 43 22
3 44 42 21
3 21 42 17
3 22 43 28
3 43 44 28
3 7 45 4
3 4 45 46
3 7 47 45
3 47 48 45
3 47 36 48
3 45 48 46
3 36 47 8
3 8 47 7
3 46 48 40
3 48 36 40
3 49 50 9
3 9 50 20
3 49 51 50
3 51 52 50
3 51 30 52
3 50 52 20
3 30 51 0
3 0 51 49
3 20 52 21
3 52 30 21
3 44 53 28
3 28 53 54
3 44 55 53
3 55 56 53
3 55 32 56
3 53 56 54
3 32 55 21
3 21 55 44
3 54 56 5
3 56 32 5
3 57 58 28
3 28 58 27
3 57 59 58
3 59 60 58
3 59 61 60
3 58 60 27
3 61 59 62
3 62 59 57
3 27 60 29
3 60 61 29
3 63 64 29
3 29 64 65
3 63 66 64
3 66 67 64
3 66 39 67
3 64 67 65
3 39 66 40
3 40 66 63
3 65 67 13
3 67 39 13
3 46 68 4
3 4 68 69
3 46 70 68
3 70 71 68
3 70 72 71
3 68 71 69
3 72 70 40
3 40 70 46
3 69 71 62
3 71 72 62
3 54 73 28
3 28 73 57
3 54 74 73
3 74 75 73
3 74 76 75
3 73 75 57
3 76 74 5
3 5 74 54
3 57 75 62
3 75 76 62
3 72 77 62
3 62 77 61
3 72 78 77
3 78 79 77
3 78 63 79
3 77 79 61
3 63 78 40
3 40 78 72
3 61 79 29
3 79 63 29
3 80 81 13
3 13 81 65
3 80 82 81
3 82 83 81
3 82 24 83
3 81 83 65
3 24 82 16
3 16 82 80
3 65 83 29
3 83 24 29
3 10 84 13
3 13 84 80
3 10 85 84
3 85 86 84
3 85 14 86
3 84 86 80
3 14 85 9
3 9 85 10
3 80 86 16
3 86 14 16
3 11 87 9
3 9 87 49
3 11 88 87
3 88 89 87
3 88 6 89
3 87 89 49
3 6 88 8
3 8 88 11
3 49 89 0
3 89 6 0
3 76 90 62
3 62 90 69
3 76 91 90
3 91 92 90
3 91 3 92
3 90 92 69
3 3 91 5
3 5 91 76
3 69 92 4
3 92 3 4

CELL_TYPES 182
5
5
5
5
5
5
5
5
5
5
5
5
5
5
5
5
5
5
5
5
5
5
5
5
5
5
5
5
5
5
5
5
5
5
5
5
5
5
5
5
5
5
5
5
5
5
5
5
5
5
5
5
5
5
5
5
5
5
5
5
5
5
5
5
5
5
5
5
5
5
5
5
5
5
5
5
5
5
5
5
5
5
5
5
5
5
5
5
5
5
5
5
5
5
5
5
5
5
5
5
5
5
5
5
5
5
5
5
5
5
5
5
5
5
5
5
5
5
5
5
5
5
5
5
5
5
5
5
5
5
5
5
5
5
5
5
5
5
5
5
5
5
5
5
5
5
5
5
5
5
5
5
5
5
5
5
5
5
5
5
5
5
5
5
5
5
5
5
5
5
5
5
5
5
5
5
5
5
5
5
5
5

CELL_DATA 182
SCALARS cell_data_0 double
LOOKUP_TABLE default
6.3622562029e-08
1.61432305929e-06
8.52972176897e-08
6.39711496811e-07
9.69508882818e-08
1.56765891673e-06
6.86404366131e-07
9.25058048712e-08
4.04003881073e-07
2.1271274642e-06
4.11810966772e-07
4.23176746603e-07
9.36477744154e-08
1.46287503539e-07
2.75715994971e-07
2.62269828453e-08
2.68675592261e-07
2.5562731596e-07
1.51866117834e-07
1.58552320539e-07
1.14442112684e-07
1.35827173253e-07
1.14401756275e-07
1.41943383245e-07
2.59449756818e-07
2.63070600153e-08
2.5714069611e-07
2.5978372732e-07
1.0742983889e-07
1.36192035236e-07
1.07063079635e-07
1.37793524423e-07
5.61417801246e-08
9.38975242019e-08
2.29742183196e-07
9.37640989579e-08
5.40761313211e-07
2.1138398602e-07
4.07919224879e-07
2.99695581771e-07
2.28470510147e-07
4.28042665464e-07
4.83387904074e-07
2.80941870775e-07
5.65996082027e-07
1.07845680278e-07
2.12847972459e-07
2.27019146803e-07
2.49029216188e-07
4.93413793258e-07
4.74900127648e-08
9.59638184592e-08
1.12351013463e-07
1.43553561192e-07
2.6169902618e-07
2.66421534855e-08
2.58851611344e-07
2.58364943902e-07
1.14582792093e-07
1.41359500844e-07
1.07022548972e-07
1.3579246718e-07
4.16892795087e-07
2.93930668082e-07
5.45195975495e-07
9.35660484911e-08
2.28991674112e-07
2.24724111494e-07
2.48295508077e-07
4.08258942935e-07
6.80693883017e-08
8.21807162394e-08
1.1294172027e-07
1.78970980016e-07
2.9745185959e-07
2.56374466866e-08
2.77374154575e-07
2.59513238679e-07
1.78343666814e-07
1.69668422972e-07
1.10839180853e-07
1.2237244261e-07
1.0601043499e-07
1.33271981032e-07
2.56565579129e-07
2.46212085345e-08
2.70741582708e-07
2.60861989608e-07
9.6892167957e-08
1.46226652135e-07
1.34152740318e-07
1.43312412332e-07
1.06064598585e-07
1.37529870956e-07
2.59730267663e-07
2.63238560423e-08
2.59227270337e-07
2.57070336315e-07
1.14351873365e-07
1.42321427426e-07
1.0839926915e-07
1.36246741595e-07
1.0665795933e-07
1.31970910132e-07
2.57075433141e-07
2.59784738431e-08
2.76313748326e-07
2.63949477387e-07
1.0002808215e-07
1.52288965518e-07
1.4836753874e-07
1.55177955717e-07
1.66617079649e-07
1.84091987951e-07
2.82593261757e-07
2.6206044759e-08
2.5397361992e-07
2.79157593496e-07
1.23400546445e-07
1.24165015066e-07
9.04900839931e-08
1.46183722931e-07
1.03568063635e-07
1.36231778825e-07
2.61413539494e-07
2.465228085e-08
2.70548867716e-07
2.55826535333e-07
1.16514954781e-07
1.57434266113e-07
1.16923748787e-07
1.26878034146e-07
1.10891380498e-07
1.43773031856e-07
2.63609322588e-07
2.68380984681e-08
2.60572574072e-07
2.57660980539e-07
1.20464279578e-07
1.45897234516e-07
1.07442293822e-07
1.35290998684e-07
1.29745142091e-07
1.70538064601e-07
2.74881751493e-07
2.56448650235e-08
2.54805979769e-07
2.6452924577e-07
1.17777985073e-07
1.22985623569e-07
1.02073128306e-07
1.37067696995e-07
5.11816842967e-07
2.80579303431e-07
5.63417579701e-07
1.06274899021e-07
2.15832982438e-07
2.13786501912e-07
2.57003514245e-07
4.81633604332e-07
5.89373878269e-08
8.49154203059e-08
5.51852821592e-07
2.29868675187e-07
5.15935564716e-07
2.15774002043e-07
4.92771764694e-07
1.84327087191e-07
3.18133859618e-07
3.600547386e-07
2.26690472395e-07
4.18973954453e-07
6.57337678438e-08
8.44163655622e-08
2.12707128579e-07
9.40377832179e-08
5.38789325646e-07
2.26817476056e-07
4.72493398059e-07
2.5846680138e-07
2.7342877056e-07
3.73120477734e-07

