# vtk DataFile Version 3.0
File Name: Molecule/sphere_cent/sphere_cent_0-s8.vtk
ASCII
DATASET UNSTRUCTURED_GRID
FIELD FieldData 1
TIME 1 1 double
0.0
POINTS 2291 double
-0.62573786 -2.07703396 -3.36071154
-0.9483453 -2.4273006 -3.0346092
-1.23606798 -2.0 -3.23606798
-3.5640261 -0.95470772 -1.54474954
-3.80422607 -0.64983939 -1.05146222
-3.65192997 -0.32929432 -1.59842821
-3.85544506 0.0 -1.0656188
-3.65192997 0.32929432 -1.59842821
-3.40260323 0.0 -2.10292445
-1.05146222 -3.80422607 -0.64983939
-0.53228441 -3.95075336 -0.32896986
-1.0656188 -3.85544506 0.0
-0.53228441 -3.95075336 0.32896986
0.0 -4.0 0.0
-2.10292445 -3.40260323 0.0
-1.59842821 -3.65192997 0.32929432
-2.07703396 -3.36071154 0.62573786
-1.50015427 -1.53445493 -3.3756459
-1.815962 -1.8737194 -3.03174168
-2.06448648 -1.38461206 -3.13380679
-1.18401837 -2.80923939 -2.58964758
-1.48699214 -2.40600382 -2.82842713
-0.64248814 -2.80818578 -2.77512191
-2.10292445 0.0 3.40260323
-1.93776657 -0.52480151 3.45971734
-1.6134214 0.0 3.66017368
-1.43291518 -0.52662148 3.6972184
-0.64248814 -2.80818578 2.77512191
-0.32434517 -3.13537217 2.46256808
0.0 -2.84512694 2.81162812
0.32434517 -3.13537217 2.46256808
0.64248814 -2.80818578 2.77512191
0.95470772 -1.54474954 3.5640261
1.50015427 -1.53445493 3.3756459
1.20503552 -1.056331 3.6649767
1.73555426 -1.03956765 3.45067392
2.06448648 -1.38461206 3.13380679
2.28500664 -0.85209146 3.17059692
2.58964758 -1.18401837 2.80923939
2.35114101 -1.70130162 2.75276384
1.815962 -1.8737194 3.03174168
1.23606798 -2.0 3.23606798
2.77512191 -0.64248814 2.80818578
3.0346092 -0.9483453 2.4273006
2.82842713 -1.48699214 2.40600382
0.85209146 -3.17059692 2.28500664
0.52480151 -3.45971734 1.93776657
1.03956765 -3.45067392 1.73555426
-0.95470772 -1.54474954 -3.5640261
-1.20503552 -1.056331 -3.6649767
3.84775343 -1.09306612 0.0
3.86557039 -0.88046811 0.5311699
3.6972184 -1.43291518 0.52662148
3.6649767 -1.20503552 1.056331
3.80422607 -0.64983939 1.05146222
3.95075336 -0.32896986 0.53228441
3.5640261 -0.95470772 1.54474954
3.95075336 0.32896986 0.53228441
3.85544506 0.0 1.0656188
3.65192997 0.32929432 1.59842821
3.40260323 0.0 2.10292445
3.65192997 -0.32929432 1.59842821
3.5640261 0.95470772 1.54474954
3.36071154 0.62573786 2.07703396
3.23606798 1.23606798 2.0
3.36071154 -0.62573786 2.07703396
3.96175553 0.55180897 0.0
3.86557039 0.88046811 0.5311699
3.84775343 1.09306612 0.0
3.80422607 0.64983939 1.05146222
3.6972184 1.43291518 0.52662148
3.6649767 1.20503552 1.056331
3.45067392 1.73555426 1.03956765
3.66017368 1.6134214 0.0
3.45971734 1.93776657 0.52480151
3.3756459 1.50015427 1.53445493
3.12081748 -0.32456741 2.48095833
3.12081748 0.32456741 2.48095833
3.0346092 0.9483453 2.4273006
2.77512191 0.64248814 2.80818578
-2.28500664 -0.85209146 3.17059692
-2.46256808 -0.32434517 3.13537217
-1.73555426 -1.03956765 3.45067392
2.4273006 -3.0346092 -0.9483453
2.80818578 -2.77512191 -0.64248814
2.48095833 -3.12081748 -0.32456741
2.07703396 -3.36071154 -0.62573786
2.10292445 -3.40260323 0.0
0.53228441 -3.95075336 0.32896986
0.0 -3.96175553 0.55180897
0.5311699 -3.86557039 0.88046811
1.05146222 -3.80422607 0.64983939
0.0 -3.84775343 1.09306612
1.056331 -3.6649767 1.20503552
0.52662148 -3.6972184 1.43291518
3.13380679 2.06448648 1.38461206
3.03174168 1.815962 1.8737194
2.58964758 1.18401837 2.80923939
-1.18401837 2.80923939 -2.58964758
-0.9483453 2.4273006 -3.0346092
-1.48699214 2.40600382 -2.82842713
-1.056331 -3.6649767 1.20503552
-1.53445493 -3.3756459 1.50015427
-1.54474954 -3.5640261 0.95470772
-0.5311699 -3.86557039 0.88046811
2.80923939 -2.58964758 -1.18401837
2.40600382 -2.82842713 -1.48699214
-1.50015427 1.53445493 3.3756459
-2.06448648 1.38461206 3.13380679
-1.73555426 1.03956765 3.45067392
-2.35114101 1.70130162 2.75276384
-2.58964758 1.18401837 2.80923939
-2.28500664 0.85209146 3.17059692
-2.82842713 1.48699214 2.40600382
-1.93776657 0.52480151 3.45971734
-1.5990763 2.58735979 2.59779219
-1.48699214 2.40600382 2.82842713
-1.07211773 2.62515937 2.82118802
-1.77044919 0.27191538 3.57653068
-1.5800279 0.79245452 3.58824855
3.70245917 1.41421356 -0.54018151
1.48699214 2.40600382 2.82842713
0.9483453 2.4273006 3.0346092
1.23606798 2.0 3.23606798
-1.70130162 -2.75276384 -2.35114101
-1.38461206 -3.13380679 -2.06448648
-1.8737194 -3.03174168 -1.815962
-1.53445493 -3.3756459 -1.50015427
-1.6134214 0.0 -3.66017368
-1.93776657 0.52480151 -3.45971734
-1.43291518 0.52662148 -3.6972184
-2.75276384 2.35114101 1.70130162
-3.13380679 2.06448648 1.38461206
-3.03174168 1.815962 1.8737194
0.55180897 0.0 3.96175553
1.09306612 0.0 3.84775343
0.88046811 0.5311699 3.86557039
-2.0 -3.23606798 1.23606798
-2.20981403 -3.04162386 1.36574018
-2.4273006 -3.0346092 0.9483453
-2.62515937 -2.82118802 1.07211773
-2.40600382 -2.82842713 1.48699214
-2.58735979 -2.59779219 1.5990763
-2.80923939 -2.58964758 1.18401837
-2.90119618 -2.08999426 1.79303785
-3.26366614 -1.78806237 1.46673661
-3.13380679 -2.06448648 1.38461206
-3.03174168 -1.815962 1.8737194
-3.14359549 -1.53073373 1.94284885
-3.3756459 -1.50015427 1.53445493
-2.71809649 -1.77604872 2.3361512
-2.82842713 -1.48699214 2.40600382
-2.5849905 -2.06473002 2.24826912
-2.21963374 -1.98810358 2.6684584
-2.07333026 -2.26165272 2.56636486
-2.35114101 -1.70130162 2.75276384
-2.4363412 -2.32866147 2.15443202
-2.75276384 -2.35114101 1.70130162
-1.815962 -1.8737194 3.03174168
-1.67067262 -2.15139611 2.92922307
-1.23606798 -2.0 3.23606798
-1.48699214 -2.40600382 2.82842713
-1.89362746 -2.51559282 2.46697544
-2.26814356 -2.57739914 2.05244695
-1.70130162 -2.75276384 2.35114101
-2.07399142 -2.81823262 1.93807237
-1.8737194 -3.03174168 1.815962
-0.93378146 2.04482048 -3.30858903
-0.62573786 2.07703396 -3.36071154
-0.64410507 1.57973989 -3.61794839
3.53904008 0.16519673 -1.85685361
3.65192997 0.32929432 -1.59842821
3.76595958 -0.16190109 -1.33840818
3.39211414 0.31383638 -2.09644184
3.51737804 0.47902195 -1.84352642
3.36071154 0.62573786 -2.07703396
3.47413798 0.79290889 -1.81704727
3.6193559 0.64402559 -1.57654493
3.5640261 0.95470772 -1.54474954
3.74052178 0.49120096 -1.32936768
2.82842713 1.48699214 -2.40600382
2.71590692 1.77582948 -2.33886282
2.94004424 1.65709071 -2.14713535
2.81788477 1.94083312 -2.07188132
2.58631117 2.05350177 -2.25701685
3.03174168 1.815962 -1.8737194
2.59779219 1.5990763 -2.58735979
2.47696632 1.88366818 -2.51325129
2.35114101 1.70130162 -2.75276384
2.2096724 1.98576537 -2.67844802
2.32780785 2.16259992 -2.42991197
2.05350177 2.25701685 -2.58631117
2.08999426 1.79303785 -2.90119618
1.94083312 2.07188132 -2.81788477
1.48699214 2.40600382 -2.82842713
1.815962 1.8737194 -3.03174168
1.8737194 3.03174168 -1.815962
2.14713535 2.94004424 -1.65709071
2.25701685 2.58631117 -2.05350177
2.40600382 2.82842713 -1.48699214
1.07211773 2.62515937 -2.82118802
1.19211215 2.81149851 -2.58347532
1.54474954 3.5640261 -0.95470772
1.57654493 3.6193559 -0.64402559
1.81704727 3.47413798 -0.79290889
1.84352642 3.51737804 -0.47902195
1.59842821 3.65192997 -0.32929432
2.07703396 3.36071154 -0.62573786
1.30211988 3.69551813 -0.80475434
1.32936768 3.74052178 -0.49120096
1.85685361 3.53904008 -0.16519673
2.09644184 3.39211414 -0.31383638
1.33840818 3.76595958 0.16190109
1.59842821 3.65192997 0.32929432
-1.54474954 3.5640261 -0.95470772
-1.81704727 3.47413798 -0.79290889
-1.57654493 3.6193559 -0.64402559
-1.84352642 3.51737804 -0.47902195
-2.07703396 3.36071154 -0.62573786
-1.59842821 3.65192997 -0.32929432
-2.04482048 3.30858903 -0.93378146
-1.85685361 3.53904008 -0.16519673
-2.09644184 3.39211414 -0.31383638
-2.10292445 3.40260323 0.0
-2.82751178 2.81092585 -0.32229334
-3.13537217 2.46256808 -0.32434517
-3.13656235 2.4823329 0.0
-3.40260323 2.10292445 0.0
-2.05244695 2.26814356 2.57739914
-1.93807237 2.07399142 2.81823262
-2.46697544 1.89362746 2.51559282
-1.09877501 1.7778553 3.41056066
-0.48208141 1.84189967 3.51781226
-0.62573786 2.07703396 3.36071154
1.78806237 1.46673661 3.26366614
1.73555426 1.03956765 3.45067392
2.01847133 0.95992501 3.31727561
-3.98766934 0.16499355 -0.26696517
-3.91589109 -0.16202366 -0.79971577
-3.95075336 -0.32896986 -0.53228441
-3.95075336 0.32896986 -0.53228441
-3.51781226 0.48208141 -1.84189967
-3.41056066 1.09877501 -1.7778553
-3.36071154 0.62573786 -2.07703396
-3.5640261 0.95470772 -1.54474954
-3.23606798 1.23606798 -2.0
-3.3756459 1.50015427 -1.53445493
-3.53165245 1.35445141 -1.30111197
-3.45067392 1.73555426 -1.03956765
-3.66894393 1.19609949 -1.05270909
-3.58824855 1.5800279 -0.79245452
-3.45971734 1.93776657 -0.52480151
-3.57653068 1.77044919 -0.27191538
-3.70245917 1.41421356 -0.54018151
-3.92627134 0.71594464 -0.26798631
-3.86420761 0.88015622 -0.54150214
-3.78743679 1.25773456 -0.27097294
-3.84775343 1.09306612 0.0
-3.96175553 0.55180897 0.0
-4.0 0.0 0.0
-3.66017368 1.6134214 0.0
-2.75276384 2.35114101 -1.70130162
-2.51325129 2.47696632 -1.88366818
-2.58631117 2.05350177 -2.25701685
-2.32749102 2.16558993 -2.4275514
-2.35114101 1.70130162 -2.75276384
-3.14359549 1.53073373 -1.94284885
-2.71809649 1.77604872 -2.3361512
-2.82842713 1.48699214 -2.40600382
-3.03174168 1.815962 -1.8737194
-2.90119618 2.08999426 -1.79303785
-2.81149851 2.58347532 -1.19211215
-2.99498227 2.5399529 -0.76073677
-2.62515937 2.82118802 -1.07211773
-3.16227766 2.28824561 -0.87403205
-2.80818578 2.77512191 -0.64248814
-2.58735979 2.59779219 -1.5990763
-2.97750057 2.33536423 -1.29636579
-3.3046153 2.21041752 -0.43996833
-3.12744178 2.07226837 -1.38737583
-3.26366614 1.78806237 -1.46673661
-3.31727561 2.01847133 -0.95992501
-3.98766934 0.16499355 0.26696517
-3.92627134 0.71594464 0.26798631
-3.95075336 0.32896986 0.53228441
-3.86420761 0.88015622 0.54150214
-3.78743679 1.25773456 0.27097294
-3.70245917 1.41421356 0.54018151
-3.88947968 0.49091796 0.79432194
-3.7786987 1.03899843 0.80119812
-3.80422607 0.64983939 1.05146222
-3.57653068 1.77044919 0.27191538
2.82842713 -1.48699214 -2.40600382
2.58347532 -1.19211215 -2.81149851
2.82118802 -1.07211773 -2.62515937
2.59779219 -1.5990763 -2.58735979
2.35114101 -1.70130162 -2.75276384
[...]
CELL_DATA 4559
SCALARS cell_data_0 double
LOOKUP_TABLE default
5.06909468173e-09
6.94038121082e-09
8.41917373994e-09
9.31388024309e-09
8.37363596933e-09
8.87755891039e-09
6.72305722268e-09
1.04517583944e-08
6.74397368417e-09
6.36450336201e-09
4.63065802364e-09
1.44341833623e-09
5.53281580978e-09
3.43311429186e-09
3.14746587978e-09
5.30576785803e-09
8.83631941279e-09
7.12281288515e-09
8.24257045667e-09
6.31983187387e-09
7.2520804581e-09
6.2015727153e-09
6.32736345396e-09
5.31049881975e-09
6.96184212741e-09
5.96793598236e-09
3.65505580563e-09
5.61779982688e-09
8.04341138446e-09
4.35238619222e-09
1.24322035523e-09
3.44731607108e-09
3.20146911788e-09
2.67830707024e-09
4.39754187125e-09
1.03962104164e-08
9.01585757134e-09
8.81611202088e-09
1.05632860064e-08
9.42843159387e-09
6.95494664659e-09
8.50560953554e-09
6.56905821265e-09
7.49977610072e-09
5.1140531847e-09
2.41890039354e-09
2.80462638714e-09
1.03340180254e-10
1.83320604918e-09
1.55163865624e-09
1.83420077064e-09
1.17830151244e-09
2.10516699709e-09
4.60371848002e-09
4.08895226597e-10
1.3731953849e-09
2.69747787404e-09
1.61861194179e-09
2.37596175221e-09
6.144367604e-09
3.79470753832e-09
5.5387401121e-09
5.52794035808e-09
3.1377881165e-09
5.81971581253e-09
5.28695272047e-09
7.70314753118e-09
7.03576148648e-09
5.70191531868e-09
6.63848784749e-09
6.1155721748e-09
6.76665134022e-09
2.87886599073e-09
2.17574071264e-09
2.85856810124e-09
6.57570088709e-09
4.15374956031e-09
7.0198174696e-09
5.4520729274e-09
7.80427894121e-09
8.99000255866e-09
2.29400531145e-09
7.38060309046e-09
9.10069913797e-09
7.43839239003e-09
9.20085469178e-09
5.45602862934e-09
7.54814021545e-09
5.84262025557e-09
6.07258274282e-09
7.64261772516e-09
3.92448188591e-10
1.78108460602e-09
5.24026986901e-10
6.26502115012e-09
2.79508183737e-09
1.01044003234e-08
3.92092683403e-09
4.00149633867e-09
1.02976189991e-08
5.47489484786e-09
7.53327044087e-09
1.51996938209e-09
3.57714894816e-10
4.44664775269e-10
1.82166916752e-09
1.72155976143e-10
2.96292605214e-09
1.17116618678e-09
1.3495167113e-09
4.66424807533e-10
2.48671834591e-09
1.83225678265e-09
1.16211004567e-09
3.17136060231e-10
4.11722559632e-10
1.3839830516e-09
2.37087101763e-09
5.71071224616e-10
1.1239927644e-09
1.02979599893e-10
9.05682447227e-10
1.32580364406e-10
7.10641759104e-10
5.71317404518e-10
6.97834071568e-10
1.11926072253e-09
8.48374896389e-10
5.96719485627e-10
3.09098576096e-11
1.45338771819e-10
8.56467911479e-10
1.85522997765e-09
1.22558269248e-09
1.45354964938e-09
9.08715696383e-10
2.73085815439e-09
3.13110659855e-09
6.46670965301e-10
2.22052183089e-09
1.40954198634e-09
1.67209258896e-09
9.85260262839e-10
1.70678135373e-09
2.1883868837e-09
7.17578422294e-10
5.99419665687e-10
1.08350175584e-09
8.55483925639e-10
7.25669208188e-10
1.10932537499e-09
7.82751563601e-10
4.80310208249e-10
1.05935772116e-09
9.2408425695e-10
1.32188730032e-09
6.75041229413e-10
9.56100146189e-10
2.28782523022e-09
2.80471129742e-09
1.43103798299e-09
5.90440173994e-10
4.90799648108e-10
1.36191175625e-09
7.85348859824e-10
4.78892314788e-11
5.02692401871e-10
4.96843635452e-10
6.65258561314e-10
1.03916888623e-09
4.4687412623e-09
4.75624083335e-09
3.7768634665e-10
8.5539978252e-10
2.77991520969e-10
3.99114724784e-10
5.27823034647e-10
7.31328608797e-10
7.41053569433e-10
1.5154023691e-09
2.90418603723e-10
7.82864162957e-10
7.40763520818e-10
7.26960544368e-10
8.59186168783e-10
2.98040776999e-09
3.24172223146e-10
4.56739764759e-09
3.37083261241e-09
7.0049416782e-10
1.14284979327e-09
1.351848649e-09
1.04144522458e-09
1.17844349465e-10
5.95399981545e-10
9.8922831559e-10
9.67069666505e-10
1.07635328705e-11
4.68391820787e-10
3.50269566435e-11
1.57431114485e-09
1.22519559883e-09
8.38850440122e-10
7.72302495038e-10
7.26688038489e-10
7.57513972469e-10
6.94732641432e-10
3.68026250467e-10
5.69856968109e-10
1.20244677183e-09
1.20313817464e-10
9.10579781695e-10
3.64921681767e-10
1.48536564876e-09
1.33499852188e-09
1.98454043893e-09
4.50857623144e-09
2.81591169737e-09
1.99302308575e-09
1.59730065682e-09
3.52408417551e-09
6.84160626981e-10
7.70763601405e-10
4.19555698875e-10
4.86789939635e-10
6.95945511246e-10
2.69578545222e-10
3.19556602384e-10
9.07408076939e-11
1.26420492252e-11
8.56485101455e-10
6.36405701016e-10
1.13847575588e-09
2.06790943605e-10
6.20569090711e-10
3.14680310508e-11
1.18118976667e-09
3.91107875099e-10
4.89282010147e-11
2.75349151099e-10
9.28487857042e-10
1.26749955911e-10
1.82727310143e-10
6.50106866653e-10
9.58844875829e-10
7.61813551544e-10
5.15686543863e-10
5.14984312529e-11
4.27741464481e-10
4.68827761674e-10
1.14639632639e-09
9.49404737542e-10
2.19131438936e-09
1.68080073505e-10
7.43474898007e-10
1.22499148711e-09
9.97158611501e-10
1.80746006057e-10
2.63656867032e-09
1.58131475629e-09
1.02746707864e-09
3.88936217133e-09
1.6346893181e-09
5.51132250358e-09
3.13780642703e-09
1.36201668382e-09
1.67345477726e-09
9.74033349851e-09
2.0339618412e-10
1.14644032852e-11
5.74692949758e-10
2.74551186387e-10
6.05015899889e-11
4.74738675602e-10
5.22966834971e-10
2.27069088284e-09
2.72251755067e-09
1.71492973362e-10
3.38139606467e-09
2.44547950928e-09
3.44845878192e-09
2.85382165993e-09
3.8952020122e-09
2.49336130361e-09
1.59534875631e-09
1.64967900388e-09
2.56104438449e-09
9.66159969209e-10
2.87719120381e-10
4.10661866237e-11
9.81556854477e-10
5.37519760379e-10
7.74917507728e-10
9.57499182174e-10
1.59386989456e-09
1.9760690935e-11
4.30433612709e-10
1.6213906595e-09
3.39814163311e-10
2.48301696454e-10
6.80357193574e-10
2.7582144727e-09
9.37834736525e-10
4.80075428249e-09
5.75051824074e-10
2.85899790017e-10
7.92913872536e-10
5.09259786153e-10
2.8799712719e-09
1.34655891216e-09
1.24214409407e-09
2.28118641737e-09
1.52587694562e-09
1.87599764258e-09
6.83654331811e-10
1.2106239866e-09
7.96513029631e-11
1.72352760534e-09
1.49201115074e-09
7.65855484831e-10
2.14795186453e-10
2.24051547164e-09
8.71255908689e-10
2.46697209577e-09
3.20433740388e-09
3.87427204589e-10
7.98176168318e-10
3.86545518307e-09
6.17188518914e-10
5.14892943642e-10
8.63424946321e-10
2.90617996229e-09
1.51236344497e-09
8.7272728363e-10
1.94987218571e-10
1.73678257355e-10
1.1485581618e-09
1.56278702558e-10
3.35222575057e-09
1.63276745348e-09
1.57142897123e-09
1.78630639055e-09
1.4370212468e-09
1.89822150072e-10
1.07213434455e-09
1.28066442105e-09
1.78366271935e-09
2.14757080215e-09
1.34283808033e-09
7.82422616519e-10
4.53810267493e-10
2.93266848961e-11
6.72651307604e-09
1.36908880919e-09
3.88196475896e-09
2.7606568787e-09
1.06646846228e-09
2.71551947514e-11
4.77231244272e-10
2.17366883093e-09
3.21394041405e-09
2.98926340812e-09
2.50518534531e-09
1.0508331951e-09
3.53722443432e-10
1.6267117046e-09
6.18834215476e-10
1.54838914842e-09
7.02006503038e-10
3.10847260739e-09
2.70964851311e-09
2.37857681825e-09
2.67561269933e-09
1.71737341186e-09
2.84714556042e-09
3.86199978076e-09
1.10908392415e-09
1.79626882014e-08
1.78791864816e-09
4.50049088634e-10
1.28937033073e-09
8.72227686809e-10
2.50189815188e-09
3.55368265545e-09
4.3868361765e-09
2.08673102852e-09
2.66528286497e-09
4.00721341736e-09
2.63334622743e-09
2.65051433016e-09
2.04008540591e-09
2.58002306583e-09
2.99491674429e-09
8.15264813171e-10
1.80428782508e-09
2.02588214797e-09
1.68113214701e-09
8.62455358723e-09
1.26324651241e-09
9.20412845979e-10
2.14563655081e-09
2.11503366507e-09
6.52045993067e-10
2.54960971928e-09
2.65804518176e-09
1.22210052187e-09
2.14221533629e-09
8.36595091446e-10
2.25660634273e-09
1.11114562399e-09
1.03934881607e-09
1.79456682374e-09
1.32920690833e-09
1.62815610666e-09
2.85011611133e-10
1.44023757788e-09
2.05023583422e-09
1.04845622354e-09
6.87332907427e-10
2.41634160576e-09
1.29832143258e-09
4.7600295029e-10
1.39321032636e-09
2.07210202734e-09
8.36783119718e-10
1.72136919299e-09
2.36166640135e-09
6.9965806588e-11
2.22858069196e-10
9.08246101008e-10
1.29774194921e-09
5.63598707297e-10
1.27049714316e-09
5.1699466397e-10
4.18918157649e-09
1.61857955498e-09
8.66940413913e-10
1.60465079998e-09
1.14472179347e-09
1.22457687619e-09
2.3696709441e-09
3.61119969406e-09
6.23231002731e-10
3.61540684897e-10
9.57207840263e-10
7.94647941138e-09
1.27953298832e-08
1.04016711975e-08
4.52572905357e-09
2.77407358416e-09
3.11955523537e-09
1.40552604719e-09
8.26355746361e-10
7.10361058463e-10
5.66573815743e-10
6.22606713621e-10
2.31259607419e-10
1.78174680202e-10
2.51049741747e-11
1.55336200549e-10
2.36245501093e-10
1.03243736904e-09
3.48665753512e-10
5.94971007757e-10
1.45296041235e-09
3.75367752412e-11
2.41517147536e-10
2.15983362105e-10
3.61601798764e-10
8.70217115973e-11
1.6167740612e-10
3.26432519726e-10
6.61615125612e-10
7.65188413059e-10
6.38614213213e-10
3.27600660864e-10
6.03966332567e-10
8.63538637213e-10
2.6660938923e-09
1.66932335958e-09
4.25603628284e-10
9.92118574981e-10
8.8264655266e-10
1.26059758825e-10
7.67109672363e-11
5.22586718981e-10
1.12694425981e-09
3.63808694079e-10
4.24939057031e-10
1.3034167926e-10
4.15879376654e-10
7.90650759091e-10
2.12444752818e-09
1.9943640779e-09
1.69113419959e-09
3.716569772e-10
8.35289786275e-10
7.33010305874e-10
2.0568286138e-09
1.22158960137e-09
7.44553090917e-10
1.15027911511e-09
4.99023016951e-10
2.5182873658e-10
2.89407628367e-10
1.71654122332e-10
4.55040703336e-10
1.5856279376e-09
2.75744850954e-09
2.62622424269e-09
3.86205358806e-10
6.52905837145e-10
1.86840714317e-10
2.90159939241e-09
3.79746283253e-09
9.94330065694e-10
1.0201299775e-11
4.20582678914e-10
7.0440091953e-10
4.58958135866e-10
1.24468559587e-09
1.83754162297e-09
1.46356376947e-09
2.29583876029e-09
1.8958811e-09
1.19898550198e-09
1.04138160491e-09
3.32636654983e-10
1.42321018323e-09
1.13773615396e-09
3.72008975446e-10
4.43101856016e-10
1.09232270554e-10
4.52164085585e-10
4.89930568895e-10
2.54344371938e-09
1.73940297134e-09
1.4969062722e-09
5.73244000462e-10
2.58983065767e-09
5.48511469243e-09
3.97827901285e-09
2.84062441028e-09
3.741998811e-09
1.5331881272e-09
1.43014931529e-09
5.93596435807e-10
1.75423723282e-09
1.20910530638e-10
7.10890041784e-10
1.25199048908e-09
1.82634735493e-09
1.11054408308e-09
3.24463198815e-09
3.92856386427e-09
1.03396503393e-09
3.77011887401e-09
2.16917442843e-09
7.52687481294e-10
1.77141164763e-09
2.36402224253e-09
3.02001458118e-09
2.45148254531e-09
1.37072273798e-09
1.208895255e-10
6.2684321154e-10
2.42221366513e-09
1.78489193393e-09
1.14411701068e-09
2.27992208414e-09
1.55251835523e-09
1.71881487065e-09
1.00604097553e-09
1.33004598611e-09
1.89440761614e-09
2.35223022906e-09
9.96346041624e-10
2.19286387128e-09
1.35772644665e-09
1.48753324548e-10
1.80357671869e-09
2.04540438082e-09
2.17864194899e-09
2.93045455558e-09
2.20039806862e-09
1.797065004e-09
2.82731716813e-09
2.89978227926e-09
1.53162594826e-09
2.31745632283e-09
7.29933389327e-10
4.87399569993e-10
1.24542142513e-09
7.68423969936e-10
9.52217457915e-11
7.76344846656e-10
5.21043292815e-10
1.5884198113e-09
1.0887618926e-09
9.93194074633e-10
2.10946810326e-09
1.48911728057e-09
1.38201200257e-09
4.23748206769e-10
3.84139930116e-11
1.82444235903e-09
1.12170974154e-09
9.41755092696e-10
2.38071676907e-09
2.56168797384e-09
2.60064697194e-09
4.30835061595e-09
2.29822320373e-09
1.8093231401e-09
1.06911615818e-09
7.86110539237e-10
7.5104271315e-10
2.7533885624e-09
2.6299419841e-09
5.11467871566e-10
2.01775608067e-09
2.19669235927e-09
4.31319626596e-09
1.47962895504e-09
3.67178069751e-10
9.98518810616e-11
6.39757532421e-10
1.94411575472e-09
2.04963180348e-09
9.46396468808e-10
1.08050590826e-09
4.09395793627e-10
1.07216637191e-09
1.11862824746e-09
5.69252832001e-11
1.36639113382e-09
1.07390808942e-09
5.04866215986e-10
6.55206409646e-10
6.28580624391e-10
3.12201660273e-09
1.54154960169e-09
3.5964684686e-09
1.18884129336e-09
2.07824879899e-09
2.47120350298e-10
3.19569760141e-09
4.48258871896e-10
1.16174930494e-09
9.21651045552e-10
3.45028915751e-10
9.74720375565e-10
3.08273218935e-10
8.13236171012e-10
1.33862249446e-10
8.99722262663e-10
2.82555101006e-09
1.66706492878e-09
8.85750926337e-10
2.43465333428e-10
5.5091389887e-10
5.96516073541e-10
3.25337572186e-11
2.52655426952e-10
1.79682530775e-09
1.75431466628e-09
1.74433854596e-09
1.50445815013e-09
9.67276390464e-10
2.80433502038e-10
1.23414587511e-09
1.18185418022e-09
9.89255493645e-10
9.08840919649e-10
1.63577747789e-10
1.10474229994e-09
2.85531899887e-10
3.88099438505e-10
9.58620856055e-10
1.60755229395e-09
6.61334186377e-10
7.39144050486e-10
8.65177033348e-10
3.04737693958e-10
8.66840671069e-10
1.07187198021e-09
7.50382468581e-10
1.58923018535e-09
1.09804069922e-09
9.50153616029e-10
1.04704927393e-09
8.69163335697e-10
2.14048813017e-09
2.3907499273e-09
7.93835799668e-10
3.11981639938e-09
2.43124539155e-09
2.35144752195e-09
2.08590681875e-09
3.08928343258e-09
3.17180318141e-09
7.59302990843e-11
3.48348715029e-09
2.05580033003e-09
9.68530808527e-10
1.92437419795e-09
6.92697275812e-10
3.33282445607e-09
9.35634401758e-10
1.0528683833e-09
1.79166617419e-09
1.10285321801e-09
2.67149076984e-09
1.2539102498e-09
2.21071847741e-09
1.7741487957e-09
5.17746256916e-10
1.37504815527e-09
1.2963274777e-09
1.33711390916e-09
3.37438201385e-09
2.15480447031e-09
1.98444833729e-09
1.48977629095e-09
2.61846137159e-09
4.76218472482e-10
3.9654184395e-09
1.929205188e-09
2.27280968904e-09
2.81617955231e-09
2.61474193772e-09
1.43636241671e-09
1.60285610561e-09
1.75731649117e-09
3.60006424152e-10
1.99118886597e-09
1.03250469451e-09
9.04980711195e-10
5.19111771798e-10
8.57636992135e-10
1.98033439183e-09
1.3112103937e-09
1.28086899069e-09
4.20940551513e-10
9.7779436081e-11
3.21403721688e-10
2.7373653925e-10
2.0867493107e-09
2.73948031553e-09
3.05800869625e-09
1.52094805792e-09
4.39248735784e-10
1.96708569096e-09
2.56091504184e-09
1.06152285588e-09
1.76124308836e-10
5.0552244789e-10
2.10044423617e-09
8.45311861553e-10
4.11532469038e-10
7.26197030746e-10
2.35068595506e-09
7.52172978616e-10
1.151265011e-09
1.2947132193e-09
1.10614471238e-09
4.01640822865e-09
4.5315257692e-09
3.08145956555e-09
2.69233767257e-09
8.25015127158e-10
1.54255067818e-09
1.55626572943e-09
2.66298411557e-09
1.53936154051e-09
4.30340336869e-10
1.12755540304e-09
3.27759108566e-10
9.39857565915e-11
1.73058085178e-09
3.18806482979e-09
8.4483174897e-13
1.24206220861e-09
1.9254971537e-09
8.1477142508e-10
1.89011630789e-09
1.96187296215e-09
9.58254067372e-10
1.30987755218e-10
9.71100698595e-10
1.95467253086e-09
2.02217341924e-10
6.65087110177e-10
7.06998637158e-10
5.63879594567e-10
1.28298841744e-09
9.86241921287e-10
6.80454684967e-11
3.80795561558e-10
2.86583333476e-09
1.69572518123e-09
3.16540934675e-09
2.41841853524e-09
1.31479414388e-10
1.89208032187e-09
1.31462750467e-09
7.25938724607e-10
4.85823593138e-10
4.27661711999e-10
8.42097837234e-10
7.5038338834e-10
1.17411431382e-09
8.93268274509e-10
1.37618592047e-10
1.61019790892e-10
1.7187184302e-10
1.75397771974e-09
3.50276804003e-10
1.71624615487e-09
2.69059772021e-10
7.49859439761e-11
1.33659428346e-09
1.52819212831e-10
5.57799976532e-10
1.01919687817e-09
3.66017054092e-10
1.59417830948e-09
7.90546078368e-10
2.01157949931e-09
2.65244811139e-11
3.13645813031e-10
3.68377660902e-10
7.99223672157e-10
2.47416300205e-09
3.68528626313e-09
2.75691923785e-09
2.93584149328e-09
1.48287862588e-09
1.88580936604e-10
2.56607405179e-10
1.00227386688e-09
1.02904136733e-09
3.94320412252e-11
1.89372183941e-09
2.31623255393e-10
6.07588690363e-10
1.33608147002e-11
1.2870996881e-09
1.66608185054e-10
1.11673494806e-09
1.94040454471e-09
5.97459464629e-10
2.09314163393e-10
2.07992352108e-10
7.55534865911e-10
1.7189388377e-09
1.26662672215e-09
1.0627950809e-09
1.53576748009e-09
2.08245132208e-10
3.16779863329e-10
6.49379760922e-10
8.35665234463e-10
1.49929110232e-09
1.19624425622e-09
9.47604116994e-10
8.0406167468e-10
4.97788214795e-10
6.42712292348e-10
2.16084767945e-10
1.22079353636e-10
1.33125518061e-09
4.77745145768e-10
1.95589670846e-10
3.2862056339e-10
1.47123295934e-11
5.37011625713e-10
5.34198805242e-10
8.21499042113e-10
9.90217347532e-10
1.35985570172e-09
1.37973445752e-10
3.52417633286e-10
2.94620854841e-10
7.69406025279e-10
1.89634726698e-09
5.31178893017e-10
1.38713352652e-09
1.2615577414e-09
1.14189079761e-09
1.6792773857e-10
1.74642027868e-09
8.26517429944e-10
3.91708734177e-10
7.61122068651e-10
7.81717299118e-10
1.38697075412e-12
6.22625779397e-10
8.60921728841e-10
1.06407225505e-09
1.14752396392e-09
8.57390727348e-11
4.63955671904e-10
1.39449555923e-09
1.13045386595e-09
1.50915993059e-09
2.92779764686e-10
1.31757393552e-09
3.29848396833e-10
2.69910759735e-10
6.77353338582e-11
9.56165318416e-10
1.61450061052e-09
5.09685854601e-10
2.97270296415e-10
1.73673657727e-09
3.80490931974e-10
5.25328473404e-10
1.12258635162e-09
1.5479727165e-09
1.47823922948e-09
9.82655339449e-10
1.47793798195e-09
5.97692735563e-10
1.78689199712e-11
6.31595667838e-10
4.82394966337e-10
1.86107811302e-09
7.10914941572e-10
1.30940265178e-09
1.4054646637e-09
1.020518334e-09
8.09016262939e-10
1.56456415005e-09
5.99258951034e-10
4.23781289152e-10
1.65540681875e-09
1.93856772103e-09
7.1886659934e-10
1.45452273915e-09
1.90742232394e-09
7.66902474157e-10
3.18503210455e-10
5.70259593527e-10
3.61170876269e-10
2.07158231456e-10
2.11099638581e-10
1.94173700487e-10
7.71274574488e-10
2.48994489948e-09
2.89819933243e-09
5.74682444361e-10
9.17114442011e-10
2.33356282847e-10
4.97548957401e-10
2.86189650629e-10
8.46073310493e-10
7.6188388469e-10
3.93556328499e-10
5.48664896702e-10
1.78278628297e-09
6.28507841985e-10
4.42493918067e-10
4.09851540424e-10
3.42280660673e-09
9.98562110034e-10
2.55392797221e-10
6.25114356341e-09
2.57386011791e-10
1.00982713821e-09
8.09878197602e-10
6.69107929472e-09
1.15053729932e-10
5.37469402716e-10
4.17020740687e-10
6.34521424717e-10
2.48604563895e-09
1.32903678546e-09
2.61585982554e-09
1.22558994116e-09
1.74151756793e-09
1.35970675608e-10
4.09554751072e-10
4.87128710101e-10
5.35822520537e-10
8.40857027323e-10
5.54108841046e-10
7.60309543592e-10
9.46904868892e-11
7.80713252665e-11
6.29340087998e-10
8.50326043356e-11
2.97288118821e-10
1.47342191095e-09
1.1261175871e-09
9.53814863843e-10
2.46104275827e-09
7.33317491591e-11
2.51360851562e-11
1.29292335047e-09
5.44400812305e-10
1.32807360448e-09
1.50942916675e-09
6.32713094219e-10
9.19256549983e-10
1.58763972243e-09
1.6546897273e-09
5.86842248636e-10
1.82909277486e-09
6.42108030636e-10
1.17582454121e-09
2.01095041067e-09
2.51908101946e-09
2.96905516719e-09
6.58391777743e-11
5.9149601232e-10
1.04534585164e-09
1.96314897316e-09
1.56277134562e-09
7.37642521105e-10
1.62599823083e-09
1.12370632362e-08
9.60509724549e-11
1.928870747e-09
4.50171049184e-10
3.1862842869e-10
1.39594588783e-09
1.05142855871e-09
1.71798458151e-10
7.0738373016e-10
1.75731921235e-09
7.56628877924e-10
2.75701466408e-10
1.0287124509e-09
1.35829615419e-09
1.77010418244e-09
1.85462045533e-09
7.59168657857e-10
1.0476069312e-09
1.15285243219e-09
8.73901542132e-10
6.90378755674e-10
8.31400389183e-10
8.2425163975e-10
3.2759947004e-10
1.11763207132e-09
6.65896607033e-10
1.01679204603e-09
8.64381980232e-10
1.22973282547e-09
1.07478039696e-09
5.21820577297e-10
7.68690687834e-10
1.19413337638e-09
9.11889644268e-10
4.36360693713e-10
7.29780579896e-11
3.25785130132e-10
7.03733041533e-10
6.66620590119e-10
8.14490872804e-10
1.73375195906e-09
2.72017001481e-10
5.33223870794e-09
5.15060652196e-09
4.39503008046e-09
5.74532465672e-10
6.39074533805e-10
8.76263436489e-10
1.21338654704e-10
2.64435159206e-11
1.8212868458e-10
8.49597291695e-10
1.0100086958e-09
2.37923388256e-10
1.03379106464e-09
1.84785435298e-10
5.82749012812e-10
5.74073266409e-10
8.2989233067e-10
8.64329511281e-10
1.22833435964e-10
1.59713548862e-10
2.4096633101e-10
9.63465885247e-10
2.99694363616e-10
4.26112240015e-10
7.66907892726e-10
6.78301200411e-10
1.31742713824e-09
1.08806600121e-09
1.61137022493e-09
1.35224358408e-09
1.05817869244e-09
3.41379094281e-10
8.89239764518e-10
9.12269317262e-10
6.7060857724e-10
6.60113236777e-10
5.8120512147e-10
7.37817644644e-10
8.33361742682e-10
6.76291278616e-10
1.07499237792e-09
6.36439948258e-10
1.4023308438e-10
1.54110180278e-09
1.0995707766e-09
1.72985757664e-09
7.59311134715e-10
1.52312846967e-09
5.7558650904e-10
5.67325538404e-10
1.26881028052e-09