# vtk DataFile Version 3.0
File Name: Molecule/sphere_cent/sphere_cent_0-s2.vtk
ASCII
DATASET UNSTRUCTURED_GRID
FIELD FieldData 1
TIME 1 1 double
0.0
POINTS 162 double
0.85065081 -0.52573111 0.0
0.86266848 -0.43388856 -0.25989191
0.96193836 -0.27326653 0.0
0.95105652 -0.16245985 -0.26286556
0.80901699 -0.30901699 -0.5
1.0 0.0 0.0
0.85065081 0.0 -0.52573111
0.95105652 0.16245985 -0.26286556
0.80901699 0.30901699 -0.5
0.69378048 -0.16062203 -0.70204645
0.69378048 0.16062203 -0.70204645
0.52573111 0.0 -0.85065081
0.96193836 0.27326653 0.0
0.86266848 0.43388856 -0.25989191
0.85065081 0.52573111 0.0
0.70204645 0.69378048 -0.16062203
0.68819096 0.58778525 -0.4253254
0.5 0.80901699 -0.30901699
0.58778525 0.4253254 -0.68819096
0.4253254 0.68819096 -0.58778525
0.30901699 0.5 -0.80901699
0.43388856 0.25989191 -0.86266848
0.25989191 0.86266848 -0.43388856
0.16062203 0.70204645 -0.69378048
0.0 0.85065081 -0.52573111
0.70204645 0.69378048 0.16062203
0.52573111 0.85065081 0.0
0.5 0.80901699 0.30901699
0.26286556 0.95105652 -0.16245985
0.26286556 0.95105652 0.16245985
0.0 1.0 0.0
0.0 0.96193836 -0.27326653
0.25989191 0.86266848 0.43388856
0.0 0.96193836 0.27326653
0.0 0.85065081 0.52573111
-0.25989191 0.86266848 0.43388856
-0.26286556 0.95105652 0.16245985
-0.5 0.80901699 0.30901699
-0.26286556 0.95105652 -0.16245985
-0.52573111 0.85065081 0.0
-0.5 0.80901699 -0.30901699
-0.25989191 0.86266848 -0.43388856
-0.70204645 0.69378048 0.16062203
-0.70204645 0.69378048 -0.16062203
-0.85065081 0.52573111 0.0
-0.16062203 0.70204645 0.69378048
-0.4253254 0.68819096 0.58778525
-0.30901699 0.5 0.80901699
-0.68819096 0.58778525 0.4253254
-0.58778525 0.4253254 0.68819096
-0.80901699 0.30901699 0.5
-0.86266848 0.43388856 0.25989191
-0.43388856 0.25989191 0.86266848
-0.69378048 0.16062203 0.70204645
-0.52573111 0.0 0.85065081
0.16062203 0.70204645 0.69378048
0.0 0.52573111 0.85065081
0.30901699 0.5 0.80901699
-0.16245985 0.26286556 0.95105652
0.16245985 0.26286556 0.95105652
0.0 0.0 1.0
-0.27326653 0.0 0.96193836
0.43388856 0.25989191 0.86266848
0.27326653 0.0 0.96193836
0.52573111 0.0 0.85065081
-0.43388856 -0.25989191 0.86266848
-0.16245985 -0.26286556 0.95105652
-0.30901699 -0.5 0.80901699
0.0 -0.52573111 0.85065081
0.16245985 -0.26286556 0.95105652
0.30901699 -0.5 0.80901699
-0.16062203 -0.70204645 0.69378048
0.16062203 -0.70204645 0.69378048
0.0 -0.85065081 0.52573111
0.43388856 -0.25989191 0.86266848
0.69378048 -0.16062203 0.70204645
0.58778525 -0.4253254 0.68819096
0.80901699 -0.30901699 0.5
0.4253254 -0.68819096 0.58778525
0.68819096 -0.58778525 0.4253254
0.5 -0.80901699 0.30901699
0.25989191 -0.86266848 0.43388856
0.86266848 -0.43388856 0.25989191
0.70204645 -0.69378048 0.16062203
0.43388856 -0.25989191 -0.86266848
0.27326653 0.0 -0.96193836
0.16245985 -0.26286556 -0.95105652
0.30901699 -0.5 -0.80901699
0.0 0.0 -1.0
0.0 -0.52573111 -0.85065081
-0.16245985 -0.26286556 -0.95105652
-0.30901699 -0.5 -0.80901699
0.16062203 -0.70204645 -0.69378048
-0.16062203 -0.70204645 -0.69378048
0.0 -0.85065081 -0.52573111
-0.27326653 0.0 -0.96193836
-0.43388856 -0.25989191 -0.86266848
-0.52573111 0.0 -0.85065081
0.95105652 -0.16245985 0.26286556
0.95105652 0.16245985 0.26286556
0.85065081 0.0 0.52573111
0.80901699 0.30901699 0.5
0.86266848 0.43388856 0.25989191
0.69378048 0.16062203 0.70204645
0.68819096 0.58778525 0.4253254
0.4253254 0.68819096 0.58778525
0.58778525 0.4253254 0.68819096
-0.69378048 -0.16062203 -0.70204645
-0.69378048 0.16062203 -0.70204645
-0.85065081 0.0 -0.52573111
-0.80901699 -0.30901699 -0.5
-0.80901699 0.30901699 -0.5
-0.95105652 -0.16245985 -0.26286556
-0.95105652 0.16245985 -0.26286556
-1.0 0.0 0.0
-0.86266848 -0.43388856 -0.25989191
-0.96193836 -0.27326653 0.0
-0.85065081 -0.52573111 0.0
-0.86266848 0.43388856 -0.25989191
-0.96193836 0.27326653 0.0
-0.16062203 0.70204645 -0.69378048
-0.4253254 0.68819096 -0.58778525
-0.30901699 0.5 -0.80901699
-0.58778525 0.4253254 -0.68819096
-0.68819096 0.58778525 -0.4253254
-0.43388856 0.25989191 -0.86266848
-0.70204645 -0.69378048 -0.16062203
-0.70204645 -0.69378048 0.16062203
-0.52573111 -0.85065081 0.0
-0.5 -0.80901699 -0.30901699
-0.5 -0.80901699 0.30901699
-0.26286556 -0.95105652 -0.16245985
-0.26286556 -0.95105652 0.16245985
0.0 -1.0 0.0
-0.25989191 -0.86266848 -0.43388856
0.0 -0.96193836 -0.27326653
-0.25989191 -0.86266848 0.43388856
0.0 -0.96193836 0.27326653
-0.86266848 -0.43388856 0.25989191
-0.68819096 -0.58778525 0.4253254
-0.80901699 -0.30901699 0.5
-0.4253254 -0.68819096 0.58778525
-0.58778525 -0.4253254 0.68819096
-0.69378048 -0.16062203 0.70204645
-0.85065081 0.0 0.52573111
-0.95105652 0.16245985 0.26286556
-0.95105652 -0.16245985 0.26286556
-0.58778525 -0.4253254 -0.68819096
-0.4253254 -0.68819096 -0.58778525
-0.68819096 -0.58778525 -0.4253254
0.25989191 -0.86266848 -0.43388856
0.26286556 -0.95105652 -0.16245985
0.5 -0.80901699 -0.30901699
0.52573111 -0.85065081 0.0
0.26286556 -0.95105652 0.16245985
0.70204645 -0.69378048 -0.16062203
0.58778525 -0.4253254 -0.68819096
0.68819096 -0.58778525 -0.4253254
0.4253254 -0.68819096 -0.58778525
0.16245985 0.26286556 -0.95105652
-0.16245985 0.26286556 -0.95105652
0.0 0.52573111 -0.85065081

CELLS 320 1280
3 0 1 2
3 1 3 2
3 1 4 3
3 2 3 5
3 4 6 3
3 6 7 3
3 6 8 7
3 3 7 5
3 4 9 6
3 9 10 6
3 9 11 10
3 6 10 8
3 5 7 12
3 7 13 12
3 7 8 13
3 12 13 14
3 14 13 15
3 13 16 15
3 13 8 16
3 15 16 17
3 8 18 16
3 18 19 16
3 18 20 19
3 16 19 17
3 8 10 18
3 10 21 18
3 10 11 21
3 18 21 20
3 17 19 22
3 19 23 22
3 19 20 23
3 22 23 24
3 14 15 25
3 15 26 25
3 15 17 26
3 25 26 27
3 17 28 26
3 28 29 26
3 28 30 29
3 26 29 27
3 17 22 28
3 22 31 28
3 22 24 31
3 28 31 30
3 27 29 32
3 29 33 32
3 29 30 33
3 32 33 34
3 34 33 35
3 33 36 35
3 33 30 36
3 35 36 37
3 30 38 36
3 38 39 36
3 38 40 39
3 36 39 37
3 30 31 38
3 31 41 38
3 31 24 41
3 38 41 40
3 37 39 42
3 39 43 42
3 39 40 43
3 42 43 44
3 34 35 45
3 35 46 45
3 35 37 46
3 45 46 47
3 37 48 46
3 48 49 46
3 48 50 49
3 46 49 47
3 37 42 48
3 42 51 48
3 42 44 51
3 48 51 50
3 47 49 52
3 49 53 52
3 49 50 53
3 52 53 54
3 34 45 55
3 45 56 55
3 45 47 56
3 55 56 57
3 47 58 56
3 58 59 56
3 58 60 59
3 56 59 57
3 47 52 58
3 52 61 58
3 52 54 61
3 58 61 60
3 57 59 62
3 59 63 62
3 59 60 63
3 62 63 64
3 54 65 61
3 65 66 61
3 65 67 66
3 61 66 60
3 67 68 66
3 68 69 66
3 68 70 69
3 66 69 60
3 67 71 68
3 71 72 68
3 71 73 72
3 68 72 70
3 60 69 63
3 69 74 63
3 69 70 74
3 63 74 64
3 64 74 75
3 74 76 75
3 74 70 76
3 75 76 77
3 70 78 76
3 78 79 76
3 78 80 79
3 76 79 77
3 70 72 78
3 72 81 78
3 72 73 81
3 78 81 80
3 77 79 82
3 79 83 82
3 79 80 83
3 82 83 0
3 11 84 85
3 84 86 85
3 84 87 86
3 85 86 88
3 87 89 86
3 89 90 86
3 89 91 90
3 86 90 88
3 87 92 89
3 92 93 89
3 92 94 93
3 89 93 91
3 88 90 95
3 90 96 95
3 90 91 96
3 95 96 97
3 0 2 82
3 2 98 82
3 2 5 98
3 82 98 77
3 5 99 98
3 99 100 98
3 99 101 100
3 98 100 77
3 5 12 99
3 12 102 99
3 12 14 102
3 99 102 101
3 77 100 75
3 100 103 75
3 100 101 103
3 75 103 64
3 14 25 102
3 25 104 102
3 25 27 104
3 102 104 101
3 27 105 104
3 105 106 104
3 105 57 106
3 104 106 101
3 27 32 105
3 32 55 105
3 32 34 55
3 105 55 57
3 101 106 103
3 106 62 103
3 106 57 62
3 103 62 64
3 97 107 108
3 107 109 108
3 107 110 109
3 108 109 111
3 110 112 109
3 112 113 109
3 112 114 113
3 109 113 111
3 110 115 112
3 115 116 112
3 115 117 116
3 112 116 114
3 111 113 118
3 113 119 118
3 113 114 119
3 118 119 44
3 24 120 41
3 120 121 41
3 120 122 121
3 41 121 40
3 122 123 121
3 123 124 121
3 123 111 124
3 121 124 40
3 122 125 123
3 125 108 123
3 125 97 108
3 123 108 111
3 40 124 43
3 124 118 43
3 124 111 118
3 43 118 44
3 117 126 127
3 126 128 127
3 126 129 128
3 127 128 130
3 129 131 128
3 131 132 128
3 131 133 132
3 128 132 130
3 129 134 131
3 134 135 131
3 134 94 135
3 131 135 133
3 130 132 136
3 132 137 136
3 132 133 137
3 136 137 73
3 117 127 138
3 127 139 138
3 127 130 139
3 138 139 140
3 130 141 139
3 141 142 139
3 141 67 142
3 139 142 140
3 130 136 141
3 136 71 141
3 136 73 71
3 141 71 67
3 140 142 143
3 142 65 143
3 142 67 65
3 143 65 54
3 54 53 143
3 53 144 143
3 53 50 144
3 143 144 140
3 50 145 144
3 145 146 144
3 145 114 146
3 144 146 140
3 50 51 145
3 51 119 145
3 51 44 119
3 145 119 114
3 140 146 138
3 146 116 138
3 146 114 116
3 138 116 117
3 97 96 107
3 96 147 107
3 96 91 147
3 107 147 110
3 91 148 147
3 148 149 147
3 148 129 149
3 147 149 110
3 91 93 148
3 93 134 148
3 93 94 134
3 148 134 129
3 110 149 115
3 149 126 115
3 149 129 126
3 115 126 117
3 94 150 135
3 150 151 135
3 150 152 151
3 135 151 133
3 152 153 151
3 153 154 151
3 153 80 154
3 151 154 133
3 152 155 153
3 155 83 153
3 155 0 83
3 153 83 80
3 133 154 137
3 154 81 137
3 154 80 81
3 137 81 73
3 11 9 84
3 9 156 84
3 9 4 156
3 84 156 87
3 4 157 156
3 157 158 156
3 157 152 158
3 156 158 87
3 4 1 157
3 1 155 157
3 1 0 155
3 157 155 152
3 87 158 92
3 158 150 92
3 158 152 150
3 92 150 94
3 11 85 21
3 85 159 21
3 85 88 159
3 21 159 20
3 88 160 159
3 160 161 159
3 160 122 161
3 159 161 20
3 88 95 160
3 95 125 160
3 95 97 125
3 160 125 122
3 20 161 23
3 161 120 23
3 161 122 120
3 23 120 24

CELL_TYPES 320
5
5
5
5
5
5
5
5
5
5
5
5
5
5
5
5
5
5
5
5
5
5
5
5
5
5
5
5
5
5
5
5
5
5
5
5
5
5
5
5
5
5
5
5
5
5
5
5
5
5
5
5
5
5
5
5
5
5
5
5
5
5
5
5
5
5
5
5
5
5
5
5
5
5
5
5
5
5
5
5
5
5
5
5
5
5
5
5
5
5
5
5
5
5
5
5
5
5
5
5
5
5
5
5
5
5
5
5
5
5
5
5
5
5
5
5
5
5
5
5
5
5
5
5
5
5
5
5
5
5
5
5
5
5
5
5
5
5
5
5
5
5
5
5
5
5
5
5
5
5
5
5
5
5
5
5
5
5
5
5
5
5
5
5
5
5
5
5
5
5
5
5
5
5
5
5
5
5
5
5
5
5
5
5
5
5
5
5
5
5
5
5
5
5
5
5
5
5
5
5
5
5
5
5
5
5
5
5
5
5
5
5
5
5
5
5
5
5
5
5
5
5
5
5
5
5
5
5
5
5
5
5
5
5
5
5
5
5
5
5
5
5
5
5
5
5
5
5
5
5
5
5
5
5
5
5
5
5
5
5
5
5
5
5
5
5
5
5
5
5
5
5
5
5
5
5
5
5
5
5
5
5
5
5
5
5
5
5
5
5
5
5
5
5
5
5
5
5
5
5
5
5
5
5
5
5
5
5
5
5
5
5
5
5
5
5
5
5
5
5

CELL_DATA 320
SCALARS cell_data_0 double
LOOKUP_TABLE default
2.80380706281e-07
1.58126196122e-07
3.30726545259e-07
4.59308450949e-07
5.039747369e-07
1.57790180281e-07
5.49830977624e-07
4.3390310547e-07
4.36815138662e-07
9.20577789077e-08
2.52458862587e-07
4.67316923064e-07
4.71618644442e-07
1.40062856109e-07
3.60437088861e-07
1.7324644909e-07
1.23231391514e-07
1.20449336547e-07
3.77102309878e-07
3.52880768773e-07
5.00023758156e-07
2.54777400211e-07
4.62351915468e-07
5.21872435564e-07
4.56130488374e-07
1.38620184575e-07
2.3615189522e-07
3.21936898203e-07
4.52848837888e-07
3.87221389505e-08
3.68300530851e-07
1.61339141453e-07
8.56829842248e-08
1.20042274977e-07
4.37524839148e-07
3.94996777621e-07
4.82822001552e-07
3.24590834185e-07
4.82838930097e-07
4.22710204507e-07
3.82361965472e-07
1.0037722711e-07
1.19169424029e-07
4.37004535623e-07
4.10315286707e-07
2.32786457801e-07
4.34820171128e-07
1.8717352992e-07
1.56558185098e-07
2.27143214897e-07
5.27257935205e-07
4.47020766414e-07
5.4414902162e-07
3.87271102186e-07
4.15911868945e-07
3.51955288751e-07
4.99787672173e-07
4.25863054214e-08
1.9478773242e-07
3.77736746728e-07
3.69405017653e-07
1.79502816908e-07
4.98066053079e-07
1.84047941474e-07
1.58714337846e-07
4.55797463654e-08
2.87396433624e-07
4.3498864369e-07
4.77790394708e-07
3.4097976061e-07
4.79739329177e-07
5.81447934553e-07
4.82086632192e-07
1.37331982489e-07
2.08320478102e-07
3.4549123342e-07
4.18683979979e-07
4.19522041431e-09
4.73450316753e-07
9.66169329806e-08
1.23849798714e-07
1.15842705281e-07
7.06157485907e-07
4.15122229107e-07
4.37113137298e-07
2.87889237928e-07
4.23394351361e-07
5.28325904484e-07
3.22632975848e-07
5.00515051056e-08
2.07579481336e-07
3.13771333036e-07
4.17770077123e-07
4.04792975552e-08
3.50354315306e-07
1.31134285107e-07
4.1750911898e-09
4.66056889566e-08
1.36523425738e-07
4.01925073096e-07
6.88292935716e-07
1.75809269814e-07
4.06296584907e-07
4.37234175948e-07
3.48639743887e-07
2.46890646574e-08
1.85715317209e-07
4.42857297403e-07
5.46031948429e-07
5.25093784614e-08
4.38990672986e-07
3.01370574296e-07
2.38315746596e-07
2.93103665593e-08
4.21513680841e-07
4.65545485947e-07
5.16755087553e-07
2.74964204829e-07
5.55552859762e-07
5.21143647376e-07
4.38471910451e-07
4.20521816215e-08
1.00183660741e-07
3.93117752043e-07
3.91876902573e-07
8.13559093122e-08
3.8564555899e-07
1.06564917799e-07
2.4219678281e-09
9.23957966227e-09
2.79866786272e-07
4.44877948707e-07
5.5974936596e-07
2.97418744693e-07
5.83448810956e-07
3.79093385742e-07
4.56025609981e-07
7.49443292277e-08
6.54602901459e-08
4.13335500546e-07
3.50986830859e-07
5.32363526908e-08
3.9250937088e-07
1.26108386859e-07
8.32507919272e-08
1.4162407554e-07
3.98021418511e-07
3.95049912029e-07
5.17353448444e-07
2.64471480152e-07
4.42368009574e-07
5.24245124884e-07
4.38326896522e-07
1.47198385114e-07
1.63181319021e-07
3.86676070306e-07
3.99510975173e-07
1.43811425297e-07
4.74422431669e-07
2.07791482213e-07
1.57340254475e-07
5.33823895288e-08
5.94068083479e-07
3.30842963793e-07
4.59604848982e-07
2.96003163313e-07
4.99927048433e-07
4.46543662845e-07
3.46806153043e-07
1.14991135933e-07
1.80812714035e-07
4.11476542427e-07
4.21396427217e-07
1.73955897939e-07
3.12282001818e-07
9.93850332202e-08
2.76788413608e-07
5.48409454111e-08
5.43796364015e-07
4.24647681506e-07
5.06614260685e-07
2.32636680785e-07
4.95463953831e-07
5.07590314595e-07
3.80106456469e-07
8.05822209117e-08
1.95936222484e-07
3.66280646928e-07
3.80569553933e-07
1.19995803474e-07
4.42218262823e-07
6.11466520758e-08
2.09636410524e-07
8.78249826941e-08
4.06531935941e-07
4.07673076301e-07
4.89238636981e-07
3.51616097544e-07
5.75544910131e-07
5.85156306177e-07
4.25408430144e-07
8.41255923685e-09
1.82295097276e-07
4.10760806424e-07
4.49544599413e-07
1.68516506468e-07
4.49032731504e-07
6.38251180805e-08
1.8582863491e-07
7.32149343747e-08
4.02437001754e-07
4.57094374881e-07
6.11709752911e-07
4.95210444363e-07
5.90168656301e-07
5.32494909659e-07
5.38086553626e-07
1.09215193686e-07
2.23383572885e-07
4.29605254314e-07
4.63005777759e-07
2.85393082376e-10
4.9960532994e-07
1.88723290486e-07
1.63054108068e-08
6.65192835581e-10
4.51798290606e-07
4.13135387794e-07
5.05832811232e-07
2.33056934772e-07
5.2520597619e-07
4.57464970479e-07
3.73045625227e-07
7.47697572452e-08
1.89730172517e-07
3.03893919062e-07
4.06607007062e-07
6.92849764215e-10
3.97858603089e-07
1.58205694531e-07
2.11061648583e-07
9.35026349251e-08
5.33835656042e-07
3.63851012838e-07
4.52207390916e-07
2.89772677548e-07
4.54811713665e-07
5.99366089931e-07
4.0152944235e-07
1.3746785281e-07
2.09365480752e-07
3.50015391916e-07
3.09497232862e-07
8.06809956238e-08
4.18143649977e-07
7.10296375729e-08
2.08061346842e-07
1.20383913627e-07
3.93384316274e-07
3.94794544755e-07
5.79967658132e-07
2.27056217453e-07
4.5210201024e-07
4.60162412608e-07
4.17271228353e-07
2.09347700185e-08
1.82464612914e-07
5.17253467001e-07
3.12557400449e-07
1.5439878752e-07
3.60748184261e-07
1.81511065584e-07
1.94908331949e-07
1.69438696945e-08
4.03090250883e-07
3.9180960824e-07
4.18051888514e-07
2.28759700739e-07
4.20485031158e-07
5.60595430359e-07
3.00723448222e-07
1.22181952969e-07
2.84648203799e-07
4.17965781225e-07
4.91904952162e-07
8.16205226387e-08
3.82712165127e-07
1.20965702615e-07
3.99519713626e-08
7.57546666814e-08
2.88262070755e-07
3.88295961486e-07
6.8624575985e-07
2.85451727927e-07
4.55386899828e-07
4.26831906216e-07
3.15241321794e-07
5.61414171967e-08
2.27513193826e-07
3.39728064616e-07
3.2224538906e-07
1.11124848087e-08
3.86075913e-07
7.39989111308e-08
2.70408008799e-07
1.06517205726e-07
3.22768833112e-07
3.59930044178e-07
4.51986596161e-07
2.44110526532e-07
3.99933174035e-07
6.26265881316e-07
4.08432046254e-07
4.29653553586e-08
1.49293438719e-07
4.65701602604e-07
3.62880498139e-07
1.41196593621e-08
5.32924296577e-07
1.93068559918e-07

