# vtk DataFile Version 3.0
File Name: Molecule/sphere_cent/sphere_cent_0-s3.vtk
ASCII
DATASET UNSTRUCTURED_GRID
FIELD FieldData 1
TIME 1 1 double
0.0
POINTS 74 double
0.85065081 -0.52573111 0.0
0.80901699 -0.30901699 -0.5
1.0 0.0 0.0
0.80901699 0.30901699 -0.5
0.52573111 0.0 -0.85065081
0.85065081 0.52573111 0.0
0.5 0.80901699 -0.30901699
0.30901699 0.5 -0.80901699
0.0 0.85065081 -0.52573111
0.0 0.85065081 0.52573111
0.0 1.0 0.0
-0.5 0.80901699 0.30901699
-0.5 0.80901699 -0.30901699
-0.85065081 0.52573111 0.0
-0.30901699 0.5 0.80901699
0.30901699 0.5 0.80901699
0.0 0.0 1.0
0.52573111 0.0 0.85065081
0.30901699 -0.5 -0.80901699
0.0 0.0 -1.0
-0.30901699 -0.5 -0.80901699
0.0 -0.85065081 -0.52573111
-0.52573111 0.0 -0.85065081
0.5 0.80901699 0.30901699
0.80901699 0.30901699 0.5
-0.80901699 -0.30901699 -0.5
-0.80901699 0.30901699 -0.5
-1.0 0.0 0.0
-0.85065081 -0.52573111 0.0
-0.5 -0.80901699 0.30901699
-0.80901699 -0.30901699 0.5
-0.30901699 -0.5 0.80901699
0.0 -0.85065081 0.52573111
-0.5 -0.80901699 -0.30901699
0.5 -0.80901699 -0.30901699
0.0 -1.0 0.0
0.5 -0.80901699 0.30901699
0.52573111 0.85065081 0.0
0.26286556 0.95105652 -0.16245985
0.26286556 0.95105652 0.16245985
-0.4253254 0.68819096 0.58778525
-0.68819096 0.58778525 0.4253254
-0.58778525 0.4253254 0.68819096
-0.80901699 0.30901699 0.5
-0.52573111 0.0 0.85065081
-0.52573111 -0.85065081 0.0
-0.26286556 -0.95105652 -0.16245985
-0.26286556 -0.95105652 0.16245985
-0.85065081 0.0 0.52573111
-0.95105652 0.16245985 0.26286556
-0.95105652 -0.16245985 0.26286556
0.58778525 -0.4253254 -0.68819096
0.68819096 -0.58778525 -0.4253254
0.4253254 -0.68819096 -0.58778525
-0.27326653 0.0 0.96193836
-0.43388856 -0.25989191 0.86266848
-0.16245985 -0.26286556 0.95105652
0.0 -0.52573111 0.85065081
0.16245985 -0.26286556 0.95105652
0.30901699 -0.5 0.80901699
0.58778525 -0.4253254 0.68819096
0.80901699 -0.30901699 0.5
0.4253254 -0.68819096 0.58778525
0.68819096 -0.58778525 0.4253254
0.95105652 -0.16245985 0.26286556
0.95105652 0.16245985 0.26286556
0.85065081 0.0 0.52573111
-0.30901699 0.5 -0.80901699
-0.4253254 0.68819096 -0.58778525
-0.58778525 0.4253254 -0.68819096
-0.68819096 0.58778525 -0.4253254
0.16245985 0.26286556 -0.95105652
-0.16245985 0.26286556 -0.95105652
0.0 0.52573111 -0.85065081

CELLS 144 576
3 0 1 2
3 1 3 2
3 1 4 3
3 2 3 5
3 5 3 6
3 3 7 6
3 3 4 7
3 6 7 8
3 9 10 11
3 10 12 11
3 10 8 12
3 11 12 13
3 9 14 15
3 14 16 15
3 15 16 17
3 4 18 19
3 18 20 19
3 18 21 20
3 19 20 22
3 5 23 24
3 23 15 24
3 23 9 15
3 24 15 17
3 22 25 26
3 25 27 26
3 25 28 27
3 26 27 13
3 28 29 30
3 29 31 30
3 29 32 31
3 22 20 25
3 20 33 25
3 20 21 33
3 25 33 28
3 21 34 35
3 34 36 35
3 34 0 36
3 35 36 32
3 6 37 5
3 5 37 23
3 6 38 37
3 38 39 37
3 38 10 39
3 37 39 23
3 10 38 8
3 8 38 6
3 23 39 9
3 39 10 9
3 11 40 9
3 9 40 14
3 11 41 40
3 41 42 40
3 41 43 42
3 40 42 14
3 43 41 13
3 13 41 11
3 14 42 44
3 42 43 44
3 33 45 28
3 28 45 29
3 33 46 45
3 46 47 45
3 46 35 47
3 45 47 29
3 35 46 21
3 21 46 33
3 29 47 32
3 47 35 32
3 43 48 44
3 44 48 30
3 43 49 48
3 49 50 48
3 49 27 50
3 48 50 30
3 27 49 13
3 13 49 43
3 30 50 28
3 50 27 28
3 1 51 4
3 4 51 18
3 1 52 51
3 52 53 51
3 52 34 53
3 51 53 18
3 34 52 0
3 0 52 1
3 18 53 21
3 53 34 21
3 44 54 14
3 14 54 16
3 44 55 54
3 55 56 54
3 55 31 56
3 54 56 16
3 31 57 56
3 57 58 56
3 57 59 58
3 56 58 16
3 59 57 32
3 32 57 31
3 16 58 17
3 58 59 17
3 59 60 17
3 17 60 61
3 59 62 60
3 62 63 60
3 62 36 63
3 60 63 61
3 36 62 32
3 32 62 59
3 61 63 0
3 63 36 0
3 2 64 0
3 0 64 61
3 2 65 64
3 65 66 64
3 65 24 66
3 64 66 61
3 24 65 5
3 5 65 2
3 61 66 17
3 66 24 17
3 67 68 8
3 8 68 12
3 67 69 68
3 69 70 68
3 69 26 70
3 68 70 12
3 26 69 22
3 22 69 67
3 12 70 13
3 70 26 13
3 31 55 30
3 30 55 44
3 19 71 4
3 4 71 7
3 19 72 71
3 72 73 71
3 72 67 73
3 71 73 7
3 67 72 22
3 22 72 19
3 7 73 8
3 73 67 8

CELL_TYPES 144
5
5
5
5
5
5
5
5
5
5
5
5
5
5
5
5
5
5
5
5
5
5
5
5
5
5
5
5
5
5
5
5
5
5
5
5
5
5
5
5
5
5
5
5
5
5
5
5
5
5
5
5
5
5
5
5
5
5
5
5
5
5
5
5
5
5
5
5
5
5
5
5
5
5
5
5
5
5
5
5
5
5
5
5
5
5
5
5
5
5
5
5
5
5
5
5
5
5
5
5
5
5
5
5
5
5
5
5
5
5
5
5
5
5
5
5
5
5
5
5
5
5
5
5
5
5
5
5
5
5
5
5
5
5
5
5
5
5
5
5
5
5
5
5

CELL_DATA 144
SCALARS cell_data_0 double
LOOKUP_TABLE default
2.99428126405e-07
3.01256115343e-07
8.29864054615e-08
7.76089076287e-08
9.87757684436e-08
2.95835747755e-07
7.68784460021e-08
3.14884374429e-07
2.69013637387e-07
2.33207574717e-07
2.62631560806e-07
2.58220969649e-07
1.46268270259e-07
5.72148978447e-07
1.2375247008e-07
3.10310787139e-07
2.88058583453e-07
6.80590599039e-08
1.23893287707e-08
3.25262571181e-07
2.82759008236e-07
9.33189610923e-08
1.01982927126e-07
5.26921213004e-09
2.99684721399e-07
6.9173238848e-08
2.98719006735e-07
2.06599658285e-07
5.02010533774e-07
2.16993380062e-07
4.32951098253e-07
3.43743265218e-07
1.9399906616e-08
3.11686629613e-08
2.65189210757e-07
2.35309082811e-07
2.61128633757e-07
2.66454762407e-07
7.21983543642e-08
1.55400115588e-07
2.31907237889e-07
3.87709637783e-07
2.40267796108e-07
2.38228777357e-07
1.51059576684e-07
1.56068553371e-07
6.43008586923e-08
1.89866264883e-07
1.09815562522e-07
4.14344890514e-08
2.56890979694e-07
3.01678009758e-07
2.52136845413e-07
2.91781501252e-07
1.99518599517e-07
2.51182459135e-07
1.67495384473e-08
1.4887318123e-07
5.7304078127e-08
1.70054809172e-07
2.32075507658e-07
3.89483943704e-07
2.41252966805e-07
2.44137994986e-07
1.50548672241e-07
7.52331198173e-08
1.55245272353e-07
1.95105526692e-07
1.86270546743e-07
3.74555909773e-08
2.5218555088e-07
3.01327793744e-07
2.53009308808e-07
2.95875078692e-07
2.3181373037e-07
1.74074953126e-07
1.01629638925e-07
8.86144884594e-08
7.20096762842e-08
1.54172683545e-07
2.30806971374e-07
3.8713365031e-07
2.38547049869e-07
2.40627580626e-07
1.51496189842e-07
1.5906351056e-07
6.77602888012e-08
1.88828640627e-07
1.4328641729e-07
1.22366640709e-07
2.85479037051e-07
2.42953208969e-07
2.19430441172e-07
2.1605193194e-07
1.21194650237e-07
2.67143934561e-07
2.46592523662e-07
1.18461061078e-07
1.84827078537e-07
2.55583254674e-07
1.70413270963e-07
1.59902973776e-07
1.08808809412e-07
9.23391969955e-08
2.56706388187e-07
2.31143323802e-07
2.83335440957e-07
2.56858299222e-07
2.05558336663e-07
2.05640610078e-07
2.21428304802e-07
2.49042702051e-07
2.33382343686e-07
1.69763814333e-07
2.58604191257e-07
3.04557687349e-07
2.60327683159e-07
2.30472136963e-07
1.06787767708e-07
5.92804457114e-08
2.06429009704e-07
1.99533144011e-07
1.89727663422e-07
2.44702400764e-07
2.38087154782e-07
3.09151872033e-07
2.62179861399e-07
2.57113642821e-07
1.63981506196e-07
1.86457408618e-07
1.17590353756e-07
1.68602063039e-07
1.05157019155e-07
9.41268258103e-08
1.07268600151e-07
5.34651830019e-08
2.62853024279e-07
3.05113506119e-07
2.35790301984e-07
2.55782811656e-07
2.03324964717e-07
1.69430519517e-07
2.27273634979e-07
1.51861111376e-07

