# vtk DataFile Version 3.0
File Name: Molecule/sphere_cent/sphere_cent_0-s17.vtk
ASCII
DATASET UNSTRUCTURED_GRID
FIELD FieldData 1
TIME 1 1 double
0.0
POINTS 207 double
1.23606798 -2.0 -3.23606798
0.64983939 -1.05146222 -3.80422607
2.10292445 0.0 -3.40260323
0.0 0.0 -4.0
0.0 -2.10292445 -3.40260323
-0.64983939 -1.05146222 -3.80422607
-1.23606798 -2.0 -3.23606798
0.0 -3.40260323 -2.10292445
-2.10292445 0.0 -3.40260323
2.0 3.23606798 1.23606798
2.75276384 2.35114101 1.70130162
3.40260323 2.10292445 0.0
3.23606798 1.23606798 2.0
1.70130162 2.75276384 2.35114101
2.35114101 1.70130162 2.75276384
0.64983939 1.05146222 -3.80422607
-0.64983939 1.05146222 -3.80422607
0.0 2.10292445 -3.40260323
-1.23606798 2.0 -3.23606798
1.23606798 2.0 -3.23606798
0.0 3.40260323 -2.10292445
-1.70130162 2.75276384 -2.35114101
-2.0 3.23606798 -1.23606798
-2.35114101 1.70130162 -2.75276384
-2.75276384 2.35114101 -1.70130162
-3.23606798 1.23606798 -2.0
2.0 -3.23606798 -1.23606798
1.05146222 -3.80422607 -0.64983939
0.0 -4.0 0.0
2.10292445 -3.40260323 0.0
1.05146222 -3.80422607 0.64983939
3.40260323 -2.10292445 0.0
3.23606798 -1.23606798 -2.0
2.35114101 -1.70130162 -2.75276384
2.75276384 -2.35114101 -1.70130162
1.70130162 -2.75276384 -2.35114101
-1.05146222 -3.80422607 -0.64983939
-1.05146222 -3.80422607 0.64983939
-2.10292445 -3.40260323 0.0
-1.70130162 -2.75276384 2.35114101
-2.35114101 -1.70130162 2.75276384
-2.75276384 -2.35114101 1.70130162
-1.23606798 -2.0 3.23606798
4.0 0.0 0.0
3.80422607 0.64983939 1.05146222
3.80422607 -0.64983939 1.05146222
3.40260323 0.0 2.10292445
-3.80422607 0.64983939 1.05146222
-3.80422607 -0.64983939 1.05146222
-3.40260323 0.0 2.10292445
-2.35114101 -1.70130162 -2.75276384
-1.70130162 -2.75276384 -2.35114101
-2.75276384 -2.35114101 -1.70130162
-3.23606798 -1.23606798 -2.0
-3.80422607 -0.64983939 -1.05146222
-3.80422607 0.64983939 -1.05146222
-3.40260323 0.0 -2.10292445
-3.45067392 1.73555426 -1.03956765
-3.84775343 1.09306612 0.0
-4.0 0.0 0.0
-3.40260323 2.10292445 0.0
1.70130162 -2.75276384 2.35114101
2.75276384 -2.35114101 1.70130162
2.35114101 -1.70130162 2.75276384
3.23606798 -1.23606798 2.0
3.45067392 -1.73555426 1.03956765
2.80818578 -2.77512191 0.64248814
2.0 -3.23606798 1.23606798
0.0 -2.10292445 3.40260323
0.64983939 -1.05146222 3.80422607
-0.64983939 -1.05146222 3.80422607
1.23606798 -2.0 3.23606798
0.0 0.0 4.0
-0.64248814 -2.80818578 2.77512191
0.64248814 -2.80818578 2.77512191
0.0 -3.40260323 2.10292445
-2.0 3.23606798 1.23606798
-2.75276384 2.35114101 1.70130162
-1.70130162 2.75276384 2.35114101
-2.35114101 1.70130162 2.75276384
-1.23606798 2.0 3.23606798
-0.64983939 1.05146222 3.80422607
0.0 2.10292445 3.40260323
2.0 3.23606798 -1.23606798
2.10292445 3.40260323 0.0
1.05146222 3.80422607 -0.64983939
1.05146222 3.80422607 0.64983939
0.0 4.0 0.0
-1.05146222 3.80422607 -0.64983939
-2.10292445 3.40260323 0.0
-1.05146222 3.80422607 0.64983939
3.45067392 -1.73555426 -1.03956765
3.84775343 -1.09306612 0.0
3.80422607 -0.64983939 -1.05146222
3.40260323 0.0 -2.10292445
3.80422607 0.64983939 -1.05146222
3.23606798 1.23606798 -2.0
2.75276384 2.35114101 -1.70130162
2.35114101 1.70130162 -2.75276384
1.70130162 2.75276384 -2.35114101
2.77512191 0.64248814 -2.80818578
1.73555426 1.03956765 -3.45067392
-3.23606798 -1.23606798 2.0
-3.45067392 -1.73555426 1.03956765
3.36071154 -0.62573786 2.07703396
2.77512191 -0.64248814 2.80818578
2.82842712 0.0 2.82842712
2.10292445 0.0 3.40260323
-3.95075336 -0.32896986 0.53228441
-3.5640261 -0.95470772 1.54474954
-3.70245917 -1.41421356 0.54018151
-3.40260323 -2.10292445 0.0
-3.84775343 -1.09306612 0.0
-3.45067392 -1.73555426 -1.03956765
-3.5640261 -0.95470772 -1.54474954
-3.95075336 -0.32896986 -0.53228441
-3.70245917 -1.41421356 -0.54018151
-1.09306612 0.0 3.84775343
1.09306612 0.0 3.84775343
-1.03956765 3.45067392 1.73555426
0.0 1.0656188 3.85544506
0.64983939 1.05146222 3.80422607
-0.32896986 0.53228441 3.95075336
0.32896986 0.53228441 3.95075336
-1.41421356 0.54018151 3.70245917
-2.10292445 0.0 3.40260323
1.41421356 0.54018151 3.70245917
1.23606798 2.0 3.23606798
0.53228441 3.95075336 0.32896986
0.54018151 3.70245917 1.41421356
0.0 3.84775343 1.09306612
0.0 3.40260323 2.10292445
-0.53228441 3.95075336 0.32896986
-0.54018151 3.70245917 1.41421356
-1.54474954 3.5640261 0.95470772
-2.82842713 -1.48699214 2.40600382
-2.77512191 -0.64248814 2.80818578
-2.28824561 -0.87403205 3.16227766
-3.23606798 1.23606798 2.0
-3.36071154 0.62573786 2.07703396
-2.77512191 0.64248814 2.80818578
-2.82842712 0.0 2.82842712
-3.36071154 -0.62573786 2.07703396
1.815962 -1.8737194 3.03174168
1.73555426 -1.03956765 3.45067392
2.28824561 -0.87403205 3.16227766
-2.82842713 1.48699214 2.40600382
-1.815962 1.8737194 3.03174168
-2.80818578 2.77512191 0.64248814
-1.73555426 1.03956765 3.45067392
-2.28824561 0.87403205 3.16227766
-2.07703396 3.36071154 0.62573786
-2.82842712 2.82842712 0.0
-2.40600382 2.82842713 -1.48699214
-2.77512191 0.64248814 -2.80818578
-2.80818578 2.77512191 -0.64248814
-3.16227766 2.28824561 -0.87403205
-2.82842712 -2.82842712 0.0
-2.0 -3.23606798 -1.23606798
-2.80818578 -2.77512191 0.64248814
-2.07703396 -3.36071154 0.62573786
-2.0 -3.23606798 1.23606798
-2.40600382 -2.82842713 1.48699214
-3.16227766 -2.28824561 0.87403205
-3.45067392 1.73555426 1.03956765
-2.77512191 -0.64248814 -2.80818578
-3.36071154 -0.62573786 -2.07703396
-2.82842712 0.0 -2.82842712
-3.36071154 0.62573786 -2.07703396
-0.87403205 3.16227766 2.28824561
-0.64248814 2.80818578 2.77512191
-1.48699214 2.40600382 2.82842713
-3.03174168 1.815962 1.8737194
-3.16227766 2.28824561 0.87403205
2.82842713 1.48699214 2.40600382
2.77512191 0.64248814 2.80818578
2.28824561 0.87403205 3.16227766
1.54474954 -3.5640261 0.95470772
0.54018151 -3.70245917 1.41421356
1.03956765 -3.45067392 1.73555426
-1.03956765 -3.45067392 1.73555426
-0.87403205 -3.16227766 2.28824561
-1.8737194 -3.03174168 1.815962
-2.40600382 -2.82842713 -1.48699214
-3.16227766 -2.28824561 -0.87403205
-2.80818578 -2.77512191 -0.64248814
1.8737194 -3.03174168 1.815962
0.87403205 -3.16227766 2.28824561
-0.95470772 -1.54474954 3.5640261
-1.73555426 -1.03956765 3.45067392
-1.41421356 -0.54018151 3.70245917
1.8737194 3.03174168 1.815962
1.48699214 2.40600382 2.82842713
0.64248814 2.80818578 2.77512191
0.87403205 3.16227766 2.28824561
1.03956765 3.45067392 1.73555426
-1.73555426 1.03956765 -3.45067392
-1.815962 1.8737194 -3.03174168
-2.28824561 0.87403205 -3.16227766
-1.54474954 -3.5640261 -0.95470772
-0.53228441 -3.95075336 0.32896986
-0.54018151 -3.70245917 -1.41421356
-1.03956765 -3.45067392 -1.73555426
-0.54018151 -3.70245917 1.41421356
0.0 -3.84775343 1.09306612
0.0 2.82842712 2.82842712
0.62573786 2.07703396 3.36071154

CELLS 410 1640
3 0 1 2
3 2 1 3
3 0 4 1
3 4 5 1
3 4 6 5
3 1 5 3
3 6 4 7
3 7 4 0
3 3 5 8
3 5 6 8
3 9 10 11
3 11 10 12
3 13 14 10
3 3 15 2
3 3 16 15
3 16 17 15
3 16 18 17
3 15 17 19
3 8 16 3
3 19 17 20
3 17 18 20
3 18 21 20
3 20 21 22
3 23 24 21
3 23 25 24
3 26 27 7
3 7 27 28
3 26 29 27
3 29 30 27
3 27 30 28
3 31 29 26
3 32 33 2
3 2 33 0
3 32 34 33
3 34 35 33
3 34 26 35
3 33 35 0
3 26 34 31
3 0 35 7
3 35 26 7
3 36 37 38
3 39 40 41
3 39 42 40
3 43 44 45
3 44 46 45
3 44 12 46
3 12 44 11
3 11 44 43
3 47 48 49
3 6 50 8
3 6 51 50
3 51 52 50
3 50 52 53
3 7 51 6
3 54 55 56
3 25 55 57
3 55 58 57
3 55 59 58
3 57 58 60
3 25 57 24
3 60 58 47
3 47 58 59
3 61 62 63
3 63 62 64
3 64 62 65
3 62 66 65
3 62 67 66
3 65 66 31
3 31 66 29
3 29 66 67
3 64 65 45
3 45 65 31
3 68 69 70
3 68 71 69
3 70 69 72
3 42 73 68
3 73 74 68
3 73 75 74
3 68 74 71
3 39 73 42
3 71 74 61
3 76 77 78
3 77 79 78
3 80 81 82
3 83 84 11
3 11 84 9
3 83 85 84
3 85 86 84
3 84 86 9
3 87 85 20
3 20 85 83
3 88 89 90
3 88 22 89
3 22 88 20
3 20 88 87
3 31 91 92
3 91 93 92
3 91 32 93
3 92 93 43
3 32 94 93
3 94 95 93
3 94 96 95
3 93 95 43
3 2 94 32
3 43 95 11
3 95 96 11
3 32 91 34
3 34 91 31
3 31 92 45
3 45 92 43
3 96 97 11
3 11 97 83
3 96 98 97
3 98 99 97
3 98 19 99
3 97 99 83
3 96 100 98
3 100 101 98
3 100 2 101
3 98 101 19
3 83 99 20
3 99 19 20
3 19 101 15
3 15 101 2
3 2 100 94
3 94 100 96
3 102 103 41
3 46 104 45
3 45 104 64
3 64 104 105
3 104 106 105
3 104 46 106
3 105 106 107
3 12 106 46
3 59 108 47
3 47 108 48
3 48 109 49
3 102 109 103
3 109 110 103
3 109 48 110
3 103 110 111
3 48 108 110
3 108 112 110
3 108 59 112
3 110 112 111
3 52 113 53
3 114 54 56
3 54 115 55
3 115 59 55
3 59 115 112
3 115 116 112
3 115 54 116
3 112 116 111
3 111 116 113
3 116 114 113
3 116 54 114
3 113 114 53
3 64 105 63
3 72 117 70
3 107 118 69
3 69 118 72
3 78 119 76
3 81 120 82
3 120 121 82
3 81 122 120
3 122 123 120
3 122 72 123
3 120 123 121
3 72 122 117
3 122 124 117
3 122 81 124
3 117 124 125
3 124 81 80
3 121 126 127
3 127 126 107
3 121 123 126
3 123 118 126
3 123 72 118
3 126 118 107
3 87 128 85
3 85 128 86
3 86 129 9
3 86 128 129
3 128 130 129
3 128 87 130
3 129 130 131
3 87 132 130
3 132 133 130
3 132 90 133
3 130 133 131
3 131 133 119
3 133 134 119
3 133 90 134
3 119 134 76
3 90 132 88
3 88 132 87
3 89 134 90
3 40 135 41
3 41 135 102
3 102 135 136
3 135 137 136
3 135 40 137
3 136 137 125
3 42 137 40
3 138 139 140
3 139 141 140
3 139 49 141
3 140 141 125
3 125 141 136
3 141 142 136
3 141 49 142
3 136 142 102
3 49 139 47
3 47 139 138
3 71 143 144
3 143 145 144
3 143 63 145
3 144 145 107
3 63 143 61
3 61 143 71
3 71 144 69
3 69 144 107
3 77 146 79
3 79 147 78
3 76 148 77
3 80 147 149
3 147 150 149
3 147 79 150
3 149 150 125
3 79 146 150
3 146 140 150
3 146 138 140
3 150 140 125
3 76 151 148
3 151 152 148
3 151 89 152
3 148 152 60
3 22 152 89
3 102 142 109
3 109 142 49
3 107 145 105
3 105 145 63
3 80 149 124
3 124 149 125
3 89 151 134
3 134 151 76
3 24 153 21
3 21 153 22
3 23 154 25
3 22 153 155
3 153 156 155
3 153 24 156
3 155 156 60
3 38 157 158
3 111 157 159
3 157 160 159
3 157 38 160
3 159 160 161
3 161 160 37
3 37 160 38
3 161 162 159
3 162 163 159
3 162 41 163
3 159 163 111
3 41 162 39
3 138 164 47
3 47 164 60
3 53 165 50
3 50 165 8
3 53 166 165
3 166 167 165
3 166 56 167
3 165 167 8
3 8 167 154
3 167 168 154
3 167 56 168
3 154 168 25
3 25 168 55
3 55 168 56
3 60 156 57
3 57 156 24
3 131 169 170
3 169 171 170
3 169 78 171
3 170 171 80
3 138 172 164
3 172 173 164
3 172 77 173
3 164 173 60
3 82 170 80
3 111 163 103
3 103 163 41
3 56 166 114
3 114 166 53
3 78 169 119
3 119 169 131
3 77 172 146
3 146 172 138
3 80 171 147
3 147 171 78
3 60 173 148
3 148 173 77
3 22 155 152
3 152 155 60
3 14 174 10
3 10 174 12
3 12 174 175
3 174 176 175
3 174 14 176
3 175 176 107
3 107 176 127
3 127 176 14
3 67 177 29
3 29 177 30
3 30 178 28
3 30 177 178
3 177 179 178
3 177 67 179
3 178 179 75
3 37 180 161
3 75 181 180
3 181 182 180
3 181 39 182
3 180 182 161
3 158 183 51
3 51 183 52
3 52 183 184
3 183 185 184
3 183 158 185
3 184 185 111
3 61 186 62
3 186 67 62
3 67 186 179
3 186 187 179
3 186 61 187
3 179 187 75
3 42 188 189
3 188 190 189
3 188 70 190
3 189 190 125
3 70 188 68
3 68 188 42
3 39 181 73
3 73 181 75
3 75 187 74
3 74 187 61
3 12 175 106
3 106 175 107
3 52 184 113
3 113 184 111
3 125 190 117
3 117 190 70
3 42 189 137
3 137 189 125
3 111 185 157
3 157 185 158
3 161 182 162
3 162 182 39
3 9 191 10
3 191 13 10
3 13 192 14
3 192 127 14
3 127 192 193
3 192 194 193
3 192 13 194
3 193 194 131
3 131 194 195
3 194 191 195
3 194 13 191
3 195 191 9
3 8 196 16
3 16 196 18
3 18 197 21
3 197 23 21
3 8 198 196
3 198 197 196
3 198 23 197
3 196 197 18
3 158 199 38
3 199 36 38
3 28 200 36
3 36 200 37
3 36 201 28
3 28 201 7
3 7 201 202
3 201 199 202
3 201 36 199
3 202 199 158
3 37 200 203
3 200 204 203
3 200 28 204
3 203 204 75
3 7 202 51
3 51 202 158
3 131 205 193
3 205 206 193
3 205 82 206
3 193 206 127
3 127 206 121
3 121 206 82
3 131 195 129
3 129 195 9
3 23 198 154
3 154 198 8
3 82 205 170
3 170 205 131
3 75 204 178
3 178 204 28
3 37 203 180
3 180 203 75

CELL_TYPES 410
5
5
5
5
5
5
5
5
5
5
5
5
5
5
5
5
5
5
5
5
5
5
5
5
5
5
5
5
5
5
5
5
5
5
5
5
5
5
5
5
5
5
5
5
5
5
5
5
5
5
5
5
5
5
5
5
5
5
5
5
5
5
5
5
5
5
5
5
5
5
5
5
5
5
5
5
5
5
5
5
5
5
5
5
5
5
5
5
5
5
5
5
5
5
5
5
5
5
5
5
5
5
5
5
5
5
5
5
5
5
5
5
5
5
5
5
5
5
5
5
5
5
5
5
5
5
5
5
5
5
5
5
5
5
5
5
5
5
5
5
5
5
5
5
5
5
5
5
5
5
5
5
5
5
5
5
5
5
5
5
5
5
5
5
5
5
5
5
5
5
5
5
5
5
5
5
5
5
5
5
5
5
5
5
5
5
5
5
5
5
5
5
5
5
5
5
5
5
5
5
5
5
5
5
5
5
5
5
5
5
5
5
5
5
5
5
5
5
5
5
5
5
5
5
5
5
5
5
5
5
5
5
5
5
5
5
5
5
5
5
5
5
5
5
5
5
5
5
5
5
5
5
5
5
5
5
5
5
5
5
5
5
5
5
5
5
5
5
5
5
5
5
5
5
5
5
5
5
5
5
5
5
5
5
5
5
5
5
5
5
5
5
5
5
5
5
5
5
5
5
5
5
5
5
5
5
5
5
5
5
5
5
5
5
5
5
5
5
5
5
5
5
5
5
5
5
5
5
5
5
5
5
5
5
5
5
5
5
5
5
5
5
5
5
5
5
5
5
5
5
5
5
5
5
5
5
5
5
5
5
5
5
5
5
5
5
5
5
5
5
5
5
5
5
5
5
5
5
5
5
5
5
5
5
5
5
5
5
5
5
5
5
5
5
5
5
5
5
5
5
5
5
5
5
5
5
5
5
5
5

CELL_DATA 410
SCALARS cell_data_0 double
LOOKUP_TABLE default
1.55503885459e-07
2.09403542567e-07
1.10633299137e-07
4.15234380723e-08
2.16649368647e-07
6.17734382815e-08
8.69381965393e-08
2.26346551014e-07
3.21214551975e-07
1.31616413033e-07
2.17149783412e-07
1.67350244207e-07
3.56417597379e-08
2.7628926975e-07
2.5786457559e-08
1.90709684534e-08
2.05292776901e-08
3.12279436882e-08
4.06464783665e-07
1.59679546449e-07
1.79921366329e-07
2.0970710772e-07
9.78375615409e-08
4.56297140169e-08
2.80169185603e-08
3.09856934323e-07
3.48361273441e-07
6.4747370589e-08
3.21560755452e-08
1.88627970853e-08
1.96806113055e-07
1.39934562041e-07
1.9369198912e-07
5.13204815541e-08
6.81235416185e-08
3.4430000479e-08
2.8326552409e-08
2.06354776826e-07
3.20914594966e-07
3.42518739155e-07
4.89970461521e-08
8.28519300081e-08
5.41452905257e-08
3.17148581687e-08
8.48867350735e-08
4.72483699692e-08
1.91545588829e-07
2.71738869254e-07
5.1154038731e-08
2.20522518048e-07
1.4137876708e-07
6.6388411065e-08
2.33253386309e-08
2.15361193071e-07
8.28845016775e-08
3.06449826853e-08
2.20055250553e-08
1.50763061879e-08
6.31323557561e-08
1.68696845767e-08
4.46666465308e-08
1.52227840192e-08
4.46707389937e-08
1.67779141246e-09
8.36851776905e-08
7.33769273071e-08
7.24455950404e-08
2.52827026601e-07
1.18517758286e-07
8.75509905063e-08
5.41672989718e-08
9.62004944023e-08
4.47517622306e-09
9.8121524251e-08
3.43188854336e-08
1.27059477416e-08
2.0294542322e-10
6.24947750614e-08
6.85618468034e-08
1.9381333404e-08
5.97296292083e-08
2.87702112475e-08
1.34405044971e-07
2.55721549851e-08
1.81802758816e-07
1.51086410159e-07
8.95633430741e-08
7.94798914042e-09
5.91624804334e-08
1.22742123897e-07
1.80624169431e-07
1.34376890757e-07
9.38508952171e-08
1.87943798545e-08
2.16104879782e-07
1.63308158459e-07
6.57970091802e-08
1.41718933685e-08
3.24077821181e-08
2.05566136321e-08
1.4362883896e-07
6.1219769292e-08
6.34571618967e-08
2.20180866531e-07
2.89524677816e-07
3.08243486518e-07
6.79379003731e-08
8.84173848002e-08
2.57288949068e-08
8.23437036189e-09
1.9016482677e-07
1.71670847253e-07
3.61846980786e-09
7.56408404349e-08
7.50822435458e-08
4.3748826615e-08
5.20103422141e-08
8.06885385104e-08
1.41083607602e-07
3.19063258894e-08
2.7332116334e-07
2.61634530338e-07
1.66618975319e-08
7.1420471391e-08
3.62956909953e-08
3.15270906303e-08
2.15025790871e-08
7.42546462837e-09
1.23923470696e-08
2.05464880613e-08
1.28998879631e-08
2.50543599473e-08
1.78027814308e-09
3.09008628982e-08
1.3848078495e-08
1.25336255008e-08
2.20884211855e-08
2.45689442217e-08
1.0449189275e-09
1.03097105067e-08
2.10815646646e-08
7.96587058934e-09
4.1044133043e-09
1.3744555737e-08
1.95756252646e-08
4.04356397534e-08
5.59840486879e-10
7.27190973418e-09
5.15843403092e-09
3.22203295153e-09
2.6429852037e-08
1.0311232905e-08
9.81925131254e-09
4.40216619316e-10
1.73984233191e-08
5.36514058509e-09
1.65171759056e-08
2.80641417942e-08
2.65116241875e-09
7.50801109533e-08
4.2778503407e-08
2.0924107206e-08
5.8978802262e-08
5.70399688344e-08
4.89540672286e-08
3.38630217582e-08
2.44868800467e-08
6.75985644124e-08
7.86805293307e-09
1.13518208866e-08
8.71546854921e-10
2.23088851528e-08
5.07874843179e-08
5.58690127498e-09
2.19469941638e-07
3.71347806002e-08
1.70972929314e-08
2.30263075411e-08
6.11751355756e-08
5.20559615782e-08
2.24527153138e-09
5.16549166492e-08
6.71023614091e-09
2.37533927647e-08
8.65665206574e-09
5.97206074694e-09
1.80345729019e-08
1.71969201177e-08
1.07847907516e-08
3.94613240488e-09
2.21956467541e-08
1.69890934288e-08
2.72889954915e-08
5.22386753116e-08
6.59677019575e-09
3.30754412763e-08
5.05053393475e-10
1.02478852092e-08
2.7273998032e-08
1.11674353575e-08
4.20433912378e-09
1.82267995857e-08
1.24537363105e-08
7.93595409207e-08
2.7835318641e-08
1.62053187049e-08
2.21341377516e-08
4.81045966704e-10
1.46884591355e-09
1.2729704682e-08
2.23617136357e-08
7.55931860269e-09
3.50488669354e-08
4.16356388131e-08
3.76848672397e-08
2.79724207801e-08
1.52003678969e-09
1.5532191707e-08
6.34035207854e-09
4.2304575307e-08
9.85235422413e-08
8.93160366915e-08
2.49467470979e-08
9.41446396308e-09
2.52487136122e-08
1.31277263419e-08
1.02721171721e-08
2.19537103513e-09
6.14546279691e-09
3.94524780039e-09
8.35833102972e-09
2.11489574286e-08
9.96775110948e-09
1.71208587123e-08
2.15174757672e-08
1.71749370333e-08
3.1576040211e-08
3.25699184307e-08
3.85844210435e-08
2.80334222907e-08
4.90938743738e-09
4.05704018474e-09
3.26237354653e-08
5.52986490403e-09
5.53078350775e-10
3.92332669512e-08
1.60816908378e-08
1.34046389352e-07
3.4327264423e-08
1.07078200274e-07
1.85637646411e-08
2.62772771949e-08
6.20398487005e-08
5.50830448955e-08
1.59650501636e-08
2.30059018653e-09
3.63919998623e-08
1.26684230911e-08
3.14939502804e-08
3.55773975094e-08
4.23862037301e-09
2.23129914679e-08
9.40670259362e-09
5.57218790515e-09
5.11898634492e-09
4.75851515059e-08
6.16714627129e-08
9.33931011193e-09
3.44064888716e-08
8.40957475241e-09
2.46655866144e-08
1.29409743402e-08
4.61911724961e-08
3.04451086951e-08
2.61639773661e-08
1.14935351944e-08
1.46325859684e-08
2.0727616847e-08
9.69438955481e-09
7.88053321441e-08
5.15670095824e-08
9.91697793509e-09
1.63225795807e-08
4.1271035373e-10
1.44905417605e-08
3.61687165488e-08
9.59340615333e-09
1.97317269589e-08
5.14481822318e-08
2.15802762533e-08
1.68367126677e-08
2.1748812094e-08
1.10629658454e-08
3.53708453952e-08
2.32124969863e-08
1.67056742479e-08
2.06588253282e-09
3.98775467239e-08
2.93779106126e-08
8.22529362933e-09
2.44048436811e-08
8.50828945392e-09
5.43137634587e-08
4.23994369826e-08
1.93917700145e-08
5.24720873474e-08
1.35418531819e-08
1.75730151335e-08
3.32025880425e-08
3.64151637219e-08
2.04593773146e-07
2.35789006711e-08
4.23288759874e-08
1.56543401686e-08
5.08802630806e-08
2.39993000594e-08
3.87046719819e-09
3.14580928945e-08
5.12283886093e-08
1.61806490875e-08
4.08618392984e-08
1.28459069635e-08
1.87658833486e-09
1.38747816959e-08
7.61719562311e-09
1.22789406909e-09
1.45722382155e-09
1.31229388497e-08
1.72097403524e-08
1.60076049436e-08
1.29318647198e-08
4.30532359735e-08
3.43372933403e-08
1.53142001207e-08
2.82596105128e-09
3.64185822685e-08
1.59550373365e-08
1.30435411762e-08
9.72393606661e-09
1.10425631697e-08
5.13266006646e-09
1.65253792625e-09
3.0574481131e-08
6.66677437385e-08
5.50858172904e-08
1.95224127048e-08
2.4360822037e-08
2.15034024618e-09
3.50569219241e-09
7.75889384098e-09
2.04366217181e-08
2.78764571544e-08
2.48589287484e-08
2.26267836552e-08
2.63281545056e-08
2.13972550765e-08
2.51363734283e-08
7.34877389822e-09
3.54095979738e-08
3.63450234764e-09
7.97195464382e-09
2.73733616357e-08
3.86018935636e-09
1.60590479913e-08
1.04435732218e-10
1.24093344203e-08
1.053936548e-08
2.00788529669e-08
5.07484469373e-09
9.45683054354e-09
3.7366242863e-08
2.35636211715e-08
3.01657812449e-08
1.02355936968e-08
4.0792152185e-08
3.87109161898e-08
1.19659045368e-08
3.57411871698e-10
2.38216603768e-08
1.46871350348e-08
9.44595031675e-09
6.67563016561e-09
4.28416629124e-08
1.43748339051e-07
8.2575682563e-08
2.10712074184e-08
1.34033776736e-08
5.96182343032e-09
4.82380844824e-09
2.34400905923e-08
1.02836287352e-08
3.53773633243e-08
3.89668475183e-08
3.56582765006e-08
5.53611373798e-09
2.02645019116e-08
1.52666700104e-09
6.52299629812e-09
2.29585982851e-08
1.26774219349e-09
1.28076915841e-08
2.10636352761e-08
6.19122273061e-09
2.69858697225e-08
1.0888178689e-08
1.02956903639e-08
4.82183848645e-08
2.39022775677e-08
2.57232517089e-08
4.50061883177e-08

