# vtk DataFile Version 3.0
File Name: Molecule/sphere_cent/sphere_cent_0-s4.vtk
ASCII
DATASET UNSTRUCTURED_GRID
FIELD FieldData 1
TIME 1 1 double
0.0
POINTS 75 double
0.85065081 -0.52573111 0.0
0.80901699 -0.30901699 -0.5
1.0 0.0 0.0
0.80901699 0.30901699 -0.5
0.52573111 0.0 -0.85065081
0.85065081 0.52573111 0.0
0.0 0.85065081 0.52573111
-0.5 0.80901699 0.30901699
-0.30901699 0.5 0.80901699
-0.80901699 0.30901699 0.5
-0.85065081 0.52573111 0.0
-0.52573111 0.0 0.85065081
-0.30901699 -0.5 0.80901699
0.0 0.0 1.0
0.30901699 -0.5 0.80901699
0.0 -0.85065081 0.52573111
0.52573111 0.0 0.85065081
0.30901699 -0.5 -0.80901699
0.0 0.0 -1.0
-0.30901699 -0.5 -0.80901699
0.0 -0.85065081 -0.52573111
-0.52573111 0.0 -0.85065081
0.80901699 -0.30901699 0.5
0.80901699 0.30901699 0.5
-0.80901699 -0.30901699 -0.5
-0.80901699 0.30901699 -0.5
-1.0 0.0 0.0
-0.85065081 -0.52573111 0.0
-0.80901699 -0.30901699 0.5
-0.5 -0.80901699 -0.30901699
0.5 -0.80901699 -0.30901699
0.68819096 0.58778525 -0.4253254
0.5 0.80901699 -0.30901699
0.58778525 0.4253254 -0.68819096
0.4253254 0.68819096 -0.58778525
0.30901699 0.5 -0.80901699
0.0 0.85065081 -0.52573111
0.5 0.80901699 0.30901699
0.68819096 0.58778525 0.4253254
0.4253254 0.68819096 0.58778525
0.58778525 0.4253254 0.68819096
0.30901699 0.5 0.80901699
-0.30901699 0.5 -0.80901699
-0.4253254 0.68819096 -0.58778525
-0.5 0.80901699 -0.30901699
-0.58778525 0.4253254 -0.68819096
-0.68819096 0.58778525 -0.4253254
0.26286556 -0.95105652 -0.16245985
0.0 -1.0 0.0
0.52573111 -0.85065081 0.0
0.26286556 -0.95105652 0.16245985
0.5 -0.80901699 0.30901699
0.52573111 0.85065081 0.0
0.26286556 0.95105652 -0.16245985
0.26286556 0.95105652 0.16245985
0.0 1.0 0.0
-0.52573111 -0.85065081 0.0
-0.5 -0.80901699 0.30901699
-0.26286556 -0.95105652 -0.16245985
-0.26286556 -0.95105652 0.16245985
0.16245985 0.26286556 -0.95105652
-0.16245985 0.26286556 -0.95105652
0.0 0.52573111 -0.85065081
-0.26286556 0.95105652 0.16245985
-0.26286556 0.95105652 -0.16245985
-0.52573111 0.85065081 0.0
0.0 0.52573111 0.85065081
-0.16245985 0.26286556 0.95105652
0.16245985 0.26286556 0.95105652
0.58778525 -0.4253254 0.68819096
0.4253254 -0.68819096 0.58778525
0.68819096 -0.58778525 0.4253254
-0.68819096 -0.58778525 0.4253254
-0.4253254 -0.68819096 0.58778525
-0.58778525 -0.4253254 0.68819096

CELLS 146 584
3 0 1 2
3 1 3 2
3 1 4 3
3 2 3 5
3 6 7 8
3 7 9 8
3 7 10 9
3 8 9 11
3 11 12 13
3 12 14 13
3 12 15 14
3 13 14 16
3 4 17 18
3 17 19 18
3 17 20 19
3 18 19 21
3 0 2 22
3 2 23 22
3 2 5 23
3 22 23 16
3 21 24 25
3 24 26 25
3 24 27 26
3 25 26 10
3 11 9 28
3 9 26 28
3 9 10 26
3 28 26 27
3 21 19 24
3 19 29 24
3 19 20 29
3 24 29 27
3 4 1 17
3 1 30 17
3 1 0 30
3 17 30 20
3 3 31 5
3 5 31 32
3 3 33 31
3 33 34 31
3 33 35 34
3 31 34 32
3 35 33 4
3 4 33 3
3 32 34 36
3 34 35 36
3 37 38 5
3 5 38 23
3 37 39 38
3 39 40 38
3 39 41 40
3 38 40 23
3 41 39 6
3 6 39 37
3 23 40 16
3 40 41 16
3 42 43 36
3 36 43 44
3 42 45 43
3 45 46 43
3 45 25 46
3 43 46 44
3 25 45 21
3 21 45 42
3 44 46 10
3 46 25 10
3 30 47 20
3 20 47 48
3 30 49 47
3 49 50 47
3 49 51 50
3 47 50 48
3 51 49 0
3 0 49 30
3 48 50 15
3 50 51 15
3 32 52 5
3 5 52 37
3 32 53 52
3 53 54 52
3 53 55 54
3 52 54 37
3 55 53 36
3 36 53 32
3 37 54 6
3 54 55 6
3 29 56 27
3 27 56 57
3 29 58 56
3 58 59 56
3 58 48 59
3 56 59 57
3 48 58 20
3 20 58 29
3 57 59 15
3 59 48 15
3 18 60 4
3 4 60 35
3 18 61 60
3 61 62 60
3 61 42 62
3 60 62 35
3 42 61 21
3 21 61 18
3 35 62 36
3 62 42 36
3 55 63 6
3 6 63 7
3 55 64 63
3 64 65 63
3 64 44 65
3 63 65 7
3 44 64 36
3 36 64 55
3 7 65 10
3 65 44 10
3 8 66 6
3 6 66 41
3 8 67 66
3 67 68 66
3 67 13 68
3 66 68 41
3 13 67 11
3 11 67 8
3 41 68 16
3 68 13 16
3 14 69 16
3 16 69 22
3 14 70 69
3 70 71 69
3 70 51 71
3 69 71 22
3 51 70 15
3 15 70 14
3 22 71 0
3 71 51 0
3 57 72 27
3 27 72 28
3 57 73 72
3 73 74 72
3 73 12 74
3 72 74 28
3 12 73 15
3 15 73 57
3 28 74 11
3 74 12 11

CELL_TYPES 146
5
5
5
5
5
5
5
5
5
5
5
5
5
5
5
5
5
5
5
5
5
5
5
5
5
5
5
5
5
5
5
5
5
5
5
5
5
5
5
5
5
5
5
5
5
5
5
5
5
5
5
5
5
5
5
5
5
5
5
5
5
5
5
5
5
5
5
5
5
5
5
5
5
5
5
5
5
5
5
5
5
5
5
5
5
5
5
5
5
5
5
5
5
5
5
5
5
5
5
5
5
5
5
5
5
5
5
5
5
5
5
5
5
5
5
5
5
5
5
5
5
5
5
5
5
5
5
5
5
5
5
5
5
5
5
5
5
5
5
5
5
5
5
5
5
5

CELL_DATA 146
SCALARS cell_data_0 double
LOOKUP_TABLE default
5.60610193084e-07
1.08150392787e-06
2.28135710994e-07
9.95065171299e-08
6.0716543421e-07
1.62755072717e-06
2.3232626668e-08
3.24578480445e-09
4.77807493846e-07
2.04146724952e-06
4.07920841994e-07
4.14578567627e-07
2.07793841739e-07
1.14796114364e-06
5.35116411006e-07
2.03518444408e-07
1.78712739344e-08
1.62281838154e-06
4.51581122948e-08
6.58906728664e-07
2.02391028773e-07
1.14812201196e-06
5.18065385724e-07
2.40306064181e-07
1.50553901314e-07
1.03783998517e-06
5.90167690288e-07
2.17776479964e-07
5.3094260231e-07
1.13960838476e-06
1.99089477359e-07
2.05369799612e-07
5.30181612753e-07
1.13954155612e-06
2.44093401325e-07
1.92387801115e-07
3.74709467405e-07
2.70605247861e-07
5.18060956636e-07
8.11446222343e-08
2.39131476975e-07
2.27157975772e-07
2.55611623507e-07
3.35373744649e-07
8.46056673582e-08
9.65054185112e-08
2.559734338e-07
4.17823540628e-07
2.25511851953e-07
9.61987893188e-08
2.42749532078e-07
5.40920472693e-07
6.33688154331e-08
1.17789401741e-07
4.17871535361e-07
2.76470573775e-07
6.88937970349e-08
9.1471485836e-08
2.35907705324e-07
8.35130455878e-08
5.2942504207e-07
2.38884951202e-07
3.60430100125e-07
2.74953450356e-07
2.69567960309e-07
3.09553341156e-07
3.60419890222e-07
2.68967578527e-07
5.27349192485e-07
8.32799794031e-08
2.55962223815e-07
2.42371554354e-07
2.57037095383e-07
3.25780020378e-07
1.0879715433e-07
1.16228776266e-07
1.53538018446e-07
1.65678196131e-07
2.77005989861e-07
2.44783667505e-08
2.71163156592e-07
2.81415632988e-07
1.14153185664e-07
1.39060229937e-07
1.26748175555e-07
1.59696721361e-07
3.49554820639e-07
2.58653153479e-07
5.23061144973e-07
8.40431803068e-08
2.43824182165e-07
2.51955594519e-07
2.52318138831e-07
3.452095503e-07
9.14224091298e-08
1.3461681429e-07
3.60592997841e-07
2.72922948713e-07
5.26359241914e-07
8.4212952596e-08
2.36784905217e-07
2.35262195165e-07
2.58188968721e-07
3.45879018227e-07
6.9639833313e-08
9.82528883112e-08
2.39090900538e-07
4.39251251362e-07
2.1805001185e-07
9.40776869451e-08
2.39363250335e-07
5.44903646275e-07
6.0086137085e-08
1.06860063749e-07
3.92877698374e-07
3.11435740227e-07
5.0669757796e-07
1.98409123414e-07
4.91275962476e-07
2.17219673456e-07
5.25811055195e-07
1.83937382689e-07
3.44195970179e-07
2.66326891e-07
2.17562043408e-07
4.78475204605e-07
3.66421348027e-07
2.99208636784e-07
5.1245902309e-07
2.1485930442e-07
1.97799886597e-07
5.00721514425e-07
2.02157200585e-07
5.02187477757e-07
4.38757210583e-07
2.63820590789e-07
2.08781710025e-07
3.80321748043e-07
1.97764218721e-07
2.01920045175e-07
5.24540020552e-07
4.71086209059e-07
5.2272476308e-07
2.33283711245e-07
2.26252546715e-07
3.00598277957e-07

