# vtk DataFile Version 3.0
File Name: Molecule/sphere_cent/sphere_cent_0-s18.vtk
ASCII
DATASET UNSTRUCTURED_GRID
FIELD FieldData 1
TIME 1 1 double
0.0
POINTS 221 double
1.23606798 -2.0 -3.23606798
0.64983939 -1.05146222 -3.80422607
2.10292445 0.0 -3.40260323
0.0 0.0 -4.0
0.0 -2.10292445 -3.40260323
-0.64983939 -1.05146222 -3.80422607
-1.23606798 -2.0 -3.23606798
0.0 -3.40260323 -2.10292445
2.0 3.23606798 1.23606798
2.75276384 2.35114101 1.70130162
3.40260323 2.10292445 0.0
3.23606798 1.23606798 2.0
1.70130162 2.75276384 2.35114101
2.35114101 1.70130162 2.75276384
0.64983939 1.05146222 -3.80422607
-0.64983939 1.05146222 -3.80422607
0.0 2.10292445 -3.40260323
-1.23606798 2.0 -3.23606798
1.23606798 2.0 -3.23606798
0.0 3.40260323 -2.10292445
-1.70130162 2.75276384 -2.35114101
-2.0 3.23606798 -1.23606798
-2.35114101 1.70130162 -2.75276384
-2.75276384 2.35114101 -1.70130162
-3.23606798 1.23606798 -2.0
2.10292445 -3.40260323 0.0
1.05146222 -3.80422607 0.64983939
1.05146222 -3.80422607 -0.64983939
3.40260323 -2.10292445 0.0
2.0 -3.23606798 -1.23606798
3.23606798 -1.23606798 -2.0
2.35114101 -1.70130162 -2.75276384
2.75276384 -2.35114101 -1.70130162
1.70130162 -2.75276384 -2.35114101
-1.05146222 -3.80422607 -0.64983939
-1.05146222 -3.80422607 0.64983939
-2.10292445 -3.40260323 0.0
-1.70130162 -2.75276384 2.35114101
-2.35114101 -1.70130162 2.75276384
-2.75276384 -2.35114101 1.70130162
-1.23606798 -2.0 3.23606798
4.0 0.0 0.0
3.80422607 0.64983939 1.05146222
3.80422607 -0.64983939 1.05146222
3.40260323 0.0 2.10292445
-3.80422607 0.64983939 1.05146222
-3.80422607 -0.64983939 1.05146222
-3.40260323 0.0 2.10292445
-2.35114101 -1.70130162 -2.75276384
-2.10292445 0.0 -3.40260323
-1.70130162 -2.75276384 -2.35114101
-2.75276384 -2.35114101 -1.70130162
-3.23606798 -1.23606798 -2.0
-3.80422607 -0.64983939 -1.05146222
-3.80422607 0.64983939 -1.05146222
-3.40260323 0.0 -2.10292445
-3.45067392 1.73555426 -1.03956765
-3.84775343 1.09306612 0.0
-4.0 0.0 0.0
-3.40260323 2.10292445 0.0
1.70130162 -2.75276384 2.35114101
2.75276384 -2.35114101 1.70130162
2.35114101 -1.70130162 2.75276384
3.23606798 -1.23606798 2.0
3.45067392 -1.73555426 1.03956765
2.80818578 -2.77512191 0.64248814
2.0 -3.23606798 1.23606798
0.0 -2.10292445 3.40260323
0.64983939 -1.05146222 3.80422607
-0.64983939 -1.05146222 3.80422607
1.23606798 -2.0 3.23606798
0.0 0.0 4.0
-0.64248814 -2.80818578 2.77512191
0.64248814 -2.80818578 2.77512191
0.0 -3.40260323 2.10292445
-2.0 3.23606798 1.23606798
-2.75276384 2.35114101 1.70130162
-1.70130162 2.75276384 2.35114101
-2.35114101 1.70130162 2.75276384
-1.23606798 2.0 3.23606798
-0.64983939 1.05146222 3.80422607
0.0 2.10292445 3.40260323
2.0 3.23606798 -1.23606798
2.10292445 3.40260323 0.0
1.05146222 3.80422607 -0.64983939
1.05146222 3.80422607 0.64983939
0.0 4.0 0.0
-1.05146222 3.80422607 -0.64983939
-2.10292445 3.40260323 0.0
-1.05146222 3.80422607 0.64983939
3.45067392 -1.73555426 -1.03956765
3.84775343 -1.09306612 0.0
3.80422607 -0.64983939 -1.05146222
3.40260323 0.0 -2.10292445
3.80422607 0.64983939 -1.05146222
3.23606798 1.23606798 -2.0
2.75276384 2.35114101 -1.70130162
2.35114101 1.70130162 -2.75276384
1.70130162 2.75276384 -2.35114101
2.77512191 0.64248814 -2.80818578
1.73555426 1.03956765 -3.45067392
-3.23606798 -1.23606798 2.0
-3.45067392 -1.73555426 1.03956765
3.36071154 -0.62573786 2.07703396
2.77512191 -0.64248814 2.80818578
2.82842712 0.0 2.82842712
2.10292445 0.0 3.40260323
-3.95075336 -0.32896986 0.53228441
-3.5640261 -0.95470772 1.54474954
-3.70245917 -1.41421356 0.54018151
-3.40260323 -2.10292445 0.0
-3.84775343 -1.09306612 0.0
-3.45067392 -1.73555426 -1.03956765
-3.5640261 -0.95470772 -1.54474954
-3.95075336 -0.32896986 -0.53228441
-3.70245917 -1.41421356 -0.54018151
-1.09306612 0.0 3.84775343
1.09306612 0.0 3.84775343
-1.03956765 3.45067392 1.73555426
0.0 1.0656188 3.85544506
0.64983939 1.05146222 3.80422607
-0.32896986 0.53228441 3.95075336
0.32896986 0.53228441 3.95075336
-1.41421356 0.54018151 3.70245917
-2.10292445 0.0 3.40260323
1.41421356 0.54018151 3.70245917
1.23606798 2.0 3.23606798
0.53228441 3.95075336 0.32896986
0.54018151 3.70245917 1.41421356
0.0 3.84775343 1.09306612
0.0 3.40260323 2.10292445
-0.53228441 3.95075336 0.32896986
-0.54018151 3.70245917 1.41421356
-1.54474954 3.5640261 0.95470772
-2.82842713 -1.48699214 2.40600382
-2.77512191 -0.64248814 2.80818578
-2.28824561 -0.87403205 3.16227766
-3.23606798 1.23606798 2.0
-3.36071154 0.62573786 2.07703396
-2.77512191 0.64248814 2.80818578
-2.82842712 0.0 2.82842712
-3.36071154 -0.62573786 2.07703396
1.815962 -1.8737194 3.03174168
1.73555426 -1.03956765 3.45067392
2.28824561 -0.87403205 3.16227766
-2.82842713 1.48699214 2.40600382
-1.815962 1.8737194 3.03174168
-2.80818578 2.77512191 0.64248814
-1.73555426 1.03956765 3.45067392
-2.28824561 0.87403205 3.16227766
-2.07703396 3.36071154 0.62573786
-2.82842712 2.82842712 0.0
-2.40600382 2.82842713 -1.48699214
-2.77512191 0.64248814 -2.80818578
-2.80818578 2.77512191 -0.64248814
-3.16227766 2.28824561 -0.87403205
-2.82842712 -2.82842712 0.0
-2.0 -3.23606798 -1.23606798
-2.80818578 -2.77512191 0.64248814
-2.07703396 -3.36071154 0.62573786
-2.0 -3.23606798 1.23606798
-2.40600382 -2.82842713 1.48699214
-3.16227766 -2.28824561 0.87403205
-3.45067392 1.73555426 1.03956765
-2.77512191 -0.64248814 -2.80818578
-3.36071154 -0.62573786 -2.07703396
-2.82842712 0.0 -2.82842712
-3.36071154 0.62573786 -2.07703396
-0.87403205 3.16227766 2.28824561
-0.64248814 2.80818578 2.77512191
-1.48699214 2.40600382 2.82842713
-3.03174168 1.815962 1.8737194
-3.16227766 2.28824561 0.87403205
2.82842713 1.48699214 2.40600382
2.77512191 0.64248814 2.80818578
2.28824561 0.87403205 3.16227766
1.54474954 -3.5640261 0.95470772
0.54018151 -3.70245917 1.41421356
0.0 -4.0 0.0
1.03956765 -3.45067392 1.73555426
-1.03956765 -3.45067392 1.73555426
-0.87403205 -3.16227766 2.28824561
-1.8737194 -3.03174168 1.815962
-2.40600382 -2.82842713 -1.48699214
-3.16227766 -2.28824561 -0.87403205
-2.80818578 -2.77512191 -0.64248814
1.8737194 -3.03174168 1.815962
0.87403205 -3.16227766 2.28824561
-0.95470772 -1.54474954 3.5640261
-1.73555426 -1.03956765 3.45067392
-1.41421356 -0.54018151 3.70245917
1.8737194 3.03174168 1.815962
1.48699214 2.40600382 2.82842713
0.64248814 2.80818578 2.77512191
0.87403205 3.16227766 2.28824561
1.03956765 3.45067392 1.73555426
-1.73555426 1.03956765 -3.45067392
-1.815962 1.8737194 -3.03174168
-2.28824561 0.87403205 -3.16227766
-1.54474954 -3.5640261 -0.95470772
-0.53228441 -3.95075336 0.32896986
-0.54018151 -3.70245917 -1.41421356
-1.03956765 -3.45067392 -1.73555426
-0.54018151 -3.70245917 1.41421356
0.0 -3.84775343 1.09306612
0.0 2.82842712 2.82842712
0.62573786 2.07703396 3.36071154
-0.32896986 -0.53228441 -3.95075336
0.64248814 -2.80818578 -2.77512191
-1.09306612 0.0 -3.84775343
-1.41421356 -0.54018151 -3.70245917
-0.32896986 0.53228441 -3.95075336
-1.41421356 0.54018151 -3.70245917
1.54474954 -3.5640261 -0.95470772
1.03956765 -3.45067392 -1.73555426
0.54018151 -3.70245917 -1.41421356
0.0 -3.84775343 -1.09306612
0.53228441 -3.95075336 -0.32896986
1.8737194 -3.03174168 -1.815962
1.48699214 -2.40600382 -2.82842713
0.87403205 -3.16227766 -2.28824561

CELLS 438 1752
3 0 1 2
3 2 1 3
3 0 4 1
3 4 5 1
3 4 6 5
3 6 4 7
3 8 9 10
3 10 9 11
3 12 13 9
3 3 14 2
3 15 16 14
3 15 17 16
3 14 16 18
3 18 16 19
3 16 17 19
3 17 20 19
3 19 20 21
3 22 23 20
3 22 24 23
3 25 26 27
3 28 25 29
3 30 31 2
3 2 31 0
3 30 32 31
3 32 33 31
3 29 32 28
3 34 35 36
3 37 38 39
3 37 40 38
3 41 42 43
3 42 44 43
3 42 11 44
3 11 42 10
3 10 42 41
3 45 46 47
3 6 48 49
3 6 50 48
3 50 51 48
3 48 51 52
3 7 50 6
3 53 54 55
3 24 54 56
3 54 57 56
3 54 58 57
3 56 57 59
3 24 56 23
3 59 57 45
3 45 57 58
3 60 61 62
3 62 61 63
3 63 61 64
3 61 65 64
3 61 66 65
3 64 65 28
3 28 65 25
3 25 65 66
3 63 64 43
3 43 64 28
3 67 68 69
3 67 70 68
3 69 68 71
3 40 72 67
3 72 73 67
3 72 74 73
3 67 73 70
3 37 72 40
3 70 73 60
3 75 76 77
3 76 78 77
3 79 80 81
3 82 83 10
3 10 83 8
3 82 84 83
3 84 85 83
3 83 85 8
3 86 84 19
3 19 84 82
3 87 88 89
3 87 21 88
3 21 87 19
3 19 87 86
3 28 90 91
3 90 92 91
3 90 30 92
3 91 92 41
3 30 93 92
3 93 94 92
3 93 95 94
3 92 94 41
3 2 93 30
3 41 94 10
3 94 95 10
3 30 90 32
3 32 90 28
3 28 91 43
3 43 91 41
3 95 96 10
3 10 96 82
3 95 97 96
3 97 98 96
3 97 18 98
3 96 98 82
3 95 99 97
3 99 100 97
3 99 2 100
3 97 100 18
3 82 98 19
3 98 18 19
3 18 100 14
3 14 100 2
3 2 99 93
3 93 99 95
3 101 102 39
3 44 103 43
3 43 103 63
3 63 103 104
3 103 105 104
3 103 44 105
3 104 105 106
3 11 105 44
3 58 107 45
3 45 107 46
3 46 108 47
3 101 108 102
3 108 109 102
3 108 46 109
3 102 109 110
3 46 107 109
3 107 111 109
3 107 58 111
3 109 111 110
3 51 112 52
3 113 53 55
3 53 114 54
3 114 58 54
3 58 114 111
3 114 115 111
3 114 53 115
3 111 115 110
3 110 115 112
3 115 113 112
3 115 53 113
3 112 113 52
3 63 104 62
3 71 116 69
3 106 117 68
3 68 117 71
3 77 118 75
3 80 119 81
3 119 120 81
3 80 121 119
3 121 122 119
3 121 71 122
3 119 122 120
3 71 121 116
3 121 123 116
3 121 80 123
3 116 123 124
3 123 80 79
3 120 125 126
3 126 125 106
3 120 122 125
3 122 117 125
3 122 71 117
3 125 117 106
3 86 127 84
3 84 127 85
3 85 128 8
3 85 127 128
3 127 129 128
3 127 86 129
3 128 129 130
3 86 131 129
3 131 132 129
3 131 89 132
3 129 132 130
3 130 132 118
3 132 133 118
3 132 89 133
3 118 133 75
3 89 131 87
3 87 131 86
3 88 133 89
3 38 134 39
3 39 134 101
3 101 134 135
3 134 136 135
3 134 38 136
3 135 136 124
3 40 136 38
3 137 138 139
3 138 140 139
3 138 47 140
3 139 140 124
3 124 140 135
3 140 141 135
3 140 47 141
3 135 141 101
3 47 138 45
3 45 138 137
3 70 142 143
3 142 144 143
3 142 62 144
3 143 144 106
3 62 142 60
3 60 142 70
3 70 143 68
3 68 143 106
3 76 145 78
3 78 146 77
3 75 147 76
3 79 146 148
3 146 149 148
3 146 78 149
3 148 149 124
3 78 145 149
3 145 139 149
3 145 137 139
3 149 139 124
3 75 150 147
3 150 151 147
3 150 88 151
3 147 151 59
3 21 151 88
3 101 141 108
3 108 141 47
3 106 144 104
3 104 144 62
3 79 148 123
3 123 148 124
3 88 150 133
3 133 150 75
3 23 152 20
3 20 152 21
3 22 153 24
3 21 152 154
3 152 155 154
3 152 23 155
3 154 155 59
3 36 156 157
3 110 156 158
3 156 159 158
3 156 36 159
3 158 159 160
3 160 159 35
3 35 159 36
3 160 161 158
3 161 162 158
3 161 39 162
3 158 162 110
3 39 161 37
3 137 163 45
3 45 163 59
3 52 164 48
3 48 164 49
3 52 165 164
3 165 166 164
3 165 55 166
3 164 166 49
3 49 166 153
3 166 167 153
3 166 55 167
3 153 167 24
3 24 167 54
3 54 167 55
3 59 155 56
3 56 155 23
3 130 168 169
3 168 170 169
3 168 77 170
3 169 170 79
3 137 171 163
3 171 172 163
3 171 76 172
3 163 172 59
3 81 169 79
3 110 162 102
3 102 162 39
3 55 165 113
3 113 165 52
3 77 168 118
3 118 168 130
3 76 171 145
3 145 171 137
3 79 170 146
3 146 170 77
3 59 172 147
3 147 172 76
3 21 154 151
3 151 154 59
3 13 173 9
3 9 173 11
3 11 173 174
3 173 175 174
3 173 13 175
3 174 175 106
3 106 175 126
3 126 175 13
3 66 176 25
3 25 176 26
3 26 177 178
3 26 176 177
3 176 179 177
3 176 66 179
3 177 179 74
3 35 180 160
3 74 181 180
3 181 182 180
3 181 37 182
3 180 182 160
3 157 183 50
3 50 183 51
3 51 183 184
3 183 185 184
3 183 157 185
3 184 185 110
3 60 186 61
3 186 66 61
3 66 186 179
3 186 187 179
3 186 60 187
3 179 187 74
3 40 188 189
3 188 190 189
3 188 69 190
3 189 190 124
3 69 188 67
3 67 188 40
3 37 181 72
3 72 181 74
3 74 187 73
3 73 187 60
3 11 174 105
3 105 174 106
3 51 184 112
3 112 184 110
3 124 190 116
3 116 190 69
3 40 189 136
3 136 189 124
3 110 185 156
3 156 185 157
3 160 182 161
3 161 182 37
3 8 191 9
3 191 12 9
3 12 192 13
3 192 126 13
3 126 192 193
3 192 194 193
3 192 12 194
3 193 194 130
3 130 194 195
3 194 191 195
3 194 12 191
3 195 191 8
3 15 196 17
3 17 197 20
3 197 22 20
3 49 198 196
3 198 197 196
3 198 22 197
3 196 197 17
3 157 199 36
3 199 34 36
3 178 200 34
3 34 200 35
3 34 201 178
3 7 201 202
3 201 199 202
3 201 34 199
3 202 199 157
3 35 200 203
3 200 204 203
3 200 178 204
3 203 204 74
3 7 202 50
3 50 202 157
3 130 205 193
3 205 206 193
3 205 81 206
3 193 206 126
3 126 206 120
3 120 206 81
3 130 195 128
3 128 195 8
3 22 198 153
3 153 198 49
3 81 205 169
3 169 205 130
3 74 204 177
3 177 204 178
3 35 203 180
3 180 203 74
3 5 207 1
3 1 207 3
3 0 208 4
3 4 208 7
3 3 207 209
3 207 210 209
3 207 5 210
3 209 210 49
3 49 210 6
3 6 210 5
3 3 211 14
3 211 15 14
3 49 212 209
3 212 211 209
3 212 15 211
3 209 211 3
3 29 213 214
3 213 215 214
3 213 27 215
3 214 215 7
3 7 215 216
3 215 217 216
3 215 27 217
3 216 217 178
3 27 213 25
3 25 213 29
3 178 217 26
3 26 217 27
3 29 218 32
3 32 218 33
3 33 219 31
3 31 219 0
3 0 219 208
3 219 220 208
3 219 33 220
3 208 220 7
3 33 218 220
3 218 214 220
3 218 29 214
3 220 214 7
3 15 212 196
3 196 212 49
3 7 216 201
3 201 216 178

CELL_TYPES 438
5
5
5
5
5
5
5
5
5
5
5
5
5
5
5
5
5
5
5
5
5
5
5
5
5
5
5
5
5
5
5
5
5
5
5
5
5
5
5
5
5
5
5
5
5
5
5
5
5
5
5
5
5
5
5
5
5
5
5
5
5
5
5
5
5
5
5
5
5
5
5
5
5
5
5
5
5
5
5
5
5
5
5
5
5
5
5
5
5
5
5
5
5
5
5
5
5
5
5
5
5
5
5
5
5
5
5
5
5
5
5
5
5
5
5
5
5
5
5
5
5
5
5
5
5
5
5
5
5
5
5
5
5
5
5
5
5
5
5
5
5
5
5
5
5
5
5
5
5
5
5
5
5
5
5
5
5
5
5
5
5
5
5
5
5
5
5
5
5
5
5
5
5
5
5
5
5
5
5
5
5
5
5
5
5
5
5
5
5
5
5
5
5
5
5
5
5
5
5
5
5
5
5
5
5
5
5
5
5
5
5
5
5
5
5
5
5
5
5
5
5
5
5
5
5
5
5
5
5
5
5
5
5
5
5
5
5
5
5
5
5
5
5
5
5
5
5
5
5
5
5
5
5
5
5
5
5
5
5
5
5
5
5
5
5
5
5
5
5
5
5
5
5
5
5
5
5
5
5
5
5
5
5
5
5
5
5
5
5
5
5
5
5
5
5
5
5
5
5
5
5
5
5
5
5
5
5
5
5
5
5
5
5
5
5
5
5
5
5
5
5
5
5
5
5
5
5
5
5
5
5
5
5
5
5
5
5
5
5
5
5
5
5
5
5
5
5
5
5
5
5
5
5
5
5
5
5
5
5
5
5
5
5
5
5
5
5
5
5
5
5
5
5
5
5
5
5
5
5
5
5
5
5
5
5
5
5
5
5
5
5
5
5
5
5
5
5
5
5
5
5
5
5
5
5
5
5
5
5
5
5
5
5
5
5
5
5
5
5
5
5
5
5
5
5
5
5
5
5
5
5
5
5
5
5
5
5
5

CELL_DATA 438
SCALARS cell_data_0 double
LOOKUP_TABLE default
1.47285468259e-07
2.18477092201e-07
1.24546820447e-07
2.70334019066e-08
3.87064104996e-08
3.55651000571e-07
2.57406561339e-07
3.10112043893e-07
3.68989472546e-08
2.57920335055e-07
7.30470517407e-08
9.144187505e-08
7.40039719177e-08
1.35238534761e-07
1.64202710782e-07
2.06100253825e-07
1.79754563789e-07
6.10881089607e-08
3.29513102559e-08
7.16592663296e-08
3.75768885744e-07
3.1675092314e-07
1.96427871182e-07
7.62988832818e-09
5.93299043828e-08
4.11658107956e-07
4.98406037259e-08
1.22137914697e-07
5.29959504286e-08
1.73506292502e-08
2.51299242062e-08
5.72850632936e-08
3.42622273803e-07
3.83202542423e-07
8.91315494001e-08
3.48731098003e-07
6.33156233012e-08
8.09588187275e-08
6.41784641434e-08
3.78315283318e-07
5.36601172036e-08
1.75887714948e-08
2.12320740004e-08
3.44637252027e-08
3.77514118615e-08
9.35666579242e-09
6.63199035642e-08
2.74951036672e-08
5.20415704562e-09
2.57947087359e-08
7.53230133504e-08
7.56096247669e-08
1.59266392122e-07
1.02198865737e-07
1.11736942101e-08
1.24460217616e-07
1.27242453471e-08
4.34810302104e-08
1.30893708032e-08
4.10359935141e-08
2.49361685269e-08
6.96407539145e-08
4.10497814476e-08
2.28367975487e-08
5.83901581048e-08
3.97569317359e-10
9.27318428048e-10
7.65894517934e-08
1.43422714783e-07
3.86911745947e-08
3.56655091661e-07
2.72234482714e-07
3.93571060435e-08
2.07074976034e-08
7.8845634304e-08
1.5280012671e-07
2.16963251144e-07
1.62836309891e-07
3.31532981188e-08
2.33761888862e-07
2.14571360058e-07
2.97719844714e-08
8.27827637604e-08
2.42143654803e-08
5.7077124707e-08
5.31031066564e-08
5.0505447412e-08
3.87199810028e-08
5.49870229461e-09
4.06307111274e-07
3.15208451211e-07
2.82245793049e-07
1.24881659253e-09
3.8699295641e-08
9.19930548115e-08
3.13161413759e-08
4.22860787003e-07
4.47910994373e-07
7.32087645505e-08
1.52383017835e-07
4.63796457655e-08
4.14229904293e-08
2.81897150134e-08
7.3563257213e-08
8.7963233823e-08
1.87777397464e-08
2.60334836723e-07
2.12433708221e-07
5.20929887892e-08
3.88328946683e-08
9.7064007814e-09
2.54069842709e-09
3.02697622963e-08
1.47523237969e-08
1.25648530984e-09
8.84677784235e-09
1.52810738078e-08
2.90533234836e-08
1.71753642237e-08
2.91611849801e-08
1.79856559428e-08
1.35914945995e-08
4.47946940132e-09
2.12914205097e-08
1.73001648106e-09
1.14489810419e-08
9.5557856802e-08
1.53986644603e-08
7.37862901704e-09
1.14076617473e-08
8.19932282826e-08
4.96424113826e-08
1.2896299646e-09
1.59490491022e-08
1.21655500266e-08
1.59650273816e-09
1.35239389687e-08
1.75838859231e-08
9.06755576074e-08
1.02568009269e-07
3.21115538017e-09
1.63035683777e-08
3.35207477415e-09
4.2674604021e-08
3.91340516138e-08
7.28588904604e-08
3.021592146e-08
1.72543507449e-07
1.48569854584e-09
3.8093109591e-09
3.06431652819e-08
6.83176149595e-09
3.35380552492e-08
2.95248367044e-08
2.33540516949e-08
1.15261819575e-08
3.60490738148e-08
3.28728917583e-09
1.53619795256e-09
3.69463145831e-08
2.5130146702e-07
1.48129831981e-08
5.80981059353e-09
2.07533364836e-08
5.52819503762e-08
6.47631080859e-08
2.52884839194e-08
3.14827074888e-08
2.31871907571e-08
1.57979911547e-08
2.63466631238e-08
5.11128511889e-09
2.53551723097e-08
2.18252252509e-09
2.67556835372e-09
2.04134445446e-08
7.26408727817e-08
5.06036274252e-08
3.86053520907e-09
1.41476288539e-07
2.4051248178e-08
4.20924475757e-08
2.21351388151e-08
8.01345918164e-09
9.27280453637e-09
1.21713356066e-08
6.38723626921e-09
6.46621574207e-09
2.74112987453e-10
6.61924458122e-08
3.50223229673e-09
1.33246982579e-08
1.02507041105e-08
6.28256700868e-09
2.29773278807e-09
1.13640243256e-08
2.11161578508e-09
1.31613666968e-10
4.91813071175e-09
5.20474426634e-09
5.9101501339e-09
1.4863144414e-08
1.05251621425e-08
2.86453898175e-08
1.27953659581e-08
1.20458127942e-08
8.89484883231e-09
1.08304627274e-07
1.38943410403e-08
1.54919259627e-08
7.13298577033e-08
4.34511348239e-08
1.3813437259e-08
6.14282559534e-09
1.58064315115e-08
8.07728140645e-09
2.59260131557e-08
4.70246311387e-09
2.51491651909e-08
7.84469972081e-08
2.0041608448e-08
8.00350936754e-09
6.55692080101e-09
7.37564102514e-08
2.5264839348e-08
7.14628070642e-09
1.60488121261e-08
1.2380689274e-08
2.31997623235e-09
8.48245616157e-09
1.21561701217e-08
8.04206097202e-08
1.3425381087e-08
4.66713453166e-08
1.42506820864e-08
4.42732934851e-08
8.8257650881e-09
1.27223197785e-08
3.94091814772e-08
8.86336483152e-08
8.78946349319e-08
1.06273293875e-08
1.08322758065e-08
1.69192767326e-08
1.73539011504e-08
1.28447294876e-08
1.36618507415e-08
7.59573167312e-09
1.93216658896e-08
1.07403141265e-07
1.09576901544e-08
1.72389605187e-08
1.13949082463e-07
3.10435389107e-08
2.85334327725e-08
4.83282074605e-09
2.13567214486e-08
3.0517615301e-09
5.84144123613e-08
5.99462236103e-08
3.7115206751e-09
3.36771171542e-09
2.97485337099e-08
2.13699454624e-08
1.65026869067e-08
4.25526908264e-08
3.05143000013e-08
1.09046049645e-08
2.11467203737e-08
7.23694929953e-09
1.64132761367e-08
6.87997670732e-09
2.71874551099e-08
2.46211529232e-08
2.0525868702e-08
4.89639009769e-09
1.04346417245e-07
2.98867122301e-08
3.31490252091e-09
1.87066707911e-08
4.47027625574e-08
6.55643568766e-08
1.7836255206e-09
2.79101461201e-08
4.20731435625e-08
2.50952961696e-09
7.4172991888e-09
2.28533156627e-08
8.53848434702e-09
3.63830870896e-08
1.78681253023e-08
5.04007891271e-08
2.86067540264e-08
9.8372199512e-09
8.49750788482e-11
4.91210482492e-08
2.42029949197e-07
5.47954567107e-08
8.31637489613e-08
2.21841185617e-08
3.81954203051e-08
4.79850225046e-08
3.04022651019e-08
6.70021314313e-08
5.80045986846e-08
1.40804719318e-08
2.92065287016e-08
1.26740052883e-08
1.11928799133e-08
1.68487941163e-08
7.32277445489e-09
3.27059812844e-09
3.81065428223e-09
1.36926976609e-08
1.43201521125e-08
8.5310738486e-08
4.51377883637e-08
9.46764448807e-08
5.46592743159e-08
1.45754777894e-08
6.56102452298e-09
2.46531170344e-08
2.81552049359e-08
1.32090440849e-08
6.85852258394e-11
6.43655674897e-09
2.67320750711e-08
4.87055144414e-08
9.01301127834e-09
4.24537185323e-08
4.65285092081e-08
2.68105591633e-08
8.53929901223e-09
3.70371392184e-08
8.05126399595e-09
8.80917178263e-08
5.28052247116e-09
9.54738675585e-09
1.602515512e-08
2.56977199067e-09
8.52016899659e-08
3.36422737447e-08
2.63978140329e-08
2.68927968312e-09
6.45163030763e-08
1.35639052965e-08
4.01590626339e-09
5.08761666083e-09
1.66642352403e-10
1.57055999993e-08
4.09891361309e-09
2.19405078795e-08
2.00189636235e-08
1.95956537633e-08
1.01356691228e-09
2.28342844358e-08
1.92395717028e-08
2.95202511685e-08
1.89877517172e-10
4.11693173094e-08
3.28027688994e-08
1.07871906557e-08
6.90710192e-09
1.01252825387e-08
1.28731200238e-08
1.88525234502e-08
1.70287204363e-08
5.73041534799e-08
5.30125710137e-08
1.20797591866e-08
2.19563780467e-08
7.79435080703e-09
5.49890913757e-09
1.78196584702e-08
1.38546242634e-08
2.57425611743e-08
4.86030967345e-08
1.9913754867e-08
1.45998250876e-08
2.02552019612e-08
7.00973110198e-09
2.81027545565e-09
2.91082283442e-08
1.85505720214e-08
1.24939936588e-08
1.79975358591e-08
1.20014126215e-08
5.55465654408e-08
4.90144138821e-09
5.78057038941e-09
5.97233488202e-08
2.01760962779e-09
2.34104913483e-08
3.20692147311e-08
5.81111391957e-09
6.1481673069e-08
6.15355192934e-08
4.60409582295e-08
8.67637021869e-09
1.98648772298e-08
9.06755172689e-09
7.43316877207e-08
1.03528764188e-07
8.0214709592e-10
7.10574842466e-08
5.01437704093e-08
3.71914158972e-08
3.27477004632e-08
2.42597731619e-08
1.20720442777e-08
3.1786639786e-09
3.53835721803e-08
3.86272972256e-09
2.65658538012e-08
2.58501255005e-08
2.25784310268e-08
7.39798579552e-09
7.95192152858e-09
5.01695101681e-09
5.01006474784e-08
8.53765742218e-09
5.22979092235e-09
3.97548989789e-08
5.94220643276e-09
7.90509693133e-09
7.34337732116e-08
3.66092571585e-08
2.65288045261e-08
5.77987905562e-10
4.47165128434e-08
7.07346898396e-10
3.38997549681e-08
5.230141291e-09
2.59598264285e-08
3.15590965969e-08
4.49247186733e-08
3.425636148e-08
3.63159861045e-08

