# vtk DataFile Version 3.0
File Name: Molecule/sphere_cent/sphere_cent_0-s15.vtk
ASCII
DATASET UNSTRUCTURED_GRID
FIELD FieldData 1
TIME 1 1 double
0.0
POINTS 174 double
1.23606798 -2.0 -3.23606798
0.64983939 -1.05146222 -3.80422607
2.10292445 0.0 -3.40260323
0.0 0.0 -4.0
0.0 -2.10292445 -3.40260323
-0.64983939 -1.05146222 -3.80422607
-1.23606798 -2.0 -3.23606798
0.0 -3.40260323 -2.10292445
-2.10292445 0.0 -3.40260323
2.0 3.23606798 1.23606798
2.75276384 2.35114101 1.70130162
3.40260323 2.10292445 0.0
3.23606798 1.23606798 2.0
1.70130162 2.75276384 2.35114101
2.35114101 1.70130162 2.75276384
1.23606798 2.0 3.23606798
0.0 3.40260323 2.10292445
2.10292445 0.0 3.40260323
0.64983939 1.05146222 -3.80422607
-0.64983939 1.05146222 -3.80422607
0.0 2.10292445 -3.40260323
-1.23606798 2.0 -3.23606798
1.23606798 2.0 -3.23606798
0.0 3.40260323 -2.10292445
-1.70130162 2.75276384 -2.35114101
-2.0 3.23606798 -1.23606798
-2.35114101 1.70130162 -2.75276384
-2.75276384 2.35114101 -1.70130162
-3.23606798 1.23606798 -2.0
2.0 -3.23606798 -1.23606798
1.05146222 -3.80422607 -0.64983939
0.0 -4.0 0.0
2.10292445 -3.40260323 0.0
1.05146222 -3.80422607 0.64983939
2.0 -3.23606798 1.23606798
3.40260323 -2.10292445 0.0
0.0 -3.40260323 2.10292445
3.23606798 -1.23606798 -2.0
2.35114101 -1.70130162 -2.75276384
2.75276384 -2.35114101 -1.70130162
1.70130162 -2.75276384 -2.35114101
-2.0 -3.23606798 -1.23606798
-1.05146222 -3.80422607 -0.64983939
-2.10292445 -3.40260323 0.0
-1.05146222 -3.80422607 0.64983939
-2.0 -3.23606798 1.23606798
-1.70130162 -2.75276384 2.35114101
-2.35114101 -1.70130162 2.75276384
-2.75276384 -2.35114101 1.70130162
-1.23606798 -2.0 3.23606798
4.0 0.0 0.0
3.80422607 0.64983939 1.05146222
3.80422607 -0.64983939 1.05146222
3.40260323 0.0 2.10292445
-3.80422607 0.64983939 1.05146222
-3.80422607 -0.64983939 1.05146222
-3.40260323 0.0 2.10292445
-2.35114101 -1.70130162 -2.75276384
-1.70130162 -2.75276384 -2.35114101
-2.75276384 -2.35114101 -1.70130162
-3.23606798 -1.23606798 -2.0
-3.40260323 -2.10292445 0.0
-3.80422607 -0.64983939 -1.05146222
-3.80422607 0.64983939 -1.05146222
-3.40260323 0.0 -2.10292445
-3.45067392 1.73555426 -1.03956765
-3.84775343 1.09306612 0.0
-4.0 0.0 0.0
-3.40260323 2.10292445 0.0
1.70130162 -2.75276384 2.35114101
2.75276384 -2.35114101 1.70130162
2.35114101 -1.70130162 2.75276384
3.23606798 -1.23606798 2.0
3.45067392 -1.73555426 1.03956765
2.80818578 -2.77512191 0.64248814
-0.64983939 -1.05146222 3.80422607
-2.10292445 0.0 3.40260323
0.0 -2.10292445 3.40260323
0.64983939 -1.05146222 3.80422607
1.23606798 -2.0 3.23606798
0.0 0.0 4.0
-0.64248814 -2.80818578 2.77512191
0.64248814 -2.80818578 2.77512191
-2.0 3.23606798 1.23606798
-2.75276384 2.35114101 1.70130162
-1.70130162 2.75276384 2.35114101
-2.35114101 1.70130162 2.75276384
0.0 2.10292445 3.40260323
-1.23606798 2.0 3.23606798
-0.64983939 1.05146222 3.80422607
0.64983939 1.05146222 3.80422607
2.0 3.23606798 -1.23606798
2.10292445 3.40260323 0.0
1.05146222 3.80422607 -0.64983939
1.05146222 3.80422607 0.64983939
0.0 4.0 0.0
-1.05146222 3.80422607 -0.64983939
-2.10292445 3.40260323 0.0
-1.05146222 3.80422607 0.64983939
3.45067392 -1.73555426 -1.03956765
3.84775343 -1.09306612 0.0
3.80422607 -0.64983939 -1.05146222
3.40260323 0.0 -2.10292445
3.80422607 0.64983939 -1.05146222
3.23606798 1.23606798 -2.0
2.75276384 2.35114101 -1.70130162
2.35114101 1.70130162 -2.75276384
1.70130162 2.75276384 -2.35114101
2.77512191 0.64248814 -2.80818578
1.73555426 1.03956765 -3.45067392
-3.23606798 -1.23606798 2.0
-3.45067392 -1.73555426 1.03956765
3.36071154 -0.62573786 2.07703396
2.77512191 -0.64248814 2.80818578
2.82842712 0.0 2.82842712
-3.95075336 -0.32896986 0.53228441
-3.5640261 -0.95470772 1.54474954
-3.70245917 -1.41421356 0.54018151
-3.84775343 -1.09306612 0.0
-3.45067392 -1.73555426 -1.03956765
-3.5640261 -0.95470772 -1.54474954
-3.95075336 -0.32896986 -0.53228441
-3.70245917 -1.41421356 -0.54018151
-1.09306612 0.0 3.84775343
1.09306612 0.0 3.84775343
-1.03956765 3.45067392 1.73555426
0.0 1.0656188 3.85544506
-0.32896986 0.53228441 3.95075336
0.32896986 0.53228441 3.95075336
-1.41421356 0.54018151 3.70245917
1.41421356 0.54018151 3.70245917
0.53228441 3.95075336 0.32896986
0.54018151 3.70245917 1.41421356
0.0 3.84775343 1.09306612
-0.53228441 3.95075336 0.32896986
-0.54018151 3.70245917 1.41421356
-1.54474954 3.5640261 0.95470772
-2.82842713 -1.48699214 2.40600382
-2.77512191 -0.64248814 2.80818578
-2.28824561 -0.87403205 3.16227766
-3.23606798 1.23606798 2.0
-3.36071154 0.62573786 2.07703396
-2.77512191 0.64248814 2.80818578
-2.82842712 0.0 2.82842712
-3.36071154 -0.62573786 2.07703396
1.815962 -1.8737194 3.03174168
1.73555426 -1.03956765 3.45067392
2.28824561 -0.87403205 3.16227766
-2.82842713 1.48699214 2.40600382
-1.815962 1.8737194 3.03174168
-2.80818578 2.77512191 0.64248814
-1.73555426 1.03956765 3.45067392
-2.28824561 0.87403205 3.16227766
-2.07703396 3.36071154 0.62573786
-2.82842712 2.82842712 0.0
-2.40600382 2.82842713 -1.48699214
-2.77512191 0.64248814 -2.80818578
-2.80818578 2.77512191 -0.64248814
-3.16227766 2.28824561 -0.87403205
-2.82842712 -2.82842712 0.0
-2.80818578 -2.77512191 0.64248814
-2.07703396 -3.36071154 0.62573786
-2.40600382 -2.82842713 1.48699214
-3.16227766 -2.28824561 0.87403205
-3.45067392 1.73555426 1.03956765
-2.77512191 -0.64248814 -2.80818578
-3.36071154 -0.62573786 -2.07703396
-2.82842712 0.0 -2.82842712
-3.36071154 0.62573786 -2.07703396
-0.87403205 3.16227766 2.28824561
-0.64248814 2.80818578 2.77512191
-1.48699214 2.40600382 2.82842713
-3.03174168 1.815962 1.8737194
-3.16227766 2.28824561 0.87403205

CELLS 344 1376
3 0 1 2
3 2 1 3
3 0 4 1
3 4 5 1
3 4 6 5
3 1 5 3
3 6 4 7
3 7 4 0
3 3 5 8
3 5 6 8
3 9 10 11
3 11 10 12
3 9 13 10
3 13 14 10
3 13 15 14
3 10 14 12
3 15 13 16
3 16 13 9
3 12 14 17
3 14 15 17
3 3 18 2
3 3 19 18
3 19 20 18
3 19 21 20
3 18 20 22
3 21 19 8
3 8 19 3
3 22 20 23
3 20 21 23
3 21 24 23
3 23 24 25
3 21 26 24
3 26 27 24
3 26 28 27
3 8 26 21
3 29 30 7
3 7 30 31
3 29 32 30
3 32 33 30
3 32 34 33
3 30 33 31
3 35 32 29
3 31 33 36
3 33 34 36
3 37 38 2
3 2 38 0
3 37 39 38
3 39 40 38
3 39 29 40
3 38 40 0
3 29 39 35
3 0 40 7
3 40 29 7
3 41 42 43
3 42 44 43
3 42 31 44
3 31 42 7
3 7 42 41
3 45 44 36
3 44 31 36
3 46 47 48
3 46 49 47
3 36 46 45
3 50 51 52
3 51 53 52
3 51 12 53
3 12 51 11
3 11 51 50
3 54 55 56
3 6 57 8
3 6 58 57
3 58 59 57
3 58 41 59
3 57 59 60
3 41 58 7
3 7 58 6
3 59 41 61
3 62 63 64
3 28 63 65
3 63 66 65
3 63 67 66
3 65 66 68
3 28 65 27
3 68 66 54
3 54 66 67
3 69 70 71
3 69 34 70
3 71 70 72
3 34 69 36
3 72 70 73
3 70 74 73
3 70 34 74
3 73 74 35
3 35 74 32
3 32 74 34
3 72 73 52
3 52 73 35
3 49 75 76
3 49 77 75
3 77 78 75
3 77 79 78
3 75 78 80
3 49 81 77
3 81 82 77
3 81 36 82
3 77 82 79
3 36 81 46
3 46 81 49
3 79 82 69
3 69 82 36
3 83 84 85
3 84 86 85
3 16 87 15
3 88 89 87
3 87 90 15
3 91 92 11
3 11 92 9
3 91 93 92
3 93 94 92
3 92 94 9
3 95 93 23
3 23 93 91
3 96 97 98
3 96 25 97
3 25 96 23
3 23 96 95
3 35 99 100
3 99 101 100
3 99 37 101
3 100 101 50
3 37 102 101
3 102 103 101
3 102 104 103
3 101 103 50
3 2 102 37
3 50 103 11
3 103 104 11
3 37 99 39
3 39 99 35
3 35 100 52
3 52 100 50
3 104 105 11
3 11 105 91
3 104 106 105
3 106 107 105
3 106 22 107
3 105 107 91
3 104 108 106
3 108 109 106
3 108 2 109
3 106 109 22
3 91 107 23
3 107 22 23
3 22 109 18
3 18 109 2
3 2 108 102
3 102 108 104
3 110 111 48
3 53 112 52
3 52 112 72
3 72 112 113
3 112 114 113
3 112 53 114
3 113 114 17
3 17 114 12
3 12 114 53
3 67 115 54
3 54 115 55
3 55 116 56
3 110 116 111
3 116 117 111
3 116 55 117
3 111 117 61
3 55 115 117
3 115 118 117
3 115 67 118
3 117 118 61
3 61 119 59
3 59 119 60
3 120 62 64
3 62 121 63
3 121 67 63
3 67 121 118
3 121 122 118
3 121 62 122
3 118 122 61
3 61 122 119
3 122 120 119
3 122 62 120
3 119 120 60
3 72 113 71
3 80 123 75
3 75 123 76
3 17 124 78
3 78 124 80
3 85 125 83
3 89 126 87
3 126 90 87
3 89 127 126
3 127 128 126
3 127 80 128
3 126 128 90
3 80 127 123
3 127 129 123
3 127 89 129
3 123 129 76
3 129 89 88
3 90 130 15
3 15 130 17
3 90 128 130
3 128 124 130
3 128 80 124
3 130 124 17
3 95 131 93
3 93 131 94
3 94 132 9
3 9 132 16
3 94 131 132
3 131 133 132
3 131 95 133
3 132 133 16
3 95 134 133
3 134 135 133
3 134 98 135
3 133 135 16
3 16 135 125
3 135 136 125
3 135 98 136
3 125 136 83
3 98 134 96
3 96 134 95
3 97 136 98
3 47 137 48
3 48 137 110
3 110 137 138
3 137 139 138
3 137 47 139
3 138 139 76
3 76 139 49
3 49 139 47
3 140 141 142
3 141 143 142
3 141 56 143
3 142 143 76
3 76 143 138
3 143 144 138
3 143 56 144
3 138 144 110
3 56 141 54
3 54 141 140
3 79 145 146
3 145 147 146
3 145 71 147
3 146 147 17
3 71 145 69
3 69 145 79
3 79 146 78
3 78 146 17
3 84 148 86
3 86 149 85
3 83 150 84
3 88 149 151
3 149 152 151
3 149 86 152
3 151 152 76
3 86 148 152
3 148 142 152
3 148 140 142
3 152 142 76
3 83 153 150
3 153 154 150
3 153 97 154
3 150 154 68
3 25 154 97
3 110 144 116
3 116 144 56
3 17 147 113
3 113 147 71
3 88 151 129
3 129 151 76
3 97 153 136
3 136 153 83
3 27 155 24
3 24 155 25
3 8 156 26
3 26 156 28
3 25 155 157
3 155 158 157
3 155 27 158
3 157 158 68
3 43 159 41
3 41 159 61
3 61 159 160
3 159 161 160
3 159 43 161
3 160 161 45
3 45 161 44
3 44 161 43
3 45 162 160
3 162 163 160
3 162 48 163
3 160 163 61
3 48 162 46
3 46 162 45
3 140 164 54
3 54 164 68
3 60 165 57
3 57 165 8
3 60 166 165
3 166 167 165
3 166 64 167
3 165 167 8
3 8 167 156
3 167 168 156
3 167 64 168
3 156 168 28
3 28 168 63
3 63 168 64
3 68 158 65
3 65 158 27
3 16 169 170
3 169 171 170
3 169 85 171
3 170 171 88
3 140 172 164
3 172 173 164
3 172 84 173
3 164 173 68
3 16 170 87
3 87 170 88
3 61 163 111
3 111 163 48
3 64 166 120
3 120 166 60
3 85 169 125
3 125 169 16
3 84 172 148
3 148 172 140
3 88 171 149
3 149 171 85
3 68 173 150
3 150 173 84
3 25 157 154
3 154 157 68

CELL_TYPES 344
5
5
5
5
5
5
5
5
5
5
5
5
5
5
5
5
5
5
5
5
5
5
5
5
5
5
5
5
5
5
5
5
5
5
5
5
5
5
5
5
5
5
5
5
5
5
5
5
5
5
5
5
5
5
5
5
5
5
5
5
5
5
5
5
5
5
5
5
5
5
5
5
5
5
5
5
5
5
5
5
5
5
5
5
5
5
5
5
5
5
5
5
5
5
5
5
5
5
5
5
5
5
5
5
5
5
5
5
5
5
5
5
5
5
5
5
5
5
5
5
5
5
5
5
5
5
5
5
5
5
5
5
5
5
5
5
5
5
5
5
5
5
5
5
5
5
5
5
5
5
5
5
5
5
5
5
5
5
5
5
5
5
5
5
5
5
5
5
5
5
5
5
5
5
5
5
5
5
5
5
5
5
5
5
5
5
5
5
5
5
5
5
5
5
5
5
5
5
5
5
5
5
5
5
5
5
5
5
5
5
5
5
5
5
5
5
5
5
5
5
5
5
5
5
5
5
5
5
5
5
5
5
5
5
5
5
5
5
5
5
5
5
5
5
5
5
5
5
5
5
5
5
5
5
5
5
5
5
5
5
5
5
5
5
5
5
5
5
5
5
5
5
5
5
5
5
5
5
5
5
5
5
5
5
5
5
5
5
5
5
5
5
5
5
5
5
5
5
5
5
5
5
5
5
5
5
5
5
5
5
5
5
5
5
5
5
5
5
5
5
5
5
5
5
5
5
5
5
5
5
5
5
5
5
5
5
5
5
5
5
5
5
5
5

CELL_DATA 344
SCALARS cell_data_0 double
LOOKUP_TABLE default
2.64635713001e-08
1.70563355351e-07
1.10974486386e-07
3.05747006211e-08
1.0900603228e-07
6.4663560482e-08
2.49383392622e-07
2.21513216309e-07
3.04681560199e-07
1.91272685877e-07
7.77269729043e-08
9.23322432621e-08
2.38091872292e-07
3.56671646942e-08
2.25348346306e-07
1.01630011281e-07
1.48190309509e-07
2.8731860729e-07
4.85442129132e-07
2.25930008304e-07
2.07226067234e-07
1.15448161682e-07
8.91959680537e-08
3.13171246548e-07
1.86142468565e-07
1.7186709929e-08
2.43938286398e-07
5.95942449959e-08
1.31449816126e-07
9.06042716381e-08
1.70686942522e-07
2.26968556234e-07
4.22967184976e-08
4.06847595179e-09
1.18642159702e-07
1.43096856785e-07
2.656786446e-07
1.59264694986e-07
6.10917226009e-09
5.0312759834e-09
7.60828697765e-08
8.93769243529e-08
3.35783096368e-07
3.52534350425e-07
3.54612790454e-08
1.45185500819e-08
9.23774461398e-08
5.77314046419e-09
1.53917581207e-07
1.75429485053e-07
9.17201623952e-08
1.33429705331e-07
1.39872027004e-07
1.23367280683e-07
1.88145374343e-08
1.19423594541e-07
2.08271322271e-07
1.37270661091e-07
3.28757746957e-07
3.27144294347e-07
6.29174167111e-08
2.57797532401e-08
3.72545998464e-07
1.40349043951e-09
5.61506156298e-08
1.3520367637e-08
2.28126540823e-07
2.19353689756e-07
4.66755008185e-08
2.6702803122e-07
9.548540954e-08
9.02152370425e-08
3.5826488252e-08
4.48663338614e-08
2.76861948762e-07
2.42124290783e-07
5.08431755245e-07
3.4678551233e-08
5.85086632116e-08
1.27905615174e-08
9.16395101072e-08
8.80551859283e-08
4.12813922744e-08
2.62458780587e-08
1.0699201718e-07
1.45852929263e-07
7.34516133172e-08
7.53075959702e-08
4.62790505015e-07
9.85376678373e-09
1.59369271749e-08
8.75456661083e-10
2.00471890737e-07
1.07792386818e-07
4.05372556357e-08
1.85417559293e-08
6.64135811297e-08
4.14046778944e-07
7.77238040213e-08
2.97609424793e-09
5.64694526587e-09
2.08245459351e-08
7.37536130718e-08
8.94579492709e-09
1.17575909707e-07
2.4537879754e-08
3.25285408809e-08
9.48627964105e-08
1.11877902125e-08
2.94750161581e-08
3.79853841916e-09
3.73441017396e-08
1.87024234082e-07
2.62265649537e-08
2.61459258801e-07
2.87105972362e-08
4.61838285342e-09
1.44131371745e-07
2.69451803404e-08
1.47114804956e-07
2.29953412514e-07
6.52103229063e-08
1.33258538029e-07
2.33576934169e-08
2.29735996183e-07
2.60930033116e-07
2.13705100482e-07
6.415251864e-08
1.26732171409e-07
8.24538959266e-08
1.37726958723e-07
1.49557385678e-08
3.65297529275e-08
5.48319105654e-08
7.89497834706e-08
1.93302838744e-07
1.86030500671e-07
9.8762896178e-08
1.00290753955e-07
8.3829511317e-08
5.74495957296e-08
1.55455178597e-07
4.13550605944e-08
8.17765331202e-09
1.08402177131e-07
3.32733503081e-08
9.73791492437e-08
1.11799100666e-08
7.30014003384e-08
1.56814770393e-07
5.26657070834e-08
1.22964629716e-07
8.02331687959e-08
1.16863506118e-07
8.54955213009e-08
1.0391747923e-07
4.90928337455e-08
4.99933262664e-08
1.24610517565e-08
7.92295111508e-09
1.4384327878e-08
1.1903330793e-08
1.76790503866e-08
3.64380321082e-08
2.13506669182e-07
1.5229856132e-08
6.36909414804e-08
1.75104231608e-08
1.262033682e-08
4.43649724086e-10
1.95656699741e-08
7.66437846052e-09
1.17061134114e-09
1.02894341883e-08
1.37358807353e-08
5.34683059547e-08
6.26656990583e-09
1.35280420299e-07
3.55881838972e-08
6.20981106984e-08
3.88533756826e-08
5.63730686004e-08
4.93049302011e-08
1.69562034493e-08
3.05135774517e-08
7.00295816678e-09
1.48337993091e-08
1.13391731757e-08
3.85457500571e-08
1.26754839194e-08
3.92259459303e-08
7.81602479974e-09
7.86515081808e-08
1.10117654098e-07
7.4422689405e-09
7.95676570719e-08
3.32958510344e-09
3.10095213348e-08
1.70423069734e-08
7.52204530008e-09
2.99688324625e-08
4.14516968464e-08
5.33930227892e-09
1.07338281892e-08
1.39374207869e-09
2.44656067944e-08
3.04534481289e-08
1.4551310682e-07
9.17296928472e-08
2.92876041441e-08
1.1664897604e-08
1.38243455813e-08
3.84036758912e-08
3.93516389965e-08
1.7127327792e-08
4.08373452686e-08
1.47093348787e-07
1.18151189527e-08
2.51649473379e-08
1.94231922195e-09
1.57108698568e-08
7.03434332926e-09
2.81696310502e-08
1.37640880692e-08
7.52840377251e-11
2.87414067626e-09
2.31567051662e-08
9.64288431565e-09
2.63166987767e-09
2.23922330935e-08
1.6854082272e-08
2.2162027793e-08
1.22626587587e-09
4.78295919419e-09
8.45351072493e-09
5.84398053079e-10
1.01599343149e-08
4.65842625453e-08
1.68916852801e-07
1.19353269968e-08
2.39968766739e-08
1.7040830414e-08
9.52613692205e-09
5.09076473709e-09
1.53566170474e-08
5.61564136347e-09
8.93169444677e-09
8.91880097752e-09
2.13247848557e-08
3.17864897266e-08
1.84955105222e-08
2.64950742517e-08
1.28309405246e-08
1.33394191424e-08
2.07137011081e-08
8.54527901028e-09
2.27283659304e-08
1.02770089421e-07
3.6854799239e-08
1.73706708209e-08
2.60202826004e-08
3.07119767006e-08
2.25566382929e-08
3.62670756577e-09
1.33484658169e-09
6.22702733505e-09
1.63915863783e-08
1.95608920386e-08
5.05991922149e-09
7.37760353893e-09
9.05985404471e-09
9.33901457335e-09
5.02948725051e-08
6.11018785298e-08
2.41165595694e-08
1.33546527942e-08
3.88410049423e-09
6.95602946841e-09
6.59107038812e-09
1.01172608233e-08
3.84818750779e-09
2.49073091652e-08
6.92491710574e-10
3.89743395814e-08
3.0203524697e-08
2.34107563584e-08
7.95198789536e-09
2.81552814137e-08
1.3658613793e-08
3.19319796256e-08
2.33684276284e-08
1.67545711499e-07
2.88959203963e-08
1.96671584567e-08
9.80112472571e-09
4.70552774941e-09
3.45565295393e-08
3.87192320183e-09
3.27925776484e-09
3.67724773763e-08
4.90161299877e-09
1.02890876866e-08
8.33159908834e-09
4.06129635894e-08
3.91950173439e-08
4.27499680512e-08
5.35615868828e-09
3.01951861976e-08
1.02516387074e-08
2.66369455563e-08
8.40911037298e-09
4.41057103249e-08
4.1453567416e-08
2.94253434295e-08
1.10085319411e-08
2.8824418081e-08
3.5011449135e-08
3.08672463466e-08
6.67543946301e-08
2.22356668737e-08
9.13214455863e-09
3.13780677273e-08
2.47858898115e-08
3.05392933399e-08
3.35080438235e-08
8.44332832556e-09
1.91614000483e-08
6.09737376696e-08
8.1794294043e-08
5.21504988354e-08
4.82965700841e-09
4.90396238406e-09
2.3306009935e-08
3.34006149226e-08
2.89628695526e-08
1.29939617871e-08
2.48590182903e-08
3.60648275823e-08
4.24146901404e-08
1.2197274514e-09
3.34792400873e-08
3.19237331424e-08
2.65405729638e-08
4.57980308866e-08

