# vtk DataFile Version 3.0
File Name: Molecule/sphere_cent/sphere_cent_0-s14.vtk
ASCII
DATASET UNSTRUCTURED_GRID
FIELD FieldData 1
TIME 1 1 double
0.0
POINTS 155 double
1.23606798 -2.0 -3.23606798
0.64983939 -1.05146222 -3.80422607
2.10292445 0.0 -3.40260323
0.0 0.0 -4.0
0.0 -2.10292445 -3.40260323
-0.64983939 -1.05146222 -3.80422607
-1.23606798 -2.0 -3.23606798
0.0 -3.40260323 -2.10292445
-2.10292445 0.0 -3.40260323
2.0 3.23606798 1.23606798
2.75276384 2.35114101 1.70130162
3.40260323 2.10292445 0.0
3.23606798 1.23606798 2.0
1.70130162 2.75276384 2.35114101
2.35114101 1.70130162 2.75276384
1.23606798 2.0 3.23606798
0.0 3.40260323 2.10292445
2.10292445 0.0 3.40260323
0.64983939 1.05146222 -3.80422607
-0.64983939 1.05146222 -3.80422607
0.0 2.10292445 -3.40260323
-1.23606798 2.0 -3.23606798
1.23606798 2.0 -3.23606798
0.0 3.40260323 -2.10292445
-1.70130162 2.75276384 -2.35114101
-2.0 3.23606798 -1.23606798
-2.35114101 1.70130162 -2.75276384
-2.75276384 2.35114101 -1.70130162
-3.23606798 1.23606798 -2.0
-3.40260323 2.10292445 0.0
2.0 -3.23606798 -1.23606798
1.05146222 -3.80422607 -0.64983939
0.0 -4.0 0.0
2.10292445 -3.40260323 0.0
1.05146222 -3.80422607 0.64983939
2.0 -3.23606798 1.23606798
3.40260323 -2.10292445 0.0
0.0 -3.40260323 2.10292445
3.23606798 -1.23606798 -2.0
2.35114101 -1.70130162 -2.75276384
2.75276384 -2.35114101 -1.70130162
1.70130162 -2.75276384 -2.35114101
-2.0 -3.23606798 -1.23606798
-2.10292445 -3.40260323 0.0
-3.40260323 -2.10292445 0.0
-2.0 -3.23606798 1.23606798
-1.05146222 -3.80422607 -0.64983939
-1.05146222 -3.80422607 0.64983939
-2.75276384 -2.35114101 1.70130162
-1.70130162 -2.75276384 2.35114101
-2.35114101 -1.70130162 2.75276384
-1.23606798 -2.0 3.23606798
4.0 0.0 0.0
3.80422607 0.64983939 1.05146222
3.80422607 -0.64983939 1.05146222
3.40260323 0.0 2.10292445
-3.80422607 0.64983939 1.05146222
-3.80422607 -0.64983939 1.05146222
-3.40260323 0.0 2.10292445
-3.23606798 1.23606798 2.0
-2.35114101 -1.70130162 -2.75276384
-3.23606798 -1.23606798 -2.0
-1.70130162 -2.75276384 -2.35114101
-2.75276384 -2.35114101 -1.70130162
-3.40260323 0.0 -2.10292445
-3.80422607 -0.64983939 -1.05146222
-3.80422607 0.64983939 -1.05146222
-3.45067392 1.73555426 -1.03956765
-3.84775343 1.09306612 0.0
-4.0 0.0 0.0
1.70130162 -2.75276384 2.35114101
2.75276384 -2.35114101 1.70130162
2.35114101 -1.70130162 2.75276384
3.23606798 -1.23606798 2.0
3.45067392 -1.73555426 1.03956765
2.80818578 -2.77512191 0.64248814
-0.64983939 -1.05146222 3.80422607
-2.10292445 0.0 3.40260323
0.0 -2.10292445 3.40260323
0.64983939 -1.05146222 3.80422607
1.23606798 -2.0 3.23606798
0.0 0.0 4.0
-0.64248814 -2.80818578 2.77512191
0.64248814 -2.80818578 2.77512191
-1.70130162 2.75276384 2.35114101
-1.23606798 2.0 3.23606798
-2.0 3.23606798 1.23606798
-2.75276384 2.35114101 1.70130162
-2.35114101 1.70130162 2.75276384
0.0 2.10292445 3.40260323
-0.64983939 1.05146222 3.80422607
0.64983939 1.05146222 3.80422607
2.0 3.23606798 -1.23606798
2.10292445 3.40260323 0.0
1.05146222 3.80422607 -0.64983939
1.05146222 3.80422607 0.64983939
0.0 4.0 0.0
-1.05146222 3.80422607 -0.64983939
-2.10292445 3.40260323 0.0
-1.05146222 3.80422607 0.64983939
3.45067392 -1.73555426 -1.03956765
3.84775343 -1.09306612 0.0
3.80422607 -0.64983939 -1.05146222
3.40260323 0.0 -2.10292445
3.80422607 0.64983939 -1.05146222
3.23606798 1.23606798 -2.0
2.75276384 2.35114101 -1.70130162
2.35114101 1.70130162 -2.75276384
1.70130162 2.75276384 -2.35114101
2.77512191 0.64248814 -2.80818578
1.73555426 1.03956765 -3.45067392
-3.23606798 -1.23606798 2.0
-3.45067392 -1.73555426 1.03956765
3.36071154 -0.62573786 2.07703396
2.77512191 -0.64248814 2.80818578
2.82842712 0.0 2.82842712
-3.95075336 -0.32896986 0.53228441
-3.5640261 -0.95470772 1.54474954
-3.70245917 -1.41421356 0.54018151
-3.84775343 -1.09306612 0.0
-3.45067392 -1.73555426 -1.03956765
-3.5640261 -0.95470772 -1.54474954
-3.95075336 -0.32896986 -0.53228441
-3.70245917 -1.41421356 -0.54018151
-1.09306612 0.0 3.84775343
1.09306612 0.0 3.84775343
-1.03956765 3.45067392 1.73555426
0.0 1.0656188 3.85544506
-0.32896986 0.53228441 3.95075336
0.32896986 0.53228441 3.95075336
-1.41421356 0.54018151 3.70245917
1.41421356 0.54018151 3.70245917
0.53228441 3.95075336 0.32896986
0.54018151 3.70245917 1.41421356
0.0 3.84775343 1.09306612
-0.53228441 3.95075336 0.32896986
-0.54018151 3.70245917 1.41421356
-1.54474954 3.5640261 0.95470772
-2.82842713 -1.48699214 2.40600382
-2.77512191 -0.64248814 2.80818578
-2.28824561 -0.87403205 3.16227766
-3.36071154 0.62573786 2.07703396
-2.77512191 0.64248814 2.80818578
-2.82842712 0.0 2.82842712
-3.36071154 -0.62573786 2.07703396
1.815962 -1.8737194 3.03174168
1.73555426 -1.03956765 3.45067392
2.28824561 -0.87403205 3.16227766
-2.82842713 1.48699214 2.40600382
-1.815962 1.8737194 3.03174168
-2.80818578 2.77512191 0.64248814
-1.73555426 1.03956765 3.45067392
-2.28824561 0.87403205 3.16227766
-2.07703396 3.36071154 0.62573786
-2.82842712 2.82842712 0.0

CELLS 306 1224
3 0 1 2
3 2 1 3
3 0 4 1
3 4 5 1
3 4 6 5
3 1 5 3
3 6 4 7
3 7 4 0
3 3 5 8
3 5 6 8
3 9 10 11
3 11 10 12
3 9 13 10
3 13 14 10
3 13 15 14
3 10 14 12
3 15 13 16
3 16 13 9
3 12 14 17
3 14 15 17
3 3 18 2
3 3 19 18
3 19 20 18
3 19 21 20
3 18 20 22
3 21 19 8
3 8 19 3
3 22 20 23
3 20 21 23
3 21 24 23
3 23 24 25
3 21 26 24
3 26 27 24
3 26 28 27
3 24 27 25
3 28 26 8
3 8 26 21
3 25 27 29
3 30 31 7
3 7 31 32
3 30 33 31
3 33 34 31
3 33 35 34
3 31 34 32
3 36 33 30
3 32 34 37
3 34 35 37
3 38 39 2
3 2 39 0
3 38 40 39
3 40 41 39
3 40 30 41
3 39 41 0
3 30 40 36
3 0 41 7
3 41 30 7
3 42 43 44
3 44 43 45
3 42 46 43
3 46 47 43
3 46 32 47
3 43 47 45
3 32 46 7
3 7 46 42
3 45 47 37
3 47 32 37
3 45 48 44
3 45 49 48
3 49 50 48
3 49 51 50
3 37 49 45
3 52 53 54
3 53 55 54
3 53 12 55
3 12 53 11
3 11 53 52
3 56 57 58
3 29 56 59
3 6 60 8
3 8 60 61
3 6 62 60
3 62 63 60
3 62 42 63
3 60 63 61
3 42 62 7
3 7 62 6
3 63 42 44
3 61 64 8
3 8 64 28
3 65 66 64
3 64 66 28
3 28 66 67
3 66 68 67
3 66 69 68
3 67 68 29
3 28 67 27
3 27 67 29
3 29 68 56
3 56 68 69
3 70 71 72
3 70 35 71
3 72 71 73
3 35 70 37
3 73 71 74
3 71 75 74
3 71 35 75
3 74 75 36
3 36 75 33
3 33 75 35
3 73 74 54
3 54 74 36
3 51 76 77
3 51 78 76
3 78 79 76
3 78 80 79
3 76 79 81
3 51 82 78
3 82 83 78
3 82 37 83
3 78 83 80
3 37 82 49
3 49 82 51
3 80 83 70
3 70 83 37
3 16 84 85
3 86 87 84
3 87 88 84
3 59 87 29
3 85 89 16
3 16 89 15
3 85 90 89
3 89 91 15
3 92 93 11
3 11 93 9
3 92 94 93
3 94 95 93
3 93 95 9
3 96 94 23
3 23 94 92
3 97 98 99
3 97 25 98
3 25 97 23
3 23 97 96
3 36 100 101
3 100 102 101
3 100 38 102
3 101 102 52
3 38 103 102
3 103 104 102
3 103 105 104
3 102 104 52
3 2 103 38
3 52 104 11
3 104 105 11
3 38 100 40
3 40 100 36
3 36 101 54
3 54 101 52
3 105 106 11
3 11 106 92
3 105 107 106
3 107 108 106
3 107 22 108
3 106 108 92
3 105 109 107
3 109 110 107
3 109 2 110
3 107 110 22
3 92 108 23
3 108 22 23
3 22 110 18
3 18 110 2
3 2 109 103
3 103 109 105
3 111 112 48
3 48 112 44
3 55 113 54
3 54 113 73
3 73 113 114
3 113 115 114
3 113 55 115
3 114 115 17
3 17 115 12
3 12 115 55
3 69 116 56
3 56 116 57
3 57 117 58
3 111 117 112
3 117 118 112
3 117 57 118
3 112 118 44
3 57 116 118
3 116 119 118
3 116 69 119
3 118 119 44
3 44 120 63
3 63 120 61
3 61 121 64
3 121 65 64
3 65 122 66
3 122 69 66
3 69 122 119
3 122 123 119
3 122 65 123
3 119 123 44
3 44 123 120
3 123 121 120
3 123 65 121
3 120 121 61
3 73 114 72
3 81 124 76
3 76 124 77
3 17 125 79
3 79 125 81
3 16 126 84
3 84 126 86
3 90 127 89
3 127 91 89
3 90 128 127
3 128 129 127
3 128 81 129
3 127 129 91
3 81 128 124
3 128 130 124
3 128 90 130
3 124 130 77
3 130 90 85
3 91 131 15
3 15 131 17
3 91 129 131
3 129 125 131
3 129 81 125
3 131 125 17
3 96 132 94
3 94 132 95
3 95 133 9
3 9 133 16
3 95 132 133
3 132 134 133
3 132 96 134
3 133 134 16
3 96 135 134
3 135 136 134
3 135 99 136
3 134 136 16
3 16 136 126
3 136 137 126
3 136 99 137
3 126 137 86
3 99 135 97
3 97 135 96
3 98 137 99
3 50 138 48
3 48 138 111
3 111 138 139
3 138 140 139
3 138 50 140
3 139 140 77
3 77 140 51
3 51 140 50
3 59 141 142
3 141 143 142
3 141 58 143
3 142 143 77
3 77 143 139
3 143 144 139
3 143 58 144
3 139 144 111
3 58 141 56
3 56 141 59
3 80 145 146
3 145 147 146
3 145 72 147
3 146 147 17
3 72 145 70
3 70 145 80
3 80 146 79
3 79 146 17
3 59 148 87
3 87 148 88
3 88 149 84
3 84 149 85
3 86 150 87
3 87 150 29
3 85 149 151
3 149 152 151
3 149 88 152
3 151 152 77
3 88 148 152
3 148 142 152
3 148 59 142
3 152 142 77
3 86 153 150
3 153 154 150
3 153 98 154
3 150 154 29
3 29 154 25
3 25 154 98
3 111 144 117
3 117 144 58
3 17 147 114
3 114 147 72
3 85 151 130
3 130 151 77
3 98 153 137
3 137 153 86

CELL_TYPES 306
5
5
5
5
5
5
5
5
5
5
5
5
5
5
5
5
5
5
5
5
5
5
5
5
5
5
5
5
5
5
5
5
5
5
5
5
5
5
5
5
5
5
5
5
5
5
5
5
5
5
5
5
5
5
5
5
5
5
5
5
5
5
5
5
5
5
5
5
5
5
5
5
5
5
5
5
5
5
5
5
5
5
5
5
5
5
5
5
5
5
5
5
5
5
5
5
5
5
5
5
5
5
5
5
5
5
5
5
5
5
5
5
5
5
5
5
5
5
5
5
5
5
5
5
5
5
5
5
5
5
5
5
5
5
5
5
5
5
5
5
5
5
5
5
5
5
5
5
5
5
5
5
5
5
5
5
5
5
5
5
5
5
5
5
5
5
5
5
5
5
5
5
5
5
5
5
5
5
5
5
5
5
5
5
5
5
5
5
5
5
5
5
5
5
5
5
5
5
5
5
5
5
5
5
5
5
5
5
5
5
5
5
5
5
5
5
5
5
5
5
5
5
5
5
5
5
5
5
5
5
5
5
5
5
5
5
5
5
5
5
5
5
5
5
5
5
5
5
5
5
5
5
5
5
5
5
5
5
5
5
5
5
5
5
5
5
5
5
5
5
5
5
5
5
5
5
5
5
5
5
5
5
5
5
5
5
5
5
5
5
5
5
5
5
5
5
5
5
5
5
5
5
5
5
5
5

CELL_DATA 306
SCALARS cell_data_0 double
LOOKUP_TABLE default
1.68501204262e-07
1.03227347316e-07
2.68505759656e-07
2.09165921915e-07
1.81017585158e-07
3.57543568779e-07
3.0804122806e-07
1.05991615762e-07
1.5227712882e-08
1.35542099608e-07
1.54452120196e-07
9.22431988118e-08
2.36127578348e-07
5.64904249502e-08
2.24409725858e-07
2.04521232211e-07
1.65744998183e-07
2.97931727201e-07
3.50809152832e-07
1.90026886412e-07
4.53501809858e-08
1.53430256021e-07
2.47406150224e-08
1.36500049624e-07
1.60410603329e-07
1.65628443747e-07
1.94619062576e-07
9.64887155852e-09
4.93832535896e-08
8.16760978484e-08
8.07985737676e-08
2.59491613182e-07
9.32594053269e-08
7.99694504966e-08
1.32561162893e-07
2.52028642901e-07
1.032798882e-07
3.61816340831e-07
3.20395510835e-07
2.9313423422e-07
2.66378930632e-08
2.30525081483e-08
5.26898426572e-08
8.72491212228e-08
2.56310684542e-07
2.77542097503e-07
2.43219280553e-07
6.21989630704e-08
2.53814774871e-08
8.52885439144e-08
4.64344144996e-08
1.18705947452e-07
2.53321847266e-07
2.24799912777e-07
3.33457951459e-09
2.14011388362e-07
1.99590318998e-07
3.62832073516e-07
2.62983455e-07
2.61389594614e-08
1.02888829574e-07
1.04126627512e-07
2.30804338172e-07
2.14682673877e-09
2.5784392124e-07
3.1144453592e-07
4.11204415285e-07
1.28019457209e-07
2.32160347929e-08
7.56107063485e-08
2.68710656192e-07
2.28117467554e-08
1.12586765348e-07
1.89317588963e-08
1.08959654982e-07
2.14947531777e-07
6.60941703232e-08
3.10953152501e-07
3.22079149883e-07
3.11793581295e-07
5.17203596348e-08
3.63461980537e-08
1.85284162699e-07
8.57331038925e-09
7.78197563495e-08
3.30042486626e-07
2.88497334174e-07
3.95129645359e-07
3.68949000549e-07
1.60382368757e-08
4.92344059034e-08
8.63311976133e-08
7.88281168744e-08
1.25615390974e-07
1.1474280934e-07
5.49321346011e-08
2.31334231665e-08
4.47876641136e-08
9.09170410102e-08
1.14627706134e-07
1.44890121032e-08
7.30482403146e-08
3.49363381292e-07
4.43243328445e-08
4.88225533647e-08
2.85723578812e-08
1.77539506243e-07
9.98252317635e-08
6.72245991991e-08
6.08673639668e-10
3.89553751813e-08
3.05238006041e-07
1.48011333862e-07
5.49581169641e-08
3.5260923432e-09
6.62699085352e-08
6.79394110112e-08
7.23930237208e-09
1.18300939627e-07
3.57347013709e-08
2.61084984953e-08
1.10840628286e-07
3.67232997215e-08
2.34405214305e-08
4.35623677209e-07
8.12513943902e-08
4.82239380483e-08
3.9040737861e-07
3.26014048723e-07
1.49492562654e-07
8.33352020378e-08
1.70559779215e-07
6.40123151436e-08
1.11318383369e-07
1.97003539025e-07
1.41820245211e-08
1.6641198456e-07
1.88159290111e-07
3.78078579463e-08
1.17459588962e-07
3.6279130662e-08
2.29129436268e-07
2.66866697384e-07
1.86714107066e-07
1.9251933616e-08
9.170819102e-08
5.02354144334e-08
1.45937366824e-07
4.3093117817e-08
8.50673786587e-08
4.59434138885e-08
3.36250816928e-08
1.2891671047e-07
1.07274213553e-07
8.89341004732e-08
9.06973899555e-08
7.52979668829e-08
4.4297975907e-08
1.37837319526e-07
3.8002725051e-08
3.36914384901e-08
7.11104434058e-08
1.15213665777e-07
7.28445246075e-08
1.01000001978e-08
3.79219915763e-08
1.42380125534e-07
1.40145164142e-07
1.36020858413e-07
3.74703538722e-08
1.60591620455e-07
1.06833846772e-07
9.98944227981e-08
4.69979152342e-08
1.22661089415e-08
8.96545115669e-08
3.1304707225e-09
1.57704002765e-08
1.25433733015e-08
1.34369267729e-08
6.79232048084e-09
3.29140347084e-08
1.5077477744e-07
1.30779022398e-08
4.61784695416e-08
2.3749357358e-08
3.32511914327e-09
7.88098137574e-09
2.13075472015e-08
1.78763518445e-09
1.23075405907e-08
1.25675962024e-09
2.81355650392e-08
2.21318049797e-08
7.20466776941e-09
1.20519555447e-07
3.17282866124e-08
1.39385570683e-08
4.32513129881e-09
6.98143272898e-08
7.57115305829e-08
2.45178881422e-08
2.37861329084e-08
1.91225326265e-08
4.79701881175e-09
9.52207371296e-09
3.31726759075e-08
6.51036253082e-09
2.58583395025e-09
3.98401020419e-08
4.75583456975e-08
3.66065734196e-08
1.04356255866e-07
3.81515147541e-09
1.08530301566e-07
4.2103033973e-08
7.39865688171e-09
1.01242959947e-08
2.31037537261e-08
2.51846500356e-10
2.04304418694e-08
1.5765099999e-08
1.46722913471e-09
9.3369536132e-09
1.35028960739e-08
2.54514625412e-08
3.73201817185e-09
1.04599737377e-07
6.63875820107e-08
1.81248137635e-09
7.98227585508e-09
1.70667987768e-09
5.20438944323e-08
3.55875938657e-08
3.21486699788e-09
4.72734268946e-08
1.17192202419e-07
2.3976252764e-09
2.98288064786e-08
1.19676368708e-08
2.81543330578e-08
1.08230153768e-08
4.14172123382e-08
6.73802001616e-09
6.38578003506e-09
1.7083616101e-08
2.41734118074e-08
1.63269337864e-09
3.11054955807e-09
7.77726562412e-09
1.20788675007e-08
8.07666126153e-09
1.1741019461e-08
1.56915566704e-08
5.40539114885e-10
7.31279982743e-09
2.23900296418e-08
3.44921594575e-08
1.42590732009e-07
4.99360475012e-08
8.29206923787e-09
3.19738922701e-08
1.11501168765e-08
4.46987786896e-10
9.09641651317e-11
1.98595186845e-08
1.39491116401e-09
2.66487648711e-09
9.0045825729e-10
5.87697651704e-08
1.53697695368e-08
2.64642697038e-08
8.00599061978e-09
1.31859051243e-08
3.32275484354e-09
8.23552535872e-09
1.84771404935e-08
9.92488675931e-08
3.27620846044e-08
9.94800447686e-09
1.65463884077e-08
5.146727981e-08
5.22002200535e-08
6.9296698577e-08
2.41348955772e-08
2.99015084856e-08
2.31164391183e-08
2.99092119555e-10
2.25099612358e-08
2.86953285564e-08
7.72715095582e-09
3.43865235865e-09
1.82277565381e-09
1.6247164419e-08
8.41025191441e-10
7.49314336765e-08
1.44937572251e-07
4.11302800937e-08
2.89018386264e-08
8.35021007181e-09
9.98096317039e-09
1.03870472262e-08
1.114676779e-08
3.79502965916e-09
3.28581770243e-09
2.69927609912e-08

