# vtk DataFile Version 3.0
File Name: Molecule/sphere_cent/sphere_cent_0-s13.vtk
ASCII
DATASET UNSTRUCTURED_GRID
FIELD FieldData 1
TIME 1 1 double
0.0
POINTS 138 double
1.23606798 -2.0 -3.23606798
0.64983939 -1.05146222 -3.80422607
2.10292445 0.0 -3.40260323
0.0 0.0 -4.0
0.0 -2.10292445 -3.40260323
-0.64983939 -1.05146222 -3.80422607
-1.23606798 -2.0 -3.23606798
0.0 -3.40260323 -2.10292445
-2.10292445 0.0 -3.40260323
2.0 3.23606798 1.23606798
2.75276384 2.35114101 1.70130162
3.40260323 2.10292445 0.0
3.23606798 1.23606798 2.0
1.70130162 2.75276384 2.35114101
2.35114101 1.70130162 2.75276384
1.23606798 2.0 3.23606798
0.0 3.40260323 2.10292445
2.10292445 0.0 3.40260323
0.64983939 1.05146222 -3.80422607
-0.64983939 1.05146222 -3.80422607
0.0 2.10292445 -3.40260323
-1.23606798 2.0 -3.23606798
1.23606798 2.0 -3.23606798
0.0 3.40260323 -2.10292445
-1.70130162 2.75276384 -2.35114101
-2.0 3.23606798 -1.23606798
-2.35114101 1.70130162 -2.75276384
-2.75276384 2.35114101 -1.70130162
-3.23606798 1.23606798 -2.0
-3.40260323 2.10292445 0.0
2.0 -3.23606798 -1.23606798
1.05146222 -3.80422607 -0.64983939
0.0 -4.0 0.0
2.10292445 -3.40260323 0.0
1.05146222 -3.80422607 0.64983939
2.0 -3.23606798 1.23606798
3.40260323 -2.10292445 0.0
0.0 -3.40260323 2.10292445
3.23606798 -1.23606798 -2.0
2.35114101 -1.70130162 -2.75276384
2.75276384 -2.35114101 -1.70130162
1.70130162 -2.75276384 -2.35114101
-2.0 -3.23606798 -1.23606798
-2.10292445 -3.40260323 0.0
-3.40260323 -2.10292445 0.0
-2.0 -3.23606798 1.23606798
-1.05146222 -3.80422607 -0.64983939
-1.05146222 -3.80422607 0.64983939
-2.75276384 -2.35114101 1.70130162
-1.70130162 -2.75276384 2.35114101
-2.35114101 -1.70130162 2.75276384
-1.23606798 -2.0 3.23606798
-3.23606798 -1.23606798 2.0
-2.10292445 0.0 3.40260323
4.0 0.0 0.0
3.80422607 0.64983939 1.05146222
3.80422607 -0.64983939 1.05146222
3.40260323 0.0 2.10292445
-3.23606798 1.23606798 2.0
-3.40260323 0.0 2.10292445
-3.80422607 0.64983939 1.05146222
-3.80422607 -0.64983939 1.05146222
-2.35114101 -1.70130162 -2.75276384
-3.23606798 -1.23606798 -2.0
-1.70130162 -2.75276384 -2.35114101
-2.75276384 -2.35114101 -1.70130162
-3.40260323 0.0 -2.10292445
-3.80422607 -0.64983939 -1.05146222
-3.80422607 0.64983939 -1.05146222
-3.45067392 1.73555426 -1.03956765
-3.84775343 1.09306612 0.0
-4.0 0.0 0.0
1.23606798 -2.0 3.23606798
2.35114101 -1.70130162 2.75276384
1.70130162 -2.75276384 2.35114101
2.75276384 -2.35114101 1.70130162
3.23606798 -1.23606798 2.0
3.45067392 -1.73555426 1.03956765
2.80818578 -2.77512191 0.64248814
-0.64983939 -1.05146222 3.80422607
0.0 -2.10292445 3.40260323
0.64983939 -1.05146222 3.80422607
0.0 0.0 4.0
-0.64248814 -2.80818578 2.77512191
0.64248814 -2.80818578 2.77512191
-1.70130162 2.75276384 2.35114101
-1.23606798 2.0 3.23606798
-2.0 3.23606798 1.23606798
-2.75276384 2.35114101 1.70130162
-2.35114101 1.70130162 2.75276384
0.0 2.10292445 3.40260323
-0.64983939 1.05146222 3.80422607
0.64983939 1.05146222 3.80422607
2.0 3.23606798 -1.23606798
2.10292445 3.40260323 0.0
1.05146222 3.80422607 -0.64983939
1.05146222 3.80422607 0.64983939
0.0 4.0 0.0
-1.05146222 3.80422607 -0.64983939
-2.10292445 3.40260323 0.0
-1.05146222 3.80422607 0.64983939
3.45067392 -1.73555426 -1.03956765
3.84775343 -1.09306612 0.0
3.80422607 -0.64983939 -1.05146222
3.40260323 0.0 -2.10292445
3.80422607 0.64983939 -1.05146222
3.23606798 1.23606798 -2.0
2.75276384 2.35114101 -1.70130162
2.35114101 1.70130162 -2.75276384
1.70130162 2.75276384 -2.35114101
2.77512191 0.64248814 -2.80818578
1.73555426 1.03956765 -3.45067392
-3.45067392 -1.73555426 1.03956765
3.36071154 -0.62573786 2.07703396
2.77512191 -0.64248814 2.80818578
2.82842712 0.0 2.82842712
-3.95075336 -0.32896986 0.53228441
-3.5640261 -0.95470772 1.54474954
-3.70245917 -1.41421356 0.54018151
-3.84775343 -1.09306612 0.0
-3.45067392 -1.73555426 -1.03956765
-3.5640261 -0.95470772 -1.54474954
-3.95075336 -0.32896986 -0.53228441
-3.70245917 -1.41421356 -0.54018151
-1.09306612 0.0 3.84775343
1.09306612 0.0 3.84775343
-1.03956765 3.45067392 1.73555426
0.0 1.0656188 3.85544506
-0.32896986 0.53228441 3.95075336
0.32896986 0.53228441 3.95075336
-1.41421356 0.54018151 3.70245917
1.41421356 0.54018151 3.70245917
0.53228441 3.95075336 0.32896986
0.54018151 3.70245917 1.41421356
0.0 3.84775343 1.09306612
-0.53228441 3.95075336 0.32896986
-0.54018151 3.70245917 1.41421356
-1.54474954 3.5640261 0.95470772

CELLS 272 1088
3 0 1 2
3 2 1 3
3 0 4 1
3 4 5 1
3 4 6 5
3 1 5 3
3 6 4 7
3 7 4 0
3 3 5 8
3 5 6 8
3 9 10 11
3 11 10 12
3 9 13 10
3 13 14 10
3 13 15 14
3 10 14 12
3 15 13 16
3 16 13 9
3 12 14 17
3 14 15 17
3 3 18 2
3 3 19 18
3 19 20 18
3 19 21 20
3 18 20 22
3 21 19 8
3 8 19 3
3 22 20 23
3 20 21 23
3 21 24 23
3 23 24 25
3 21 26 24
3 26 27 24
3 26 28 27
3 24 27 25
3 28 26 8
3 8 26 21
3 25 27 29
3 30 31 7
3 7 31 32
3 30 33 31
3 33 34 31
3 33 35 34
3 31 34 32
3 36 33 30
3 32 34 37
3 34 35 37
3 38 39 2
3 2 39 0
3 38 40 39
3 40 41 39
3 40 30 41
3 39 41 0
3 30 40 36
3 0 41 7
3 41 30 7
3 42 43 44
3 44 43 45
3 42 46 43
3 46 47 43
3 46 32 47
3 43 47 45
3 32 46 7
3 7 46 42
3 45 47 37
3 47 32 37
3 45 48 44
3 45 49 48
3 49 50 48
3 49 51 50
3 48 50 52
3 37 49 45
3 52 50 53
3 50 51 53
3 54 55 56
3 55 57 56
3 55 12 57
3 12 55 11
3 11 55 54
3 58 59 53
3 53 59 52
3 58 60 59
3 60 61 59
3 29 60 58
3 6 62 8
3 8 62 63
3 6 64 62
3 64 65 62
3 64 42 65
3 62 65 63
3 42 64 7
3 7 64 6
3 65 42 44
3 63 66 8
3 8 66 28
3 67 68 66
3 66 68 28
3 28 68 69
3 68 70 69
3 68 71 70
3 69 70 29
3 28 69 27
3 27 69 29
3 29 70 60
3 60 70 71
3 72 73 17
3 72 74 73
3 74 75 73
3 74 35 75
3 73 75 76
3 35 74 37
3 76 75 77
3 75 78 77
3 75 35 78
3 77 78 36
3 36 78 33
3 33 78 35
3 76 77 56
3 56 77 36
3 51 79 53
3 51 80 79
3 80 81 79
3 80 72 81
3 79 81 82
3 51 83 80
3 83 84 80
3 83 37 84
3 80 84 72
3 81 72 17
3 37 83 49
3 49 83 51
3 72 84 74
3 74 84 37
3 16 85 86
3 87 88 85
3 88 89 85
3 88 58 89
3 85 89 86
3 58 88 29
3 29 88 87
3 86 89 53
3 89 58 53
3 86 90 16
3 16 90 15
3 86 91 90
3 90 92 15
3 93 94 11
3 11 94 9
3 93 95 94
3 95 96 94
3 94 96 9
3 97 95 23
3 23 95 93
3 98 99 100
3 98 25 99
3 25 98 23
3 23 98 97
3 87 99 29
3 99 25 29
3 36 101 102
3 101 103 102
3 101 38 103
3 102 103 54
3 38 104 103
3 104 105 103
3 104 106 105
3 103 105 54
3 2 104 38
3 54 105 11
3 105 106 11
3 38 101 40
3 40 101 36
3 36 102 56
3 56 102 54
3 106 107 11
3 11 107 93
3 106 108 107
3 108 109 107
3 108 22 109
3 107 109 93
3 106 110 108
3 110 111 108
3 110 2 111
3 108 111 22
3 93 109 23
3 109 22 23
3 22 111 18
3 18 111 2
3 2 110 104
3 104 110 106
3 52 112 48
3 48 112 44
3 57 113 56
3 56 113 76
3 76 113 114
3 113 115 114
3 113 57 115
3 114 115 17
3 17 115 12
3 12 115 57
3 71 116 60
3 60 116 61
3 61 117 59
3 59 117 52
3 52 117 112
3 117 118 112
3 117 61 118
3 112 118 44
3 61 116 118
3 116 119 118
3 116 71 119
3 118 119 44
3 44 120 65
3 65 120 63
3 63 121 66
3 121 67 66
3 67 122 68
3 122 71 68
3 71 122 119
3 122 123 119
3 122 67 123
3 119 123 44
3 44 123 120
3 123 121 120
3 123 67 121
3 120 121 63
3 76 114 73
3 73 114 17
3 82 124 79
3 79 124 53
3 17 125 81
3 81 125 82
3 16 126 85
3 85 126 87
3 91 127 90
3 127 92 90
3 91 128 127
3 128 129 127
3 128 82 129
3 127 129 92
3 82 128 124
3 128 130 124
3 128 91 130
3 124 130 53
3 53 130 86
3 130 91 86
3 92 131 15
3 15 131 17
3 92 129 131
3 129 125 131
3 129 82 125
3 131 125 17
3 97 132 95
3 95 132 96
3 96 133 9
3 9 133 16
3 96 132 133
3 132 134 133
3 132 97 134
3 133 134 16
3 97 135 134
3 135 136 134
3 135 100 136
3 134 136 16
3 16 136 126
3 136 137 126
3 136 100 137
3 126 137 87
3 100 135 98
3 98 135 97
3 87 137 99
3 99 137 100

CELL_TYPES 272
5
5
5
5
5
5
5
5
5
5
5
5
5
5
5
5
5
5
5
5
5
5
5
5
5
5
5
5
5
5
5
5
5
5
5
5
5
5
5
5
5
5
5
5
5
5
5
5
5
5
5
5
5
5
5
5
5
5
5
5
5
5
5
5
5
5
5
5
5
5
5
5
5
5
5
5
5
5
5
5
5
5
5
5
5
5
5
5
5
5
5
5
5
5
5
5
5
5
5
5
5
5
5
5
5
5
5
5
5
5
5
5
5
5
5
5
5
5
5
5
5
5
5
5
5
5
5
5
5
5
5
5
5
5
5
5
5
5
5
5
5
5
5
5
5
5
5
5
5
5
5
5
5
5
5
5
5
5
5
5
5
5
5
5
5
5
5
5
5
5
5
5
5
5
5
5
5
5
5
5
5
5
5
5
5
5
5
5
5
5
5
5
5
5
5
5
5
5
5
5
5
5
5
5
5
5
5
5
5
5
5
5
5
5
5
5
5
5
5
5
5
5
5
5
5
5
5
5
5
5
5
5
5
5
5
5
5
5
5
5
5
5
5
5
5
5
5
5
5
5
5
5
5
5
5
5
5
5
5
5
5
5
5
5
5
5
5
5
5
5
5
5

CELL_DATA 272
SCALARS cell_data_0 double
LOOKUP_TABLE default
2.18066778568e-07
1.02253389692e-07
2.96427470868e-07
2.09840050122e-07
1.82199807071e-07
3.59351388502e-07
3.08760133723e-07
5.90149511415e-08
1.93666557e-08
1.31341263056e-07
2.21875124528e-07
9.66727695907e-08
2.77557870625e-07
5.89974320331e-08
2.23833546822e-07
2.05575506721e-07
1.62871706368e-07
2.40475069199e-07
3.48432636642e-07
1.86649594205e-07
6.92951388296e-08
1.3116818539e-07
8.65765268833e-09
1.67210218549e-07
1.8318556388e-07
1.75210240509e-07
2.04310110765e-07
7.5711894916e-08
1.55623894766e-08
5.7731665381e-08
1.01334568089e-07
2.54919276189e-07
2.54850870957e-07
2.4572789978e-07
2.73137961395e-07
2.37453751902e-07
8.70166355148e-08
9.9447789834e-08
2.66897407672e-07
2.39686467393e-07
9.76075725544e-08
3.37951124087e-08
7.4956008837e-08
1.03732438119e-07
1.9345096333e-07
3.04656969379e-07
2.68315279003e-07
9.47149947976e-08
4.69876296759e-08
1.37785024134e-07
3.96363373389e-08
1.28581362221e-07
1.96036954009e-07
1.03510274289e-07
5.37437798445e-08
3.02497356979e-07
1.96971409716e-07
3.626545845e-07
2.08038047535e-07
1.88067921802e-08
6.06137158752e-08
1.13447767455e-07
3.14319411888e-07
8.91521261663e-08
2.42575270517e-07
2.97081205784e-07
3.48339740561e-07
1.43250760573e-07
2.29250846006e-08
8.87644994601e-08
6.90536312043e-08
3.02950550004e-07
4.21521720385e-07
3.21413163253e-07
3.23236504782e-08
2.60729746748e-08
8.61799062018e-08
5.42785793851e-08
1.60156185635e-07
4.40209839354e-07
5.08119111077e-07
1.09292199053e-08
1.39992123315e-07
3.62686091781e-07
2.57730584327e-07
2.47788504202e-07
1.1422461193e-07
5.6773415155e-08
2.38422625493e-07
7.25987411742e-08
3.44944992179e-08
2.90607250283e-07
2.41356828937e-07
3.41239759474e-07
3.14751092535e-07
7.73688742956e-08
4.19964898964e-10
1.84005972509e-08
3.00704261802e-08
5.06420832136e-08
9.02170305559e-08
1.48790533369e-07
1.23364898412e-07
6.86551605649e-09
5.24103114481e-08
4.81625695667e-07
3.8473663308e-08
2.59430877967e-08
6.86299042695e-08
3.95767921486e-08
2.83810446662e-07
2.13019399306e-08
7.44570771459e-08
1.16929368239e-08
1.09508959232e-07
7.25978817832e-08
4.24087200299e-08
1.18751176197e-09
4.7105224198e-08
3.73081130772e-07
1.63024851906e-07
1.10059912028e-07
1.56333991584e-07
3.62387699923e-08
1.60178397645e-07
8.50260534346e-08
1.19484910349e-07
9.80384061098e-08
3.85144980933e-07
2.49875590509e-08
1.01849318903e-07
6.45421201949e-08
3.87042595098e-08
3.47361009617e-07
2.56292551776e-09
7.77794838158e-08
2.25618714606e-08
9.60751501194e-08
3.19718664015e-07
3.87815397293e-07
4.19018043262e-07
4.26621433674e-07
2.36048532102e-07
5.90576440882e-08
1.42572775119e-07
2.65132842662e-07
6.81175119901e-08
4.38886399346e-08
1.5946830841e-07
6.56974643394e-09
1.4907680444e-07
1.22890488774e-07
2.53528630496e-08
7.14597384217e-08
1.40545226865e-08
1.87480241364e-07
2.24732498526e-07
3.9959577673e-07
3.65979579576e-07
1.5260335615e-07
2.41026309512e-08
6.14197130076e-08
2.57814246125e-08
1.08668564855e-07
3.96391425733e-08
8.4754784452e-08
6.44138404886e-08
7.19982925179e-08
8.16718639249e-08
7.76318077826e-08
1.30512785181e-07
1.37278949194e-07
7.4492491699e-08
4.49775121244e-08
1.21743445798e-07
1.33019133237e-08
2.47848408899e-08
1.36431422996e-08
1.57656493204e-07
1.43689067386e-07
1.20662704374e-08
7.62437023258e-08
1.15081861728e-07
9.96964479715e-08
4.91549559365e-08
5.99571322923e-08
1.2121033868e-07
6.81849486927e-08
8.12438155566e-08
2.19433908909e-08
2.05303265709e-08
6.68029295656e-08
2.38930355645e-08
2.33428011585e-08
5.02488984721e-09
1.88552505495e-08
1.70613413866e-08
4.1908326714e-08
1.54550529383e-07
2.91893576e-08
2.42994494308e-08
4.82781261825e-09
2.22640207982e-08
1.06561973035e-08
2.35995702535e-09
3.3000985719e-08
1.21288198192e-08
1.03778979416e-08
1.76183623153e-09
2.60044801973e-08
2.2711032761e-08
5.12043245809e-09
9.85536693315e-08
1.16377601953e-08
3.27556936265e-08
3.41075334343e-09
2.84094757835e-09
2.99355288597e-08
2.37038286548e-08
2.53128726033e-08
1.97777197748e-09
4.9734369071e-09
1.05041333785e-08
3.32506440007e-08
9.87473104375e-09
2.28114953895e-09
3.39763108662e-08
1.10727858406e-07
2.76701381313e-08
9.74487167202e-08
5.69047984558e-08
1.88491556123e-08
8.1317688188e-08
1.0173855974e-08
3.4021818948e-08
3.68649570534e-08
2.35775098428e-08
2.94816320224e-09
2.35494970941e-08
2.41907021193e-08
3.83830450289e-09
2.17405068797e-08
8.33174474297e-09
4.30329892192e-08
1.59498192879e-07
2.07484341711e-08
1.23168377976e-07
6.82405234165e-08
1.1963177553e-08
1.846100272e-08
3.79248220126e-09
4.37081379333e-08
5.78565561819e-08
3.74393835663e-08
9.85647883309e-08
8.70240489754e-08
1.25088101178e-08
3.03724263572e-08
1.30853237424e-08
2.70864661327e-08
1.12656369132e-08
3.85669698784e-08
1.65810498928e-09
4.47574973741e-09
1.6754530447e-08
3.42544774552e-08
1.18023715256e-09
2.40995176159e-09
1.27718408447e-08
2.83738916923e-08
1.33639954188e-08
5.81050472704e-09

