# vtk DataFile Version 3.0
File Name: Molecule/sphere_cent/sphere_cent_0-s10.vtk
ASCII
DATASET UNSTRUCTURED_GRID
FIELD FieldData 1
TIME 1 1 double
0.0
POINTS 102 double
3.40260323 -2.10292445 0.0
3.23606798 -1.23606798 -2.0
4.0 0.0 0.0
3.23606798 1.23606798 -2.0
2.10292445 0.0 -3.40260323
3.40260323 2.10292445 0.0
2.0 3.23606798 -1.23606798
1.23606798 2.0 -3.23606798
0.0 3.40260323 -2.10292445
1.23606798 -2.0 -3.23606798
0.64983939 -1.05146222 -3.80422607
0.0 0.0 -4.0
0.0 -2.10292445 -3.40260323
-0.64983939 -1.05146222 -3.80422607
-1.23606798 -2.0 -3.23606798
0.0 -3.40260323 -2.10292445
-2.10292445 0.0 -3.40260323
2.0 3.23606798 1.23606798
2.75276384 2.35114101 1.70130162
3.23606798 1.23606798 2.0
1.70130162 2.75276384 2.35114101
2.35114101 1.70130162 2.75276384
1.23606798 2.0 3.23606798
0.0 3.40260323 2.10292445
2.10292445 0.0 3.40260323
0.64983939 1.05146222 -3.80422607
-0.64983939 1.05146222 -3.80422607
0.0 2.10292445 -3.40260323
-1.23606798 2.0 -3.23606798
-1.70130162 2.75276384 -2.35114101
-2.0 3.23606798 -1.23606798
-2.35114101 1.70130162 -2.75276384
-2.75276384 2.35114101 -1.70130162
-3.23606798 1.23606798 -2.0
-3.40260323 2.10292445 0.0
2.0 -3.23606798 -1.23606798
1.05146222 -3.80422607 -0.64983939
0.0 -4.0 0.0
2.10292445 -3.40260323 0.0
1.05146222 -3.80422607 0.64983939
2.0 -3.23606798 1.23606798
0.0 -3.40260323 2.10292445
2.35114101 -1.70130162 -2.75276384
2.75276384 -2.35114101 -1.70130162
1.70130162 -2.75276384 -2.35114101
-2.0 -3.23606798 -1.23606798
-2.10292445 -3.40260323 0.0
-3.40260323 -2.10292445 0.0
-2.0 -3.23606798 1.23606798
-1.05146222 -3.80422607 -0.64983939
-1.05146222 -3.80422607 0.64983939
-2.75276384 -2.35114101 1.70130162
-3.23606798 -1.23606798 2.0
-1.70130162 -2.75276384 2.35114101
-2.35114101 -1.70130162 2.75276384
-1.23606798 -2.0 3.23606798
-2.10292445 0.0 3.40260323
3.80422607 -0.64983939 1.05146222
3.80422607 0.64983939 1.05146222
3.40260323 0.0 2.10292445
3.23606798 -1.23606798 2.0
-3.23606798 1.23606798 2.0
-3.40260323 0.0 2.10292445
-3.80422607 0.64983939 1.05146222
-3.80422607 -0.64983939 1.05146222
-4.0 0.0 0.0
-2.35114101 -1.70130162 -2.75276384
-3.23606798 -1.23606798 -2.0
-1.70130162 -2.75276384 -2.35114101
-2.75276384 -2.35114101 -1.70130162
-3.40260323 0.0 -2.10292445
-3.80422607 -0.64983939 -1.05146222
-3.80422607 0.64983939 -1.05146222
-3.45067392 1.73555426 -1.03956765
-3.84775343 1.09306612 0.0
1.23606798 -2.0 3.23606798
2.35114101 -1.70130162 2.75276384
1.70130162 -2.75276384 2.35114101
2.75276384 -2.35114101 1.70130162
3.45067392 -1.73555426 1.03956765
2.80818578 -2.77512191 0.64248814
-0.64983939 -1.05146222 3.80422607
0.0 0.0 4.0
0.0 -2.10292445 3.40260323
0.64983939 -1.05146222 3.80422607
-0.64248814 -2.80818578 2.77512191
0.64248814 -2.80818578 2.77512191
-2.0 3.23606798 1.23606798
-1.70130162 2.75276384 2.35114101
-1.23606798 2.0 3.23606798
-2.75276384 2.35114101 1.70130162
-2.35114101 1.70130162 2.75276384
0.0 2.10292445 3.40260323
-0.64983939 1.05146222 3.80422607
0.64983939 1.05146222 3.80422607
2.10292445 3.40260323 0.0
1.05146222 3.80422607 -0.64983939
1.05146222 3.80422607 0.64983939
0.0 4.0 0.0
-1.05146222 3.80422607 0.64983939
-1.05146222 3.80422607 -0.64983939
-2.10292445 3.40260323 0.0

CELLS 200 800
3 0 1 2
3 1 3 2
3 1 4 3
3 2 3 5
3 5 3 6
3 3 7 6
3 3 4 7
3 6 7 8
3 9 10 4
3 4 10 11
3 9 12 10
3 12 13 10
3 12 14 13
3 10 13 11
3 14 12 15
3 15 12 9
3 11 13 16
3 13 14 16
3 17 18 5
3 5 18 19
3 17 20 18
3 20 21 18
3 20 22 21
3 18 21 19
3 22 20 23
3 23 20 17
3 19 21 24
3 21 22 24
3 11 25 4
3 4 25 7
3 11 26 25
3 26 27 25
3 26 28 27
3 25 27 7
3 28 26 16
3 16 26 11
3 7 27 8
3 27 28 8
3 28 29 8
3 8 29 30
3 28 31 29
3 31 32 29
3 31 33 32
3 29 32 30
3 33 31 16
3 16 31 28
3 30 32 34
3 35 36 15
3 15 36 37
3 35 38 36
3 38 39 36
3 38 40 39
3 36 39 37
3 0 38 35
3 37 39 41
3 39 40 41
3 1 42 4
3 4 42 9
3 1 43 42
3 43 44 42
3 43 35 44
3 42 44 9
3 35 43 0
3 0 43 1
3 9 44 15
3 44 35 15
3 45 46 47
3 47 46 48
3 45 49 46
3 49 50 46
3 49 37 50
3 46 50 48
3 37 49 15
3 15 49 45
3 48 50 41
3 50 37 41
3 48 51 47
3 47 51 52
3 48 53 51
3 53 54 51
3 53 55 54
3 51 54 52
3 41 53 48
3 52 54 56
3 54 55 56
3 2 57 0
3 2 58 57
3 58 59 57
3 58 19 59
3 57 59 60
3 19 58 5
3 5 58 2
3 60 59 24
3 59 19 24
3 61 62 56
3 56 62 52
3 61 63 62
3 63 64 62
3 63 65 64
3 62 64 52
3 34 63 61
3 52 64 47
3 64 65 47
3 14 66 16
3 16 66 67
3 14 68 66
3 68 69 66
3 68 45 69
3 66 69 67
3 45 68 15
3 15 68 14
3 67 69 47
3 69 45 47
3 67 70 16
3 16 70 33
3 67 71 70
3 71 72 70
3 71 65 72
3 70 72 33
3 65 71 47
3 47 71 67
3 33 72 73
3 72 74 73
3 72 65 74
3 73 74 34
3 33 73 32
3 32 73 34
3 34 74 63
3 63 74 65
3 75 76 24
3 24 76 60
3 75 77 76
3 77 78 76
3 77 40 78
3 76 78 60
3 40 77 41
3 60 78 79
3 78 80 79
3 78 40 80
3 79 80 0
3 0 80 38
3 38 80 40
3 60 79 57
3 57 79 0
3 55 81 56
3 56 81 82
3 55 83 81
3 83 84 81
3 83 75 84
3 81 84 82
3 55 85 83
3 85 86 83
3 85 41 86
3 83 86 75
3 82 84 24
3 84 75 24
3 41 85 53
3 53 85 55
3 75 86 77
3 77 86 41
3 87 88 23
3 23 88 89
3 87 90 88
3 90 91 88
3 90 61 91
3 88 91 89
3 61 90 34
3 34 90 87
3 89 91 56
3 91 61 56
3 89 92 23
3 23 92 22
3 89 93 92
3 93 94 92
3 93 82 94
3 92 94 22
3 82 93 56
3 56 93 89
3 22 94 24
3 94 82 24
3 6 95 5
3 5 95 17
3 6 96 95
3 96 97 95
3 96 98 97
3 95 97 17
3 98 96 8
3 8 96 6
3 17 97 23
3 97 98 23
3 98 99 23
3 23 99 87
3 98 100 99
3 100 101 99
3 100 30 101
3 99 101 87
3 30 100 8
3 8 100 98
3 87 101 34
3 101 30 34

CELL_TYPES 200
5
5
5
5
5
5
5
5
5
5
5
5
5
5
5
5
5
5
5
5
5
5
5
5
5
5
5
5
5
5
5
5
5
5
5
5
5
5
5
5
5
5
5
5
5
5
5
5
5
5
5
5
5
5
5
5
5
5
5
5
5
5
5
5
5
5
5
5
5
5
5
5
5
5
5
5
5
5
5
5
5
5
5
5
5
5
5
5
5
5
5
5
5
5
5
5
5
5
5
5
5
5
5
5
5
5
5
5
5
5
5
5
5
5
5
5
5
5
5
5
5
5
5
5
5
5
5
5
5
5
5
5
5
5
5
5
5
5
5
5
5
5
5
5
5
5
5
5
5
5
5
5
5
5
5
5
5
5
5
5
5
5
5
5
5
5
5
5
5
5
5
5
5
5
5
5
5
5
5
5
5
5
5
5
5
5
5
5
5
5
5
5
5
5
5
5
5
5
5
5

CELL_DATA 200
SCALARS cell_data_0 double
LOOKUP_TABLE default
1.59117269855e-06
2.35512614692e-06
9.77254381867e-07
1.04626513585e-06
5.42364394324e-07
1.26893258912e-06
4.62531467316e-07
2.18577453912e-07
1.66428399233e-07
5.01624691985e-08
1.16410745876e-09
6.55080081704e-08
3.67560420031e-08
9.82744852471e-08
6.447986614e-08
7.51833719516e-08
8.9930965601e-09
1.16467139854e-07
6.29036104172e-08
6.27144500048e-08
1.85974355373e-07
2.33004668202e-07
4.04578161398e-07
2.92111889091e-07
1.45894526718e-07
1.61864033725e-08
8.2003916823e-08
3.84461332016e-07
1.08033330397e-07
3.44147423265e-07
1.96434813481e-07
5.73321302232e-08
5.0080600048e-08
3.15586659176e-07
1.38565424242e-07
1.47628909175e-08
2.44716470828e-07
1.22753038742e-07
1.28344154279e-07
1.27301647474e-07
1.05643314097e-07
3.78122674825e-08
2.3565422698e-07
4.3847550325e-08
2.21748195512e-07
3.81325562305e-08
3.66875134421e-07
2.34118085287e-07
6.25815497138e-09
2.61414614376e-07
2.160966622e-07
3.17155117113e-07
2.47718858833e-07
4.85320169732e-08
8.9805004395e-08
1.87347255459e-07
1.15894923249e-07
1.75701743809e-07
6.73264080627e-09
6.22049345877e-08
1.96025805278e-07
3.37527213028e-08
1.13637485445e-07
2.78948759285e-07
1.54745835624e-08
2.45652264116e-07
2.49391024969e-07
3.58007922033e-07
2.3567623589e-07
9.56606627649e-08
1.3248736218e-07
8.70168437736e-08
9.89508464217e-08
1.94699861269e-07
2.19854022681e-07
1.96865657497e-07
4.21722782752e-07
3.46209032337e-07
5.35203311842e-08
2.68622082248e-08
4.29499237236e-08
1.37469877714e-07
2.49610117133e-07
5.26264385647e-08
1.71144689323e-07
2.84153176913e-07
1.22284096264e-07
4.26625513091e-08
1.08882856773e-07
7.92426599876e-09
7.17879359662e-08
5.35345217786e-09
2.3689742848e-07
1.97212928641e-07
9.0140717944e-08
1.19886886252e-07
1.25868801041e-07
4.79719539065e-09
1.1317519951e-07
1.05464061049e-07
2.43802611456e-07
3.26420092224e-07
2.86300807247e-07
1.39861656008e-07
8.44489460101e-08
3.82017112321e-09
1.20907264954e-07
2.6294464211e-08
3.63327995149e-08
5.1135566818e-09
1.0304847288e-07
4.18635548122e-07
3.78600345894e-07
4.6105104524e-09
1.80100761394e-07
1.48638263092e-07
3.99456063436e-08
1.14070721703e-07
2.14929121602e-07
2.71991014193e-07
3.26415837884e-07
1.5109135552e-07
2.9384317749e-08
6.23871035974e-08
7.07047232636e-08
1.55519612139e-07
1.03835823097e-08
2.15048727364e-09
7.72849509141e-08
2.58957347526e-07
3.06754993869e-07
1.29776346628e-08
1.0544175448e-09
1.56495710011e-07
2.01666326238e-09
1.37425452389e-07
4.81165314284e-08
6.52388080301e-08
1.46851107097e-07
1.20294961681e-07
6.8058693974e-08
1.40870265273e-07
8.58002676882e-09
1.52966451879e-08
3.02626269866e-07
8.97763242899e-09
9.73341165746e-08
4.92575204342e-08
3.95716372198e-08
2.49075495375e-07
3.41144919361e-08
2.43838972245e-08
2.27686903499e-07
4.48405699405e-08
2.06959980608e-07
7.80388189925e-08
8.63439784052e-08
2.35426013381e-08
1.05658547055e-07
1.45120697334e-07
7.89957145244e-09
1.25627187765e-07
1.22077153674e-07
1.95553677002e-08
1.13929750532e-07
5.03172551355e-08
2.17031804932e-07
2.13001288868e-07
1.97916354958e-07
8.94701968536e-08
1.32897410383e-07
1.50797612728e-07
4.61550112798e-08
4.54676032606e-08
1.96465714041e-07
1.92897878306e-07
8.63777363189e-08
1.97476423283e-07
3.9955667285e-08
4.60060871938e-08
1.28851930101e-07
9.48661811444e-08
2.06560161709e-07
2.88793718779e-08
1.30621832481e-07
1.6481837017e-07
1.08095443958e-07
2.43789661508e-07
1.07523789268e-07
6.46850203848e-09
1.25301833887e-07
1.94917921923e-08
4.9222432238e-08
2.06142135724e-08
5.11484938857e-08
1.21750103165e-07
1.26527162713e-07
1.14797495177e-07
2.02005114652e-07
3.08924188141e-07

