# vtk DataFile Version 3.0
File Name: Molecule/sphere_cent/sphere_cent_0-s1.vtk
ASCII
DATASET UNSTRUCTURED_GRID
FIELD FieldData 1
TIME 1 1 double
0.0
POINTS 42 double
0.85065081 -0.52573111 0.0
0.80901699 -0.30901699 -0.5
1.0 0.0 0.0
0.80901699 0.30901699 -0.5
0.52573111 0.0 -0.85065081
0.85065081 0.52573111 0.0
0.5 0.80901699 -0.30901699
0.30901699 0.5 -0.80901699
0.0 0.85065081 -0.52573111
0.5 0.80901699 0.30901699
0.0 1.0 0.0
0.0 0.85065081 0.52573111
-0.5 0.80901699 0.30901699
-0.5 0.80901699 -0.30901699
-0.85065081 0.52573111 0.0
-0.30901699 0.5 0.80901699
-0.80901699 0.30901699 0.5
-0.52573111 0.0 0.85065081
0.30901699 0.5 0.80901699
0.0 0.0 1.0
0.52573111 0.0 0.85065081
-0.30901699 -0.5 0.80901699
0.30901699 -0.5 0.80901699
0.0 -0.85065081 0.52573111
0.80901699 -0.30901699 0.5
0.5 -0.80901699 0.30901699
0.30901699 -0.5 -0.80901699
0.0 0.0 -1.0
-0.30901699 -0.5 -0.80901699
0.0 -0.85065081 -0.52573111
-0.52573111 0.0 -0.85065081
0.80901699 0.30901699 0.5
-0.80901699 -0.30901699 -0.5
-0.80901699 0.30901699 -0.5
-1.0 0.0 0.0
-0.85065081 -0.52573111 0.0
-0.30901699 0.5 -0.80901699
-0.5 -0.80901699 -0.30901699
-0.5 -0.80901699 0.30901699
0.0 -1.0 0.0
-0.80901699 -0.30901699 0.5
0.5 -0.80901699 -0.30901699

CELLS 80 320
3 0 1 2
3 1 3 2
3 1 4 3
3 2 3 5
3 5 3 6
3 3 7 6
3 3 4 7
3 6 7 8
3 5 6 9
3 6 10 9
3 6 8 10
3 9 10 11
3 11 10 12
3 10 13 12
3 10 8 13
3 12 13 14
3 11 12 15
3 12 16 15
3 12 14 16
3 15 16 17
3 11 15 18
3 15 19 18
3 15 17 19
3 18 19 20
3 17 21 19
3 21 22 19
3 21 23 22
3 19 22 20
3 20 22 24
3 22 25 24
3 22 23 25
3 24 25 0
3 4 26 27
3 26 28 27
3 26 29 28
3 27 28 30
3 0 2 24
3 2 31 24
3 2 5 31
3 24 31 20
3 5 9 31
3 9 18 31
3 9 11 18
3 31 18 20
3 30 32 33
3 32 34 33
3 32 35 34
3 33 34 14
3 8 36 13
3 36 33 13
3 36 30 33
3 13 33 14
3 35 37 38
3 37 39 38
3 37 29 39
3 38 39 23
3 35 38 40
3 38 21 40
3 38 23 21
3 40 21 17
3 17 16 40
3 16 34 40
3 16 14 34
3 40 34 35
3 30 28 32
3 28 37 32
3 28 29 37
3 32 37 35
3 29 41 39
3 41 25 39
3 41 0 25
3 39 25 23
3 4 1 26
3 1 41 26
3 1 0 41
3 26 41 29
3 4 27 7
3 27 36 7
3 27 30 36
3 7 36 8

CELL_TYPES 80
5
5
5
5
5
5
5
5
5
5
5
5
5
5
5
5
5
5
5
5
5
5
5
5
5
5
5
5
5
5
5
5
5
5
5
5
5
5
5
5
5
5
5
5
5
5
5
5
5
5
5
5
5
5
5
5
5
5
5
5
5
5
5
5
5
5
5
5
5
5
5
5
5
5
5
5
5
5
5
5

CELL_DATA 80
SCALARS cell_data_0 double
LOOKUP_TABLE default
1.46549642158e-06
4.75137356923e-06
1.43178792194e-06
1.53843018457e-06
1.41720065739e-06
4.6596791341e-06
1.43312349531e-06
1.29434084569e-06
1.46205111037e-06
4.72122563965e-06
1.60097782041e-06
1.62153720404e-06
1.55644298956e-06
4.86348312761e-06
1.55473077485e-06
1.62879228917e-06
1.51529335819e-06
4.63342614417e-06
1.61992944783e-06
1.39410672576e-06
1.76331486763e-06
4.8171606344e-06
1.42285449352e-06
1.39914035153e-06
1.70243148233e-06
4.69031531278e-06
1.5236353896e-06
1.62612188792e-06
1.6171127972e-06
4.88991467794e-06
1.57679546013e-06
1.60071461587e-06
1.76906435039e-06
4.79032885455e-06
1.61566051041e-06
1.4652228223e-06
1.79852542158e-06
4.89187407595e-06
1.82153106607e-06
1.56039112267e-06
1.7516020728e-06
4.70067253485e-06
1.44034699317e-06
1.43261606839e-06
1.59926894968e-06
4.81499461247e-06
1.48295347923e-06
1.49695307855e-06
1.50017686518e-06
4.79897497998e-06
1.36213646432e-06
1.59354910692e-06
1.58504096217e-06
4.65542684151e-06
1.648032521e-06
1.48193725449e-06
1.5408439398e-06
4.61132127466e-06
1.47666796558e-06
1.34720300634e-06
1.4975060255e-06
4.83154531669e-06
1.41846855364e-06
1.42097754733e-06
1.73661394889e-06
4.71952444551e-06
1.36508887205e-06
1.57963704099e-06
1.39591908002e-06
4.76959243615e-06
1.43154889219e-06
1.47960203238e-06
1.56718055418e-06
4.65126121144e-06
1.50113605364e-06
1.42592063187e-06
1.58287405372e-06
4.65674643584e-06
1.4636510726e-06
1.59676307809e-06

