# vtk DataFile Version 3.0
File Name: Molecule/sphere_cent/sphere_cent_0-s16.vtk
ASCII
DATASET UNSTRUCTURED_GRID
FIELD FieldData 1
TIME 1 1 double
0.0
POINTS 191 double
1.23606798 -2.0 -3.23606798
0.64983939 -1.05146222 -3.80422607
2.10292445 0.0 -3.40260323
0.0 0.0 -4.0
0.0 -2.10292445 -3.40260323
-0.64983939 -1.05146222 -3.80422607
-1.23606798 -2.0 -3.23606798
0.0 -3.40260323 -2.10292445
-2.10292445 0.0 -3.40260323
2.0 3.23606798 1.23606798
2.75276384 2.35114101 1.70130162
3.40260323 2.10292445 0.0
3.23606798 1.23606798 2.0
1.70130162 2.75276384 2.35114101
2.35114101 1.70130162 2.75276384
1.23606798 2.0 3.23606798
0.0 3.40260323 2.10292445
0.64983939 1.05146222 -3.80422607
-0.64983939 1.05146222 -3.80422607
0.0 2.10292445 -3.40260323
-1.23606798 2.0 -3.23606798
1.23606798 2.0 -3.23606798
0.0 3.40260323 -2.10292445
-1.70130162 2.75276384 -2.35114101
-2.0 3.23606798 -1.23606798
-2.35114101 1.70130162 -2.75276384
-2.75276384 2.35114101 -1.70130162
-3.23606798 1.23606798 -2.0
2.0 -3.23606798 -1.23606798
1.05146222 -3.80422607 -0.64983939
0.0 -4.0 0.0
2.10292445 -3.40260323 0.0
1.05146222 -3.80422607 0.64983939
3.40260323 -2.10292445 0.0
3.23606798 -1.23606798 -2.0
2.35114101 -1.70130162 -2.75276384
2.75276384 -2.35114101 -1.70130162
1.70130162 -2.75276384 -2.35114101
-2.0 -3.23606798 -1.23606798
-1.05146222 -3.80422607 -0.64983939
-2.10292445 -3.40260323 0.0
-1.05146222 -3.80422607 0.64983939
0.0 -3.40260323 2.10292445
-1.70130162 -2.75276384 2.35114101
-2.35114101 -1.70130162 2.75276384
-2.75276384 -2.35114101 1.70130162
-1.23606798 -2.0 3.23606798
4.0 0.0 0.0
3.80422607 0.64983939 1.05146222
3.80422607 -0.64983939 1.05146222
3.40260323 0.0 2.10292445
-3.80422607 0.64983939 1.05146222
-3.80422607 -0.64983939 1.05146222
-3.40260323 0.0 2.10292445
-2.35114101 -1.70130162 -2.75276384
-1.70130162 -2.75276384 -2.35114101
-2.75276384 -2.35114101 -1.70130162
-3.23606798 -1.23606798 -2.0
-3.80422607 -0.64983939 -1.05146222
-3.80422607 0.64983939 -1.05146222
-3.40260323 0.0 -2.10292445
-3.45067392 1.73555426 -1.03956765
-3.84775343 1.09306612 0.0
-4.0 0.0 0.0
-3.40260323 2.10292445 0.0
1.70130162 -2.75276384 2.35114101
2.75276384 -2.35114101 1.70130162
2.35114101 -1.70130162 2.75276384
3.23606798 -1.23606798 2.0
3.45067392 -1.73555426 1.03956765
2.80818578 -2.77512191 0.64248814
2.0 -3.23606798 1.23606798
0.0 -2.10292445 3.40260323
0.64983939 -1.05146222 3.80422607
-0.64983939 -1.05146222 3.80422607
1.23606798 -2.0 3.23606798
0.0 0.0 4.0
-0.64248814 -2.80818578 2.77512191
0.64248814 -2.80818578 2.77512191
-2.0 3.23606798 1.23606798
-2.75276384 2.35114101 1.70130162
-1.70130162 2.75276384 2.35114101
-2.35114101 1.70130162 2.75276384
0.0 2.10292445 3.40260323
-1.23606798 2.0 3.23606798
-0.64983939 1.05146222 3.80422607
0.64983939 1.05146222 3.80422607
2.0 3.23606798 -1.23606798
2.10292445 3.40260323 0.0
1.05146222 3.80422607 -0.64983939
1.05146222 3.80422607 0.64983939
0.0 4.0 0.0
-1.05146222 3.80422607 -0.64983939
-2.10292445 3.40260323 0.0
-1.05146222 3.80422607 0.64983939
3.45067392 -1.73555426 -1.03956765
3.84775343 -1.09306612 0.0
3.80422607 -0.64983939 -1.05146222
3.40260323 0.0 -2.10292445
3.80422607 0.64983939 -1.05146222
3.23606798 1.23606798 -2.0
2.75276384 2.35114101 -1.70130162
2.35114101 1.70130162 -2.75276384
1.70130162 2.75276384 -2.35114101
2.77512191 0.64248814 -2.80818578
1.73555426 1.03956765 -3.45067392
-3.23606798 -1.23606798 2.0
-3.45067392 -1.73555426 1.03956765
3.36071154 -0.62573786 2.07703396
2.77512191 -0.64248814 2.80818578
2.82842712 0.0 2.82842712
2.10292445 0.0 3.40260323
-3.95075336 -0.32896986 0.53228441
-3.5640261 -0.95470772 1.54474954
-3.70245917 -1.41421356 0.54018151
-3.40260323 -2.10292445 0.0
-3.84775343 -1.09306612 0.0
-3.45067392 -1.73555426 -1.03956765
-3.5640261 -0.95470772 -1.54474954
-3.95075336 -0.32896986 -0.53228441
-3.70245917 -1.41421356 -0.54018151
-1.09306612 0.0 3.84775343
1.09306612 0.0 3.84775343
-1.03956765 3.45067392 1.73555426
0.0 1.0656188 3.85544506
-0.32896986 0.53228441 3.95075336
0.32896986 0.53228441 3.95075336
-1.41421356 0.54018151 3.70245917
-2.10292445 0.0 3.40260323
1.41421356 0.54018151 3.70245917
0.53228441 3.95075336 0.32896986
0.54018151 3.70245917 1.41421356
0.0 3.84775343 1.09306612
-0.53228441 3.95075336 0.32896986
-0.54018151 3.70245917 1.41421356
-1.54474954 3.5640261 0.95470772
-2.82842713 -1.48699214 2.40600382
-2.77512191 -0.64248814 2.80818578
-2.28824561 -0.87403205 3.16227766
-3.23606798 1.23606798 2.0
-3.36071154 0.62573786 2.07703396
-2.77512191 0.64248814 2.80818578
-2.82842712 0.0 2.82842712
-3.36071154 -0.62573786 2.07703396
1.815962 -1.8737194 3.03174168
1.73555426 -1.03956765 3.45067392
2.28824561 -0.87403205 3.16227766
-2.82842713 1.48699214 2.40600382
-1.815962 1.8737194 3.03174168
-2.80818578 2.77512191 0.64248814
-1.73555426 1.03956765 3.45067392
-2.28824561 0.87403205 3.16227766
-2.07703396 3.36071154 0.62573786
-2.82842712 2.82842712 0.0
-2.40600382 2.82842713 -1.48699214
-2.77512191 0.64248814 -2.80818578
-2.80818578 2.77512191 -0.64248814
-3.16227766 2.28824561 -0.87403205
-2.82842712 -2.82842712 0.0
-2.80818578 -2.77512191 0.64248814
-2.07703396 -3.36071154 0.62573786
-2.0 -3.23606798 1.23606798
-2.40600382 -2.82842713 1.48699214
-3.16227766 -2.28824561 0.87403205
-3.45067392 1.73555426 1.03956765
-2.77512191 -0.64248814 -2.80818578
-3.36071154 -0.62573786 -2.07703396
-2.82842712 0.0 -2.82842712
-3.36071154 0.62573786 -2.07703396
-0.87403205 3.16227766 2.28824561
-0.64248814 2.80818578 2.77512191
-1.48699214 2.40600382 2.82842713
-3.03174168 1.815962 1.8737194
-3.16227766 2.28824561 0.87403205
2.82842713 1.48699214 2.40600382
2.77512191 0.64248814 2.80818578
2.28824561 0.87403205 3.16227766
1.54474954 -3.5640261 0.95470772
0.54018151 -3.70245917 1.41421356
1.03956765 -3.45067392 1.73555426
-1.03956765 -3.45067392 1.73555426
-0.87403205 -3.16227766 2.28824561
-1.8737194 -3.03174168 1.815962
-2.40600382 -2.82842713 -1.48699214
-3.16227766 -2.28824561 -0.87403205
-2.80818578 -2.77512191 -0.64248814
1.8737194 -3.03174168 1.815962
0.87403205 -3.16227766 2.28824561
-0.95470772 -1.54474954 3.5640261
-1.73555426 -1.03956765 3.45067392
-1.41421356 -0.54018151 3.70245917

CELLS 378 1512
3 0 1 2
3 2 1 3
3 0 4 1
3 4 5 1
3 4 6 5
3 1 5 3
3 6 4 7
3 7 4 0
3 3 5 8
3 5 6 8
3 9 10 11
3 11 10 12
3 9 13 10
3 13 14 10
3 13 15 14
3 15 13 16
3 16 13 9
3 3 17 2
3 3 18 17
3 18 19 17
3 18 20 19
3 17 19 21
3 20 18 8
3 8 18 3
3 21 19 22
3 19 20 22
3 20 23 22
3 22 23 24
3 20 25 23
3 25 26 23
3 25 27 26
3 8 25 20
3 28 29 7
3 7 29 30
3 28 31 29
3 31 32 29
3 29 32 30
3 33 31 28
3 34 35 2
3 2 35 0
3 34 36 35
3 36 37 35
3 36 28 37
3 35 37 0
3 28 36 33
3 0 37 7
3 37 28 7
3 38 39 40
3 39 41 40
3 39 30 41
3 30 39 7
3 7 39 38
3 41 30 42
3 43 44 45
3 43 46 44
3 47 48 49
3 48 50 49
3 48 12 50
3 12 48 11
3 11 48 47
3 51 52 53
3 6 54 8
3 6 55 54
3 55 56 54
3 54 56 57
3 38 55 7
3 7 55 6
3 58 59 60
3 27 59 61
3 59 62 61
3 59 63 62
3 61 62 64
3 27 61 26
3 64 62 51
3 51 62 63
3 65 66 67
3 67 66 68
3 68 66 69
3 66 70 69
3 66 71 70
3 69 70 33
3 33 70 31
3 31 70 71
3 68 69 49
3 49 69 33
3 72 73 74
3 72 75 73
3 74 73 76
3 46 77 72
3 77 78 72
3 77 42 78
3 72 78 75
3 43 77 46
3 75 78 65
3 79 80 81
3 80 82 81
3 16 83 15
3 84 85 83
3 83 86 15
3 87 88 11
3 11 88 9
3 87 89 88
3 89 90 88
3 88 90 9
3 91 89 22
3 22 89 87
3 92 93 94
3 92 24 93
3 24 92 22
3 22 92 91
3 33 95 96
3 95 97 96
3 95 34 97
3 96 97 47
3 34 98 97
3 98 99 97
3 98 100 99
3 97 99 47
3 2 98 34
3 47 99 11
3 99 100 11
3 34 95 36
3 36 95 33
3 33 96 49
3 49 96 47
3 100 101 11
3 11 101 87
3 100 102 101
3 102 103 101
3 102 21 103
3 101 103 87
3 100 104 102
3 104 105 102
3 104 2 105
3 102 105 21
3 87 103 22
3 103 21 22
3 21 105 17
3 17 105 2
3 2 104 98
3 98 104 100
3 106 107 45
3 50 108 49
3 49 108 68
3 68 108 109
3 108 110 109
3 108 50 110
3 109 110 111
3 12 110 50
3 63 112 51
3 51 112 52
3 52 113 53
3 106 113 107
3 113 114 107
3 113 52 114
3 107 114 115
3 52 112 114
3 112 116 114
3 112 63 116
3 114 116 115
3 56 117 57
3 118 58 60
3 58 119 59
3 119 63 59
3 63 119 116
3 119 120 116
3 119 58 120
3 116 120 115
3 115 120 117
3 120 118 117
3 120 58 118
3 117 118 57
3 68 109 67
3 76 121 74
3 111 122 73
3 73 122 76
3 81 123 79
3 85 124 83
3 124 86 83
3 85 125 124
3 125 126 124
3 125 76 126
3 124 126 86
3 76 125 121
3 125 127 121
3 125 85 127
3 121 127 128
3 127 85 84
3 86 129 15
3 15 129 111
3 86 126 129
3 126 122 129
3 126 76 122
3 129 122 111
3 91 130 89
3 89 130 90
3 90 131 9
3 9 131 16
3 90 130 131
3 130 132 131
3 130 91 132
3 131 132 16
3 91 133 132
3 133 134 132
3 133 94 134
3 132 134 16
3 16 134 123
3 134 135 123
3 134 94 135
3 123 135 79
3 94 133 92
3 92 133 91
3 93 135 94
3 44 136 45
3 45 136 106
3 106 136 137
3 136 138 137
3 136 44 138
3 137 138 128
3 46 138 44
3 139 140 141
3 140 142 141
3 140 53 142
3 141 142 128
3 128 142 137
3 142 143 137
3 142 53 143
3 137 143 106
3 53 140 51
3 51 140 139
3 75 144 145
3 144 146 145
3 144 67 146
3 145 146 111
3 67 144 65
3 65 144 75
3 75 145 73
3 73 145 111
3 80 147 82
3 82 148 81
3 79 149 80
3 84 148 150
3 148 151 150
3 148 82 151
3 150 151 128
3 82 147 151
3 147 141 151
3 147 139 141
3 151 141 128
3 79 152 149
3 152 153 149
3 152 93 153
3 149 153 64
3 24 153 93
3 106 143 113
3 113 143 53
3 111 146 109
3 109 146 67
3 84 150 127
3 127 150 128
3 93 152 135
3 135 152 79
3 26 154 23
3 23 154 24
3 8 155 25
3 25 155 27
3 24 154 156
3 154 157 156
3 154 26 157
3 156 157 64
3 40 158 38
3 115 158 159
3 158 160 159
3 158 40 160
3 159 160 161
3 161 160 41
3 41 160 40
3 161 162 159
3 162 163 159
3 162 45 163
3 159 163 115
3 45 162 43
3 139 164 51
3 51 164 64
3 57 165 54
3 54 165 8
3 57 166 165
3 166 167 165
3 166 60 167
3 165 167 8
3 8 167 155
3 167 168 155
3 167 60 168
3 155 168 27
3 27 168 59
3 59 168 60
3 64 157 61
3 61 157 26
3 16 169 170
3 169 171 170
3 169 81 171
3 170 171 84
3 139 172 164
3 172 173 164
3 172 80 173
3 164 173 64
3 16 170 83
3 83 170 84
3 115 163 107
3 107 163 45
3 60 166 118
3 118 166 57
3 81 169 123
3 123 169 16
3 80 172 147
3 147 172 139
3 84 171 148
3 148 171 81
3 64 173 149
3 149 173 80
3 24 156 153
3 153 156 64
3 14 174 10
3 10 174 12
3 12 174 175
3 174 176 175
3 174 14 176
3 175 176 111
3 111 176 15
3 15 176 14
3 71 177 31
3 31 177 32
3 32 178 30
3 30 178 42
3 32 177 178
3 177 179 178
3 177 71 179
3 178 179 42
3 42 180 41
3 41 180 161
3 42 181 180
3 181 182 180
3 181 43 182
3 180 182 161
3 38 183 55
3 55 183 56
3 56 183 184
3 183 185 184
3 183 38 185
3 184 185 115
3 65 186 66
3 186 71 66
3 71 186 179
3 186 187 179
3 186 65 187
3 179 187 42
3 46 188 189
3 188 190 189
3 188 74 190
3 189 190 128
3 74 188 72
3 72 188 46
3 43 181 77
3 77 181 42
3 42 187 78
3 78 187 65
3 12 175 110
3 110 175 111
3 56 184 117
3 117 184 115
3 128 190 121
3 121 190 74
3 46 189 138
3 138 189 128
3 115 185 158
3 158 185 38
3 161 182 162
3 162 182 43

CELL_TYPES 378
5
5
5
5
5
5
5
5
5
5
5
5
5
5
5
5
5
5
5
5
5
5
5
5
5
5
5
5
5
5
5
5
5
5
5
5
5
5
5
5
5
5
5
5
5
5
5
5
5
5
5
5
5
5
5
5
5
5
5
5
5
5
5
5
5
5
5
5
5
5
5
5
5
5
5
5
5
5
5
5
5
5
5
5
5
5
5
5
5
5
5
5
5
5
5
5
5
5
5
5
5
5
5
5
5
5
5
5
5
5
5
5
5
5
5
5
5
5
5
5
5
5
5
5
5
5
5
5
5
5
5
5
5
5
5
5
5
5
5
5
5
5
5
5
5
5
5
5
5
5
5
5
5
5
5
5
5
5
5
5
5
5
5
5
5
5
5
5
5
5
5
5
5
5
5
5
5
5
5
5
5
5
5
5
5
5
5
5
5
5
5
5
5
5
5
5
5
5
5
5
5
5
5
5
5
5
5
5
5
5
5
5
5
5
5
5
5
5
5
5
5
5
5
5
5
5
5
5
5
5
5
5
5
5
5
5
5
5
5
5
5
5
5
5
5
5
5
5
5
5
5
5
5
5
5
5
5
5
5
5
5
5
5
5
5
5
5
5
5
5
5
5
5
5
5
5
5
5
5
5
5
5
5
5
5
5
5
5
5
5
5
5
5
5
5
5
5
5
5
5
5
5
5
5
5
5
5
5
5
5
5
5
5
5
5
5
5
5
5
5
5
5
5
5
5
5
5
5
5
5
5
5
5
5
5
5
5
5
5
5
5
5
5
5
5
5
5
5
5
5
5
5
5
5
5
5
5
5
5
5
5
5
5
5
5
5
5
5
5
5
5
5
5
5
5
5
5
5

CELL_DATA 378
SCALARS cell_data_0 double
LOOKUP_TABLE default
6.26884540074e-08
7.62428269309e-08
1.23961020385e-07
6.20058806536e-08
8.20549599461e-08
2.12646710828e-07
2.78278519831e-07
3.06017567268e-07
1.98727149192e-07
2.934699533e-07
2.01104630661e-07
2.52419880338e-07
6.04818320887e-08
1.92941942276e-08
7.38233307393e-08
4.13827825411e-07
4.57287266328e-07
5.2484484114e-08
1.56427889571e-07
1.57781675234e-08
4.66298004028e-08
1.36573072709e-07
3.16233359928e-07
2.00483567272e-07
3.38303158647e-08
2.05103921765e-07
1.35352044949e-07
4.90287683385e-08
8.02467091846e-08
1.62819994698e-08
1.57119627491e-08
3.79080759113e-07
2.48245685237e-07
2.86407546822e-07
1.01937496429e-07
1.88407423545e-08
4.0236888716e-08
1.52572318427e-07
9.50559823538e-08
1.78288460769e-07
6.69415252821e-08
2.3807012632e-08
8.68378705977e-08
5.19203885875e-08
1.66687244271e-07
3.05086237612e-07
2.60018297156e-07
6.61735234057e-09
5.68595465132e-08
3.57892034646e-08
3.36864716023e-07
3.52794876486e-07
4.06207139144e-07
7.67829989489e-08
1.98764530473e-09
5.57850975043e-08
2.25087313624e-08
6.07973804184e-09
2.3480622724e-07
1.51105156136e-07
1.42708496045e-07
3.40715299959e-07
1.04884592533e-07
3.99687826737e-10
8.7387999471e-08
2.91619474166e-07
2.38806606511e-07
1.1179384072e-07
1.39182792248e-08
3.28212926035e-08
1.98513732584e-09
5.52888304525e-08
2.92985608977e-08
5.25404991587e-08
3.7010301589e-09
3.80575013378e-08
2.45275481782e-08
3.4220848018e-08
3.17294868964e-08
8.61720225612e-08
2.20965922274e-07
1.17471397776e-07
1.08512802969e-07
4.79261011616e-08
1.00868945335e-07
3.75970164366e-08
9.67954507018e-09
7.67289649874e-08
1.13147156575e-08
2.07643342204e-08
6.92067157582e-08
9.74136373827e-09
2.99474219493e-08
2.06806992081e-08
8.09331565559e-09
1.34219824936e-08
4.84746485397e-07
9.12506986547e-10
2.84901013314e-08
1.07554952625e-07
2.51364613553e-07
9.31032142465e-08
7.08360534221e-08
6.40389154809e-09
2.15911827093e-07
6.65556312788e-08
1.88997650781e-08
1.30351203508e-07
1.95562183269e-08
1.3343136692e-07
1.92974280784e-07
3.20021786824e-08
2.25705610954e-08
1.07202740315e-08
2.48760600173e-08
1.36702282824e-07
7.49793371309e-08
2.85424260896e-08
2.05027795509e-07
1.93171965942e-07
2.86337112584e-07
7.72095358946e-08
9.49950984891e-08
8.67752842633e-08
6.93229944045e-08
2.92387080086e-07
9.47111091923e-08
8.61828555564e-08
1.33922929868e-07
3.96290566611e-08
7.6714382135e-08
6.39085294551e-08
2.03094311486e-08
2.13133349671e-07
1.18531423596e-07
1.11978311391e-07
7.41276076446e-08
1.90366110198e-07
1.61600081678e-07
4.23255702385e-08
4.97865141118e-08
8.56769118136e-08
1.42573797481e-08
1.47298951243e-08
1.50410700997e-08
4.5993343488e-09
2.13877769896e-08
1.90972954008e-08
7.99159976036e-08
8.89424862607e-09
1.75853499001e-09
9.4614010475e-09
3.70691985534e-09
1.63630671148e-08
2.47375545383e-10
2.03773571739e-09
2.21377911081e-10
1.66320398391e-08
1.54568402344e-08
2.97051510213e-10
5.81925679086e-08
4.2161031173e-09
1.54868810641e-09
9.09026040297e-09
1.16571430838e-08
1.583898193e-08
4.37348123109e-09
3.72775976222e-09
9.0083590925e-09
5.99677140402e-09
8.31504059254e-09
6.40562860334e-08
2.33416272742e-08
1.31573339674e-08
9.36386041206e-08
6.66571490271e-08
5.76173917536e-08
2.16668542943e-08
3.70313035085e-09
3.96808547282e-08
2.7329613432e-08
5.11350827178e-08
3.23666693155e-08
2.85992606257e-08
2.27282483396e-08
6.47565825037e-09
9.68400289829e-09
5.7591764789e-08
4.61615268015e-08
2.20336272931e-07
9.7035487819e-09
1.06357323053e-09
3.22052479808e-08
4.29721217195e-08
2.59222847681e-08
3.23140703015e-09
4.0006784499e-08
2.28137523587e-07
2.17912042969e-09
3.29745203329e-08
4.53963733796e-09
2.23517734651e-08
5.19549271523e-09
2.35198053843e-08
1.03130566854e-08
9.82691004217e-10
3.33501786735e-09
1.87260602923e-08
1.58155776349e-08
1.11934629017e-08
4.58828104387e-08
6.18708318732e-08
2.30509973771e-08
1.48205168762e-08
3.79196708712e-09
1.45675117535e-08
4.57126286172e-10
2.59168093822e-08
7.850510044e-09
6.49566158368e-08
9.39648474188e-08
6.87610157797e-09
1.04778431946e-09
6.12854344476e-09
6.43887290042e-09
1.54528720227e-08
1.21544256855e-08
4.42980168677e-09
5.80525440045e-09
9.30206191378e-08
1.36044357276e-08
1.62316307668e-08
1.91286492745e-08
1.06238500082e-08
3.45871485857e-08
2.93034641154e-08
1.97290712935e-08
9.66034512084e-08
3.24066712409e-08
6.630793158e-09
1.89384941418e-08
3.72267351109e-08
1.14704482281e-08
9.86988772935e-09
2.49730335051e-09
4.17858950088e-10
2.31802672091e-08
7.41951348335e-08
2.10819208004e-09
2.0576887284e-08
1.44324127777e-08
1.44974254291e-08
2.73203504568e-08
2.88011194446e-08
2.55861386506e-08
7.75701968961e-09
6.03556594658e-09
1.5093856982e-08
2.06033420679e-08
5.01825116593e-09
2.12083994858e-08
3.77107136698e-08
2.38221419381e-08
8.63263203934e-08
3.47279163857e-08
2.40152461529e-08
3.95778343835e-08
1.18395614387e-08
1.08913366503e-08
4.18399536551e-08
6.1502943694e-08
8.85717044713e-09
4.61685369836e-09
3.08159401963e-08
3.22038208917e-08
4.99465485316e-08
2.34552300169e-08
1.85756681798e-08
2.27213141327e-08
5.41294721705e-09
1.75424223492e-09
5.32652619575e-09
1.27931369752e-07
6.99459866001e-08
7.26533464216e-08
3.04737008831e-08
4.73281196275e-08
2.81266930644e-08
9.74962196224e-09
4.13427102966e-08
4.48196337891e-08
2.65453969231e-08
7.64121496038e-09
3.25179074394e-08
2.60727527159e-08
1.87580353233e-09
6.09673477473e-08
2.71476038601e-08
9.22905938278e-09
3.06108398075e-08
1.70783336066e-08
2.01885290054e-08
9.09096484173e-08
8.54100253418e-09
1.73743356024e-08
5.91837915065e-08
9.86294854305e-08
1.42423033832e-08
2.15252347626e-09
4.7465164756e-09
1.39588655284e-08
6.04364737776e-08
1.89309316318e-08
9.85462438471e-09
1.97849050049e-08
6.55727941905e-08
4.05757406703e-08
7.99031276815e-09
2.98196696705e-08
2.80167305529e-08
1.72837629163e-08
2.52946908442e-08
2.62133303894e-08
2.1570080898e-08
1.24905282094e-08
1.63995165873e-08
3.60424853593e-08
3.31940993733e-08
2.06943108263e-07
3.43967920464e-08
5.64925655052e-08
1.69763898967e-08
4.98141275969e-09
1.44043625324e-07
2.43419141937e-08
8.54868287058e-09
3.62846056421e-08
6.53161188311e-08
2.45193272399e-08
4.21527555248e-08
4.34890306145e-08
1.95601827957e-08
2.73136679968e-09
3.61301007222e-08
3.8822839545e-08
1.70830957001e-08
5.7088351679e-10
2.34190581991e-08
2.93163985385e-09
9.14100188589e-09
2.0922548142e-08
5.45946947088e-08
4.0606960399e-08
2.74473361054e-08
6.094439364e-09
2.08852667099e-08
2.1211005356e-08
1.37023293532e-08
1.86919724751e-09
9.55981845527e-09
1.84383414617e-08
7.16071449529e-09
1.92655259147e-08
5.04436160845e-08
5.76894928161e-08
2.73196154845e-08
4.61983030589e-08
6.21353845791e-09
1.64939191542e-08
1.27191083248e-08
8.46190430668e-10
5.99729876651e-10
2.88631137143e-08
1.12581965265e-08
1.73800414977e-08
2.86608978688e-08
4.10612430499e-08
1.25807204344e-08

