# vtk DataFile Version 3.0
File Name: Molecule/sphere_excent/sphere_excent_0-s46.vtk
ASCII
DATASET UNSTRUCTURED_GRID
FIELD FieldData 1
TIME 1 1 double
0.0
POINTS 734 double
0.46786865592 0.70030331612 0.53912138939
0.42769145966 0.55501890182 0.713332057
0.61822241545 0.45234307647 0.64251542091
0.099487349391 0.94935423136 -0.29779246449
0.26366066933 0.94824546576 -0.17693389952
0.3528456986 0.88161754608 -0.31341555715
0.26873925328 0.90075296164 0.34093204141
0.23573312163 0.76839262247 0.59496891499
0.68364840746 -0.61626666784 -0.39078989625
0.57293206453 -0.64996957779 -0.4992595017
0.677287817 -0.50472307205 -0.53528541327
0.67447602749 0.60977226496 0.41618600488
-0.53408461809 0.80995297432 -0.24165183306
-0.6810259223 0.71960043907 -0.13537499309
-0.55979245901 0.82725793123 -0.046641480178
0.4384534061 0.88559907675 -0.15342381597
0.54703348875 0.78890645504 -0.27971693873
0.50534433126 0.3427310288 0.79185217619
-0.028587892652 0.37944099307 0.92476332188
0.17745794356 0.37731537223 0.90884530544
0.033627647907 0.54403138161 0.83841204643
0.21743483841 0.58875608444 0.7785141468
0.3496286869 0.41920936108 0.83789211512
0.39957335591 0.19269809127 0.89618086815
0.62627977133 0.16525089741 0.76182460785
0.20802591741 0.15934835374 0.96503031254
0.31109637022 -0.01418272499 0.95025765896
0.10561876744 0.021815914661 0.99415326118
0.52666020393 -0.064752273262 0.84752100706
0.38832193613 -0.46050110459 -0.79819667339
0.52792578936 -0.53456217051 -0.65991127491
0.36644485593 -0.59498465061 -0.71533948183
0.86466926336 0.090225748718 -0.49417805672
0.78690361977 0.15954148769 -0.59610390663
0.84364026785 0.24458749592 -0.47792705894
0.80811822414 0.015224108472 -0.58881658316
0.72503435612 0.048665829003 -0.68698948622
0.72609210014 -0.094638541341 -0.68103706837
0.68927156925 0.15957945585 -0.7067181468
0.88371551037 -0.068451263011 -0.46300768852
0.62254726887 0.085809722543 -0.77787870169
0.64831268787 -0.026033194736 -0.76092272997
0.52966350317 -0.023408671841 -0.84788876772
0.6076605916 -0.14239031076 -0.78131705523
-0.13474954665 -0.87501448393 -0.46415865421
-0.080809056759 -0.93601095676 -0.34251385927
-0.26484945416 -0.87737900019 -0.39881461859
0.29843375087 -0.70236927271 -0.64622288942
0.16181448102 -0.74597734213 -0.64601248503
0.21733511984 -0.64707696438 -0.73080027103
-0.41246822476 0.15606024861 -0.89748811722
-0.50557386875 0.10947990417 -0.85576999187
-0.4994815886 0.19421698153 -0.8442748785
0.53312027454 -0.36194002628 0.76446980238
0.6868609786 -0.24091058969 0.68518394232
0.91642653942 0.13566456735 0.37642979622
0.88613444567 0.0070171896368 0.46201050282
0.95420747995 0.035146795213 0.29665592313
0.37273240089 -0.42770129442 0.8228700161
0.39429289103 -0.22074636817 0.89201831818
0.51080864668 -0.58350324631 0.63109129667
0.25288265944 -0.18889904022 0.94886785746
0.11104095727 -0.2338386327 -0.96588790417
0.10655034333 -0.37723484635 -0.91996586323
0.0074543636292 -0.30103388429 -0.953561306
-0.18689085543 -0.37767249346 -0.90687417984
-0.12040645629 -0.44518008828 -0.88714075089
-0.21372167766 -0.4449454248 -0.86967504025
-0.20085002482 -0.51084250212 -0.8358219862
-0.11570686847 -0.61647450924 -0.77865737677
-0.19827072322 -0.57796442509 -0.79155123234
-0.097086392343 -0.53961616755 -0.83625638485
0.026317421347 -0.51298713684 -0.85733926296
0.0046864743344 -0.59356284142 -0.80446773767
0.12192851305 -0.58697152138 -0.80037474632
0.92746192217 0.011120095849 -0.37384966016
0.83637273312 0.48459300399 0.25623294711
0.88184952736 0.45752480626 0.11340387166
0.8058360815 0.58045595884 0.11712380499
0.88963866234 0.3411655128 -0.30358022451
0.89700639248 0.37681472301 -0.2309999615
0.92726844549 0.29599529505 -0.22922709584
0.85197246075 0.42909899354 -0.3000074625
0.88694435358 0.2829644382 -0.36500310898
0.84463649988 0.36114409566 -0.39523115754
0.89093351364 0.16085068882 -0.42459842563
-0.33542495966 -0.3599331975 -0.87050706148
-0.26507812738 -0.30861648917 -0.91350233555
-0.27552300692 -0.40733799338 -0.87066227198
-0.38002330065 -0.26336303353 -0.8866763711
-0.011309887283 -0.38638350368 -0.92198175192
-0.46653738618 0.62451642752 -0.62638181448
-0.35598251224 0.66430443525 -0.65724945068
-0.38553506136 0.58024454117 -0.7174076438
-0.26935425401 0.61547875404 -0.74069607258
-0.25620418787 0.69939053059 -0.66723686457
-0.49198806286 -0.30976989865 -0.81354618073
-0.58340811729 -0.2303314209 -0.7788566947
-0.47231972218 -0.17154836655 -0.86456227303
-0.5960522294 0.042340323329 -0.80178838968
-0.69954526424 -0.038844835013 -0.71349573135
-0.67684620619 0.094747632742 -0.73000961542
-0.76557779312 0.054113071412 -0.64102625847
-0.79406505823 -0.10236921906 -0.59913820028
-0.58544915915 0.14219383895 -0.79811346531
-0.1587870419 -0.13087870181 -0.97858196497
-0.11355799437 -0.044248048216 -0.99253797531
-0.043593369424 -0.11333599687 -0.99258518219
0.0083553120494 -0.012657802552 -0.99988979101
-0.27835857868 -0.21538379788 -0.93591487408
-0.35234305263 -0.16178810596 -0.92174524069
-0.18241885304 -0.22135381401 -0.95796698332
-0.2524677217 -0.13985389471 -0.9573802352
-0.19859392941 0.55320686102 -0.80902975798
-0.30947694182 0.51809847355 -0.79737067223
-0.28058221936 0.41046208143 -0.86762404442
-0.36640614271 0.43270710111 -0.82372659445
-0.071597568691 0.55725294352 -0.82724630833
-0.14599354565 0.61953312159 -0.77126771212
-0.33216431737 0.080277889967 -0.93979859352
-0.24636174738 0.15780352056 -0.95622509718
-0.2340888083 0.068074904382 -0.96980303526
-0.43651503325 0.065578997135 -0.89731651545
-0.39594003558 -0.5897616744 0.70382505655
-0.30806195736 -0.48303213716 0.81960231066
-0.47862648964 -0.42072072625 0.77059239149
-0.59243285656 -0.47029414773 0.65400373936
-0.43029356003 -0.12146844715 0.89439845085
-0.25103089213 -0.16214366257 0.95426988602
-0.32750734687 -0.010423249565 0.94477385283
0.036113314331 -0.12928514183 0.99093955755
0.16291163862 -0.10832758993 0.98067551851
0.12152604014 -0.26076245308 0.95771092176
-0.01649292931 -0.2445845902 0.96947383881
-0.0038687780034 -0.38723006845 0.92194074392
0.13866145909 -0.40595132113 0.90332394838
0.083721913397 -0.55812680721 0.82544189692
0.25742608309 -0.32958674431 0.90833431482
-0.13077734411 -0.29487484694 0.94650214911
-0.13341864944 -0.48654165864 0.86341482401
-0.25809970498 -0.34894376993 0.90089958906
-0.21065358818 -0.61420625448 0.76047110558
-0.22277136147 0.38830286264 0.89419478178
-0.15787808597 0.25740674138 0.95333236456
-0.49179443717 0.026112901047 0.87036556005
-0.48151937127 0.20539808273 0.85194712877
-0.36602675915 0.12672263384 0.92188328505
-0.608707726 0.097556106746 0.78733408451
-0.31862726808 0.26289057732 0.91067045927
-0.42834946513 0.3942694366 0.81301403046
-0.2264649868 0.12265325338 0.96628373861
-0.07283770293 0.10634867102 0.99165707827
-0.17767079175 -0.018489345908 0.98390930891
-0.042162761092 -0.029438929632 0.9986807704
-0.10484951735 -0.14601670206 0.98370045424
-0.60991835594 0.29107663035 0.73691761494
-0.62382417917 -0.11591615528 0.77288907766
0.23649032414 -0.48659214377 0.8409948945
0.32443869114 -0.63941216469 0.69649893045
0.42326587439 0.069293998182 -0.90334367752
0.52618950605 0.10857179016 -0.84341144562
0.14372830093 -0.4877705574 -0.86099267006
0.25698766112 -0.53959608078 -0.80174654722
0.24578422308 -0.42549091578 -0.87093991041
0.59159916639 0.2017763257 -0.78057408333
0.44192785025 -0.66599184275 -0.60094726086
-0.12099123001 -0.74801754951 -0.65255504847
-0.13057011366 -0.68183165789 -0.71975314617
-0.045680575073 -0.69729071856 -0.71507400274
0.016745267436 -0.44542402029 -0.8944658637
0.096025399864 -0.68336224556 -0.72326618433
-0.008020802401 -0.79535764456 -0.60575938225
-0.14897821844 -0.81154680252 -0.56501609087
0.36719083786 0.49442890286 -0.78783893585
0.37190902233 0.36773189902 -0.8523015976
0.29423192143 0.44078630209 -0.84800577164
0.26685851812 0.33085626364 -0.90515834093
-0.2394348681 -0.76220828295 -0.60144251585
-0.20987470448 -0.69706952572 -0.68558853865
-0.30052784085 -0.69214421511 -0.65620094538
-0.35165828466 -0.75238019228 -0.55702376366
-0.26741012931 -0.62710678577 -0.731533885
-0.39147898555 -0.67305535078 -0.62746804953
-0.3590515852 -0.61176371574 -0.70486485958
-0.46973121166 -0.59331911802 -0.65373426676
-0.47151121497 -0.6933362484 -0.54495376348
-0.28913781047 -0.55500513315 -0.77995306253
-0.37993940711 -0.52083563805 -0.76443016529
-0.26185172796 -0.83025735617 -0.49097764492
-0.18640595675 -0.63930851221 -0.74598950148
-0.61916565895 0.57689458132 0.53268551826
-0.56453704834 0.47082412243 0.677949965
-0.39313071966 0.63993948698 0.66022187471
-0.59783983231 0.56803035736 -0.56560766697
-0.51302599907 0.66469204426 -0.54305648804
-0.6674054265 0.61085736752 -0.42596980929
-0.7205465436 0.4980456531 -0.48248541355
-0.42993715405 0.24382728338 -0.86930805445
-0.50740361214 0.27203324437 -0.81761819124
-0.57165646553 0.22749339044 -0.78832125664
-0.59621989727 0.30788731575 -0.74142628908
0.77891129255 0.08872050792 0.62079244852
0.6899241209 -0.030444584787 0.72322922945
0.78366774321 -0.11620792747 0.60952281952
0.74800038338 0.27925726771 0.60185557604
-0.90137135983 0.12916155159 0.41196495295
-0.76591348648 0.22377260029 0.60124129057
-0.88166892529 0.28376716375 0.37525731325
-0.74714630842 0.39721304178 0.53271472454
-0.63084310293 0.38381645083 -0.67433315516
-0.69643187523 0.29001775384 -0.65606981516
-0.65070784092 0.20905853808 -0.72999042273
-0.41613820195 0.49573725462 -0.7622756958
-0.49419045448 0.54011821747 -0.68115663528
-0.50550127029 0.46628502011 -0.72597640753
-0.58317840099 0.47355297208 -0.66001772881
-0.66662204266 0.45157879591 -0.59257018566
-0.46252983809 0.42273664474 -0.77932500839
-0.42316475511 0.37443876266 -0.82506471872
-0.50491982698 0.3507104218 -0.78869408369
-0.55552333593 0.39787626266 -0.73013478518
-0.44528433681 0.31189534068 -0.83931916952
-0.35330939293 0.33112922311 -0.87494432926
-0.17792353034 0.76498144865 0.61901408434
-0.31856521964 0.83406108618 0.45036360621
[...]
CELL_DATA 1464
SCALARS cell_data_0 double
LOOKUP_TABLE default
8.36265467868e-06
4.49393340941e-06
4.56057471332e-06
7.69122067543e-06
6.3023850918e-06
8.70750544493e-06
4.39335674824e-07
2.16324657357e-07
9.73568881184e-06
8.42224099375e-06
8.90299339319e-06
1.14997313074e-05
6.90351447695e-06
1.01045650173e-05
1.63724872291e-05
1.17283182655e-05
9.60135790242e-06
2.12476485664e-05
1.44462972021e-05
8.35374720239e-06
3.0415091688e-06
1.31043786674e-05
4.0740048918e-05
3.02385246969e-05
1.8078994979e-05
8.28796985492e-06
1.78778672266e-05
4.16001108204e-05
3.08410535637e-05
2.80985780072e-05
1.23232045908e-05
1.64865851949e-05
1.51670602949e-05
1.16646328372e-06
4.59768474152e-06
9.17355165048e-06
2.92293972384e-06
2.39005071226e-06
1.30302759697e-05
2.59842539725e-05
7.10994858924e-06
1.73547484389e-05
2.38781609955e-05
1.34922538772e-06
1.26627003122e-06
1.71134643717e-06
3.41780510233e-06
5.44571279831e-06
5.61903482445e-06
3.00301055684e-07
6.39688297808e-07
1.47591069225e-07
1.41165696034e-07
2.19733780617e-08
1.13424564364e-08
2.71681919135e-07
1.03037578433e-06
5.08010419794e-08
5.08515510394e-06
1.34181339528e-08
2.41660890286e-06
2.23841933316e-06
1.1013829827e-05
7.0574785133e-06
3.42241937163e-08
8.62971350486e-08
4.53151204989e-06
2.22166142116e-06
3.91038047863e-06
1.95139567637e-06
6.15246509693e-07
3.29959656671e-08
6.87373238231e-06
6.09737320478e-06
2.87471346419e-08
4.78916138577e-08
4.5329159232e-08
1.06508743885e-06
2.7039844401e-06
4.64464723568e-06
9.79413306386e-06
1.45203310309e-05
1.09467575387e-05
9.12081606663e-06
7.06493367763e-06
8.34885631011e-06
8.3869530585e-06
7.31390547076e-06
6.71569991583e-06
6.01933955844e-06
8.52155396202e-06
6.3923796065e-06
9.89108225414e-06
8.53894536299e-06
9.85389865056e-06
2.06651817989e-06
6.23483572727e-06
4.75772109408e-06
4.80509152781e-06
4.81835344366e-06
1.04821248221e-05
4.44788975058e-06
6.11727045158e-06
5.07997515635e-06
5.53788570684e-06
4.70054163989e-06
5.91210143743e-06
5.83712769646e-06
5.28039374797e-06
4.56729333462e-06
9.79691679212e-06
5.15476399744e-06
1.53861201886e-05
1.73269248686e-05
6.84131109482e-06
1.55269847968e-05
1.24008146071e-05
1.1259166473e-05
1.19449104436e-05
1.00056053657e-05
1.54845627632e-05
1.49728290365e-05
1.0096778495e-05
8.86033647359e-06
5.98473701911e-06
6.90413451372e-06
1.00533136685e-05
1.19943266065e-05
1.42898878718e-05
2.80491627239e-06
1.17393877745e-05
4.80366141853e-06
4.65232697312e-06
9.72786428786e-06
6.43139778799e-06
2.48513682143e-06
1.02079528018e-07
1.13121710359e-07
9.80920102159e-08
5.12549320801e-08
2.99995361157e-06
3.14706009208e-06
3.40451745846e-08
6.8192890585e-08
1.60293693112e-05
2.31846224082e-09
8.0508253046e-06
2.50698963474e-06
1.53978431783e-07
7.09088496828e-08
6.77580187099e-06
6.63798936753e-06
7.70625473049e-06
4.76494308707e-06
2.6812117739e-06
3.93193740185e-08
5.36138446591e-08
1.75874442325e-06
2.37532747555e-06
1.58061542102e-06
3.88286448219e-08
3.89442460534e-06
2.55178181462e-06
2.1796761956e-06
3.03598721199e-06
4.91300881012e-06
9.10992007139e-06
1.16488702011e-07
2.07004971711e-06
6.02465959026e-08
2.32903285013e-08
2.29772814766e-08
1.92597185258e-06
2.19353493571e-06
2.34466361161e-06
1.78426748468e-06
7.16792616525e-06
1.23098570674e-05
7.43888115709e-06
6.26222978686e-08
5.35498843574e-06
6.04605664669e-07
3.93730158647e-08
1.41361510466e-08
2.18554780011e-06
6.08414300873e-08
3.79286199907e-06
2.71398032269e-06
5.51218362412e-06
2.38256197766e-07
1.25326752994e-05
8.94252552131e-06
6.02048494532e-06
1.29102870857e-05
6.8492805e-06
6.25719738132e-06
5.74270169343e-06
4.58278804679e-06
4.45393446344e-06
6.63866995038e-08
6.16406425068e-06
6.18608251686e-06
6.45517218522e-06
1.10640715443e-07
1.29320125127e-07
4.93613973593e-06
8.67009581102e-08
6.85822556868e-08
9.63510347917e-06
6.35691648281e-06
5.92024525561e-06
9.6990445454e-08
8.92946417201e-08
1.00495923755e-07
9.85089266883e-08
1.08506849688e-07
1.77975856578e-07
1.07767647207e-07
1.06454453683e-07
5.10813322215e-08
5.12021065258e-08
1.04197477263e-07
1.13899616027e-07
1.19404242815e-07
1.85981417853e-07
7.35051267888e-06
8.59823981342e-08
1.00235108352e-07
9.66838365053e-08
7.82340132537e-08
1.55004428568e-05
1.67376758367e-05
5.89639727959e-06
1.10378278017e-05
1.90103650197e-06
4.90918446028e-06
5.61757731492e-07
7.68936263973e-07
1.2872878813e-05
1.87978160891e-06
7.35760103104e-07
1.40570529345e-05
3.31001278928e-06
8.94194295063e-06
6.53270429199e-06
8.37121984149e-06
7.23166404808e-06
7.43161557989e-06
8.5018706003e-06
8.06240872892e-06
1.03171120066e-05
1.02897021193e-05
5.1335245214e-06
4.5266087871e-06
5.60701154256e-06
6.44607536805e-06
1.28008568884e-05
5.14773624537e-06
5.07391491058e-06
1.24116454691e-05
8.31965008942e-06
2.84240720657e-05
1.30671271936e-05
1.1958851224e-07
5.01880661134e-08
1.08848440156e-05
1.45734400675e-05
3.4498704112e-07
3.00994163759e-06
7.42198883236e-07
7.28556149551e-06
7.81488686951e-06
8.05358585081e-06
4.28777540901e-06
1.0234672739e-05
2.18573353003e-06
1.31072907454e-05
2.35193800503e-06
1.6239849674e-06
1.11164731852e-06
1.22836227958e-05
2.21879321587e-06
2.68905955553e-06
1.00717297712e-06
7.34994748251e-07
5.01498542425e-07
8.09207294849e-07
9.19313756478e-07
7.87421697687e-07
6.91726221385e-07
4.07403556756e-07
9.1655068236e-07
7.91086643555e-07
2.87620539471e-07
4.31096332008e-07
9.27501466203e-07
8.89616202759e-07
2.86789353673e-06
7.64908666798e-06
4.11384941502e-07
3.27103868242e-07
2.13801354841e-06
5.08913431988e-08
4.50373733252e-06
1.42944012935e-06
1.95857206949e-06
4.63095434052e-06
2.1559339685e-06
1.07810650196e-06
9.44424668982e-06
3.75736373974e-06
2.10706837319e-06
1.08354125705e-06
4.67790959018e-07
1.18996059247e-05
3.85164249754e-06
8.38896119838e-06
2.23402059608e-06
1.09386603297e-07
2.18835955204e-07
6.03765933955e-06
3.21400200045e-06
5.15379197523e-07
7.86491587263e-07
6.80296568916e-07
4.51227254884e-07
3.05262084588e-07
5.84708022997e-07
9.98474235009e-07
5.04875259767e-07
3.97661026703e-07
7.023220608e-07
1.73184496596e-06
1.11140932657e-06
9.46771412873e-07
3.1469456138e-07
5.43307175518e-06
6.28767256581e-07
3.46292972795e-07
6.44963140258e-07
1.21744580967e-07
4.49250961422e-08
1.21994812967e-07
3.11989145268e-08
1.09147180562e-07
1.46694170255e-06
3.8300655742e-07
1.18766407954e-06
1.72222501935e-06
2.00761830108e-05
1.72446353304e-07
1.14346724498e-07
5.42081194364e-08
5.55264722797e-08
2.21550547977e-07
3.58741595795e-08
2.85252792318e-05
9.29750921364e-06
8.15987818814e-06
7.73034182629e-07
5.69520530484e-07
3.13405853634e-07
1.01831299181e-05
3.30232559053e-08
2.5048477022e-08
4.99180629763e-08
8.29714105978e-08
8.60755669091e-08
7.82368653603e-06
1.34233787947e-05
4.96083729725e-06
3.91480961403e-06
8.35433989372e-07
1.01306323727e-05
2.67812728535e-07
4.41320923055e-06
3.7078407865e-07
3.20802153483e-06
2.21218638736e-07
1.73242061318e-05
4.81286625803e-06
5.10653931813e-06
2.47328883188e-06
1.74140581343e-06
2.93893910565e-06
1.71113128814e-06
1.91604934674e-06
2.03879501903e-06
2.65162436361e-06
1.19981651199e-06
1.01304929448e-06
1.83116271626e-06
3.45240062404e-06
3.00967067404e-06
6.76611883014e-07
1.06405261233e-06
1.22740713121e-07
3.30654827218e-06
1.65648079851e-06
1.61512252481e-07
2.08709707858e-07
1.45026624186e-07
5.56471228472e-07
1.16813178116e-06
2.40550591407e-07
5.2681166672e-07
1.64802020358e-07
1.63703853051e-07
1.42013275719e-06
1.60699071112e-06
2.25935864653e-07
3.54405981325e-07
3.75295479858e-07
3.62544318811e-07
9.2124047205e-07
8.69364617034e-07
8.69855887481e-07
5.7367542774e-09
2.22790241376e-06
2.7413048878e-06
1.58578249752e-06
1.31812183497e-06
1.34872380186e-06
2.9769336256e-06
3.32275481298e-07
9.35757946368e-07
2.4813190177e-06
3.26376781998e-06
2.31520543156e-07
7.98077002208e-07
7.92906591114e-07
3.32320120654e-07
1.57988120194e-06
6.71994889251e-07
4.67135899387e-07
8.38354010732e-06
9.56829924995e-08
3.11272115175e-07
1.3374070003e-07
3.76623133998e-07
5.19807447583e-07
1.74620374377e-07
3.40663641583e-07
2.87487288369e-06
5.08278948731e-07
9.569554003e-07
1.40461242507e-05
5.4024626411e-07
6.47504340757e-07
4.72811924469e-06
4.76822282046e-07
1.06243025946e-05
2.55367537924e-06
1.30878019066e-06
1.08527960896e-06
3.55919030148e-06
6.8589140696e-07
5.09337827153e-07
9.03168681776e-06
7.66321202481e-06
6.64865399058e-06
7.53957476697e-08
4.63108452109e-07
3.21258200396e-06
3.01038528089e-06
4.2789832012e-07
8.00600598622e-06
6.75220251907e-06
1.1613602589e-06
1.42172469282e-06
1.91612747512e-06
1.53243536858e-06
2.08365901466e-06
2.00691928073e-06
8.82158192209e-06
8.822226581e-06
1.23929951888e-06
7.63506717886e-07
6.63735672288e-07
2.70219872969e-06
6.53675085246e-08
5.59399940426e-08
8.9903576607e-08
9.22262148671e-08
9.99667174998e-08
8.32457417781e-09
4.64185322108e-08
1.38358306158e-07
6.58325547402e-06
3.76649717566e-07
2.01034476328e-07
1.02002307902e-07
6.28749540951e-06
8.8538762915e-06
5.92823903988e-06
6.09801039284e-06
5.0109343622e-06
6.51545080688e-06
2.79070488892e-06
1.20347741503e-05
6.57459940019e-07
1.48751421205e-05
3.58317041397e-07
7.38929072618e-06
1.06583150185e-05
2.72855972772e-07
1.64391935508e-05
7.23037905651e-06
1.99239009515e-07
7.31840892181e-07
6.19753798372e-07
6.71249396284e-07
4.42887425651e-07
1.05370980977e-07
2.79711345176e-07
2.76468157001e-07
8.59356789158e-08
1.09996932096e-06
5.14716589159e-07
1.23737847138e-06
7.37644912923e-06
6.91293364506e-06
8.40836157531e-06
9.11244774722e-06
2.41445218432e-05
1.94133872194e-05
1.12771811464e-05
2.02501361145e-06
1.33307280192e-05
9.81505285024e-06
5.32476619097e-07
9.53106484727e-07
1.41435601176e-07
4.42551448939e-07
2.99417257337e-07
2.41343473867e-07
4.6390213504e-07
2.07085435891e-06
3.93635387919e-06
3.68537705969e-06
1.08479966247e-06
1.48221714074e-06
1.98606187459e-06
3.51910928156e-07
2.07692113284e-05
3.0669550734e-06
1.56629538415e-07
5.85875065927e-06
2.97486055121e-05
9.51853420883e-06
1.58316646152e-05
5.6612015096e-06
1.40906813515e-06
3.69613521384e-07
9.20913705216e-06
2.9301042557e-06
1.36794633946e-07
7.44424556854e-07
4.98140640549e-06
6.03036061566e-07
2.99578695756e-06
2.72815319855e-06
1.05583852226e-06
5.82918223571e-07
3.19497336123e-06
3.4869868072e-06
2.07228646125e-05
2.04259287367e-05
2.83076372099e-05
3.12374162562e-05
2.28995567947e-06
2.35558646879e-06
2.486674632e-06
2.28458924873e-06
1.24397678527e-06
3.44672511223e-07
3.13606974318e-06
8.98200703652e-08
1.05991584295e-07
4.0420251664e-06
6.45340049214e-07
4.37792176014e-06
3.10468788671e-07
3.53608910445e-07
6.65087290579e-07
1.51077322857e-07
3.18057720881e-06
2.46571144761e-06
1.12019472448e-06
2.57965752503e-06
2.8945201853e-07
1.92898645605e-06
3.67435032442e-05
6.59828340818e-08
8.89877523131e-08
1.90026315383e-06
1.28521697259e-06
6.43807968502e-07
4.56924427315e-06
1.76736793042e-06
2.31004802995e-06
3.46187510103e-06
2.02480739131e-05
2.16012764158e-05
2.2928819598e-05
1.72752935586e-05
2.61093454808e-05
1.39099260045e-05
2.79509661051e-05
2.40934208343e-06
1.00234848662e-06
1.2560568716e-05
1.3890683976e-05
1.50884332864e-05
1.35549827881e-05
7.91867475225e-07
2.54059345406e-06
2.19505068996e-06
1.76462731331e-06
2.2741169429e-06
1.00797813254e-06
1.35312238417e-06
8.90656009803e-06
4.27955297041e-06
3.19035952498e-06
4.40824579344e-06
3.999206943e-06
1.30137778616e-05
1.38105121645e-05
5.5980526941e-06
6.25235113003e-06
7.11166565234e-06
7.30200889676e-06
4.03047586074e-07
2.46367999198e-09
1.01290360743e-08
1.87633166925e-09
1.49801318398e-08
1.90642435107e-09
2.55638203532e-09
1.8325795093e-08
8.06601070322e-11
7.06558943653e-09
8.1972236001e-09
3.2665329818e-09
8.8997648387e-09
4.49870649736e-09
1.76125681891e-06
1.84399872413e-06
1.65929456037e-06
7.25696372401e-09
1.54249577411e-08
4.04110558675e-08
4.77989103529e-06
5.52248610126e-06
7.73930720083e-06
5.40288496149e-06
6.62613881853e-06
5.0924207736e-06
2.44770325668e-06
3.62468144977e-06
6.35715557121e-06
3.8664053288e-06
1.76044796299e-06
1.96028910696e-06
2.25864543096e-06
2.78492542061e-06
8.29844271699e-06
1.00943035759e-05
4.85301290965e-06
4.84889651006e-06
2.984313863e-07
5.98731436178e-07
1.12480428246e-06
7.60441890431e-08
3.52209864505e-06
3.74322355637e-07
4.55406697348e-07
7.01391701013e-08
2.715668006e-06
3.44982454078e-06
2.51893550306e-06
7.26698380606e-07
2.00940194793e-07
2.44257088368e-06
1.73677944706e-06
9.67288268001e-07
3.5016164905e-06
4.40336579843e-07
1.20443649057e-07
1.69337458822e-06
1.64745207897e-07
4.8992152751e-08
1.25575628033e-06
9.48681766899e-07
2.78183070652e-07
1.40922033103e-06
4.93800256265e-07
2.43371640413e-07
1.25699764096e-06
7.6330004662e-08
3.62279321701e-07
1.04561558031e-06
8.19638938495e-06
1.92174353078e-06
1.36750205514e-05
2.82404198838e-06
1.27679507993e-07
2.85284682817e-07
7.84233972355e-07
1.99852881132e-06
4.36326889249e-08
3.42915050291e-09
2.96174642557e-08
3.0782275118e-08
2.80514707138e-08
6.67920888523e-09
2.2812317356e-08
3.10230155187e-08
8.86708812905e-09
2.00803910348e-08
7.92811933877e-09
3.09839985667e-09
5.4759306815e-09
1.97472292403e-08
4.0491900772e-08
3.03365450354e-08
1.72079651066e-08
7.06358302127e-09
4.89399665812e-09
3.23108044476e-09
4.76726808694e-09
1.52667155844e-09
2.11337193704e-08
1.99777125735e-08
2.73511943467e-08
8.59638618536e-09
1.8033365996e-07
2.73753678276e-07
2.6445298168e-07
6.35245522263e-07
1.61834757114e-08
1.81356549183e-09
7.92649054196e-08
2.56556337125e-08
1.88103662427e-06
1.077772425e-05
3.39560613185e-09
6.92971437597e-08
6.44282073533e-08
1.37625302172e-07
1.35658617443e-07
2.35043909038e-07
1.9589761833e-07
1.54183553655e-07
1.9926844935e-09
6.13677387804e-09
1.70939883912e-07
1.13159562215e-07
1.91483849813e-07
1.58642468198e-06
2.99678357673e-09
1.65707875591e-08
5.49376137711e-06
7.32270173424e-06
3.9673574925e-06
3.9708111542e-06
1.34409580723e-06
1.87105430599e-08
3.82204772057e-09
5.62675231775e-09
1.04228226684e-06
2.13244307459e-08
9.68630169356e-07
4.65222347141e-09
9.8886580471e-07
1.82915237935e-08
1.14846049856e-06
1.38125836951e-06
1.57717523741e-08
1.15081121778e-06
1.48196660205e-06
1.25828465147e-08
1.26286699983e-06
1.58447245169e-08
8.05261481399e-07
8.77512780536e-07
1.2873861082e-06
1.14444067479e-08
2.05471897231e-06
1.96864920531e-06
1.0329825884e-06
8.03184269331e-08
8.02313624895e-07
9.99745269876e-07
2.24835885737e-06
2.16543216155e-06
1.38003430627e-06
1.15128063938e-06
1.82249886622e-06
5.09338634762e-07
3.13066038527e-06
3.62137733275e-06
3.99204839708e-06
4.99149121297e-06
6.36153986392e-08
5.79740388705e-07
1.92495762824e-07
5.44374536709e-07
3.73245661427e-07
3.08302146177e-07
1.30363416886e-06
2.0300788862e-06
8.89910659692e-07
8.3970752063e-07
3.82117320252e-07
1.12750075537e-06
2.4880578251e-06
2.17090443982e-06
9.24668160892e-07
2.0744524499e-05
2.24343677493e-05
3.24655294941e-06
3.1947458094e-06
4.74234454043e-06
3.2787696627e-07
1.19061674768e-07
2.10631116274e-06
9.67466664578e-07
6.92501081524e-07
7.18477273795e-07
6.11891336201e-07
3.56936426737e-06
8.04654024783e-06
3.32250290251e-07
7.96117549767e-08
3.54692266512e-06
4.19907811926e-08
5.67171270161e-08
3.00956476839e-07
1.26241528219e-07
7.38250568373e-08
8.56223025267e-06
1.5191627403e-08
2.87190382272e-09
1.69134185212e-08
6.06651061819e-08
2.37343567999e-08
3.70015543673e-06
4.5803009273e-06
1.03947253542e-07
1.82655661817e-08
4.34556714424e-08
9.99228941393e-07
2.10908887325e-08
7.72329824308e-09
8.58894875374e-07
1.09568573794e-06
2.55441882586e-07
3.39317892691e-06
1.16530844185e-06
2.79891836186e-08
8.98810996168e-11
2.06139320443e-09
7.80924228588e-08
5.11741373816e-08
4.32554273655e-08
4.08245836955e-08
3.67584141053e-08
3.7709557886e-08
4.44015132333e-08
3.19955142827e-08
1.03523073349e-07
2.57926176546e-08
8.67670411073e-09
4.58001216617e-08
3.15488838253e-08
2.12284729785e-09
4.45313747754e-09
6.23236621721e-09
3.51892856064e-07
1.92071664251e-06
1.10231559517e-06
8.22436891418e-07
5.30062372513e-07
5.36203498717e-07
7.11158404193e-07
1.53804321979e-06
2.01368659098e-06
1.72328361056e-06
4.68987783886e-07
2.58095841902e-07
8.5585085406e-06
4.44011586099e-07
4.29388932642e-07
4.17542806327e-08
2.19605671695e-06
1.87096642399e-06
1.6125156679e-07
1.71421847933e-06
8.70909239842e-07
1.45964937087e-06
1.89219397214e-06
2.63683987955e-08
2.46853723001e-08
2.17034958727e-08
2.70592113406e-08
1.48023171889e-08
4.85249993546e-08
2.37009435584e-08
2.84130256365e-08
1.00275617657e-06
8.23060974028e-07
5.80555896847e-07
4.46598465406e-07
4.880668159e-07
2.43620784406e-08
3.98935941882e-07
6.62336219343e-08
3.9577574059e-07
9.98522715538e-09
1.35850772055e-07
1.34538217057e-08
1.96067178775e-07
9.44582086876e-08
4.86407184677e-07
3.08480897371e-08
7.94017134799e-09
1.69755390553e-07
1.67285544216e-07
1.43967256437e-07
2.43496930029e-07
1.24666114396e-06
9.25472699336e-07
1.01446117492e-06
1.34333543645e-06
1.30626875581e-06
6.80045704029e-07
1.52032887777e-06
4.9841282314e-07
6.7231656943e-08
4.35486447084e-08
5.38311669549e-08
1.3443048543e-08
1.96939018133e-08
6.34130870446e-08
1.97569976688e-08
1.81686853419e-06
7.75308863177e-07
4.57118834864e-07
5.40280143063e-07
6.02519922522e-07
3.01296769062e-07
4.78578597227e-07
3.25351092927e-07
4.88250387679e-07
3.73425997468e-07
1.39907655233e-07
1.21174963475e-07
1.6361900453e-07
2.03770688596e-07
1.13068261317e-06
3.36712970997e-07
2.75214679658e-07
5.35813850069e-08
3.44231684754e-07
5.0753883246e-06
7.4593159023e-06
1.29589856801e-07
1.09655669815e-07
5.26062802422e-07
5.86022990349e-07
4.01267662263e-07
3.93885599563e-07
2.98074005463e-07
7.94773840161e-08
2.41268669011e-07
1.19061284424e-06
4.72551266991e-08
4.28503965759e-08
1.15529369304e-06
1.17943055123e-06
1.55221634361e-07
3.06664556658e-07
2.68368647426e-07
2.99776922831e-07
2.45184967576e-07
3.49915372753e-07
2.94827562269e-07
2.44084978222e-07
2.18435436801e-07
2.20040026076e-07
2.39077540703e-07
1.66398325663e-07
1.5024651187e-07
1.83940620504e-07
2.24548072861e-07
1.94932497035e-07
1.62373032479e-07
1.07215093506e-07
4.03394360689e-08
1.38973719965e-07
2.23431965837e-08
4.64869233729e-08
6.06558532936e-08
4.6568977453e-08
1.2397043072e-08
1.83785859414e-08
2.58410141652e-08
1.99832093759e-08
4.11729199395e-08
1.09223640013e-09
2.72339135482e-08
1.42259801191e-08
1.42823811166e-08
3.06281061712e-08
2.6226116962e-08
3.73619795091e-08
5.00791267064e-08
5.07360149676e-08
8.50045598572e-08
1.08970620076e-07
7.44948063168e-08
1.77321750251e-06
5.20409517879e-08
2.66588992796e-08
2.64734437313e-08
2.74638337466e-08
1.95385903797e-08
1.49712001112e-08
2.20264821753e-08
2.41764513757e-08
3.38629080495e-06
2.57616705275e-09
1.65758714933e-06
1.9078592002e-06
2.23538990928e-06
2.06895207074e-06
1.54325084585e-06
3.447284922e-06
4.2814432082e-06
2.73338629657e-06
1.79467198105e-07
3.43406785823e-06
2.52720764272e-06
2.83775226753e-08
8.53478799343e-09
8.20963660793e-08
2.29035383414e-09
2.09486213164e-08
8.34502045274e-09
1.3368344672e-08
9.9787835652e-08
1.53813530519e-07
4.89730122635e-06
5.29564377425e-06
1.18917076802e-07
1.36396263841e-07
9.69530295816e-08
5.04942485824e-07
1.81400605356e-07
5.7611152215e-07
4.74292018771e-07
6.02225510785e-07
8.82586286592e-08
2.72675588901e-07
3.71094363078e-08
4.02450939346e-08
2.55015700946e-07
2.03613276758e-07
1.46342037132e-07
5.27892466978e-07
8.24750568582e-07
2.37709830626e-07
1.31236464001e-07
1.32557648674e-07
3.59331597054e-07
1.38629823641e-07
2.08368821664e-07
1.40779043424e-07
1.62895257635e-07
5.32417934563e-07
3.08381600009e-07
5.68791197696e-06
2.41913386315e-07
2.53666201555e-07
2.57197382962e-07
2.11305448595e-07
1.27754005138e-07
8.42861518449e-06
1.90086249619e-07
3.21314506416e-07
4.5638438972e-07
2.02559232917e-07
4.07514494072e-07
6.75850582984e-06
3.94204531561e-08
5.9942773133e-07
2.47667395249e-07
1.40578912667e-07
1.48140731629e-07
2.01725245163e-07
7.25522022684e-08
1.39496184078e-07
8.95898435752e-08
1.6439665589e-07
7.30294788333e-08
5.54134603686e-06
9.36170374141e-08
4.17697759817e-07
3.00708941227e-09
3.89214373296e-07
6.62442361166e-06
2.80744609949e-06
3.83354837609e-07