# vtk DataFile Version 3.0
File Name: Molecule/sphere_excent/sphere_excent_0-s5.vtk
ASCII
DATASET UNSTRUCTURED_GRID
FIELD FieldData 1
TIME 1 1 double
0.0
POINTS 188 double
1.70130162 -1.05146222 0.0
1.72533696 -0.86777713 -0.51978383
1.92387672 -0.54653306 0.0
1.90211303 -0.3249197 -0.52573111
1.61803399 -0.61803399 -1.0
2.0 0.0 0.0
1.70130162 0.0 -1.05146222
1.90211303 0.3249197 -0.52573111
1.61803399 0.61803399 -1.0
1.38756095 -0.32124407 -1.40409289
1.38756095 0.32124407 -1.40409289
1.05146222 0.0 -1.70130162
1.92387672 0.54653306 0.0
1.72533696 0.86777713 -0.51978383
1.70130162 1.05146222 0.0
1.40409289 1.38756095 -0.32124407
1.37638192 1.17557051 -0.85065081
1.0 1.61803399 -0.61803399
1.17557051 0.85065081 -1.37638192
0.86777713 0.51978383 -1.72533696
0.61803399 1.0 -1.61803399
1.0 1.61803399 0.61803399
0.52573111 1.90211303 0.3249197
0.51978383 1.72533696 0.86777713
0.0 1.92387672 0.54653306
0.0 2.0 0.0
0.0 1.70130162 1.05146222
-0.51978383 1.72533696 0.86777713
-0.52573111 1.90211303 0.3249197
-1.0 1.61803399 0.61803399
-1.05146222 1.70130162 0.0
-1.40409289 1.38756095 0.32124407
-1.40409289 1.38756095 -0.32124407
-1.0 1.61803399 -0.61803399
-1.70130162 1.05146222 0.0
-0.32124407 1.40409289 1.38756095
-0.85065081 1.37638192 1.17557051
-0.61803399 1.0 1.61803399
-1.37638192 1.17557051 0.85065081
-1.17557051 0.85065081 1.37638192
-1.61803399 0.61803399 1.0
-1.72533696 0.86777713 0.51978383
-0.86777713 0.51978383 1.72533696
-1.38756095 0.32124407 1.40409289
-1.05146222 0.0 1.70130162
0.32124407 1.40409289 1.38756095
0.0 1.05146222 1.70130162
0.61803399 1.0 1.61803399
-0.3249197 0.52573111 1.90211303
0.3249197 0.52573111 1.90211303
0.0 0.0 2.0
-0.54653306 0.0 1.92387672
0.86777713 0.51978383 1.72533696
0.54653306 0.0 1.92387672
1.05146222 0.0 1.70130162
-0.86777713 -0.51978383 1.72533696
-0.3249197 -0.52573111 1.90211303
-0.61803399 -1.0 1.61803399
0.0 -1.05146222 1.70130162
0.3249197 -0.52573111 1.90211303
0.61803399 -1.0 1.61803399
-0.32124407 -1.40409289 1.38756095
0.32124407 -1.40409289 1.38756095
0.0 -1.70130162 1.05146222
0.86777713 -0.51978383 1.72533696
1.38756095 -0.32124407 1.40409289
1.17557051 -0.85065081 1.37638192
1.61803399 -0.61803399 1.0
0.85065081 -1.37638192 1.17557051
1.37638192 -1.17557051 0.85065081
1.0 -1.61803399 0.61803399
0.51978383 -1.72533696 0.86777713
1.72533696 -0.86777713 0.51978383
1.40409289 -1.38756095 0.32124407
0.86777713 -0.51978383 -1.72533696
0.54653306 0.0 -1.92387672
0.3249197 -0.52573111 -1.90211303
0.61803399 -1.0 -1.61803399
0.0 0.0 -2.0
0.0 -1.05146222 -1.70130162
-0.3249197 -0.52573111 -1.90211303
-0.61803399 -1.0 -1.61803399
0.32124407 -1.40409289 -1.38756095
-0.32124407 -1.40409289 -1.38756095
0.0 -1.70130162 -1.05146222
-0.54653306 0.0 -1.92387672
-0.86777713 -0.51978383 -1.72533696
-1.05146222 0.0 -1.70130162
1.90211303 -0.3249197 0.52573111
1.90211303 0.3249197 0.52573111
1.70130162 0.0 1.05146222
1.61803399 0.61803399 1.0
1.72533696 0.86777713 0.51978383
1.38756095 0.32124407 1.40409289
1.40409289 1.38756095 0.32124407
1.37638192 1.17557051 0.85065081
0.85065081 1.37638192 1.17557051
1.17557051 0.85065081 1.37638192
-1.38756095 -0.32124407 -1.40409289
-1.38756095 0.32124407 -1.40409289
-1.70130162 0.0 -1.05146222
-1.61803399 -0.61803399 -1.0
-1.61803399 0.61803399 -1.0
-1.90211303 -0.3249197 -0.52573111
-1.90211303 0.3249197 -0.52573111
-2.0 0.0 0.0
-1.72533696 -0.86777713 -0.51978383
-1.92387672 -0.54653306 0.0
-1.70130162 -1.05146222 0.0
-1.72533696 0.86777713 -0.51978383
-1.92387672 0.54653306 0.0
0.0 1.70130162 -1.05146222
-0.32124407 1.40409289 -1.38756095
-0.51978383 1.72533696 -0.86777713
-0.85065081 1.37638192 -1.17557051
-0.61803399 1.0 -1.61803399
-1.17557051 0.85065081 -1.37638192
-1.37638192 1.17557051 -0.85065081
-0.86777713 0.51978383 -1.72533696
-1.40409289 -1.38756095 -0.32124407
-1.40409289 -1.38756095 0.32124407
-1.05146222 -1.70130162 0.0
-1.0 -1.61803399 -0.61803399
-1.0 -1.61803399 0.61803399
-0.52573111 -1.90211303 -0.3249197
-0.52573111 -1.90211303 0.3249197
0.0 -2.0 0.0
-0.51978383 -1.72533696 -0.86777713
0.0 -1.92387672 -0.54653306
-0.51978383 -1.72533696 0.86777713
0.0 -1.92387672 0.54653306
-1.72533696 -0.86777713 0.51978383
-1.37638192 -1.17557051 0.85065081
-1.61803399 -0.61803399 1.0
-0.85065081 -1.37638192 1.17557051
-1.17557051 -0.85065081 1.37638192
-1.38756095 -0.32124407 1.40409289
-1.70130162 0.0 1.05146222
-1.90211303 0.3249197 0.52573111
-1.90211303 -0.3249197 0.52573111
-1.17557051 -0.85065081 -1.37638192
-0.85065081 -1.37638192 -1.17557051
-1.37638192 -1.17557051 -0.85065081
0.51978383 -1.72533696 -0.86777713
0.52573111 -1.90211303 -0.3249197
1.0 -1.61803399 -0.61803399
1.05146222 -1.70130162 0.0
0.52573111 -1.90211303 0.3249197
1.40409289 -1.38756095 -0.32124407
1.17557051 -0.85065081 -1.37638192
1.37638192 -1.17557051 -0.85065081
0.85065081 -1.37638192 -1.17557051
0.3249197 0.52573111 -1.90211303
-0.3249197 0.52573111 -1.90211303
0.0 1.05146222 -1.70130162
0.32124407 1.40409289 -1.38756095
0.85065081 1.37638192 -1.17557051
0.76722747 1.68782295 -0.75007714
1.03851698 1.68035577 -0.31286893
0.77237477 1.78201305 -0.47735386
0.7992141 1.82596499 -0.16464716
0.52573111 1.90211303 -0.3249197
1.05146222 1.70130162 0.0
0.5328094 1.92772253 0.0
0.7992141 1.82596499 0.16464716
0.5281655 1.83248835 -0.60251776
0.51978383 1.72533696 -0.86777713
0.26331074 1.8486092 -0.71645759
0.26558495 1.93278519 -0.44023406
0.0 1.92387672 -0.54653306
1.42256347 1.40581406 0.0
1.24047916 1.56040874 -0.1622837
1.24047916 1.56040874 0.1622837
1.2136503 1.5173046 0.47417265
1.03851698 1.68035577 0.31286893
-0.52573111 1.90211303 -0.3249197
-0.5328094 1.92772253 0.0
-0.7992141 1.82596499 -0.16464716
-0.7992141 1.82596499 0.16464716
-0.26558495 1.93278519 -0.44023406
-0.26331074 1.8486092 -0.71645759
-0.5281655 1.83248835 -0.60251776
1.29315558 1.02675088 -1.12850842
1.02675088 1.12850842 -1.29315558
1.12850842 1.29315558 -1.02675088
0.59200919 1.40461969 -1.29482379
0.69230603 1.56690339 -1.03224324
0.42604573 1.58529846 -1.14250332

CELLS 372 1488
3 0 1 2
3 1 3 2
3 1 4 3
3 2 3 5
3 4 6 3
3 6 7 3
3 6 8 7
3 3 7 5
3 4 9 6
3 9 10 6
3 9 11 10
3 6 10 8
3 5 7 12
3 7 13 12
3 7 8 13
3 12 13 14
3 14 13 15
3 13 16 15
3 13 8 16
3 15 16 17
3 8 10 18
3 10 19 18
3 10 11 19
3 18 19 20
3 21 22 23
3 22 24 23
3 22 25 24
3 23 24 26
3 26 24 27
3 24 28 27
3 24 25 28
3 27 28 29
3 29 30 31
3 30 32 31
3 30 33 32
3 31 32 34
3 26 27 35
3 27 36 35
3 27 29 36
3 35 36 37
3 29 38 36
3 38 39 36
3 38 40 39
3 36 39 37
3 29 31 38
3 31 41 38
3 31 34 41
3 38 41 40
3 37 39 42
3 39 43 42
3 39 40 43
3 42 43 44
3 26 35 45
3 35 46 45
3 35 37 46
3 45 46 47
3 37 48 46
3 48 49 46
3 48 50 49
3 46 49 47
3 37 42 48
3 42 51 48
3 42 44 51
3 48 51 50
3 47 49 52
3 49 53 52
3 49 50 53
3 52 53 54
3 44 55 51
3 55 56 51
3 55 57 56
3 51 56 50
3 57 58 56
3 58 59 56
3 58 60 59
3 56 59 50
3 57 61 58
3 61 62 58
3 61 63 62
3 58 62 60
3 50 59 53
3 59 64 53
3 59 60 64
3 53 64 54
3 54 64 65
3 64 66 65
3 64 60 66
3 65 66 67
3 60 68 66
3 68 69 66
3 68 70 69
3 66 69 67
3 60 62 68
3 62 71 68
3 62 63 71
3 68 71 70
3 67 69 72
3 69 73 72
3 69 70 73
3 72 73 0
3 11 74 75
3 74 76 75
3 74 77 76
3 75 76 78
3 77 79 76
3 79 80 76
3 79 81 80
3 76 80 78
3 77 82 79
3 82 83 79
3 82 84 83
3 79 83 81
3 78 80 85
3 80 86 85
3 80 81 86
3 85 86 87
3 0 2 72
3 2 88 72
3 2 5 88
3 72 88 67
3 5 89 88
3 89 90 88
3 89 91 90
3 88 90 67
3 5 12 89
3 12 92 89
3 12 14 92
3 89 92 91
3 67 90 65
3 90 93 65
3 90 91 93
3 65 93 54
3 14 94 92
3 94 95 92
3 92 95 91
3 21 96 95
3 96 97 95
3 96 47 97
3 95 97 91
3 21 23 96
3 23 45 96
3 23 26 45
3 96 45 47
3 91 97 93
3 97 52 93
3 97 47 52
3 93 52 54
3 87 98 99
3 98 100 99
3 98 101 100
3 99 100 102
3 101 103 100
3 103 104 100
3 103 105 104
3 100 104 102
3 101 106 103
3 106 107 103
3 106 108 107
3 103 107 105
3 102 104 109
3 104 110 109
3 104 105 110
3 109 110 34
3 111 112 113
3 112 114 113
3 112 115 114
3 113 114 33
3 115 116 114
3 116 117 114
3 116 102 117
3 114 117 33
3 115 118 116
3 118 99 116
3 118 87 99
3 116 99 102
3 33 117 32
3 117 109 32
3 117 102 109
3 32 109 34
3 108 119 120
3 119 121 120
3 119 122 121
3 120 121 123
3 122 124 121
3 124 125 121
3 124 126 125
3 121 125 123
3 122 127 124
3 127 128 124
3 127 84 128
3 124 128 126
3 123 125 129
3 125 130 129
3 125 126 130
3 129 130 63
3 108 120 131
3 120 132 131
3 120 123 132
3 131 132 133
3 123 134 132
3 134 135 132
3 134 57 135
3 132 135 133
3 123 129 134
3 129 61 134
3 129 63 61
3 134 61 57
3 133 135 136
3 135 55 136
3 135 57 55
3 136 55 44
3 44 43 136
3 43 137 136
3 43 40 137
3 136 137 133
3 40 138 137
3 138 139 137
3 138 105 139
3 137 139 133
3 40 41 138
3 41 110 138
3 41 34 110
3 138 110 105
3 133 139 131
3 139 107 131
3 139 105 107
3 131 107 108
3 87 86 98
3 86 140 98
3 86 81 140
3 98 140 101
3 81 141 140
3 141 142 140
3 141 122 142
3 140 142 101
3 81 83 141
3 83 127 141
3 83 84 127
3 141 127 122
3 101 142 106
3 142 119 106
3 142 122 119
3 106 119 108
3 84 143 128
3 143 144 128
3 143 145 144
3 128 144 126
3 145 146 144
3 146 147 144
3 146 70 147
3 144 147 126
3 145 148 146
3 148 73 146
3 148 0 73
3 146 73 70
3 126 147 130
3 147 71 130
3 147 70 71
3 130 71 63
3 11 9 74
3 9 149 74
3 9 4 149
3 74 149 77
3 4 150 149
3 150 151 149
3 150 145 151
3 149 151 77
3 4 1 150
3 1 148 150
3 1 0 148
3 150 148 145
3 77 151 82
3 151 143 82
3 151 145 143
3 82 143 84
3 11 75 19
3 75 152 19
3 75 78 152
3 19 152 20
3 78 153 152
3 153 154 152
3 153 115 154
3 152 154 20
3 78 85 153
3 85 118 153
3 85 87 118
3 153 118 115
3 20 154 155
3 154 112 155
3 154 115 112
3 155 112 111
3 156 157 17
3 17 158 15
3 17 159 158
3 159 160 158
3 159 161 160
3 158 160 162
3 161 163 160
3 163 164 160
3 163 22 164
3 160 164 162
3 22 163 25
3 25 163 161
3 164 22 21
3 17 157 159
3 157 165 159
3 157 166 165
3 159 165 161
3 166 167 165
3 167 168 165
3 167 169 168
3 165 168 161
3 169 167 111
3 111 167 166
3 161 168 25
3 168 169 25
3 15 170 14
3 14 170 94
3 15 171 170
3 171 172 170
3 171 162 172
3 170 172 94
3 94 172 173
3 172 174 173
3 172 162 174
3 173 174 21
3 175 176 25
3 25 176 28
3 175 177 176
3 177 178 176
3 177 30 178
3 176 178 28
3 30 177 33
3 33 177 175
3 28 178 29
3 178 30 29
3 169 179 25
3 25 179 175
3 169 180 179
3 180 181 179
3 180 113 181
3 179 181 175
3 113 180 111
3 111 180 169
3 175 181 33
3 181 113 33
3 94 173 95
3 173 21 95
3 162 171 158
3 158 171 15
3 21 174 164
3 164 174 162
3 18 182 8
3 8 182 16
3 18 183 182
3 183 184 182
3 183 156 184
3 182 184 16
3 156 183 20
3 20 183 18
3 16 184 17
3 184 156 17
3 156 185 186
3 185 187 186
3 185 155 187
3 186 187 166
3 155 185 20
3 20 185 156
3 166 187 111
3 187 155 111
3 156 186 157
3 157 186 166

CELL_TYPES 372
5
5
5
5
5
5
5
5
5
5
5
5
5
5
5
5
5
5
5
5
5
5
5
5
5
5
5
5
5
5
5
5
5
5
5
5
5
5
5
5
5
5
5
5
5
5
5
5
5
5
5
5
5
5
5
5
5
5
5
5
5
5
5
5
5
5
5
5
5
5
5
5
5
5
5
5
5
5
5
5
5
5
5
5
5
5
5
5
5
5
5
5
5
5
5
5
5
5
5
5
5
5
5
5
5
5
5
5
5
5
5
5
5
5
5
5
5
5
5
5
5
5
5
5
5
5
5
5
5
5
5
5
5
5
5
5
5
5
5
5
5
5
5
5
5
5
5
5
5
5
5
5
5
5
5
5
5
5
5
5
5
5
5
5
5
5
5
5
5
5
5
5
5
5
5
5
5
5
5
5
5
5
5
5
5
5
5
5
5
5
5
5
5
5
5
5
5
5
5
5
5
5
5
5
5
5
5
5
5
5
5
5
5
5
5
5
5
5
5
5
5
5
5
5
5
5
5
5
5
5
5
5
5
5
5
5
5
5
5
5
5
5
5
5
5
5
5
5
5
5
5
5
5
5
5
5
5
5
5
5
5
5
5
5
5
5
5
5
5
5
5
5
5
5
5
5
5
5
5
5
5
5
5
5
5
5
5
5
5
5
5
5
5
5
5
5
5
5
5
5
5
5
5
5
5
5
5
5
5
5
5
5
5
5
5
5
5
5
5
5
5
5
5
5
5
5
5
5
5
5
5
5
5
5
5
5
5
5
5
5
5
5
5
5
5
5
5
5
5
5
5
5
5
5
5
5
5
5
5
5
5
5
5
5
5
5
5
5
5
5
5
5

CELL_DATA 372
SCALARS cell_data_0 double
LOOKUP_TABLE default
2.02390527993e-05
5.31179524001e-05
3.84131075007e-05
2.14409886959e-05
3.21531724453e-05
6.65742733511e-05
3.28001131314e-05
3.95008637634e-05
2.45900027191e-05
7.80655777184e-05
5.56109491336e-05
4.75730873757e-05
4.99096219152e-05
0.000144322783041
7.73785909891e-05
8.70460116999e-05
9.10515306695e-05
0.000152644189445
7.95139233734e-05
5.81740401405e-05
8.78226246698e-05
0.00013886215679
6.29446806343e-05
6.43681493887e-05
3.31414420338e-06
2.21289156791e-05
1.63206020087e-05
7.2988364933e-06
1.08975485574e-05
2.77389404568e-05
1.63032422094e-05
5.21259400493e-06
1.28863040992e-06
7.18883469407e-06
4.90300703515e-06
1.40919840887e-06
3.2084724529e-06
3.13338271593e-06
1.76454279141e-06
7.80742844022e-06
4.33206405377e-06
5.98026839067e-06
5.40103161142e-06
9.06690613019e-06
2.52396221334e-06
2.54827676324e-06
1.51379380395e-06
3.27149395784e-06
8.50429068084e-06
5.57005097044e-06
5.38886678948e-06
7.53967671915e-06
5.93417893561e-06
7.80657348541e-06
9.9842052671e-06
9.05639484544e-06
1.3131288872e-05
1.10011872129e-05
1.81560757279e-05
1.43967810762e-05
1.10085995612e-05
9.30386153791e-06
9.95638125895e-06
1.51231781318e-05
1.23575806369e-05
9.69056979121e-06
1.49430917163e-05
8.64662034502e-06
9.9150930283e-06
9.23770568169e-06
9.40834265352e-06
1.51218919375e-05
1.46269398508e-05
1.95917318366e-05
1.91709068762e-05
2.25747776993e-05
1.10358108958e-05
9.81334821524e-06
5.61403934826e-06
1.10711951147e-05
1.8662374464e-05
1.62593423093e-05
1.59773399653e-05
1.14428603604e-05
1.23589785384e-05
1.01163888976e-05
1.11702085045e-05
4.14446683649e-06
9.2616069319e-06
4.4033817264e-06
5.41780630697e-07
3.22879507869e-06
6.91437088824e-06
7.66791449656e-07
1.83375897204e-06
1.00613294041e-06
9.99597738858e-07
1.58335903951e-06
6.15842459608e-07
1.862583369e-06
8.98749719355e-07
7.24648676337e-07
2.41347391174e-06
1.51558691623e-06
3.31746402779e-06
1.55282487306e-06
2.94262096282e-06
2.16919922418e-06
3.60169495495e-06
1.75661238361e-06
1.42734392702e-06
2.27852471248e-06
2.75256075813e-06
2.73856964963e-06
3.08392400501e-06
2.14882520341e-06
1.42022108221e-06
1.34335064767e-06
2.84876971264e-06
2.43321488594e-06
1.96411565483e-06
3.67978904365e-06
4.25498769523e-06
4.02844697936e-06
2.16709484141e-05
1.88738640273e-05
1.77656475199e-05
2.79979582148e-06
3.60495123835e-06
6.95342580078e-06
4.81520128685e-06
9.86917501976e-06
6.26610567236e-06
4.00055546975e-06
3.1716163652e-06
4.17266677319e-06
5.29088655263e-06
8.79587281949e-06
5.20163675193e-06
3.43128401252e-06
5.53901432776e-06
4.8806046789e-06
7.20819058621e-06
5.32434761101e-06
6.81863948756e-06
9.48390992185e-06
7.4966934602e-06
2.7166143897e-07
4.50554421686e-07
7.35480637797e-07
8.51569299066e-07
1.61707078185e-06
2.0656151777e-06
8.43659369816e-06
1.76210171849e-06
8.69854615299e-07
1.74637174998e-06
2.66050681161e-08
8.05350974611e-06
1.20667704394e-06
9.9188079833e-07
6.41657627267e-06
2.41748661825e-07
4.31080535783e-06
3.58701324233e-06
5.9003662417e-06
1.73555409284e-06
6.07308774751e-06
3.50042911137e-06
4.30441423305e-06
2.04629486803e-06
8.11441983294e-06
2.01816023252e-06
1.72267365899e-06
8.26040629786e-07
3.96627616412e-06
5.20581594159e-06
3.3053536698e-06
9.71338740126e-07
1.19466636631e-06
5.44763747258e-06
1.68678585719e-05
4.76098689748e-06
2.63946280538e-05
1.76426271842e-05
2.26601069021e-05
1.07444075434e-05
3.06834064843e-05
1.95816231615e-05
1.18293326449e-05
1.67596364419e-05
4.44844295695e-06
3.58559971493e-06
1.18122257764e-05
2.43926756952e-06
1.11824738892e-06
2.19068989196e-06
6.18158191244e-07
2.9611196504e-06
4.27551172075e-06
5.67644515153e-06
7.93281896764e-06
5.70128996102e-06
2.92560014358e-06
5.13532956927e-06
4.0626540347e-06
7.96887684066e-06
6.20031398779e-06
7.1097429458e-06
7.81416587515e-06
8.52843656701e-06
7.33704033415e-06
5.63962105722e-06
5.00867635435e-06
5.18154726817e-06
4.12069644127e-06
3.35797706126e-06
4.18436412475e-06
3.1670095996e-06
2.74948529549e-06
1.62017149698e-06
1.45665037772e-06
4.62978558166e-06
1.71586993026e-06
9.07887907582e-07
6.1641894416e-06
1.13923395059e-06
1.26023203476e-06
1.70843860248e-06
3.05715128532e-06
8.5750853454e-07
2.01064207705e-06
4.68749670275e-07
1.13604623742e-05
7.52054057537e-07
1.54347907655e-06
6.89977360918e-06
7.31625511085e-06
2.08235177583e-05
1.24251229035e-07
8.7093927516e-07
1.2030813884e-05
5.66073978611e-08
2.9719727289e-06
1.73707553337e-06
2.63593743274e-07
7.93237706287e-06
5.23439157312e-07
1.91746566088e-06
2.23894227748e-06
2.03693410584e-06
3.05514394766e-07
1.53930897295e-06
1.44157341933e-06
1.79463961227e-06
2.77490483924e-06
9.07238303326e-07
3.73707744985e-07
2.63397693515e-07
1.23651052235e-05
1.18241856338e-05
1.24172407511e-05
2.12769406866e-06
7.8111746442e-07
5.66316863217e-07
1.93153078283e-06
2.86639419013e-06
1.51647639199e-05
1.23717666147e-05
9.46432514601e-06
5.71720283466e-07
3.51614122693e-06
1.0711937911e-06
1.43943931956e-06
8.54662011545e-07
1.70007593018e-05
1.80404872468e-05
1.81951226856e-06
1.73151762934e-05
2.90934114449e-06
2.4756758482e-06
8.16650738166e-06
1.65793031659e-06
3.06548324177e-06
4.2867602724e-06
3.1966505582e-06
9.00835684965e-06
1.30072175385e-05
1.49478085421e-05
6.93239089223e-06
1.42632258018e-05
7.74079323036e-06
1.47105349416e-05
3.00244281657e-07
1.36664844294e-07
3.00181243905e-06
7.50712891947e-06
2.3954118895e-06
3.53172123512e-07
7.63968086457e-07
6.87856899405e-06
1.24159009498e-06
3.85605804393e-06
8.33340598531e-07
3.2848413752e-07
2.89459739431e-07
7.48926516932e-06
2.75421869139e-06
7.36807635952e-06
1.24333433244e-07
1.67346908812e-06
2.73681680904e-06
3.48535044454e-06
1.50763428916e-05
4.17554288874e-06
2.35550512874e-06
1.21869999528e-05
4.57695475725e-06
7.39425131232e-06
1.38212493206e-07
7.22043025409e-06
3.08464290915e-06
2.95049880662e-06
1.06844791684e-07
6.1749937638e-06
4.13414883109e-07
7.63002282405e-07
1.74349036307e-06
7.64080930998e-07
2.4817499368e-09
9.86924673301e-07
1.40085711916e-06
1.41283781323e-06
1.03281421997e-06
9.6290245692e-07
4.5979318903e-07
2.07061306025e-06
6.36827351211e-07
1.4474817802e-06
1.14214881068e-09
5.63634592979e-07
6.12635013685e-07
1.53333962528e-06
3.36582467924e-06
8.47275468147e-07
7.93867949089e-07
3.22067390199e-06
1.28500031848e-06
6.87682182441e-06
7.51800701478e-06
5.6232117724e-07
6.30360976523e-06
1.93398267467e-05
9.31681158514e-06
9.39528352195e-06
1.19264658389e-09
4.20351457962e-06
4.35584397125e-06
8.45295875606e-06
1.85699310622e-05
8.58658177581e-06
8.30322594112e-06
3.4610684289e-06
2.38200367867e-09
2.76452205808e-06
7.14457023262e-06
5.66165426188e-06
7.08130960177e-06
1.48379382734e-05
6.08719615961e-06
3.74077945159e-06
7.37461285682e-06

