# vtk DataFile Version 3.0
File Name: Molecule/sphere_excent/sphere_excent_0-s53.vtk
ASCII
DATASET UNSTRUCTURED_GRID
FIELD FieldData 1
TIME 1 1 double
0.0
POINTS 1101 double
-0.54289376736 0.80726081133 -0.23149308562
-0.65175139904 0.74651885033 -0.13392843306
-0.56807333231 0.82129389048 -0.052039351314
0.40461522341 0.85944223404 -0.31216397882
0.43448263407 0.88847404718 -0.14783784747
0.54874294996 0.78662759066 -0.28295454383
0.39054879546 -0.45727160573 -0.79902368784
0.50736570358 -0.51008379459 -0.69451153278
0.36946502328 -0.59291344881 -0.71551793814
0.86664450169 0.069785647094 -0.49377247691
0.8058193922 0.18670971692 -0.56162786484
0.88030600548 0.16142468154 -0.44566372037
0.88216090202 -0.082872509956 -0.46358284354
0.82815605402 -0.011000545695 -0.56029713154
-0.25353807211 -0.87693667412 -0.40827837586
-0.14848925173 -0.87877005339 -0.45355010033
-0.17359089851 -0.92222213745 -0.3454836607
0.57635599375 -0.10689393431 0.81012576818
0.53689354658 -0.34373766184 0.77039915323
0.67235696316 -0.22999273241 0.70352220535
0.91577780247 0.14282274246 0.37458232045
0.88442522287 0.051975663751 0.46360725164
0.94901561737 0.037659175694 0.31297034025
0.38961803913 -0.45358625054 0.80153226852
0.38927131891 -0.28788650036 0.87489402294
0.50709915161 -0.56823593378 0.64800429344
0.62944936752 0.43303003907 0.64508354664
0.56985014677 0.32906293869 0.75257009268
0.72963434458 0.28303858638 0.62252801657
0.11498060822 -0.26640471816 -0.95695894957
0.11943791807 -0.37594887614 -0.91890454292
0.015098747797 -0.29788485169 -0.95447075367
-0.18939842284 -0.37829044461 -0.90610003471
-0.12871171534 -0.45210266113 -0.88261675835
-0.21534991264 -0.4458463788 -0.86881709099
-0.19761183858 -0.51269304752 -0.83550190926
-0.129241243 -0.61836093664 -0.77520668507
-0.20058013499 -0.58355891705 -0.78691136837
-0.092166639864 -0.54717719555 -0.83190685511
0.038529187441 -0.51668334007 -0.85530894995
0.010856627487 -0.59121274948 -0.80640894175
0.92665547132 -0.002455976326 -0.3758944869
0.83036893606 0.49921423197 0.24621883035
0.87712317705 0.46386268735 0.12453375012
0.8128785491 0.56644946337 0.13575489819
0.88456135988 0.34704953432 -0.31163984537
0.89351797104 0.38194656372 -0.23608490825
0.9256041646 0.30023726821 -0.23045679927
0.84611827135 0.43451285362 -0.30865567923
0.88225924969 0.28812363744 -0.3722832799
0.84089428186 0.36656913161 -0.39811462164
0.84044641256 0.25911456347 -0.47558030486
-0.33857747912 -0.351695925 -0.87274098396
-0.26022437215 -0.31109431386 -0.91406071186
-0.27701687813 -0.40155598521 -0.87292593718
-0.37448677421 -0.2718436718 -0.88599425554
0.0074749090709 -0.37902909517 -0.92534774542
-0.45686244965 0.62879520655 -0.62918418646
-0.35775828362 0.66683554649 -0.65370130539
-0.38553020358 0.58413052559 -0.71424645185
-0.27435719967 0.61616200209 -0.73828941584
-0.26123133302 0.70048171282 -0.66413205862
-0.60413616896 0.037465069443 -0.79598003626
-0.70630818605 -0.043645869941 -0.70653545856
-0.68375885487 0.089195691049 -0.7242358923
-0.76800382137 0.048622939736 -0.63859248161
-0.79700475931 -0.090760365129 -0.59713071585
-0.59559887648 0.13859042525 -0.79123544693
-0.51789426804 0.10646209866 -0.8487624526
-0.15352618694 -0.12925447524 -0.97965037823
-0.12119243294 -0.042147248983 -0.99172025919
-0.052909985185 -0.12163259089 -0.99117332697
-0.28825816512 -0.22250637412 -0.9313442111
-0.18724256754 -0.21996174753 -0.95735704899
-0.2486897409 -0.15036818385 -0.95683550835
-0.20537565649 0.55425345898 -0.80661141872
-0.31412729621 0.52133244276 -0.79343628883
-0.28589048982 0.4120388031 -0.86514097452
-0.37067592144 0.43595391512 -0.82009297609
-0.073811851442 0.55887490511 -0.82595360279
-0.15171632171 0.61978667974 -0.7699676156
-0.3213942349 0.074288457632 -0.94389075041
-0.25144666433 0.15517640114 -0.95534664392
-0.23773978651 0.066184267402 -0.96907711029
-0.36163941026 -0.58127862215 0.72897523642
-0.30471491814 -0.48334532976 0.82069027424
-0.47473278642 -0.42339834571 0.77153640985
0.11414817721 -0.015013953671 0.99333935976
0.047760490328 -0.11082521081 0.99252521992
0.1482154727 -0.10600335896 0.98309713602
0.27080398798 -0.22147940099 0.93655610085
0.15258868039 -0.25708061457 0.95410829782
0.26288479567 -0.35214942694 0.89824765921
-0.15490341187 -0.50478202105 0.84914118052
-0.20783384144 -0.61905384064 0.75733429193
-0.2616340816 -0.35841059685 0.89611130953
-0.44222587347 -0.12318251282 0.88834160566
-0.34953030944 0.0046100160107 0.93679231405
-0.49156036973 0.027994437143 0.87035357952
-0.48800158501 0.21694965661 0.84537732601
-0.38701936603 0.12619042397 0.91337841749
-0.60509324074 0.10508746654 0.78917485476
-0.33443549275 0.26737266779 0.90368640423
-0.43296822906 0.40306302905 0.80624520779
-0.25931498408 0.40991261601 0.87445610762
-0.27956810594 0.12607069314 0.95177209377
-0.62275308371 0.30214515328 0.72159725428
-0.62229591608 -0.11147405207 0.77477097511
0.24205830693 -0.4935118556 0.83536058664
0.3052507937 -0.63177895546 0.712449193
0.097670212388 -0.575088799 0.81187909842
0.1605399549 -0.41418623924 0.89564663172
0.43157535791 0.052516479045 -0.90051329136
0.51735091209 0.10296687484 -0.84957689047
0.50216406584 -0.044234473258 -0.86364305019
0.25175791979 -0.44461381435 -0.85877168179
0.14427602291 -0.46808049083 -0.87159401178
0.22511819005 -0.38020318747 -0.89657080173
0.28009599447 -0.53470122814 -0.79714655876
0.61199116707 0.10961201787 -0.78321248293
0.58722060919 0.21069389582 -0.78153723478
0.68227857351 0.154699862 -0.71451896429
0.22606654465 -0.62171685696 -0.74986451864
-0.12374930084 -0.751999259 -0.64744448662
-0.13468578458 -0.68642348051 -0.71461594105
-0.058026794344 -0.70166003704 -0.71013683081
0.047010049224 -0.44698557258 -0.8931748867
0.11854530126 -0.60984683037 -0.78317338228
0.12120088935 -0.68304353952 -0.72026020288
-0.023644795641 -0.79924869537 -0.60051947832
-0.15179672837 -0.81350231171 -0.56139087677
0.36963418126 0.49292078614 -0.78764152527
0.37395092845 0.35983270407 -0.85479515791
0.29908373952 0.43743336201 -0.84805178642
0.27531507611 0.32875165343 -0.9033664465
-0.23769101501 -0.76322788 -0.6008207202
-0.21272528172 -0.70278936625 -0.67885249853
-0.3059220016 -0.69558227062 -0.65005940199
-0.3523376286 -0.75294017792 -0.5558154583
-0.26739177108 -0.6359552145 -0.72391873598
-0.39988321066 -0.67249703407 -0.62277054787
-0.36002215743 -0.61499947309 -0.70154845715
-0.47808161378 -0.59436005354 -0.64666867256
-0.48515170813 -0.68357229233 -0.5453286767
-0.29071936011 -0.56204295158 -0.77432757616
-0.38545837998 -0.52018123865 -0.76211076975
-0.2503027916 -0.8245074749 -0.50747054815
-0.18996857107 -0.64617067575 -0.73916971684
-0.62865883112 0.57561987638 0.52288013697
-0.56392049789 0.48319163918 0.66967409849
-0.50452810526 0.6337736249 0.58622086048
-0.40838757157 0.5892162919 0.69715285301
-0.54165482521 0.58713752031 -0.60105633736
-0.51206994057 0.66165459156 -0.54765534401
-0.52300363779 0.18959747255 -0.83093309402
-0.57938998938 0.22425052524 -0.78360778093
-0.5149359107 0.27140876651 -0.81312060356
-0.59867930412 0.3054792285 -0.74044549465
0.7811537981 0.081174306571 0.61902850866
0.6876424551 -0.024309061468 0.72561866045
0.76574546099 -0.11975199729 0.63188368082
0.6592490077 0.16386972368 0.73372203112
-0.90427541733 0.10643874854 0.41345345974
-0.7878947258 0.23763498664 0.56799775362
-0.86773985624 0.29138711095 0.40259292722
-0.7354618907 0.41144427657 0.53826183081
-0.62928819656 0.37973973155 -0.67808687687
-0.69145840406 0.28302660584 -0.66467773914
-0.65494167805 0.20241196454 -0.72807329893
-0.41829055548 0.50054526329 -0.75794893503
-0.48694869876 0.54776161909 -0.68033581972
-0.50538998842 0.47158896923 -0.72261464596
-0.57607519627 0.48158684373 -0.66043478251
-0.46461126208 0.4257337153 -0.77645134926
-0.42680776119 0.37621697783 -0.82237797976
-0.50822353363 0.35148605704 -0.78622633219
-0.55520451069 0.40077126026 -0.72878301144
-0.45139431953 0.31539106369 -0.83474761248
-0.42980712652 0.25803992152 -0.86513698101
-0.64761847258 0.44401979446 -0.61921423674
-0.35888212919 0.33075028658 -0.87281632423
-0.93157970905 -0.35588037968 -0.07407464087
-0.89281368256 -0.43699809909 0.109203659
-0.96224892139 -0.23619224131 0.13533596694
0.70791471004 0.3468388319 -0.61527085304
0.64244866371 0.42524698377 -0.63749754429
0.70674991608 0.41975021362 -0.5688931942
0.18473395705 0.31010758877 -0.93251615763
0.22008657455 0.41342481971 -0.88349509239
0.23077470064 0.20197582245 -0.95180112123
0.33753991127 0.23048499227 -0.91263568401
0.2685906291 -0.0026111465413 -0.96322363615
0.32071664929 0.10241812468 -0.94166070223
0.38912385702 -0.064879059792 -0.91886031628
0.42284023762 0.16030795872 -0.89191120863
-0.1268530488 0.64171290398 0.75638240576
0.034236349165 0.71697819233 0.69625329971
-0.12848997116 0.76468873024 0.63144516945
0.0176920183 0.58457106352 0.81117063761
0.014204558916 0.84133887291 0.54032719135
0.18935190141 0.77193450928 0.60666292906
0.19871948659 0.6127679348 0.76478648186
-0.28075250983 0.54084700346 0.79285317659
-0.2578125298 0.66652292013 0.69956827164
-0.13476239145 0.51571547985 0.84608924389
0.076808705926 -0.87905722857 -0.47037628293
0.1167967841 -0.81648820639 -0.56542384624
0.19298739731 -0.85438513756 -0.48234549165
0.24566596746 -0.80461037159 -0.54058086872
0.3257356286 -0.82397139072 -0.46368163824
0.15564501286 -0.74300217628 -0.65088486671
0.067045085132 -0.75466489792 -0.65267395973
-0.7353386879 0.16496017575 -0.65731805563
-0.8224594593 0.15026257932 -0.54859691858
0.40149068832 0.56442630291 -0.72112429142
0.46777269244 0.49627518654 -0.73135966063
0.19757001102 0.089592769742 -0.97618407011
0.12375667691 0.16539151967 -0.97842562199
0.036443974823 0.40601956844 -0.91312617064
0.14005231857 0.3914873898 -0.90937662125
0.099494211376 0.32301869988 -0.94115418196
0.44076216221 0.42638149858 -0.78988730907
0.46825915575 0.34620422125 -0.81293678284
0.51636439562 0.41275495291 -0.75032800436
0.43183919787 0.26473870873 -0.86222934723
[...]
CELL_DATA 2198
SCALARS cell_data_0 double
LOOKUP_TABLE default
7.31006486595e-07
4.05930455542e-06
3.18028968789e-08
1.63260011346e-07
1.63613022343e-07
4.11392642494e-08
9.6238640702e-06
7.93375995976e-08
8.60595037526e-06
1.02422278419e-05
5.14560473883e-06
4.10271712954e-08
2.46464029728e-06
2.5833010061e-06
5.35735886661e-07
2.30879061031e-06
1.26905261747e-06
5.33689571924e-07
1.53410009877e-07
1.19480627664e-06
3.22235194408e-06
9.9316754509e-08
9.62887164247e-08
8.94577896074e-08
2.01703537417e-06
2.21962467266e-06
6.11143439348e-06
1.47360482098e-07
4.29492335661e-08
1.74024028608e-06
3.56297867725e-06
1.39555147707e-07
9.28679384534e-08
1.7222910431e-06
5.49861035824e-08
2.45830566411e-08
4.01458518072e-06
2.80242858899e-07
6.02414461007e-06
7.37148207683e-06
7.69332207163e-06
1.06776550066e-05
3.95700724688e-06
4.44110828316e-06
6.06240476608e-06
4.68673042413e-06
4.66800860631e-06
3.96797967244e-06
4.86498679551e-06
4.58512132217e-06
5.79656986693e-06
3.89636620695e-06
3.39770036529e-06
7.80617653878e-06
6.2847061405e-06
6.60520150869e-06
6.30285412019e-06
1.01079590873e-05
5.42900598675e-06
8.4673771416e-06
8.87388269998e-06
3.68597842724e-06
5.2624633896e-06
9.9448598134e-07
3.42104762665e-07
1.86511831722e-07
7.90514248583e-08
2.05566484873e-07
1.14055950445e-07
4.4566566431e-07
3.90734065341e-06
2.11314607542e-07
3.3975128787e-06
6.64837978796e-06
5.94907154513e-08
5.55642564594e-07
6.07016557488e-06
3.44440129155e-07
2.48950805114e-07
2.79457953669e-07
1.11621126228e-07
2.02786012857e-07
1.18340472847e-07
2.63084792632e-07
3.50036655497e-08
3.3823430525e-07
1.22980255949e-07
2.98620461899e-07
3.96045008693e-07
2.52795445524e-07
6.46430890064e-06
4.73410578038e-06
1.70817768457e-07
1.2924656839e-07
7.98369454402e-08
3.5823887817e-07
4.72552806914e-07
8.15747678719e-06
7.98546635736e-06
2.57809084417e-08
2.50764772118e-06
3.75047869894e-08
7.79504040724e-07
3.69090331866e-07
1.06677378966e-06
4.66719283981e-06
5.98606358631e-06
4.09581622659e-06
6.58204903306e-06
7.54238624607e-06
9.6234088415e-06
3.66753732761e-06
6.49047057472e-06
7.45792768762e-06
8.40373135153e-06
9.3087782622e-06
1.32197022651e-06
2.89381727165e-07
6.94129533124e-08
3.41966354553e-07
5.83516267893e-07
5.52930578426e-07
1.85738714815e-07
4.11397970734e-07
5.47859935128e-07
2.00689594868e-07
3.30584494447e-07
2.07244453712e-07
1.20408717698e-08
2.03591444482e-07
7.45329133618e-08
1.04930254669e-07
1.61848086745e-07
4.82193710328e-08
1.61658636911e-07
5.20687781848e-07
2.60320645017e-06
6.01472176245e-07
2.27243466008e-07
5.48188339075e-07
3.02825195036e-07
3.98999430683e-07
2.26423049674e-06
1.24890458552e-07
4.27096177053e-08
1.04846172901e-09
1.57870038335e-06
4.95545276646e-07
1.43282198819e-06
2.94899206693e-06
1.74641120126e-06
2.05201030915e-06
3.63694351345e-06
2.07669766381e-06
1.72430120607e-06
5.39786290421e-06
5.2396470096e-06
4.87911420766e-06
5.07378713524e-06
6.73609932982e-06
6.14511462678e-06
3.18586763234e-06
4.77702945165e-06
4.35185337521e-06
4.69608945114e-06
5.37153486621e-06
7.97285502126e-06
8.96310886073e-08
1.38352698294e-08
5.7155235791e-08
4.9492557035e-06
1.17489094783e-07
1.81104184759e-07
1.13855295816e-07
1.14865699916e-07
1.13373140822e-07
6.41319580837e-08
1.99992126342e-08
2.11447523939e-08
7.21010365894e-07
1.15165210715e-06
2.70107457686e-06
1.24398440838e-06
2.08782221358e-06
1.30431469397e-07
3.9856569834e-07
5.41206930886e-07
4.4850616248e-07
3.758339408e-07
2.39402143968e-07
1.91619383153e-07
1.13238147419e-07
2.05758235973e-07
2.11265611681e-07
4.9341683861e-07
1.83753007378e-07
2.57041548089e-07
7.91215372059e-08
2.37890280064e-07
1.56515142509e-07
7.32143686406e-08
5.11185533294e-07
5.82451036738e-07
6.09310014046e-07
1.44700832888e-06
7.5101763743e-07
1.37641712111e-06
1.73865623079e-06
3.48110363569e-06
2.15490560285e-06
1.56794277575e-06
3.39046968308e-06
4.25948916386e-06
1.91099452175e-06
8.364528277e-07
8.98030202643e-07
4.41261106796e-07
1.47295646778e-07
4.57930391063e-07
1.42378504288e-07
2.38234004424e-07
2.84443401364e-06
4.7117086599e-06
4.49641297942e-07
4.93506278854e-06
2.25267303024e-06
4.72512733978e-06
4.48524802752e-06
1.46888611889e-05
8.44382018752e-08
1.95269891102e-07
3.35062030343e-06
7.07809332346e-06
2.01360646335e-05
1.16556784303e-05
1.71121044179e-05
2.25068095235e-05
5.26067778987e-06
1.07233722394e-07
8.09574154776e-06
1.27604193533e-06
1.71998131572e-06
3.6606546789e-06
4.99985493095e-06
1.91662693183e-06
9.88463019533e-06
9.83427712166e-08
9.91045637546e-07
9.01874316327e-06
2.93674127086e-07
2.42372755232e-07
3.55945647261e-07
2.44662002598e-07
2.3249683191e-07
3.71152546511e-07
3.90404478997e-07
2.96435468915e-07
8.57323018197e-09
4.82365746793e-08
1.48151554736e-06
1.65947128535e-06
1.05518401081e-06
1.01927491559e-06
5.03807898675e-07
1.8074793019e-06
5.19835381966e-06
6.38720803021e-06
6.09403083352e-06
5.76405958075e-06
2.98697884073e-05
2.67783175466e-05
3.23643348591e-05
3.92302758881e-05
3.76545891266e-05
3.73620378479e-05
9.85832456002e-06
5.50149832246e-08
7.6271843041e-08
2.41788897316e-07
2.59548135575e-07
2.40191212597e-06
4.56646359659e-06
3.17108750977e-06
2.62363886152e-05
1.97682427737e-05
2.10881778963e-05
3.04167843325e-07
2.51896307713e-05
9.36134225746e-07
1.87689312206e-05
1.75706948635e-05
4.14377021988e-07
9.86228653434e-06
9.86229040344e-06
1.03569846298e-06
1.11100097037e-06
2.96058394023e-06
1.05791145779e-07
1.2245734877e-05
5.7811968748e-07
6.22139430566e-07
4.65117419094e-08
9.8465954897e-08
1.90001282928e-08
1.42254211216e-06
7.75233711476e-07
1.43427515029e-06
7.69107839486e-07
1.5127361658e-06
2.95531257417e-07
1.46908083734e-06
3.23839000477e-07
1.85315968347e-06
1.60612572014e-05
1.98256270491e-05
2.2561183468e-06
2.01494841382e-06
2.73424610751e-05
2.39749365669e-05
1.49365095101e-06
9.00648466629e-06
8.58433957469e-06
1.17370209747e-05
1.18474415048e-07
1.9878429276e-07
1.19530276745e-07
2.32658049816e-07
9.35953099369e-07
4.65488762115e-07
9.37678510111e-07
4.44843912082e-06
5.99378167723e-06
3.41968383917e-06
3.50085316717e-06
3.2245398773e-06
3.92087446772e-06
4.95744522659e-06
4.93667751251e-06
4.16437304322e-06
4.40011350728e-07
2.43686865935e-07
3.29310746045e-07
8.14373499524e-08
5.63407678161e-07
3.84284582162e-07
3.48187748382e-06
3.52459383727e-06
3.85481523059e-06
7.85526266694e-06
1.04348077477e-06
1.38829873499e-07
2.18027478776e-07
1.37614860173e-07
5.66448933618e-08
1.86808186968e-07
4.44055136996e-07
9.17422412498e-08
1.4501904376e-06
2.15214867717e-07
6.59535624375e-07
3.88178684584e-07
4.28435403855e-07
2.27289240843e-07
4.58555615616e-07
2.47689558237e-06
1.87597489928e-07
2.5113957828e-07
4.49466414449e-07
6.98432302028e-07
3.68012344048e-07
4.78349526545e-07
1.57469646616e-06
1.13541788291e-06
6.88863985159e-07
3.80249405816e-07
8.97666588556e-07
2.4268112203e-07
1.41479892029e-06
1.49021190122e-06
2.64905302595e-07
1.56388758483e-06
4.53426764016e-06
3.33662243975e-06
6.46843532585e-06
6.25428053868e-06
3.11255266967e-06
1.59547568272e-07
6.64153647618e-07
4.45380451049e-09
9.25705625915e-09
8.70454461143e-09
1.30178088926e-08
6.47327929013e-09
3.01849902664e-06
9.1550764457e-09
6.04777035101e-11
2.87279859766e-09
2.06278862319e-06
5.60056683375e-09
4.84037962832e-10
1.76143147873e-09
1.33804252132e-08
5.05501764411e-09
3.44293955737e-08
2.66826936195e-06
2.6629269462e-06
8.3116428824e-08
3.61570046607e-08
2.07718158207e-08
6.57450519399e-06
5.39424633836e-06
3.78076079832e-06
5.602111498e-06
3.26341536745e-06
3.57484204697e-06
4.49075207481e-06
2.69795283956e-06
4.64715317191e-07
1.72025710838e-07
1.85923934206e-06
1.52448696993e-06
4.04717181015e-06
5.887693256e-08
1.42195881094e-06
4.6329465698e-06
1.31622252218e-06
1.93835578488e-07
1.30399399598e-07
1.37169371487e-07
2.55277419331e-07
3.1423255221e-07
2.05936727157e-06
1.85593929276e-07
4.49200151998e-07
4.81894552075e-07
4.32220689242e-07
9.66988190656e-07
6.04219270611e-06
5.83879731286e-07
8.27567038493e-07
1.28903663876e-07
2.62422353503e-07
9.25740701171e-07
1.62017344662e-06
8.21003133144e-08
1.02462684976e-06
2.30433043393e-07
2.08879988148e-06
1.30026514802e-07
1.59279888364e-06
3.86133014692e-06
3.87921720687e-06
1.49568329062e-05
1.84040819381e-05
2.42914666428e-07
3.31541254833e-07
2.14952412228e-07
3.03859092618e-07
1.89991054727e-07
2.05634734823e-07
1.63774339154e-07
2.27295677636e-07
6.12536677521e-06
1.37305703548e-07
2.09960802876e-07
2.41309894056e-07
1.87505106045e-07
2.45578661889e-06
2.06184986071e-07
2.31023653599e-07
1.99199342552e-07
3.17039602723e-06
2.65217776873e-06
1.26205354213e-07
1.1715316295e-07
1.67769638991e-07
1.92752554761e-06
1.61874701171e-06
6.89790809343e-07
1.44875513292e-06
5.35625925968e-07
1.15540483716e-07
1.24290072958e-07
5.60067231616e-07
1.50327581425e-07
1.77651434004e-06
3.10692459108e-08
7.54383012262e-09
6.57771608194e-08
9.14132047871e-08
5.46510633063e-08
8.91009480082e-09
7.68323718427e-08
4.67462243959e-09
1.84655908479e-06
2.80373638934e-08
8.13283963612e-09
6.68069251442e-07
6.35839932111e-08
2.26028446481e-06
4.51462077047e-08
9.49676040218e-07
5.34177092555e-06
3.3056071909e-06
3.85753859547e-06
5.00752336142e-06
3.11064446856e-06
1.47548965114e-06
3.87440118582e-08
1.90294844999e-06
9.32234014648e-07
1.69388567479e-06
1.60468341757e-10
1.51070410586e-06
7.19388011544e-07
1.69670368941e-06
6.76335152006e-06
4.45478982711e-06
1.60479773155e-06
1.42174161719e-08
2.34507329757e-06
1.09111678304e-06
8.26472823088e-06
2.47613637893e-06
1.56181003174e-06
3.18079176297e-06
1.27528404761e-07
1.84706829087e-07
1.55087685644e-07
3.17852463894e-06
3.72102113308e-06
2.11233862399e-07
8.76735914322e-06
1.96616200206e-06
7.20650009085e-08
3.46451244483e-06
4.11759454047e-06
3.81916856954e-06
5.52642375947e-06
1.49425668091e-06
4.77733793541e-07
3.99150193901e-07
4.21658941035e-07
6.41903567031e-07
2.75158045316e-07
2.0398415405e-08
2.49146359663e-08
1.94379892764e-06
1.70507384616e-07
2.20322166492e-07
2.39538282543e-07
6.94641288703e-07
6.99885316691e-08
9.02295049247e-08
3.32282571404e-07
3.17025985761e-06
3.1641593637e-06
2.4056815372e-06
2.06142070683e-06
2.82978569071e-06
6.77995356366e-06
6.45897439024e-07
4.29332235952e-07
8.18603627928e-06
3.80080150325e-06
3.58738079499e-06
6.73816416905e-07
6.39534711976e-07
3.8991060708e-07
1.734577138e-07
1.04216843629e-07
6.09740646532e-07
4.81522942734e-07
1.67716439197e-07
9.99111551999e-07
8.74546845388e-08
9.53494145047e-08
8.66257136086e-08
2.31348720154e-06
5.66809565984e-06
7.28966640364e-08
2.17044443913e-06
1.4149933625e-07
9.36149967038e-08
1.04505091272e-06
5.71516829399e-08
1.1038482426e-06
8.83205975111e-08
3.45335026049e-08
4.42049659546e-08
1.39144730514e-07
1.88524683494e-08
4.33061591983e-08
1.27317353874e-06
3.20076130386e-06
2.90083967629e-06
1.49578684372e-06
2.35652481964e-07
9.8815962635e-07
2.46855399549e-07
8.90231812942e-07
1.99534421498e-06
2.02362526929e-06
7.37225361652e-06
2.53836310802e-07
3.68306804609e-07
3.11363481838e-07
1.34760613353e-06
1.69004416239e-06
4.29435116508e-07
2.72110570558e-07
3.31944263053e-07
7.90483585958e-07
4.2268235236e-07
6.76457784149e-06
7.37218872308e-06
2.61683682867e-07
4.00682723239e-07
7.55073027669e-06
2.22335374819e-06
1.16788062711e-06
9.80271229871e-09
2.51825861346e-06
9.64594303753e-07
1.13449256914e-08
1.39110128229e-07
2.40983045736e-07
1.11766856605e-07
7.74207088309e-08
1.74785143923e-06
2.63233321719e-07
2.65172378223e-07
1.20189387933e-06
8.34501819241e-07
8.55625082148e-07
9.79962208617e-07
8.43228291092e-07
8.40933855917e-07
1.4137699344e-07
2.19549773856e-07
2.6865625095e-07
2.53556619932e-07
4.04340795179e-07
3.99515564547e-07
4.63494597567e-07
3.33635948931e-07
5.5840854511e-07
8.22096004237e-07
1.27839509863e-06
7.81579763663e-07
2.90704121539e-07
2.66977708901e-07
4.02817354545e-07
7.27014975374e-07
1.3881397588e-08
6.33557780634e-08
2.48366655462e-08
1.89686012056e-08
1.44917872406e-08
2.74410749145e-09
3.67813370631e-08
1.40234783529e-07
4.61216704932e-08
5.06252996948e-06
8.57326651791e-08
9.56374216826e-07
6.04828666536e-07
3.8201155781e-07
4.28353270874e-07
5.6966017039e-08
1.75266732211e-06
4.0439294382e-07
1.82286333897e-07
1.67205411447e-07
6.31124674412e-07
1.87888315601e-06
1.50026184441e-06
2.23857011456e-07
5.97817015352e-08
9.44580716101e-07
9.8965534752e-07
1.86578109025e-06
7.82279325752e-08
1.92949311659e-07
1.55256248114e-07
4.72161723836e-07
2.65620499442e-07
3.31594842652e-07
4.58718135269e-07
5.19612134815e-07
6.06182728365e-06
7.55798070195e-07
4.53410656685e-06
5.19173495487e-08
5.44290575584e-07
5.67090609737e-07
6.05038649995e-07
1.4842144922e-06
2.27087689162e-06
1.46552334365e-06
1.18673973092e-06
9.76595670397e-07
9.76218423458e-07
2.56429942023e-07
8.62361209508e-07
2.29139253932e-06
2.63251607654e-06
1.76816687898e-07
1.52654111627e-07
1.6443702348e-06
2.1012728288e-06
3.49120868366e-06
3.06393118792e-06
4.48380489732e-07
3.2444492545e-07
5.52487533438e-07
3.72103394907e-07
4.43063415338e-07
2.71440702177e-07
1.87079811913e-06
5.49102671195e-07
3.63532439617e-07
3.99157939932e-07
6.30440362241e-07
3.83010556649e-06
1.87193818406e-06
3.66619926474e-07
4.24048807948e-06
5.14894839547e-07
7.74483963129e-07
3.67376292763e-07
7.05234316541e-07
3.44973732148e-07
9.82059029689e-08
2.4757619864e-07
4.54934646647e-08
4.53057978107e-08
4.48424116101e-08
1.91167650027e-08
1.84075783948e-06
1.26907489271e-07
8.97170230957e-07
3.7793643341e-07
4.18075929813e-07
1.05258096989e-07
7.09760877694e-07
4.98454758704e-08
3.98758130301e-06
5.41815977084e-06
2.79790647519e-06
3.25898334402e-06
3.05405384896e-06
2.60173758568e-06
5.54883649078e-08
1.39839424809e-07
7.79148022682e-08
8.09987157983e-07
2.68896135756e-09
3.22253004985e-07
4.19351372478e-06
5.7803760936e-08
7.82386320465e-07
4.61791725697e-06
2.17933984575e-07
1.2392006501e-06
9.43692391558e-07
1.14277442803e-07
2.8013338294e-06
2.83536293074e-06
9.38226037344e-08
1.14020842548e-07
1.58426244954e-07
1.13367721688e-07
1.02241085607e-07
1.14480841914e-07
1.74783107567e-07
1.40923092366e-06
1.23636218374e-06
3.68384597128e-07
1.5901310748e-06
4.3701101895e-06
5.71355000429e-07
6.3270831476e-06
3.01254257605e-07
2.3302362325e-07
2.2735498605e-07
3.46447758762e-08
2.00655346438e-07
1.19754550954e-07
2.81971517075e-06
1.9852620069e-07
1.076036489e-07
4.29285837408e-07
1.21081034915e-06
5.84910440843e-07
2.58831909717e-07
4.30529379342e-07
7.98020010422e-06
2.04986428376e-07
1.45281493468e-08
3.09643693815e-07
1.28337444931e-06
1.21375993172e-06
4.67951758638e-07
1.35473707396e-05
8.37005744503e-07
9.14197466473e-06
1.03753461155e-06
9.27426658461e-07
9.32910957552e-07
1.08251951924e-06
9.13560858492e-07
6.46656979561e-07
4.97176088107e-07
1.18552210911e-06
1.1521717829e-06
1.06744858113e-06
1.47362856721e-07
7.99088835543e-07
2.17028269995e-07
3.50061156411e-07
8.73766027884e-07
6.67378376962e-07
1.25748996558e-05
1.96806837455e-07
5.99798332027e-07
1.32824407093e-05
2.51402486337e-07
6.78722956362e-07
1.49639948326e-05
2.78919707946e-07
1.01487135516e-07
7.88061634491e-06
8.40313429992e-06
2.75263100632e-07
1.11057016125e-05
9.35435652774e-06
8.62994074488e-06
8.26332255323e-06
7.5652652599e-06
7.91287772912e-06
5.504186642e-07
5.76830121974e-07
3.99279140188e-07
1.00663616854e-06
9.96919353226e-07
8.19250630183e-07
1.41527477801e-06
1.31080670647e-06
8.72589490736e-07
7.61936065254e-07
4.88519424253e-07
7.71354197677e-07
8.62529666058e-07
9.37069525782e-07
1.01809144731e-06
6.76364151082e-07
1.11524833376e-06
7.99814314805e-07
8.76619703795e-07
2.53887552501e-07
5.94887328785e-08
1.22712443671e-07
6.5488682679e-06
3.03637132333e-07
3.0878089029e-07
1.65092420917e-06
1.60058270746e-06
2.7043226608e-07
1.02430746387e-06
8.19569107726e-07
1.30282177692e-07
7.20221069788e-08
3.93742720907e-07
4.30161630773e-09
9.80558635176e-09
2.52105186101e-09
8.06429085275e-08
1.17337587554e-07
1.05143013798e-05
1.08454096236e-06
1.87551641548e-07
1.2055268098e-07
1.3597758218e-07
7.69636475517e-07
1.65353095026e-06
1.12964848805e-06
3.69587575761e-07
9.39068131855e-07
2.38409855768e-07
3.00837148212e-07
8.78351885838e-07
2.42494697382e-07
1.59867883543e-07
1.4517314949e-07
1.24214620967e-07
1.039643865e-07
1.10675953984e-07
1.03793363964e-07
2.82403764449e-08
2.37117294484e-06
5.32672156688e-08
2.30938120493e-06
2.88943794478e-06
3.96179183382e-08
2.48536537045e-06
3.82530893083e-06
6.08192622828e-08
7.5288038985e-08
1.2836269243e-06
2.38178292232e-07
3.79066481086e-07
1.66174199666e-07
1.22194122456e-06
1.73299718532e-07
1.29985770841e-07
2.50343870493e-06
1.71426375396e-08
1.11511352614e-06
7.23989283439e-08
8.93438435671e-08
2.7395020006e-07
6.24021303704e-07
2.03668967742e-06
9.83977516421e-07
1.87022101032e-06
1.17770392459e-06
2.74598510822e-08
1.38005393147e-06
1.38558387441e-06
6.3086848772e-07
6.10259877035e-07
9.09465839438e-07
9.38123153421e-08
6.28998345195e-07
1.35493892219e-07
1.56078860557e-06
3.31114396935e-06
6.88852807752e-07
2.20525103298e-06
9.31864604181e-06
1.10207307918e-06
1.70287528148e-06
1.73297849519e-06
8.21756349985e-06
6.43873940839e-07
1.1269635453e-06
2.06628730403e-06
5.2461859289e-06
1.92856351036e-06
3.53094024806e-07
2.33522643174e-07
2.18350250165e-06
1.17835901018e-06
1.98833990513e-06
1.98354294943e-07
3.96157682447e-07
2.4259913948e-07
4.26368810004e-06
2.89865076023e-06
2.22616475061e-07
1.54927274869e-06
1.43931159103e-06
2.22155874622e-06
2.84301132488e-06
5.54425794057e-07
4.17630607616e-06
5.89807232531e-06
1.00698579104e-05
8.22375909788e-06
4.2438377251e-06
3.37125709849e-06
3.03247735719e-06
1.70759177772e-06
8.3619137718e-07
1.15838548597e-06
3.30506084652e-07
1.0155016442e-06
4.6408376618e-06
3.71152816602e-06
5.3221164027e-06
4.79082292914e-06
3.99957687345e-06
2.85449059654e-06
2.99005771643e-06
3.06876914714e-06
2.71681276983e-06
3.30118023013e-06
3.94264174727e-06
3.70028296127e-06
4.89210723353e-06
5.64684043143e-06
1.94067932027e-06
4.37097960882e-06
4.35527316531e-06
8.16859487218e-07
7.98498565236e-07
1.13137769301e-06
1.15797775589e-06
1.8916212461e-06
1.27576458619e-06
1.47150283962e-06
2.28789109434e-06
1.72144114081e-06
8.39853722962e-06
1.29417217351e-06
5.41044774779e-08
1.40192494003e-07
4.14318815131e-08
1.15368073385e-07
1.15360284605e-07
1.21671593265e-07
1.32157076221e-05
3.90278573312e-06
2.93649123848e-07
2.44038190975e-07
8.13458599625e-08
1.3763648225e-07
9.36277915262e-06
3.13925307295e-05
7.82325136529e-08
6.63367604434e-08
1.86583475084e-07
3.84846094441e-07
7.98333965785e-07
8.22736080153e-08
3.93021983119e-07
3.64687809116e-07
9.96482991378e-08
5.54900315449e-07
2.39442630912e-07
7.02901118511e-07
9.5430421564e-07
4.15881260383e-07
1.54756906097e-07
6.19787903816e-07
8.92340243427e-07
2.69571429075e-06
1.01384860736e-06
1.06005070553e-07
1.293305125e-07
6.56280058579e-07
5.77126472382e-08
2.16372405191e-08
2.06534729288e-07
1.75670712292e-07
5.01558653645e-07
9.28522002605e-07
8.26994691641e-07
9.07790886746e-07
6.58635090624e-07
9.9632212398e-07
8.36987202814e-07
1.2342128505e-06
9.54680741325e-07
9.41760317179e-07
3.18876680108e-07
3.58796472364e-07
6.39923237143e-07
8.07361505986e-07
9.77254665427e-07
1.25801844459e-06
1.08858181853e-06
1.17755002504e-06
4.8668383869e-07
9.60147482707e-07
8.27312778229e-08
4.36349599327e-06
4.21012415203e-08
9.41583767491e-09
1.72392571257e-08
3.70488025298e-08
3.5422725768e-06
4.10743887633e-06
1.80172878568e-06
1.59549491077e-06
9.83644910728e-08
3.03234584377e-08
2.03775218793e-08
2.16765639143e-08
7.45198639513e-09
4.9722052208e-08
3.44049859073e-08
1.55929820455e-08
4.84602799949e-08
3.95820555018e-08
9.23789258713e-08
7.20625876406e-08
4.65004976995e-08
1.06703254796e-07
6.16523706943e-08
6.15342998889e-08
5.23025921965e-08
1.54561043269e-06
1.37424882396e-06
1.5003942128e-06
1.94338937656e-07
1.69361605002e-06
1.07930414694e-06
1.02391876427e-06
1.93357315936e-06
1.41566854388e-06
1.95647476463e-06
8.52016295e-08
7.70669214734e-08
1.02054454798e-07
1.34963716708e-07
1.2057547535e-06
8.52048237895e-07
6.93517669674e-07
1.54280046531e-06
1.17921825015e-06
3.53004526547e-07
5.98383240866e-06