# vtk DataFile Version 3.0
File Name: Molecule/sphere_excent/sphere_excent_0-s39.vtk
ASCII
DATASET UNSTRUCTURED_GRID
FIELD FieldData 1
TIME 1 1 double
0.0
POINTS 553 double
0.34156480432 -0.65463364124 0.67446279526
0.072015546262 -0.84564197063 0.52588522434
0.48612931371 -0.81056344509 0.32090970874
0.82352054119 -0.54645687342 0.14464980364
0.63196372986 -0.52719980478 0.56750416756
0.47423478961 0.70531743765 0.52681010962
0.43391528726 0.54970371723 0.71372145414
0.66841572523 0.40786278248 0.62175786495
-0.33281317353 0.83108597994 0.44550994039
-0.305703789 0.92702585459 0.21669588983
-0.50598460436 0.81870555878 0.27127930522
0.060409523547 0.94667500257 -0.31314563751
0.26102694869 0.95262598991 -0.1523809135
0.35344099998 0.88103717566 -0.3143633008
0.26660871506 0.91511642933 0.30020949244
0.23434217274 0.77108812332 0.59194761515
0.70032119751 -0.62450408936 -0.34565705061
0.5654066205 -0.64822459221 -0.50993108749
0.67613059282 -0.50085520744 -0.54036605358
0.67977303267 0.61971634626 0.391746521
-0.50030428171 0.81050783396 -0.30329877138
-0.67942762375 0.72054296732 -0.13813845813
-0.55768328905 0.82970869541 -0.00034198211506
-0.47073248029 -0.33845868707 -0.81477248669
-0.5348136425 -0.47803154588 -0.69680261612
-0.62036651373 -0.33722895384 -0.70811402798
0.44873711467 0.87856447697 -0.16397644579
0.56090581417 0.77576202154 -0.28860616684
-0.91410052776 0.12488921732 0.38358175755
-0.86945104599 0.38654571772 0.30761009455
-0.95382225513 0.28598701954 0.08997233212
0.50795245171 0.31097853184 0.80269747972
-0.023026211187 0.36376601458 0.93112850189
0.17180895805 0.36814573407 0.91370493174
0.03347286582 0.53228026628 0.84592461586
0.21545554698 0.58490282297 0.78197538853
0.34381243587 0.40918195248 0.84522348642
0.36430549622 0.1895044893 0.91158521175
0.62992739677 0.15111666918 0.76149451733
0.1872266084 0.16007336974 0.96906012297
0.29553717375 -0.012969702482 0.95521312952
0.099865339696 0.020088626072 0.99478930235
0.51233524084 -0.045142821968 0.8573474884
0.38595956564 -0.4575599432 -0.80103331804
0.52589666843 -0.52768325806 -0.66703236103
0.36496174335 -0.59312659502 -0.71763652563
0.86265718937 0.10312759876 -0.49503141642
0.78319841623 0.17592281103 -0.59630614519
0.84373819828 0.25363975763 -0.47301831841
0.80580300093 0.020526336506 -0.59176117182
0.72380417585 0.059735197574 -0.68739104271
0.73154169321 -0.089274391532 -0.67583042383
0.68214398623 0.16737648845 -0.71180653572
0.88193315268 -0.088146984577 -0.46285429597
0.62005203962 0.090723223984 -0.77932137251
0.65066385269 -0.021176729351 -0.75906002522
0.52961146832 -0.01852285862 -0.84803843498
0.60696810484 -0.1378017962 -0.78267419338
0.1571906805 -0.74207997322 -0.6516161561
0.00041992240585 -0.79011338949 -0.61292082071
0.075399823487 -0.68364351988 -0.72592145205
-0.041201464832 -0.6908288002 -0.72180706263
-0.12020432949 -0.74189507961 -0.65963578224
0.11598762125 -0.58837980032 -0.80022889376
-0.0047556585632 -0.60569709539 -0.79568469524
-0.11074203253 -0.87360036373 -0.47384670377
-0.27350965142 -0.91054737568 -0.31028395891
-0.26712626219 -0.83358794451 -0.48346158862
-0.062577843666 -0.93489050865 -0.34919735789
-0.46479988098 -0.77873945236 -0.42128792405
-0.49047586322 -0.84579205513 -0.20856021345
-0.10864780098 -0.61445045471 -0.78142929077
-0.10669203103 -0.53691959381 -0.83683270216
0.29393342137 -0.70308732986 -0.64751195908
0.21288245916 -0.64713168144 -0.73204874992
0.038452215493 -0.88241410255 -0.46893361211
-0.81220889091 0.20415486395 -0.54648572206
-0.77236652374 0.35783433914 -0.52477151155
-0.70443850756 0.30398795009 -0.64135718346
-0.67435711622 0.43425911665 -0.59722113609
-0.39355883002 0.16703754663 -0.9035808444
-0.47855961323 0.10780643672 -0.87095355988
-0.48803624511 0.1924931705 -0.85132986307
0.52394372225 -0.35299921036 0.77495867014
0.68802565336 -0.26087579131 0.67708426714
0.85572147369 -0.31026428938 0.41412180662
-0.62236994505 -0.14820235968 0.76800662279
-0.62897717953 0.094499468803 0.77164751291
-0.77968531847 -0.0077068815008 0.6260740757
-0.73886919022 0.19963476062 0.64320325851
0.92067271471 0.12297551334 0.37045356631
0.88000679016 -0.0051236678846 0.47465696931
0.9595683217 -0.075190268457 0.27107018232
0.35865965486 -0.39384806156 0.84623211622
0.38498261571 -0.20699891448 0.89939171076
-0.21744734049 -0.46184977889 -0.85988610983
-0.37659364939 -0.50659233332 -0.77559185028
-0.3274769783 -0.39655777812 -0.85759371519
0.24464833736 -0.18541273475 0.95171892643
0.10298781097 -0.22281579673 -0.96934574842
0.098100870848 -0.37357988954 -0.9223870039
-0.026411812752 -0.28128108382 -0.95925426483
-0.16650122404 -0.35917201638 -0.91827535629
-0.028847685084 -0.39467170835 -0.9183729887
-0.10623242706 -0.45146802068 -0.88594019413
0.014921369962 -0.49994972348 -0.86591517925
-0.21567051113 -0.55499982834 -0.80339515209
-0.27365702391 -0.61464655399 -0.73979210854
0.92759561539 0.046189323068 -0.37066337466
0.83540064096 0.48254191875 0.26314160228
0.9023617506 0.4232403338 0.080934971571
0.80998897552 0.57523167133 0.11396933347
0.97920179367 0.043802965432 -0.19765892625
0.94631201029 0.15564498305 -0.28329673409
0.97084462643 0.18662208319 -0.15040770173
0.93294674158 0.26944744587 -0.23877759278
0.89827680588 0.26151683927 -0.35312962532
0.94041079283 0.31120574474 -0.13702856004
0.89037007093 0.34385842085 -0.29831936955
0.89929246902 0.38847646117 -0.20093356073
0.8530356884 0.42946091294 -0.29643821716
0.84710150957 0.35913786292 -0.39168485999
0.9043315053 0.42043691874 -0.073592297733
0.848718822 0.49584743381 -0.18381816149
0.83329284191 0.5516307354 -0.035954333842
0.90176391602 0.164553985 -0.39970034361
0.99289339781 0.1157829687 -0.025694118813
0.95937091112 0.28087085485 -0.025582805276
0.97085291147 0.21563825011 0.10415674001
-0.044284310192 -0.145632267 -0.98834389448
-0.15667402744 -0.23904488981 -0.95826482773
-0.17586277425 -0.13098886609 -0.97553503513
-0.28838947415 -0.29768675566 -0.91005009413
-0.38036760688 -0.23002502322 -0.89546042681
-0.071287602186 0.54593372345 -0.83477216959
-0.12649486959 0.63676732779 -0.76056575775
0.011015483178 0.62527859211 -0.77977502346
-0.03338195011 0.744810462 -0.66642522812
-0.21765236557 0.70953601599 -0.67013198137
0.13327349722 0.68097710609 -0.7200756669
-0.26770272851 0.60803592205 -0.74733841419
0.12628678977 0.8061619997 -0.57801628113
-0.043402884156 0.8582239747 -0.51135897636
0.69365602732 -0.71469867229 -0.088780768216
0.51051127911 -0.85524535179 0.079120695591
0.7934564352 -0.45004352927 -0.40981012583
0.82665240765 -0.53145092726 -0.18426461518
0.55225110054 -0.77148342133 -0.31595730782
0.37680703402 0.5903314352 -0.71376550198
0.27133017778 0.59597551823 -0.7552408576
0.27703610063 0.69229519367 -0.66628068686
0.36498141289 0.49847480655 -0.78628206253
-0.47096902132 0.61690986156 -0.63053053617
-0.35720711946 0.66919213533 -0.65108114481
-0.38562601805 0.57633775473 -0.72049957514
-0.50706231594 0.69123286009 -0.51362222433
-0.63329595327 0.63156431913 -0.44702076912
-0.59245741367 0.56246364117 -0.57675415277
-0.18118801713 0.80494815111 -0.56500965357
-0.22517189384 0.88059067726 -0.41544052958
-0.32441836596 0.79820549488 -0.50542998314
-0.33937841654 0.73630970716 -0.5845605731
-0.58219069242 -0.21404069662 -0.78414452076
-0.4750572443 -0.15280503035 -0.86655282974
-0.5852689147 0.046704739332 -0.80947256088
-0.68288558722 -0.035237938166 -0.72947746515
-0.66512352228 0.099688224494 -0.74005395174
-0.75589412451 0.056559957564 -0.65221720934
-0.79164248705 -0.097319327295 -0.6031910181
-0.57122260332 0.14527608454 -0.80780375004
-0.11389754713 -0.037745222449 -0.99249315262
0.0093338238075 0.0065423762426 -0.99969357252
-0.26846516132 -0.19741633534 -0.94281125069
-0.33845436573 -0.13326609135 -0.93127346039
-0.19150033593 0.5490489006 -0.81351852417
-0.30753549933 0.50684976578 -0.80530101061
-0.27250090241 0.40754020214 -0.87151008844
-0.363132447 0.42498627305 -0.82917636633
-0.32462722063 0.085405908525 -0.94195920229
-0.24075135589 0.17179772258 -0.9550023675
-0.2184547931 0.054475799203 -0.97378373146
-0.43565538526 0.046223580837 -0.89841288328
-0.38674512506 -0.59250074625 0.70657026768
-0.30092322826 -0.4759285152 0.82637470961
-0.47968816757 -0.40059688687 0.78029733896
-0.6131349802 -0.45401731133 0.64565932751
-0.41257816553 -0.11741641909 0.90324103832
-0.24658308923 -0.15559339523 0.95650869608
-0.33726930618 0.0050442172214 0.94136244059
0.031310420483 -0.1270699054 0.99138885736
0.15465973318 -0.10839135945 0.98200172186
0.11406782269 -0.25499540567 0.96017664671
-0.021135766059 -0.23882856965 0.97081387043
-0.010391039774 -0.37709063292 0.92604726553
0.13304574788 -0.39824798703 0.90758800507
0.087170630693 -0.56581109762 0.81957519054
0.24712346494 -0.3208630383 0.91433650255
-0.13232366741 -0.28654378653 0.94885832071
-0.13785603642 -0.47270444036 0.87034809589
-0.25390928984 -0.33741050959 0.90643692017
-0.18939608335 -0.60965949297 0.7693721056
-0.21688170731 0.38007938862 0.89917343855
-0.14914610982 0.25251024961 0.95604276657
-0.49804165959 0.013083647937 0.86702150106
-0.46487864852 0.18842467666 0.86472404003
-0.32138717175 0.14452394843 0.93579161167
-0.30371648073 0.26481857896 0.91513991356
-0.42233225703 0.38486248255 0.8206564188
-0.20231206715 0.12296789885 0.97154313326
-0.060224115849 0.10772895068 0.99229508638
-0.17445325851 -0.016751138493 0.98450911045
-0.039809037 -0.026109546423 0.99887651205
-0.10415559262 -0.14114578068 0.9844866395
-0.59340673685 0.2936116755 0.74939805269
0.22751633823 -0.48559871316 0.84401071072
0.42391508818 0.073199592531 -0.9027351737
0.52558022738 0.1170611307 -0.84266358614
0.14157104492 -0.48953616619 -0.86041373014
0.25420737267 -0.54016834497 -0.80223673582
0.24129724503 -0.42550674081 -0.87217783928
0.58898490667 0.20869907737 -0.78072780371
0.43216714263 -0.66959142685 -0.60399913788
-0.13154903054 -0.67605298758 -0.72500640154
-0.14118558168 -0.80674785376 -0.57381772995
0.36654105783 0.37437728047 -0.85174262524
[...]
CELL_DATA 1102
SCALARS cell_data_0 double
LOOKUP_TABLE default
1.02507044586e-05
1.42425727326e-05
4.72297911183e-06
1.23278286171e-05
7.78005623017e-06
8.23578404223e-06
2.99574836446e-05
6.65743649737e-06
1.51350124235e-06
1.26248788216e-06
1.08611039047e-05
8.82362706441e-06
2.51408935648e-06
1.19822942716e-05
1.03554582209e-05
9.65426807888e-06
8.26949026335e-06
1.01232031337e-05
1.21854915012e-05
1.01553299495e-05
1.34910803204e-05
1.28560630494e-05
1.16342557113e-05
2.31922122796e-05
1.25585113584e-06
1.15923139586e-06
5.43910150721e-07
1.37153030692e-06
9.53033694005e-07
7.57948878342e-07
1.30307611292e-07
4.2452880829e-07
4.22396081358e-07
4.17655453154e-07
2.45737685623e-06
6.00343591013e-08
1.21972502799e-07
6.92322141112e-08
9.11549346786e-08
2.00033770831e-08
1.10431216821e-07
2.03518393122e-07
2.29358671412e-05
7.77198442425e-09
8.490106864e-08
5.11809379073e-09
1.09727077099e-07
2.03168168792e-07
2.88068460109e-07
7.62705968199e-06
2.71150541533e-07
1.66742831943e-05
1.8060731315e-05
8.00903719354e-06
1.48054937572e-05
1.05866141687e-05
1.14822693895e-05
1.67452251169e-05
1.16795965395e-05
5.66277419327e-06
8.12610138055e-06
2.90082423477e-06
7.45528873323e-06
1.16308083943e-05
1.72141023913e-05
5.29844024556e-06
2.37159315741e-05
1.05323078092e-05
1.06453997327e-05
1.85447829207e-05
4.38437693283e-07
3.06112078861e-07
2.24215016538e-07
5.46692402677e-07
2.13345903328e-07
2.65280075952e-07
1.42256201208e-07
2.0164191006e-07
5.3082613059e-06
4.31394882056e-06
8.52754357702e-08
1.72754165604e-07
3.7370814412e-08
3.4959967713e-07
1.55301683591e-06
3.73902911444e-07
3.28596176106e-07
2.79564636999e-07
3.45312848272e-07
2.20141041792e-07
2.79451208224e-07
3.30105963487e-06
3.20954768472e-07
1.16272324234e-07
4.18316563539e-07
4.57804878871e-07
4.49151341597e-06
9.1800065636e-08
2.47233470927e-07
3.37015984333e-07
2.37939234347e-07
2.70769473567e-07
2.34738502763e-07
3.74273082609e-07
6.0060029083e-07
7.26141178992e-07
4.72688946962e-07
9.06478930664e-07
1.19822704631e-06
9.38237665888e-07
5.29878668604e-07
1.99215781524e-07
8.51659390947e-08
5.56865211972e-08
1.8944468018e-07
5.30917890846e-08
1.46377392033e-07
1.71952314325e-07
1.10420377763e-05
6.19605457866e-06
2.13197554175e-07
3.43913283616e-07
4.67859874981e-07
3.64474762727e-06
1.44873503117e-05
1.99506644866e-05
8.99722056851e-06
1.56609389969e-05
2.76789427446e-05
2.33315405996e-05
1.4647927554e-05
2.90275420967e-06
7.22019456351e-05
0.000108074209336
4.7299967246e-05
5.19397147061e-05
6.97919031981e-05
3.15841517201e-05
4.83757457044e-05
5.26050583464e-06
1.94051203442e-05
1.74597799099e-05
1.00331907828e-05
4.72133835384e-05
7.74376334229e-05
2.81340287231e-05
4.00020752469e-05
3.56827720165e-05
4.66414218765e-05
1.30506226774e-05
1.68336159447e-05
1.37175006844e-05
1.00858793741e-05
7.21907708377e-06
1.05832694177e-05
3.08015253205e-05
1.84976087341e-05
2.61961278833e-05
1.68202385494e-05
1.95485518751e-05
4.18528094664e-06
3.8872006744e-06
4.8787013471e-06
2.36343793533e-07
3.27360334856e-06
9.81857157157e-06
2.70393719734e-06
2.12561629116e-05
6.02559022679e-06
6.43879044963e-06
7.12975765632e-06
4.8628100968e-06
4.87644666644e-06
1.43379356057e-05
6.47032031841e-06
1.52556887928e-05
5.56378973645e-06
6.28469197542e-06
1.06830657361e-05
1.27425913289e-05
6.31033744151e-06
5.84464315986e-06
8.22472407822e-06
5.02277110001e-06
5.43142829103e-06
5.25050215715e-06
7.66176107363e-06
5.93326461204e-06
7.23188458955e-06
6.65719368518e-06
5.94504239741e-06
7.88163947315e-06
1.0331245065e-05
8.41041102626e-06
1.34699362865e-05
9.3097045895e-06
1.15015606551e-05
1.24104390699e-05
1.32312266657e-05
9.40626122511e-06
7.87617173892e-06
1.18125444284e-05
1.280154003e-05
7.72652412751e-06
8.35042382077e-06
1.0891474213e-05
9.10630265985e-06
1.03358931356e-05
1.33661414399e-05
1.28287003647e-05
6.11542727919e-06
6.37730504919e-06
5.87353336983e-06
6.23290149257e-06
1.15164084151e-05
1.22037657049e-05
1.10917083491e-05
1.07047104997e-05
1.09197556998e-05
1.17860318051e-05
1.15469233759e-05
7.18593867286e-06
9.12267332895e-06
9.66675599783e-06
9.28180336458e-06
2.34221007995e-06
1.84075149892e-08
8.28701456102e-08
3.96395650256e-07
1.01875031296e-06
5.80579680314e-08
8.52987919855e-08
9.5670422323e-07
2.29343669174e-08
9.72253675598e-08
2.42223419182e-08
2.5154858497e-07
2.90879031307e-08
1.29193335469e-09
4.49049615285e-07
5.85014643948e-08
4.20868410346e-08
6.28336174525e-08
1.62134382436e-07
1.23563250239e-07
1.08577704523e-05
1.15012544529e-05
1.13531020336e-06
2.17955869398e-06
7.15832276199e-07
2.34357230874e-06
7.96531975429e-07
9.50077025981e-07
1.92085667626e-07
9.10711358682e-07
4.09527116876e-07
3.89404283919e-06
4.50223495701e-06
2.08155502052e-08
1.92815093075e-07
4.7582157211e-08
3.13289500219e-08
2.57498686743e-08
9.6120475599e-08
8.52549001929e-07
1.07764394008e-06
1.31291306336e-06
1.73396623137e-07
2.31767824574e-07
1.95400868754e-07
6.80754094714e-06
1.05575300075e-05
5.5298620693e-06
1.32509284977e-05
1.08585246298e-05
1.94602603967e-08
1.70505005972e-08
1.10771111664e-08
9.36739035101e-08
1.70099318282e-08
5.36169986958e-06
6.56037191198e-06
3.646939346e-06
3.71521923077e-06
4.4554268667e-06
4.29826923907e-06
8.17330306717e-06
4.81500003001e-07
1.34033174156e-05
1.10459052574e-05
7.08679181948e-06
5.32769528992e-06
8.26632393179e-06
6.02684352119e-06
5.62137896274e-06
7.66888929328e-06
7.56147807729e-06
5.63069967905e-06
4.09741827314e-06
7.18043504352e-06
3.43796438927e-06
2.98705099895e-06
4.06591255603e-08
2.42439269813e-06
7.05769150837e-06
8.07091855581e-06
4.22784968533e-06
1.08417580146e-05
1.3009897574e-05
6.37256355626e-06
5.02651552944e-06
2.27392062235e-06
1.79261829098e-06
1.04174318181e-06
2.58336878952e-06
9.51979871977e-07
1.16136096746e-07
8.67315432184e-08
8.14933991189e-07
8.87712461696e-07
6.54677053876e-08
1.20955080085e-08
6.12082535559e-08
5.00523739056e-06
7.05849339099e-06
1.9335010194e-06
9.1438634539e-06
2.78342903374e-06
4.54579801742e-06
5.56016782709e-06
3.53860291529e-06
8.4367115978e-06
5.90165970598e-06
8.82533650293e-06
7.84317630237e-06
2.96445390167e-05
1.13214719957e-05
1.27409299717e-08
1.18694369582e-07
5.24056774858e-08
8.96090611216e-08
5.49233708798e-08
4.4236040503e-08
8.20149825985e-08
2.74382400176e-06
7.6058453436e-06
5.70190671501e-06
7.45147850797e-06
8.92505790428e-06
9.37082401385e-06
7.43399283986e-06
7.60182969282e-06
8.82085947528e-06
7.26638077623e-06
4.74190915316e-06
4.73838244526e-06
5.6662727222e-06
7.29379399392e-06
9.11373042758e-06
2.89275253122e-05
6.75268725045e-06
6.70345233135e-06
7.93561805561e-06
9.7369082041e-06
1.4351711108e-06
1.53504468536e-07
9.93008916878e-08
1.01388684951e-07
1.83262803236e-07
1.50272806691e-07
1.18002407634e-07
1.77640830659e-07
1.11288715596e-07
2.34307856535e-08
2.05585220613e-08
6.51928829325e-09
1.03845445873e-05
2.37909622051e-06
6.39521086346e-06
6.820180822e-06
1.08847529547e-05
1.00573490961e-07
7.77095765293e-08
7.87124431554e-08
1.32318111899e-05
8.07875380796e-08
8.53142632886e-08
8.28016350589e-08
1.28590352359e-07
8.36029538574e-07
7.68916509939e-07
7.69245005487e-07
6.56537346202e-07
4.4597965936e-08
6.54818477142e-08
9.19973187459e-08
3.39233185607e-09
8.16076622954e-07
3.87245171591e-08
3.1776549286e-07
4.63678989877e-08
9.7562913308e-07
4.55041676824e-08
2.41877116287e-06
2.98644070966e-08
2.92780416577e-08
6.37225001618e-08
7.27616236164e-09
3.22751418634e-06
2.33265184284e-07
1.08650741806e-07
1.85695158462e-07
1.75913948682e-07
3.37063818756e-07
2.83462484536e-07
2.00711291168e-07
2.29158780643e-07
5.01916456571e-07
6.18378223e-07
3.49557022231e-07
1.20084188492e-06
1.42692917243e-06
1.41573632822e-06
5.39437991287e-06
2.75040330093e-08
1.75272598531e-07
1.18164814636e-06
9.84152610454e-06
5.95229244807e-07
8.88267688182e-07
4.03469595364e-08
3.98631442562e-06
5.32841245595e-06
3.36038061378e-06
1.89890563737e-07
2.13210364857e-07
3.55799013941e-06
3.44645476223e-06
2.25039463412e-07
1.87026950198e-07
2.78039765165e-07
5.25342022344e-06
5.3953596967e-08
1.53324176619e-07
4.31312779593e-06
7.82570142454e-07
1.89265346596e-06
1.45827763165e-06
1.01041082488e-06
1.25290900212e-06
1.78977136574e-06
6.83650952387e-07
1.49706362594e-07
1.00078548905e-07
1.08343698452e-07
2.45795689213e-06
2.78581411959e-07
1.58706325284e-06
4.38905516823e-06
3.21603710374e-07
5.34792008227e-07
3.96921251662e-06
7.01945807607e-07
2.77762985687e-05
8.08043364826e-06
1.12279694604e-05
8.25995110338e-07
6.57492099389e-07
7.65864622226e-07
1.06389889226e-05
4.97668971887e-07
9.97668437446e-07
2.25530112089e-07
1.74917637514e-07
6.34883230056e-07
1.12582378621e-06
4.65839293829e-07
1.21126569874e-06
4.73072502883e-07
4.77087717071e-07
3.22789345701e-06
5.19519465903e-07
4.41289965899e-07
3.66792736382e-07
4.90656924345e-07
8.71074340807e-07
5.27911531829e-07
4.01627439746e-07
6.50658672046e-06
5.7192226531e-06
3.41313843074e-06
3.04028915629e-06
1.3175890854e-06
2.03767556499e-06
9.7676995946e-07
1.91752256613e-06
1.32149518091e-06
1.37996834109e-06
7.96590043045e-07
4.64177516881e-07
1.68084879225e-07
3.11620075408e-06
3.21331559577e-06
7.81462351121e-08
3.0691881451e-07
4.55554590979e-07
1.1820309041e-06
1.18069314354e-06
7.2390226634e-07
6.98232170145e-07
3.90291697865e-07
8.06902327306e-07
3.54078431696e-06
8.25413065751e-07
3.44696038933e-06
1.0214375866e-06
2.83389215209e-06
2.72105541438e-06
1.00703742181e-06
3.70063184818e-07
2.80500511534e-06
1.69725891289e-06
1.67395006639e-06
8.66978042699e-07
4.20989517129e-07
1.4013187515e-06
5.15611771831e-07
3.58674176089e-07
1.53815867825e-06
2.40337555515e-06
2.60549965656e-07
4.0048926176e-06
5.14567517073e-06
1.25630005397e-06
2.64376953668e-07
1.72294931976e-06
1.46459844054e-06
9.8204314685e-08
4.40453335834e-08
4.01646209501e-06
1.45621355171e-06
7.2131126536e-07
5.94329626041e-07
3.62668140315e-06
1.18434341209e-06
2.48248304166e-05
2.10523088789e-07
6.32311626901e-07
1.44867095762e-07
2.97779691154e-07
4.57463800245e-07
6.2311829348e-07
9.56543929131e-07
1.01178965929e-07
9.47304098286e-06
1.36481522089e-05
1.10029951316e-07
2.44807701382e-07
8.38672973804e-06
1.85784804363e-05
3.28165443432e-07
3.35801244081e-07
1.95640481216e-08
2.3901010682e-07
2.451855906e-07
2.13556042056e-08
5.11842062605e-07
1.56410095066e-05
4.10877610003e-07
7.68732456264e-07
1.27511932746e-05
8.18610117532e-06
2.32634368244e-05
1.09348060349e-05
1.26670720516e-05
2.9411244796e-05
9.86683129125e-06
9.00385020577e-07
2.43453539107e-07
9.20030474686e-07
7.99186868143e-07
1.7909357515e-06
2.43865871036e-07
1.01342332276e-06
5.72571832745e-07
1.57620012983e-06
1.39803712385e-05
2.53388434215e-07
1.04483059123e-06
4.50720477136e-07
3.18769055673e-06
1.06004981632e-05
2.83550966935e-06
2.87839376053e-06
1.36742632232e-06
9.98662639948e-07
1.06910787683e-05
3.24948197386e-05
1.42085066866e-06
9.37461033463e-06
4.76079534913e-07
1.90900234698e-06
5.66681331266e-06
1.45348863422e-06
1.81817330848e-06
1.12040864684e-06
2.20047796325e-06
1.11050035997e-06
1.55876142248e-06
1.82669678222e-06
1.72949565752e-06
2.19870639508e-06
2.46012608332e-06
2.45608962826e-06
3.85764090168e-06
2.78170171937e-06
4.1111917799e-06
1.57732820981e-06
1.26629140629e-06
1.08913603529e-06
8.61007656601e-07
6.68982839337e-06
3.34909875575e-06
4.60549549533e-06
4.55428769636e-06
4.22477228806e-07
4.50366396739e-07
2.62429825117e-07
2.80737777096e-07
4.39653847155e-06
9.59506559719e-06
2.4335952843e-06
2.06992130398e-05
3.25138861753e-05
4.53320499782e-05
1.37541640701e-05
9.01831024654e-06
7.37945208976e-06
1.07884246755e-06
5.01380304716e-06
1.06960641527e-05
4.06782866377e-06
3.84416173498e-06
3.57688303494e-06
4.96106393316e-06
1.26177670086e-06
1.69277677553e-07
4.94088519292e-07
1.26533531874e-07
1.27871863406e-07
3.89215645632e-07
5.56979368749e-08
2.48879502639e-07
8.42336102376e-08
8.02631005704e-07
2.20510668248e-06
1.10767391637e-05
1.7831380519e-05
2.34556321047e-05
3.68183780202e-05
5.78684003293e-05
1.45269446545e-05
1.17340987951e-05
5.65024454836e-07
7.71739092284e-07
1.36503434853e-05
4.46079417407e-07
1.40915774994e-05
3.98471915083e-05
6.25028228072e-05
3.03124868919e-05
3.51079625545e-05
1.41962738364e-05
4.29172997072e-06
4.66610455374e-06
5.4025005686e-06
4.95671754843e-06
7.939510853e-07
1.06014438663e-07
1.55604568083e-07
2.82733575067e-09
1.04797787004e-07
1.34033778427e-07
1.09028876943e-05
2.21677611383e-07
6.03366844978e-06
1.53252434562e-05
9.46865497032e-08
6.86703493058e-08
9.66706656901e-07
9.42756134758e-07
1.31187447283e-06
1.56548696464e-06
2.90439190501e-07
5.52572306893e-07
1.0350933557e-06
1.48042702784e-07
1.15736151832e-06
1.47942928264e-06
7.13150778453e-06
1.42668881845e-06
2.02097370284e-06
9.73055534123e-06
6.81191269519e-07
1.70306361271e-07
9.89582702225e-06
6.41111673152e-07
5.76020131446e-07
9.96561735248e-07
8.86181363774e-06
1.35984768187e-06
3.148045363e-06
1.80520260449e-07
3.94575265068e-07
1.9951904932e-07
2.82436291992e-07
6.63017960647e-06
8.92144304972e-06
7.09895359483e-06
4.02444356573e-05
4.20505837384e-07
5.48008312318e-07
1.31875331965e-06
2.13276871907e-06
3.89356899297e-06
2.61596390486e-05
2.47507391359e-06
1.00082513526e-06
3.48568548824e-06
1.54418113704e-06
6.25568032735e-06
4.8062076194e-06
3.41513586559e-06
1.49519977062e-07
1.53206464803e-07
5.32726599131e-08
8.48480455324e-08
8.03155976355e-06
1.64372687655e-06
2.75932874291e-06
9.16364912079e-07
3.3971966078e-05
4.24588275397e-05
6.88780087736e-08
9.7793585543e-07
2.42840365045e-05
3.39965603201e-07
3.90808634031e-05
8.12208543055e-06
6.51445971997e-06
1.47104629982e-06
4.14840900831e-05
4.99062014395e-06
5.13619903937e-06
1.4875746287e-06
2.9049389492e-06
2.08681586385e-06
2.96762770262e-06
4.37937178956e-05
3.31358255403e-06
2.22997196261e-06
1.56008621085e-06
1.14901660824e-06
1.40540457815e-06
1.20520743315e-06
4.97319390428e-06
2.54265831257e-06
2.9452178585e-06
3.01498974312e-06
1.01766273282e-06
7.31047204764e-07
2.11172968624e-05
3.21561553801e-06
2.91233069023e-05
9.15199155221e-07
2.6887266512e-06
2.51439298452e-06
2.86749440315e-06
7.8811551605e-07
1.36037131321e-06
2.90646554513e-06
2.06444412375e-06
5.77575248213e-07
1.03376139191e-06
1.44995315815e-06
2.53782044521e-06
2.1832556741e-06
1.90905912147e-06
1.44812957172e-05
9.28859373628e-07
1.12727048941e-06
1.04944505171e-05
1.0070627108e-05
3.9200086461e-06
2.62363792419e-06
4.24284174312e-06
4.01585247942e-06
5.65841932259e-06
5.63458059946e-06
6.48733602362e-06
6.93857374135e-06
1.04127757912e-06
1.15183070568e-06
9.77320864527e-07
7.13487220591e-07
1.7117304371e-05
2.44338691273e-05
1.12937279124e-05
1.4157688795e-05
4.87145624718e-06
9.14071004528e-06
4.50300621585e-06
3.39451480666e-06
3.30817944068e-06
2.253100431e-08
7.2563931295e-07
8.29551886616e-09
6.0499443321e-09
5.3669565899e-09
6.6046967675e-09
6.93332816266e-06
2.32186766468e-07
8.37248382025e-06
2.91253521235e-06
7.8852789165e-06
8.02437506825e-06
4.41163403863e-06
3.54891044183e-06
3.4313382318e-06
5.00933515695e-06
4.69338739973e-06
3.15529225742e-06
3.60530670571e-06
3.37254879378e-06
1.98445245534e-07
1.66084795906e-06
1.94575389137e-06
1.4663447041e-05
4.2980420432e-06
5.51355086823e-06
4.90186794476e-06
5.11180270722e-06
4.13527642497e-07
1.11562647707e-06
8.0366801091e-07
1.5809009768e-06
1.71210965302e-07
1.44050343313e-07
2.42161513734e-07
4.32696634917e-07
4.6262496081e-07
5.77689439773e-07
6.20120362738e-07
3.79801635438e-07
2.2481900923e-07
6.02433491388e-07
2.4090114642e-06
9.62116042853e-08
5.64055091812e-07
3.70894905453e-06
4.70915385645e-06
2.90609567906e-06
2.81051441435e-06
2.51589842972e-07
7.34233996925e-07
1.11307683464e-06
3.88160858914e-06
3.53535171999e-06
1.43989344209e-07
7.29065959415e-07
6.88725892431e-07
1.03876796501e-06
8.10710149462e-08
1.69030527319e-06
4.21427133708e-08
6.82428501805e-07
9.20279512881e-07
5.61087473139e-07
1.02016666512e-06
4.86605383789e-06
4.11254200883e-06
3.0764393141e-07
1.76478733537e-07
1.38575618356e-06
1.00630962831e-06
8.53515254851e-06
9.80373886019e-06
6.67639241854e-06
3.85620914217e-07
6.60556959813e-06
8.54851993736e-06
8.71184154207e-06
2.38441582109e-06
6.62238256221e-06
5.21469579412e-07
3.45916558547e-06
2.17484560006e-06
3.02095521866e-06
6.44668255673e-06
1.78475026242e-06
1.45754100337e-07
2.95128157675e-06
3.08653283106e-09
7.90755180889e-10
2.93478537638e-09
5.01543630268e-06
1.21244675122e-06
5.76313848145e-06
2.58018240993e-06
9.21354490928e-06
2.50666146838e-08
1.92744907648e-06
1.13663028034e-05
6.30491762855e-06
1.14093150211e-07
6.69592356053e-09
6.44488714169e-06
1.88129167003e-06
9.62499173912e-07
2.02672301259e-09
1.81816877703e-09
4.62809780692e-07
4.28742070974e-06
4.70275894639e-06
6.34491794833e-08
4.46473394679e-07
4.12240212325e-06
4.99121679368e-07
4.93367502699e-09
4.34714042539e-06
5.28664516543e-07
7.93721428209e-08
6.41288879058e-06
1.61577649229e-08
2.10836662134e-08
2.25798308388e-05
1.43109568673e-06
1.91622820407e-06
1.07565424465e-06
8.26066998334e-06
3.77966190132e-06
3.82075874744e-06
7.82491601003e-06
4.78036933725e-06
5.23919986741e-05
4.39130083477e-06
1.01246735026e-08
7.04026605055e-10
2.34907262568e-06
1.19552363339e-06
3.6641032765e-06
2.82951291264e-07
3.98853384546e-06
1.48077577512e-06
4.8336838316e-06
6.36054775591e-06
2.52404736788e-06
6.31349034574e-06
9.58727162443e-06
1.72742216503e-05
7.62310422972e-06
1.50121701253e-06
3.18416473998e-06
4.35359589442e-06
5.53024384917e-06
1.08854173521e-06
7.49402412338e-06
6.35590509543e-06
3.97976142061e-06
2.76944621862e-08
4.76445589256e-06
2.20306838866e-06
6.26407383198e-06
1.12532323464e-05
5.79390406435e-06
3.4737578314e-06
7.15538607104e-06
2.39507329754e-06
1.71628638971e-06
2.9879843199e-06
2.97721647584e-06
5.85124560249e-06
8.29670767493e-07
1.80586907544e-05
6.80620300041e-07
7.1036039749e-07
7.36988904262e-07
8.69355029132e-07
6.94746885623e-07
2.33211601255e-06
8.19731306699e-06
6.90435119322e-06
2.1870958518e-05
1.76800004404e-07
7.99696018672e-07
2.30699165228e-06
1.34213765131e-05
5.35776596436e-07
4.28094526263e-07
2.55858073105e-07
2.39249680218e-06
3.87938174004e-06
5.82097065486e-07
4.76319607277e-07
3.94795821439e-06
4.18616026282e-06
2.73922421324e-06
2.0894697757e-06
1.27629872072e-06
6.64118486987e-06
1.95355254668e-07
2.7145510949e-07
1.65976994529e-07
5.12617297855e-07
5.00672759482e-06
4.96984047151e-06
1.996277128e-07
5.04229577174e-07
1.27798899086e-06
1.15046543706e-05
1.4831018039e-05
9.96649855091e-07
4.82062080593e-08
1.48057521445e-07
1.07577380016e-05
9.87960485912e-09
9.15760703288e-06
1.31166750159e-05
5.63058524033e-06
1.03283352302e-07
2.76982933779e-06
4.97072760896e-06
5.91521348609e-06
1.76166677367e-05
6.10243319731e-06
3.88780115478e-06
7.04452381435e-08
1.35620422321e-08
2.19250658209e-06
4.23356901191e-06
2.37895671853e-06
5.23194921625e-09
4.9171649751e-06
4.3103539461e-06
1.10765230061e-05
3.36212888074e-07
6.83070157458e-06
7.0157708142e-06
1.75581302082e-07
3.42109390105e-05
2.70687650269e-06
2.81892702308e-07
2.07930168569e-07
2.08037039865e-07
5.25118632159e-06
6.70320644627e-07
2.3604397297e-06
5.30934741507e-09
1.10598999859e-06
1.98896092914e-06
6.11421898649e-06
1.88025769824e-06
5.48685600636e-08
7.74927885337e-09
3.11008536907e-09
2.09013518638e-06
2.28445581726e-06
2.30132731177e-10
2.22241752384e-09
4.67343192224e-09
1.00556934875e-07
7.4257417815e-06
7.20995661253e-08
2.44632080042e-07
3.08710252498e-08
3.60031419472e-07
8.12153500228e-07
5.82761345142e-07
5.71475821131e-06
2.4332260972e-06
2.44726894511e-07
4.16507420203e-07
4.93968089377e-07
3.89381773677e-07
1.85342472432e-07
3.98922648605e-09
2.15499144414e-07
1.21389934422e-06
1.3028422607e-06
1.44461749668e-07
1.39065645564e-05
5.02832992987e-06
7.13933871251e-10
5.0871387232e-08
7.35369351294e-06
7.47946973723e-06
2.13044665488e-06
7.12855647789e-08
3.17826476772e-07
2.6199765101e-06
1.09500142739e-06
2.75215903121e-06

