# vtk DataFile Version 3.0
File Name: Molecule/sphere_excent/sphere_excent_0-s43.vtk
ASCII
DATASET UNSTRUCTURED_GRID
FIELD FieldData 1
TIME 1 1 double
0.0
POINTS 670 double
0.34981390834 -0.65382647514 0.67092210054
0.11899591237 -0.84349870682 0.52298140526
0.45554581285 -0.81113481522 0.36414137483
0.82339060307 -0.5300707221 0.20053644478
0.64334821701 -0.54240393639 0.53980535269
0.66608345509 -0.72557377815 0.16597867012
0.47092023492 0.70251643658 0.5335303545
0.4325914681 0.55064660311 0.71377897263
0.63239938021 0.43385192752 0.64103120565
0.092109717429 0.94843113422 -0.30275627971
0.26298516989 0.94912236929 -0.17300927639
0.35211485624 0.88159030676 -0.31430256367
0.26777350903 0.90544766188 0.32874593139
0.23529602587 0.77008259296 0.59293419123
0.68547302485 -0.61986702681 -0.38157203794
0.57268244028 -0.64920628071 -0.50053447485
0.67745500803 -0.5035982132 -0.53612327576
0.67791497707 0.6122906208 0.40664428473
-0.5223557353 0.81020480394 -0.2655673027
-0.67878007889 0.72128760815 -0.13775666058
-0.5562595129 0.82998490334 -0.033906370401
0.44158184528 0.88350462914 -0.1566016525
0.55178701878 0.78466594219 -0.28223669529
-0.91018027067 0.14843432605 0.38615337014
-0.86862236261 0.38725832105 0.30906409025
-0.95407170057 0.28242698312 0.09890563041
0.50698578358 0.33277630806 0.79496753216
-0.026899112388 0.37488266826 0.92666637897
0.1750703454 0.37402412295 0.91067492962
0.03346792236 0.53981411457 0.84114652872
0.21708190441 0.58720684052 0.77978873253
0.34792053699 0.41463330388 0.84087914228
0.3876581192 0.19154535234 0.90157949924
0.62612575293 0.16138544679 0.76266378164
0.20076452196 0.1587292254 0.96664649248
0.30415648222 -0.013309129514 0.95250588655
0.1031216085 0.021410327405 0.99442666769
0.5193810463 -0.059941872954 0.85230892897
0.3871986866 -0.45921754837 -0.79948228598
0.52667492628 -0.53234505653 -0.66268503666
0.36536690593 -0.59415137768 -0.71658277512
0.86492955685 0.095762722194 -0.4926520288
0.78605538607 0.16405333579 -0.59598904848
0.84484946728 0.24711355567 -0.47447666526
0.80778449774 0.017245857045 -0.58921068907
0.72468870878 0.052689291537 -0.68705320358
0.72673153877 -0.091364145279 -0.68079698086
0.68663358688 0.16269727051 -0.70856964588
0.88512963057 -0.068820260465 -0.46006777883
0.62157636881 0.087876208127 -0.77842468023
0.64880335331 -0.023577013984 -0.76058363914
0.52952438593 -0.021107690409 -0.84803426266
0.60722017288 -0.13983526826 -0.78212183714
0.1601382345 -0.74457710981 -0.64804404974
0.00095770950429 -0.79284322262 -0.60937696695
0.079373255372 -0.68435329199 -0.72482377291
-0.038963224739 -0.69364970922 -0.71922457218
-0.12046638876 -0.74568361044 -0.65530884266
0.1197154671 -0.58720177412 -0.80054479837
-0.0011327611282 -0.60619431734 -0.79531663656
-0.11701082438 -0.87583732605 -0.46812546253
-0.27710053325 -0.91175490618 -0.30320546031
-0.27212932706 -0.83489859104 -0.47841450572
-0.075211837888 -0.93566554785 -0.34463730454
-0.10631081462 -0.61648488045 -0.78014236689
-0.10441586375 -0.53629291058 -0.83753937483
0.29664555192 -0.70225960016 -0.64716947079
0.21458242834 -0.64719724655 -0.73149448633
0.032000411302 -0.88525533676 -0.46404230595
-0.81408369541 0.20052488148 -0.54503524303
-0.77499485016 0.35506290197 -0.52280157804
-0.70811635256 0.30053699017 -0.6389413476
-0.67830729485 0.43395364285 -0.59294778109
-0.40700861812 0.15588638186 -0.89998537302
-0.4978312254 0.11032263935 -0.86015295982
-0.49472266436 0.19422593713 -0.84706759453
0.52686244249 -0.36897048354 0.76540488005
0.69504010677 -0.26540791988 0.66802036762
0.85297566652 -0.30853116512 0.42117902637
-0.62282389402 -0.12386428565 0.77240538597
-0.6352686882 0.092907056212 0.76670897007
-0.78033703566 -0.0061667165719 0.62526506186
-0.7480968833 0.19495493174 0.63408333063
0.91843605042 0.12620462477 0.37455305457
0.88379114866 -0.012562224641 0.46747389436
0.96009153128 0.039764687419 0.2753469646
0.36482810974 -0.39876955748 0.84126955271
0.38847780228 -0.21343614161 0.89638376236
0.24911640584 -0.18685510755 0.95027142763
0.10537999123 -0.22966758907 -0.96750664711
0.1009022221 -0.37456634641 -0.92167925835
-0.0021528904326 -0.29862377048 -0.95424479246
-0.019648199901 -0.39496442676 -0.91844493151
-0.10748475045 -0.44396671653 -0.88957989216
-0.092282496393 -0.34196868539 -0.93504923582
0.017631014809 -0.49907466769 -0.86638349295
-0.1871715337 -0.37400701642 -0.90820997953
-0.21987533569 -0.45131903887 -0.86464089155
-0.21194139123 -0.51012808084 -0.83334106207
-0.20845395327 -0.56526052952 -0.79760140181
0.92860627174 0.030264750123 -0.3698066175
0.83618324995 0.48291411996 0.26010248065
0.88935780525 0.44521296024 0.10086975992
0.80944746733 0.57583606243 0.11503787339
0.89149719477 0.3407305479 -0.29858550429
0.89787256718 0.37920808792 -0.22302274406
0.93088382483 0.28051811457 -0.23260901868
0.85384994745 0.42778941989 -0.29654017091
0.89336371422 0.27103498578 -0.35763791203
0.84771192074 0.35704752803 -0.3923355639
0.89728987217 0.16109731793 -0.410122931
-0.33422139287 -0.37609308958 -0.86363625526
-0.2698456049 -0.30311429501 -0.91390484571
-0.27651050687 -0.41786491871 -0.86508184671
-0.37839627266 -0.25786244869 -0.88901239634
-0.47072443366 0.62275201082 -0.62496054173
-0.35389655828 0.66396075487 -0.65872603655
-0.38510456681 0.57841199636 -0.71911323071
-0.26715186238 0.61506277323 -0.74184572697
-0.2497304976 0.70168554783 -0.66723501682
-0.48312759399 -0.32713878155 -0.811201334
-0.57968467474 -0.22904618084 -0.78198736906
-0.47405812144 -0.16545033455 -0.86477160454
-0.59162658453 0.044212728739 -0.80495518446
-0.69509911537 -0.036117535084 -0.71794080734
-0.6722047925 0.096780091524 -0.73403120041
-0.76235508919 0.055739954114 -0.6447160244
-0.79391872883 -0.1020424366 -0.59938472509
-0.57932794094 0.14357425272 -0.80230349302
-0.16617110372 -0.1356767863 -0.9767074585
-0.11282412708 -0.046189144254 -0.99253177643
-0.04493419081 -0.11822873354 -0.99189370871
0.006737343967 -0.0089630130678 -0.99992758036
-0.26791530848 -0.20637819171 -0.94102996588
-0.34835466743 -0.1532676369 -0.92464947701
-0.17644007504 -0.22673515975 -0.95781344175
-0.1945490092 0.55317986012 -0.81003171206
-0.3077481091 0.51515781879 -0.79993528128
-0.27809154987 0.40890163183 -0.86915826797
-0.36479452252 0.43024995923 -0.82572907209
-0.071079157293 0.55548125505 -0.82848423719
-0.14140878618 0.62193894386 -0.77012759447
-0.32911729813 0.082365050912 -0.94068807364
-0.24354806542 0.15946353972 -0.95666015148
-0.23039658368 0.066692113876 -0.97075533867
-0.43378794193 0.063847415149 -0.89874601364
-0.39330205321 -0.58928823471 0.7056927681
-0.30579215288 -0.47991487384 0.82227516174
-0.47869938612 -0.41551694274 0.77332437038
-0.59772306681 -0.46626907587 0.65194576979
-0.42346069217 -0.12058024108 0.89777863026
-0.24934598804 -0.15845713019 0.95532768965
-0.32735157013 -0.0071464246139 0.94482666254
0.034112945199 -0.12820482254 0.99115055799
0.15936976671 -0.10780300945 0.98131477833
0.1184142679 -0.25843250751 0.95873183012
-0.018279097974 -0.24194215238 0.97010177374
-0.0062687867321 -0.38343000412 0.92349976301
0.13657525182 -0.40322035551 0.90486341715
0.084618374705 -0.56009960175 0.82399374247
0.25234550238 -0.32396396995 0.91181695461
-0.13101965189 -0.29095458984 0.94768232107
-0.13466051221 -0.48243138194 0.86552029848
-0.25602242351 -0.34503501654 0.90299206972
-0.20542877913 -0.61177384853 0.76380860806
-0.21958805621 0.3856087327 0.89615005255
-0.15391220152 0.25615787506 0.95431613922
-0.49635022879 0.022832673043 0.86782109737
-0.47806763649 0.19969572127 0.85518103838
-0.35331431031 0.13195319474 0.92595022917
-0.31254270673 0.26432436705 0.91233861446
-0.42615756392 0.39062896371 0.81590753794
-0.21695227921 0.12280898541 0.9684201479
-0.06831009686 0.10534504801 0.99207818508
-0.17642913759 -0.017825938761 0.98414605856
-0.041556168348 -0.028466099873 0.99873679876
-0.10469473153 -0.14369989932 0.98405843973
-0.60337764025 0.29175803065 0.74213069677
0.23445470631 -0.4854388535 0.84221690893
0.42303350568 0.071041069925 -0.90331870317
0.5257909894 0.11143860966 -0.84329009056
0.14436738193 -0.48805037141 -0.86079758406
0.25575134158 -0.53951406479 -0.80218797922
0.24398702383 -0.42477461696 -0.87178695202
0.59059047699 0.20409551263 -0.78073453903
0.43945342302 -0.66651445627 -0.60216718912
-0.1308644861 -0.6792126894 -0.72217005491
-0.14547911286 -0.80969303846 -0.56857776642
0.3651406765 0.49654325843 -0.78745818138
0.36976319551 0.3702776432 -0.8521284461
0.29056560993 0.44283789396 -0.84819245338
0.2629467845 0.33221828938 -0.90580099821
-0.23618474603 -0.76027554274 -0.6051415801
-0.20858871937 -0.69400811195 -0.68906211853
-0.29761639237 -0.69073855877 -0.65901833773
-0.34794849157 -0.75223761797 -0.5595459342
-0.2728433311 -0.61855727434 -0.73671966791
-0.38533529639 -0.67368549109 -0.63058155775
-0.36189204454 -0.61209475994 -0.70297408104
-0.46269986033 -0.59333586693 -0.65868252516
-0.46077102423 -0.69250035286 -0.55495709181
-0.29423859715 -0.54207289219 -0.78680789471
-0.37842279673 -0.51572799683 -0.76820009947
-0.45148766041 -0.77715551853 -0.43540123105
-0.18915849924 -0.6332051158 -0.75048226118
-0.62140572071 0.57443273067 0.53275597095
-0.5623755455 0.47062805295 0.67988801003
-0.39362463355 0.63796168566 0.66183739901
-0.59615319967 0.56542336941 -0.56998991966
-0.51447993517 0.67585808039 -0.52746760845
-0.65680837631 0.61760431528 -0.43212985992
-0.71719717979 0.50058823824 -0.4848921895
-0.42579331994 0.2444357723 -0.87117534876
-0.5046017766 0.27170088887 -0.81946104765
-0.56818139553 0.2281743288 -0.7906293869
-0.59359204769 0.30860543251 -0.74322754145
0.79349726439 -0.11167034507 0.59809786081
0.77747452259 0.094940565526 0.621717453
0.68942803144 -0.030543256551 0.72372967005
0.7538176775 0.29130727053 0.58818405867
-0.75172585249 0.38545283675 0.53490275145
-0.62876147032 0.38383716345 -0.67627352476
-0.64819246531 0.21094036102 -0.73168689013
-0.4153444171 0.49320605397 -0.76434421539
-0.49287867546 0.53818482161 -0.68361938
[...]
CELL_DATA 1336
SCALARS cell_data_0 double
LOOKUP_TABLE default
7.58955136331e-05
1.41697669391e-05
5.74012373841e-06
9.14517615103e-07
8.56713418296e-06
6.58977643241e-08
1.7515823843e-05
7.30547792268e-06
2.02658898451e-06
9.66680453453e-07
3.3255378309e-06
6.22668499148e-06
8.47160234623e-06
1.00768637803e-05
9.35109939731e-06
8.08957724895e-06
1.03505390445e-05
1.69414748455e-05
1.13608174746e-05
9.68752087569e-06
1.30810667725e-05
2.18199715567e-05
9.7069142483e-06
6.70017702874e-08
8.61926021331e-08
4.10835973675e-08
6.3634826661e-08
6.78688174565e-08
1.87355613118e-07
7.40235593376e-08
4.40804670863e-08
8.28735445866e-08
3.04797257934e-06
5.05205147495e-07
3.83464731301e-08
1.27000214984e-07
2.52079496921e-07
5.12879230946e-07
5.22830067058e-07
1.28722432516e-07
2.18266975041e-08
1.62239848195e-09
5.01418020153e-08
8.28298159436e-08
1.64047839075e-07
3.58985565094e-07
1.61221523792e-05
1.86398200935e-07
7.79145446724e-08
1.29892893394e-05
2.1614620674e-05
4.34212713499e-05
7.98392923009e-05
8.17926416374e-05
0.000123655648597
4.13275855933e-05
9.1684168083e-05
6.94871671953e-05
6.78981307525e-06
1.53592428313e-05
2.38051501465e-05
9.36765846893e-06
2.56187466437e-05
1.16837840043e-05
1.94616707237e-05
2.52147256036e-05
3.60115168345e-06
1.20547777554e-05
3.50846631363e-05
2.1332922724e-05
2.29156252888e-05
1.39486827512e-05
1.16779570531e-05
4.1607733709e-06
1.02707841793e-05
1.28997724264e-05
8.7072852957e-06
2.64043108799e-06
1.77587653081e-05
7.24195619529e-06
4.40105532978e-06
1.22266183749e-05
8.25615897014e-06
1.14353764964e-05
9.22372403125e-06
5.57376335975e-08
1.27289692665e-05
8.57045137304e-06
4.13641642737e-06
5.70521787163e-06
5.78903449844e-06
1.15360782059e-05
2.00475632211e-05
1.91487779784e-06
1.65467499281e-05
2.43121688004e-07
3.19845865081e-06
2.29308489742e-05
6.70868658041e-06
1.95671624668e-05
4.18497795662e-06
7.31551143224e-08
1.0979239918e-05
1.52836917936e-07
5.46492412462e-08
6.62061788663e-06
6.5053413146e-06
1.17081825484e-05
7.54379990415e-06
5.29649182134e-06
4.63945730686e-06
4.63991938392e-06
5.12224513279e-06
5.20389148789e-06
5.670826549e-06
4.5566419133e-06
4.35847870744e-06
5.93673778491e-06
6.02104604325e-06
7.39949954275e-06
8.09181233285e-06
5.48146061389e-06
7.91081312565e-06
6.47455201024e-06
1.18687742581e-05
1.12780149552e-05
1.27622818459e-05
4.51702635879e-06
8.52424423597e-06
7.80286761501e-06
6.30407243034e-06
8.56124391342e-06
7.22570289975e-06
7.65767881909e-06
7.71986203875e-06
1.2315664521e-05
1.04258581101e-05
1.17372174175e-05
7.04727216418e-06
1.08682976672e-05
1.03979890283e-05
5.70184975936e-06
9.5278538929e-06
6.05973386462e-06
6.54773291404e-06
4.47004686516e-06
4.38606718879e-06
6.12625915172e-06
5.83672773757e-06
6.37385989476e-06
5.29874446813e-06
1.15454383848e-05
1.18820446253e-05
4.45829618541e-06
1.34037118979e-05
7.62886105385e-06
3.02936943167e-06
1.42626142267e-05
4.39470114087e-06
3.93412873002e-06
1.1068757886e-05
4.51723283459e-06
1.13500653344e-05
7.86303778129e-06
6.2873124306e-06
6.54152631178e-06
7.80493553181e-06
1.3802969975e-07
3.94948177251e-06
7.75404867167e-06
2.39608180867e-07
3.98243739846e-08
9.33063366969e-07
4.13739539413e-07
1.99503492936e-07
5.46169730608e-09
2.52547429094e-05
2.55147256516e-05
6.75598498496e-07
1.07090869486e-07
1.98352639309e-07
2.28039542634e-07
3.02974785921e-06
3.29913595649e-06
1.87830001922e-07
7.19256904689e-08
7.50771603048e-08
3.94786225693e-08
7.80422842421e-08
7.48450839287e-08
8.00009764534e-08
3.53626856069e-08
3.72381977156e-09
6.4106289533e-11
4.11253185623e-06
2.29355571449e-07
6.42717461531e-07
1.96789291532e-07
1.21937754448e-07
1.09413309403e-07
2.16249999458e-07
1.55685676172e-07
1.76570678299e-08
1.14252503102e-08
1.49007465583e-09
3.00557881418e-06
2.89491960904e-06
6.01513571114e-06
8.55990842626e-06
2.11196924561e-05
1.27500332818e-05
1.3582536869e-07
4.60963548191e-06
2.26178778906e-07
1.80520392579e-08
2.53796817253e-06
1.11760923263e-08
4.37505554654e-05
1.04338514153e-05
2.56494694459e-06
4.18376701444e-06
5.02688454378e-06
6.70531666815e-06
1.96256541758e-05
1.44622826849e-05
8.14113323528e-06
9.93270903773e-06
2.16920889643e-05
8.27694059654e-06
5.54382541433e-06
1.52708634368e-06
6.18247627801e-06
5.9254354377e-06
4.62257753996e-06
2.83969361142e-06
2.52782465176e-07
1.07978295926e-07
8.13231676976e-08
1.01385576368e-07
2.00637078224e-06
2.86089598903e-08
2.83257383361e-08
8.57588089577e-08
3.47288595458e-08
6.76919108548e-08
1.08450223546e-07
1.23516049202e-07
1.86205363073e-06
4.20317649704e-08
1.94998981618e-08
1.09903543638e-08
5.02197328507e-08
1.12580160714e-07
7.8958348581e-08
3.92602632912e-08
5.80488230066e-08
7.54297473184e-08
2.15464106648e-07
3.8124597359e-08
2.1114803152e-08
3.45158070248e-08
1.45555383932e-08
5.53419650857e-08
2.84755039067e-07
3.26907593938e-08
6.95164198171e-09
1.15852113402e-06
7.79340819056e-06
6.98344351774e-06
8.16016920663e-06
9.80129316045e-06
2.67294249534e-05
5.43985260462e-08
2.5124006018e-07
3.9328898847e-07
5.31666129631e-07
3.11275491469e-07
4.21083258002e-07
5.26721313452e-07
4.50947527753e-06
7.5964096654e-06
6.5470006118e-06
8.54251301921e-06
8.30569009286e-06
8.68022893477e-06
9.1949916168e-06
9.21534378988e-06
1.22802879652e-05
8.13063613785e-06
5.91404369137e-06
5.66100390244e-06
6.13071807893e-06
7.51844763804e-06
9.31716956653e-06
6.06131525804e-06
6.17352773703e-06
1.0565015659e-05
9.69745140735e-06
2.06456149103e-07
1.16047830462e-07
1.98034035994e-07
1.68789500961e-07
5.21735802791e-08
1.7556532165e-08
1.56808273172e-07
6.64897410885e-08
4.02497859499e-06
1.41069235437e-08
8.20664185343e-09
9.1435683983e-08
1.49349776748e-06
6.1946294309e-06
1.363736621e-05
1.39896730887e-05
9.31706397057e-09
4.87012137293e-06
1.42508816064e-07
2.88698763844e-07
2.26684610518e-07
5.04791347608e-07
3.21745886791e-08
3.07662000194e-06
3.90454284625e-06
4.8457961617e-07
4.26627083606e-06
1.05854054065e-06
7.33660269417e-07
8.00603395315e-07
2.90139192879e-06
7.76758319198e-07
9.67996639165e-07
7.38337221965e-07
4.99763721594e-07
8.85800045953e-07
2.8725311982e-07
2.73277081412e-07
1.07486059094e-08
1.03064770361e-05
2.55476244211e-06
5.63336664841e-07
2.58486243741e-06
3.05936808623e-08
8.75822891624e-06
3.20182574405e-06
1.26984031136e-06
1.93093844593e-06
1.14289599159e-06
1.65518324918e-06
1.05122812232e-06
8.33070396621e-07
9.39080816203e-07
1.23367276304e-06
1.72264686382e-06
8.69331498079e-07
8.52591439938e-06
9.78718260352e-06
1.49549079834e-06
6.86920969789e-08
7.40208712552e-08
1.03381896876e-06
1.68276904542e-07
2.93224029944e-06
6.29836971589e-07
6.80165112434e-07
3.13110454303e-07
2.58973612286e-07
2.5933316807e-07
5.71906651302e-07
2.00704627695e-07
2.0259937434e-07
4.54817989284e-07
1.15937809537e-06
9.4296159157e-07
4.06206321695e-07
2.80660520087e-07
9.55491661018e-08
4.14959009134e-07
1.5817231442e-07
4.19823469026e-07
2.32242579467e-06
8.18698991486e-07
5.27320716084e-07
9.15368431643e-07
1.38092370652e-06
1.95678607589e-06
7.07992817971e-07
7.1791969295e-07
7.90589216357e-07
4.73716731894e-06
7.65231266267e-06
1.5964561811e-05
7.51997265794e-06
7.65365347637e-06
1.2003224513e-07
4.83262950687e-06
2.43938490403e-08
5.3232983526e-07
3.12661806651e-07
2.86139464182e-07
2.60088396372e-06
2.42393816963e-06
4.19704626312e-06
3.28117629596e-06
1.58158897707e-06
1.44376820284e-06
1.77195625361e-07
2.51736207735e-06
2.59951925303e-07
3.19489058461e-08
1.80495244625e-08
7.37629955629e-06
1.65768748934e-06
3.12753332325e-07
3.76912609228e-06
1.40232343382e-06
3.01357758431e-07
2.35227881247e-07
3.38825342522e-07
6.29164199018e-06
5.52807924936e-06
3.52878210004e-06
2.58599066937e-06
1.82943026836e-06
2.81252320428e-06
1.79685263092e-06
2.2365328995e-06
2.53468226482e-06
2.61619553872e-06
1.30057890978e-06
9.02389666965e-07
2.03296029428e-06
3.37811261452e-06
3.23074412309e-06
7.40241639669e-07
1.33808088018e-06
1.21486210803e-07
7.10363789741e-06
7.03341860723e-06
1.68418462307e-07
2.84183475734e-07
1.54910255891e-07
6.03098393982e-07
4.36694581628e-07
1.6047990186e-10
3.87785939418e-06
4.47780058581e-07
4.34180354783e-06
2.34345477169e-07
2.7781027511e-06
4.15862225972e-07
4.67494388175e-06
8.15696804899e-06
5.27708773425e-06
1.59506492498e-06
1.56185080507e-05
8.85956200677e-06
1.1623690184e-05
2.80961048553e-07
1.44232458175e-05
2.66066425873e-07
1.49538336344e-05
2.12201028037e-06
4.79862414281e-06
1.57451985663e-05
8.96221582543e-06
6.70049310592e-06
9.13340220706e-06
9.08750756663e-06
8.23355666685e-06
5.13168970697e-06
2.20392998286e-06
6.05193349888e-07
4.43316025961e-07
1.07549241559e-06
3.42874689923e-07
8.13238617995e-06
6.71790929441e-06
5.53329307153e-07
4.67813521999e-06
5.29648797146e-06
5.53676288009e-06
3.32653787422e-06
1.73463589826e-06
8.01119067401e-06
4.04667061318e-06
1.33180981895e-06
1.14233319471e-07
1.07945019923e-07
5.6779461237e-06
4.24652706709e-07
6.13151616675e-08
4.0251644683e-06
2.65317472638e-08
7.02259419119e-06
3.51390781433e-06
2.03634934776e-07
3.56989789921e-06
1.54818296686e-06
1.93699441754e-06
2.9889071246e-05
2.27663907375e-05
9.75438708242e-07
7.82757220902e-06
5.50579892855e-06
2.25270196625e-05
1.89414124829e-05
2.86462120894e-05
1.26437607756e-05
3.55666491844e-05
5.99384027989e-05
4.36198654879e-05
1.1000076024e-05
7.92650643952e-06
2.01328865568e-05
4.27501249866e-05
1.03516938178e-05
1.6498698468e-05
1.5692273511e-05
3.63456397226e-05
1.89142561811e-05
3.46681793526e-06
5.65277989497e-05
1.09343802664e-06
1.41966064206e-06
1.87987345787e-06
1.69208708499e-06
2.11486540827e-06
2.06139256549e-06
5.3894676793e-06
4.50862435647e-06
1.69685176896e-06
2.06072464938e-06
5.04065950629e-06
2.54834902712e-06
1.81774674661e-05
1.40084820413e-05
4.34537877476e-08
7.62716845951e-08
5.64742039528e-08
7.04188435877e-08
1.33427579478e-07
3.2687688348e-07
2.10440723894e-07
1.87414741713e-07
1.30186650076e-06
9.90892319615e-07
5.69674312041e-07
4.07149211043e-07
5.77527361878e-06
8.61333939479e-06
4.17207611579e-06
4.16593885502e-06
3.83611603514e-06
5.09479473558e-06
2.7302003349e-07
6.97549536499e-07
3.87978540238e-07
1.15058311832e-06
2.55878715643e-06
1.81240819643e-06
5.7704838227e-07
1.34050096883e-06
4.52017476452e-07
1.15992266661e-06
2.37289765649e-07
2.76398023915e-07
3.74609170348e-08
4.93197652129e-08
2.97723809781e-07
2.82905673166e-07
2.20732468069e-07
1.85058880647e-07
3.69233468169e-08
6.26875024368e-08
3.89634035384e-07
3.5233004729e-08
4.15733331005e-06
4.19430100068e-06
5.45644255362e-06
5.79748201281e-06
2.7823793321e-07
2.75893970939e-07
3.10625958571e-07
2.46519114373e-07
1.04754530976e-07
5.54453079374e-08
1.35406440974e-07
5.98196857746e-07
1.59153346931e-07
1.21639022253e-07
3.3517485642e-07
3.26703592743e-07
1.55302433011e-06
1.3530713289e-06
3.22309276095e-07
3.27743659204e-07
6.81875971736e-08
2.05530105819e-08
4.56161649667e-07
3.89629635524e-07
1.21319726323e-06
1.59381930555e-06
1.46834758227e-06
1.80675902992e-06
3.84106551662e-06
2.65531167986e-06
9.46330799822e-07
4.58270410982e-06
3.32768958658e-06
2.19830042567e-06
1.43247483401e-06
4.01192562248e-06
8.45343845886e-07
2.61006913029e-06
1.42102069903e-06
1.88322331804e-06
1.06117168738e-06
5.91677635858e-07
4.1993571405e-08
3.60395129999e-07
1.60337274668e-06
1.56152739123e-06
1.39374005989e-07
6.07066597227e-07
4.50530859211e-07
1.22921404499e-05
2.95750615893e-06
1.66835146714e-06
3.42080479982e-06
3.1680405664e-07
5.8403502073e-06
4.73049027112e-06
2.87103786833e-06
5.73757357276e-07
7.54098062572e-07
4.53262550619e-07
1.0420461819e-06
1.36644173525e-07
3.99764423222e-07
1.14847756503e-06
3.2434755189e-08
9.26915640607e-06
4.80680773198e-06
4.85942507231e-05
8.49511183044e-07
3.15672941062e-06
3.0209136985e-06
7.74724517742e-06
1.11661803852e-06
9.78394041089e-07
2.71208775699e-05
1.53811475339e-05
4.54594841922e-07
1.33382610662e-06
1.04499570092e-07
5.05668601904e-06
2.8909065964e-06
2.34955327363e-06
2.61996673095e-06
3.99119699018e-07
6.00465960458e-07
7.84018909984e-06
1.30341864116e-06
1.03387363394e-06
4.76801971509e-07
7.4239704364e-07
3.39484410922e-07
2.6233596453e-07
2.40065506133e-07
1.9167775545e-07
8.36213894643e-07
9.76626316694e-07
1.78888585907e-06
3.05507986227e-06
1.57329490272e-06
1.53042458542e-06
3.59807613501e-05
1.45269898197e-05
1.75070316106e-05
5.03229569441e-06
4.36259712273e-05
1.36289071341e-05
1.03359066862e-05
1.41684432913e-05
5.12734793879e-06
1.74323390827e-05
1.86855533711e-05
7.07147862259e-06
7.68821297079e-06
1.20261240185e-07
1.68468313831e-07
3.95756915965e-06
4.58869734354e-10
3.88509027309e-09
6.52562979898e-07
7.80947304535e-07
6.74039984163e-07
6.67389509635e-08
7.04549869792e-07
1.84767820684e-11
6.01404125654e-07
4.61894862255e-08
3.73538340099e-09
6.64819463313e-07
6.58908597634e-07
5.23250642001e-09
1.38244828738e-06
3.84961105782e-08
1.74895566494e-06
4.89870762613e-08
9.9755248324e-07
1.61081626347e-06
3.84363488022e-06
6.26444914397e-06
3.25231778931e-06
6.07724836392e-06
9.02041606739e-06
5.77329396116e-06
4.76206502643e-06
4.98830030277e-06
3.45293359391e-06
5.88440848775e-06
5.27241230774e-06
2.91980778456e-06
4.14943674581e-07
7.51831260996e-06
5.45025577232e-06
4.88509033841e-06
4.89110849025e-06
1.3512525752e-06
1.53524421555e-05
2.15055573038e-05
1.28276692476e-05
7.84717536814e-08
3.23194418617e-07
1.93588654412e-07
2.22846901337e-07
3.52639127767e-07
2.06371711998e-06
1.72914837016e-06
9.04223894067e-08
8.28454531366e-07
1.72295527761e-07
1.71983197841e-06
3.29838208776e-07
3.03705649805e-06
4.61674686369e-06
3.4688857298e-06
3.1594743738e-06
5.56871576439e-07
5.03227392595e-07
1.72314930229e-06
1.82817881818e-06
2.15715551328e-07
2.66902796159e-06
1.99750002541e-07
2.70635043812e-07
1.45508805833e-06
5.41593085637e-07
1.44957456212e-08
1.92427325827e-08
2.05845699144e-07
1.43222308234e-06
1.54221100756e-06
1.47198463008e-06
9.64254100261e-07
6.78849825579e-07
9.35471807109e-06
1.32845853013e-05
3.51878788218e-06
2.39836340235e-07
3.14199687979e-07
4.7763325993e-08
4.46814842051e-08
8.70194100843e-10
3.23922359705e-08
4.22207144398e-08
1.045267203e-07
1.0754885445e-07
1.97332886834e-09
1.74617557947e-09
5.53390603096e-09
7.0965895777e-09
2.16056723772e-07
1.86871059151e-07
1.08378568469e-08
8.3012836991e-10
3.87168587782e-09
5.83026223888e-08
5.16360574042e-08
1.50206625016e-09
4.26321390887e-08
1.17869514867e-08
2.63537347336e-08
1.58092085543e-08
1.47142509877e-07
1.71547406282e-07
3.6516912053e-06
6.61594632276e-08
3.32496536405e-08
4.88318486967e-09
4.90787247323e-08
3.15504291183e-08
2.1991267121e-06
8.13434734283e-07
3.53152813183e-08
1.33155717924e-10
2.9949432703e-09
3.88076658018e-08
3.34814656436e-08
6.84922382341e-10
3.08245858518e-09
2.5698408602e-08
2.55900559443e-09
3.98868886034e-08
2.88649752926e-08
2.98052595091e-09
1.044524227e-07
3.42197213082e-08
4.37961922286e-08
6.90695265557e-07
6.37553707456e-07
1.54986341505e-05
5.09572246402e-07
7.35575853017e-06
4.80198379868e-06
3.53783406301e-06
1.32598010249e-05
8.79982240856e-07
5.92384620117e-07
3.77086080907e-07
5.31632697013e-09
5.33566766851e-07
7.99144316926e-09
3.28215758022e-09
5.50512904174e-09
2.20303465923e-08
6.37639678259e-09
1.31068186494e-07
1.23438685693e-07
8.90129020444e-08
1.17953545646e-07
1.24565915625e-07
6.19298803424e-09
9.53104779051e-09
9.18583158854e-12
3.90278073376e-08
1.08625814007e-07
9.28397525979e-08
9.74382019428e-07
8.19595924103e-07
1.34969416366e-06
1.4669342836e-08
8.00839668907e-07
4.63164323023e-10
8.15449971317e-07
2.85452472604e-06
2.1502610311e-06
9.89884573352e-08
1.16660012144e-06
1.51449656278e-06
4.01217383337e-06
5.18672477635e-06
4.10603057469e-06
7.32737500094e-06
5.92822117317e-07
5.89054913598e-07
6.85435840971e-07
7.88022569006e-07
9.16808634585e-07
4.7710510173e-07
1.26477654637e-06
2.10706936573e-06
7.479162026e-07
9.82060892828e-09
1.50882282826e-07
8.41343962709e-08
1.16058939572e-07
3.40841787889e-07
1.93345305575e-07
3.25723132051e-05
8.98763782616e-07
9.69454440745e-07
3.9527442986e-06
3.2599654005e-06
3.22712839921e-06
1.40694054782e-06
1.7437284211e-05
2.310080728e-06
6.12407974091e-07
5.76808573058e-10
3.15703626742e-07
1.95251217526e-07
2.20939081383e-05
2.33785112405e-05
1.32617622106e-07
8.22726829614e-09
1.22459535386e-06
9.21730574536e-08
4.34335810407e-09
1.63225691509e-07
1.01098053552e-07
1.17968627443e-07
3.03397346009e-08
2.21499263096e-10
6.08080627592e-08
1.3345115618e-07
7.61341224384e-08
1.21680107026e-07
4.96349336838e-08
1.75572267586e-08
1.004200589e-07
6.82845483041e-08
4.78513757495e-08
7.02169131547e-08
1.59598762598e-08
8.58291949103e-09
1.67727756725e-08
4.22311385742e-08
3.74087591917e-08
6.57751564396e-08
1.07975403902e-07
4.44235990615e-09
4.5179132106e-08
1.64667120284e-06
2.48429911224e-06
2.75382552964e-06
3.54534496531e-08
2.18221626638e-08
4.72693667602e-08
2.85605891575e-08
3.74085560422e-08
1.68123713865e-07
7.89292430197e-08
4.68133746163e-08
9.64881641735e-07
3.93625498764e-08
1.02094583055e-08
6.21220524727e-09
9.66222207583e-07
9.14826566927e-09
1.80857901314e-07
1.50748101676e-07
9.50423580801e-07
7.00909788769e-07
4.82135397584e-06
3.81279523051e-06
7.15575901344e-07
1.40729778803e-06
5.0524079132e-05
7.38362443365e-06
2.63749511384e-06
7.56248363609e-07
6.00539779958e-07
1.54333625574e-06
3.17865851363e-07
3.58021393734e-07
4.29418189097e-07
6.36017566172e-07
1.13897046374e-06
1.512512763e-06
2.6842670044e-07
3.09311492435e-05
1.11325711311e-06
4.54803605775e-08
2.7734812183e-07
4.9313846962e-08
1.68450215937e-08
1.72780700734e-08
2.06463494915e-07
4.71422637295e-08
4.27889011346e-07
5.35212355616e-07
1.31296409394e-06
8.41954905434e-07
1.97423650182e-06
1.36135081957e-06
4.7266085035e-07
1.79373419865e-09
1.79310021422e-07
8.96839913983e-08
4.8155490262e-08
2.97613184224e-07
2.54724244066e-08
1.36578905564e-07
1.4852324518e-07
3.37772903027e-07
1.15502453878e-06
4.7553756136e-07
8.54923882983e-08
7.03333038875e-08
1.14392304727e-07
5.04885680748e-07
1.30782237513e-07
2.2336032871e-07
9.5858504869e-08
1.33985076302e-07
3.19877169978e-08
1.0974655373e-07
2.1431258478e-07
3.24379668507e-07
8.54407617526e-08
2.03047295363e-07
1.50670072013e-08
1.95376020548e-08
3.50908638819e-09
5.42468542213e-08
3.25129388334e-08
1.06791530468e-08
1.08508118902e-07
2.86894498652e-07
1.22461343279e-06
1.62971115621e-07
1.61921976183e-06
1.00893021758e-06
4.70443269601e-07
3.4652938997e-07
3.56709895854e-07
5.17566270278e-07
5.26734726332e-07
8.38346865909e-07
2.02181253189e-07
6.33495528678e-07
6.59536293231e-08
6.49275361001e-08
2.92990044815e-07
2.72931787463e-07
3.50760257955e-07
3.43066605098e-07
1.16560593546e-07
7.51754256209e-07
2.47630025582e-07
6.19267746598e-07
1.25871004107e-05
8.0464243608e-05
5.04443624489e-07
4.64795849947e-07
6.73551988907e-07
3.1088423475e-07
1.13948839137e-06
1.97122308705e-07
3.56955529048e-08
2.15343619342e-08
1.20353239897e-07
8.82029057745e-08
2.58896787872e-06
2.12965345736e-06
2.36781699319e-06
3.4811511478e-07
3.01218543491e-06
8.52848395706e-06
2.54246295611e-06
3.22640582468e-07
1.39687112671e-07
2.74590522954e-06
9.68585575856e-06
3.13681360862e-06
1.52143629845e-05
7.63047620962e-06
6.18843614963e-06
7.31421561095e-06
2.81415438293e-08
2.21269799743e-08
2.856436357e-08
2.53248703357e-08
3.44516705854e-08
1.89519288719e-08
1.96357197362e-08
1.87175906542e-08
2.75589398991e-08
3.83057689398e-08
1.39212291965e-09
2.21226103768e-09
2.09509258962e-08
4.90217031366e-09
9.86592207097e-06
9.46913466789e-06
1.47343483231e-08
1.4627268658e-08
3.41274924475e-08
4.5138038975e-08
4.39439062341e-08
3.82792796266e-08
7.38364593441e-08
7.04135765727e-08
8.69115656937e-08
7.54510338229e-08
9.6627077597e-08
5.65717516697e-07
4.48631193022e-08
2.19229026354e-08
1.74320477406e-08
6.01974117826e-09
1.17265046853e-08
2.18491544167e-08
1.94318777782e-08
2.99817782109e-08
3.1979143665e-06
3.45435995725e-06
1.56404068684e-06
1.72156761709e-06
1.79470555601e-06
1.89875184727e-06
1.37777044828e-06
1.83502677437e-06
1.01030582218e-05
1.73293839906e-06
1.44524896405e-07
8.05598378973e-07
7.68738221801e-07
9.21487773371e-08
1.15318409117e-08
2.69053646372e-08
3.92937608971e-09