# vtk DataFile Version 3.0
File Name: Molecule/sphere_excent/sphere_excent_0-s37.vtk
ASCII
DATASET UNSTRUCTURED_GRID
FIELD FieldData 1
TIME 1 1 double
0.0
POINTS 501 double
0.338804245 -0.65283840895 0.67745870352
0.038374096155 -0.8460084796 0.52614957094
0.48705899715 -0.82094377279 0.29739150405
0.83587628603 -0.53182786703 0.12651696801
0.62598901987 -0.51927232742 0.58067172766
0.47655087709 0.70645397902 0.5232282877
0.43210977316 0.55109846592 0.71368443966
0.6730749011 0.40288320184 0.61987030506
-0.91594004631 0.11733540893 0.38347715139
-0.9686344862 -0.19902379811 0.14476929605
-0.8384732604 -0.26081076264 0.4767729342
0.47696489096 -0.870880723 -0.1163745001
0.20926350355 -0.97515058517 -0.049195386469
-0.33925881982 0.8284625411 0.44534385204
-0.29984563589 0.93008053303 0.21082819998
-0.50973129272 0.81712579727 0.26886069775
0.04373646155 0.94864022732 -0.31297209859
0.25677543879 0.95658510923 -0.13229420781
0.35715326667 0.87744414806 -0.31948673725
0.26617005467 0.92205160856 0.27621534467
0.2340297848 0.77032488585 0.59299910069
0.69716650248 -0.62633764744 -0.34854084253
0.55777162313 -0.64913547039 -0.5170674324
0.6772044301 -0.49737161398 -0.54222816229
-0.48136651516 -0.38610985875 0.7867462635
-0.63067942858 -0.17258019745 0.75646626949
-0.62382501364 -0.4416962862 0.64434564114
0.67945897579 0.62518632412 0.38310980797
-0.48802569509 0.8177587986 -0.30508953333
-0.68331581354 0.71669852734 -0.13809737563
-0.56280034781 0.8263245821 0.0029919994995
-0.66870814562 0.71849089861 0.19085597992
-0.76358520985 0.64434462786 0.039544980973
-0.47045621276 -0.33887448907 -0.81476664543
-0.53134638071 -0.48185926676 -0.69678139687
-0.6197193861 -0.33492833376 -0.70976477861
0.45364615321 0.87472033501 -0.17066973448
0.56645816565 0.76959645748 -0.29403916001
-0.86879527569 0.38855782151 0.30675649643
-0.95410633087 0.2868719399 0.083423420787
0.50784897804 0.30107653141 0.80709201097
-0.019020339474 0.3520847559 0.93548178673
0.17067696154 0.36404106021 0.91556173563
0.033564969897 0.52832466364 0.8483697772
0.21432241797 0.58350360394 0.78333693743
0.34176489711 0.40719982982 0.84700393677
0.34854969382 0.19041089714 0.91776013374
0.51061832905 -0.038809105754 0.85873627663
0.17759944499 0.1628883034 0.97037982941
0.29185697436 -0.013399943709 0.95633971691
0.097863033414 0.018081752583 0.99502152205
0.38539391756 -0.45685300231 -0.8017115593
0.52690720558 -0.52347028255 -0.66949808598
0.36588317156 -0.59271520376 -0.71749985218
0.86136627197 0.10761524737 -0.49635624886
0.78036469221 0.18605478108 -0.596988976
0.84268289804 0.25742730498 -0.47284689546
0.80444031954 0.023946445435 -0.59344130754
0.72296178341 0.064727708697 -0.68779873848
0.73795336485 -0.092361696064 -0.66809540987
0.68099826574 0.1710485965 -0.71204638481
0.87692695856 -0.099156245589 -0.46931695938
0.6188454628 0.092519469559 -0.78007739782
0.65193402767 -0.020510543138 -0.75798916817
0.52948701382 -0.018041523173 -0.84812426567
0.60675746202 -0.1378698349 -0.78281825781
0.15537831187 -0.74061399698 -0.65371370316
-0.0002890410251 -0.78840082884 -0.61512452364
0.072863802314 -0.68332892656 -0.72647696733
-0.042809959501 -0.68928265572 -0.72318816185
-0.12053237855 -0.7395118475 -0.66223913431
0.1134602502 -0.58913505077 -0.80003601313
-0.0072695659474 -0.60544723272 -0.7958547473
-0.10712212324 -0.87244564295 -0.47679978609
-0.27115058899 -0.90903240442 -0.31682911515
-0.26348045468 -0.83182185888 -0.48845484853
-0.051573805511 -0.93479639292 -0.35059404373
-0.46289733052 -0.77942276001 -0.42207747698
-0.50006574392 -0.84206300974 -0.19892661273
-0.11048389971 -0.61331242323 -0.78206443787
-0.10857276618 -0.53683102131 -0.83664387465
0.29322850704 -0.704223454 -0.64658743143
0.21234221756 -0.64745032787 -0.73192310333
0.042567662895 -0.88080406189 -0.47158139944
-0.81213343143 0.20591334999 -0.54589694738
-0.77095073462 0.36022722721 -0.52518439293
-0.70240348577 0.30644792318 -0.64240711927
-0.67197948694 0.43472966552 -0.59955847263
-0.38107353449 0.17850151658 -0.90660977364
-0.46794819832 0.086171895266 -0.87953293324
-0.48540708423 0.18919029832 -0.85356342793
0.52219384909 -0.34417325258 0.78021538258
0.68400472403 -0.25796100497 0.68231755495
0.85578602552 -0.31379908323 0.41087308526
-0.77753674984 -0.0018961036112 0.62852525711
-0.62391453981 0.099552303553 0.77505153418
-0.73274344206 0.20572736859 0.64818793535
0.92211121321 0.12418245524 0.36645355821
0.87836617231 0.00080826599151 0.47758471966
0.96140599251 -0.065780423582 0.26659369469
0.35566657782 -0.39156919718 0.84855258465
0.38334310055 -0.20437958837 0.90071070194
-0.21737809479 -0.46199885011 -0.85982590914
-0.37397220731 -0.50646203756 -0.7769498229
-0.32006418705 -0.40117481351 -0.85825622082
0.64076244831 0.15127368271 0.75265204906
0.24240018427 -0.18526740372 0.95232713223
0.10787023604 -0.21740677953 -0.9699202776
0.097908169031 -0.37489306927 -0.92186766863
-0.024181164801 -0.28177651763 -0.95916068554
-0.16710780561 -0.36012247205 -0.91778743267
-0.028711482882 -0.39624887705 -0.91769880056
-0.10656570643 -0.45236411691 -0.88544368744
0.013306871988 -0.50118941069 -0.86522072554
-0.21638517082 -0.55406183004 -0.80385386944
-0.27195376158 -0.6136649847 -0.74123293161
0.92674165964 0.045536737889 -0.37287336588
0.8359118104 0.48125603795 0.26375183463
0.9026145339 0.42242354155 0.082250550389
0.80872803926 0.57691597939 0.11430132389
0.97958827019 0.037061043084 -0.19638063014
0.94630724192 0.15478955209 -0.28377526999
0.97127377987 0.18435306847 -0.15044724941
0.93239325285 0.27040210366 -0.23986063898
0.89716422558 0.2641607821 -0.35398483276
0.94020456076 0.3117582798 -0.13720136881
0.88927990198 0.34565845132 -0.29947763681
0.8986902833 0.38949248195 -0.20167630911
0.8522053957 0.4305152297 -0.29728898406
0.8460482955 0.36135968566 -0.39191257954
0.90411245823 0.42104133964 -0.072837755084
0.84823310375 0.49686464667 -0.18330927193
0.83239537477 0.55305624008 -0.034541361034
0.90105932951 0.16697597504 -0.40028566122
0.99359416962 0.10937265307 -0.025305759162
0.95982062817 0.27940368652 -0.024693865329
0.97065454721 0.21521174908 0.10669396073
-0.043649949133 -0.14569056034 -0.98835963011
-0.15840174258 -0.2375665307 -0.95836567879
-0.19398118556 -0.12090244889 -0.97351628542
-0.29168361425 -0.29538235068 -0.90974253416
-0.25472256541 0.94720846415 -0.19315543771
-0.22889569402 0.88719755411 -0.40055897832
-0.072917051613 0.54003292322 -0.83846402168
-0.12695670128 0.63184773922 -0.764559865
0.019192449749 0.61375033855 -0.78923237324
-0.032225254923 0.74197113514 -0.66968339682
-0.21912203729 0.70539724827 -0.67401123047
0.13492272794 0.67911678553 -0.7214858532
-0.26822561026 0.60167986155 -0.75230413675
0.13126540184 0.80616909266 -0.57690763474
-0.042304050177 0.85575455427 -0.51555645466
0.69574022293 -0.71395146847 -0.077853374183
0.79746299982 -0.4404450953 -0.41238930821
0.82779723406 -0.52806329727 -0.18901146948
0.54519802332 -0.77151316404 -0.3272383213
0.38160651922 0.59150737524 -0.71023219824
0.26600897312 0.58433884382 -0.76666688919
0.27887672186 0.69082945585 -0.66703915596
0.370077461 0.49800622463 -0.7842078805
-0.34044745564 0.7827745676 -0.52075785398
-0.49244457483 0.69796788692 -0.51986420155
-0.36244601011 0.67591995001 -0.64165115356
-0.47127521038 0.61365091801 -0.63351202011
0.14871041477 0.41631111503 -0.8969373107
0.14631412923 0.54468899965 -0.82574850321
0.26532366872 0.45895686746 -0.84791219234
-0.38659289479 0.57341223955 -0.72232574224
-0.63481682539 0.62747895718 -0.45053464174
-0.59127253294 0.56024217606 -0.5801269412
-0.17910794914 0.80345368385 -0.56781750917
0.040690630674 0.4938198328 -0.86853712797
0.013785239309 0.024313032627 -0.99936401844
-0.117804721 -0.026817182079 -0.9926058054
-0.041131108999 0.11251795292 -0.99235606194
-0.25463682413 -0.014408767223 -0.96692854166
-0.17061756551 0.091285213828 -0.98102265596
-0.32237654924 0.086613431573 -0.94263267517
-0.33464160562 -0.10829614103 -0.93608182669
-0.4110276103 -0.018363200128 -0.91142588854
-0.47481998801 -0.14971938729 -0.86716622114
-0.53711670637 -0.04891782254 -0.84206551313
-0.58287131786 0.049316868186 -0.81104564667
-0.58800828457 -0.19162650406 -0.78576594591
-0.66768622398 -0.043854266405 -0.74311572313
-0.66154181957 0.10193385184 -0.74290817976
-0.75292950869 0.058552440256 -0.65545976162
-0.79147988558 -0.095388688147 -0.60369217396
-0.56888562441 0.1461301893 -0.80931699276
-0.27299624681 -0.19390651584 -0.94225656986
-0.37905880809 -0.2152031213 -0.89994823933
-0.19207534194 0.54057246447 -0.81891524792
-0.30854728818 0.50044763088 -0.80881989002
-0.26356521249 0.41014561057 -0.87270796299
-0.36396753788 0.42139315605 -0.83061587811
-0.24124982953 0.18828870356 -0.95170229673
-0.38202473521 -0.59927916527 0.70319014788
-0.29759421945 -0.47407361865 0.82864534855
-0.40792411566 -0.11697755754 0.90542167425
-0.24447071552 -0.15592265129 0.95699030161
-0.33384525776 0.0065360316075 0.94257390499
0.029915042222 -0.12669630349 0.99148005247
0.15224486589 -0.10945352167 0.98225975037
0.111817047 -0.25316464901 0.96092563868
-0.022523872554 -0.23749385774 0.97111344337
-0.01276725065 -0.3735383749 0.92744970322
0.13037803769 -0.39477157593 0.90948629379
0.085568204522 -0.57432627678 0.81333345175
0.24435864389 -0.31976982951 0.9154612422
-0.13366174698 -0.28513893485 0.9491032362
-0.13945198059 -0.46469134092 0.87439233065
-0.25487986207 -0.33194771409 0.90813839436
-0.17413170636 -0.61100155115 0.77151364088
-0.21610286832 0.37698224187 0.90065562725
-0.14749287069 0.25003939867 0.95694446564
-0.49514111876 0.011189747602 0.86869668961
-0.45749109983 0.18340289593 0.87006378174
-0.31728619337 0.14442431927 0.93720310926
-0.30019959807 0.26281675696 0.91687631607
-0.42035344243 0.38181817532 0.82307440042
-0.19859844446 0.12319710106 0.97227972746
-0.051891878247 0.11391159147 0.99187529087
-0.17334726453 -0.016305629164 0.98471826315
-0.038406260312 -0.024471005425 0.9989708066
-0.10371267796 -0.14029416442 0.98465567827
[...]
CELL_DATA 998
SCALARS cell_data_0 double
LOOKUP_TABLE default
3.68356448342e-06
1.66530967883e-05
1.17315599503e-05
2.46643810423e-06
7.52684082684e-05
2.40004175479e-05
4.68094520478e-05
1.44024632573e-06
1.31264823274e-08
2.84709078763e-07
1.00084792419e-05
2.02284465588e-05
5.85714471483e-06
7.46813243046e-07
4.33953765499e-07
2.10807201173e-05
4.76224706765e-06
1.24143141362e-05
8.32526306459e-06
8.68553179414e-06
7.5533398392e-06
1.01371321351e-05
1.17236486584e-05
2.56459905111e-05
1.19006288756e-05
1.39137098067e-05
2.26871448115e-05
2.54607698864e-05
4.53722673438e-06
6.12363434847e-07
1.88366711758e-07
4.90027323935e-07
2.79405445706e-07
2.2332002157e-07
1.77091073583e-08
2.92142314783e-07
4.6079403187e-07
2.21153570202e-07
3.18345962096e-06
8.05825862735e-08
9.28774379874e-06
1.34763107832e-06
6.47322904383e-07
7.60721172312e-06
3.22023316921e-07
3.25409903664e-07
6.75582395421e-07
2.27721874334e-07
5.78257069886e-08
6.13952824765e-07
1.28349928318e-05
4.49412896042e-07
4.09466736198e-07
2.35136755595e-07
1.69346438976e-07
1.63828155621e-05
1.80312574607e-05
7.87565353761e-06
2.01150224662e-05
1.24187380277e-05
1.05460499273e-05
1.69439741231e-05
6.25182999415e-06
5.13393234413e-06
1.304718722e-05
6.61699725613e-06
7.88484400086e-06
2.89009615539e-06
6.68394359732e-06
1.67386792735e-05
1.7218307532e-05
6.10546731177e-07
1.67696460743e-05
1.04436441021e-05
1.42807507339e-05
1.96354503177e-05
4.9676998022e-07
2.57962961711e-07
1.4684518918e-07
3.69590759501e-07
2.61955951384e-07
2.87125764233e-07
1.81626307369e-07
2.0892646634e-07
7.04333971236e-07
6.09829405594e-07
9.75888987571e-08
2.00075266387e-07
7.45503664726e-06
3.20222003301e-07
1.4542298135e-06
4.14625793963e-07
2.90590823829e-07
1.27999259335e-06
1.93758960752e-07
9.63721781225e-07
2.239781412e-07
7.12743163821e-07
9.64591261365e-08
1.08050727041e-06
6.11887054742e-08
4.62251870927e-07
8.10906320775e-07
8.22490267392e-08
2.03213444933e-06
1.62609861047e-07
2.24822219385e-07
2.60076551892e-07
1.13016212183e-06
4.10495127141e-07
6.36955706766e-07
7.45203588091e-07
9.55418448838e-09
9.05986725612e-07
1.2032111908e-06
9.60411398075e-07
1.90530437375e-07
3.76134533162e-07
1.32935298227e-07
1.00072625866e-08
2.44779907348e-07
1.21276127341e-05
2.00848295128e-07
2.18097274023e-07
1.60504215797e-08
8.28532050271e-07
2.44086099784e-07
2.62057885217e-07
2.59836653886e-07
2.42581728388e-05
2.93094851601e-08
6.39081729122e-08
1.24409325961e-07
1.0302677793e-07
1.33501596112e-07
1.85996778663e-07
2.5485426564e-07
1.17402758957e-06
4.55080389999e-05
6.31070908542e-06
1.66697639162e-07
1.32187889076e-06
2.17009817404e-06
1.04492117858e-06
1.03711660456e-06
2.93759341431e-05
9.7216150023e-08
2.730816217e-08
1.07113724912e-07
3.29269136154e-06
2.87802015981e-07
2.53285394908e-07
1.57227172849e-07
3.79191119654e-06
3.38075311865e-06
3.78281859584e-06
1.39925345037e-08
8.27780264478e-08
8.04583687139e-08
3.32839863619e-06
2.5171304672e-07
7.90131541286e-06
7.94843835714e-06
6.98984583231e-06
3.71706496008e-06
3.67901783114e-06
8.18529426479e-06
7.57215075302e-06
7.70228777333e-06
1.96046419421e-07
1.4728728466e-05
5.79808625567e-05
5.72348828492e-05
4.13076521975e-05
6.6012676159e-05
7.33070864869e-05
4.68677781586e-05
5.44887184478e-05
5.56349677736e-05
7.89219242129e-05
4.02572118013e-05
4.69037932194e-05
8.45369148465e-05
4.42589214015e-05
3.13863092035e-05
1.33704344517e-05
1.62706255084e-05
1.47175327076e-05
1.61972163356e-05
3.45263642221e-05
1.70183154447e-05
4.2974536648e-05
3.7212420259e-05
1.35650629918e-05
3.11827860553e-05
1.13584192778e-05
1.13849663305e-05
4.19300051434e-06
1.7729639126e-05
5.88462469816e-06
4.48621413323e-06
1.67294472554e-05
1.64526054213e-05
5.35524035573e-06
6.31716723245e-06
3.50840688034e-05
3.12606359919e-05
2.66935578893e-06
6.5528605041e-05
9.53186681069e-06
1.83243795384e-05
1.54357095719e-05
1.49387106629e-05
1.15794822114e-05
1.28946895553e-05
8.05520892076e-06
4.83045019779e-06
9.09374924097e-06
9.2296184726e-06
6.88259444154e-06
5.490800499e-06
5.32352521974e-06
1.16685934687e-05
1.54097516586e-06
1.24579024046e-05
2.34758310323e-05
5.9953508449e-06
5.25731671696e-06
7.31836883602e-06
5.95599815195e-06
6.68784588992e-06
4.76416706799e-06
5.80427892342e-06
4.63646323065e-06
5.21410025166e-06
4.01133589366e-06
5.22088904005e-06
8.29818168014e-06
8.85779720714e-06
4.93804213861e-06
2.14410797855e-05
7.99951797456e-06
1.44389595894e-05
2.06730133661e-05
1.52493205462e-05
1.5761570452e-05
9.85871030106e-06
6.92915125025e-06
1.06778645276e-05
6.84533787104e-06
1.84100710291e-05
1.76540521344e-05
1.70913630106e-05
8.33806045534e-06
6.98066801426e-06
1.3035268981e-05
1.31280198779e-05
9.40935473515e-06
5.40951728511e-06
1.37998632719e-05
1.26478362548e-05
8.74382893786e-06
6.90049520243e-06
7.62745274386e-06
4.24071925732e-06
2.33092061163e-06
7.43736143194e-06
2.68355828455e-08
2.75135335065e-07
3.12873612858e-07
1.90312695767e-06
1.89563015529e-06
3.40504310598e-06
7.84536341003e-06
8.74301854133e-06
1.48593135524e-05
3.46479995914e-06
9.59401603819e-07
9.185445686e-07
3.64761045757e-07
7.38115269215e-06
1.5507528844e-05
1.26743360253e-05
1.94838294979e-06
1.65824372119e-06
2.54231023737e-06
3.00043672318e-06
3.74609549802e-08
2.24485562032e-08
3.86394085414e-08
3.52466918886e-09
2.99301078048e-08
1.68009015995e-08
5.3948012687e-09
5.68045532398e-09
5.36634710855e-08
4.36738476834e-07
4.66819782371e-07
2.94317359293e-07
4.79528945041e-07
1.31612637877e-06
1.29460011055e-06
7.36210963675e-08
8.89177135955e-07
5.07991888957e-07
4.34765681736e-07
9.91867807832e-09
4.32097802395e-07
2.88827722489e-09
3.10717565956e-08
5.50796676516e-06
7.99500577637e-06
1.93419508414e-07
1.13195771449e-07
1.52777055628e-07
1.83840939015e-07
7.17738446213e-09
8.51524666726e-07
1.06444534027e-06
9.46976440689e-07
5.22142981663e-06
7.70505127619e-06
4.84429315749e-06
5.57799427645e-06
5.65459437232e-06
6.42392958209e-06
9.7423290135e-06
7.96729127201e-06
1.3844073835e-05
1.16299179702e-05
8.04613513127e-06
6.59434313352e-06
8.95788015716e-06
1.0269937812e-06
7.34881498043e-06
7.98627414014e-06
6.34071064363e-06
5.14393045739e-06
8.53429379149e-06
1.89789695126e-06
1.06226065821e-07
1.67961697253e-07
6.73012000503e-08
2.37244210118e-07
1.97603784051e-07
1.62875692656e-07
1.73773794693e-08
1.81360676111e-08
1.51573429365e-08
7.28552076472e-08
4.08196279887e-08
2.57448155787e-07
1.77821542287e-07
3.11599196526e-08
1.04355534364e-07
1.24098960954e-10
3.15457013701e-08
2.21180332821e-08
1.48059482623e-08
8.28659602378e-10
1.88142471967e-08
1.79537523065e-09
1.5175288273e-08
5.26506530303e-09
4.41179430862e-08
4.61570288867e-08
4.15652719663e-08
6.24145269434e-06
6.05512846287e-06
7.2082407459e-06
1.76079280107e-05
8.48219380501e-06
7.11673890912e-06
1.29079361364e-05
8.6125561423e-06
1.05113688705e-05
1.55959303951e-05
4.62685404225e-05
7.35802310648e-05
3.23872712333e-05
4.20163959759e-08
3.53200873286e-07
2.87841854655e-07
3.77272881676e-07
7.98131553078e-06
7.37055728108e-06
3.06021166326e-07
1.39622574067e-05
6.85565108203e-06
5.19165523796e-06
7.24556273349e-06
9.46989938094e-06
1.00056247715e-05
6.92269491397e-06
7.23463080497e-06
8.66146151203e-06
6.66444028681e-06
4.4026110758e-06
4.03319061156e-06
5.36758462916e-06
6.03700072553e-06
7.89830238577e-06
1.75196892578e-05
5.75844489563e-06
5.37962376805e-06
7.40232969041e-06
8.09544871195e-06
1.51728795529e-07
2.40184012837e-08
1.32253095777e-07
4.31560309569e-06
6.33954634781e-08
6.14299400984e-06
6.56556788229e-06
3.67790575728e-07
4.21703772445e-10
2.69723250135e-08
5.01719972081e-08
4.5367955015e-08
1.06246413016e-05
2.04108370544e-06
2.48167909109e-08
9.06545674305e-08
2.45864964128e-08
3.77878544615e-06
3.70871420321e-07
2.07381950748e-07
2.19918631874e-07
1.06655866005e-05
3.27691397586e-07
1.23759382683e-07
2.23330340271e-06
1.79604872037e-06
1.13298075569e-06
2.01390237966e-06
1.07306944222e-06
9.22400958476e-07
1.4686387632e-08
5.06078008236e-08
1.20389031685e-07
1.98275417606e-08
1.07928866736e-06
9.68165888524e-06
1.15582142142e-05
9.16790934944e-09
1.37611234987e-06
1.93539668983e-08
2.63006436517e-06
1.05531994275e-06
1.00838194169e-06
1.07967813459e-06
1.12221850081e-06
2.93269399773e-06
2.28466213742e-08
1.57586237868e-08
1.19841844923e-07
1.67097995658e-08
1.33182395579e-08
3.79460783832e-09
7.45391404631e-08
3.6954315812e-08
6.77846537679e-08
4.9839062946e-07
6.26207319299e-08
4.30561894109e-07
3.42578643138e-07
4.17810425159e-07
1.53610969415e-05
1.08093128993e-05
1.23199714941e-08
5.92116001658e-07
1.37201156714e-05
1.41528853104e-05
4.24626359107e-07
2.16252343921e-10
6.45913186254e-07
1.32573556982e-06
6.93998176833e-07
2.71607421621e-08
2.28072360481e-06
1.04769046546e-06
7.23821365666e-07
2.43155364449e-08
1.07860551898e-05
3.05968421644e-06
1.59321817612e-05
7.68481563729e-09
2.21163733373e-08
7.03374426463e-07
3.74749274907e-07
1.94247523472e-07
1.96981458437e-07
2.30869897263e-06
1.88781517492e-07
1.5823997188e-07
6.68872995913e-08
2.73587726047e-06
1.47234134278e-05
2.05385328836e-10
2.74126948003e-06
2.20038661708e-06
1.67886455191e-07
1.05423088532e-06
2.45760979532e-06
2.50945556634e-06
9.33097847539e-07
1.72513796547e-07
3.72277620026e-07
1.19861632874e-06
1.75801371144e-06
2.82546439621e-07
1.08158695826e-07
7.17917508302e-08
4.23788099006e-07
1.40977817583e-07
3.14336894084e-06
1.10078630874e-06
9.36004614617e-07
1.15015795275e-07
8.64445510785e-08
1.66182999983e-09
2.21147649569e-07
5.69791036658e-08
7.84914643974e-08
1.55705040923e-05
8.49869222034e-06
1.2195702609e-07
2.72293965542e-08
1.35845102647e-07
4.91136408666e-10
7.35503538125e-08
2.01855869429e-08
6.05311003145e-06
6.37593842338e-06
3.98840179229e-07
8.78814228476e-08
1.36056263929e-06
2.6948457999e-06
9.29231684746e-07
5.76761980568e-07
5.51426298338e-06
2.70515352122e-06
7.83281394285e-07
1.72578925274e-07
2.59246227886e-07
5.9141180169e-06
3.55496024531e-06
2.29217537411e-06
3.51240652039e-08
7.14154546775e-06
7.36159361104e-06
5.27662844624e-06
6.10872833847e-07
2.69504042418e-07
3.68851357805e-07
4.60394772629e-07
3.02284949799e-07
5.72076453442e-08
3.68459823854e-09
1.49749718082e-07
1.58213874766e-11
2.20736916622e-07
7.77439786554e-08
2.96459354149e-07
6.25154756065e-06
7.86969071049e-07
1.28583883951e-07
3.0006391598e-07
6.54378306484e-07
3.46022849368e-07
2.8442062686e-07
7.61186959238e-07
6.25647573627e-07
4.16790978035e-06
5.60107854943e-06
1.29779895864e-06
1.07994650423e-06
1.08659848862e-06
3.28636183661e-06
1.03750885473e-05
8.67031153181e-06
5.76950559812e-08
1.31359993146e-06
2.17806390565e-06
3.17251239247e-07
1.73944366007e-07
2.38389290408e-07
3.96762385777e-07
1.87451230451e-07
1.62354701362e-07
2.56528872605e-07
1.62125554315e-07
4.80747303041e-07
6.18711475273e-06
5.61016736908e-06
5.99419264989e-07
5.62535741508e-07
3.13488361181e-07
2.97198903025e-07
9.22309829834e-07
5.45815073711e-08
6.81379584926e-07
1.5259520616e-05
7.91310159896e-07
9.83000236436e-07
3.5223395778e-07
7.53145401502e-07
3.99357698564e-08
1.2724274945e-07
2.01821468387e-07
9.64642956008e-08
8.19335857684e-08
1.5758201883e-07
2.05210750228e-07
3.28321085752e-05
1.45631723406e-05
1.72291298368e-07
4.13315321648e-07
1.18921524339e-05
4.14801697872e-07
1.57651927906e-05
1.47414317373e-05
1.0524711748e-05
9.56609605876e-07
9.87712849546e-08
1.22321461216e-07
2.77647085491e-07
1.12497345793e-07
3.13875728451e-07
2.20906391433e-07
6.06891363036e-07
1.88492006234e-07
5.6250842616e-07
9.29551553834e-07
2.10071231478e-06
1.04666527194e-06
2.97363134191e-07
5.17265745831e-09
3.95348178353e-06
5.03855962672e-06
2.50978075551e-07
2.68858703975e-07
3.57487154688e-07
2.26517261061e-07
3.06022368133e-07
3.05733131886e-07
5.97539455551e-07
6.04415855583e-07
2.1362311095e-07
3.39711544565e-08
5.06135889503e-07
5.05541766566e-06
8.25909855964e-07
6.41580952219e-07
4.8577425535e-07
1.72166310817e-06
4.56508372425e-07
4.57505974716e-07
1.16128889743e-06
1.34137531236e-06
1.84293365451e-06
9.83534509076e-07
1.5287104088e-06
3.97981026996e-06
3.02671289355e-06
4.75928844779e-06
1.3507801782e-06
9.3400030631e-07
7.59777866061e-07
2.08405230584e-06
4.68787859203e-06
2.20014983942e-06
1.6109681378e-06
2.14217264654e-06
9.19280705601e-06
7.21238995445e-10
1.08715623997e-05
8.80180799958e-06
9.42453878509e-06
1.66253258439e-08
1.26620545114e-05
6.01871193059e-07
3.88834897571e-06
1.57085364133e-06
1.14880370309e-06
5.13323090788e-07
4.33184210028e-07
8.28164004582e-07
9.99086926108e-06
1.10001021428e-05
4.05270073149e-06
5.67185781613e-06
6.66036137138e-06
7.62306828218e-06
2.24411422118e-05
7.89646639988e-06
3.0318198892e-05
2.0700104305e-05
4.41899106499e-07
1.66450904723e-07
2.25489583001e-07
3.39196241375e-07
1.96605610747e-07
3.24319951551e-07
2.41072156733e-07
1.23622429641e-05
1.59653643515e-08
4.44531128177e-08
7.33159175634e-07
8.91400613149e-07
1.34857157103e-06
1.22961165678e-07
6.63641073256e-07
1.01473452737e-05
6.14567587802e-08
3.68079563037e-08
1.02044878499e-05
1.39230055287e-05
7.06091375016e-08
3.13176395318e-05
1.1560894619e-07
1.12075558418e-07
1.55252539217e-05
8.1823760717e-06
7.05639436327e-06
9.69690119743e-06
1.00998030217e-05
1.34019460004e-07
3.19468966556e-06
7.25223366488e-06
6.3345238288e-06
2.06927710623e-07
1.83576149806e-07
3.70275693412e-08
4.0592092747e-08
1.33169539968e-05
5.33778036576e-07
9.87064944983e-06
8.68420458298e-06
2.43978853948e-08
1.8299803881e-07
6.35502974889e-08
3.55964629418e-08
2.25538151396e-07
1.85542590622e-07
8.69516953691e-09
2.93815265532e-07
8.395677433e-07
6.08896763032e-07
1.36480613548e-05
1.38178698488e-07
8.8665515925e-07
1.71165711037e-05
2.06460845474e-07
5.27048718197e-07
1.23497195686e-05
1.34315336718e-05
9.93434962717e-06
1.78362221e-07
6.17016439501e-06
1.16065242209e-05
2.16476832544e-05
2.64422210352e-05
2.78542821006e-05
6.02802446719e-06
2.19494969905e-05
2.11505680705e-07
2.5413085345e-07
1.27494513236e-07
9.91850900112e-08
6.56961351223e-07
3.2144097904e-07
2.99586151356e-07
3.70173935358e-07
4.97396003302e-08
7.67399606544e-08
3.26772557938e-08
7.49499518019e-07
7.50556675894e-07
1.63813020333e-06
1.33832763923e-05
1.00587602653e-06
1.63917163638e-05
1.27394571407e-05
2.58916666006e-05
2.60881813072e-05
1.32539450723e-05
1.12388303636e-06
1.30679397845e-06
1.94162849384e-07
2.34909179493e-07
1.67730756532e-05
9.20704429038e-06
1.15387682861e-06
3.94572780499e-06
1.53737937322e-05
2.89739063376e-06
3.25008044447e-06
6.14336000143e-05
1.90424013213e-05
6.94767872255e-06
3.83189600792e-06
5.37460518051e-06
3.03885607911e-06
3.24487420035e-06
3.36722473447e-07
1.46578927353e-06
3.5172878682e-07
4.86191335629e-06
2.27479106325e-06
2.44445936216e-07
1.48342140997e-06
2.71664192314e-06
2.11625927807e-06
2.89550320743e-06
1.81742651014e-06
1.60442621475e-06
2.24590248853e-06
1.67227370942e-06
1.94984341362e-06
1.50067899782e-06
9.57726037811e-07
1.82150396643e-05
2.79857931773e-06
1.64680975021e-05
1.56921076893e-06
3.43124189938e-06
4.80711212375e-07
1.83993620609e-06
3.15772415064e-07
1.62752045494e-05
2.90804879371e-05
2.86823543223e-06
3.78482287373e-06
1.76937696628e-06
3.43204859589e-06
8.47639090472e-07
1.28677971123e-06
9.42514445159e-06
8.82675605107e-06
2.23008567498e-06
2.1122093008e-06
1.72005229398e-06
1.40834659784e-05
1.0084966283e-05
2.50569685649e-06
9.04800323696e-07
7.33352681923e-06
1.97298221753e-07
2.48804696039e-07
1.39046392136e-05
8.08207430533e-06
3.09751498704e-06
3.67630678447e-06
4.60379544872e-06
4.37169418379e-06
1.12759427638e-05
1.17030479208e-05
7.0390147987e-06
7.47892735457e-06
7.39192300694e-08
9.48447462173e-08
5.19188178235e-06
1.56195261124e-06
2.1627126154e-05
1.07220145147e-05
9.18731219883e-06
9.2831211742e-06
1.07503587464e-05
1.40532474563e-05
2.38372754239e-06
2.17988888418e-08
2.67441305542e-06
9.31009835605e-09
4.18982756621e-06
2.85464770162e-06
3.04791326024e-06
2.85060364107e-09
4.35207951206e-06
3.58408614126e-06
4.9123848549e-06
6.44141409708e-06
7.09383109519e-06
1.40345554852e-05
1.41736614948e-05
1.39955600623e-05
4.78004249401e-06
2.74934619205e-06
6.03772792261e-06
4.42219005715e-06
3.82958477388e-06
2.70972672293e-06
5.27153476394e-06
2.94256932227e-06
4.99782802717e-08
1.82151398682e-06
7.68369366245e-06
2.29451985058e-06
8.57787139481e-06
7.24444298738e-06
4.0477034296e-06
3.94145558858e-06
1.06590194138e-07
5.84363260367e-08
8.76458568772e-08
1.15536800469e-07
2.86206352966e-06
3.14462526738e-06
5.3323024884e-06
9.10088517491e-06
5.84532159903e-06
5.99685626586e-06
6.83514221146e-08
1.39039658532e-07
1.8589575909e-06
3.18620251676e-06
3.74038725948e-05
1.18171657878e-05
1.02499994482e-05
1.18397609057e-06
8.63078637101e-06
3.92553621388e-06
2.41470810368e-06
2.58221441928e-06
9.33415629703e-07
4.76847457657e-06
5.26820484528e-07
7.57206240894e-07
6.23307042192e-07
7.55172184772e-06
1.29569832304e-05
6.19021820385e-08
6.29945317616e-06
5.72893146327e-06
8.50330398368e-06
1.05231629612e-07
1.45667549345e-07
6.56005201475e-06
5.76778934768e-07
2.66039240745e-05
1.08617896555e-05
5.80699509703e-06
4.83092437857e-06
6.19418248233e-06
8.08798272751e-07
8.19035765654e-07
4.22477885966e-06
6.061621828e-06
2.71899913275e-06
1.2465898834e-07
2.46475632165e-06
4.65694072891e-06
5.01251385815e-06
7.87146741472e-06
1.12332444465e-06
3.69897168392e-09
4.00400692689e-06
2.40265700974e-06
4.99985498889e-06
1.40782539601e-06
2.53517911449e-06
8.7746537705e-10
4.06759284151e-06
4.17801162761e-09
4.50759398646e-09
2.17471597927e-09
2.08081745343e-06
2.38191398458e-06
1.82577487055e-05
3.38739727841e-05
1.25026507995e-05
1.25965493694e-05
6.37658240835e-06
8.99542759968e-08
1.6055236677e-06
7.61696208034e-06
2.3576366124e-06
1.59790567292e-09
2.28015827182e-08
3.37219144297e-06
9.25337050507e-06
6.96444120786e-07
3.61052721057e-09
1.36092981938e-09
2.45374172384e-06
1.58234396932e-06
1.59815126809e-06
1.56874004445e-09
2.37765722264e-06
1.61869776005e-06
2.68673618729e-06
4.94883789573e-09
1.94153346616e-06
2.71346493802e-06
1.34957339875e-07
3.10416817598e-06
6.41414180196e-09
2.4847018647e-06

