# vtk DataFile Version 3.0
File Name: Molecule/sphere_excent/sphere_excent_0-s20.vtk
ASCII
DATASET UNSTRUCTURED_GRID
FIELD FieldData 1
TIME 1 1 double
0.0
POINTS 198 double
0.0069113825448 0.84902685881 0.52806180716
-0.46476262808 0.78305441141 0.41280895472
-0.3322237134 0.5863623023 0.73840624094
-0.3434702158 -0.59876847267 0.72394007444
0.0073391115293 -0.84750175476 0.53073400259
0.02172980085 -0.49153903127 0.87073612213
0.34827151895 -0.57734721899 0.73801082373
0.500428617 -0.80934792757 0.30726212263
0.83452928066 -0.32636895776 0.44137585163
0.84931623936 -0.52244508266 0.026611126959
0.99092251062 -0.10847683251 0.079955674708
0.51761996746 0.72976922989 0.44565543532
0.37176254392 0.56295198202 0.737647295
0.73838430643 0.32866343856 0.5876827836
-0.85789436102 -0.33764564991 -0.38778504729
-0.84148162603 -0.53954583406 0.019701583311
-0.992223382 -0.10495951027 0.063537314534
-0.54404532909 -0.80114132166 -0.24831837416
-0.49700263143 -0.81453573704 0.29906457663
-0.00068392546382 -0.99966210127 0.013684934005
-0.79916042089 -0.33466550708 0.49948614836
-0.86937212944 0.20053306222 0.45011287928
0.51711505651 -0.82311654091 -0.22788110375
0.0026856989134 0.99979376793 0.0056110084988
-0.27429655194 0.94464063644 0.17965091765
-0.26103782654 0.94808405638 -0.17907379568
-0.52121782303 0.85328477621 -0.0019303690642
-0.46384170651 0.79105496407 -0.39647373557
0.033200059086 0.8999620676 -0.42716482282
0.27234327793 0.95012801886 -0.15193738043
0.27964168787 0.93917346001 0.19859109819
0.46304938197 0.88606977463 0.02008507587
0.43811297417 0.81856113672 -0.36917153001
0.59485220909 0.49999302626 -0.62929838896
0.40159350634 0.68986600637 -0.59995937347
0.62719929218 0.64102447033 -0.44191101193
0.092147469521 0.78911143541 -0.6048849225
0.95013773441 -0.21392092109 -0.22744117677
0.78780978918 -0.42863121629 -0.43904083967
0.87383306026 -0.10467781126 -0.47492611408
0.97161668539 0.032685779035 -0.2326708585
0.49820041656 -0.029052939266 -0.86668157578
0.42578539252 -0.26432806253 -0.86530166864
0.26680925488 0.017367614433 -0.96348357201
0.16030690074 -0.23784042895 -0.95795947313
0.31780365109 -0.5041808486 -0.80302119255
-0.027941644192 0.061738528311 -0.99773824215
0.68423765898 -0.22835053504 -0.69252055883
0.5674648881 -0.45414751768 -0.6865836978
0.46761468053 -0.67763566971 -0.5678075552
0.6768732667 -0.64670085907 -0.34964865446
0.1564476043 0.40262401104 -0.89817017317
0.71548449993 0.34513351321 -0.60732811689
0.75016772747 0.47634643316 -0.45854562521
0.43567216396 0.45366346836 -0.7770152092
0.57688802481 0.31667226553 -0.75277858973
0.42255073786 0.23216418922 -0.87609398365
0.59236037731 0.13529452682 -0.79413449764
0.68185204268 0.21293987334 -0.69977486134
0.82635676861 0.31603500247 -0.46605959535
0.77437531948 0.19909213483 -0.60041034222
0.75154995918 -0.046628098935 -0.65785121918
0.014627912082 0.54385501146 0.83890044689
-0.19551153481 0.35387206078 0.91455638409
-0.45285391808 0.32127344608 0.83114278316
-0.59845727682 -0.052757259458 0.798604846
-0.46886068583 -0.28490176797 0.83569180965
-0.36668309569 -0.055694434792 0.92855918407
-0.21728551388 -0.29978951812 0.92884999514
0.93721216917 0.12879016995 0.32349687815
0.96725434065 0.23061345518 0.10224620253
0.85134315491 0.43769130111 0.28924897313
-0.95027029514 0.076195217669 -0.30152997375
-0.72940629721 -0.11787530035 -0.67361032963
-0.8127117753 0.21963182092 -0.53953748941
-0.866094172 0.41733825207 -0.27486559749
-0.96285939217 0.26925724745 0.015800887719
-0.84852409363 0.52902930975 0.0046929111704
-0.66489475965 0.58546227217 -0.46359536052
-0.70691299438 0.68118929863 -0.19058255851
-0.69837158918 0.68725007772 0.19935853779
-0.45560225844 -0.31791195273 -0.83094871044
-0.59874713421 -0.46682712436 -0.65068852901
-0.33846494555 -0.54149383307 -0.76950544119
-0.36344227195 -0.75060749054 -0.55134046078
0.52498584986 0.83710336685 -0.15284174681
0.67330807447 0.70993900299 -0.20599289238
0.66032451391 0.75107216835 0.0040066493675
0.82393485308 0.56607240438 -0.0072561251
0.72159987688 0.66748458147 0.18395248055
0.54688900709 0.81564378738 0.18867966533
-0.65844756365 0.54021435976 0.52375757694
-0.84333741665 0.46489810944 0.26951003075
0.83866721392 0.44492799044 -0.31320384145
0.77215045691 0.57159978151 -0.27754434943
-0.14234891534 -0.037320267409 0.98891592026
0.068730607629 -0.032293055207 0.99710452557
-0.018478466198 -0.20735627413 0.97791618109
0.1868775636 -0.23609434068 0.95341968536
-0.19456365705 0.31033247709 -0.9304599762
-0.32097661495 0.082403749228 -0.94336181879
-0.45278835297 0.2776375711 -0.84705108404
-0.2272335887 -0.10927564651 -0.96727013588
-0.45063197613 -0.10429120064 -0.8865673542
-0.55764865875 0.030804306269 -0.82933050394
0.4980070591 0.27500882745 0.82231491804
-0.0010671565542 0.29698336124 0.95479917526
0.17080233991 0.28949439526 0.94171589613
-0.05982799083 0.13480210304 0.98897898197
0.137139678 0.13117735088 0.98180240393
0.29454752803 0.39149290323 0.87174427509
-0.26813727617 0.14736615121 0.95155227184
-0.53540730476 0.12876531482 0.83448964357
0.34137922525 0.16827116907 0.92478102446
0.52697765827 -0.028180239722 0.84909069538
0.27529594302 -0.016501571983 0.96121370792
-0.28498357534 0.54248839617 -0.7900403738
-0.076841004193 0.52093315125 -0.84960830212
0.092739187181 -0.58776050806 -0.80351191759
0.087346382439 -0.44287741184 -0.89218056202
-0.012512367219 -0.90752196312 -0.41839963198
0.22969812155 -0.90153896809 -0.36565729976
0.85575127602 0.14315474033 -0.49711620808
0.80212277174 0.061893671751 -0.59386926889
0.71643155813 0.088570021093 -0.69198143482
0.65081113577 -0.0073969662189 -0.7591843009
0.24813009799 -0.67512923479 -0.69474697113
0.097625732422 -0.83706128597 -0.53821337223
0.30077943206 -0.79789680243 -0.52231532335
0.13500796258 -0.75061273575 -0.64645272493
-0.25610488653 -0.88796162605 -0.38160252571
-0.016088435426 -0.75741690397 -0.65256285667
0.070273160934 -0.68819904327 -0.72206479311
-0.047166083008 -0.67145931721 -0.73955774307
-0.18690811098 -0.72098147869 -0.66720533371
-0.12544338405 -0.82927215099 -0.54471027851
-0.15256479383 -0.62019020319 -0.76934975386
-0.054201982915 -0.58601677418 -0.80848014355
-0.13025903702 -0.53145718575 -0.8369948864
-0.027169879526 -0.50169157982 -0.86447381973
-0.73323518038 0.40819460154 -0.54381048679
-0.64849793911 0.28501364589 -0.70578360558
-0.58392548561 0.44019541144 -0.6819331646
-0.67726927996 0.13027045131 -0.72372311354
-0.4196678102 0.4331228137 -0.7974781394
-0.48574951291 0.58452939987 -0.64937132597
-0.54130506516 0.16639946401 -0.82423210144
0.49544963241 -0.29906234145 0.81550395489
0.6926458478 -0.18267956376 0.69771051407
0.61281907558 -0.44735047221 0.65106755495
0.81905424595 0.0010033338331 0.57363295555
0.67288690805 0.11431398988 0.73082756996
-0.74059051275 0.087777838111 0.66534858942
-0.67830449343 0.27372276783 0.68173402548
0.29598942399 -0.38477832079 0.87421530485
0.37482279539 -0.1745121181 0.91052907705
-0.22509595752 -0.44617170095 -0.86622554064
-0.29441452026 -0.34138742089 -0.89235335588
-0.0078256325796 -0.31222710013 -0.94994187355
-0.14557698369 -0.36309996247 -0.92025029659
-0.041088137776 -0.41356512904 -0.90954506397
-0.12305168808 -0.45169457793 -0.88363993168
-0.21688035131 -0.53268814087 -0.81805902719
0.92095309496 0.10343890637 -0.37467971444
0.91654729843 0.39751511812 0.041940622032
0.98495310545 0.1525836736 -0.075523711741
0.85845255852 0.48434796929 -0.16841457784
0.9390642643 0.17998631299 -0.2929341197
0.95962190628 0.21275085211 -0.1838863641
0.9250524044 0.29104655981 -0.24394920468
0.90328794718 0.26434928179 -0.33781272173
0.93279147148 0.32805210352 -0.14918297529
0.88494336605 0.34836629033 -0.30892547965
0.89538371563 0.39091044664 -0.21326224506
0.9022539258 0.42362430692 -0.080971345305
0.89001500607 0.20418058336 -0.40773659945
0.95563620329 0.29089769721 -0.045897554606
-0.05382104218 -0.18207173049 -0.98168706894
-0.3314653933 -0.22205275297 -0.91696941853
-0.18237709999 -0.24881331623 -0.95124983788
-0.27383762598 0.82783299685 -0.48507958651
0.14439181983 0.55427849293 -0.8194887042
-0.12929558754 0.62934565544 -0.7663167119
0.0084314243868 0.61888605356 -0.78539121151
-0.042273968458 0.71459692717 -0.69805854559
-0.21342840791 0.70010536909 -0.68102067709
0.11747201532 0.67632728815 -0.72716778517
-0.091599494219 0.81621164083 -0.56907957792
0.70917385817 -0.69573456049 -0.11355763674
0.83821886778 -0.50027954578 -0.2168777138
0.41191899776 0.57805365324 -0.70438981056
0.2581140399 0.681902349 -0.6844894886
0.27856522799 0.57685089111 -0.76778191328
0.30118393898 0.4476942718 -0.84195941687
-0.33831697702 0.7561390996 -0.56054663658
-0.474904567 0.69721835852 -0.53695714474
-0.35168799758 0.65934532881 -0.6646168232
-0.16700141132 0.76673209667 -0.61926686764

CELLS 392 1568
3 0 1 2
3 3 4 5
3 6 4 7
3 8 7 9
3 9 10 8
3 11 12 13
3 11 0 12
3 14 15 16
3 15 17 18
3 17 19 18
3 18 19 4
3 15 18 20
3 18 3 20
3 18 4 3
3 21 16 20
3 20 16 15
3 14 17 15
3 22 7 19
3 19 7 4
3 23 24 0
3 0 24 1
3 23 25 24
3 25 26 24
3 25 27 26
3 24 26 1
3 28 25 23
3 29 30 31
3 29 23 30
3 23 29 28
3 28 29 32
3 11 30 0
3 30 23 0
3 33 34 35
3 35 34 32
3 28 32 36
3 9 37 10
3 38 39 37
3 39 40 37
3 37 40 10
3 41 42 43
3 42 44 43
3 42 45 44
3 43 44 46
3 41 47 42
3 47 48 42
3 47 38 48
3 42 48 45
3 49 48 50
3 43 46 51
3 38 47 39
3 52 33 53
3 54 55 56
3 54 33 55
3 41 56 57
3 55 52 58
3 55 33 52
3 52 59 60
3 51 56 43
3 43 56 41
3 47 61 39
3 2 62 0
3 0 62 12
3 2 63 62
3 2 64 63
3 65 66 67
3 66 68 67
3 66 3 68
3 3 66 20
3 20 66 65
3 10 69 8
3 10 70 69
3 70 71 69
3 69 71 13
3 13 71 11
3 16 72 14
3 14 72 73
3 74 72 75
3 72 76 75
3 72 16 76
3 75 76 77
3 27 78 79
3 78 75 79
3 79 75 77
3 21 76 16
3 27 79 26
3 26 79 80
3 74 73 72
3 81 82 73
3 81 83 82
3 73 82 14
3 14 82 17
3 17 82 84
3 32 85 86
3 85 87 86
3 85 31 87
3 86 87 88
3 88 87 89
3 87 90 89
3 87 31 90
3 89 90 11
3 31 85 29
3 29 85 32
3 11 90 30
3 30 90 31
3 32 86 35
3 88 89 71
3 71 89 11
3 1 91 2
3 2 91 64
3 1 80 91
3 80 92 91
3 80 77 92
3 91 92 21
3 77 80 79
3 26 80 1
3 59 53 93
3 53 94 93
3 53 35 94
3 35 53 33
3 52 53 59
3 67 68 95
3 96 97 98
3 97 5 98
3 97 68 5
3 6 5 4
3 5 68 3
3 21 92 76
3 76 92 77
3 88 94 86
3 86 94 35
3 46 99 51
3 46 100 99
3 100 101 99
3 46 102 100
3 102 103 100
3 100 103 104
3 104 103 73
3 103 81 73
3 12 105 13
3 63 106 62
3 106 107 62
3 63 108 106
3 108 109 106
3 108 96 109
3 106 109 107
3 107 110 62
3 62 110 12
3 67 111 112
3 64 111 63
3 63 111 108
3 111 95 108
3 111 67 95
3 108 95 96
3 12 110 105
3 110 113 105
3 110 107 113
3 105 113 114
3 107 109 113
3 109 115 113
3 109 96 115
3 113 115 114
3 98 115 96
3 96 95 97
3 97 95 68
3 116 117 99
3 99 117 51
3 118 119 45
3 45 119 44
3 120 121 19
3 121 22 19
3 48 49 45
3 58 57 55
3 55 57 56
3 122 60 59
3 52 60 58
3 122 123 60
3 123 124 60
3 123 61 124
3 60 124 58
3 61 123 39
3 39 123 122
3 58 124 57
3 124 125 57
3 124 61 125
3 57 125 41
3 41 125 47
3 125 61 47
3 45 126 118
3 120 127 121
3 127 128 121
3 127 129 128
3 121 128 22
3 22 128 49
3 128 126 49
3 128 129 126
3 49 126 45
3 17 130 19
3 130 120 19
3 129 131 132
3 131 133 132
3 131 134 133
3 132 133 118
3 134 84 83
3 83 84 82
3 134 135 84
3 135 130 84
3 135 120 130
3 84 130 17
3 83 136 134
3 134 136 133
3 136 137 133
3 136 138 137
3 133 137 118
3 119 118 139
3 129 132 126
3 126 132 118
3 134 131 135
3 127 131 129
3 120 135 127
3 127 135 131
3 74 140 141
3 140 142 141
3 140 78 142
3 141 142 101
3 78 140 75
3 140 74 75
3 74 143 73
3 73 143 104
3 116 144 145
3 144 142 145
3 144 101 142
3 145 142 78
3 101 146 141
3 146 143 141
3 146 104 143
3 141 143 74
3 104 146 100
3 100 146 101
3 101 144 99
3 99 144 116
3 114 147 148
3 147 149 148
3 147 6 149
3 148 149 8
3 8 149 7
3 7 149 6
3 8 150 148
3 150 151 148
3 150 13 151
3 148 151 114
3 65 152 20
3 152 21 20
3 65 112 152
3 112 153 152
3 112 64 153
3 152 153 21
3 21 153 91
3 153 64 91
3 64 112 111
3 112 65 67
3 13 150 69
3 69 150 8
3 98 154 155
3 154 147 155
3 154 6 147
3 155 147 114
3 6 154 5
3 5 154 98
3 156 83 157
3 114 151 105
3 105 151 13
3 98 155 115
3 115 155 114
3 44 119 158
3 159 160 161
3 160 139 161
3 160 119 139
3 161 139 138
3 159 161 156
3 162 156 138
3 161 138 156
3 156 162 83
3 83 162 136
3 136 162 138
3 138 139 137
3 137 139 118
3 122 163 39
3 39 163 40
3 70 164 71
3 164 88 71
3 40 165 10
3 165 70 10
3 88 166 94
3 94 166 93
3 40 167 168
3 167 169 168
3 167 170 169
3 168 169 171
3 170 172 169
3 172 173 169
3 172 93 173
3 169 173 171
3 93 172 59
3 59 172 170
3 171 173 174
3 173 166 174
3 173 93 166
3 174 166 88
3 170 175 59
3 59 175 122
3 122 175 163
3 175 167 163
3 175 170 167
3 163 167 40
3 40 168 165
3 168 176 165
3 168 171 176
3 165 176 70
3 70 176 164
3 176 174 164
3 176 171 174
3 164 174 88
3 44 177 46
3 177 102 46
3 102 178 103
3 178 81 103
3 44 158 177
3 158 179 177
3 158 159 179
3 177 179 102
3 102 179 178
3 179 157 178
3 179 159 157
3 178 157 81
3 81 157 83
3 156 157 159
3 159 158 160
3 160 158 119
3 25 28 180
3 51 117 181
3 117 182 183
3 182 184 183
3 182 185 184
3 183 184 186
3 185 182 116
3 116 182 117
3 186 184 36
3 184 187 36
3 36 187 28
3 34 36 32
3 22 188 7
3 188 9 7
3 38 189 50
3 189 188 50
3 189 9 188
3 50 188 22
3 187 180 28
3 25 180 27
3 9 189 37
3 37 189 38
3 54 190 33
3 33 190 34
3 34 190 191
3 190 192 191
3 190 54 192
3 191 192 186
3 51 193 56
3 193 54 56
3 27 194 195
3 194 196 195
3 194 185 196
3 195 196 145
3 51 181 193
3 181 192 193
3 181 186 192
3 193 192 54
3 38 50 48
3 49 50 22
3 145 196 116
3 116 196 185
3 27 195 78
3 78 195 145
3 187 197 180
3 197 194 180
3 197 185 194
3 180 194 27
3 186 181 183
3 183 181 117
3 185 197 184
3 184 197 187
3 34 191 36
3 36 191 186

CELL_TYPES 392
5
5
5
5
5
5
5
5
5
5
5
5
5
5
5
5
5
5
5
5
5
5
5
5
5
5
5
5
5
5
5
5
5
5
5
5
5
5
5
5
5
5
5
5
5
5
5
5
5
5
5
5
5
5
5
5
5
5
5
5
5
5
5
5
5
5
5
5
5
5
5
5
5
5
5
5
5
5
5
5
5
5
5
5
5
5
5
5
5
5
5
5
5
5
5
5
5
5
5
5
5
5
5
5
5
5
5
5
5
5
5
5
5
5
5
5
5
5
5
5
5
5
5
5
5
5
5
5
5
5
5
5
5
5
5
5
5
5
5
5
5
5
5
5
5
5
5
5
5
5
5
5
5
5
5
5
5
5
5
5
5
5
5
5
5
5
5
5
5
5
5
5
5
5
5
5
5
5
5
5
5
5
5
5
5
5
5
5
5
5
5
5
5
5
5
5
5
5
5
5
5
5
5
5
5
5
5
5
5
5
5
5
5
5
5
5
5
5
5
5
5
5
5
5
5
5
5
5
5
5
5
5
5
5
5
5
5
5
5
5
5
5
5
5
5
5
5
5
5
5
5
5
5
5
5
5
5
5
5
5
5
5
5
5
5
5
5
5
5
5
5
5
5
5
5
5
5
5
5
5
5
5
5
5
5
5
5
5
5
5
5
5
5
5
5
5
5
5
5
5
5
5
5
5
5
5
5
5
5
5
5
5
5
5
5
5
5
5
5
5
5
5
5
5
5
5
5
5
5
5
5
5
5
5
5
5
5
5
5
5
5
5
5
5
5
5
5
5
5
5
5
5
5
5
5
5
5
5
5
5
5
5
5
5
5
5
5
5
5
5
5
5
5
5
5
5
5
5
5
5
5
5
5
5
5
5
5
5
5
5
5
5

CELL_DATA 392
SCALARS cell_data_0 double
LOOKUP_TABLE default
2.38925242046e-05
4.49876021659e-05
3.18969503397e-05
1.33866308219e-05
1.20455036114e-05
2.47573057798e-05
2.81998958154e-05
3.65433677885e-06
6.29138758821e-06
1.30947344236e-05
1.52837047737e-05
1.87058648222e-05
3.55358928426e-05
3.02710893002e-05
2.12897221414e-05
1.20204513189e-05
7.11884006265e-07
1.4135624581e-05
1.52772294647e-05
4.18815609579e-06
1.18607677218e-05
2.15999389283e-06
3.99072943509e-06
2.89445216954e-06
6.29576612546e-06
2.69173444436e-05
2.90588895929e-06
2.16345118611e-06
2.48173580037e-05
2.09726564551e-05
1.56100140049e-05
3.80173127028e-06
8.26682394768e-08
9.07789729158e-07
2.02291163037e-05
1.57526533753e-05
1.55443891753e-05
1.07644099726e-06
3.90495875126e-06
3.74053631444e-06
2.84778736705e-07
1.13246189836e-06
3.25004534467e-06
3.80171455561e-06
5.87020466399e-08
1.6661519463e-05
9.70977052637e-07
5.2551802528e-07
8.6408213804e-06
1.92057882912e-05
2.49096285183e-07
1.58647242967e-05
1.51498599151e-05
2.51049498388e-06
3.32569880751e-05
1.42291569953e-05
9.99853221221e-08
2.75807924883e-06
3.90221018953e-06
1.14404164926e-05
1.85003499795e-06
1.57225643521e-05
4.76746253027e-06
6.22164259117e-06
2.66132183061e-05
2.49952293308e-05
2.79946776529e-05
3.70287334497e-05
2.38540070569e-05
6.14131093129e-06
2.9358865573e-07
4.25842592961e-06
9.32401139236e-06
1.59831712633e-05
1.93881956882e-06
8.30397883992e-07
2.00281716096e-06
6.34316636143e-07
2.3918136321e-06
1.6682270941e-07
1.1115567861e-05
3.5605397931e-06
3.01031196652e-06
9.382010552e-06
8.16072388501e-06
7.08762036254e-07
1.07848823331e-06
1.25319620848e-07
1.20889285503e-06
6.10328295626e-07
1.54712469181e-06
7.51784655046e-07
2.36924196081e-07
5.40751662509e-07
1.21236181506e-06
2.19056728416e-06
1.34080203814e-06
1.11390201886e-06
1.44093086251e-06
3.45176879179e-06
1.52548684349e-06
6.91649238828e-07
5.30220004716e-06
2.42271940079e-06
6.26356795748e-07
2.37758455819e-07
6.75034179408e-06
1.56084444832e-05
1.74440489646e-05
6.25500582951e-06
4.31002071444e-07
2.9472995353e-06
6.10218000996e-06
1.88799176196e-06
4.80633490019e-06
2.04010524607e-07
2.41096639905e-05
3.65942714876e-05
7.77530766734e-09
2.66325864775e-07
2.18948349737e-05
3.53833139447e-05
4.66700115823e-05
4.80940136126e-05
4.28630807665e-05
2.87374006833e-05
3.31252986645e-06
1.76756240794e-06
5.51389439913e-05
3.73842800492e-05
7.87605822727e-06
3.10539908863e-05
1.95037250376e-05
9.37661735404e-05
0.000143489968487
9.09287293475e-05
6.08900876922e-05
5.13368827826e-05
6.70479085062e-06
1.44880652663e-06
2.3643760768e-05
1.56160452278e-05
2.41190816535e-05
3.25370176374e-05
2.16642803737e-05
8.9879768522e-06
7.07859312174e-06
3.33659979596e-05
3.0362128236e-05
3.63723640709e-05
3.31015154986e-05
1.52113183015e-05
3.44664143504e-05
2.18637739758e-05
3.00366230835e-06
2.18683602003e-05
2.34239089091e-05
2.31329423745e-05
2.57638468533e-05
2.6886597789e-05
2.05431052949e-05
2.05302436309e-05
3.65905411617e-05
4.18979285518e-05
2.21900352887e-05
3.32400398233e-05
7.78752755221e-07
1.218021471e-06
1.64880761779e-05
3.8507273137e-06
7.79316555667e-07
2.97364269264e-05
1.3737810565e-05
7.85767173486e-06
1.09554868832e-05
5.48745765184e-06
3.58420039238e-08
4.58267998561e-06
9.19577795345e-06
7.59603851097e-06
9.47806806559e-06
1.04509634979e-05
8.35093775565e-08
4.91172441199e-06
1.61729102866e-06
2.31626887379e-06
7.7925775439e-06
7.90427243699e-07
7.07814350795e-06
2.94469821678e-07
2.06062396801e-07
9.77689487879e-07
1.03620332237e-06
2.12542220096e-08
3.8734758223e-08
9.26231100071e-07
3.21617154324e-06
1.62624701912e-05
1.21626545531e-08
2.91721754614e-08
7.13791935559e-08
2.81364503355e-08
5.93059111629e-07
1.16363034985e-06
3.43788269676e-07
5.45880361582e-07
6.72887123853e-06
5.80044154891e-07
4.11344712336e-07
7.26140423472e-08
2.41637279105e-08
9.75614619677e-08
4.43831014508e-08
9.53962452503e-08
7.39713393794e-08
1.67425401166e-07
1.69231477315e-07
9.96318733888e-08
5.84526176505e-06
1.66261228758e-07
1.02873515314e-07
7.58666132956e-08
1.54778085523e-07
2.95133725554e-08
8.84934383087e-07
3.55727806907e-07
5.41867586233e-08
1.07470546426e-05
1.91189572688e-08
8.53681743951e-08
4.13969340611e-08
1.65591238815e-07
8.62281646369e-06
8.07194852401e-06
1.67586384458e-05
3.12116287276e-08
5.36610580026e-05
3.15090528012e-05
6.11039004955e-09
1.46887289554e-07
1.55124129008e-05
7.16136261873e-06
1.66838421561e-05
8.81134105074e-06
1.92707492943e-05
2.33866661372e-05
2.88687776954e-06
1.2069450747e-06
5.36880084313e-06
1.22881449302e-05
1.08399701798e-06
1.53410361939e-05
9.85349792471e-06
1.84198567763e-05
2.11828939657e-05
8.59057691391e-06
5.82719528073e-06
1.71208585303e-05
2.58076270851e-05
1.34423966162e-05
8.85014417131e-06
7.36531541104e-06
1.13079027108e-05
1.51969659606e-05
1.78077585943e-05
1.80353564718e-05
1.57834813709e-05
1.71275544938e-05
3.91614843272e-07
6.57756848458e-06
1.17216831864e-05
1.2433984934e-05
1.60935412025e-05
1.89464041743e-07
5.32314637372e-08
3.95480128146e-09
6.24473303641e-08
5.87082635402e-08
5.11057308764e-08
5.00476820685e-08
5.33638737792e-08
2.39077574759e-07
2.68252567396e-07
5.40978850309e-08
1.02254149916e-07
4.40112876933e-08
1.0514181346e-05
2.86824849535e-07
1.94698296185e-06
7.9704195794e-07
4.34852224872e-06
2.7852882563e-06
3.27986889304e-05
1.93298004083e-05
1.01469799089e-07
2.9677418904e-09
9.76820385447e-06
8.37516902433e-06
7.79011922159e-06
1.74506118093e-08
2.73329862211e-08
7.50752603132e-06
5.75764335562e-08
1.43147097682e-05
9.06679560582e-06
6.0651346619e-08
4.60701384389e-08
8.16895174601e-07
1.34966878021e-05
5.60403896719e-06
4.20807126183e-06
5.24684220762e-08
9.543336092e-06
8.32999424168e-08
1.05561814952e-07
1.46840022764e-08
1.11434287025e-05
4.36699380736e-07
4.40941144654e-07
1.35180555443e-07
1.03190547568e-05
9.2794196109e-07
2.63564803449e-06
4.13338879233e-05
6.02553504438e-05
2.28701504183e-05
2.1599800041e-07
1.47552043968e-07
1.106803775e-07
1.6574161422e-05
1.69275716565e-05
3.18756251813e-07
1.08931490342e-07
3.75428333634e-07
7.63873013901e-07
7.59187465369e-08
7.85849259164e-08
7.45257346882e-08
1.87156301063e-05
1.90909216533e-05
7.10083933547e-06
1.90438467101e-08
1.65433529519e-05
1.31469071118e-05
2.21132306058e-05
1.07879742171e-05
1.81476411751e-05
1.3598281889e-08
7.39769594047e-06
1.32827285453e-06
5.04967895407e-06
1.56282239973e-06
9.65968012168e-06
1.1324107526e-06
8.72834560803e-07
1.16245312211e-06
9.26436233805e-06
4.93944434994e-06
9.94755788282e-07
1.13815922728e-05
3.929981188e-07
5.13536895586e-07
3.55479869787e-07
1.91657612921e-07
2.80004481558e-07
1.45581675525e-05
1.20631459463e-06
2.02393854994e-07
1.91372918304e-06
4.70693851574e-08
1.75959684159e-05
9.30249331088e-09
7.78826385515e-07
8.19613567251e-08
1.66049852561e-05
9.45781025454e-08
1.73026023492e-05
1.1802172407e-06
7.49399784968e-08
2.36299881337e-05
3.85157504702e-06
1.57157009049e-07
1.79634886034e-07
7.17649150202e-08
1.52439407444e-05
2.24497491516e-06
1.39770675811e-05
9.00074632959e-06
1.38141041847e-05
1.40275107028e-08
7.06553284677e-08
1.76961623555e-05

