# vtk DataFile Version 3.0
File Name: Molecule/sphere_excent/sphere_excent_0-s7.vtk
ASCII
DATASET UNSTRUCTURED_GRID
FIELD FieldData 1
TIME 1 1 double
0.0
POINTS 210 double
1.0 1.61803399 0.61803399
0.52573111 1.90211303 0.3249197
0.51978383 1.72533696 0.86777713
0.0 1.92387672 0.54653306
0.0 2.0 0.0
0.0 1.70130162 1.05146222
-0.51978383 1.72533696 0.86777713
-0.52573111 1.90211303 0.3249197
-1.0 1.61803399 0.61803399
-1.05146222 1.70130162 0.0
-1.40409289 1.38756095 0.32124407
-1.40409289 1.38756095 -0.32124407
-1.0 1.61803399 -0.61803399
-1.70130162 1.05146222 0.0
-0.32124407 1.40409289 1.38756095
-0.85065081 1.37638192 1.17557051
-0.61803399 1.0 1.61803399
-1.37638192 1.17557051 0.85065081
-1.17557051 0.85065081 1.37638192
-1.61803399 0.61803399 1.0
-1.72533696 0.86777713 0.51978383
-0.86777713 0.51978383 1.72533696
-1.38756095 0.32124407 1.40409289
-1.05146222 0.0 1.70130162
0.32124407 1.40409289 1.38756095
0.0 1.05146222 1.70130162
0.61803399 1.0 1.61803399
-0.3249197 0.52573111 1.90211303
0.3249197 0.52573111 1.90211303
0.0 0.0 2.0
-0.54653306 0.0 1.92387672
0.86777713 0.51978383 1.72533696
0.54653306 0.0 1.92387672
1.05146222 0.0 1.70130162
-0.86777713 -0.51978383 1.72533696
-0.3249197 -0.52573111 1.90211303
-0.61803399 -1.0 1.61803399
0.0 -1.05146222 1.70130162
0.3249197 -0.52573111 1.90211303
0.61803399 -1.0 1.61803399
-0.32124407 -1.40409289 1.38756095
0.32124407 -1.40409289 1.38756095
0.0 -1.70130162 1.05146222
0.86777713 -0.51978383 1.72533696
1.38756095 -0.32124407 1.40409289
1.17557051 -0.85065081 1.37638192
1.61803399 -0.61803399 1.0
0.85065081 -1.37638192 1.17557051
1.37638192 -1.17557051 0.85065081
1.0 -1.61803399 0.61803399
0.51978383 -1.72533696 0.86777713
1.72533696 -0.86777713 0.51978383
1.40409289 -1.38756095 0.32124407
1.70130162 -1.05146222 0.0
1.05146222 0.0 -1.70130162
0.86777713 -0.51978383 -1.72533696
0.54653306 0.0 -1.92387672
0.3249197 -0.52573111 -1.90211303
0.61803399 -1.0 -1.61803399
0.0 0.0 -2.0
0.0 -1.05146222 -1.70130162
-0.3249197 -0.52573111 -1.90211303
-0.61803399 -1.0 -1.61803399
0.32124407 -1.40409289 -1.38756095
-0.32124407 -1.40409289 -1.38756095
0.0 -1.70130162 -1.05146222
-0.54653306 0.0 -1.92387672
-0.86777713 -0.51978383 -1.72533696
-1.05146222 0.0 -1.70130162
1.92387672 -0.54653306 0.0
1.90211303 -0.3249197 0.52573111
2.0 0.0 0.0
1.90211303 0.3249197 0.52573111
1.70130162 0.0 1.05146222
1.61803399 0.61803399 1.0
1.92387672 0.54653306 0.0
1.72533696 0.86777713 0.51978383
1.70130162 1.05146222 0.0
1.38756095 0.32124407 1.40409289
1.40409289 1.38756095 0.32124407
1.37638192 1.17557051 0.85065081
0.85065081 1.37638192 1.17557051
1.17557051 0.85065081 1.37638192
-1.38756095 -0.32124407 -1.40409289
-1.38756095 0.32124407 -1.40409289
-1.70130162 0.0 -1.05146222
-1.61803399 -0.61803399 -1.0
-1.61803399 0.61803399 -1.0
-1.90211303 -0.3249197 -0.52573111
-1.90211303 0.3249197 -0.52573111
-2.0 0.0 0.0
-1.72533696 -0.86777713 -0.51978383
-1.92387672 -0.54653306 0.0
-1.70130162 -1.05146222 0.0
-1.72533696 0.86777713 -0.51978383
-1.92387672 0.54653306 0.0
0.0 1.70130162 -1.05146222
-0.32124407 1.40409289 -1.38756095
-0.51978383 1.72533696 -0.86777713
-0.85065081 1.37638192 -1.17557051
-0.61803399 1.0 -1.61803399
-1.17557051 0.85065081 -1.37638192
-1.37638192 1.17557051 -0.85065081
-0.86777713 0.51978383 -1.72533696
-1.40409289 -1.38756095 -0.32124407
-1.40409289 -1.38756095 0.32124407
-1.05146222 -1.70130162 0.0
-1.0 -1.61803399 -0.61803399
-1.0 -1.61803399 0.61803399
-0.52573111 -1.90211303 -0.3249197
-0.52573111 -1.90211303 0.3249197
0.0 -2.0 0.0
-0.51978383 -1.72533696 -0.86777713
0.0 -1.92387672 -0.54653306
-0.51978383 -1.72533696 0.86777713
0.0 -1.92387672 0.54653306
-1.72533696 -0.86777713 0.51978383
-1.37638192 -1.17557051 0.85065081
-1.61803399 -0.61803399 1.0
-0.85065081 -1.37638192 1.17557051
-1.17557051 -0.85065081 1.37638192
-1.38756095 -0.32124407 1.40409289
-1.70130162 0.0 1.05146222
-1.90211303 0.3249197 0.52573111
-1.90211303 -0.3249197 0.52573111
-1.17557051 -0.85065081 -1.37638192
-0.85065081 -1.37638192 -1.17557051
-1.37638192 -1.17557051 -0.85065081
0.51978383 -1.72533696 -0.86777713
0.52573111 -1.90211303 -0.3249197
1.0 -1.61803399 -0.61803399
1.05146222 -1.70130162 0.0
0.52573111 -1.90211303 0.3249197
1.40409289 -1.38756095 -0.32124407
1.38756095 -0.32124407 -1.40409289
1.17557051 -0.85065081 -1.37638192
1.61803399 -0.61803399 -1.0
1.37638192 -1.17557051 -0.85065081
0.85065081 -1.37638192 -1.17557051
1.72533696 -0.86777713 -0.51978383
0.86777713 0.51978383 -1.72533696
0.3249197 0.52573111 -1.90211303
0.61803399 1.0 -1.61803399
-0.3249197 0.52573111 -1.90211303
0.0 1.05146222 -1.70130162
0.32124407 1.40409289 -1.38756095
0.85065081 1.37638192 -1.17557051
0.76722747 1.68782295 -0.75007714
1.0 1.61803399 -0.61803399
1.03851698 1.68035577 -0.31286893
1.40409289 1.38756095 -0.32124407
0.77237477 1.78201305 -0.47735386
0.7992141 1.82596499 -0.16464716
0.52573111 1.90211303 -0.3249197
1.05146222 1.70130162 0.0
0.5328094 1.92772253 0.0
0.7992141 1.82596499 0.16464716
0.5281655 1.83248835 -0.60251776
0.51978383 1.72533696 -0.86777713
0.26331074 1.8486092 -0.71645759
0.26558495 1.93278519 -0.44023406
0.0 1.92387672 -0.54653306
1.42256347 1.40581406 0.0
1.24047916 1.56040874 -0.1622837
1.24047916 1.56040874 0.1622837
1.2136503 1.5173046 0.47417265
1.03851698 1.68035577 0.31286893
-0.52573111 1.90211303 -0.3249197
-0.5328094 1.92772253 0.0
-0.7992141 1.82596499 -0.16464716
-0.7992141 1.82596499 0.16464716
-0.26558495 1.93278519 -0.44023406
-0.26331074 1.8486092 -0.71645759
-0.5281655 1.83248835 -0.60251776
1.17557051 0.85065081 -1.37638192
1.29315558 1.02675088 -1.12850842
1.61803399 0.61803399 -1.0
1.37638192 1.17557051 -0.85065081
1.02675088 1.12850842 -1.29315558
1.12850842 1.29315558 -1.02675088
0.59200919 1.40461969 -1.29482379
0.69230603 1.56690339 -1.03224324
0.42604573 1.58529846 -1.14250332
1.90211303 0.3249197 -0.52573111
1.93278519 0.44023406 -0.26558495
1.83248835 0.60251776 -0.5281655
1.8486092 0.71645759 -0.26331074
1.72533696 0.86777713 -0.51978383
1.58529846 1.14250332 -0.42604573
1.56690339 1.03224324 -0.69230603
1.40461969 1.29482379 -0.59200919
1.38756095 0.32124407 -1.40409289
1.29482379 0.59200919 -1.40461969
1.14250332 0.42604573 -1.58529846
1.03224324 0.69230603 -1.56690339
1.8486092 -0.71645759 -0.26331074
1.83248835 -0.60251776 -0.5281655
1.93278519 -0.44023406 -0.26558495
1.90211303 -0.3249197 -0.52573111
1.68782295 -0.75007714 -0.76722747
1.78201305 -0.47735386 -0.77237477
1.68035577 -0.31286893 -1.03851698
1.82596499 -0.16464716 -0.7992141
1.70130162 0.0 -1.05146222
1.82596499 0.16464716 -0.7992141
1.92772253 0.0 -0.5328094
1.5173046 -0.47417265 -1.2136503
1.56040874 -0.1622837 -1.24047916
1.40581406 0.0 -1.42256347
1.56040874 0.1622837 -1.24047916

CELLS 416 1664
3 0 1 2
3 1 3 2
3 1 4 3
3 2 3 5
3 5 3 6
3 3 7 6
3 3 4 7
3 6 7 8
3 8 9 10
3 9 11 10
3 9 12 11
3 10 11 13
3 5 6 14
3 6 15 14
3 6 8 15
3 14 15 16
3 8 17 15
3 17 18 15
3 17 19 18
3 15 18 16
3 8 10 17
3 10 20 17
3 10 13 20
3 17 20 19
3 16 18 21
3 18 22 21
3 18 19 22
3 21 22 23
3 5 14 24
3 14 25 24
3 14 16 25
3 24 25 26
3 16 27 25
3 27 28 25
3 27 29 28
3 25 28 26
3 16 21 27
3 21 30 27
3 21 23 30
3 27 30 29
3 26 28 31
3 28 32 31
3 28 29 32
3 31 32 33
3 23 34 30
3 34 35 30
3 34 36 35
3 30 35 29
3 36 37 35
3 37 38 35
3 37 39 38
3 35 38 29
3 36 40 37
3 40 41 37
3 40 42 41
3 37 41 39
3 29 38 32
3 38 43 32
3 38 39 43
3 32 43 33
3 33 43 44
3 43 45 44
3 43 39 45
3 44 45 46
3 39 47 45
3 47 48 45
3 47 49 48
3 45 48 46
3 39 41 47
3 41 50 47
3 41 42 50
3 47 50 49
3 46 48 51
3 48 52 51
3 48 49 52
3 51 52 53
3 54 55 56
3 55 57 56
3 55 58 57
3 56 57 59
3 58 60 57
3 60 61 57
3 60 62 61
3 57 61 59
3 58 63 60
3 63 64 60
3 63 65 64
3 60 64 62
3 59 61 66
3 61 67 66
3 61 62 67
3 66 67 68
3 53 69 51
3 69 70 51
3 69 71 70
3 51 70 46
3 71 72 70
3 72 73 70
3 72 74 73
3 70 73 46
3 71 75 72
3 75 76 72
3 75 77 76
3 72 76 74
3 46 73 44
3 73 78 44
3 73 74 78
3 44 78 33
3 77 79 76
3 79 80 76
3 76 80 74
3 0 81 80
3 81 82 80
3 81 26 82
3 80 82 74
3 0 2 81
3 2 24 81
3 2 5 24
3 81 24 26
3 74 82 78
3 82 31 78
3 82 26 31
3 78 31 33
3 68 83 84
3 83 85 84
3 83 86 85
3 84 85 87
3 86 88 85
3 88 89 85
3 88 90 89
3 85 89 87
3 86 91 88
3 91 92 88
3 91 93 92
3 88 92 90
3 87 89 94
3 89 95 94
3 89 90 95
3 94 95 13
3 96 97 98
3 97 99 98
3 97 100 99
3 98 99 12
3 100 101 99
3 101 102 99
3 101 87 102
3 99 102 12
3 100 103 101
3 103 84 101
3 103 68 84
3 101 84 87
3 12 102 11
3 102 94 11
3 102 87 94
3 11 94 13
3 93 104 105
3 104 106 105
3 104 107 106
3 105 106 108
3 107 109 106
3 109 110 106
3 109 111 110
3 106 110 108
3 107 112 109
3 112 113 109
3 112 65 113
3 109 113 111
3 108 110 114
3 110 115 114
3 110 111 115
3 114 115 42
3 93 105 116
3 105 117 116
3 105 108 117
3 116 117 118
3 108 119 117
3 119 120 117
3 119 36 120
3 117 120 118
3 108 114 119
3 114 40 119
3 114 42 40
3 119 40 36
3 118 120 121
3 120 34 121
3 120 36 34
3 121 34 23
3 23 22 121
3 22 122 121
3 22 19 122
3 121 122 118
3 19 123 122
3 123 124 122
3 123 90 124
3 122 124 118
3 19 20 123
3 20 95 123
3 20 13 95
3 123 95 90
3 118 124 116
3 124 92 116
3 124 90 92
3 116 92 93
3 68 67 83
3 67 125 83
3 67 62 125
3 83 125 86
3 62 126 125
3 126 127 125
3 126 107 127
3 125 127 86
3 62 64 126
3 64 112 126
3 64 65 112
3 126 112 107
3 86 127 91
3 127 104 91
3 127 107 104
3 91 104 93
3 65 128 113
3 128 129 113
3 128 130 129
3 113 129 111
3 130 131 129
3 131 132 129
3 131 49 132
3 129 132 111
3 130 133 131
3 133 52 131
3 133 53 52
3 131 52 49
3 111 132 115
3 132 50 115
3 132 49 50
3 115 50 42
3 54 134 55
3 134 135 55
3 55 135 58
3 136 137 135
3 137 138 135
3 137 130 138
3 135 138 58
3 139 133 137
3 139 53 133
3 137 133 130
3 58 138 63
3 138 128 63
3 138 130 128
3 63 128 65
3 54 56 140
3 56 141 140
3 56 59 141
3 140 141 142
3 59 143 141
3 143 144 141
3 143 100 144
3 141 144 142
3 59 66 143
3 66 103 143
3 66 68 103
3 143 103 100
3 142 144 145
3 144 97 145
3 144 100 97
3 145 97 96
3 146 147 148
3 148 149 150
3 148 151 149
3 151 152 149
3 151 153 152
3 149 152 154
3 153 155 152
3 155 156 152
3 155 1 156
3 152 156 154
3 1 155 4
3 4 155 153
3 156 1 0
3 148 147 151
3 147 157 151
3 147 158 157
3 151 157 153
3 158 159 157
3 159 160 157
3 159 161 160
3 157 160 153
3 161 159 96
3 96 159 158
3 153 160 4
3 160 161 4
3 150 162 77
3 77 162 79
3 150 163 162
3 163 164 162
3 163 154 164
3 162 164 79
3 79 164 165
3 164 166 165
3 164 154 166
3 165 166 0
3 167 168 4
3 4 168 7
3 167 169 168
3 169 170 168
3 169 9 170
3 168 170 7
3 9 169 12
3 12 169 167
3 7 170 8
3 170 9 8
3 161 171 4
3 4 171 167
3 161 172 171
3 172 173 171
3 172 98 173
3 171 173 167
3 98 172 96
3 96 172 161
3 167 173 12
3 173 98 12
3 79 165 80
3 165 0 80
3 154 163 149
3 149 163 150
3 0 166 156
3 156 166 154
3 174 175 176
3 176 175 177
3 174 178 175
3 178 179 175
3 178 146 179
3 175 179 177
3 146 178 142
3 142 178 174
3 177 179 148
3 179 146 148
3 146 180 181
3 180 182 181
3 180 145 182
3 181 182 158
3 145 180 142
3 142 180 146
3 158 182 96
3 182 145 96
3 146 181 147
3 147 181 158
3 183 184 71
3 71 184 75
3 183 185 184
3 185 186 184
3 185 187 186
3 184 186 75
3 187 185 176
3 176 185 183
3 75 186 77
3 186 187 77
3 187 188 77
3 77 188 150
3 187 189 188
3 189 190 188
3 189 177 190
3 188 190 150
3 177 189 176
3 176 189 187
3 150 190 148
3 190 177 148
3 191 192 176
3 176 192 174
3 191 193 192
3 193 194 192
3 193 140 194
3 192 194 174
3 140 193 54
3 54 193 191
3 174 194 142
3 194 140 142
3 139 195 53
3 53 195 69
3 139 196 195
3 196 197 195
3 196 198 197
3 195 197 69
3 139 199 196
3 199 200 196
3 199 136 200
3 196 200 198
3 69 197 71
3 197 198 71
3 136 201 200
3 201 202 200
3 201 203 202
3 200 202 198
3 203 204 202
3 204 205 202
3 204 183 205
3 202 205 198
3 183 204 176
3 176 204 203
3 198 205 71
3 205 183 71
3 136 206 201
3 206 207 201
3 206 134 207
3 201 207 203
3 134 208 207
3 208 209 207
3 208 191 209
3 207 209 203
3 191 208 54
3 54 208 134
3 203 209 176
3 209 191 176
3 134 206 135
3 206 136 135
3 136 199 137
3 199 139 137

CELL_TYPES 416
5
5
5
5
5
5
5
5
5
5
5
5
5
5
5
5
5
5
5
5
5
5
5
5
5
5
5
5
5
5
5
5
5
5
5
5
5
5
5
5
5
5
5
5
5
5
5
5
5
5
5
5
5
5
5
5
5
5
5
5
5
5
5
5
5
5
5
5
5
5
5
5
5
5
5
5
5
5
5
5
5
5
5
5
5
5
5
5
5
5
5
5
5
5
5
5
5
5
5
5
5
5
5
5
5
5
5
5
5
5
5
5
5
5
5
5
5
5
5
5
5
5
5
5
5
5
5
5
5
5
5
5
5
5
5
5
5
5
5
5
5
5
5
5
5
5
5
5
5
5
5
5
5
5
5
5
5
5
5
5
5
5
5
5
5
5
5
5
5
5
5
5
5
5
5
5
5
5
5
5
5
5
5
5
5
5
5
5
5
5
5
5
5
5
5
5
5
5
5
5
5
5
5
5
5
5
5
5
5
5
5
5
5
5
5
5
5
5
5
5
5
5
5
5
5
5
5
5
5
5
5
5
5
5
5
5
5
5
5
5
5
5
5
5
5
5
5
5
5
5
5
5
5
5
5
5
5
5
5
5
5
5
5
5
5
5
5
5
5
5
5
5
5
5
5
5
5
5
5
5
5
5
5
5
5
5
5
5
5
5
5
5
5
5
5
5
5
5
5
5
5
5
5
5
5
5
5
5
5
5
5
5
5
5
5
5
5
5
5
5
5
5
5
5
5
5
5
5
5
5
5
5
5
5
5
5
5
5
5
5
5
5
5
5
5
5
5
5
5
5
5
5
5
5
5
5
5
5
5
5
5
5
5
5
5
5
5
5
5
5
5
5
5
5
5
5
5
5
5
5
5
5
5
5
5
5
5
5
5
5
5
5
5
5
5
5
5
5
5
5
5
5
5
5
5
5
5
5
5
5
5
5
5
5
5
5

CELL_DATA 416
SCALARS cell_data_0 double
LOOKUP_TABLE default
2.39203252239e-06
2.58927371679e-06
6.48908853177e-07
3.32964436821e-06
3.31962890948e-06
2.5927641295e-06
6.41855142847e-07
2.12590683291e-06
3.12594448667e-07
3.06939927867e-07
4.59739500361e-07
6.43487305651e-07
4.85151563666e-06
5.19151470854e-06
1.75964602328e-06
2.54479464423e-06
1.59483975833e-06
4.86021060095e-06
1.69227662822e-06
4.56607072009e-06
2.28243638825e-06
9.89686255935e-07
3.42526120539e-07
3.47029686708e-06
1.10942548343e-05
1.03524959574e-05
2.19696681193e-06
1.22855383833e-05
6.32074434133e-06
9.92630513231e-06
9.16827333283e-06
9.82750778556e-06
2.02694262074e-05
2.90006368898e-05
3.80213376897e-05
1.99029048253e-05
1.78615007235e-05
1.87144153009e-05
1.48699655992e-05
2.78530758449e-05
1.87153999466e-05
1.96359199691e-05
2.95608305176e-05
1.04722700566e-05
1.39056373971e-05
1.04898916018e-05
1.83581521588e-05
2.25184853166e-05
2.20025272374e-05
1.45883881093e-05
2.09793356158e-05
2.78652583733e-05
1.12990208358e-05
8.10057968169e-06
6.25638249395e-06
1.15708848087e-05
2.32431686618e-05
1.30740963952e-05
1.75524636379e-05
1.19444597375e-05
9.86159278662e-06
8.54333157697e-06
1.158040306e-05
2.63191804055e-06
8.7883471178e-06
6.2191819945e-06
1.24562263768e-05
6.33306725052e-06
7.22314014582e-06
5.04665722542e-06
4.82934903325e-06
1.01003542003e-05
1.05930431653e-05
2.65928026643e-06
1.31348971404e-05
1.76164230275e-06
1.37915634209e-06
4.62991468332e-07
4.62109629579e-05
3.30302542083e-05
5.47285299542e-05
1.12099739493e-06
1.97375342559e-05
4.20562850098e-05
4.95423425531e-05
2.09364270645e-06
4.1959519167e-06
1.69052721333e-05
3.58753648475e-05
3.54635295113e-06
2.21672248408e-05
6.25148222854e-06
8.80854591181e-06
7.85415468782e-06
1.03640076726e-05
1.35865803334e-05
1.30846387466e-06
3.23547045283e-06
1.80485030755e-05
1.44945857499e-05
6.29004417701e-07
7.03602575353e-07
4.28446456756e-07
1.66125162639e-05
6.63338292464e-06
6.37182241268e-06
6.42347416774e-06
8.12082363398e-06
1.35018761045e-06
2.14536657044e-06
1.74650991189e-05
1.50494727106e-06
5.59004567193e-06
5.71487222041e-06
1.74965536236e-05
3.07586710527e-06
5.48389294683e-06
4.89843381053e-06
4.99496415427e-06
4.87112926449e-06
8.48570762302e-06
1.16293598951e-05
8.506691666e-06
1.19878795199e-05
1.49960838267e-05
2.98291972508e-05
3.25203262069e-05
4.31381054057e-05
3.05202529017e-05
6.79569407158e-05
4.53053535036e-05
3.32962870259e-05
1.28100335055e-05
4.629556189e-06
4.21904716706e-05
3.01494546048e-05
6.52478608609e-06
3.58563355941e-05
2.66120973205e-07
3.15619268168e-06
7.52752719943e-07
1.1302046561e-05
1.98552691516e-06
1.38309129909e-05
7.15552725107e-07
1.84022338e-05
1.93375902988e-06
1.24307993359e-05
4.11946997278e-06
7.87056547297e-06
2.21380764523e-05
1.87063535864e-06
1.88458876841e-06
1.80014378222e-05
1.46509027133e-06
7.17324190391e-07
5.38445174016e-08
1.31570125814e-05
2.18051208042e-05
1.29933501664e-05
1.67711291923e-06
6.33064020603e-06
2.10410199769e-05
1.13784347308e-05
5.68232670557e-07
1.14134381951e-06
7.25999862854e-06
1.2612708232e-05
2.69841266413e-06
4.50104367638e-06
3.25291679321e-06
1.07149804438e-06
2.64790655049e-06
1.54021556144e-05
2.31211914395e-06
8.32755710927e-06
4.90067438407e-06
9.84684580034e-06
5.69435895701e-06
7.81466573507e-06
4.91980720731e-06
4.87412297888e-06
7.15147126264e-06
6.54120199735e-06
6.16927450094e-06
1.23561511177e-05
1.04455289608e-05
9.90946878693e-06
7.14479697595e-06
1.54532064047e-06
5.28613443123e-06
3.02506484872e-06
3.68716115377e-06
1.97666030904e-05
2.88945342418e-06
5.80842851752e-07
1.7787156525e-06
7.0243066364e-07
1.77202417625e-05
1.15858021854e-06
1.71306177575e-06
2.33173855868e-05
5.01927473944e-07
9.94767522142e-06
6.08970063778e-06
2.10047111847e-05
2.0418162267e-05
2.01850375167e-05
1.26959813102e-06
1.79190759387e-05
1.78262542382e-05
1.83588625805e-05
1.1639462974e-06
2.33432137085e-06
1.40058650193e-05
2.07964944341e-05
3.89698703146e-06
1.4651861936e-05
3.8918033717e-06
1.434973821e-06
1.31078053091e-07
6.16398432895e-06
8.7214800786e-06
6.38816670571e-06
6.09513894437e-07
2.42797497559e-05
9.9932362907e-06
5.65049891144e-06
9.02252116102e-07
8.40609560541e-07
1.80519299118e-05
6.07012538321e-06
2.61183964679e-06
1.47669261559e-05
3.25633608018e-06
6.38469322397e-06
5.98799010323e-06
4.87047300041e-05
1.36449707411e-06
1.34431922948e-06
7.06979308391e-06
5.86024430407e-05
3.37072980114e-06
2.74962252624e-06
6.22484187757e-06
5.03250247977e-05
1.52424025475e-06
6.1482238879e-06
3.20650897481e-06
1.33739637045e-06
4.6905203194e-07
3.32061699789e-05
1.17894599567e-05
4.17237976924e-05
1.7009419619e-06
1.61082140589e-05
1.56105606047e-05
3.5412730696e-05
1.48281025569e-06
3.89042615836e-06
1.34542487845e-05
1.15112239838e-05
3.21788700424e-07
1.21670003136e-05
2.05872402905e-06
2.04992582338e-06
2.76131812677e-06
1.43821554447e-06
4.1146285823e-07
1.56878438032e-07
5.1199607601e-08
1.10556773106e-07
1.90271663423e-07
3.40715610074e-07
1.8974796179e-07
1.8731012926e-06
2.52576957308e-06
6.98432558403e-07
1.3759479661e-06
3.8240385598e-07
1.29061748504e-07
7.47453924566e-08
9.20613315213e-08
3.33758687559e-07
9.3494750227e-08
7.43082438793e-08
1.04634571035e-06
1.08536241954e-06
2.24255006776e-06
2.4100737332e-06
7.76392485403e-07
3.193966621e-07
6.33052414642e-08
2.50234766759e-07
3.23326770561e-07
3.67186736872e-07
4.59434193364e-07
4.59775753958e-07
3.88925305242e-07
3.82533380477e-07
1.60966252021e-06
1.03334589931e-06
3.4324208061e-07
4.17105092919e-07
4.20882048361e-07
5.11983940345e-07
9.82235323536e-08
2.49805407772e-08
7.28353299758e-07
4.78422783475e-07
1.74075427471e-06
1.57893843768e-06
1.64319616264e-07
1.36895989213e-07
3.25469049637e-08
1.84823483028e-07
1.35368203122e-06
6.68161369192e-07
1.04455940844e-07
7.69434144325e-07
1.02811241643e-06
4.6406258398e-07
2.17136069202e-07
1.68261784878e-07
2.63701172761e-07
4.65288443022e-07
4.44388608338e-06
4.60827842619e-06
3.46644212215e-07
2.14006308336e-07
1.67432053166e-07
4.20693114545e-07
6.73009363557e-06
8.32692502352e-06
3.57349695715e-06
2.34919974108e-06
1.3402432264e-07
2.60931207845e-07
1.12154435069e-07
8.10969805025e-08
5.6241115959e-06
5.60519864205e-06
1.05578715425e-06
1.20763527002e-06
1.67126726779e-07
1.2329224778e-07
1.20419875888e-06
3.74196277529e-07
5.88255439886e-07
8.6293883237e-08
4.15099527442e-07
1.4363115812e-07
4.71627256825e-06
5.16960079318e-06
8.04693766913e-07
1.43771440432e-06
1.23541098348e-06
6.76604420797e-07
2.65958749283e-07
1.89401563449e-07
5.53658067608e-08
2.04766213602e-08
3.55804972257e-06
4.42072101092e-06
2.21053342546e-06
2.21426372347e-06
5.16131657579e-06
3.66431559839e-06
8.24672112499e-07
2.20163745608e-07
2.38617094574e-07
2.8250056077e-07
9.48441418705e-07
2.71331109667e-06
7.0434444565e-06
5.93635245195e-06
1.22917863554e-06
5.8421076999e-06
7.42261824897e-07
6.2921010236e-08
1.36708947036e-06
3.04571997141e-06
6.98249546804e-07
2.38156621946e-08
2.0347832097e-08
1.39249382222e-06
5.80640051453e-06
2.62628427072e-06
4.75184591675e-08
2.87053830171e-08
1.78162653404e-06
1.57851715706e-06
1.81381062954e-06
2.65929432228e-08
7.92550678907e-07
1.75028380733e-06
6.28109365287e-06
9.439214294e-06
3.48217207518e-06
1.52230194929e-06
6.58382204042e-08
1.83982115842e-08
1.02486272908e-06
1.54000848386e-06
1.06462252239e-06
7.47468328448e-10
6.18457524682e-07
1.53829158868e-06
2.14620130897e-06
3.19129435368e-06
7.88101617896e-06
5.25237896686e-06
2.86784926766e-06
5.15932988189e-07
1.22270746037e-07
1.43254810727e-06

