# vtk DataFile Version 3.0
File Name: Molecule/sphere_excent/sphere_excent_0-s45.vtk
ASCII
DATASET UNSTRUCTURED_GRID
FIELD FieldData 1
TIME 1 1 double
0.0
POINTS 708 double
0.46887528896 0.70100057125 0.53733420372
0.42939814925 0.55347061157 0.71350556612
0.62163209915 0.4473080337 0.64267838001
0.097764588892 0.94912207127 -0.29904955626
0.26342701912 0.9484475255 -0.17616936564
0.35255849361 0.88156491518 -0.31388440728
0.26842015982 0.90215331316 0.33739578724
0.23561695218 0.76899814606 0.59422683716
0.68402135372 -0.61728358269 -0.38848698139
0.57300597429 -0.64975845814 -0.49944955111
0.67741537094 -0.5044080615 -0.5354192853
0.67574095726 0.61032962799 0.41326949
-0.52996373177 0.81067419052 -0.2476259172
-0.680082798 0.72031390667 -0.13631771505
-0.55848532915 0.82827305794 -0.043428946286
0.43935182691 0.88498777151 -0.15440867841
0.54843181372 0.78766775131 -0.28045478463
0.50579816103 0.33980727196 0.7928045392
-0.02806962654 0.37811756134 0.92532038689
0.17671237886 0.37630528212 0.90941172838
0.033575270325 0.54276591539 0.83923655748
0.21739177406 0.58825230598 0.77890914679
0.34916827083 0.41767764091 0.83884984255
0.39602670074 0.19233165681 0.89781677723
0.62641888857 0.16423548758 0.76189309359
0.20579633117 0.15907867253 0.96554678679
0.30873519182 -0.013850789517 0.95102930069
0.10477492213 0.02170178853 0.99424570799
0.52434444427 -0.0640007779 0.84900617599
0.38792958856 -0.46007171273 -0.79863548279
0.52753990889 -0.53389370441 -0.66075694561
0.3660736084 -0.59471029043 -0.71575778723
0.86492973566 0.092232756317 -0.49334588647
0.78672099113 0.16083279252 -0.59599536657
0.84424239397 0.24522522092 -0.4765368104
0.80814039707 0.016027025878 -0.58876287937
0.7249519825 0.049926675856 -0.68698459864
0.72617310286 -0.093540407717 -0.68110120296
0.68849939108 0.16057485342 -0.70724487305
0.88436371088 -0.067681707442 -0.46186816692
0.62223356962 0.086516238749 -0.77805137634
0.648406744 -0.025181468576 -0.76087111235
0.52958744764 -0.022632628679 -0.84795677662
0.60748225451 -0.14149472117 -0.78161883354
0.16131919622 -0.74555170536 -0.64662957191
0.00084408605471 -0.79394298792 -0.60793864727
0.080853618681 -0.68474763632 -0.72428369522
-0.038242202252 -0.69492393732 -0.71803122759
-0.12083800882 -0.74724853039 -0.65345579386
0.12119974941 -0.58697253466 -0.80048972368
0.00044178171083 -0.60683661699 -0.79482895136
-0.11948046088 -0.87683534622 -0.46564123034
-0.27973774076 -0.91160523891 -0.30120712519
-0.27122360468 -0.83451247215 -0.47961580753
-0.079116567969 -0.93595999479 -0.34300547838
-0.10485631227 -0.6187480092 -0.77853512764
-0.099340520799 -0.53849720955 -0.83672165871
0.29788091779 -0.70229774714 -0.64655792713
0.21558703482 -0.64744228125 -0.73098182678
0.029409900308 -0.8863645792 -0.46209415793
-0.41075697541 0.15592323244 -0.89829367399
-0.50330525637 0.10980772227 -0.8570561409
-0.49794110656 0.1942590028 -0.84517371655
0.53137791157 -0.36599203944 0.76369249821
0.68905091286 -0.24698010087 0.68042862415
0.91702014208 0.13332173228 0.3757557869
0.88573437929 -0.013320228085 0.46391788125
0.95576775074 0.036681752652 0.29118308425
0.36913478374 -0.42033854127 0.82800972462
0.39182466269 -0.21839499474 0.89367753267
0.51020652056 -0.5891161561 0.62619745731
0.25151047111 -0.18806882203 0.94939815998
0.10934092104 -0.23265786469 -0.96636724472
0.10472708941 -0.37643653154 -0.92049103975
0.004645221401 -0.30187663436 -0.95328873396
-0.015204945579 -0.39702147245 -0.91765040159
-0.10818721354 -0.44480624795 -0.88905590773
-0.091573931277 -0.34837251902 -0.93283176422
0.019520973787 -0.4999499321 -0.86584120989
-0.18741582334 -0.37735033035 -0.90689963102
-0.21519649029 -0.44571629167 -0.86889272928
-0.20286272466 -0.51117157936 -0.83511120081
-0.19953168929 -0.57520014048 -0.7931497097
0.92775726318 0.015028770082 -0.37299507856
0.83643758297 0.48410108685 0.25700309873
0.88371479511 0.45467805862 0.11028759927
0.80704718828 0.57893592119 0.11627198011
0.89044582844 0.34053358436 -0.30192375183
0.89736020565 0.37692800164 -0.2293908298
0.92800474167 0.29343438148 -0.22943688929
0.85275959969 0.42848747969 -0.29867723584
0.88827621937 0.2809586823 -0.36327952147
0.84563684464 0.35987913609 -0.39424711466
0.89226657152 0.16107754409 -0.42161777616
-0.33493801951 -0.36357098818 -0.86911135912
-0.26657745242 -0.30750572681 -0.91343444586
-0.27552014589 -0.40976700187 -0.86948472261
-0.37920495868 -0.26256597042 -0.88726836443
-0.46810904145 0.62420320511 -0.62551432848
-0.35535630584 0.66411411762 -0.65778201818
-0.38537433743 0.57963383198 -0.71798658371
-0.26851785183 0.61546784639 -0.74100965261
-0.25474134088 0.6997307539 -0.66743814945
-0.49021592736 -0.3128258884 -0.81336355209
-0.5820453167 -0.22996018827 -0.77998363972
-0.47267448902 -0.17005130649 -0.86465841532
-0.59462666512 0.0429863967 -0.80281019211
-0.69830870628 -0.037961635739 -0.71474522352
-0.67539381981 0.095432445407 -0.73126238585
-0.7647010088 0.054886005819 -0.64199507236
-0.79421263933 -0.10242535919 -0.59893769026
-0.58353459835 0.14264029264 -0.79942899942
-0.1614215672 -0.13244384527 -0.97791600227
-0.11359218508 -0.044875312597 -0.99250519276
-0.044093366712 -0.1143181771 -0.992438972
0.0077658239752 -0.011796277948 -0.99990355968
-0.27455803752 -0.21257805824 -0.93760448694
-0.35124728084 -0.15943519771 -0.92256325483
-0.18006771803 -0.22338011861 -0.95793163776
-0.25457981229 -0.13598634303 -0.95733553171
-0.19732612371 0.55314958096 -0.80937999487
-0.30882251263 0.51732385159 -0.79812610149
-0.27978274226 0.41000935435 -0.86809575558
-0.36584544182 0.43199777603 -0.82434886694
-0.071359932423 0.5568716526 -0.82752472162
-0.14479243755 0.6199169755 -0.7711790204
-0.33113145828 0.080966614187 -0.94010353088
-0.24544224143 0.15820971131 -0.95639246702
-0.23302134871 0.067851543427 -0.9700704217
-0.43552315235 0.065405018628 -0.89780884981
-0.39523175359 -0.58950293064 0.70443850756
-0.30741068721 -0.48201689124 0.82044267654
-0.47860211134 -0.41931754351 0.77136349678
-0.59380072355 -0.46919986606 0.65352189541
-0.4282245934 -0.12119877338 0.89541506767
-0.25042462349 -0.16091175377 0.95463633537
-0.3271690011 -0.0096035795286 0.94489347935
0.035457015038 -0.12891115248 0.99101191759
0.16170729697 -0.1080711633 0.98090291023
0.12047225237 -0.2599824369 0.95805549622
-0.017051231116 -0.24368987978 0.96968853474
-0.0046034669504 -0.38606020808 0.9224242568
0.13800269365 -0.40510392189 0.90380531549
0.083902843297 -0.55858868361 0.82510370016
0.25562763214 -0.32741069794 0.90962308645
-0.13081686199 -0.29355898499 0.94690531492
-0.13374005258 -0.48536604643 0.86402630806
-0.25742790103 -0.34775581956 0.90155035257
-0.20934209228 -0.61338669062 0.76148158312
-0.2216515094 0.3874976635 0.89482283592
-0.15656837821 0.25707429647 0.95363777876
-0.49337938428 0.025436308235 0.86948746443
-0.48079788685 0.20356202126 0.85278064013
-0.3626743257 0.12805101275 0.92299163342
-0.61357998848 0.096069835126 0.78358250856
-0.31677117944 0.26328539848 0.91119837761
-0.42768868804 0.39311242104 0.81391817331
-0.22363476455 0.12271274626 0.96692991257
-0.071431435645 0.10590460896 0.99180483818
-0.17719508708 -0.018270364031 0.98399966955
-0.041995536536 -0.029164098203 0.99869644642
-0.1047937572 -0.14523507655 0.98382222652
-0.60751891136 0.29101917148 0.73893839121
-0.62370061874 -0.11790707707 0.77267795801
0.23590072989 -0.48609998822 0.84144467115
0.33109384775 -0.64129197598 0.6912997365
0.42313584685 0.06988427043 -0.90335965157
0.52603060007 0.10945677757 -0.84339731932
0.14606775343 -0.48805505037 -0.86051177979
0.25669646263 -0.53955280781 -0.80185955763
0.24536472559 -0.4250562191 -0.87126272917
0.59127950668 0.20249654353 -0.78062921762
0.44128870964 -0.66608643532 -0.60130923986
-0.130349949 -0.68117064238 -0.72041130066
-0.14766791463 -0.81071311235 -0.56655567884
0.36656570435 0.49502593279 -0.78775405884
0.37122169137 0.36851853132 -0.85225969553
0.29314997792 0.44140076637 -0.84805947542
0.26562923193 0.33134463429 -0.90534007549
-0.23860685527 -0.76156407595 -0.60257440805
-0.20951995254 -0.69594407082 -0.68682289124
-0.29959186912 -0.69161123037 -0.65720814466
-0.35058882833 -0.75235533714 -0.55773693323
-0.26881790161 -0.62454211712 -0.7331854105
-0.38953447342 -0.67312610149 -0.62859922647
-0.35977098346 -0.61124801636 -0.70492917299
-0.46749451756 -0.59305477142 -0.65556532145
-0.46854457259 -0.69407767057 -0.54657745361
-0.29012420774 -0.55222034454 -0.78152632713
-0.37922888994 -0.52045053244 -0.76504063606
-0.43187439442 -0.78333759308 -0.4458912909
-0.18653967977 -0.63760954142 -0.74739825726
-0.6199362278 0.57612675428 0.53262901306
-0.56391352415 0.47063350677 0.67860227823
-0.3933596015 0.63935995102 0.66064792871
-0.59763842821 0.56696349382 -0.56689083576
-0.51285225153 0.66683465242 -0.54049229622
-0.66501039267 0.6122238636 -0.42770940065
-0.71955680847 0.49875846505 -0.48321670294
-0.4285761416 0.24396087229 -0.86994230747
-0.50640231371 0.27195164561 -0.81826579571
-0.57053393126 0.22776451707 -0.78905421495
-0.59548455477 0.3081895411 -0.74188840389
0.79434973001 -0.11428020149 0.59654796124
0.8638304472 -0.27894037962 0.41754129529
0.7785051465 0.090714514256 0.6210360527
0.69044244289 -0.031009573489 0.72272747755
0.74961477518 0.28200146556 0.59848576784
-0.90186941624 0.14204134047 0.40533834696
-0.75844466686 0.21855044365 0.61190533638
-0.8870690465 0.27978894114 0.36403095722
-0.74952757359 0.3928745687 0.53253245354
-0.63043695688 0.38375899196 -0.67474889755
-0.70104563236 0.29333755374 -0.64915972948
-0.65018457174 0.20990009606 -0.73021000624
-0.41579577327 0.49496260285 -0.76296460629
-0.49378702044 0.53957635164 -0.68187212944
-0.50523662567 0.46567329764 -0.72655266523
-0.58344483376 0.47277531028 -0.66033756733
-0.67110013962 0.44455933571 -0.59233337641
-0.46245869994 0.42218691111 -0.77966552973
-0.42284673452 0.37413305044 -0.82536590099
-0.50444215536 0.35041674972 -0.78913080692
-0.55505102873 0.39751836658 -0.73068875074
[...]
CELL_DATA 1412
SCALARS cell_data_0 double
LOOKUP_TABLE default
8.8018183349e-06
4.06556248992e-06
4.69652603292e-06
1.61643739342e-08
4.55919241944e-06
7.59643500149e-06
1.74840805847e-06
4.32482652629e-07
9.48819908032e-06
2.09329714365e-05
1.75904677024e-05
1.15006170861e-05
6.74451387854e-06
2.45319880094e-05
1.72896631505e-05
3.05874471493e-05
8.81113970973e-06
2.08647198457e-05
1.38319849562e-05
1.07528207046e-07
3.42827529528e-06
2.25119221793e-06
1.9041313489e-07
7.10939014583e-07
3.49544327485e-06
3.07384393106e-06
3.09269603055e-06
6.21864174272e-08
6.84789946995e-07
1.8859782093e-06
1.50704358024e-06
3.5038193532e-05
6.23017419944e-05
2.48526431389e-05
3.1285628212e-05
3.59662638295e-05
3.53334259345e-05
4.77301087912e-05
2.29618305394e-05
5.51948543119e-05
2.70449172307e-06
3.09296144313e-05
7.21184615282e-05
1.16464696602e-06
8.79619869868e-06
1.82651197023e-06
7.44988942381e-06
5.64760050903e-06
1.13183309719e-05
2.80274483156e-05
1.20622466259e-05
2.06940338681e-05
2.67969664588e-05
4.28782563962e-08
2.75268092342e-05
6.87677488028e-05
3.85750773096e-05
3.71685155767e-05
2.43266181597e-05
2.59940715622e-05
1.25169028344e-05
3.5219363886e-05
3.72483127021e-05
1.00102742477e-05
4.6723855035e-06
1.62099615224e-07
1.6665879131e-07
4.44416514563e-08
1.94564113247e-06
2.70702702956e-07
7.64832958535e-07
1.09664534332e-05
6.39742134439e-06
3.14283770771e-08
3.27030967793e-06
3.46441835874e-06
2.03878901091e-05
1.03377092188e-05
5.10614163959e-08
8.181348766e-08
2.49137259526e-06
2.72298460866e-06
9.6776595365e-07
1.17743661019e-06
1.15498012629e-06
1.95452604034e-08
4.91476597476e-06
4.39794000492e-06
6.90482500054e-08
4.44433839989e-08
6.31483783198e-08
1.02209982963e-06
9.82125796895e-06
1.68751362915e-05
1.18501913551e-05
1.47323594325e-05
1.23730025609e-05
7.82612233147e-06
1.09969001068e-05
1.13883831378e-05
1.14635125093e-05
9.90004446237e-06
8.66612245065e-06
8.61745556316e-06
1.2566669456e-05
9.34684151074e-06
1.37613852794e-05
6.54273106777e-06
7.0582060077e-06
6.37957036658e-06
1.56699901735e-05
1.02149662099e-05
5.21718404362e-06
5.68058438149e-06
1.01602353328e-05
4.42684609697e-06
1.4803204e-05
1.26139748719e-05
5.7461645968e-06
4.57316586046e-06
5.93485124216e-06
5.4647888613e-06
5.63226571572e-06
4.90167638359e-06
6.07194234336e-06
4.84295411458e-06
1.50593207518e-05
1.98200792838e-05
1.08426564918e-05
1.30308579221e-05
4.1416850526e-06
4.39384568369e-06
4.30893791602e-06
5.67065380269e-06
7.55026368662e-06
5.24039453321e-06
7.82569972765e-06
1.03940657892e-05
1.01584157971e-05
1.20772869171e-05
1.13061163487e-05
1.35812423432e-05
9.95438172889e-06
1.33438112056e-06
1.16610317951e-05
5.7543092161e-06
5.63668689761e-06
9.98657866929e-06
8.61499662377e-06
2.56790325788e-06
1.10470168117e-07
1.25221140011e-07
7.60185580715e-08
1.10643881331e-07
3.14038832421e-06
8.34985608752e-08
1.60003254368e-08
3.79723723658e-08
2.83228623594e-06
2.76130027343e-08
1.25539049575e-07
5.58604555249e-06
1.63883299848e-05
1.52187365261e-05
1.34682438359e-05
1.11391002509e-05
1.12432494513e-05
3.44137673856e-05
6.61184187544e-06
1.19678972956e-06
1.49986890399e-06
4.92833341894e-08
4.07602949742e-08
9.74418631586e-08
4.02924493459e-08
8.40373552e-08
4.26197500812e-08
2.28728320344e-06
3.66722978886e-08
1.83869918392e-08
2.2503920856e-07
2.94854029234e-06
1.64250979519e-05
4.23815030027e-05
1.39112352308e-05
1.48028889779e-07
1.53287017088e-07
7.69737413613e-08
2.52771650285e-08
1.97476190773e-08
2.29991205487e-08
4.49733430218e-06
8.79644621723e-06
1.31616931274e-06
6.57275511324e-06
1.10978738976e-05
5.40245528146e-06
3.507343735e-08
1.16120971563e-05
1.53733513291e-07
4.55135736852e-08
3.43395400634e-08
4.14470551638e-06
1.37215091162e-06
4.26571400435e-05
2.40196845713e-06
3.90630727667e-06
7.62874477376e-06
5.09241732998e-06
8.99167182658e-06
1.2392861581e-05
1.34468068119e-05
9.65601100824e-06
3.4034260893e-05
3.93643090565e-06
6.10990242835e-06
8.48225684362e-06
4.69956468111e-06
6.94187415173e-06
5.90169024917e-08
1.08323489073e-05
1.16366714314e-05
4.67248925618e-06
1.24996706126e-07
2.77065539428e-06
6.31903084302e-06
2.66343292754e-06
8.36535106044e-08
4.66612020985e-06
7.8861878176e-06
4.33761228503e-06
9.43448586036e-08
2.44866560832e-06
2.11235793515e-06
2.36674510648e-06
6.06091901997e-08
1.57542834849e-06
2.03824674937e-06
2.3356493116e-06
8.50493744724e-08
6.57246926975e-08
1.6527094283e-06
2.47245356209e-06
7.18948454772e-08
1.57448269222e-06
3.43009171692e-06
8.22119683634e-08
2.56027516e-06
3.01320049653e-06
7.78714024478e-08
1.52296505666e-05
1.66207254113e-05
6.05498646344e-06
1.14566078371e-05
1.99454016373e-06
2.29708960489e-07
4.50146677788e-07
5.98861972054e-07
3.71469157261e-07
5.22405281786e-07
7.24113151533e-07
5.68273262232e-07
3.11776668046e-06
9.0372121418e-06
6.52869315248e-06
1.00376972149e-05
7.52104428494e-06
7.67207157305e-06
9.27867102818e-06
1.06307962851e-05
9.23241089518e-06
1.0444860772e-05
5.34864463364e-06
9.33256512912e-06
7.68593796509e-06
1.28664295409e-05
1.22922137275e-05
7.80026438538e-06
1.24698094068e-05
1.21040999119e-05
1.80209560893e-05
7.48133576097e-06
4.01680362292e-06
1.75339334508e-07
1.2321472921e-07
3.43316197914e-06
2.58461268409e-06
7.62096233757e-06
1.89692898436e-05
5.88653349877e-06
7.35165753088e-07
1.23462407697e-05
8.27003500837e-06
1.58763566194e-05
7.29552515388e-06
1.70696252748e-05
3.8610529807e-07
2.37099791376e-07
1.19706716954e-06
1.68699257599e-06
3.37969539408e-06
5.46762747637e-07
8.90447417396e-08
5.43834237627e-07
1.05021565654e-06
7.24028240338e-07
5.11856698288e-07
7.62874860823e-07
8.72295277123e-07
7.95042369464e-07
7.15783059274e-07
5.09684359603e-07
9.47406955942e-07
7.90677194001e-07
3.05875541024e-07
3.8007465446e-07
8.89766508441e-07
9.34284824389e-07
8.68472106573e-07
2.04496539178e-06
4.76602796024e-07
3.8417528554e-07
4.10613242446e-06
1.45173047626e-06
4.48012477855e-06
1.42012949781e-06
8.3323575328e-07
8.81306465399e-07
8.97989410227e-07
1.10692809787e-06
7.95558133292e-07
5.77736373849e-07
7.59522954648e-07
1.13025817697e-06
4.70421614223e-07
9.90193291013e-07
3.61026057289e-07
1.73138240339e-07
3.45125714631e-07
1.74652407659e-07
2.31385629239e-07
3.06536407797e-07
3.06908781799e-07
7.0936592177e-07
7.86899008522e-07
6.8088772558e-07
5.3371823008e-07
2.77961951919e-07
6.71573058158e-07
9.97563388846e-07
4.43152747381e-07
3.68991371667e-07
7.92607105544e-07
1.71667673646e-06
1.08873663366e-06
8.46040316847e-07
3.92548057001e-07
2.94629974246e-07
6.22181698111e-07
4.25613154113e-07
6.47722339272e-07
1.11723368291e-07
4.51579403558e-08
1.50387313376e-07
2.41666965569e-07
4.9132519117e-07
1.44909515921e-06
3.16157714541e-07
1.17321529036e-06
2.15518463053e-06
2.98313700471e-06
2.28895183009e-07
1.38159560124e-07
1.07723631165e-08
2.10280137239e-08
2.11091854948e-07
7.06000196949e-08
4.36211474123e-08
6.24361828745e-06
5.4143372559e-06
7.91011255074e-07
5.87927881894e-07
3.32863337426e-07
1.23159210009e-07
9.75618475452e-08
5.91679486683e-08
6.01102500513e-08
8.05426114651e-08
1.15000957862e-07
8.50844217453e-08
1.51866769005e-05
3.07091458028e-06
3.76911816071e-06
7.57216185572e-07
2.44981860298e-07
2.97945370271e-07
7.37843231795e-07
3.67500197357e-07
3.59902154927e-07
2.23162467233e-07
1.76279340774e-05
4.02763440701e-06
5.23756365338e-06
2.51077728818e-06
1.74788028126e-06
2.89697351903e-06
1.66034253372e-06
2.04443164468e-06
2.19010588465e-06
2.58382121817e-06
1.00041839292e-06
6.97944060198e-07
1.62377614464e-06
3.43690511618e-06
3.14119465336e-06
7.79421547635e-07
1.30385459698e-06
1.24444370884e-07
2.55742934236e-07
1.70075636356e-07
1.72009889945e-07
5.22480895986e-08
2.38622453824e-07
1.30944031316e-06
8.39417496634e-07
6.81349043026e-07
4.85063914708e-07
1.04819244697e-06
6.33128031254e-07
5.08596712382e-07
1.8495395682e-06
1.11109344975e-06
6.98335970091e-07
1.38818287447e-06
1.42064194757e-06
1.64264811574e-07
2.029586945e-09
3.57903841752e-07
5.8057326098e-07
1.79990515023e-06
2.20026960131e-06
1.32266363562e-06
1.56017096474e-06
7.53465367659e-08
3.14364222865e-06
6.40636434642e-06
9.95559278185e-07
2.450332092e-06
3.84986919424e-06
3.69735441397e-06
6.04682269128e-07
1.71700872103e-07
4.33552274368e-07
6.2943039678e-07
1.25340768633e-06
6.62765893571e-07
7.50281795546e-06
3.07898584639e-07
3.71276288082e-07
5.48744593116e-07
5.94982604164e-07
9.39777323406e-07
7.93283673111e-07
2.80301228925e-07
3.4514712822e-06
5.95415203682e-07
2.01212079919e-07
5.71976742245e-06
1.70725619029e-07
1.71262843638e-07
9.9852103052e-06
1.1040880495e-07
1.90079081004e-05
3.51904815692e-06
4.43411544566e-07
5.40235862104e-07
4.6457236736e-06
2.59612919512e-07
1.96878210039e-07
1.52747430067e-06
4.24379850365e-05
3.44778420211e-05
1.06435438319e-05
1.55806367368e-06
1.01340577818e-05
1.06925989379e-05
4.88126205393e-07
4.59095066548e-07
1.16057340866e-07
1.37103619947e-05
1.29701281657e-05
4.90689968571e-05
1.13959928918e-06
1.43629815962e-06
1.92544546326e-06
1.55943752995e-06
1.99245048375e-06
1.96377274041e-06
5.8569673508e-07
1.11989888358e-06
2.96075661588e-06
3.30460422262e-06
8.92507072147e-07
2.76405790086e-06
2.76021462203e-05
2.00560876035e-07
1.7118707936e-07
6.67269126804e-09
4.20763818336e-08
1.23045923637e-07
1.26275812826e-07
1.15627816021e-07
6.57371698901e-08
5.04912964017e-06
4.79766865032e-07
1.89092342154e-07
4.77018168918e-07
1.71246106536e-06
1.16062110498e-05
5.15981749624e-06
6.27062559017e-06
5.54638655395e-06
8.68271174198e-06
3.36904484679e-07
4.50824904729e-06
5.43187849754e-07
5.92338914298e-06
5.81103342103e-07
2.44075572347e-07
4.56716782958e-06
5.10625601632e-07
3.41173246267e-06
7.13682809397e-08
2.66929989543e-08
7.2438260465e-08
1.122872667e-07
4.10405433344e-09
3.65410442352e-07
1.81667257031e-07
3.87594988659e-07
2.71516469679e-07
2.26342637963e-07
1.82235834171e-07
2.70445134531e-07
1.06154870211e-07
5.19077151453e-06
6.44174908246e-06
1.00663970781e-05
7.26145061071e-06
1.85695790081e-07
3.21848260315e-06
4.0016613829e-06
4.82279759054e-08
2.89898910249e-06
3.54465816353e-06
4.68735657854e-07
8.98600378552e-07
9.08998635243e-08
3.67785827613e-07
5.24884471086e-07
4.40466872569e-07
2.55305112622e-07
3.42022377265e-07
3.24180087505e-07
1.54063021042e-07
4.53513397535e-08
1.30420856926e-07
6.17629407656e-08
2.12472167437e-07
2.39110606409e-05
5.34340198783e-06
6.43944753676e-07
7.6966973879e-06
3.16872521321e-05
1.03512236151e-05
1.84327128505e-05
5.66792566117e-06
1.56648923625e-06
2.35996422566e-06
1.22407377749e-05
4.03970959606e-06
1.77101477677e-07
4.74454634001e-07
3.40761492196e-07
2.66332926343e-06
2.15116422811e-06
5.98124384967e-06
2.19251310839e-06
2.51702716281e-06
3.75334067441e-06
3.02285974061e-07
4.24200047252e-06
8.5042977207e-06
6.28403886338e-06
6.6702026789e-06
2.32115204326e-06
2.3312559471e-06
2.54755958475e-06
2.20541822904e-06
1.1447879503e-06
3.61264710785e-07
3.09039132119e-06
8.95222517429e-08
2.60320634136e-06
2.31619350672e-07
7.89266493971e-07
1.6692100153e-07
3.52209207894e-06
8.17159660671e-07
2.1337448052e-09
5.93208146608e-07
2.23321864052e-06
2.37713304422e-06
2.78561582125e-06
1.69397209319e-06
1.28883773089e-06
1.50304512474e-06
1.00131583547e-05
2.95059544644e-07
2.89582381425e-07
1.90720617442e-06
1.40479141995e-06
1.08454333552e-06
3.09323308324e-06
2.65914739598e-06
2.79538762213e-06
2.6390296518e-06
2.16519215573e-06
3.00090587718e-06
3.85255635511e-06
1.54298563405e-05
2.97165053557e-05
1.27950044065e-05
3.12321132058e-05
2.01269199503e-06
1.73960966169e-06
1.37225097946e-05
1.19871983403e-05
1.28029688901e-05
1.51052397506e-05
1.94260168527e-06
2.53298771888e-06
2.16867793022e-06
2.35095640166e-06
1.71227291875e-05
9.37641675563e-07
9.7835196462e-08
8.7268373519e-06
4.94682178142e-06
3.91248376357e-06
5.35419814429e-06
4.01775187478e-06
1.33210901575e-05
1.41254673498e-05
1.58024670059e-05
1.76342605228e-05
8.90085644258e-08
6.39164649547e-07
1.08794265589e-06
4.95778201996e-09
9.46872919773e-09
5.31141894657e-09
7.06573796141e-09
3.62982123482e-09
2.76934820825e-08
9.66619283289e-09
3.50436064334e-09
5.7989939889e-09
5.50715451393e-09
4.2620858321e-09
1.25312237621e-08
1.04023459484e-08
6.33627503574e-11
1.46216589759e-08
6.60993206055e-07
4.26366754916e-08
1.66743508824e-08
2.75406506037e-08
3.41237015197e-06
3.91931626712e-06
7.78588900449e-06
3.7591685859e-06
5.45435856724e-06
4.32540750173e-06
5.12445916222e-07
2.31923135304e-06
6.25682963844e-06
2.819198905e-06
1.69193584094e-05
1.39155268422e-05
1.89509455559e-06
8.78404240777e-06
8.82610465388e-06
1.11117704541e-05
4.81760388501e-06
4.91932907937e-06
1.82118678699e-07
9.61552861679e-08
3.19521294341e-07
6.58264825671e-07
1.82528166201e-07
1.84792994914e-07
3.82498214454e-07
1.55903560309e-07
6.81872428637e-08
5.3459714377e-07
2.6261902211e-07
1.36787577695e-07
1.09509216539e-07
2.35641853356e-06
1.74920572206e-06
1.27299424624e-06
3.49243632974e-06
5.0697296672e-07
4.76033792122e-06
1.68631541565e-06
8.77748499182e-07
6.29980855853e-07
3.31728208929e-07
1.24720721266e-07
8.53613696819e-07
9.72648903435e-07
7.17733139978e-08
2.29797806282e-08
1.39195094315e-06
2.83089608977e-07
3.1146386535e-07
6.41612711513e-07
1.08058995094e-05
1.90883417171e-06
1.82718610447e-05
4.55834139063e-06
3.85254485375e-07
2.32678034783e-07
7.30683675946e-07
1.89853744753e-06
4.17987860138e-08
2.28186097919e-09
4.337060268e-07
1.09899458683e-06
3.72139784543e-07
2.97166896449e-09
5.78535002176e-07
9.97495723965e-07
3.09526971421e-08
3.82771185215e-08
1.79062815993e-08
5.01611715511e-10
7.22063164442e-09
2.54184304411e-08
1.59463172387e-08
1.96133478047e-08
2.22834729786e-08
5.06072824824e-09
9.78974351758e-09
6.79051230366e-09
4.39316787548e-09
1.20662592501e-09
3.29360922638e-07
2.18356723134e-08
5.83776524948e-08
3.16320223059e-08
1.42192988536e-06
3.10107748201e-07
7.99924809874e-07
2.37790383465e-06
5.82328773264e-07
1.71564309927e-09
1.14892343844e-07
8.1718355487e-07
1.53447319802e-06
1.16475477036e-05
4.28549922546e-09
8.81534997844e-10
1.56710901409e-09
2.95162739338e-07
2.82967379092e-07
7.62748687901e-08
6.63153020045e-08
6.00930818721e-07
7.99342652341e-10
4.65770619542e-09
6.8685287337e-07
7.99781554133e-08
2.38099122641e-07
6.23964958445e-07
4.03151892101e-09
9.50985254889e-09
5.62586340712e-06
8.75889223779e-06
2.66646940724e-07
4.38941936816e-06
4.45694130001e-06
2.55523829134e-08
1.20574980934e-08
2.95702075284e-09
1.1609155245e-08
1.29084127878e-08
1.06672701527e-08
1.61556671719e-09
1.07247981413e-08
1.03423245872e-08
1.21333396074e-08
3.18167823564e-08
1.70728843448e-08
1.97254757416e-08
2.4891806846e-08
3.64625456658e-08
1.56868891887e-08
4.51822043929e-09
4.43526556128e-07
8.09176035304e-07
7.88507755975e-07
1.69878737703e-08
1.9480573318e-06
1.34692015155e-06
1.59057109289e-06
8.9394974514e-11
1.17725734734e-06
4.53901382529e-07
1.32686797051e-06
2.69874499455e-06
2.22817631875e-06
7.15256796186e-07
8.96436337274e-07
9.30823475186e-07
3.45594819002e-06
5.14505914681e-06
5.13135912122e-06
7.78001328176e-06
1.05050385722e-07
1.42664509321e-07
4.21447549499e-07
5.15920668472e-07
1.1324946568e-06
9.35252054989e-07
2.14742570561e-06
2.80669651447e-06
1.26167458908e-06
6.04473065137e-07
1.59888929501e-06
1.8360092335e-06
4.24740873402e-06
3.92139113911e-06
1.59531141843e-06
3.38069214083e-06
4.14293058034e-06
3.30701126733e-06
3.14730318873e-06
5.62896657998e-06
1.80507968944e-06
1.66210748644e-06
2.81520845166e-06
3.59819756661e-07
6.76762736231e-07
7.30213875092e-07
6.20454415028e-07
4.01174219116e-06
1.0792787263e-06
2.97836978583e-07
1.27733643096e-07
3.21572508919e-06
1.44825205289e-07
2.17538991929e-07
2.29856406826e-07
4.72162980863e-08
1.09158841906e-07
8.34908421081e-06
1.78682467025e-06
1.47295464848e-06
6.20419927419e-08
4.86720972312e-08
3.60628503663e-08
8.06157978652e-06
5.74626478305e-06
1.33579769462e-07
3.83707247209e-08
3.52585034678e-08
6.57738679163e-07
1.29114684239e-08
1.02808951217e-08
6.40981379683e-09
6.5719346198e-07
1.24622934914e-07
7.83048540694e-07
3.03517271622e-08
1.3708281722e-08
3.91720204175e-08
4.86776489343e-08
6.38792375866e-08
4.69774611354e-08
3.58943288504e-08
3.84813857993e-08
3.21300238422e-08
6.16238363525e-08
7.84523627283e-08
3.46052559373e-08
1.03478936492e-07
2.91171487528e-08
2.43988888132e-08
4.00227670592e-08
2.35877527106e-08
2.81875727302e-09
1.85299421374e-08
9.93727225502e-09
2.48593996767e-07
1.11544432947e-06
1.02526113168e-06
1.04305928334e-06
8.03135140373e-07
7.14144899677e-07
3.19908588471e-06
2.99327823099e-07
2.09144540448e-06
1.38050266703e-06
3.26119509867e-08
5.09045298733e-07
1.14415946498e-05
4.08332206222e-07
4.06695727115e-07
2.44660103694e-07
2.19928691815e-06
3.67227204332e-06
1.31097215038e-06
9.28647093811e-06
1.45301670656e-05
2.5157536012e-08
8.86447469861e-08
3.84436569536e-07
3.6441705674e-07
4.33231686853e-08
2.20068323442e-08
1.2294342648e-08
3.54526985939e-08
2.06239102623e-08
2.36255990272e-08
1.12264231221e-06
8.42630121789e-07
1.03192612201e-06
2.17575480407e-07
3.85711014036e-07
1.63830511547e-07
3.32779070342e-07
2.13360364025e-07
6.61933371321e-07
1.52104878597e-08
4.92381258317e-07
1.34480765932e-07
3.81228915689e-07
2.91097138057e-07
5.33189569817e-07
4.14639812371e-07
3.79925454658e-07
1.05092798064e-07
3.40159613349e-07
8.8012368925e-08
2.02010801007e-07
1.23005165388e-07
1.91833540482e-07
3.2421900838e-08
3.26817932327e-08
2.66109639376e-07
4.34306634568e-07
2.054946732e-07
2.57040770654e-07
2.91186341503e-07
3.04530250272e-07
3.81616353188e-07
1.12683131323e-06
2.21113033898e-07
1.33103608399e-06
1.15441194802e-08
2.80202079251e-07
3.99221309308e-07
2.09683341263e-07
6.34168628527e-07
8.71949916299e-07
3.9455372134e-07
3.33030554964e-07
4.0662515749e-07
5.78024924761e-07
5.04401181889e-07
1.05808942308e-07
2.15290017554e-08
2.58624390042e-07
1.79847245495e-07
2.52436779707e-07
3.50696318705e-07
2.81768917059e-07
1.21840295862e-07
3.39136556795e-07
1.506483688e-07
3.92819733815e-07
6.97652597014e-07
1.54423939619e-06
5.34094910648e-07
5.36019114692e-07
5.30697827439e-07
3.61929942477e-07
9.41872140641e-08
1.79808643669e-08
1.32269893462e-07
8.7021085968e-08
8.84542605787e-09
1.51485221943e-06
9.27604168533e-08
3.57360476049e-07
1.30116143173e-07
1.35782809314e-07
8.78993871119e-08
1.03796027313e-07
3.02856382501e-07
4.04500255433e-07
3.43620009903e-07
1.93357940715e-07
6.98827283811e-08
5.04366538334e-08
1.63276914059e-07
1.54162686415e-07
1.13134122706e-05
9.2680861915e-06
2.1651868609e-07
1.84465648225e-07
3.68814647234e-07
2.65097892626e-07
1.49501310356e-07
9.94271011522e-08
1.88896547091e-07
1.10130102462e-07
4.10037640349e-08
1.55972972993e-07
7.09039306423e-09
1.72576778685e-08
2.60335588363e-08
9.94126186361e-09
1.55339087984e-08
6.60882862267e-09
1.55596814936e-08
1.35355971483e-08
1.62225054199e-08
2.65504738882e-08
2.80497182653e-08
3.64050618276e-08
6.5663567595e-08
4.39777736376e-08
8.7414326702e-08
1.04904076418e-07
9.27888935242e-08
1.73109727458e-06
2.71363080757e-08
2.557871993e-08
1.31740504269e-08
2.92472846253e-08
2.14399878094e-08
1.45409891121e-08
1.06387520772e-08
3.83096932915e-08
3.227899707e-06
6.73013566365e-06
1.60033886665e-06
1.80192482945e-06
2.08022944224e-06
1.99273991996e-06
1.4718126363e-06
3.30130677008e-06
4.69625914319e-06
2.82115348939e-06
1.02557382816e-07
2.54039088943e-06
2.25324877443e-06
1.07353082713e-07
4.02849516865e-08
4.66775865508e-08
4.73461099028e-09
1.2416655611e-08
1.85818772033e-07
2.02873889578e-07
5.26553494471e-08
6.94420611659e-08
4.94442562127e-06
5.33642394129e-06
1.26184035506e-07
1.31941183126e-07
7.75843331944e-08
4.79402571867e-07
1.54409182092e-07
5.35956758838e-07
4.23044355781e-07
5.3195148181e-07
4.69485775812e-08
2.33728976943e-07
1.67026711096e-08
3.90339074053e-09
2.38926491284e-07
2.16394976541e-07
1.54904716745e-07
5.02108189704e-07
8.06484905796e-07
2.06563771968e-07
1.2433435677e-07
1.29267665683e-07
2.62468457784e-06
1.16241149718e-07
2.04956834607e-07
1.25062385733e-07
1.50010127845e-07
3.64239403806e-06
2.9683057248e-07
5.46000968681e-06
2.28081596415e-07
1.84968005766e-06
1.02512384465e-07
6.73983739177e-09
2.07729180401e-06