# vtk DataFile Version 3.0
File Name: Molecule/sphere_excent/sphere_excent_0-s31.vtk
ASCII
DATASET UNSTRUCTURED_GRID
FIELD FieldData 1
TIME 1 1 double
0.0
POINTS 385 double
0.33768978715 -0.63780212402 0.69231891632
-0.0014821713557 -0.85370147228 0.52084010839
0.4999756515 -0.8105995059 0.30410176516
0.85170382261 -0.32939451933 0.40725591779
0.86747002602 -0.49046108127 0.081212572753
0.98557162285 -0.13903003931 0.096877701581
0.4997445941 0.70852583647 0.49835991859
0.41708052158 0.56092220545 0.71441733837
0.71701222658 0.36867776513 0.591152668
-0.53062725067 -0.82840454578 -0.17753976583
-0.00050651904894 -0.99918812513 0.033192925155
-0.45684248209 -0.85841584206 0.23082104325
-0.90619128942 0.14552327991 0.39615905285
-0.9808473587 -0.15195177495 0.09068788588
-0.83755850792 -0.28267019987 0.46739029884
-0.84147679806 -0.52308237553 0.12778483331
0.46829977632 -0.86738115549 -0.16753353179
0.0083615081385 0.99946695566 0.024427704513
-0.27297535539 0.94465047121 0.18171463907
-0.013259446248 0.88999158144 0.45509788394
-0.37794268131 0.81410855055 0.43896922469
-0.25613605976 0.95393806696 -0.1565515846
-0.51969063282 0.85428410769 -0.0010953093879
-0.48847451806 0.81166452169 -0.32029718161
-0.5413838625 0.79208147526 0.27994245291
0.041855368763 0.94081479311 -0.33595392108
0.26015898585 0.95670711994 -0.13022355735
0.27069333196 0.93088871241 0.24419397116
0.44478437304 0.89537966251 0.024629892781
0.37707969546 0.8455876112 -0.37753677368
0.23303195834 0.75841116905 0.60805010796
0.58183896542 0.55160027742 -0.59759646654
0.41748183966 0.71497040987 -0.56086790562
0.56931364536 0.67519509792 -0.46867093444
0.17120142281 0.80859690905 -0.56278645992
0.93699961901 -0.30349072814 -0.17059527338
0.22991113365 -0.033061880618 -0.97243201733
0.14147678018 -0.19877642393 -0.96949350834
0.032960060984 0.027350423858 -0.99900960922
0.68388622999 -0.64040613174 -0.3498570025
0.50527113676 -0.67365181446 -0.53930842876
0.68287497759 -0.48128226399 -0.54938870668
0.6305231452 0.30962204933 -0.71175283194
0.70284873247 0.32349315286 -0.63335746527
0.68117511272 0.21057455242 -0.70111864805
0.67715495825 -0.22921288013 -0.69922327995
0.75416916609 -0.096953980625 -0.64941799641
0.76008677483 -0.29458773136 -0.57909208536
-0.62092483044 -0.14906930923 0.76891314983
-0.46274933219 -0.34049338102 0.81836658716
-0.38781768084 -0.14348712564 0.91012305021
-0.28330948949 -0.30775079131 0.9083096385
-0.6043510437 -0.47279080749 0.64109760523
0.93731939793 0.11328769475 0.32858946919
0.96761137247 0.2108809799 0.13853543997
0.84581547976 0.43969941139 0.30198469758
0.65731781721 0.66632783413 0.34652402997
-0.69870269299 0.6984115243 -0.15307533741
-0.68238610029 0.70244830847 0.20150534809
-0.76781439781 0.63784474134 0.055390402675
-0.4706273675 -0.3467438817 -0.8112975955
-0.51521074772 -0.5117585659 -0.68670642376
-0.62697988749 -0.32520139217 -0.70760011673
0.47525021434 0.86065942049 -0.18286831677
0.59211689234 0.74352127314 -0.30956628919
0.51370710135 0.83797317743 0.18227823079
0.070888854563 -0.57739979029 0.81332582235
-0.86285144091 0.40525263548 0.30066877604
-0.9628854394 0.25959572196 0.039787836373
0.51068037748 0.29166522622 0.80880528688
-0.012554876506 0.32309001684 0.94625395536
0.16655266285 0.34258565307 0.92434316874
0.029178600758 0.52569282055 0.85007417202
-0.035431180149 0.12581728399 0.99141019583
0.15239605308 0.15571092069 0.97594547272
0.0914580971 0.0083481809124 0.99576216936
0.20858430862 0.57875722647 0.78834295273
0.33076813817 0.4018073976 0.85382592678
0.34437033534 0.18190675974 0.92107492685
0.51053506136 -0.030571255833 0.85911911726
0.28436139226 -0.01755666174 0.95851564407
-0.015664448962 -0.93664193153 -0.34921076894
0.21476402879 -0.92448186874 -0.3148471117
0.38149186969 -0.4566590488 -0.80370020866
0.53637444973 -0.50193238258 -0.67828226089
0.37430477142 -0.59199714661 -0.71369928122
0.85918825865 0.12430156022 -0.49608111382
0.77752244473 0.20031097531 -0.59607821703
0.83904355764 0.27402514219 -0.46983769536
0.80258113146 0.038862794638 -0.59514683485
0.71797978878 0.081084303558 -0.69131422043
0.86313927174 -0.13148210943 -0.48730975389
0.60007810593 0.090308174491 -0.79487413168
0.65077769756 -0.017310908064 -0.75906306505
0.52453500032 -0.029833013192 -0.85084396601
0.60521018505 -0.13740831614 -0.78409004211
0.055446624756 -0.87235999107 -0.48578184843
0.33533081412 -0.81651288271 -0.4695853591
0.3037148118 -0.71043068171 -0.63452631235
-0.26573756337 -0.90207141638 -0.34002950788
0.14829586446 -0.73727285862 -0.65912586451
-0.0033161046449 -0.78042525053 -0.62518203259
0.064238511026 -0.68283677101 -0.72775244713
-0.049522984773 -0.68497163057 -0.7268538475
-0.12520974874 -0.73023533821 -0.67154216766
0.100582771 -0.59111380577 -0.80027872324
-0.017947213724 -0.60416227579 -0.79665255547
-0.098260268569 -0.86424183846 -0.49348393083
-0.25281536579 -0.82128429413 -0.51132160425
-0.44577428699 -0.77544695139 -0.44688674808
-0.11927356571 -0.61038661003 -0.78305333853
-0.11657685041 -0.53625422716 -0.83592289686
0.20515435934 -0.6487442255 -0.73276412487
-0.82586085796 0.2007342875 -0.52465468645
-0.76009392738 0.3839661479 -0.52327090502
-0.69340413809 0.31728503108 -0.64688867331
-0.66140151024 0.43500244617 -0.61098086834
-0.37709230185 0.1877708137 -0.90695768595
-0.4669059515 0.090408235788 -0.87966519594
-0.48650312424 0.19470956922 -0.85167551041
0.51783275604 -0.32423731685 0.79175502062
0.67656034231 -0.24513308704 0.6945759058
0.61296230555 -0.49082618952 0.61916124821
-0.76354461908 0.027996344492 0.64426451921
-0.59677362442 0.12415674329 0.79238128662
-0.71140819788 0.22704644501 0.6643409729
0.8554469943 0.02655339241 0.51723766327
0.34802591801 -0.38604384661 0.85428035259
0.37759253383 -0.19795282185 0.90457236767
-0.21795608103 -0.46214812994 -0.85958057642
-0.36491772532 -0.5051727891 -0.78207582235
-0.30755776167 -0.3906711936 -0.8674774766
0.64228886366 0.14299066365 0.75296342373
0.23316378891 -0.18885697424 0.95393007994
0.095787219703 -0.38787811995 -0.91663408279
-0.016781622544 -0.2905857265 -0.95666611195
-0.15350474417 -0.36915361881 -0.916421175
-0.028903413564 -0.40491110086 -0.91389447451
-0.10708265752 -0.45575487614 -0.88363951445
0.0060980846174 -0.50545603037 -0.86279630661
-0.22068969905 -0.5515704751 -0.80440610647
-0.26732942462 -0.61155831814 -0.7446423769
0.92523425817 0.051271241158 -0.37572732568
0.90652149916 0.4135248065 0.083866901696
0.79401612282 0.59675431252 0.11187468469
0.97963148355 0.012586176395 -0.19919542968
0.99404424429 0.10367500037 -0.033802308142
0.94369524717 0.1582159102 -0.29037868977
0.96992856264 0.18574365973 -0.15739093721
0.92916673422 0.27644774318 -0.24538621306
0.89440816641 0.2713136375 -0.35552597046
0.93795740604 0.31662896276 -0.14131610096
0.88429528475 0.35246810317 -0.30616906285
0.89556729794 0.39304181933 -0.2085544765
0.84704506397 0.43465903401 -0.30575174093
0.84053170681 0.37126505375 -0.39443275332
0.90270799398 0.42431300879 -0.071442872286
0.84713745117 0.49891296029 -0.18280079961
0.82625949383 0.56224936247 -0.019001472741
0.89830976725 0.17816020548 -0.40161111951
0.96077281237 0.27651533484 -0.021220734343
-0.04125469178 -0.15019923449 -0.9877692461
-0.1689003706 -0.24326364696 -0.95513826609
-0.19696953893 -0.12042341381 -0.97298312187
-0.31388270855 -0.27791199088 -0.90759342909
-0.23781895638 0.88006156683 -0.41081464291
-0.071888096631 0.5339024663 -0.84247475863
-0.12895508111 0.62469869852 -0.77012050152
0.018210597336 0.60839051008 -0.79341298342
-0.035071689636 0.73303222656 -0.67926871777
-0.22531428933 0.69226127863 -0.68548285961
0.13408789039 0.67374002934 -0.72668474913
-0.27842432261 0.58504146338 -0.76167958975
-0.044595919549 0.84523636103 -0.5322522521
0.70487821102 -0.70426231623 -0.082916013896
0.82163196802 -0.39440643787 -0.41140797734
0.83157014847 -0.51598650217 -0.20594526827
0.40865790844 0.60333675146 -0.68488055468
0.2807636559 0.68490290642 -0.67233598232
0.27831360698 0.57634270191 -0.76836597919
0.38643047214 0.49028542638 -0.78121238947
-0.33916890621 0.77190476656 -0.53749406338
-0.49545177817 0.69385826588 -0.52256673574
-0.36467191577 0.66450315714 -0.65222525597
-0.47075858712 0.60414105654 -0.64297288656
0.15264447033 0.4081813395 -0.90000623465
0.14992387593 0.53807520866 -0.8294480443
0.27988770604 0.44905814528 -0.84855121374
-0.39542204142 0.55931735039 -0.72855198383
-0.6482282877 0.609785676 -0.45508676767
-0.58132594824 0.54694193602 -0.60204339027
-0.18312630057 0.79072624445 -0.58409559727
0.030129658058 0.47177612782 -0.88120114803
-0.12160110474 -0.032598469406 -0.99203377962
-0.17285443842 0.091169923544 -0.98067736626
-0.25689667463 -0.010899452493 -0.96637952328
-0.32419717312 0.090907759964 -0.94160145521
-0.33313444257 -0.099834270775 -0.93755406141
-0.40803807974 -0.01218208205 -0.91286510229
-0.47942554951 -0.14417794347 -0.8655974865
-0.5343773365 -0.038757089525 -0.84431540966
-0.57603091002 0.056516714394 -0.81546086073
-0.59856557846 -0.18813219666 -0.77832120657
-0.66006183624 -0.033261600882 -0.75039666891
-0.64790117741 0.11524730921 -0.75280547142
-0.7382953167 0.070466972888 -0.67056471109
-0.79395717382 -0.10028986633 -0.59940475225
-0.56257373095 0.15269467235 -0.81251507998
-0.27891594172 -0.18554607034 -0.94219350815
-0.38291269541 -0.19929100573 -0.90187960863
-0.078038685024 0.20144054294 -0.97637677193
0.072932898998 0.19296008348 -0.97847145796
-0.0025485013612 0.33264422417 -0.94304317236
-0.17262555659 0.31669041514 -0.93270254135
-0.24773441255 0.20377285779 -0.9471732378
-0.32821470499 0.31898728013 -0.8891056776
-0.42863020301 0.25185483694 -0.86766022444
-0.18871338665 0.52038836479 -0.83276349306
-0.32499182224 0.4767216742 -0.81684166193
-0.10631570965 0.42969223857 -0.89667123556
-0.23482519388 0.41773843765 -0.87774908543
-0.14926478267 -0.59590142965 0.78886240721
-0.37003839016 -0.60346615314 0.70622736216
-0.68375879526 -0.6086769104 0.40156275034
-0.72156757116 -0.68757683039 -0.070075914264
[...]
CELL_DATA 766
SCALARS cell_data_0 double
LOOKUP_TABLE default
1.86960510623e-05
7.51109107167e-06
4.85095638202e-08
1.52756916827e-05
1.00433509089e-05
5.315470762e-06
1.30427552002e-05
8.77064654982e-06
9.79786299266e-06
6.16240447814e-08
9.25020168161e-07
2.44475311869e-06
2.66698336134e-06
3.79664277978e-06
1.39997439972e-06
4.26109403402e-06
4.116348805e-06
3.03889630509e-06
3.05010627858e-06
3.4236594593e-06
4.36201838916e-06
1.14499048607e-05
1.14904737316e-06
5.99325812015e-05
4.70420871837e-05
5.37886740305e-06
4.98946339948e-05
1.37467240119e-05
1.26078940366e-05
4.18953598913e-07
1.13563400566e-06
1.32263324977e-07
8.49542613727e-06
1.33732117936e-06
9.66443739261e-05
0.000154556258609
0.00027114208921
0.000187669535933
9.6820082429e-06
6.08272894132e-05
1.39971705359e-06
7.25541548066e-07
1.58163845042e-07
1.44866465047e-06
2.36900832166e-07
2.40677380046e-06
2.58591337679e-05
2.72174926597e-05
1.54773992179e-05
2.20102324004e-05
1.1792700786e-05
1.17776605411e-05
2.22104440221e-05
2.06894437323e-05
9.76867198754e-06
9.14383450776e-06
2.12518922912e-05
1.66746510486e-05
2.35167489326e-05
1.02258984036e-05
1.28562461507e-05
1.48424934468e-05
1.77969713331e-05
9.72738708033e-06
1.20383858144e-06
4.35917316314e-06
2.57999120828e-06
1.17342516669e-05
3.13795206121e-05
2.80674947432e-05
1.43150045624e-05
2.23949909629e-05
2.00431095529e-05
1.84119318705e-05
1.37700033129e-05
1.31601259914e-05
8.10775322378e-06
5.87425971726e-07
7.79888647927e-06
2.53206066032e-05
4.42534730648e-05
2.47021397852e-05
7.81663281597e-05
7.7551752609e-05
1.00177397619e-07
1.15962730268e-07
8.41027833047e-08
4.92712507994e-09
1.88066203978e-05
3.30045426132e-05
3.74507561474e-05
2.99351507692e-08
1.4744199419e-06
5.15100299272e-08
3.307430862e-08
9.68353075617e-07
3.06194278672e-07
1.54884450018e-08
4.03859245803e-07
1.19219933665e-06
1.42162400286e-05
8.43673028019e-06
1.52499866894e-05
1.24549132357e-05
1.81500759578e-05
1.84795072721e-05
1.47525028955e-05
1.33558041246e-05
1.19340891451e-05
6.81895034611e-06
8.5700468717e-06
2.87272975919e-05
4.49512538357e-05
9.5601925896e-06
1.35134849582e-05
1.41340154223e-05
4.3340164844e-07
1.21120080058e-05
9.64575323926e-06
7.5985710189e-06
1.38622860043e-05
6.8481170615e-06
3.6992875047e-06
3.01979603509e-07
2.18694298911e-06
2.29578302237e-06
4.53738484952e-06
2.27223071112e-06
2.75810891557e-06
3.40434382438e-07
6.23174059506e-06
1.48801886426e-06
2.15865680922e-06
1.23087872561e-08
3.92312637073e-06
9.71439426398e-05
3.10274507443e-05
1.31647696906e-06
3.9415398866e-05
1.6661125002e-07
3.58803157256e-07
2.35079020464e-07
3.25946226585e-07
1.50976220195e-07
2.29178939614e-07
1.89125310184e-07
2.56163037861e-07
1.11132567224e-07
3.66434474144e-07
4.35969460352e-07
3.22392234879e-07
9.07539603733e-07
7.82770886693e-07
1.11934598166e-06
9.77009996124e-08
2.34819619153e-07
1.47914220409e-07
2.69926166851e-07
1.60793801922e-07
5.21038031259e-07
3.50353271569e-07
1.99072212352e-05
1.88907332338e-05
8.0135432248e-07
3.82357542535e-07
6.00408866634e-07
9.57751562363e-06
1.92605092146e-06
3.29789020225e-07
5.89958399278e-06
2.60295555228e-07
6.26509429341e-06
6.78623636537e-06
4.69204560289e-07
2.87339419553e-07
5.01772256044e-06
4.99337046986e-06
2.42824503192e-06
1.41484724422e-06
1.30239743987e-07
1.85458924109e-07
1.87166830335e-07
6.54819738462e-08
9.36497069605e-08
9.56538872487e-08
1.75159680327e-07
1.73075007972e-06
3.2726769037e-05
4.7842507055e-06
4.23972019447e-06
1.33940124022e-06
1.52817112837e-06
1.26107660629e-06
2.07098478561e-06
1.46749142627e-06
2.21830653553e-06
3.07594898999e-05
3.11687633672e-05
3.84188427859e-05
1.28137533431e-05
1.59564499965e-07
1.22581309647e-07
5.18686691714e-08
1.46899734543e-06
3.23566629911e-07
1.22759490223e-07
2.1765754447e-07
2.4355830059e-07
1.96022823464e-08
2.18314654495e-09
3.46615233556e-08
1.91392937247e-05
3.07375172924e-07
4.1482785876e-08
2.2563400781e-05
1.03158290046e-05
3.57098941997e-07
3.74347894158e-07
1.40851982371e-07
1.84792636342e-06
2.49256050421e-08
8.06738878635e-08
1.23275078876e-08
1.81240052517e-07
1.83222663217e-05
4.44280936401e-08
2.96130874553e-06
4.86080760511e-08
5.8544441566e-08
5.81719233559e-08
5.93970596145e-08
5.71779625721e-08
1.3898750846e-07
6.73895051798e-08
7.16525522496e-08
6.48607406551e-08
1.29143770811e-07
1.27333590167e-06
1.10629292749e-07
1.34683552295e-06
1.64373557448e-07
4.62717217859e-07
5.09877953306e-06
5.01178063551e-07
1.30274421321e-06
1.88620500875e-07
3.50379249987e-06
4.82164358986e-08
2.4775006433e-08
1.3788550379e-07
8.03842084844e-08
2.65753394995e-07
3.90056788344e-07
2.31098216495e-07
8.15285323865e-08
3.28744478161e-06
6.48559712911e-09
5.44067888943e-08
1.9584220011e-08
1.3336378192e-08
6.55076693567e-09
4.59418188692e-08
2.36693681784e-07
2.02650415864e-09
1.16826993575e-08
5.53200478344e-08
6.24402339456e-08
2.02741525377e-08
3.00771642066e-08
3.13866180407e-07
3.88258833873e-08
2.55427161724e-07
2.938920783e-07
2.54174178012e-07
5.69682644673e-08
5.22260925176e-08
1.03598677034e-08
6.05172887409e-08
3.73419397864e-06
4.10996275953e-08
1.69128127457e-08
4.22589219456e-08
2.13135702326e-05
2.11093517304e-05
9.27778847891e-06
9.23687404173e-06
2.25044032614e-06
4.8351966975e-06
1.00072998744e-06
9.84579450785e-06
7.79583417539e-07
1.53459398718e-05
1.1062071006e-05
5.54827109464e-06
1.96367044365e-05
1.05779680079e-06
1.47269552822e-05
1.72577414303e-05
1.2964657607e-05
1.27636172119e-05
1.31717165247e-05
1.29878707594e-05
1.23856969691e-05
6.73421957778e-06
5.39531084965e-06
1.02928383288e-05
9.90030032906e-06
9.95031118585e-06
6.24503353486e-06
7.93200895032e-06
1.51925234973e-05
9.32195547528e-06
5.00793039598e-06
9.55130373041e-06
1.71260703828e-05
2.17795850668e-05
4.56280730522e-06
3.26623905233e-06
1.01721912484e-05
6.0197878944e-06
7.74998981896e-06
9.93984529145e-06
7.40287677384e-06
2.53282562064e-06
9.42113386681e-06
1.72052864998e-05
1.84030182541e-05
1.89425793982e-05
1.15560852059e-05
2.10028766234e-05
1.86524426712e-05
1.85941683956e-05
1.75253555801e-05
1.31805120746e-05
1.46921140367e-05
1.20549553185e-05
1.64642259652e-05
1.18798326108e-05
1.13349152093e-05
1.21232838433e-05
1.59243832836e-05
1.22054573736e-05
1.30729228022e-05
3.96755807898e-06
5.21158570078e-06
1.5014678016e-05
1.39891586226e-05
1.36072226913e-05
8.75433380095e-06
8.79775980841e-06
5.39293465376e-06
2.25853828648e-05
3.44991351014e-06
1.09047564959e-05
3.60167523453e-06
2.62798011144e-08
6.04878592734e-09
2.06587918992e-06
1.40193726771e-07
2.8634688231e-06
1.149481542e-07
1.65477690486e-06
1.29122727651e-07
3.24547055698e-08
5.89216384411e-08
2.5622554424e-08
8.36052998796e-06
1.3099401432e-05
5.32037056835e-09
7.22079104329e-09
2.06042546728e-06
1.93389061954e-08
5.01591413718e-09
3.40157163633e-08
1.87077809744e-07
9.00629833651e-08
3.5416876968e-06
4.00077212699e-06
2.60867379382e-08
1.41430616407e-08
3.42683480785e-06
3.54250754996e-06
2.84002983962e-06
8.05219179542e-09
4.55690623165e-06
3.39684816187e-06
3.8677134344e-06
5.59538830505e-06
8.95311629932e-06
9.19401438879e-06
2.34812010927e-05
1.66919483876e-07
1.09233695022e-07
5.00317447201e-06
5.96356568629e-08
1.3131033285e-08
1.78027121982e-08
2.76976572707e-06
9.60213726373e-09
1.29451816496e-08
2.90769858119e-06
6.36252157275e-06
1.29616067754e-05
2.70652384035e-07
6.36920335474e-08
2.63643099312e-07
8.36004123014e-06
2.31671710783e-06
4.37407831707e-06
2.77521547165e-06
9.54643543811e-06
7.27265364426e-06
8.41059930706e-06
3.59692656691e-06
2.95892269462e-06
3.4187107148e-06
4.32141156993e-06
6.88965546571e-06
7.30284669925e-06
9.51319922127e-06
8.0928729419e-06
9.2993863544e-06
5.33669761003e-06
8.11439806811e-06
4.77810275032e-06
6.8349294343e-06
7.61055875879e-06
9.06742246175e-06
5.12872375466e-06
1.17900911309e-06
7.14914296155e-07
2.43359507715e-06
1.12741712789e-05
1.91018885667e-05
2.74217765521e-06
3.41264673571e-06
6.47205827715e-06
1.55271011783e-06
3.70589814597e-06
1.03075465892e-06
2.5018286873e-07
1.71523297181e-06
1.82145668447e-06
1.06218823012e-06
3.5353484758e-06
3.36336352778e-06
3.37881696997e-06
7.74422531789e-09
3.4511893311e-06
1.52431681963e-06
3.51856523491e-06
7.59256978775e-07
7.41859818651e-07
6.3187318554e-06
1.93116022962e-06
9.59585026748e-07
6.47414181336e-06
1.7560979035e-06
2.28534484695e-08
6.80438604836e-06
7.69234269372e-06
2.45322436094e-07
9.98800337385e-06
7.32645785994e-06
1.06900200014e-05
1.01329468707e-05
2.01863241745e-06
2.94567129535e-06
4.71755429333e-06
4.30767980475e-06
1.46574045011e-06
1.94135121995e-06
1.94126516762e-06
1.91697393866e-06
3.96081517384e-06
1.9103786361e-06
1.89980152317e-06
7.76769194978e-07
7.73243695489e-07
4.81253029809e-07
6.04710600978e-07
1.39352816129e-06
1.84415820553e-07
2.20163044537e-07
3.73712409279e-06
7.29326598359e-06
5.51249489304e-06
9.53592564851e-06
9.50360684015e-06
1.04369170443e-05
7.21272088801e-06
9.88102491915e-06
8.33676857609e-06
6.69466175355e-06
4.34289146617e-06
4.98691013243e-06
6.81913510377e-06
1.34680703648e-05
1.40693233514e-05
1.96691584933e-06
9.20747453475e-06
7.87700903447e-06
8.08241705531e-06
1.8575517339e-05
2.63150437862e-06
1.06594590978e-05
1.86205341831e-07
2.1258826123e-06
2.38957083188e-06
8.35271708061e-06
1.1316343843e-05
3.35429215415e-06
1.08052096303e-07
1.90637271466e-07
7.62608969947e-06
1.66386578426e-05
1.11617312592e-05
1.36620563176e-05
3.55404210589e-06
3.64897012078e-06
1.00841414846e-05
1.04124152073e-05
6.14388406706e-06
1.06488229436e-07
4.45399370791e-06
4.61080742781e-07
2.98242387695e-06
5.70649027377e-06
1.33400622623e-06
5.75029680753e-07
3.98735047784e-07
5.10870374042e-07
6.36499092865e-07
2.98345237648e-07
2.87639237802e-06
2.15561155858e-06
4.268981031e-06
6.42492737182e-06
4.17015423997e-06
4.03657833089e-06
1.15727538074e-08
1.90565568576e-06
9.82358170331e-07
8.97589314004e-07
4.59414516709e-06
8.17445447995e-06
4.15299527666e-06
4.34959490647e-08
6.0512796871e-06
5.47660897487e-08
8.02041273464e-06
2.67316593816e-06
2.74149150126e-08
5.22091633466e-06
1.3850769987e-05
3.77517009555e-06
1.25035368012e-08
1.96570863842e-07
5.71997667424e-07
2.05212814678e-07
1.86625337743e-08
6.63824225179e-07
5.18881152649e-07
1.93190834717e-07
2.03633583984e-07
1.65731704446e-06
6.90691708179e-07
9.11356805539e-07
1.0530043135e-06
9.61787880537e-06
6.72129151824e-06
5.62483823766e-06
9.86607220068e-06
1.59653182471e-06
2.97217472574e-06
6.00926423984e-07
8.395839491e-07
1.18868197003e-05
8.06218036618e-07
6.63300228663e-08
7.24129210594e-08
1.38142976208e-07
7.79408980201e-08
5.24346171875e-08
1.0766787517e-07
1.03651595355e-07
5.11844867725e-08
9.63401721975e-09
3.75288402623e-06
1.22864687848e-07
1.52353604627e-05
5.23729515765e-06
1.34026132461e-07
8.25933049261e-08
8.7304525505e-08
7.29237182524e-07
9.69134482959e-07
2.61118676977e-07
1.72183374981e-07
2.8038088272e-07
2.34267656595e-07
1.30311770834e-07
1.42083720883e-07
5.10388064813e-06
1.0755420865e-06
3.46890915753e-06
2.85742659038e-07
1.09832662253e-06
2.29144470238e-07
2.5068063669e-07
8.09590146042e-07
1.40582689149e-07
1.3748817854e-05
1.79499999893e-06
1.37240004041e-05
5.11529937069e-07
1.30497548283e-05
1.09704441259e-05
1.46578354228e-08
2.80903639548e-08
7.97213569721e-06
3.15443633802e-06
6.23942882875e-08
2.75006679281e-06
2.2135459906e-06
2.48759049007e-07
1.29341276079e-07
2.85575738606e-07
8.20016554768e-06
6.1770258455e-06
4.00259143413e-06
5.88928160472e-08
1.94483955155e-07
1.19738311298e-07
6.70452256207e-07
1.27976882057e-06
1.19590552784e-06
1.83548894943e-08
5.2605976159e-07
1.95102342427e-08
7.14321838652e-06
5.91132526804e-06
3.29881350014e-06
2.44924247153e-06
1.55963211374e-06
2.71526230538e-06
2.90854952967e-07
2.7351326702e-07
1.25548806222e-06
1.81818393278e-06
1.2534089956e-07
1.3775448238e-06
7.96145554946e-07
7.7933882806e-07
2.32193726363e-06
1.7282016285e-06
3.34772912665e-05
4.4586136145e-05
2.74954008139e-06
4.45625703686e-06
2.01057594957e-05
2.2605891952e-05
1.39744686181e-07
7.51086982019e-07
5.16457363403e-06
2.29081333989e-06
1.00048931296e-05
2.80736899029e-05
3.25006198511e-06
1.07942061099e-07
6.90909781292e-07
1.20161753869e-05
2.28291667009e-05
1.72198078993e-06
1.66388141422e-07
4.28440598037e-08
2.19520755265e-07
8.98494180539e-08
2.89188252352e-07
7.3065522885e-07
1.46036382531e-06
1.89885536667e-07
2.22485297488e-07
5.48693918989e-07
2.26862371111e-07
1.80035098588e-07
5.11374621293e-07
4.54463185969e-07
8.36529789355e-07
5.89829206097e-07
8.0654762318e-07
6.2508076847e-07
7.06060610642e-07
1.78421163708e-06
4.40019405742e-06
2.31750353148e-06
1.08411599108e-06
2.4131185062e-05
2.64419711948e-05
4.65520413786e-05
5.20878993476e-07
2.65731514397e-06
2.31045728213e-07
1.03356279113e-06
2.37700387028e-07
2.46580901736e-07
1.98865914944e-07
1.33197221122e-07
1.1118821608e-06
2.18132276488e-05
3.68838391507e-05
8.95873818115e-06
1.51174608941e-07
7.67651942627e-06
1.69672614175e-05
2.52731026453e-05
1.13780813611e-05
2.43485902758e-07
4.77886175926e-07
1.5740361807e-06
1.4337247965e-06
2.91792616398e-07
1.28807893341e-06
2.43831859309e-07
3.14660966212e-07
7.31446973977e-06
8.35837052871e-08
1.07528175207e-07
5.95009494569e-06
3.63985441541e-08
1.71431762879e-07
2.62254708885e-07
4.15992110593e-07
4.27302828916e-07
2.83462782162e-07
2.76662901609e-07
3.22838556244e-07
2.57365666188e-07
2.70822117047e-06
1.32414579601e-05
6.38900397534e-08
1.09172798443e-07
5.30043431574e-06
7.75749924346e-06
6.69359158406e-06
2.0871798727e-07
1.47893842773e-05
8.80577354124e-06
7.14165060452e-06
6.60416480361e-07
8.88092782549e-07
1.67016413133e-05
1.17711299443e-05
1.91479006408e-05
2.92055268879e-05
3.40264848388e-06
2.52671132122e-07
2.04218454662e-07
4.63118275099e-07
5.28291902036e-06
8.43629541829e-07
6.84385723819e-07
1.17649783454e-05
1.2538944725e-06
3.48837668285e-08
6.22890506967e-06

