# vtk DataFile Version 3.0
File Name: Molecule/sphere_excent/sphere_excent_0-s22.vtk
ASCII
DATASET UNSTRUCTURED_GRID
FIELD FieldData 1
TIME 1 1 double
0.0
POINTS 219 double
0.0079939514399 0.84915566444 0.52784228325
-0.45945385098 0.78490948677 0.41534209251
-0.32965672016 0.59551417828 0.73226982355
-0.34806242585 -0.60495066643 0.71654671431
0.0069624208845 -0.84814703465 0.52977007627
0.017878461629 -0.50320100784 0.86416989565
0.34125036001 -0.59426212311 0.72810959816
0.50054562092 -0.80923527479 0.30721366405
0.84201443195 -0.32883471251 0.42631396651
0.85703057051 -0.51045262814 0.048086378723
0.98967593908 -0.11668239534 0.084043353796
0.51807457209 0.72788751125 0.44825851917
0.3711720705 0.56888657808 0.73344713449
0.73303765059 0.33951041102 0.58849048615
-0.8616566062 -0.3422947526 -0.37509939075
-0.83997017145 -0.54162478447 0.025851687416
-0.9912301898 -0.112733908 0.067039109766
-0.55283385515 -0.79940599203 -0.23466086388
-0.49610388279 -0.81528699398 0.29847183824
-0.0014762356877 -0.99960130453 0.018342584372
-0.79769396782 -0.33964380622 0.4984421432
-0.87974178791 0.19019447267 0.43480157852
0.50283539295 -0.83617293835 -0.21409425139
0.0040477137081 0.99977660179 0.0077975634485
-0.2723236382 0.94507461786 0.18026541173
-0.26090469956 0.94853132963 -0.17956349254
-0.51850390434 0.85497564077 -0.0018553265836
-0.47596412897 0.79604381323 -0.37310281396
0.034627545625 0.91490250826 -0.3998028338
0.27059155703 0.95118570328 -0.14839603007
0.27922105789 0.93833202124 0.20316572487
0.45952141285 0.88788276911 0.021340038627
0.42175278068 0.82458734512 -0.37524524331
0.59160983562 0.50548923016 -0.6279732585
0.41517621279 0.69863796234 -0.58214730024
0.62101447582 0.64682537317 -0.44237089157
0.11728401482 0.79070597887 -0.59925353527
0.94788587093 -0.22793547809 -0.22335384786
0.79150080681 -0.41262716055 -0.4488838017
0.87421673536 -0.11385380477 -0.47214716673
0.97323250771 0.012746158987 -0.22902221978
0.49503847957 -0.032456796616 -0.86829960346
0.42740112543 -0.26546508074 -0.86412835121
0.26614829898 0.017159380019 -0.96374869347
0.17301405966 -0.23097355664 -0.95751368999
0.32475852966 -0.49793979526 -0.80419409275
-0.0044057834893 0.059313803911 -0.99713248014
0.68373310566 -0.23309953511 -0.69141513109
0.57293403149 -0.4565987885 -0.68044602871
0.47605609894 -0.67410618067 -0.56490057707
0.67424404621 -0.64528167248 -0.35822936893
0.71342515945 0.35020917654 -0.60688066483
0.74495059252 0.47970327735 -0.4635668993
0.4458271265 0.44561091065 -0.77627664804
0.57666492462 0.32053676248 -0.75140440464
0.41364172101 0.23270709813 -0.87993776798
0.58857411146 0.13779570162 -0.7965067029
0.68042063713 0.21852998435 -0.69947445393
0.82572758198 0.31603518128 -0.46720546484
0.77491384745 0.20278120041 -0.59856724739
0.16376692057 0.37612020969 -0.9106721282
0.079608872533 0.22040359676 -0.97098177671
0.75331521034 -0.052193582058 -0.65547895432
0.01698502712 0.5483276248 0.8359541297
-0.2001889348 0.3628616631 0.91006499529
-0.45092925429 0.33464986086 0.82709932327
-0.59883564711 -0.066337972879 0.79755359888
-0.47360679507 -0.29492619634 0.82957404852
-0.37399074435 -0.063698202372 0.92517775297
-0.22250704467 -0.30661740899 0.92538118362
0.93567055464 0.12310636044 0.33000293374
0.96751356125 0.22325150669 0.11741566658
0.84900224209 0.43877491355 0.29442849755
-0.95137321949 0.066449083388 -0.3007388413
-0.74937719107 -0.12047373503 -0.65001285076
-0.81832939386 0.21195167303 -0.53410708904
-0.86671072245 0.41448450089 -0.27734184265
-0.9641726613 0.26436823606 0.018434502184
-0.84941965342 0.52763426304 0.0033103241585
-0.66338264942 0.59177428484 -0.45782843232
-0.70650565624 0.68276232481 -0.18653027713
-0.69697290659 0.68866342306 0.19941598177
-0.4629072547 -0.32331252098 -0.82529163361
-0.60449773073 -0.46924397349 -0.64395332336
-0.59225684404 -0.13387066126 -0.79377031326
-0.34528583288 -0.54460543394 -0.76433420181
-0.3714876771 -0.74583810568 -0.55259716511
0.51843345165 0.84094673395 -0.15412713587
0.66891461611 0.71341991425 -0.20825754106
0.65479809046 0.75589305162 0.0045963516459
0.81580936909 0.57798844576 -0.0072411373258
0.71924757957 0.66924059391 0.18680895865
0.54514974356 0.81644243002 0.19024784863
-0.65593576431 0.53982615471 0.52739340067
-0.84460419416 0.46320044994 0.26845949888
0.83244264126 0.44882535934 -0.32458654046
0.76707786322 0.57646924257 -0.28152662516
-0.1489572525 -0.044047381729 0.98770171404
0.067022792995 -0.036864802241 0.99706619978
-0.021671479568 -0.2152633965 0.97616839409
0.18245668709 -0.23339277506 0.95502007008
0.50440180302 0.27649068832 0.81795930862
-0.0034468360245 0.3026150763 0.95304065943
0.17078472674 0.29343366623 0.9405041337
-0.065131187439 0.13437785208 0.98869550228
0.13700516522 0.13152180612 0.98177582026
0.29816144705 0.39411780238 0.86933410168
-0.28123688698 0.14863729477 0.94775891304
-0.53377562761 0.12822687626 0.83574271202
0.34123536944 0.17091502249 0.92433983088
0.52164447308 -0.026029093191 0.85255151987
0.27518951893 -0.019409703091 0.96119213104
0.10494500399 -0.58545178175 -0.80379754305
0.098575152457 -0.43774437904 -0.89362096786
-0.012467588298 -0.91331619024 -0.40587702394
0.22653877735 -0.90684944391 -0.35458493233
0.85553079844 0.14013250172 -0.49834275246
0.80253201723 0.058716267347 -0.59366744757
0.71607768536 0.09021140635 -0.69214606285
0.65039652586 -0.010122020729 -0.75951325893
0.25551834702 -0.67537420988 -0.69183415174
0.098429329693 -0.84235811234 -0.52974051237
0.30128705502 -0.79947125912 -0.5195838213
0.14053755999 -0.75554931164 -0.63955688477
-0.25793424249 -0.89080739021 -0.37371245027
-0.017190046608 -0.76277667284 -0.64631229639
0.076329618692 -0.69090902805 -0.71886116266
-0.04650497064 -0.67449069023 -0.73684120178
-0.19377192855 -0.72019833326 -0.66616475582
-0.1315113157 -0.83264786005 -0.53809648752
-0.15732626617 -0.62133324146 -0.76752907038
-0.051750525832 -0.58770269156 -0.80740869045
-0.12754158676 -0.53181618452 -0.83719217777
-0.017520576715 -0.50353193283 -0.86370480061
-0.7353156209 0.40676316619 -0.54207009077
-0.65306961536 0.28454440832 -0.70178979635
-0.58525407314 0.44106090069 -0.68034625053
-0.46353164315 0.28020146489 -0.83969944715
-0.68306559324 0.122541897 -0.71972090006
-0.28558140993 0.55128145218 -0.78342890739
-0.41788223386 0.43853148818 -0.79555422068
-0.48630395532 0.57538330555 -0.6573933363
-0.55055373907 0.16658131778 -0.81795740128
-0.56854134798 0.041026931256 -0.82157617807
-0.45429202914 0.071103289723 -0.88790506124
-0.39409068227 0.19164811075 -0.89880758524
0.50035709143 -0.30237472057 0.81130123138
0.69243955612 -0.18340058625 0.69774371386
0.61357408762 -0.45443558693 0.64541089535
0.82005363703 0.002512967214 0.57221060991
0.67397075891 0.10967929661 0.73054492474
-0.7429818511 0.077348180115 0.66410291195
-0.67828476429 0.27735108137 0.68033480644
0.29372930527 -0.38704627752 0.87396085262
0.37170517445 -0.18174308538 0.91041046381
-0.22319763899 -0.44630256295 -0.86659318209
-0.29923549294 -0.35049849749 -0.8872295022
-0.0066755232401 -0.31068968773 -0.95046079159
-0.14847269654 -0.36491915584 -0.91910219193
-0.03870832175 -0.41380995512 -0.90953183174
-0.11914836615 -0.45197543502 -0.88402956724
-0.21551504731 -0.53545737267 -0.81659787893
0.92166942358 0.089796796441 -0.37668380141
0.91526472569 0.39913898706 0.054377280176
0.9878706336 0.13862369955 -0.06537655741
0.85435807705 0.48918282986 -0.17528599501
0.93911296129 0.17636543512 -0.29485321045
0.96188545227 0.20811860263 -0.17719347775
0.92574620247 0.28800871968 -0.24496169388
0.90246272087 0.26433140039 -0.34004107118
0.93343704939 0.32616236806 -0.14932249486
0.88273662329 0.35086762905 -0.31237155199
0.89417117834 0.39288789034 -0.21469429135
0.9027248621 0.42275997996 -0.079869881272
0.89147561789 0.19932338595 -0.40696913004
0.95672184229 0.2879525423 -0.041712824255
-0.051523532718 -0.17131403089 -0.98382163048
-0.181570068 -0.24622747302 -0.95205307007
-0.2135463953 -0.1149032414 -0.97006887197
-0.32624915242 -0.24379488826 -0.91294753551
-0.26283442974 0.84499168396 -0.46359801292
-0.068689256907 0.52188318968 -0.84987187386
-0.12831379473 0.62635397911 -0.7689255476
0.008641271852 0.6167910099 -0.78698402643
-0.042396660894 0.72015941143 -0.69253313541
-0.22074753046 0.69001978636 -0.6892323494
0.1177899614 0.67478704453 -0.72851288319
-0.076834738255 0.82079422474 -0.56516444683
0.70957964659 -0.69607770443 -0.10852061957
0.8352676034 -0.50415027142 -0.21947067976
0.41197344661 0.58099573851 -0.70190554857
0.26255553961 0.67797487974 -0.68658345938
0.27917933464 0.57320690155 -0.77030318975
0.29962870479 0.44490987062 -0.84388309717
-0.33659794927 0.75517237186 -0.56241106987
-0.47812542319 0.69389539957 -0.53838407993
-0.35694894195 0.65909409523 -0.6619912982
0.14429855347 0.54582351446 -0.82524269819
-0.18143585324 0.77040857077 -0.61105388403
0.037495691329 0.45851355791 -0.88780450821
-0.13326869905 -0.028248222545 -0.99067175388
-0.18148061633 0.082523159683 -0.97993814945
-0.27051997185 -0.010636143386 -0.96267402172
-0.32681128383 0.099933058023 -0.93969982862
-0.33813604712 -0.097212798893 -0.93603622913
-0.39002212882 -0.013487583026 -0.92070066929
-0.46195140481 -0.11543895304 -0.8791128993
-0.50667589903 -0.033129755408 -0.86156982183
-0.65190023184 -0.030668666586 -0.75767886639
-0.28333488107 -0.17025275528 -0.94376164675
-0.38521596789 -0.17379404604 -0.9061332345
-0.1002702713 0.1973117888 -0.97512418032
-0.02273007296 0.34544125199 -0.93806946278
-0.18918180466 0.3115132153 -0.93130481243
-0.25900688767 0.20555986464 -0.94370245934
-0.32635855675 0.30372613668 -0.89488869905
-0.17750540376 0.52795243263 -0.83049619198
-0.24694249034 0.43039157987 -0.86801755428
-0.12909758091 0.42030537128 -0.89799821377

CELLS 434 1736
3 0 1 2
3 3 4 5
3 6 4 7
3 8 7 9
3 9 10 8
3 11 12 13
3 11 0 12
3 14 15 16
3 15 17 18
3 17 19 18
3 18 19 4
3 15 18 20
3 18 3 20
3 18 4 3
3 21 16 20
3 20 16 15
3 14 17 15
3 22 7 19
3 19 7 4
3 23 24 0
3 0 24 1
3 23 25 24
3 25 26 24
3 25 27 26
3 24 26 1
3 28 25 23
3 29 30 31
3 29 23 30
3 23 29 28
3 28 29 32
3 11 30 0
3 30 23 0
3 33 34 35
3 35 34 32
3 28 32 36
3 9 37 10
3 38 39 37
3 39 40 37
3 37 40 10
3 41 42 43
3 42 44 43
3 42 45 44
3 43 44 46
3 41 47 42
3 47 48 42
3 47 38 48
3 42 48 45
3 49 48 50
3 38 47 39
3 51 33 52
3 53 54 55
3 53 33 54
3 41 55 56
3 54 51 57
3 54 33 51
3 51 58 59
3 60 55 61
3 43 55 41
3 47 62 39
3 2 63 0
3 0 63 12
3 2 64 63
3 2 65 64
3 66 67 68
3 67 69 68
3 67 3 69
3 3 67 20
3 20 67 66
3 10 70 8
3 10 71 70
3 71 72 70
3 70 72 13
3 13 72 11
3 16 73 14
3 14 73 74
3 75 73 76
3 73 77 76
3 73 16 77
3 76 77 78
3 27 79 80
3 79 76 80
3 80 76 78
3 21 77 16
3 27 80 26
3 26 80 81
3 75 74 73
3 82 83 84
3 82 85 83
3 74 83 14
3 14 83 17
3 17 83 86
3 32 87 88
3 87 89 88
3 87 31 89
3 88 89 90
3 90 89 91
3 89 92 91
3 89 31 92
3 91 92 11
3 31 87 29
3 29 87 32
3 11 92 30
3 30 92 31
3 32 88 35
3 90 91 72
3 72 91 11
3 1 93 2
3 2 93 65
3 1 81 93
3 81 94 93
3 81 78 94
3 93 94 21
3 78 81 80
3 26 81 1
3 58 52 95
3 52 96 95
3 52 35 96
3 35 52 33
3 51 52 58
3 68 69 97
3 98 99 100
3 99 5 100
3 99 69 5
3 6 5 4
3 5 69 3
3 21 94 77
3 77 94 78
3 90 96 88
3 88 96 35
3 12 101 13
3 64 102 63
3 102 103 63
3 64 104 102
3 104 105 102
3 104 98 105
3 102 105 103
3 103 106 63
3 63 106 12
3 68 107 108
3 65 107 64
3 64 107 104
3 107 97 104
3 107 68 97
3 104 97 98
3 12 106 101
3 106 109 101
3 106 103 109
3 101 109 110
3 103 105 109
3 105 111 109
3 105 98 111
3 109 111 110
3 100 111 98
3 98 97 99
3 99 97 69
3 112 113 45
3 45 113 44
3 114 115 19
3 115 22 19
3 48 49 45
3 57 56 54
3 54 56 55
3 116 59 58
3 51 59 57
3 116 117 59
3 117 118 59
3 117 62 118
3 59 118 57
3 62 117 39
3 39 117 116
3 57 118 56
3 118 119 56
3 118 62 119
3 56 119 41
3 41 119 47
3 119 62 47
3 45 120 112
3 114 121 115
3 121 122 115
3 121 123 122
3 115 122 22
3 22 122 49
3 122 120 49
3 122 123 120
3 49 120 45
3 17 124 19
3 124 114 19
3 123 125 126
3 125 127 126
3 125 128 127
3 126 127 112
3 128 86 85
3 85 86 83
3 128 129 86
3 129 124 86
3 129 114 124
3 86 124 17
3 85 130 128
3 128 130 127
3 130 131 127
3 130 132 131
3 127 131 112
3 113 112 133
3 123 126 120
3 120 126 112
3 128 125 129
3 121 125 123
3 114 129 121
3 121 129 125
3 75 134 135
3 134 136 135
3 134 79 136
3 135 136 137
3 79 134 76
3 134 75 76
3 75 138 74
3 139 140 141
3 140 136 141
3 140 137 136
3 141 136 79
3 137 142 135
3 142 138 135
3 142 143 138
3 135 138 75
3 144 142 145
3 110 146 147
3 146 148 147
3 146 6 148
3 147 148 8
3 8 148 7
3 7 148 6
3 8 149 147
3 149 150 147
3 149 13 150
3 147 150 110
3 66 151 20
3 151 21 20
3 66 108 151
3 108 152 151
3 108 65 152
3 151 152 21
3 21 152 93
3 152 65 93
3 65 108 107
3 108 66 68
3 13 149 70
3 70 149 8
3 100 153 154
3 153 146 154
3 153 6 146
3 154 146 110
3 6 153 5
3 5 153 100
3 155 85 156
3 110 150 101
3 101 150 13
3 100 154 111
3 111 154 110
3 44 113 157
3 158 159 160
3 159 133 160
3 159 113 133
3 160 133 132
3 158 160 155
3 161 155 132
3 160 132 155
3 155 161 85
3 85 161 130
3 130 161 132
3 132 133 131
3 131 133 112
3 116 162 39
3 39 162 40
3 71 163 72
3 163 90 72
3 40 164 10
3 164 71 10
3 90 165 96
3 96 165 95
3 40 166 167
3 166 168 167
3 166 169 168
3 167 168 170
3 169 171 168
3 171 172 168
3 171 95 172
3 168 172 170
3 95 171 58
3 58 171 169
3 170 172 173
3 172 165 173
3 172 95 165
3 173 165 90
3 169 174 58
3 58 174 116
3 116 174 162
3 174 166 162
3 174 169 166
3 162 166 40
3 40 167 164
3 167 175 164
3 167 170 175
3 164 175 71
3 71 175 163
3 175 173 163
3 175 170 173
3 163 173 90
3 44 176 46
3 44 157 176
3 157 177 176
3 157 158 177
3 176 177 178
3 177 156 179
3 177 158 156
3 179 156 82
3 82 156 85
3 155 156 158
3 158 157 159
3 159 157 113
3 25 28 180
3 181 182 183
3 182 184 183
3 182 185 184
3 183 184 186
3 185 182 139
3 186 184 36
3 184 187 36
3 36 187 28
3 34 36 32
3 22 188 7
3 188 9 7
3 38 189 50
3 189 188 50
3 189 9 188
3 50 188 22
3 187 180 28
3 25 180 27
3 9 189 37
3 37 189 38
3 53 190 33
3 33 190 34
3 34 190 191
3 190 192 191
3 190 53 192
3 191 192 186
3 60 193 55
3 193 53 55
3 27 194 195
3 194 196 195
3 194 185 196
3 195 196 141
3 60 197 193
3 197 192 193
3 197 186 192
3 193 192 53
3 38 50 48
3 49 50 22
3 141 196 139
3 139 196 185
3 27 195 79
3 79 195 141
3 187 198 180
3 198 194 180
3 198 185 194
3 180 194 27
3 186 197 183
3 181 183 199
3 185 198 184
3 184 198 187
3 34 191 36
3 36 191 186
3 46 200 201
3 200 202 201
3 200 178 202
3 201 202 203
3 178 204 202
3 204 205 202
3 204 206 205
3 202 205 203
3 203 205 144
3 205 207 144
3 205 206 207
3 144 207 143
3 208 143 84
3 207 84 143
3 207 206 84
3 208 84 74
3 74 84 83
3 82 84 206
3 143 208 138
3 138 208 74
3 142 144 143
3 178 200 176
3 176 200 46
3 178 209 204
3 209 210 204
3 209 179 210
3 204 210 206
3 206 210 82
3 82 210 179
3 179 209 177
3 177 209 178
3 46 61 43
3 43 61 55
3 46 211 61
3 211 212 61
3 211 213 212
3 61 212 60
3 203 145 214
3 145 215 214
3 145 137 215
3 214 215 213
3 139 216 217
3 216 218 217
3 216 181 218
3 217 218 213
3 213 218 212
3 218 199 212
3 218 181 199
3 212 199 60
3 213 215 217
3 140 215 137
3 139 217 140
3 140 217 215
3 60 199 197
3 197 199 183
3 181 216 182
3 182 216 139
3 213 211 214
3 201 211 46
3 203 214 201
3 201 214 211
3 137 145 142
3 144 145 203

CELL_TYPES 434
5
5
5
5
5
5
5
5
5
5
5
5
5
5
5
5
5
5
5
5
5
5
5
5
5
5
5
5
5
5
5
5
5
5
5
5
5
5
5
5
5
5
5
5
5
5
5
5
5
5
5
5
5
5
5
5
5
5
5
5
5
5
5
5
5
5
5
5
5
5
5
5
5
5
5
5
5
5
5
5
5
5
5
5
5
5
5
5
5
5
5
5
5
5
5
5
5
5
5
5
5
5
5
5
5
5
5
5
5
5
5
5
5
5
5
5
5
5
5
5
5
5
5
5
5
5
5
5
5
5
5
5
5
5
5
5
5
5
5
5
5
5
5
5
5
5
5
5
5
5
5
5
5
5
5
5
5
5
5
5
5
5
5
5
5
5
5
5
5
5
5
5
5
5
5
5
5
5
5
5
5
5
5
5
5
5
5
5
5
5
5
5
5
5
5
5
5
5
5
5
5
5
5
5
5
5
5
5
5
5
5
5
5
5
5
5
5
5
5
5
5
5
5
5
5
5
5
5
5
5
5
5
5
5
5
5
5
5
5
5
5
5
5
5
5
5
5
5
5
5
5
5
5
5
5
5
5
5
5
5
5
5
5
5
5
5
5
5
5
5
5
5
5
5
5
5
5
5
5
5
5
5
5
5
5
5
5
5
5
5
5
5
5
5
5
5
5
5
5
5
5
5
5
5
5
5
5
5
5
5
5
5
5
5
5
5
5
5
5
5
5
5
5
5
5
5
5
5
5
5
5
5
5
5
5
5
5
5
5
5
5
5
5
5
5
5
5
5
5
5
5
5
5
5
5
5
5
5
5
5
5
5
5
5
5
5
5
5
5
5
5
5
5
5
5
5
5
5
5
5
5
5
5
5
5
5
5
5
5
5
5
5
5
5
5
5
5
5
5
5
5
5
5
5
5
5
5
5
5
5
5
5
5
5
5
5
5
5
5
5
5
5
5
5
5
5
5
5
5
5
5
5
5
5

CELL_DATA 434
SCALARS cell_data_0 double
LOOKUP_TABLE default
2.26036378104e-05
4.2896298542e-06
2.95420336166e-05
1.19415832527e-05
1.11370239819e-05
2.34498391219e-05
2.71395041843e-05
3.64368011268e-06
6.12690547018e-06
1.30076348914e-05
1.52198512706e-05
1.82660871177e-05
3.3905995201e-05
2.92953486886e-05
1.99615910722e-05
1.17349284902e-05
8.23781132016e-07
1.3600657002e-05
1.51847780363e-05
4.17441647945e-06
1.17614999437e-05
2.2080047068e-06
4.00290436345e-06
2.64519375869e-06
6.32492432764e-06
2.45232543967e-05
2.89995281119e-06
2.22871223947e-06
2.2066032318e-05
1.8843235929e-05
1.55468537847e-05
3.82199467271e-06
7.03214741843e-08
8.1154712349e-07
2.04397195149e-05
1.60361859885e-05
1.55318819797e-05
9.95818793591e-07
3.54634994688e-06
3.56242063015e-06
2.4247890316e-07
1.17969681261e-06
2.83542883556e-06
4.0233783841e-06
3.08368551976e-07
1.64463695829e-05
1.34489721304e-06
1.97675324338e-07
1.82120292456e-05
3.10350999744e-06
4.45925896784e-08
2.09947013423e-08
2.46780076858e-06
9.08801583078e-06
7.78374911173e-08
3.16150176271e-08
1.29077820056e-06
3.365149005e-06
1.44616779352e-05
2.0885658078e-05
3.00928975193e-05
1.11693015036e-05
9.41989975237e-06
2.50309218157e-05
2.80184615211e-05
2.9080466317e-05
3.34982665766e-05
2.41716746392e-05
4.3536807818e-06
1.23884158055e-07
4.28279995616e-06
9.6413179826e-06
1.52453597684e-05
3.27907402413e-06
1.00596905152e-06
9.67913918144e-07
1.24593114137e-06
2.10981063021e-06
1.31989476306e-06
6.65675585446e-06
9.05079816157e-07
1.31515230073e-06
7.89923875224e-06
4.76807588626e-06
2.84220288765e-06
3.34047180246e-07
2.0466505898e-06
4.24854078671e-06
7.60001764582e-07
1.28491767579e-06
5.82552920711e-07
5.07992785366e-07
1.1634369901e-06
1.39531087754e-06
4.59597446184e-07
2.56861201193e-07
1.7027929576e-06
1.70552411256e-06
3.81029951778e-06
1.59099650612e-06
8.82997224163e-07
5.46255626386e-06
2.5404131093e-06
1.78486162283e-07
9.60002603323e-07
6.99180524435e-06
1.61730577069e-05
2.12109061766e-05
8.0047884193e-06
5.27731828977e-06
9.41751593596e-07
9.19275412697e-06
6.12401582169e-07
5.64293008445e-06
4.01166479802e-06
3.30513368608e-06
2.97995806771e-06
3.34921374415e-06
2.70697894129e-06
2.94676110939e-05
3.57596895052e-05
2.12878227658e-05
1.37683210817e-05
6.52623549175e-06
4.38087428128e-05
4.87971175319e-06
1.60216995149e-07
1.37337423763e-06
5.50565725133e-07
2.59850191894e-05
2.99687089838e-05
2.83778639547e-05
2.98280438364e-05
9.76485690521e-06
1.35216952051e-05
2.30033688731e-05
2.39018696565e-05
2.71452261237e-05
3.35231678954e-05
2.99573798752e-05
3.86307998199e-05
1.21042656485e-05
1.94916977536e-05
1.50683270585e-05
1.89387090817e-05
2.0972223345e-05
2.16923010699e-05
2.74969054567e-05
2.48263184224e-05
1.02242970514e-05
1.32092222379e-05
2.08376940569e-05
1.9239393779e-05
3.99209417505e-05
4.32323534542e-05
1.48934257126e-05
1.21436275266e-06
1.50064339735e-05
3.84151514329e-06
1.60263860863e-06
8.66238757393e-06
6.8292792345e-08
1.23661797557e-05
7.23133538681e-06
8.65869546996e-06
5.67303235587e-08
5.37950562687e-06
6.23281417441e-06
9.23203898567e-06
1.53149940258e-05
7.33549665207e-06
1.13348580346e-07
6.26154204833e-06
1.8918151412e-06
2.65865791247e-06
9.97872626019e-06
1.5019979307e-05
6.52645774111e-06
4.4477841811e-07
1.97079078348e-05
1.13060341842e-06
8.8118870983e-07
7.25593590004e-08
2.10687587751e-05
9.08734093292e-07
3.62714430042e-06
1.48214170685e-05
1.22523691429e-05
4.55282576381e-08
1.50212261734e-05
5.48723357122e-06
4.00925143183e-05
1.33305598076e-06
2.51217480951e-05
5.96924652169e-07
6.65667573021e-06
8.18350520622e-07
2.34223839093e-05
1.26485913857e-05
1.37379558794e-08
4.69965652442e-08
5.54746044496e-06
6.83191830775e-06
1.33662815436e-05
7.66481697517e-06
1.90807525218e-05
1.62715966552e-05
5.90755250692e-06
1.40533638514e-07
1.50055272489e-07
1.4698501789e-07
1.4363440009e-07
2.5369013296e-05
5.08648112318e-07
4.49835258007e-07
3.26801280925e-07
1.0364401356e-05
8.78945256107e-06
4.58469803876e-05
2.00130956324e-07
3.08560049519e-05
4.15665031369e-06
1.02425816307e-05
1.47089743528e-07
3.25705965706e-06
1.75383616201e-05
6.0432441075e-06
1.55282413742e-05
6.91462799281e-06
1.42858407532e-05
1.95806107002e-05
6.64496748137e-06
2.41719288611e-06
6.96258535423e-06
1.37208080344e-05
1.78731965636e-05
3.08445735399e-06
2.79403036593e-05
2.93781776942e-06
8.87913808941e-06
4.50908947465e-06
1.27794923624e-05
1.7418805027e-05
2.47079919304e-05
9.8950764426e-06
9.70443500626e-06
7.80208633903e-06
1.05298203592e-05
1.50796198255e-05
1.93503160352e-05
1.88099645807e-05
2.7422036998e-05
3.61899863922e-05
4.2671217934e-07
1.1977230844e-05
9.09798939348e-06
1.15986785519e-05
1.65153412429e-05
2.1122047074e-07
2.19536748061e-08
2.36199502203e-09
6.64237720996e-08
4.26997118306e-08
2.05727936217e-08
1.03889833141e-07
3.38154308005e-08
4.12159893228e-07
4.65152675271e-07
1.15640459931e-07
4.70166970816e-08
4.98615492087e-06
1.90780798075e-05
9.85443181747e-08
2.3589740706e-06
1.3205146234e-07
3.29505593277e-06
2.12552051982e-06
1.25078429452e-06
5.20187671611e-07
2.0285633472e-07
8.35672121041e-09
2.31903054536e-08
9.61064036044e-06
3.11504765882e-08
8.90204141391e-09
3.72120711732e-07
8.53579029194e-06
7.34949036879e-07
1.37258214433e-07
1.05268172293e-05
1.29241720649e-07
3.36395621655e-07
8.32261754242e-07
2.03182583465e-07
9.5349703652e-06
8.04162104754e-06
3.84352879079e-07
1.51187062932e-07
1.24438440024e-07
3.85346847777e-07
2.87143592258e-07
1.21353035602e-05
7.718693521e-07
8.02703320325e-07
3.46479264576e-07
1.1624285456e-05
9.21373468781e-07
3.76728880643e-06
6.30290241291e-07
4.23913977984e-07
4.64415323632e-08
9.50371297995e-06
1.73726804374e-08
3.50495905722e-08
6.13615823588e-07
2.52160641086e-06
2.86513916367e-08
3.47285935633e-08
7.49279532712e-08
1.62105815769e-05
6.6730956136e-06
3.14886082428e-08
1.14643444624e-05
1.48708547644e-05
1.33571185083e-05
2.11045421177e-05
2.32718650652e-08
8.34793347927e-06
1.18804997659e-06
5.28258900067e-06
1.87438409349e-06
1.02094791082e-05
1.20836046823e-06
8.73752860432e-07
1.40447306689e-06
1.04728567227e-05
4.97230514482e-06
1.41887924295e-06
1.17851598691e-05
2.72908165181e-07
5.4260493589e-07
3.87808148068e-07
2.0090421001e-07
2.03369935384e-07
1.58128999574e-05
1.04667717405e-06
4.96603777106e-08
2.27622149717e-06
4.50930375493e-08
1.11847724633e-05
3.0312256748e-08
8.49899779078e-07
8.43821928431e-08
1.87396496806e-05
1.1882996354e-08
1.83246792922e-05
9.10149254937e-07
4.30084595062e-08
1.40473085301e-05
3.67203009681e-06
1.20489155026e-07
1.5568604377e-07
2.40182709325e-08
1.04124509368e-05
3.11924978611e-06
1.55525766732e-05
6.95854490647e-06
1.08498322633e-05
3.50415222506e-08
6.65231872783e-08
1.952012126e-05
8.45115374561e-07
7.39375527068e-08
5.54317886203e-06
1.47168771641e-05
5.0062669028e-06
8.47637171825e-09
8.86692202049e-06
1.28349626392e-05
1.24371497046e-05
1.76132601735e-08
8.33020896514e-06
2.46900425478e-06
3.18075852411e-06
3.15531502415e-06
9.75108939037e-06
8.21835754904e-08
2.54613445381e-07
2.78371572578e-05
3.85185310078e-06
1.42197959717e-07
8.35253868225e-06
9.08884945499e-06
1.75330628365e-06
3.44367564075e-06
1.26069370452e-08
1.12486543605e-08
6.86099154881e-06
1.62430542825e-05
5.5383345698e-07
9.67875650676e-10
4.62737294788e-06
1.78204741111e-06
2.21295385491e-08
1.01717695038e-06
9.65381584128e-09
2.31486159406e-05
7.05854579771e-07
1.30324308891e-05
1.1374739015e-08
1.04161993613e-05
1.50752712506e-05
3.59229626127e-08
1.52509323407e-09
5.19244153839e-06
1.49358240639e-05
1.72073144843e-05
2.58348888394e-09
6.48982235306e-06
5.19085197428e-07
1.85783984925e-05
3.26536180495e-05
7.64569451368e-06
7.73040249924e-06
6.4701840178e-07
2.31064180312e-08
5.28951968334e-06
3.31783925189e-08
1.82479139557e-05
9.99661784159e-07
1.62355044299e-05
9.85719463611e-08
2.01232881325e-05
1.35482614229e-05

