# vtk DataFile Version 3.0
File Name: Molecule/sphere_excent/sphere_excent_0-s42.vtk
ASCII
DATASET UNSTRUCTURED_GRID
FIELD FieldData 1
TIME 1 1 double
0.0
POINTS 641 double
0.34768396616 -0.65425211191 0.67161053419
0.10933557898 -0.84423857927 0.52360403538
0.46147179604 -0.81112325191 0.35573226213
0.82325124741 -0.53327542543 0.19125805795
0.64126783609 -0.53893584013 0.54550677538
0.66923296452 -0.72543394566 0.15175502002
0.47188383341 0.70329499245 0.53162586689
0.43379274011 0.54967868328 0.71382671595
0.64101207256 0.42464569211 0.63812875748
0.087447278202 0.9478495121 -0.30562597513
0.26277124882 0.94965028763 -0.17021638155
0.35203620791 0.88164371252 -0.31423413754
0.26745155454 0.90741634369 0.32333758473
0.23508200049 0.77052438259 0.59243547916
0.686891675 -0.6213914752 -0.37629032135
0.57196843624 -0.64891761541 -0.5017130971
0.67729270458 -0.50306969881 -0.53681701422
0.67865216732 0.61383736134 0.40300038457
-0.5191526413 0.80783462524 -0.27758309245
-0.67850095034 0.7214679122 -0.13815335929
-0.5554254055 0.83063346148 -0.027778517455
-0.47618052363 -0.34320172668 -0.80962824821
-0.53947919607 -0.47547650337 -0.6949518919
-0.62330782413 -0.34060829878 -0.70387351513
0.44297990203 0.88257551193 -0.15792736411
0.55376559496 0.78284746408 -0.28337585926
-0.91089189053 0.14476433396 0.38569039106
-0.86891633272 0.38687205315 0.30871897936
-0.95396488905 0.28341585398 0.097013868392
0.5076751709 0.32850304246 0.79625254869
-0.026196619496 0.37286087871 0.9274969697
0.17420472205 0.37273642421 0.91137176752
0.033429313451 0.53811949492 0.84223377705
0.21679501235 0.58666849136 0.78027588129
0.34709310532 0.41316470504 0.84194481373
0.38279953599 0.19106476009 0.90371781588
0.62562072277 0.15926745534 0.76344501972
0.19789157808 0.15872687101 0.96722710133
0.3019246161 -0.01311588753 0.95321583748
0.1023125127 0.021215146407 0.99451541901
0.51723521948 -0.056998502463 0.85380905867
0.38686168194 -0.45879349113 -0.7998893261
0.52625364065 -0.53142845631 -0.66374963522
0.36509138346 -0.59387952089 -0.71694850922
0.86448222399 0.09714473784 -0.493167907
0.78556466103 0.16616466641 -0.59605896473
0.84459942579 0.24862091243 -0.47415727377
0.80741018057 0.017767548561 -0.58971428871
0.72451627254 0.054220866412 -0.68711417913
0.72734391689 -0.090398803353 -0.68026608229
0.68554645777 0.16381557286 -0.70936316252
0.88459485769 -0.072397097945 -0.46048346162
0.62123143673 0.08854456991 -0.77862513065
0.64913088083 -0.022853938863 -0.76032549143
0.52953314781 -0.020376129076 -0.84804612398
0.60713690519 -0.13912028074 -0.78231394291
0.15947702527 -0.74402362108 -0.64884161949
0.00092491158284 -0.7922309041 -0.61017495394
0.078513778746 -0.68416768312 -0.72509402037
-0.039410766214 -0.6929858923 -0.71984004974
-0.12031245232 -0.74483704567 -0.65629851818
0.11889790744 -0.58742266893 -0.80050414801
-0.0018965313211 -0.60607153177 -0.79541087151
-0.11560505629 -0.87532407045 -0.46949034929
-0.2760682106 -0.91156816483 -0.30474257469
-0.27172634006 -0.83505737782 -0.47834852338
-0.072863511741 -0.93549162149 -0.34571594
-0.46611732244 -0.77789890766 -0.42135441303
-0.48197960854 -0.84934598207 -0.21488511562
-0.10674929619 -0.6160723567 -0.78041499853
-0.1047610268 -0.53676390648 -0.83718198538
0.29596570134 -0.70232659578 -0.64740937948
0.21410164237 -0.64711874723 -0.73170483112
0.033438645303 -0.88463050127 -0.46513298154
-0.81347709894 0.20139253139 -0.54561769962
-0.77430164814 0.35562172532 -0.52344298363
-0.70722383261 0.30123203993 -0.6395996213
-0.67736786604 0.43397256732 -0.59400719404
-0.40481266379 0.15643697977 -0.90085166693
-0.49442526698 0.11044145375 -0.86207330227
-0.49305400252 0.1941242516 -0.84806263447
0.52601563931 -0.36506476998 0.76783567667
0.69337409735 -0.26425722241 0.67019367218
0.85392916203 -0.30827668309 0.41937488317
-0.62242752314 -0.12788426876 0.77201062441
-0.63396281004 0.092626787722 0.767819345
-0.78026378155 -0.007029381115 0.62534743547
-0.74619966745 0.19544652104 0.63613313437
0.91951566935 0.12059810013 0.37404438853
0.88239777088 -0.011571497656 0.46998608112
0.96272015572 0.040422212332 0.2654364109
0.36331996322 -0.39746001363 0.84254264832
0.3874899745 -0.21182924509 0.89719057083
-0.22347283363 -0.46053916216 -0.85898679495
-0.37917965651 -0.50511312485 -0.77528893948
-0.33437046409 -0.38719952106 -0.85924124718
0.24797533453 -0.18637417257 0.95066541433
0.10308869928 -0.22780261934 -0.96818208694
0.099257029593 -0.37360557914 -0.92225164175
-0.0073080840521 -0.29557850957 -0.95504271984
-0.022565353662 -0.39412656426 -0.91870301962
-0.10557005554 -0.44498479366 -0.88928985596
-0.092718757689 -0.33684870601 -0.93686586618
0.016974715516 -0.49894809723 -0.86646080017
-0.18156482279 -0.37191870809 -0.9101113081
-0.21550069749 -0.55585002899 -0.80284565687
-0.27607789636 -0.61588430405 -0.73786079884
0.92887020111 0.047224879265 -0.3673017621
0.83586555719 0.4823295176 0.26216888428
0.89388722181 0.43674659729 0.092704623938
0.81038832664 0.57461494207 0.11448302865
0.97945529222 0.048267543316 -0.19544842839
0.94636648893 0.15676498413 -0.28246790171
0.97029727697 0.1891554296 -0.15078376234
0.93353921175 0.26790645719 -0.23820863664
0.89949566126 0.25844970345 -0.35229200125
0.94182348251 0.3019490242 -0.14518634975
0.89152348042 0.34167084098 -0.29740235209
0.89808541536 0.38237413764 -0.21557889879
0.85387259722 0.42806512117 -0.29607909918
0.84832531214 0.35620799661 -0.3917299509
0.90261489153 0.16178457439 -0.39890953898
0.99211931229 0.12258522213 -0.025809505954
0.96320742369 0.2651463151 -0.023267500103
0.97082191706 0.21674673259 0.1023009792
-0.27095913887 -0.29804635048 -0.91521245241
-0.37859070301 -0.25301671028 -0.89030426741
-0.47142782807 0.62150120735 -0.62563210726
-0.35329315066 0.66413831711 -0.65887212753
-0.38505062461 0.57783609629 -0.71960276365
-0.26684471965 0.61423540115 -0.74264425039
-0.24493379891 0.70403385162 -0.66640746593
-0.57926166058 -0.22766669095 -0.7826833725
-0.4748455286 -0.16223526001 -0.86494201422
-0.59006500244 0.044780623168 -0.80606818199
-0.69302839041 -0.035270124674 -0.7199601531
-0.67048537731 0.097462393343 -0.73550963402
-0.76085639 0.055960614234 -0.64645844698
-0.79336088896 -0.10111571848 -0.600266397
-0.57715278864 0.14406631887 -0.80377811193
-0.16733200848 -0.136275962 -0.97643101215
-0.11216979474 -0.046723585576 -0.99258291721
-0.045246694237 -0.12241453677 -0.99124228954
0.006493259687 -0.006621661596 -0.99992704391
-0.26660963893 -0.20380547643 -0.94200861454
-0.34636333585 -0.14950144291 -0.92602479458
-0.17357730865 -0.22806884348 -0.9579616189
-0.19311599433 0.55319660902 -0.81035989523
-0.30741772056 0.51362317801 -0.80104255676
-0.27713489532 0.40830406547 -0.8697411418
-0.36430445313 0.42917728424 -0.82650363445
-0.071055218577 0.55410957336 -0.82939994335
-0.13864824176 0.62439858913 -0.7685328722
-0.32812133431 0.083048291504 -0.94097483158
-0.24260702729 0.16062059999 -0.9566950202
-0.22866247594 0.065492928028 -0.9712215066
-0.43321099877 0.062018956989 -0.89912939072
-0.39203208685 -0.5894523263 0.70625782013
-0.30480146408 -0.47885909677 0.82325702906
-0.47884052992 -0.41292288899 0.77459537983
-0.60046839714 -0.46423327923 0.65079516172
-0.42076823115 -0.12005333602 0.89910745621
-0.24885705113 -0.15734815598 0.95563876629
-0.32821163535 -0.0053079323843 0.94451242685
0.03342327103 -0.12788012624 0.99121582508
0.15820175409 -0.10778815299 0.98150521517
0.11735642701 -0.25761663914 0.95908105373
-0.018952712417 -0.24110621214 0.97029608488
-0.0071733761579 -0.38197934628 0.92408883572
0.13582438231 -0.40215417743 0.90545129776
0.085379943252 -0.56081050634 0.82340687513
0.25107821822 -0.32309409976 0.91247433424
-0.13120746613 -0.28971391916 0.94803839922
-0.13526313007 -0.48058956861 0.8664470911
-0.25532400608 -0.34345433116 0.90378922224
-0.20266968012 -0.61100363731 0.76512813568
-0.21870683134 0.38446617126 0.89685887098
-0.15261101723 0.25550878048 0.95469909906
-0.4964222312 0.020699236542 0.86782741547
-0.47535505891 0.19754183292 0.85715931654
-0.3472276032 0.1346591413 0.92777204514
-0.31026798487 0.26483294368 0.91296011209
-0.42528092861 0.38928338885 0.81700253487
-0.21319998801 0.12284052372 0.96923792362
-0.066593430936 0.10534638911 0.992190063
-0.17611022294 -0.01757729426 0.98420757055
-0.041255071759 -0.028014361858 0.99876320362
-0.10462715477 -0.14297308028 0.98417162895
-0.60095381737 0.2918677032 0.7440481782
0.23296819627 -0.48536753654 0.84266978502
0.42308831215 0.071605280042 -0.90324926376
0.52571189404 0.11257950962 -0.84318947792
0.1436291635 -0.48823565245 -0.86081320047
0.25533345342 -0.53958946466 -0.80227029324
0.24332976341 -0.42476475239 -0.87197542191
0.59021264315 0.20501865447 -0.78077828884
0.43815478683 -0.66691565514 -0.60266023874
-0.13092036545 -0.67846721411 -0.72286278009
-0.14436130226 -0.8090519309 -0.56976896524
0.36437502503 0.49744081497 -0.78724598885
0.36896330118 0.37126404047 -0.85204428434
0.28887847066 0.44378003478 -0.84826594591
0.26151239872 0.33252972364 -0.90610069036
-0.2346418947 -0.75954347849 -0.6066505909
-0.2079769671 -0.69324731827 -0.6900062561
-0.29633271694 -0.69025450945 -0.66008031368
-0.34607768059 -0.75207579136 -0.56086152792
-0.38367259502 -0.67384499311 -0.63144350052
-0.36256664991 -0.61547094584 -0.69982391596
-0.46111175418 -0.5938065052 -0.65940707922
-0.45561477542 -0.6910136342 -0.56118637323
-0.19027717412 -0.63141936064 -0.75172942877
-0.62226420641 0.57336086035 0.53290581703
-0.56156182289 0.47067636251 0.68052762747
-0.39367964864 0.63714534044 0.66258770227
-0.59518259764 0.56462645531 -0.57178932428
-0.51552957296 0.68037247658 -0.52021348476
-0.64882647991 0.62323719263 -0.43543565273
-0.71581178904 0.50129795074 -0.48618063331
-0.42440482974 0.24481536448 -0.87174671888
-0.50382721424 0.27152892947 -0.81999582052
-0.56703275442 0.22834323347 -0.79140478373
-0.59260284901 0.3087220788 -0.74396812916
0.79267543554 -0.11111242324 0.59929054976
0.7765827179 0.097088508308 0.62246417999
[...]
CELL_DATA 1278
SCALARS cell_data_0 double
LOOKUP_TABLE default
6.32212659282e-06
7.60229391153e-06
5.72800005037e-06
1.13130681085e-06
8.74625810586e-06
3.44623126375e-05
7.4858262737e-06
8.16713351045e-07
8.61681073056e-06
6.80648842365e-06
5.4485352048e-06
4.96675753431e-06
1.06383003178e-05
9.87586851697e-06
9.8598822835e-06
8.9615850999e-06
1.14129430695e-05
1.18713024148e-05
1.21051990165e-05
1.36591826668e-05
1.27631053856e-05
1.2249926969e-05
2.31581866828e-05
1.89042343068e-05
3.94372744671e-08
5.75190064802e-09
7.0743288285e-08
5.67494622834e-08
5.86713840338e-09
3.74970957593e-08
3.69083767757e-08
8.7640833966e-09
6.70648778898e-08
3.10962172387e-06
3.40603131916e-08
1.13162681975e-07
4.89159539138e-08
8.71588445558e-08
3.67343365886e-08
3.2079915506e-07
2.82427473589e-07
3.24673564744e-05
2.60973061663e-08
4.31536695714e-08
2.43539868875e-08
2.50188055855e-06
3.5407008478e-07
1.95040825811e-07
6.26105805329e-06
2.25202634289e-07
8.2979261069e-07
1.78164725977e-05
8.03954838801e-06
1.7981130916e-05
1.1241620756e-05
9.5080600491e-06
1.52152950238e-05
8.51309327702e-06
4.77796291116e-06
6.2811516592e-06
1.91474224213e-06
1.26829930246e-05
1.346913127e-05
2.1304256503e-05
4.52470784773e-05
2.28692071506e-05
1.11573226461e-05
1.88476335639e-05
2.31376486855e-05
1.42448155915e-05
4.94275240682e-06
1.8658442004e-05
1.75128108355e-05
1.15854199428e-05
7.37281539183e-06
1.93456182843e-05
8.32464653278e-06
5.48665410427e-05
3.70653911715e-05
8.42432737941e-06
7.58129722971e-06
7.29521581812e-06
1.38386483261e-05
1.60429421358e-05
2.9612678114e-05
4.25777980298e-05
4.39012877964e-05
1.35144068597e-05
2.42147912293e-05
1.99316079947e-05
8.00718381107e-06
1.3066844693e-05
1.86470417521e-05
6.10777828408e-06
2.06089082561e-05
4.47226696985e-05
3.97592117825e-05
3.60869746399e-05
3.5904491005e-05
5.67061044606e-05
2.81666059244e-05
1.8497695727e-05
1.76938407657e-05
4.95387940764e-05
1.51051958965e-05
1.86288262664e-05
6.87140492432e-08
3.70044616167e-06
6.48401084883e-06
2.09381099092e-06
2.91509917265e-06
1.07141582084e-06
2.62778580638e-06
1.39473233356e-05
7.09663121221e-08
5.84206646129e-06
1.61546930679e-07
5.85885019983e-06
1.79735743651e-05
1.24337878551e-05
3.98353440129e-06
2.98749496379e-06
5.02505547075e-08
4.3632803016e-06
8.65536268537e-06
1.69640027451e-06
8.09749524305e-07
8.71628071351e-06
5.99883253649e-06
1.13848442536e-05
1.35308044475e-05
1.44841001321e-05
1.18134228604e-05
1.34258962202e-05
9.09930178176e-06
9.2229606513e-06
5.69242025849e-06
1.33204033191e-05
4.34376683665e-06
6.24961005102e-06
5.97800507772e-06
7.65482983296e-06
8.22235661536e-06
9.35433014962e-06
7.88106567322e-06
7.95977020056e-06
5.36498115401e-06
6.53987658664e-06
6.93380964407e-06
5.57324269549e-06
5.33431724893e-06
7.44209064966e-06
5.75059111697e-06
5.79522589384e-06
5.43473424563e-06
6.82910784405e-06
7.35785940727e-06
6.63666482751e-06
5.86970281135e-06
1.21937257002e-05
6.64419126932e-06
8.10831778313e-06
1.3786719115e-05
1.61699722669e-05
1.20478963257e-05
9.3448935918e-06
5.16047755123e-06
8.99206065247e-06
4.06286744043e-06
1.10116758925e-05
1.0777230698e-05
1.12787342475e-05
5.65804294598e-06
7.07166818627e-06
8.68172843485e-06
8.18181583025e-06
1.2724489151e-05
1.07825977361e-05
1.05270027433e-05
1.10111958442e-05
4.46279713192e-06
4.21237723314e-06
4.45573694905e-06
8.00337830328e-06
3.22905641603e-06
4.58021961783e-08
4.04122534678e-08
2.96394851919e-07
4.94239809566e-06
7.888866865e-09
4.92201610372e-08
1.38363750496e-05
9.9518928707e-06
9.58343881142e-06
2.59266106644e-06
6.58859985801e-06
2.3334821546e-06
2.32297164346e-06
9.63844031108e-06
7.10969681245e-06
2.56010528902e-06
2.50410115685e-06
6.45116876035e-06
4.94863357853e-06
8.78626637412e-09
6.12299624027e-08
6.26189428249e-08
1.64633230919e-07
1.77576432846e-06
8.75455973334e-07
1.39566141358e-06
8.45698587943e-08
8.02051116216e-07
8.15976018768e-07
2.01816245038e-06
9.96751214183e-06
1.17239363295e-05
2.82926761812e-06
4.80400502499e-07
6.51630618782e-06
6.15667735961e-06
2.13502993341e-06
4.16739070666e-06
2.22149488402e-06
1.91799983865e-06
6.32801844204e-07
1.87286941287e-06
6.31803574523e-06
7.89236120735e-06
7.32268479574e-06
7.93981643225e-06
3.11333059834e-06
2.86962786404e-06
2.04210084176e-07
2.3741348524e-07
1.44856656743e-08
2.32280511085e-08
2.26516310212e-08
9.44790631318e-08
5.75381845394e-06
7.04361599247e-06
3.82694772261e-06
3.85832042655e-06
4.74810535829e-06
4.30116966085e-06
8.42323202619e-06
1.29433956047e-05
1.13452796378e-05
6.5883698885e-06
4.78781864057e-06
6.85234689248e-06
3.04638636674e-07
5.59307200358e-06
6.49941573249e-06
6.02323124475e-06
6.36406807953e-06
1.39095082505e-08
7.29715073817e-07
1.07769016687e-07
1.22571288829e-07
3.72141884568e-07
1.66893540723e-08
1.58224377477e-08
2.03275075879e-07
6.03168408082e-08
2.01132807236e-07
9.46810364457e-08
1.41433877872e-07
1.385377262e-07
2.42195752184e-09
3.97890409434e-08
2.29040993887e-07
2.02463859068e-07
2.18598662398e-07
2.19717277575e-08
1.29303017465e-07
1.83742571352e-07
1.85031238119e-07
8.88481393512e-09
5.36099553572e-10
1.43649595179e-07
1.83561058776e-07
1.84294189358e-08
1.08862964283e-07
5.36438730252e-08
1.21363176525e-06
1.44898937657e-06
1.78802483538e-06
1.67711029503e-06
7.26939099573e-06
7.13474543002e-06
8.39153950338e-06
9.61251442171e-06
1.89062147343e-05
1.90020605332e-07
1.67007893057e-07
1.85742158113e-07
1.79346556525e-07
2.78502347636e-07
3.20540424529e-07
1.99997599217e-07
4.36484471416e-06
6.73604773674e-06
5.94841289391e-06
8.16612538032e-06
8.52292035406e-06
8.95888576155e-06
8.1536905792e-06
8.53927143363e-06
9.10679154738e-06
7.0488360355e-06
5.58982544597e-06
5.63780711632e-06
6.36677221942e-06
7.89304486916e-06
8.41182227088e-06
4.1153696545e-05
7.05935285409e-06
7.17905599382e-06
8.08129698011e-06
9.57474389855e-06
1.376322729e-07
8.11895360037e-09
9.65330105831e-08
4.14918981547e-08
4.42489639211e-08
3.53680185147e-08
3.69143230317e-08
3.7437758869e-08
4.1128954167e-07
6.19514980188e-07
4.12845251152e-07
2.88064338397e-07
2.24520255861e-07
1.46422988792e-06
6.46994677707e-06
6.69937656257e-06
3.56485753251e-06
1.07997885318e-07
3.13702546143e-07
3.77022199623e-07
2.9466129355e-07
1.61701394644e-07
3.48564846314e-08
1.65150717621e-07
1.13684081269e-07
1.16454806589e-07
3.64123498824e-07
8.57975558316e-09
4.06984564635e-09
2.3422245538e-08
1.67457548311e-08
2.84804840813e-07
3.89762373244e-09
1.16278182299e-08
2.33332472346e-09
1.37460264653e-07
2.08460351512e-07
1.18451881021e-07
2.42163172556e-07
2.81854877794e-06
3.4390655313e-08
2.99152315396e-08
8.12592757852e-08
2.54758623727e-07
6.83425295818e-06
2.71474554015e-06
7.68120566176e-07
2.78780025755e-06
2.58095928771e-06
3.84759638594e-06
2.44491068384e-06
1.64756521275e-06
2.67664752243e-06
5.53537558322e-06
4.94344371971e-06
3.86024015418e-06
7.32551203955e-06
8.7815399948e-06
1.84469485139e-06
1.35687008964e-07
2.80925409643e-07
1.2818003355e-06
3.53168343272e-07
3.12367531051e-06
1.72800342507e-07
1.58119459155e-07
2.35836498801e-07
9.06011470223e-08
8.22570245421e-08
1.31842543569e-07
2.86649913215e-07
2.55501708293e-08
8.61767512245e-08
1.86429866268e-07
5.90171228695e-07
4.19814071297e-07
1.58296240229e-07
1.10213483386e-07
4.21477327155e-07
6.64730277753e-07
1.65895608706e-07
4.31795102122e-07
1.96879143485e-06
2.1536640831e-07
6.19392351952e-08
2.80324270364e-06
3.61569792062e-06
6.17578065593e-07
1.86231470123e-07
2.15035774787e-07
6.00445797468e-08
3.29007284652e-06
7.97008168158e-06
1.59653963507e-05
7.74269724467e-06
8.09616943916e-06
9.70586194409e-06
2.70688847735e-06
2.82274622635e-06
2.10176594319e-05
3.7900676993e-05
3.8842734914e-06
3.12503098811e-06
1.04175485565e-06
4.24129197139e-06
2.45054741087e-07
5.44238649877e-07
2.84545989042e-07
2.17813464121e-07
5.36401354235e-07
1.33387839602e-06
7.75307709753e-07
1.24316002103e-06
3.49581521852e-06
1.58874180717e-06
8.03063113324e-06
2.30436972507e-06
8.22485145428e-07
6.69342446772e-07
1.78247420416e-06
6.25773658998e-07
3.83576508038e-07
2.92256481315e-07
5.98150531909e-06
6.36166770085e-06
3.63575964057e-06
2.7549737976e-06
1.76556239604e-06
3.01697653021e-06
1.53600702285e-06
2.18212773088e-06
3.19749334935e-06
2.61113247864e-06
1.53310278778e-06
9.73382628887e-07
5.58409481809e-06
3.95016201335e-06
7.20865461331e-07
3.62974832573e-07
6.53173533313e-06
1.4825401028e-06
5.19617092829e-06
5.52643407253e-06
7.14631077857e-07
5.44072121344e-07
1.031521876e-07
4.83221451778e-08
3.66212268202e-06
1.086202289e-07
1.36701425785e-06
2.26931172305e-06
1.53734152382e-06
3.66749346734e-06
9.95213626421e-07
4.65677138974e-07
1.2619636064e-06
1.31491380491e-06
1.94400973908e-06
5.11553921459e-07
6.23325413188e-07
1.96900864359e-06
5.3289865375e-08
2.51694240976e-07
2.39153779209e-06
5.93285908686e-07
1.22789363171e-06
2.66378737113e-07
3.08435616407e-06
5.62487589867e-07
2.48572355703e-05
5.78773478048e-08
7.12127517171e-07
1.23928588588e-05
1.24331652382e-05
1.12618449111e-06
1.41938098691e-06
2.37183064056e-06
1.54788809432e-07
4.22526777609e-06
2.7961209763e-06
1.56853459835e-07
5.16316535463e-07
1.39798332681e-06
8.59521331684e-07
3.40126096703e-07
6.62351950112e-07
6.59084578587e-09
2.81920773027e-06
5.80724905093e-06
6.41880467374e-06
1.77779445549e-06
1.96864369421e-07
1.92730580686e-07
1.58838197204e-07
3.0504049439e-07
1.32611386701e-07
2.21366187691e-07
8.69682292726e-08
3.69164709345e-06
3.93491207983e-06
1.56511971946e-07
1.76711041426e-07
1.8202885122e-06
2.41146339464e-06
1.9859052309e-05
1.05322622294e-05
8.24136312704e-07
2.16519292129e-07
2.25135280847e-07
9.90501633213e-08
9.73247134709e-06
9.79615401693e-06
8.28572306852e-06
6.0749682875e-06
3.56685081687e-05
4.72616979519e-06
7.69040250835e-06
7.75639677226e-06
7.69983289349e-07
2.3493220673e-05
2.53288387928e-05
3.64179895799e-05
1.35446942667e-05
1.97521315094e-05
8.06870886022e-06
9.72684204894e-08
4.82471991732e-06
1.07325526894e-06
1.4741304795e-06
1.85866045424e-06
1.74042162867e-06
2.21336648637e-06
2.14380569497e-06
2.5958769548e-06
4.11155166418e-06
1.60909112489e-05
1.20481943926e-05
1.34905167055e-05
2.68506571544e-06
3.43360339003e-06
3.34538185986e-06
2.36126353383e-08
1.46835610344e-08
3.23503210908e-08
7.12064024067e-08
3.38616326184e-09
1.28704514675e-07
1.0195107328e-08
1.25394350336e-07
2.09156940066e-06
9.56849292224e-07
5.37410947158e-07
6.13832148414e-07
5.58468152061e-06
7.99887331652e-06
4.01775295025e-06
3.86341383404e-06
3.63096357832e-06
4.35316893804e-06
1.28473028232e-06
4.87521798244e-07
1.97594391908e-07
1.19702188165e-06
2.34693209685e-06
3.13873890505e-06
1.14145041439e-06
2.02074190393e-06
8.32017518573e-07
2.44583088646e-06
2.72331477155e-07
5.91171435659e-07
1.99502056273e-05
2.36404972602e-07
1.84802646641e-05
1.95075129798e-07
4.4153933873e-07
4.65154450391e-06
2.19078930112e-07
1.68185823392e-07
1.9096680561e-05
1.1970006448e-07
6.73203123618e-06
6.71823649487e-06
8.57194538015e-06
9.29426293554e-06
1.13936955576e-06
5.26961146785e-06
1.50400899393e-07
3.68773838453e-07
4.69387923347e-07
3.92340723559e-07
3.42930082686e-06
2.22740318503e-07
3.63203663499e-09
1.46711063673e-08
1.71137181294e-07
1.0261671575e-07
1.27216364198e-06
8.17345150081e-07
9.12367245988e-09
5.60646939549e-08
2.47184523935e-08
1.07664778796e-07
3.23088336891e-09
4.98672452545e-07
1.13620894433e-06
1.50433408296e-06
1.61697123544e-06
1.40269059318e-06
3.81839605036e-06
2.79805388086e-06
7.40721563455e-07
4.18786488238e-06
3.15355373335e-06
2.37411690693e-06
1.67949401233e-06
3.37035407508e-06
7.67694282723e-07
2.56617459702e-06
1.40534181692e-06
1.80722643117e-06
1.0410200913e-06
1.33547784776e-06
2.93096349112e-06
3.57006420322e-05
1.3997043377e-06
1.79695980656e-06
3.53355169765e-07
7.18307573073e-07
4.81118695872e-07
3.05049887596e-05
2.96934527114e-06
2.69275354373e-06
3.52559010823e-06
2.45133538394e-06
5.40776395613e-06
4.37705771691e-06
3.10762011812e-06
4.33740302217e-07
6.15212374378e-07
4.55484615157e-07
4.47841452208e-07
1.41093212515e-06
3.30880462396e-08
3.17922059118e-05
4.48476115373e-05
5.52614078721e-07
1.2622878527e-06
2.52266089054e-05
3.11419173278e-05
2.56044004272e-06
4.09436670685e-05
4.59180328448e-06
1.84937838935e-06
9.36873960978e-07
1.31849792029e-06
9.15919456292e-07
1.01379771325e-05
3.41002033001e-05
9.68034276318e-07
1.57410660782e-05
3.82390936235e-06
3.34252020498e-05
5.16724362004e-06
1.17982996317e-06
5.61796176626e-06
2.9168795867e-06
2.66303893881e-06
1.39593337504e-05
9.64539091422e-08
2.35174839333e-07
2.17474187748e-05
3.72478542855e-05
4.23212544881e-07
8.77554663202e-07
1.07241027439e-06
7.64046225514e-07
7.01973318546e-07
5.96366180786e-07
1.20300838796e-06
8.73651042213e-07
1.7845892532e-07
3.13042777457e-07
1.78226139768e-05
2.87582880715e-06
1.19928538715e-06
1.38345053404e-06
1.35452337971e-05
2.86556937739e-06
4.50623722528e-06
3.03115670548e-06
2.90232650694e-05
1.25321363173e-05
9.484926208e-06
1.40528296096e-05
1.23715743138e-05
1.72936198943e-05
1.85142502307e-05
6.61178444455e-06
7.13735816288e-06
1.38437031557e-07
2.9549399786e-07
1.39968976827e-05
1.77197377034e-08
3.80938927119e-09
3.43604478273e-08
2.86760197833e-08
3.2401958252e-08
3.01720889138e-07
2.94059408279e-08
7.02121431065e-10
3.29132582623e-08
1.46512794798e-09
3.69033950452e-09
3.45486773364e-08
3.13625411115e-08
6.09939751072e-09
3.35044259668e-08
1.04537392103e-08
2.93762757744e-07
2.19848644988e-07
1.45014699216e-06
8.51421720433e-09
2.21641729607e-08
5.64137462749e-06
2.39043998207e-06
3.62221105986e-06
1.07995707078e-05
5.51932942788e-06
4.6241788193e-06
6.30638577672e-06
2.80873112195e-06
2.74956470107e-07
1.1550608058e-07
3.94495232014e-07
4.19593338238e-06
4.48747517336e-06
5.44019458075e-06
1.5181617091e-05
1.465186243e-05
1.38787753502e-06
4.22463993678e-06
6.93623582979e-06
2.7786390224e-06
1.70863451524e-07
1.91868042373e-08
2.99764049787e-08
2.2370113272e-07
3.84520972929e-07
2.3936615313e-06
1.07486219485e-06
3.16127380005e-07
8.7933531724e-07
2.19426008751e-06
4.44206978805e-09
2.49728092847e-06
2.62163364061e-06
7.27101427941e-06
2.6465826443e-06
3.11926237288e-06
1.29314623705e-09
5.87082775729e-07
1.67195109252e-06
1.77870582942e-06
4.70376656614e-07
1.48228696769e-07
8.98795709805e-08
2.64545656464e-07
1.36407603573e-06
5.08852846956e-07
2.67327210695e-08
1.94690420879e-08
2.07537080648e-07
1.33434980612e-06
1.5133403697e-06
1.69334096002e-06
4.84654030468e-06
4.12614682123e-06
2.55709629947e-07
1.12732035454e-06
7.4107872351e-06
2.37327466678e-07
2.80536415564e-07
2.97308707145e-08
2.99978079365e-08
8.6751895193e-10
8.29923934598e-09
2.44538440785e-08
8.05687717423e-07
1.33321760661e-06
5.81390092301e-07
1.85002460392e-09
1.11991911775e-06
1.07452799296e-06
1.14871150313e-06
6.19829265781e-07
1.0968934722e-06
9.25793500026e-10
1.18017501095e-06
1.17583579221e-09
2.44671459533e-09
1.64732134956e-09
2.70231823209e-08
1.05132581724e-06
9.74788721654e-07
2.39552634076e-08
6.59740224465e-08
6.98657617095e-08
8.32423151616e-06
1.83773153234e-07
9.48789988544e-09
4.14772747497e-09
2.34790493462e-08
2.10601365798e-08
1.91462661349e-06
6.56033430993e-07
9.28207794253e-10
6.47694928004e-10
3.18503958334e-09
2.44742484954e-08
2.32186238251e-08
1.0219407066e-09
3.2698396889e-09
8.84487351791e-09
2.63548879661e-09
4.82486256593e-10
7.8803611986e-09
2.41227422104e-09
6.72540895212e-08
7.13720155383e-09
4.76516959607e-10
2.66365229904e-08
6.50008283981e-07
2.09396197316e-06
5.17265658819e-07
7.22875207426e-06
4.74354571048e-06
8.84573621877e-06
8.08858942717e-06
6.82761234867e-07
4.6130252981e-07
3.5644710267e-07
2.47998491677e-09
4.53242171276e-07
2.20160117228e-09
3.45441803059e-09
1.42329427031e-09
4.65652179976e-09
3.53705383882e-09
9.2548668887e-08
1.74971275244e-08
9.14022638468e-09
1.15027240384e-08
9.80745892672e-07
4.41092777532e-09
9.76350663573e-09
3.92629273116e-09
1.62895789302e-08
9.29598627512e-08
6.83538429632e-08
9.0743563474e-07
8.26204801499e-07
1.03139182705e-08
1.4308697206e-08
1.04688203136e-08
4.89002365074e-09
8.13659964971e-07
1.10772453816e-06
1.28022945366e-07
9.06012993741e-08
2.81406124454e-08
4.62467271937e-08
2.33276753412e-06
5.08728293684e-06
3.99199851371e-06
7.12559115188e-06
6.83222616951e-07
5.81194857302e-07
6.85198076346e-07
8.18968076651e-07
9.36308204426e-07
4.75109038242e-07
3.70358979103e-08
6.91250038245e-08
2.77015735582e-07
9.43737076328e-07
2.1131358627e-06
1.72639880965e-07
9.71470788571e-08
3.52134462914e-07
2.61517391273e-08
1.48833407236e-06
2.40367998883e-06
9.00697695118e-07
1.03634233651e-06
3.84447158299e-06
1.56362738505e-06
2.64006422063e-06
9.54037988656e-07
1.3407666099e-05
5.64580273238e-06
4.46345404472e-08
2.72555416339e-07
4.35166273138e-07
5.4514845348e-07
5.76051322488e-06
5.16727554738e-06
2.39660822298e-07
5.44565851137e-08
1.08605425533e-06
2.69386938187e-06
2.49624054089e-06
2.48937900503e-07
7.15174356647e-08
2.83202908383e-06
1.39886973303e-07
7.83380217508e-09
6.29095349807e-09
6.36923802491e-08
1.43156223353e-08
2.61447164132e-07
7.01211287548e-08
4.37971511519e-08
8.8494476808e-08
3.6278832766e-08
2.73545676701e-08
1.99570567643e-08
8.44546547888e-09
1.02782932554e-08
1.2197535049e-08
5.07700677666e-09
7.06367547757e-08
8.35087559911e-09
1.1719231758e-07
9.08819435048e-09
4.89341872292e-06
2.87107347338e-07
5.5384903826e-06
5.71140323861e-06
3.43922795175e-08
3.36289370226e-08
3.04121415669e-08
5.19264902749e-08
1.09977639173e-06
4.33367611655e-08
6.47365634204e-08
3.10887599358e-08
4.06222992302e-08
3.4855592946e-08
1.7676681528e-08
4.14120776309e-09
3.42747647171e-08
3.61767124088e-06
1.62229503252e-07
9.44906491582e-08
6.01994752584e-07
1.10050499252e-06
8.99141494961e-07
7.18997396444e-07
7.65681184995e-07
8.25548439444e-07
3.43873141445e-05
2.67027957194e-06
2.7453731487e-06
6.38020889749e-07
4.35575599555e-07
1.50969694218e-06
3.78381302863e-07
3.91753916683e-07
3.65599340799e-07
4.98877961387e-07
1.0146403572e-06
1.43279980297e-06
3.79864905664e-06
1.04708791917e-05
4.0976513064e-08
4.43892597509e-08
2.49400543826e-07
3.11547675458e-08
3.3645665216e-08
2.16629897248e-08
1.97609118276e-07
4.10736473771e-08
3.773392193e-07
4.97295724927e-07
1.31540488117e-06
1.35979041781e-05
1.81052523151e-06
1.37179068002e-06
7.24739855371e-07
2.52403795102e-07
1.18461441121e-05
1.26066717999e-05
1.41213859501e-05
3.3022916432e-07
1.30481537386e-05
1.455361994e-05
1.51295680264e-05
3.95140094883e-07
1.1045063451e-06
1.30792438973e-05
1.26826416656e-05
2.22573014937e-08
1.21608031823e-05
4.14731659967e-07
2.42036058576e-06
2.82146629263e-07
1.65952385935e-07
1.53174837506e-07
5.94995555438e-08
3.26504895189e-06
1.75519735333e-07
3.18297296285e-07
1.52147363435e-07
2.75606795713e-07
8.95803347442e-06
5.96160797078e-08
7.72528830443e-08
6.33894628633e-08
1.39710420609e-06
4.22527998301e-08
3.00254533347e-07
2.36672702311e-07
2.55637418655e-06
2.1334945175e-05
1.47678321681e-06
9.63115862632e-07
4.43068251095e-07
3.14496411303e-07
1.35817384655e-05
5.41649663219e-07
5.19293905221e-07
7.9074008919e-07
1.48318849178e-05
9.27816536254e-07
2.99876409344e-06
2.30988675519e-07
3.08465800037e-07
2.22768057724e-07
3.03681575227e-07
1.11412372029e-05
1.81122658421e-05
1.33393597157e-06
3.4897259193e-07
6.65381892604e-07
3.36546597436e-06
9.91659916906e-06
9.8640661222e-06
4.50024408231e-07
6.74026258972e-07
3.48629026541e-07
7.97225744514e-07
2.39634033184e-07
1.99777462234e-07
4.2491309469e-08
1.99440260444e-06
5.66245511153e-08
9.24603978066e-06
8.64424974406e-07
6.80420435161e-06
4.78456233373e-07
3.14627400284e-06
2.5697780788e-06
5.48895421836e-06
8.65627947092e-08
4.24705907957e-08
2.82995800119e-06
2.42599551536e-06
3.40126894639e-06
1.08657970442e-05
4.41683838031e-06
1.67093110076e-06
1.11924923978e-05
3.06271370693e-06
4.66907422047e-06
1.79360604406e-06
1.16337932869e-08
5.00854021129e-06
2.84009814834e-06
2.12397410162e-06
4.14807125751e-09
1.76028286297e-07
5.32472549462e-06
2.80872989783e-06
5.24565532636e-09
5.11351063302e-06
7.1260516846e-08
2.84800842688e-06
7.08554101985e-06
6.81784559089e-08
1.20341309532e-08
6.04284552011e-06
8.89524998231e-06