# vtk DataFile Version 3.0
File Name: Molecule/sphere_excent/sphere_excent_0-s52.vtk
ASCII
DATASET UNSTRUCTURED_GRID
FIELD FieldData 1
TIME 1 1 double
0.0
POINTS 1030 double
-0.54292488098 0.80727058649 -0.23140023649
-0.65557175875 0.743039608 -0.13430279493
-0.56689107418 0.82205724716 -0.052970696241
0.40186199546 0.86051827669 -0.31265419722
0.43481963873 0.88816016912 -0.14872926474
0.54785144329 0.78746980429 -0.28225284815
0.38950577378 -0.4582183063 -0.79896706343
0.508030653 -0.51077586412 -0.6935275197
0.36856368184 -0.59336262941 -0.71560043097
0.86496090889 0.07597246021 -0.49564388394
0.80171775818 0.18629996479 -0.56747788191
0.88394963741 0.160084337 -0.43860223889
0.88204538822 -0.080910518765 -0.46414509416
0.82727986574 -0.0088502019644 -0.56160473824
-0.25382092595 -0.87741929293 -0.40705817938
-0.14865742624 -0.87887465954 -0.45329368114
-0.17387582362 -0.92297369242 -0.34330973029
0.57477229834 -0.10481871665 0.81151455641
0.5367359519 -0.34468644857 0.77006858587
0.67350375652 -0.23007005453 0.70237702131
0.91231292486 0.15159849823 0.38028791547
0.88527721167 0.048655845225 0.46249264479
0.94916504622 0.038216747344 0.3124345839
0.38830164075 -0.4512103498 0.80350261927
0.38809674978 -0.28268992901 0.8770596981
0.50754481554 -0.56903141737 0.64694088697
0.62873333693 0.43491053581 0.64451545477
0.5642567873 0.33144971728 0.75567525625
0.73046189547 0.28232303262 0.62184244394
0.11450101435 -0.26363405585 -0.95779269934
0.11876942217 -0.37634408474 -0.91882246733
0.015042715706 -0.29740431905 -0.95462220907
-0.18946288526 -0.37800565362 -0.90620684624
-0.12929338217 -0.45145469904 -0.88286173344
-0.21515016258 -0.44558089972 -0.86900287867
-0.19779740274 -0.51228845119 -0.8357052207
-0.12879562378 -0.61770045757 -0.77580749989
-0.20019687712 -0.58298277855 -0.78743630648
-0.092733383179 -0.5464027524 -0.83234709501
0.043759498745 -0.52185422182 -0.85189986229
0.012504527345 -0.59110331535 -0.80650770664
0.1219612807 -0.5959842205 -0.7932779789
0.92661744356 -0.0011982045835 -0.37599870563
0.83417129517 0.48670503497 0.25916200876
0.87671142817 0.46477365494 0.1241505295
0.81133306026 0.56924057007 0.13277520239
0.88510966301 0.34633889794 -0.31087189913
0.89399307966 0.38112592697 -0.23560939729
0.92574334145 0.29991817474 -0.23031447828
0.84682679176 0.43380060792 -0.30773821473
0.88276821375 0.28752738237 -0.37153363228
0.84059089422 0.3660864234 -0.39924609661
0.84119200706 0.25206840038 -0.4784014225
-0.33811053634 -0.35205247998 -0.87277603149
-0.26054400206 -0.31086945534 -0.91404592991
-0.27678209543 -0.40178582072 -0.87289249897
-0.38565340638 -0.26299974322 -0.88434523344
0.0056669013575 -0.37866666913 -0.92549568415
-0.45865699649 0.62811660767 -0.62856155634
-0.357778579 0.66637551785 -0.65416109562
-0.38582766056 0.58361750841 -0.71450734138
-0.27383053303 0.61595934629 -0.73865371943
-0.26080301404 0.70014083385 -0.66466009617
-0.49760839343 -0.30677881837 -0.81132376194
-0.59141361713 -0.2351385802 -0.77131444216
-0.47423884273 -0.17608740926 -0.86260068417
-0.6031126976 0.038185894489 -0.79674059153
-0.70538657904 -0.04303040728 -0.70749437809
-0.6829803586 0.089993543923 -0.72487205267
-0.76777666807 0.049260914326 -0.6388168931
-0.7966376543 -0.091330960393 -0.59753847122
-0.59391850233 0.13898901641 -0.7924362421
-0.51530390978 0.10703313351 -0.85030567646
-0.15333110094 -0.12846197188 -0.97978490591
-0.11794640124 -0.041279632598 -0.99214553833
-0.049689847976 -0.11785155535 -0.99175536633
-0.28765949607 -0.22269046307 -0.93147319555
-0.35693091154 -0.16866198182 -0.91876143217
-0.1869687587 -0.2195507586 -0.95750969648
-0.24881388247 -0.15010599792 -0.956843853
-0.2046019882 0.55407220125 -0.8069332242
-0.31354105473 0.52097660303 -0.79390156269
-0.28517323732 0.4119053185 -0.86544078588
-0.37009811401 0.43557018042 -0.82055753469
-0.073488496244 0.55865675211 -0.82613015175
-0.1510566026 0.61961227655 -0.77023720741
-0.32801344991 0.072850130498 -0.94166922569
-0.25120154023 0.15567731857 -0.95532637835
-0.23832541704 0.066830560565 -0.96888673306
-0.36511850357 -0.58196079731 0.72669970989
-0.30523705482 -0.48394942284 0.82014149427
-0.47644796968 -0.42403107882 0.77013134956
0.11459885538 -0.01397067681 0.99325740337
0.044870834798 -0.11822520196 0.99146795273
0.15329562128 -0.11123532057 0.98162692785
0.26626682281 -0.213371858 0.93929034472
0.14313545823 -0.25942072272 0.95460402966
0.26124218106 -0.34823605418 0.90023183823
-0.14718899131 -0.49965828657 0.85315030813
-0.20910896361 -0.61801803112 0.75784724951
-0.26141399145 -0.35427480936 0.89785265923
-0.43885308504 -0.12348946929 0.89002686739
-0.34220927954 -0.0017391284928 0.93927115202
-0.49013653398 0.027562845498 0.87118458748
-0.48651397228 0.21524043381 0.84667497873
-0.38338124752 0.12478177249 0.91510850191
-0.60444706678 0.10410231352 0.78980493546
-0.33192297816 0.26615399122 0.90497130156
-0.43174517155 0.40180444717 0.80752581358
-0.25587490201 0.40782913566 0.87641042471
-0.27525311708 0.12470759451 0.9531878233
-0.62141668797 0.30046436191 0.72343170643
-0.62244701385 -0.11186206341 0.77458971739
0.24124246836 -0.49135378003 0.83687120676
0.30658575892 -0.63226187229 0.71142035723
0.091801889241 -0.56771314144 0.81737536192
0.15260158479 -0.41248425841 0.89760619402
0.43069589138 0.05420935899 -0.90082103014
0.51830250025 0.10340790451 -0.84894841909
0.50301164389 -0.042431034148 -0.863245368
0.13932029903 -0.47662761807 -0.86755681038
0.2500744462 -0.42693436146 -0.86901140213
0.27268663049 -0.53632164001 -0.79827535152
0.61286985874 0.10911466926 -0.78258675337
0.58802086115 0.20984253287 -0.78116595745
0.682710886 0.15472352505 -0.71409732103
0.22550688684 -0.6266297102 -0.74589914083
-0.12353634834 -0.75159597397 -0.6479537487
-0.13431961834 -0.68581598997 -0.71526771784
-0.057805351913 -0.70127290487 -0.71053594351
0.043657060713 -0.4456243813 -0.89412593842
0.12150620669 -0.68218553066 -0.72099667788
-0.022815965116 -0.79880553484 -0.60113859177
-0.15194514394 -0.81332814693 -0.56160384417
0.36975210905 0.49341854453 -0.7872723937
0.37372213602 0.36069110036 -0.85453796387
0.29893988371 0.43784475327 -0.8478884697
0.27195328474 0.33029288054 -0.90385204554
-0.23781956732 -0.76309788227 -0.60093396902
-0.21232230961 -0.70225137472 -0.67953461409
-0.30531337857 -0.69523400068 -0.65071696043
-0.35235244036 -0.75291800499 -0.55583614111
-0.26693171263 -0.63527548313 -0.72468346357
-0.39907419682 -0.67262321711 -0.62315267324
-0.35954084992 -0.61476778984 -0.70199972391
-0.47729301453 -0.59437435865 -0.64724129438
-0.48393514752 -0.68436974287 -0.54541021585
-0.29020631313 -0.56155866385 -0.77487111092
-0.38468289375 -0.52025151253 -0.76245450974
-0.2504555583 -0.82477194071 -0.50696307421
-0.18950422108 -0.64546847343 -0.73990124464
-0.62677568197 0.57682240009 0.52381318808
-0.5629554987 0.48262858391 0.67087686062
-0.4982354641 0.64000403881 0.58460521698
-0.40683150291 0.59301429987 0.69489204884
-0.55079132318 0.58838224411 -0.59168958664
-0.50989311934 0.66335952282 -0.54770350456
-0.51688528061 0.19139790535 -0.8342064023
-0.57774949074 0.22480982542 -0.78465610743
-0.51378923655 0.27175217867 -0.81373012066
-0.59837830067 0.30592596531 -0.74050444365
0.78093725443 0.081827297807 0.61921077967
0.68730658293 -0.024717256427 0.72592687607
0.76637995243 -0.11980069429 0.63111001253
0.65704900026 0.16453324258 0.73555195332
-0.9037758112 0.10737967491 0.41428786516
-0.78654283285 0.23698461056 0.57010751963
-0.86836695671 0.2905908525 0.40179225802
-0.7363268733 0.41047105193 0.53780949116
-0.62965929508 0.38051912189 -0.67730277777
-0.69114279747 0.28379330039 -0.66467911005
-0.65413212776 0.20326156914 -0.72856605053
-0.41817009449 0.49986168742 -0.75846624374
-0.48943334818 0.54707705975 -0.67909646034
-0.50574737787 0.4707120955 -0.72293275595
-0.57749456167 0.48044925928 -0.66002374887
-0.46425610781 0.42534893751 -0.776874125
-0.42630365491 0.37579187751 -0.82283139229
-0.50774824619 0.35148450732 -0.78653472662
-0.55554234982 0.40028762817 -0.72879076004
-0.45036554337 0.31402316689 -0.83581590652
-0.43221789598 0.25279897451 -0.86529779434
-0.64893269539 0.44589620829 -0.61648416519
-0.35835337639 0.33049252629 -0.87313115597
-0.93125480413 -0.35642424226 -0.075505107641
-0.8923907876 -0.4379786253 0.1087243408
-0.96266537905 -0.23538415134 0.13375627995
0.7075523138 0.34682607651 -0.61569571495
0.64124578238 0.42689627409 -0.63761097193
0.71119272709 0.42790207267 -0.55775612593
0.1828147769 0.3065982759 -0.93402129412
0.2205016315 0.41797152162 -0.88120901585
0.22973938286 0.20135520399 -0.95218425989
0.33719840646 0.22919471562 -0.91307199001
0.26636326313 -0.0036206501536 -0.96382826567
0.31857714057 0.1010273844 -0.94254088402
0.3884472847 -0.063385874033 -0.91925567389
0.42426589131 0.16163317859 -0.89098668098
-0.12947297096 0.64104235172 0.75650364161
0.034224968404 0.71691697836 0.6963211894
-0.13184531033 0.76568561792 0.62950569391
0.019474232569 0.58101129532 0.81366026402
0.013325716369 0.84310251474 0.53756332397
0.19172084332 0.77308279276 0.60441666842
0.20329745114 0.60509860516 0.76944345236
-0.28064101934 0.53976035118 0.79362052679
-0.25949946046 0.67041939497 0.69517850876
-0.13334579766 0.51323491335 0.84780979156
0.074935220182 -0.87962055206 -0.46956497431
0.11728898436 -0.81680488586 -0.56486725807
0.19511523843 -0.85714906454 -0.47601759434
0.24487957358 -0.80385637283 -0.54196941853
0.32516017556 -0.82486671209 -0.46246084571
0.15864168108 -0.74268400669 -0.6504457593
0.068312332034 -0.75405520201 -0.65324425697
-0.73497575521 0.16607038677 -0.65744435787
-0.82280367613 0.15236820281 -0.54748779535
0.40387561917 0.56789594889 -0.71684765816
0.46804529428 0.49808844924 -0.72996294498
0.19549536705 0.088653631508 -0.97668462992
0.12274289876 0.16533784568 -0.97856205702
0.036453537643 0.40563637018 -0.9132963419
0.14397895336 0.38908007741 -0.90987735987
0.098643556237 0.32303610444 -0.94124311209
0.44084838033 0.42710271478 -0.78945028782
[...]
CELL_DATA 2056
SCALARS cell_data_0 double
LOOKUP_TABLE default
7.41171871309e-07
1.29590886313e-07
6.86032698129e-08
1.45470337767e-07
8.46102979369e-08
7.94947873519e-08
7.03970662799e-06
1.03019648682e-06
5.68855222251e-06
8.64419512506e-06
5.90628838038e-06
3.97689785473e-08
2.11426989669e-08
7.51650825727e-08
1.53753920725e-06
1.37937643937e-06
7.53410079651e-06
1.98803955966e-06
6.12895604087e-07
1.45559764907e-07
5.51767078596e-06
5.24904490034e-06
6.59903224659e-08
7.81396963565e-08
9.45657764976e-08
3.81841164319e-08
3.80219157016e-09
4.47064401786e-06
1.56434531623e-05
4.2301015571e-06
4.48656556982e-06
1.22059592806e-06
5.65116231262e-06
8.73325676383e-06
4.2539839942e-06
1.46306021604e-05
8.71190592239e-06
3.62509295153e-06
2.35167074959e-06
5.70017068856e-08
3.94672689596e-07
7.5329739432e-06
3.3974748577e-08
5.30435334738e-06
7.28488510062e-06
9.02298077651e-06
1.29912937635e-05
3.97955280396e-06
4.64349854413e-06
6.05950421174e-06
5.48872722206e-06
1.15880433132e-05
1.13970927997e-05
9.13948860255e-06
1.16902917936e-05
5.8448395739e-06
1.04790384084e-05
9.72738552687e-06
1.00389414253e-05
6.01884075436e-06
7.36346174126e-06
1.07920008759e-05
1.14329740415e-05
5.2297299128e-06
8.65252788721e-06
1.05065741227e-05
3.60668618238e-06
5.04469685596e-06
7.26348466667e-07
2.58757231654e-07
2.52926339253e-07
1.00025964282e-07
1.98519568735e-07
1.6956272475e-07
3.02111190527e-07
4.61796167372e-06
2.08767818281e-07
5.73931390374e-06
8.68568918103e-06
4.91039297897e-08
3.32743266804e-07
7.7786078015e-06
3.57039317512e-07
1.97602300223e-07
2.44991813842e-07
1.80826027425e-07
2.04614960886e-07
1.47295024552e-07
1.15135860782e-07
4.92835459853e-07
2.02967977873e-07
1.80264971754e-09
2.64422481102e-07
4.10349846331e-07
1.77314331663e-07
8.30522295371e-06
5.68395031726e-06
2.15362446947e-07
2.20667515447e-07
1.12518814057e-07
1.24332394879e-06
1.4920488244e-06
3.04601097862e-06
7.97840214329e-06
1.03938395764e-07
1.09852255782e-08
7.67656330206e-08
2.06468469896e-08
3.11436975439e-08
2.25240156316e-08
4.44943210849e-06
6.3808955111e-06
4.53754613737e-06
4.63760985912e-06
6.80376622246e-06
9.37982376933e-06
3.69199815474e-06
6.45645880828e-06
7.70665685726e-06
8.22100830168e-06
3.22146076984e-06
1.07977411967e-06
4.72910826598e-07
7.46945881297e-08
5.59826985173e-07
1.38408309429e-06
1.1087624057e-06
7.02233450833e-07
1.15374736705e-06
1.46241784132e-06
4.95825029776e-07
8.28413702458e-07
1.07855230881e-06
4.55957827319e-07
6.11464031459e-07
4.38040405381e-07
7.11337071545e-07
5.15067357202e-07
4.23226019663e-07
2.44475545169e-07
2.17859912127e-07
2.50182862239e-06
2.72207063464e-07
6.51526979648e-07
1.29109067417e-06
6.29908785488e-07
8.13244255736e-07
3.22047077234e-06
1.09938554424e-07
2.79505150166e-07
3.72900154269e-07
1.65557060837e-06
6.62237425507e-07
7.00605868664e-07
1.56148703885e-06
1.14806143006e-06
1.27937569768e-06
2.35717712671e-06
7.11920586834e-06
1.1396799928e-06
6.24550770832e-06
7.36855869761e-06
5.1942867937e-06
5.44877352812e-06
8.11754689199e-06
8.81590023524e-06
4.94009647302e-06
7.61700380188e-06
7.97307490674e-06
7.36341604602e-06
8.60936353784e-06
9.38315314983e-06
2.4640712957e-07
3.90642785039e-07
1.17574680528e-07
5.36914030084e-06
3.07144846082e-08
4.94866312136e-08
2.75910476682e-08
3.32006979071e-08
4.01165429499e-06
8.55456384989e-09
4.65670608574e-08
3.79086469917e-08
4.61337766451e-07
6.46863926402e-07
1.62760219759e-06
7.11840148632e-07
1.47249232862e-06
1.3372149984e-07
1.36402882848e-07
1.5788526657e-07
1.14100207447e-07
2.73488887465e-07
2.36679321295e-07
2.32248480344e-07
1.90999210313e-07
2.37609970183e-07
2.58120213712e-07
5.754125472e-07
2.79547568473e-07
7.80950296677e-08
2.5418929013e-07
7.29077961433e-08
3.68125968861e-07
2.61223757602e-07
9.27385357753e-09
5.38497998998e-08
7.28788015817e-07
7.2681392777e-07
2.95840543379e-07
3.36083956452e-07
7.58446653713e-08
2.3569584653e-07
1.85206336768e-07
1.04877280021e-07
5.5667304851e-07
1.55146229342e-06
1.06456692307e-06
3.04051378064e-08
6.40741863709e-08
1.47823584478e-05
1.0789480329e-06
8.6838374088e-07
5.58373245814e-07
2.69446547963e-06
5.77940562313e-07
3.58831740687e-07
1.26302728087e-05
9.56025272847e-06
1.03358504052e-05
7.7565644517e-08
5.28622681317e-06
7.22337955419e-06
1.04046223809e-05
5.75683782225e-08
2.27734396911e-08
7.76656148201e-06
1.33312463348e-05
1.0113050495e-06
1.78300807927e-06
1.40481053981e-05
1.08732309441e-06
1.35094277622e-07
5.85224074335e-07
7.64095572252e-06
4.33564005652e-07
1.420433028e-07
4.91749335079e-07
8.00550773951e-06
3.6063847655e-07
1.85970387313e-07
8.42864397491e-06
5.71350027905e-07
9.69720509292e-06
7.08358685242e-06
8.34869206812e-06
7.83633947565e-06
2.23328378597e-06
2.25696656281e-06
4.16499456305e-06
1.94496847273e-06
2.3357881182e-07
2.9503992394e-07
4.86896509737e-07
3.82200781988e-07
3.80878735467e-07
3.87834728041e-06
3.7640924969e-06
4.00690197434e-06
2.03597233387e-07
5.75459668413e-07
8.28447871409e-07
5.38507625154e-06
5.84747158232e-06
4.98853173403e-06
3.19823943676e-06
1.69129660772e-05
1.26809098519e-05
1.69595632878e-05
1.89531029466e-06
1.88371009504e-06
1.01616163609e-06
2.5401710059e-06
1.96704935459e-06
8.72737274406e-07
9.21544705756e-07
1.24011683915e-06
2.1082289389e-06
5.18113583872e-07
1.5246282273e-06
1.07695852891e-06
9.1971817841e-06
8.61415754015e-06
4.5652183062e-06
5.49169562397e-06
1.94589784743e-07
3.28543464666e-07
8.53239622203e-06
2.16315219129e-05
5.6693589164e-06
1.65585280114e-05
6.24845292746e-07
5.41510495891e-07
6.44143319841e-07
8.87762388051e-07
1.25656844677e-06
1.04831172067e-06
9.46075823378e-07
4.60898787088e-07
2.10976222757e-06
2.82006927452e-06
1.73962372967e-06
4.66966083097e-07
1.4011278939e-05
2.34796352089e-06
1.32874381466e-06
1.24998776469e-06
2.43045032308e-06
1.37967183393e-06
1.62680486651e-06
1.89369982045e-05
1.03750702371e-05
7.64405736375e-06
2.32208306616e-05
1.23185866954e-05
8.62004307975e-06
1.73534054024e-06
7.25298784159e-07
3.87795957826e-06
9.68345857254e-07
3.7286788963e-07
5.35577157317e-07
7.62812227465e-06
5.74299277441e-07
1.79894763829e-06
6.3904273818e-06
6.36944584988e-07
4.11174216021e-07
3.85280180441e-07
4.10112836489e-07
1.13654760871e-06
7.75283927762e-07
1.08624131796e-07
6.71315043959e-08
2.02775482244e-07
1.2633751598e-07
1.21337054589e-07
1.02195206452e-06
9.37444810662e-07
4.20551411863e-07
2.22288379813e-07
1.44283553154e-05
1.51303971977e-05
8.53307641985e-06
9.30675807351e-06
5.85001000058e-07
1.15698380414e-06
5.43145753683e-07
1.04572471159e-05
1.81527196022e-05
8.76649342199e-06
7.04965827651e-06
1.56486627694e-07
2.59426658226e-07
1.80233870546e-07
2.6831331876e-07
1.16162374225e-05
4.61284780759e-07
1.18796323513e-05
4.47938111876e-06
6.67434085193e-06
3.47867109883e-06
3.39278866905e-06
3.22672792876e-06
4.26176559372e-06
2.04080382215e-07
1.07331193054e-06
2.63728149827e-07
3.840822003e-06
3.37061574051e-06
3.26016181864e-06
7.90158660038e-07
3.72459069675e-06
2.48676537869e-06
3.46844030608e-06
3.38342010299e-06
4.29860663806e-06
9.46655878422e-06
1.64672684065e-08
5.16262451638e-07
3.69493868861e-07
7.91835532881e-06
7.12610237798e-06
6.96691177389e-08
7.18888325274e-07
4.66084673218e-07
2.57307110011e-07
1.05276603763e-06
3.19969947381e-07
8.43696374812e-07
5.66481941963e-07
4.14982148721e-07
2.10437018388e-07
9.63760918629e-07
2.44850587892e-06
2.34687728789e-07
2.60798401136e-07
5.21785948231e-07
6.4353435607e-07
2.65962539632e-07
3.79625124785e-07
1.6094372677e-06
1.09882401373e-06
6.96894304077e-07
1.17268524628e-06
2.39885147643e-07
3.3930959867e-06
1.46152386112e-06
1.68987240641e-06
2.08666027054e-06
1.06041676765e-07
2.30806386353e-07
9.78356940673e-06
7.97479972669e-06
9.29009021368e-06
9.53641127654e-06
1.55860280036e-06
1.69082680647e-06
2.61815824652e-09
1.65825691912e-08
3.46383938307e-10
1.59596252161e-08
3.90408338908e-09
7.04864791797e-06
2.12308264773e-08
5.47030464928e-09
3.63744487821e-09
1.75111331665e-06
6.2193899386e-07
9.64689956516e-09
1.14049474985e-08
9.54386742845e-10
1.12982500929e-08
3.56710444021e-08
6.26462141903e-06
6.1466864374e-06
2.02616471539e-07
3.48887270364e-08
6.58775986946e-08
7.8369399212e-06
3.62576867706e-06
3.79792294589e-06
4.39091870665e-06
3.31571788562e-06
3.24799952675e-06
3.98082891133e-06
2.4164686172e-06
1.69830918236e-06
1.85876171246e-06
1.75276581601e-06
2.44568157264e-06
4.16974056477e-06
1.92737722699e-06
1.47899286046e-06
4.55027504431e-07
1.22989813202e-06
2.45268039218e-07
2.22900494188e-07
1.9860192698e-07
5.86461445342e-07
4.43744544084e-07
3.69167957409e-06
1.90748933668e-06
4.68668063373e-07
4.87189148935e-07
1.44039631804e-06
1.02928813883e-06
6.12488254013e-06
1.20825768513e-07
1.41172149361e-06
1.11624078891e-06
7.63134961282e-07
1.05311545887e-06
4.98481749114e-07
4.808839865e-07
9.16561301851e-07
1.00889977043e-06
3.36735635606e-07
3.66226462451e-07
1.61586959757e-06
4.84770634743e-08
2.15271639157e-07
3.72974102762e-07
1.38872062969e-06
1.41883449249e-06
1.48742647797e-06
4.01855617478e-07
1.26824190032e-06
2.54135475513e-07
2.92767291922e-07
2.32980957387e-07
3.096544487e-07
4.95399657346e-06
1.7263689464e-07
1.76218582605e-07
1.87618102052e-07
1.59620511732e-07
3.47411727084e-06
1.39404537231e-07
2.17141461832e-07
2.15773726244e-07
2.79054519711e-06
2.37206771979e-06
1.66501065788e-07
2.12526491496e-07
1.51092621415e-07
1.51047400328e-06
1.68554371229e-06
5.66321618037e-07
8.73657672892e-07
1.41699317214e-06
1.88741848732e-07
2.19467672818e-07
3.44443973048e-07
2.22142052101e-07
1.70409961213e-06
1.03552308009e-07
5.50655900974e-07
1.58806955162e-07
1.44483091841e-07
9.3765108537e-08
5.16625279522e-07
1.1143279994e-07
5.10977592573e-07
1.65843109624e-06
5.56296590899e-08
5.45984850572e-07
3.81146152734e-07
7.72719703305e-08
2.02840389003e-06
1.22161781448e-07
8.58213337499e-07
5.45280507255e-06
3.33620325439e-06
4.1662702298e-06
6.57024691787e-06
4.85324909469e-06
1.96575370647e-06
4.5256802234e-08
2.70181342649e-06
1.04482822615e-06
2.43995386142e-06
4.27073888086e-08
5.91410445894e-07
8.15635723823e-07
6.53520800274e-07
1.29314352941e-05
5.68403344879e-06
3.53741009851e-06
6.26162608494e-07
1.20186752826e-08
1.62530330257e-06
7.78273272015e-07
1.21768308719e-05
5.79583254852e-06
1.06426219514e-06
2.2079069481e-06
1.40533673573e-06
3.44413100306e-08
2.51509911537e-06
1.67457240087e-06
2.25143329256e-06
3.24542367054e-06
1.13262429765e-05
1.09989121859e-05
7.26622264228e-06
2.88360649636e-06
2.9446583671e-06
3.37725342704e-06
3.12945639468e-06
5.60650631169e-06
2.8836602759e-07
2.95207226191e-07
1.26507461616e-07
4.7166105642e-07
3.69031531857e-07
5.98855430747e-07
5.22489168358e-06
3.2649166298e-06
2.05499963817e-07
4.99035254097e-07
3.97498794458e-07
9.95396841116e-08
2.27804793644e-07
3.67348698625e-08
5.62466660679e-07
3.21659580569e-08
2.71802194661e-06
2.60413060919e-06
2.2410018212e-06
2.00585561727e-06
2.84284548652e-06
2.44271832776e-06
7.01121504651e-07
4.34023899185e-07
6.09782880419e-07
3.72954910322e-06
3.99629235645e-06
5.96718220862e-08
9.96857698832e-08
1.77725199865e-07
5.28305597582e-08
1.33418107598e-08
6.70890017859e-07
8.43477473657e-07
3.27530104554e-07
1.28019818644e-06
2.26143111487e-07
4.83896138624e-08
2.19506197051e-07
1.05443093182e-07
4.53807962209e-06
1.66372166837e-08
1.5549982293e-09
9.57205947444e-08
3.65731556474e-08
1.52733266241e-08
1.95851926563e-08
2.92631065173e-08
6.95999157367e-08
3.83580821871e-08
2.99068081746e-08
1.04244596407e-07
2.80716584714e-08
4.03796340459e-08
4.76718864867e-08
5.584284158e-06
6.0927266404e-06
2.15609616992e-06
1.73278142651e-07
1.57627600376e-06
3.42615086756e-07
1.02618137746e-06
1.87248860372e-06
1.73469943594e-06
6.90706144853e-06
1.5166211234e-07
1.73843619724e-07
1.72073677887e-07
9.00936789793e-08
1.2567273306e-07
2.04511327641e-07
1.34043221022e-07
6.02926647562e-08
4.01270477927e-07
2.269354117e-07
2.63360946328e-06
8.68465430832e-07
2.65581007162e-07
1.11673557722e-08
2.6723580979e-06
2.25628853444e-06
1.04900773569e-06
2.13852092859e-07
1.3631269344e-06
2.11100945289e-06
2.02807564695e-06
7.69476879869e-08
1.50223550307e-07
5.2271295938e-07
3.6521544678e-07
1.89136688982e-06
3.79434719515e-07
4.37799944213e-07
1.55551826e-06
8.33606818239e-07
1.35321808738e-06
9.80243987832e-07
6.93462681153e-07
8.44802884231e-07
1.75954666426e-07
2.46306592344e-07
7.68059917966e-08
2.27485337575e-07
1.47722475954e-07
4.01504526138e-07
2.22290693293e-07
2.91608562652e-07
3.11598973131e-07
8.18911377806e-07
1.3848974335e-06
5.63190825405e-07
2.4893088254e-07
2.77449540441e-07
1.70845301889e-07
2.75051379499e-07
2.53861150951e-08
1.91800500117e-08
3.75337011586e-09
1.18321921996e-08
1.56253538865e-08
3.45034661402e-08
1.30751584522e-08
5.35046285047e-08
1.93731732777e-08
2.06076431243e-06
3.00745182125e-08
1.95858790421e-08
3.26583580494e-08
1.33752865369e-08
2.08759494603e-08
3.23609663907e-08
4.45269607924e-06
2.43853548156e-06
2.69293031711e-07
2.51149369302e-07
1.35823587524e-05
1.06283848143e-05
2.63382064163e-07
6.03788751032e-07
5.15819860018e-07
9.15070979054e-07
1.91904984701e-06
5.57030883095e-07
1.74307254228e-06
2.03301853e-06
3.73091247965e-07
1.03617806805e-06
1.71757393444e-07
3.53023954143e-07
1.53471234776e-06
7.56511767326e-07
2.19073733172e-06
1.32143371595e-08
1.95788250347e-06
4.38240361384e-07
6.52503570201e-07
1.90672975341e-06
3.57089589228e-08
1.81033169948e-07
1.59624477133e-07
4.39314766757e-07
1.00943158259e-06
1.66459817935e-06
1.15240811101e-06
1.00089347464e-06
1.512102288e-06
2.14465422372e-06
1.28751130537e-06
1.26002514677e-06
2.94842247142e-06
3.23337587878e-06
6.67919340816e-07
5.34967781962e-07
7.26574498954e-07
6.68034537682e-07
6.17963064373e-06
5.62879829687e-06
1.96394474039e-07
2.89063505138e-07
2.03773175644e-07
1.69413731166e-07
2.17803383924e-07
3.21594402952e-07
3.99843158177e-06
2.25121232334e-07
1.51793652999e-07
2.7869552813e-07
1.98311815701e-07
1.64527478431e-06
4.11311631801e-06
1.23429938997e-07
1.88898725602e-06
4.04953990824e-07
2.6257534176e-07
5.41510640351e-07
3.03146039878e-07
5.40032028226e-07
2.84199833754e-07
7.16559886055e-07
5.40557838316e-07
3.35992088389e-07
1.22596280676e-07
7.58243924844e-07
4.10686511356e-06
1.85934955571e-07
1.36557277308e-08
1.13620799118e-07
1.24855159204e-07
1.36224186642e-07
7.76368091584e-09
8.01387865263e-08
3.52839414168e-06
6.03472388972e-06
1.04739846087e-05
1.35987441069e-05
4.61125377419e-06
2.98960752399e-06
3.97725141691e-06
3.26358732101e-06
2.82648977442e-06
8.27884918856e-06
2.23596890794e-07
2.2918697714e-07
1.73915070652e-08
1.47259911833e-08
1.46135979202e-07
9.71944828155e-08
1.79210209759e-06
3.41865326442e-08
2.18764119119e-08
1.99532633221e-06
3.39081458011e-07
1.38784446757e-06
5.70768876775e-07
1.140658083e-07
2.0998124857e-06
2.04421214635e-06
9.91225813422e-08
1.07793019742e-07
1.62550514099e-07
1.02484069615e-07
1.1411508914e-07
4.9772192564e-07
1.94897091158e-07
9.03989912744e-06
5.59458927017e-06
4.02853816756e-07
3.92971169692e-07
5.14255796311e-06
5.66324461382e-07
8.85352036249e-07
3.09290961412e-07
2.44217564672e-07
2.2678433753e-07
1.3419544862e-06
1.9885764667e-07
1.39322032573e-07
2.02659358591e-06
2.18375592053e-07
1.56387695227e-06
4.20094118467e-07
9.07468704362e-07
1.09362649209e-07
3.09143426968e-08
3.7530007402e-08
6.90877368156e-08
1.66587190677e-08
1.33433915786e-06
1.35544424986e-07
8.04515909541e-07
1.26806860774e-06
8.2107567093e-07
5.13881248908e-07
2.24902873477e-06
1.20259466014e-05
9.59606136572e-07
5.99601825313e-07
9.52570962516e-07
1.22691511434e-06
8.7990342041e-07
6.0265277671e-07
2.37091042539e-07
8.37032518733e-07
8.57519346042e-07
6.8907386746e-07
1.14479122266e-06
9.25312581758e-07
3.33233518281e-07
4.68185827942e-07
9.42314520038e-08
7.77275773603e-07
5.14401858426e-07
4.85017289993e-07
1.16171176596e-06
5.53298277248e-07
6.33247666414e-07
2.00290231443e-07
1.12487548198e-07
1.13451306504e-05
1.5030898748e-05
3.29371677952e-07
2.85244692344e-07
9.90133474881e-08
1.73783586119e-07
1.17646858975e-07
4.10132399499e-07
2.16672764188e-07
2.76097414869e-07
5.29548874999e-07
1.35247023221e-07
1.04590825875e-06
1.07131007647e-06
1.57286470421e-06
2.53207807413e-07
2.63469400494e-07
1.03232328183e-06
9.32596194487e-07
4.54203142263e-07
1.4115684726e-06
1.29725797809e-06
6.70839652345e-07
8.0758082997e-07
5.59433342158e-07
7.57819943902e-07
8.62669957953e-07
9.48382646912e-07
1.00724976593e-06
1.15586428396e-06
1.01207348856e-06
7.73586748851e-07
8.81816498355e-07
3.06887023501e-07
6.76602057163e-08
7.20446258272e-07
5.3317161785e-07
4.06224306533e-07
3.11127323595e-07
8.81762342373e-07
1.0900747594e-06
3.34539439991e-08
4.21844226652e-07
9.01197277946e-07
1.54950138646e-07
1.69586024767e-07
1.47819549106e-07
5.04578895726e-08
1.66616343998e-07
4.78919672369e-07
6.29083067804e-07
4.87527955879e-07
8.35231832883e-07
1.02774978424e-07
1.90755653858e-07
1.24023991621e-07
1.25436061637e-07
1.99109453161e-06
1.01803770159e-07
1.14806229244e-07
3.6157554425e-07
2.16499665595e-06
2.36143227604e-07
1.79143134049e-07
2.04063516023e-06
1.18265622201e-07
1.52238322034e-07
9.35987474576e-08
1.24338067962e-07
9.5172836326e-08
2.2369928106e-07
1.10010865405e-07
2.9139338194e-08
3.73322560521e-06
4.80600885125e-08
2.7737189221e-06
2.18547869483e-06
3.20476052777e-08
3.9196442077e-06
6.10140487739e-06
7.07191323852e-08
7.92115240567e-08
1.60920568461e-06
2.29324878348e-07
3.63773502258e-07
6.08147085896e-07
1.43041758538e-06
1.73092166719e-07
1.25524966295e-07
3.89496422578e-06
3.6500238521e-07
1.44642803748e-06
4.57956153713e-07
5.01184072341e-07
8.16133678961e-07
1.70965703378e-06
2.0068415988e-06
9.9394481822e-07
1.46442986148e-06
7.94806429118e-07
1.68362458049e-08
1.60508297856e-06
1.39026054383e-06
6.15783933966e-07
6.15401222267e-07
5.19599267328e-08
7.89504780715e-08
6.96183436273e-07
9.61758619214e-07
1.34948086898e-07
1.56645566392e-06
2.72627928226e-06
1.14386238926e-06
4.8892521118e-06
1.52898163987e-06
1.10517005491e-06
1.69214971722e-06
1.67252576979e-06
1.37650620956e-06
8.05869865301e-07
1.88290207919e-06
2.10456907854e-06
5.27371749137e-06
3.05592908722e-06
3.98962927645e-07
1.78145639481e-07
2.16525798956e-06
1.21537710662e-06
1.04105873845e-06
2.13015727923e-07
8.46922035028e-08
2.47078000387e-07
3.38750686671e-06
2.86839064103e-06
2.30576535433e-07
1.52287447612e-06
1.43092885544e-06
2.40521974809e-06
3.02043243269e-07
5.69888130018e-07
5.25817139282e-06
6.40137573324e-06
1.02003645218e-05
8.38558416514e-06
4.46365099837e-06
3.35604584221e-06
3.4463873175e-06
8.51439972565e-07
7.79793304341e-07
1.19535298632e-06
1.9227309396e-06
2.81719193213e-07
1.07326504128e-06
4.64675048888e-06
4.19178420426e-06
5.19699002568e-06
7.29969374279e-06
5.26315255576e-06
4.38254269845e-06
2.91906852787e-06
3.06726136054e-06
3.39124272454e-06
3.4001671242e-06
3.94459149807e-06
3.84123294312e-06
4.91549658753e-06
6.44376118955e-06
2.88441435631e-07
1.51016265903e-05
2.02539439787e-06
4.59228465443e-06
5.93922019673e-06
9.96022389109e-07
8.98725849287e-07
1.13964489764e-06
1.23050961163e-06
1.85409667783e-06
1.25507693398e-06
2.5076424349e-06
2.31022734398e-06
1.69619144631e-06
1.00719591881e-06
1.27247371452e-06
2.06307511477e-08
1.14017543248e-07
5.70232511024e-08
9.68542886213e-08
1.0194847872e-07
1.18823691633e-07
2.16403216857e-06
3.90912400589e-06
3.84075137703e-07
3.24303557646e-07
2.17289539899e-08
6.27082288656e-08
1.24650005476e-06
1.65802739091e-06
3.08603390516e-07
2.07459939067e-08
4.19876717676e-07
2.92335697164e-07
3.22952094876e-07
3.87507555349e-07
4.32462199031e-07
3.4569368484e-07
1.80429108154e-07
3.70981159612e-07
2.53630853399e-07
4.11323691749e-07
5.76592619504e-07
8.03234883905e-08
3.41965519498e-06
1.41917528989e-07
5.90508150581e-07
4.36064408055e-08
1.14634016262e-06
2.6237143327e-07
3.65133314872e-07
9.74064872973e-07
8.79963667784e-08
1.91766464739e-07
1.47893591004e-08
1.86904504343e-07
1.0637831228e-06
5.66749385837e-07
5.82233882261e-07
6.86748592588e-07
6.14078860451e-07
7.65955585331e-07
8.62501133128e-07
1.22787214281e-06
9.35076818404e-07
1.06771932222e-06
1.83898857961e-07