# vtk DataFile Version 3.0
File Name: Molecule/sphere_excent/sphere_excent_0-s13.vtk
ASCII
DATASET UNSTRUCTURED_GRID
FIELD FieldData 1
TIME 1 1 double
0.0
POINTS 123 double
0.0021049624775 0.8493989706 0.52746015787
-0.49738746881 0.77055907249 0.39616078138
-0.33388456702 0.55014228821 0.76498806477
-0.31904196739 -0.56852263212 0.75789189339
0.0031275392976 -0.8495067358 0.52697068453
0.047551322728 -0.43453371525 0.89865845442
0.52987998724 -0.011584986933 0.84743642807
0.34595012665 -0.51514387131 0.7837613821
0.80674469471 -0.31062409282 0.50262314081
0.50020611286 -0.80919510126 0.30789068341
0.85053437948 -0.52609270811 0.004385122098
0.99593377113 -0.061979159713 0.062184218317
0.76624947786 0.30057415366 0.56532877684
0.51779955626 0.74456763268 0.41895890236
0.36496689916 0.52141404152 0.76911848783
-0.83692866564 -0.32036501169 -0.44313704967
-0.84837561846 -0.52931988239 0.003067842219
-0.99647581577 -0.063327118754 0.037698484957
-0.50044775009 -0.80844938755 -0.3095882833
-0.49911776185 -0.81128978729 0.30438920856
-0.00011615077528 -0.99994665384 0.0020649677608
-0.0049234908074 -0.87393856049 -0.48549455404
-0.80578833818 -0.31622642279 0.50064045191
-0.58421951532 -0.0028360809665 0.81100863218
-0.82564049959 0.25604900718 0.49980396032
0.49668565392 -0.81228870153 -0.30610191822
0.80791771412 -0.39193481207 -0.43950936198
0.0014803165104 0.99988913536 0.0012972822879
-0.27707287669 0.94464659691 0.17551319301
-0.27481803298 0.9456987977 -0.17334589362
-0.53295707703 0.84601593018 -0.0008864395204
-0.47713324428 0.78122669458 -0.40047198534
0.0042387107387 0.85612398386 -0.51266849041
0.27495157719 0.94861769676 -0.15662714839
0.27988296747 0.9428575635 0.17969168723
0.48966926336 0.87149387598 0.016909759492
0.4859290719 0.80349647999 -0.34171906114
0.59224915504 0.48049765825 -0.64642184973
0.40929314494 0.67847824097 -0.60961705446
0.65856194496 0.60860300064 -0.4409519434
0.95348221064 -0.17720507085 -0.24394464493
0.86953568459 -0.071383088827 -0.48868262768
0.96143752337 0.11541043967 -0.24820518494
0.54008811712 0.010725790635 -0.84149426222
0.43064877391 -0.2603777647 -0.86413252354
0.26977846026 0.009723492898 -0.96281951666
0.12013791502 -0.27337968349 -0.95409107208
0.2782959938 -0.55915760994 -0.78064417839
-0.05405049026 0.045628201216 -0.99716979265
0.68359470367 -0.20691753924 -0.6999143362
0.57628566027 -0.4610491395 -0.67457199097
0.19193969667 0.47318720818 -0.85768330097
0.71975392103 0.33343413472 -0.60882753134
0.7653042078 0.46113815904 -0.44874352217
0.43971946836 0.4503068924 -0.77709102631
0.4219045341 0.24204710126 -0.87368202209
0.57660257816 0.27564841509 -0.76907074451
0.70055967569 0.16849581897 -0.69341164827
0.83403891325 0.14929941297 -0.53101426363
0.82725280523 0.32413610816 -0.45885413885
0.73592925072 0.00023999798577 -0.67694109678
-0.45992138982 0.26537042856 0.84666270018
-0.67582768202 0.54958027601 0.48945790529
0.0043011084199 0.52843344212 0.84884852171
-0.16081511974 0.28748589754 0.9425329566
-0.29888382554 -0.015130500309 0.95317029953
-0.44358366728 -0.25979816914 0.85748916864
-0.18746249378 -0.28605347872 0.93917000294
0.94195437431 0.14932884276 0.30012816191
0.96409058571 0.26189509034 0.047342326492
0.85898441076 0.43604329228 0.26803562045
0.84867358208 0.52871084213 -0.018351629376
-0.94928735495 0.11803143471 -0.28795930743
-0.71008867025 -0.12177829444 -0.69287663698
-0.78186458349 0.26675418019 -0.56207996607
-0.86560600996 0.42760950327 -0.26022398472
-0.9598596096 0.28021913767 0.0036984151229
-0.84208202362 0.53888773918 0.015038699843
-0.67538189888 0.55749589205 -0.48015287519
-0.45848539472 0.27814239264 -0.84258896112
-0.32385566831 0.51772403717 -0.78926980495
-0.71129947901 0.67471385002 -0.19660487771
-0.70433557034 0.6794937253 0.20444203913
-0.53448069096 0.045735530555 -0.8427491188
-0.42694297433 -0.27506506443 -0.86077803373
-0.59134626389 -0.43237122893 -0.68060737848
-0.2943996191 -0.52177256346 -0.7999509573
0.53555339575 0.83065950871 -0.15206222236
0.6868750453 0.70152783394 -0.18938989937
0.68254184723 0.73098236322 0.0018775388598
0.71916753054 0.67087984085 0.18046201766
0.54753810167 0.81553304195 0.18716934323
-0.84662735462 0.45954918861 0.26876011491
0.19586363435 -0.2544824779 0.94667965174
0.86307835579 0.42852115631 -0.26752701402
0.78390628099 0.56577509642 -0.25533074141
0.90140080452 0.2639875114 -0.34352201223
0.92881071568 0.33932593465 -0.14871703088
-0.1224938035 -0.0031584361568 0.99226266146
0.053761713207 -0.0051268413663 0.99823713303
-0.045547358692 -0.16377869248 0.98539435863
0.12902736664 -0.73591011763 -0.66475391388
0.0070169023238 -0.58466398716 -0.80928391218
-0.14399546385 -0.72169190645 -0.67702353001
-0.20087939501 0.28575569391 -0.93681567907
-0.31105849147 0.056560643017 -0.94821488857
-0.10165646672 -0.40179631114 -0.90817022324
-0.23755519092 -0.1304589957 -0.96166080236
-0.46456295252 -0.10009985417 -0.87985593081
0.46522954106 0.26760095358 0.84354966879
-0.1620362252 0.70822650194 -0.68698555231
-0.063656382263 0.52321892977 -0.84993553162
0.099205091596 0.69058609009 -0.71648907661
0.0079381978139 0.27504187822 0.96134805679
0.17049269378 0.2738648653 0.94636869431
-0.054898705333 0.13850218058 0.98883455992
0.11785893887 0.13447447121 0.98369842768
0.27358901501 0.39230537415 0.87815952301
-0.22116170824 0.13614980876 0.96565741301
0.35123002529 0.14576420188 0.92467463017
0.28675198555 -0.0013262917055 0.95781588554
-0.14137099683 -0.55296623707 -0.82109087706
0.057623203844 -0.43915981054 -0.89639139175

CELLS 242 968
3 0 1 2
3 3 4 5
3 6 7 8
3 7 9 8
3 7 4 9
3 8 9 10
3 10 11 8
3 8 12 6
3 13 14 12
3 13 0 14
3 15 16 17
3 16 18 19
3 18 20 19
3 18 21 20
3 19 20 4
3 16 19 22
3 19 3 22
3 19 4 3
3 23 24 22
3 24 17 22
3 22 17 16
3 15 18 16
3 21 25 20
3 25 9 20
3 25 10 9
3 20 9 4
3 26 10 25
3 27 28 0
3 0 28 1
3 27 29 28
3 29 30 28
3 29 31 30
3 28 30 1
3 31 29 32
3 32 29 27
3 33 34 35
3 33 27 34
3 27 33 32
3 32 33 36
3 13 34 0
3 34 27 0
3 37 38 39
3 39 38 36
3 36 38 32
3 26 40 10
3 10 40 11
3 26 41 40
3 41 42 40
3 40 42 11
3 43 44 45
3 44 46 45
3 44 47 46
3 45 46 48
3 43 49 44
3 49 50 44
3 49 26 50
3 44 50 47
3 47 50 25
3 25 50 26
3 45 48 51
3 26 49 41
3 52 37 53
3 37 54 38
3 54 51 38
3 51 54 55
3 54 56 55
3 54 37 56
3 55 56 43
3 43 56 57
3 56 52 57
3 56 37 52
3 57 52 58
3 41 58 42
3 59 58 52
3 58 60 57
3 58 41 60
3 57 60 43
3 51 55 45
3 45 55 43
3 43 60 49
3 49 60 41
3 23 61 24
3 24 61 62
3 2 63 0
3 0 63 14
3 2 64 63
3 2 61 64
3 61 23 65
3 23 66 65
3 66 67 65
3 66 3 67
3 3 66 22
3 22 66 23
3 11 68 8
3 68 12 8
3 11 69 68
3 69 70 68
3 69 71 70
3 68 70 12
3 12 70 13
3 17 72 15
3 15 72 73
3 74 72 75
3 72 76 75
3 72 17 76
3 75 76 77
3 74 78 79
3 80 78 31
3 31 78 81
3 78 75 81
3 78 74 75
3 81 75 77
3 24 76 17
3 31 81 30
3 30 81 82
3 42 69 11
3 83 73 74
3 74 73 72
3 84 85 73
3 84 86 85
3 73 85 15
3 15 85 18
3 18 85 86
3 36 87 88
3 87 89 88
3 87 35 89
3 88 89 71
3 71 89 90
3 89 91 90
3 89 35 91
3 90 91 13
3 35 87 33
3 33 87 36
3 13 91 34
3 34 91 35
3 36 88 39
3 71 90 70
3 70 90 13
3 1 62 2
3 2 62 61
3 1 82 62
3 82 92 62
3 82 77 92
3 62 92 24
3 93 7 6
3 77 82 81
3 30 82 1
3 59 53 94
3 53 95 94
3 53 39 95
3 94 95 71
3 42 96 97
3 96 94 97
3 96 59 94
3 97 94 71
3 39 53 37
3 52 53 59
3 59 96 58
3 58 96 42
3 65 67 98
3 99 100 93
3 100 5 93
3 100 67 5
3 93 5 7
3 7 5 4
3 5 67 3
3 24 92 76
3 76 92 77
3 42 97 69
3 69 97 71
3 71 95 88
3 88 95 39
3 47 101 102
3 101 103 102
3 101 21 103
3 80 79 78
3 79 83 74
3 86 103 18
3 103 21 18
3 21 101 25
3 25 101 47
3 48 104 51
3 48 105 104
3 105 79 104
3 105 83 79
3 104 79 80
3 86 84 106
3 46 107 48
3 48 107 105
3 107 108 105
3 107 84 108
3 105 108 83
3 83 108 73
3 108 84 73
3 14 109 12
3 12 109 6
3 32 110 31
3 110 80 31
3 51 111 112
3 111 110 112
3 111 80 110
3 112 110 32
3 51 112 38
3 38 112 32
3 64 113 63
3 113 114 63
3 64 115 113
3 115 116 113
3 115 99 116
3 113 116 114
3 114 117 63
3 63 117 14
3 65 118 61
3 61 118 64
3 64 118 115
3 118 98 115
3 118 65 98
3 115 98 99
3 14 117 109
3 117 119 109
3 117 114 119
3 109 119 6
3 114 116 119
3 116 120 119
3 116 99 120
3 119 120 6
3 46 106 107
3 107 106 84
3 6 120 93
3 93 120 99
3 99 98 100
3 100 98 67
3 86 121 103
3 103 121 102
3 80 111 104
3 104 111 51
3 102 122 47
3 47 122 46
3 46 122 106
3 121 106 102
3 122 102 106
3 106 121 86

CELL_TYPES 242
5
5
5
5
5
5
5
5
5
5
5
5
5
5
5
5
5
5
5
5
5
5
5
5
5
5
5
5
5
5
5
5
5
5
5
5
5
5
5
5
5
5
5
5
5
5
5
5
5
5
5
5
5
5
5
5
5
5
5
5
5
5
5
5
5
5
5
5
5
5
5
5
5
5
5
5
5
5
5
5
5
5
5
5
5
5
5
5
5
5
5
5
5
5
5
5
5
5
5
5
5
5
5
5
5
5
5
5
5
5
5
5
5
5
5
5
5
5
5
5
5
5
5
5
5
5
5
5
5
5
5
5
5
5
5
5
5
5
5
5
5
5
5
5
5
5
5
5
5
5
5
5
5
5
5
5
5
5
5
5
5
5
5
5
5
5
5
5
5
5
5
5
5
5
5
5
5
5
5
5
5
5
5
5
5
5
5
5
5
5
5
5
5
5
5
5
5
5
5
5
5
5
5
5
5
5
5
5
5
5
5
5
5
5
5
5
5
5
5
5
5
5
5
5
5
5
5
5
5
5
5
5
5
5
5
5
5
5
5
5
5
5

CELL_DATA 242
SCALARS cell_data_0 double
LOOKUP_TABLE default
3.28180645418e-05
2.32337652731e-08
7.05413492854e-05
4.50272367901e-05
3.92717251477e-05
1.51427198079e-05
2.05371150022e-06
5.25614916236e-05
2.63391471468e-05
1.22392316899e-05
1.51214596757e-06
9.93688888726e-06
1.45047835257e-05
4.7774401499e-05
1.52764797437e-05
1.94915175035e-05
3.96964494211e-05
3.45532847739e-05
3.92197977223e-06
1.7756271465e-05
1.10727548665e-05
3.05044537797e-07
4.98165157849e-05
9.91545343433e-06
3.90921610053e-06
7.89880760249e-06
2.27984353935e-05
6.64073108824e-06
8.3332510883e-06
3.18136239959e-06
3.61024720925e-06
1.82038754668e-06
4.5951661226e-06
3.62545027504e-05
2.6852396357e-05
3.12959669478e-06
3.56878713979e-06
2.56857095709e-05
2.73762047177e-05
1.39507959342e-05
7.99911752204e-06
5.1341714276e-07
6.40910865086e-07
3.14649989924e-05
1.22948186579e-05
3.50813787543e-06
6.58931117885e-06
1.14955178339e-06
1.55565407324e-06
2.49473190625e-05
2.77106030272e-07
1.52751683766e-06
2.45545357382e-06
2.37397014888e-05
2.21924288839e-07
9.30960872492e-06
1.50766534105e-06
1.60022912099e-06
1.63298063519e-05
7.4373741972e-06
9.1037623326e-06
2.98578674765e-05
3.6565591267e-09
1.55970782712e-06
2.76026188519e-05
2.25094057809e-05
2.97654865435e-06
6.02497515297e-05
5.83848771797e-05
1.88417609955e-05
3.03738002516e-06
5.64851448682e-05
4.3627640068e-05
4.49787566365e-05
0.000117134164381
9.67997369174e-05
0.000111306743778
4.24678050869e-05
6.72858382122e-05
7.96876755066e-05
3.8852067785e-05
2.77289081494e-05
4.18350212918e-06
2.05940209251e-05
2.86074847449e-05
4.46965632378e-05
4.31684155992e-05
3.08554968765e-05
4.03261458091e-05
2.83956724675e-05
2.51300408063e-05
3.78136214462e-05
3.2779534391e-05
8.51266620891e-06
2.03802850671e-05
1.77952328991e-06
4.07520708395e-06
6.11139401266e-07
7.59743641362e-06
1.59337134742e-05
2.9073615637e-06
9.12864243194e-06
5.65317143216e-06
5.30942742697e-07
4.11195686482e-07
1.62367915425e-06
2.8294162522e-06
2.56228072123e-06
1.55167895025e-07
5.86355721005e-07
3.11426757063e-06
1.70165249759e-06
1.61634334341e-06
1.56000144815e-06
2.87454295508e-06
8.76713601973e-07
7.49338394867e-05
1.24571522036e-05
4.24110539287e-06
1.49166686076e-06
4.20618186271e-06
7.07877767232e-07
5.11208830372e-07
7.77415203277e-07
1.10590324153e-06
1.43126514701e-06
1.06913339835e-06
8.15080358331e-07
1.68049944768e-06
1.79455055895e-06
2.73267609882e-06
1.60219150567e-06
1.27859299017e-06
4.28381569004e-06
2.43060077975e-06
1.03417658928e-06
8.7532393372e-07
5.47657467845e-06
1.69878415631e-05
3.19129664418e-05
3.66899620247e-06
3.41678112433e-06
1.11108772999e-06
3.26381057068e-06
6.07742081364e-05
6.59921479925e-07
2.68486186507e-06
4.06230338999e-05
2.27134768526e-05
2.53171741978e-05
2.57211342697e-06
1.66750569737e-07
8.41783393595e-09
7.38064138647e-06
2.595405517e-06
2.94924744246e-05
3.70081920273e-05
3.6874391383e-05
2.83007265021e-05
3.92964898425e-05
4.55578363615e-05
2.00177013561e-05
2.26758637491e-05
3.47618670591e-05
7.86419753521e-06
5.17915643043e-05
1.50606538426e-06
1.6231550035e-07
1.01572564597e-06
2.04354730197e-06
2.14896151365e-06
5.93001695508e-07
5.68734385654e-05
4.96261834233e-05
9.82817520863e-05
5.08090600614e-07
5.53126483657e-05
3.78604955159e-07
3.08334400139e-05
0.000201233923166
0.000127085183346
6.07052638346e-06
1.31929409958e-06
9.79301613222e-08
2.61741275868e-05
7.36865626948e-07
6.02221116953e-05
2.21653081205e-06
1.06563954817e-06
7.6039889931e-09
5.16055045292e-07
1.64669690046e-05
2.60610543953e-05
2.69645690625e-06
3.28442543607e-05
3.00776557162e-05
0.000102357026729
4.60461647851e-05
1.30893708993e-06
1.93587045653e-05
2.19826303147e-05
4.96315891739e-05
1.50931653967e-06
2.07659265315e-05
3.03538971683e-05
2.96455301371e-05
2.01165453399e-05
2.19115471535e-05
2.08986562105e-05
1.9322122806e-05
8.7560309207e-06
3.81814206521e-05
2.47794277149e-05
2.1291168532e-05
1.55018613334e-05
9.3341008594e-06
1.94295040197e-05
2.32298988022e-05
5.68805968238e-06
6.49666204158e-06
9.75251620356e-06
1.99516115374e-05
2.08532176011e-05
4.77504819829e-06
2.71092480424e-05
8.44526415505e-06
6.02692343576e-05
6.25068644219e-05
4.36145922101e-05
5.08277887282e-05
2.48523061289e-05
2.87211301801e-05
1.94421061347e-07
4.82113408045e-10
7.21849820613e-07
1.60848914587e-06
6.35272587567e-07
6.97200500684e-07
2.2851823148e-05
2.02910009301e-05
2.16735965166e-05
2.17305784457e-05

