# vtk DataFile Version 3.0
File Name: Molecule/sphere_excent/sphere_excent_0-s5.vtk
ASCII
DATASET UNSTRUCTURED_GRID
FIELD FieldData 1
TIME 1 1 double
0.0
POINTS 176 double
0.31953284144 -0.52194035053 0.78810226917
0.50077486038 -0.8012560606 0.32171466947
0.80904531479 -0.30898100138 0.49983713031
0.79369348288 0.30099111795 0.51998114586
0.54847258329 0.0023564719595 0.83409667015
0.32069414854 0.71582841873 0.6182923317
0.30759751797 0.49876275659 0.81033176184
0.69087421894 0.57269489765 0.43762329221
-0.82603210211 0.30167341232 -0.47206348181
-0.99715662003 0.055643834174 0.0049965647049
-0.87003082037 0.48771169782 -0.039940044284
-0.55115431547 0.014870990999 0.83261859417
-0.82621091604 0.24142871797 0.50663936138
-0.78860521317 -0.28256359696 0.54296725988
0.28715673089 0.94258445501 -0.15616944432
0.27124798298 0.95009887218 0.15362371504
0.51254951954 0.85743755102 0.0020787187386
0.52708423138 0.77864563465 0.3395178318
0.2705103755 0.86931496859 0.41130521894
0.00084771460388 0.95969945192 0.28094699979
-0.0003151523415 0.99909025431 0.0050586201251
-0.0087396129966 0.85721433163 0.51449579
-0.25145474076 0.86333662271 0.43732619286
-0.26675286889 0.9512603879 0.15489092469
-0.50033503771 0.80883735418 0.30894035101
-0.2822599709 0.94364953041 -0.16556687653
-0.51847112179 0.85503846407 -0.0025601023808
-0.4955843091 0.80052769184 -0.33677470684
-0.71138310432 0.68608146906 0.15219260752
-0.69864100218 0.69872516394 -0.15325531363
-0.43196925521 0.6819832325 0.59012830257
-0.18047186732 0.71199369431 0.67753583193
-0.6856957674 0.58432269096 0.43380013108
-0.58835351467 0.42070046067 0.69041222334
-0.30754962564 0.45981538296 0.83281129599
-0.86492949724 0.43416032195 0.25123676658
-0.68343043327 0.5835069418 -0.43854743242
0.87117987871 -0.41824042797 -0.25367993116
0.9521574378 -0.15376444161 -0.26364177465
0.96005898714 -0.27943059802 0.00087369483663
0.81927156448 -0.30299171805 -0.48649761081
0.99917018414 0.016377821565 0.028850924224
0.8545050025 -0.00032849924173 -0.51932364702
0.94996035099 0.16827370226 -0.25968328118
0.81011390686 0.31298536062 -0.49574238062
0.68968051672 -0.17512644827 -0.70235347748
0.68870925903 0.1539003849 -0.70839715004
0.49251529574 -0.029007378966 -0.86774742603
0.79888647795 0.55036348104 -0.23323169351
0.95879346132 0.28315293789 0.012695956975
0.5857962966 0.43071275949 -0.6863399148
0.6863297224 0.57253527641 -0.44718271494
0.42146828771 0.68632042408 -0.59136980772
0.25635877252 0.50726062059 -0.82061505318
0.43470773101 0.2535713017 -0.86404842138
0.48864859343 0.81097757816 -0.32033765316
0.16519761086 0.92097109556 -0.34707999229
0.02905661054 0.8488766551 -0.52426797152
0.84588295221 -0.52800774574 0.038523420691
-0.95081239939 -0.15296682715 -0.26842468977
-0.80354237556 -0.30194759369 -0.51289570332
-0.86321824789 -0.43518647552 -0.25585052371
-0.96141213179 -0.27509608865 -9.6880445199e-05
-0.85067236423 -0.52569502592 5.4728061514e-05
-0.70482289791 -0.69153869152 -0.15800075233
-0.70404028893 -0.69212073088 0.1589820981
-0.51680213213 -0.856074512 0.00041931698797
-0.48666527867 -0.81382423639 -0.317445755
-0.4748455584 -0.81607806683 0.32861700654
-0.86269444227 -0.43510299921 0.25775671005
-0.68273246288 -0.58770167828 0.43364772201
-0.32671675086 -0.52689445019 0.78270483017
-0.9500297308 -0.15528896451 0.26992926002
-0.68299776316 -0.58785235882 -0.43349096179
0.03206834197 0.0099830515683 -0.99787247181
-0.16040420532 0.26770365238 0.94874757528
0.0029680235311 0.48651984334 0.87317216396
0.16765654087 0.27849933505 0.94408130646
-0.41307637095 0.24361108243 0.87731254101
-0.29906767607 -0.00097086466849 0.95229893923
0.4349142015 0.25286525488 0.8643450141
0.30218008161 0.00043470950914 0.95153641701
-0.43680340052 -0.25385761261 0.86300742626
-0.16726259887 -0.27958065271 0.94325846434
-0.00068710418418 -0.52579772472 0.8505910635
0.168202281 -0.28054976463 0.94307845831
0.0013499013148 -0.83746999502 0.54092484713
0.43574276567 -0.25584691763 0.86291605234
0.3165460825 -0.48980364203 -0.81214749813
0.16742229462 -0.26562017202 -0.94892323017
0.51901102066 -0.34141343832 -0.78345268965
0.00048072304344 -0.52068436146 -0.8537851572
-0.15667618811 -0.26527541876 -0.95124435425
-0.30901893973 -0.50003784895 -0.80897623301
0.15701583028 -0.70428878069 -0.69231539965
-0.15633821487 -0.70502310991 -0.69162172079
0.00024219318584 -0.8504447937 -0.52605682611
-0.27554938197 2.5491848646e-05 -0.96130162477
-0.43480023742 -0.25436624885 -0.86381274462
-0.52497404814 0.00061806663871 -0.85111522675
-0.68544226885 -0.15291801095 -0.711807549
-0.69152873755 0.1589448899 -0.70464533567
-0.84038883448 -0.005498050712 -0.54174429178
-0.15633191168 0.70584696531 -0.69079476595
-0.26209503412 0.84815877676 -0.46031421423
-0.42495262623 0.67512029409 -0.60286062956
-0.30518093705 0.49589675665 -0.8128182888
-0.58818346262 0.42789149284 -0.68621712923
-0.43569377065 0.25468084216 -0.86325079203
-0.24608801305 -0.86346244812 -0.44024923444
-0.25621220469 -0.95144474506 -0.16994543374
0.00056762393797 -0.96092295647 -0.27670449018
-0.014438996091 -0.99895459414 0.020578000695
-0.58331006765 -0.42535361648 -0.69194972515
-0.42141589522 -0.6869314909 -0.59202307463
0.24667996168 -0.86585611105 -0.43523320556
0.26683744788 -0.94967973232 -0.16019897163
0.39930835366 -0.70535874367 -0.58288049698
-0.15853327513 0.26409158111 -0.95125889778
0.13681265712 0.85249942541 0.5043631196
-0.057835958898 0.77782815695 0.62567323446
-0.20823791623 0.59485298395 0.77604353428
0.057315096259 0.6301766634 0.77427697182
0.1535269171 0.71410042048 0.6828122735
-0.25187686086 -0.95127123594 0.17684417963
0.25646954775 -0.86282444 0.43536925316
0.70079684258 -0.68972092867 0.17670232058
0.94483047724 0.17028927803 0.27909627557
0.86270195246 0.43441128731 0.25907507539
0.85694956779 0.51364964247 -0.0075350897387
0.72021281719 0.66972541809 0.17925333977
-0.239321962 -0.86451900005 0.44200381637
-0.0020453897305 -0.9580180645 0.28639155626
0.25023707747 -0.95078146458 0.1802033633
0.53091973066 0.83109909296 -0.16249579191
0.6050992012 0.70367765427 -0.3714261353
0.69832670689 0.71494543552 0.0037275908981
0.70090842247 0.69331133366 -0.1676247716
0.5433370471 0.82348978519 0.16366492212
0.13478021324 0.98658430576 -0.091714300215
0.0076223043725 0.96372765303 -0.26630941033
-0.13301239908 0.98663163185 -0.093439996243
-0.13237801194 0.92885714769 -0.34584951401
0.8641295433 -0.49077728391 -0.11078771204
0.38035595417 -0.89018177986 -0.24902586639
0.48191508651 -0.81200957298 -0.32763919234
0.49756702781 -0.85489499569 -0.14515429735
0.5971263051 -0.76353311539 -0.2453584969
0.69056499004 -0.70713627338 -0.14903379977
0.77424865961 -0.62985593081 -0.051449302584
0.61329394579 -0.78581887484 0.072257235646
0.52869552374 -0.54051792622 -0.65379011631
0.69835096598 -0.39726617932 -0.59500050545
0.67841500044 -0.57593518496 -0.45475873351
0.78303074837 -0.50546842813 -0.36117345095
0.79062223434 -0.57615023851 -0.20722442865
0.6987170577 -0.64735877514 -0.30443900824
0.5901657939 -0.70714920759 -0.3892942369
0.0049808351323 0.26121008396 0.96521812677
-0.073897249997 0.12784992158 0.98902875185
0.080174319446 0.1334541738 0.98780602217
0.00083267420996 -0.0020050338935 0.99999451637
-0.2167108506 0.12670432031 0.96793574095
-0.14222767949 -0.001929999562 0.9897775054
0.22275878489 0.13392685354 0.96558117867
0.14383783937 -0.00075530237518 0.98952329159
-0.22223141789 -0.13577994704 0.96543216705
-0.078823491931 -0.13671003282 0.98745399714
0.0002757422626 -0.27110433578 0.96248865128
0.079462654889 -0.13677050173 0.98739367723
0.22271481156 -0.1353328824 0.96537417173
0.13701690733 -0.98820793629 -0.060804829001
0.40230920911 -0.91213881969 0.070550352335
0.37436619401 -0.6046513319 -0.7027130723
0.45588600636 -0.76277911663 -0.45879650116
0.55057871342 -0.65195870399 -0.52106571198

CELLS 348 1392
3 0 1 2
3 2 3 4
3 5 6 7
3 8 9 10
3 11 12 13
3 14 15 16
3 17 15 18
3 15 19 18
3 15 20 19
3 21 19 22
3 19 23 22
3 19 20 23
3 22 23 24
3 25 26 23
3 25 27 26
3 23 26 24
3 24 26 28
3 26 29 28
3 26 27 29
3 28 29 10
3 22 30 31
3 22 24 30
3 24 32 30
3 32 33 30
3 32 12 33
3 30 33 34
3 24 28 32
3 28 35 32
3 28 10 35
3 32 35 12
3 33 12 11
3 8 10 36
3 12 35 9
3 35 10 9
3 37 38 39
3 37 40 38
3 39 38 41
3 40 42 38
3 42 43 38
3 42 44 43
3 38 43 41
3 40 45 42
3 45 46 42
3 45 47 46
3 42 46 44
3 43 48 49
3 44 50 51
3 50 52 51
3 50 53 52
3 44 46 50
3 46 54 50
3 46 47 54
3 50 54 53
3 55 52 56
3 52 53 57
3 58 39 2
3 39 41 2
3 59 9 8
3 60 61 59
3 61 62 59
3 61 63 62
3 59 62 9
3 63 64 65
3 64 66 65
3 64 67 66
3 65 66 68
3 63 65 69
3 65 70 69
3 65 68 70
3 69 70 13
3 13 70 71
3 71 70 68
3 9 72 12
3 12 72 13
3 13 72 69
3 72 62 69
3 72 9 62
3 69 62 63
3 60 73 61
3 73 64 61
3 73 67 64
3 61 64 63
3 53 54 74
3 74 54 47
3 34 75 76
3 76 77 6
3 34 78 75
3 78 11 79
3 6 77 80
3 80 81 4
3 11 82 79
3 82 71 83
3 71 84 83
3 84 0 85
3 0 84 86
3 86 84 71
3 85 0 87
3 81 87 4
3 4 87 2
3 87 0 2
3 88 89 90
3 47 89 74
3 88 91 89
3 91 92 89
3 91 93 92
3 89 92 74
3 88 94 91
3 94 95 91
3 94 96 95
3 91 95 93
3 74 92 97
3 92 98 97
3 92 93 98
3 97 98 99
3 6 80 3
3 3 80 4
3 99 100 101
3 100 102 101
3 100 60 102
3 101 102 8
3 57 103 104
3 103 105 104
3 103 106 105
3 104 105 27
3 106 107 105
3 107 36 105
3 107 8 36
3 105 36 27
3 106 108 107
3 108 101 107
3 108 99 101
3 107 101 8
3 67 109 110
3 109 111 110
3 109 96 111
3 110 111 112
3 71 82 13
3 13 82 11
3 99 98 100
3 98 113 100
3 98 93 113
3 100 113 60
3 93 95 114
3 95 109 114
3 95 96 109
3 114 109 67
3 96 115 111
3 115 116 111
3 117 115 94
3 94 115 96
3 74 118 53
3 118 106 53
3 74 97 118
3 97 108 118
3 97 99 108
3 118 108 106
3 106 103 53
3 53 103 57
3 21 119 19
3 19 119 18
3 25 104 27
3 31 120 22
3 22 120 21
3 34 121 30
3 30 121 31
3 11 78 33
3 33 78 34
3 21 120 119
3 120 122 123
3 120 31 122
3 123 122 6
3 31 121 122
3 121 76 122
3 121 34 76
3 122 76 6
3 18 5 17
3 18 119 5
3 119 123 5
3 123 119 120
3 5 123 6
3 27 36 29
3 29 36 10
3 8 102 59
3 59 102 60
3 67 110 66
3 66 110 124
3 93 114 113
3 73 114 67
3 60 113 73
3 73 113 114
3 86 125 0
3 0 125 1
3 1 126 2
3 2 126 58
3 41 127 2
3 127 3 2
3 41 49 127
3 49 128 127
3 49 129 128
3 127 128 3
3 129 130 128
3 130 7 128
3 130 17 7
3 128 7 3
3 68 124 131
3 124 132 131
3 124 112 132
3 131 132 86
3 68 131 71
3 131 86 71
3 112 133 132
3 133 125 132
3 133 1 125
3 132 125 86
3 55 134 135
3 134 136 137
3 134 16 136
3 137 136 129
3 129 136 130
3 136 138 130
3 136 16 138
3 130 138 17
3 16 134 14
3 14 134 55
3 14 139 15
3 139 20 15
3 17 138 15
3 15 138 16
3 20 139 140
3 139 56 140
3 139 14 56
3 140 56 57
3 57 56 52
3 56 14 55
3 20 141 23
3 141 25 23
3 57 142 140
3 142 141 140
3 142 25 141
3 140 141 20
3 58 143 39
3 143 37 39
3 129 49 48
3 43 49 41
3 51 48 44
3 44 48 43
3 129 48 137
3 48 135 137
3 48 51 135
3 137 135 134
3 55 135 52
3 52 135 51
3 112 124 110
3 66 124 68
3 144 145 146
3 147 146 145
3 147 148 146
3 144 146 116
3 148 149 150
3 149 126 150
3 149 58 126
3 150 126 1
3 45 90 47
3 47 90 89
3 88 90 151
3 90 152 151
3 90 45 152
3 151 152 153
3 153 152 154
3 40 152 45
3 37 154 40
3 40 154 152
3 37 155 154
3 155 156 154
3 155 148 156
3 154 156 153
3 37 143 155
3 143 149 155
3 143 58 149
3 155 149 148
3 153 156 157
3 156 147 157
3 156 148 147
3 157 147 145
3 75 158 76
3 158 77 76
3 75 159 158
3 159 160 158
3 159 161 160
3 158 160 77
3 79 162 78
3 78 162 75
3 75 162 159
3 162 163 159
3 162 79 163
3 159 163 161
3 77 164 80
3 164 81 80
3 77 160 164
3 160 165 164
3 160 161 165
3 164 165 81
3 83 166 82
3 82 166 79
3 79 166 163
3 166 167 163
3 166 83 167
3 163 167 161
3 85 168 84
3 84 168 83
3 83 168 167
3 168 169 167
3 168 85 169
3 167 169 161
3 161 169 165
3 169 170 165
3 169 85 170
3 165 170 81
3 81 170 87
3 87 170 85
3 145 144 115
3 115 144 116
3 116 171 111
3 111 171 112
3 112 171 133
3 171 172 133
3 171 116 172
3 133 172 1
3 1 172 150
3 172 146 150
3 172 116 146
3 150 146 148
3 88 173 94
3 173 117 94
3 117 174 115
3 174 145 115
3 25 142 104
3 104 142 57
3 3 7 6
3 5 7 17
3 145 174 157
3 174 175 157
3 174 117 175
3 157 175 153
3 153 175 151
3 173 151 117
3 175 117 151
3 151 173 88

CELL_TYPES 348
5
5
5
5
5
5
5
5
5
5
5
5
5
5
5
5
5
5
5
5
5
5
5
5
5
5
5
5
5
5
5
5
5
5
5
5
5
5
5
5
5
5
5
5
5
5
5
5
5
5
5
5
5
5
5
5
5
5
5
5
5
5
5
5
5
5
5
5
5
5
5
5
5
5
5
5
5
5
5
5
5
5
5
5
5
5
5
5
5
5
5
5
5
5
5
5
5
5
5
5
5
5
5
5
5
5
5
5
5
5
5
5
5
5
5
5
5
5
5
5
5
5
5
5
5
5
5
5
5
5
5
5
5
5
5
5
5
5
5
5
5
5
5
5
5
5
5
5
5
5
5
5
5
5
5
5
5
5
5
5
5
5
5
5
5
5
5
5
5
5
5
5
5
5
5
5
5
5
5
5
5
5
5
5
5
5
5
5
5
5
5
5
5
5
5
5
5
5
5
5
5
5
5
5
5
5
5
5
5
5
5
5
5
5
5
5
5
5
5
5
5
5
5
5
5
5
5
5
5
5
5
5
5
5
5
5
5
5
5
5
5
5
5
5
5
5
5
5
5
5
5
5
5
5
5
5
5
5
5
5
5
5
5
5
5
5
5
5
5
5
5
5
5
5
5
5
5
5
5
5
5
5
5
5
5
5
5
5
5
5
5
5
5
5
5
5
5
5
5
5
5
5
5
5
5
5
5
5
5
5
5
5
5
5
5
5
5
5
5
5
5
5
5
5
5
5
5
5
5
5
5
5
5
5
5
5
5
5
5
5
5
5
5
5
5
5
5
5

CELL_DATA 348
SCALARS cell_data_0 double
LOOKUP_TABLE default
5.02535625449e-05
3.27918558617e-05
2.10709655093e-05
7.72060820406e-05
4.19041240161e-05
2.63205526873e-06
4.84780430467e-06
4.99081046576e-06
2.33573097913e-06
5.63865339724e-06
5.63817452189e-06
1.88289347654e-06
5.12780485987e-06
2.12950014315e-06
1.29045506192e-08
3.11455674282e-06
3.08568825798e-06
2.77810932158e-06
1.18299764775e-06
2.13316948691e-06
7.84438028231e-06
7.93261291396e-06
8.80271116066e-06
1.10676141401e-05
1.39576309744e-05
2.05928039398e-05
4.97130344198e-06
5.42475532967e-06
3.47754400201e-06
7.72897258095e-06
3.30997700172e-05
4.38349972839e-05
4.85771190179e-06
2.08394098847e-06
3.36670124686e-07
6.32467277483e-06
4.32308067581e-06
7.10170995644e-06
7.88703827368e-07
2.29772663911e-06
7.34387990162e-06
1.02709915736e-05
3.55571318066e-06
1.06527219177e-05
2.38044802508e-06
2.67191806837e-06
5.10359520899e-06
4.97964354842e-06
5.45881069355e-06
3.75624717153e-06
7.78342204135e-06
1.3861043067e-05
1.02073669154e-05
3.87529148429e-06
2.01346056107e-05
2.30436152802e-05
1.76386387739e-06
7.63028704201e-05
2.56734073133e-05
3.4252991988e-05
2.54844156658e-05
3.20507220672e-05
4.0444165209e-08
1.66356454801e-06
1.14178299164e-07
4.56202370267e-06
3.62850629183e-05
8.23957153893e-05
1.35976608704e-05
7.77794163947e-05
1.82151698024e-05
3.17647024394e-06
9.26570950668e-05
4.68459687054e-05
0.000108661910809
0.000185540676748
0.000101462603647
8.00365501978e-05
7.40163512605e-05
4.89291320994e-05
3.87365163111e-05
6.19545506737e-06
4.00715198781e-05
4.77473331567e-05
1.89423174842e-05
2.38412638209e-05
1.46975572436e-05
1.69684533161e-05
3.03916575522e-05
2.65198828811e-05
3.9351421552e-05
1.92801774415e-05
2.21987512821e-05
2.29571522078e-05
4.19184232395e-05
4.29026097706e-05
1.95399056174e-05
3.74089890692e-05
4.50862988351e-05
3.21722291176e-05
1.34409832043e-06
3.09490188608e-05
1.46130758075e-06
5.84441914224e-07
1.48001429541e-05
1.17386852691e-05
1.4379947645e-06
7.85273839547e-08
6.47209376558e-06
1.1634298162e-05
1.07050522512e-05
3.20382597829e-07
1.26385985049e-05
2.43485636028e-05
4.08368032386e-05
2.58974136145e-05
2.3231662444e-05
1.26663584539e-09
1.09167790492e-05
2.46623522712e-05
6.65646622211e-06
6.34901285078e-09
4.53955018399e-07
8.06707361182e-07
3.45229281553e-07
4.37280822201e-07
2.7316966689e-05
5.42684761135e-07
3.15252494347e-07
1.06315091528e-07
2.38389789995e-05
2.63817435915e-05
1.5634082228e-07
3.4446490777e-08
6.66604205154e-06
1.04822281125e-07
2.85809000426e-05
3.71414551709e-05
2.31801165627e-05
1.43211860526e-06
1.49678178993e-05
1.49598914829e-05
1.06658345669e-05
3.29640414146e-07
5.97627632121e-06
2.90780741847e-08
6.26780851604e-06
7.29355002323e-07
6.45195313512e-07
6.57504778656e-06
2.76792828288e-05
5.08670077743e-06
1.073771695e-05
4.19867726534e-07
2.42046370601e-05
8.11280090348e-07
3.66695276492e-06
1.71692459147e-05
3.40842208664e-06
3.62897205074e-06
1.49009363056e-06
6.12226837197e-06
3.97752988781e-06
1.37952797522e-05
8.64295791315e-06
2.71175971752e-05
2.21989068462e-05
2.28767938128e-06
9.15424176548e-07
6.43798264496e-06
7.09951511813e-06
9.38947789343e-06
4.54809424856e-06
1.24863672378e-05
1.27157869114e-05
3.65038623348e-06
4.22828327979e-06
1.66793379649e-06
4.28057857153e-06
5.79472820213e-06
2.26152125641e-07
9.85395797521e-07
3.88681418995e-05
1.84639875905e-05
1.5941188902e-06
2.28910954496e-07
1.69696105044e-05
3.52629713912e-05
7.33879988702e-05
4.16271953289e-05
1.30870168342e-05
1.8737135424e-05
7.61129998694e-06
2.9089113894e-05
2.34485359592e-06
1.59582911775e-05
7.06107791019e-06
7.76787305549e-07
1.20136450356e-07
1.49659545435e-06
1.76430097953e-06
2.51503943731e-06
2.28068350014e-06
2.7937694765e-06
1.46362321371e-06
3.4410320222e-08
1.08267459072e-06
8.51085591778e-06
1.82920558381e-05
1.20316086361e-05
1.76231832068e-06
3.41669176555e-06
3.36199339489e-06
7.94195816317e-06
6.37927100251e-07
2.31258385622e-07
9.19360588528e-07
5.77106870534e-07
1.24175432908e-06
6.72991159496e-07
7.92580873896e-07
3.87775262889e-07
9.17056796139e-07
4.95005462272e-07
1.08264894451e-06
2.94571957717e-07
1.46769401064e-06
1.67380673642e-06
1.31050245323e-06
2.78332075006e-07
2.04941565095e-07
4.52917569314e-06
1.10556029629e-05
1.79421585984e-06
2.66005005281e-07
7.61399248659e-07
4.33090910699e-06
3.63609398724e-08
2.73936765644e-07
9.58129903989e-07
1.08590545753e-05
1.19058093328e-07
5.77890153253e-08
9.34916258624e-06
2.33189889399e-06
1.50380212994e-06
3.86775764706e-07
4.86262059281e-07
1.28287388263e-06
3.5269822897e-07
1.8659704143e-06
2.11787774082e-06
1.98867026428e-06
2.78766058661e-06
5.26255122147e-07
4.20012214456e-07
1.67552983996e-05
1.84388808117e-08
2.20861369714e-05
1.38000995648e-07
1.41322011266e-05
4.73246474612e-07
7.60817394559e-06
8.84447170577e-06
1.13723202201e-06
5.48554029025e-07
1.5778594488e-06
1.99513649542e-05
1.48098446275e-05
6.05144071595e-06
4.3493973182e-06
4.49344620159e-06
2.85780523911e-07
1.87884394747e-08
1.53923230968e-05
9.33872038397e-06
7.01004546388e-08
6.34547676983e-08
7.01476217901e-06
1.58899243653e-05
3.50946634132e-05
1.51648779292e-05
1.46799051915e-05
1.63781248872e-05
3.93677950941e-06
3.58533218277e-06
2.98516741714e-06
3.84625646469e-06
1.61710831923e-05
4.85286711283e-06
3.05030540475e-06
9.30015412978e-07
5.80867201925e-07
1.9483362896e-07
5.01990156545e-07
1.51614497115e-05
1.19020673183e-05
1.85446704295e-05
2.27343344261e-06
1.55972514424e-06
1.51054565979e-05
4.99562659924e-06
2.89363313979e-05
2.37419381421e-05
6.13434115179e-07
1.47925813026e-07
1.60951744872e-05
1.56858108949e-05
3.30984163244e-05
3.31119523185e-05
1.82623943118e-05
9.20079588883e-08
1.81353359547e-05
1.7430816192e-05
1.57376687316e-05
9.34530146193e-08
1.60572733479e-05
5.03391214321e-06
2.70382996675e-05
2.92532119127e-05
4.80444305725e-07
2.01013795962e-07
2.65564212115e-07
6.99732834117e-09
7.891197572e-07
7.9389516811e-07
3.87872960332e-07
1.64837306398e-06
2.01081409738e-06
9.33537279421e-07
2.55273733305e-07
3.260696468e-05
6.4392418157e-07
4.65788721379e-07
2.48463735503e-07
2.99593244158e-07
6.43785288622e-07
4.98769349068e-06
2.91707169472e-05
1.93108802547e-06
1.62297079424e-05
1.52322982681e-05
2.21556259208e-07
3.43577044967e-05
1.12498547021e-05
3.74222722544e-07
4.14742114785e-07
4.93216346044e-07

