# vtk DataFile Version 3.0
File Name: Molecule/arg/arg_2.0-5.vtk
ASCII
DATASET UNSTRUCTURED_GRID
FIELD FieldData 1
TIME 1 1 double
0.0
POINTS 347 double
-3.403 0.327 1.604
-3.398 0.034 0.803
-2.981 -0.361 1.858
-2.976 -0.654 1.057
-2.971 0.024 0.066
-2.549 -0.664 0.32
-2.984 0.046 0.042
-2.2 -0.483 -0.862
-2.216 -0.458 -0.889
-3.255 0.893 -0.375
-2.57 0.022 -0.532
-2.781 0.681 -0.857
-2.39 -0.269 -1.153
-2.621 0.454 -1.509
-2.776 1.74 -0.497
-2.407 1.34 -0.951
-2.211 1.177 -1.613
-2.622 1.932 -0.429
-1.982 1.439 -1.492
-1.81 1.654 -1.416
-2.495 2.657 0.67
-1.615 2.438 -0.879
-1.488 3.163 0.22
-3.186 2.284 1.521
-1.863 3.333 1.507
-2.53 2.972 2.328
-3.419 1.801 1.788
-2.717 2.558 2.345
-2.979 2.017 2.644
-3.408 0.559 1.798
-3.107 1.793 3.017
-3.095 0.593 3.027
-3.105 0.348 2.085
-3.1 0.088 1.867
-2.97 0.105 2.152
-2.978 0.383 3.085
-2.865 -0.346 2.113
-2.52 -0.7 2.425
-2.645 0.041 3.387
-2.268 -1.45 1.888
-2.003 -1.142 3.367
-1.726 -1.965 2.777
-1.592 -1.721 1.268
-0.984 -2.263 2.097
-2.203 -1.444 0.759
-0.96 -2.23 0.303
-1.631 -1.926 -0.256
-2.487 -0.785 0.321
-1.943 -1.202 -0.738
-2.131 -0.618 -0.861
-2.114 -0.682 -1.181
-1.927 -1.264 -1.052
-2.312 -0.441 -1.376
-2.121 -0.506 -1.916
-1.682 -1.348 -1.746
-1.897 0.192 -2.527
-1.864 -0.768 -1.888
-1.57 0.147 -2.691
-2.011 1.039 -2.18
-1.198 0.386 -3.152
-1.348 1.496 -2.696
-1.72 1.257 -2.235
-1.479 1.817 -1.75
-1.107 2.057 -2.211
-1.319 2.584 -1.178
-0.816 3.013 -1.267
-0.543 2.537 -2.312
0.466 3.148 -0.891
-0.131 2.956 -2.042
0.328 3.005 -1.907
-0.048 3.337 -3.001
1.057 2.557 -0.305
0.892 2.689 -1.891
1.553 2.026 -1.234
0.737 2.845 0.68
1.539 1.918 0.039
1.22 2.206 1.024
0.406 3.093 0.833
0.756 2.48 1.392
0.466 2.698 1.526
1.112 2.426 2.108
0.748 2.699 2.276
-0.152 3.531 0.588
-0.034 3.266 2.099
-0.572 3.688 1.862
-0.865 3.557 0.357
-1.261 3.713 1.639
-0.175 3.437 2.964
0.587 2.894 3.259
-0.687 3.194 3.654
0.006 2.617 4.044
-1.359 3.167 3.763
-0.58 2.815 3.881
-1.359 2.784 4.008
-1.995 3.111 3.523
-2.096 2.719 3.73
-2.423 3.039 2.998
-2.593 2.636 3.121
-1.061 1.806 4.483
-0.466 1.628 4.634
-1.543 2.398 4.242
-1.452 1.611 4.604
-1.868 2.121 4.396
-2.128 2.66 3.763
-2.373 2.347 3.982
-2.655 2.52 3.176
-2.827 2.227 3.476
-1.464 1.095 4.666
-0.48 1.041 4.705
-1.655 0.731 4.634
-0.333 0.517 4.869
-0.555 0.096 4.831
-2.342 0.241 4.242
-0.878 -0.357 4.785
-1.658 -0.914 4.34
-0.383 -0.749 5.065
-0.05 -0.304 5.117
0.164 -1.171 5.088
0.507 -0.734 5.141
0.496 -1.85 4.839
1.043 -0.806 5.264
1.375 -1.486 5.015
0.805 -2.327 4.281
1.684 -1.962 4.458
1.026 -2.497 3.536
1.905 -2.132 3.712
1.109 -2.324 2.763
1.988 -1.959 2.939
1.037 -1.846 2.131
1.916 -1.481 2.307
0.119 -2.499 2.107
0.77 -1.662 1.233
0.064 -2.164 1.215
1.061 -1.813 0.337
0.142 -2.466 0.313
-0.782 -1.983 1.207
1.48 -1.078 0.031
1.078 -1.33 0.996
1.331 -0.887 0.812
1.4 -1.205 1.737
1.652 -0.762 1.553
2.335 -0.746 2.002
1.639 -0.712 -0.547
1.697 -0.118 0.66
1.842 0.216 0.134
1.664 -1.393 -0.979
2.201 -0.141 -1.444
2.226 -0.795 -1.858
1.348 -1.888 -1.533
1.923 -1.27 -2.389
0.772 -2.072 -2.068
1.371 -1.446 -2.902
0.082 -1.898 -2.448
0.708 -1.279 -3.267
-0.548 -1.409 -2.576
0.104 -0.811 -3.39
-0.822 -1.287 -2.506
-0.336 -0.591 -3.197
-0.616 -0.466 -3.125
-0.988 -0.705 -2.664
-0.251 0.008 -3.791
0.185 -0.248 -3.95
0.101 0.716 -4.098
0.516 0.418 -4.238
-0.398 1.946 -3.588
0.377 1.347 -4.4
0.028 3.029 -3.665
0.9 3.106 -3.671
0.117 1.987 -4.134
0.819 3.383 -2.845
1.749 2.404 -3.353
0.699 3.415 -2.782
1.123 2.627 -2.01
2.133 1.624 -1.992
1.668 2.681 -2.526
2.042 0.907 -1.262
2.428 1.273 -2.257
2.342 0.599 -1.57
1.976 0.918 0.014
1.896 0.717 -0.83
1.788 0.151 -0.734
1.83 1.363 -3.817
2.194 2.159 -2.516
1.863 2.209 -3.379
0.989 2.064 -4.14
2.073 0.663 0.819
1.861 -0.287 1.473
2.18 0.376 1.607
2.748 0.111 2.175
1.884 1.434 1.198
2.02 1.032 1.93
2.541 0.959 2.592
1.842 1.579 2.299
1.864 1.938 3.008
2.563 1.318 3.301
1.633 2.033 3.763
2.331 1.413 4.055
1.197 1.843 4.4
1.895 1.223 4.692
0.651 1.408 4.781
1.35 0.788 5.074
0.82 0.891 4.947
0.613 0.111 5.233
1.146 0.023 5.355
-3.741 1.924 0.843
-3.197 2.264 0.147
-3.741 1.553 0.199
-3.741 0.809 0.199
-3.741 0.437 0.843
-3.94 1.181 0.843
-2.871 -0.981 1.367
-2.307 -0.067 -2.173
0.367 3.512 -0.086
-0.376 3.711 -0.086
-1.12 3.307 -0.782
-0.505 3.826 2.497
-1.198 4.012 2.497
-1.198 3.826 3.191
-1.891 3.826 2.497
-1.891 3.597 3.203
-2.399 3.319 2.497
-1.895 1.207 4.74
-2.589 1.578 4.495
-2.589 0.836 4.495
-3.096 1.554 3.954
-3.096 0.86 3.954
0.518 -2.667 4.028
-0.18 -2.439 4.587
-0.18 -2.834 3.995
0.518 -2.834 3.297
-0.18 -2.973 3.297
-0.18 -2.834 2.599
0.518 -2.667 2.566
-0.18 -1.847 4.982
-0.878 -1.524 4.94
-0.878 -2.2 4.615
-0.878 -2.667 4.028
-0.878 -2.834 3.297
-0.878 -2.667 2.566
-1.47 -1.333 4.574
-1.47 -1.994 4.272
-1.47 -2.387 3.66
-1.47 -2.387 2.934
-1.865 -1.498 3.901
1.164 -2.311 -0.471
0.572 -2.591 -0.103
0.572 -2.758 -0.834
1.164 -2.311 -1.197
0.572 -2.591 -1.565
-0.126 -2.758 -0.136
-0.126 -2.897 -0.834
-0.126 -2.758 -1.532
-0.126 -2.363 -2.124
-0.824 -2.591 -0.103
-0.824 -2.758 -0.834
-0.824 -2.591 -1.565
-0.824 -2.124 -2.152
-1.416 -2.311 -0.471
-1.416 -2.311 -1.197
-1.416 -1.918 -1.809
-0.957 1.437 -3.446
-0.957 0.685 -3.554
1.907 1.65 0.623
0.933 2.637 3.76
1.525 2.409 3.029
0.933 2.17 4.347
0.235 1.817 4.714
3.668 -0.309 3.703
3.529 0.389 3.703
3.529 0.04 4.307
3.529 -0.658 4.307
3.529 -1.007 3.703
3.529 -0.658 3.099
3.529 0.04 3.099
3.134 0.776 4.4
3.134 0.227 4.876
3.134 -0.493 4.98
3.134 -1.154 4.678
3.134 -1.547 4.066
3.134 -1.547 3.34
3.134 -1.154 2.728
3.134 -0.493 2.426
3.134 0.227 2.53
3.134 0.776 3.006
3.134 0.981 3.703
2.542 1.209 4.434
2.542 0.742 5.021
2.542 0.066 5.346
2.542 -0.684 5.346
2.542 -1.36 5.021
2.542 -1.827 4.434
2.542 -1.994 3.703
2.542 -1.827 2.972
2.542 -1.36 2.385
1.844 0.389 5.388
1.844 -0.309 5.527
1.844 -1.007 5.388
1.844 -1.599 4.993
2.923 0.206 -2.769
2.759 0.566 -2.145
2.759 -0.154 -2.145
2.759 -0.515 -2.769
2.759 -0.154 -3.393
2.759 0.566 -3.393
2.298 -1.093 -2.769
2.298 -0.845 -3.532
2.298 -0.195 -4.004
2.298 0.607 -4.004
1.632 -1.006 -3.843
1.632 -0.368 -4.283
1.632 0.401 -4.377
0.892 -1.006 -3.843
0.892 -0.368 -4.283
0.3255 3.376 -2.8915
0.7995 3.2605 -3.2265
-0.01 3.183 -3.333
0.13875 3.3565 -2.94625
0.5625 3.31825 -3.059
0.61275 3.241 -3.28125
0.37575 3.29875 -3.11375
0.189 3.27925 -3.1685
0.227 3.12525 -3.5005
0.49425 3.269875 -3.1975
0.519375 3.23125 -3.308625
0.400875 3.260125 -3.224875
0.756375 3.1735 -3.476125
0.663 3.16375 -3.5035
0.426 3.2215 -3.336
0.3265 3.173375 -3.41825
0.5635 3.115625 -3.58575
0.247 1.667 -4.267
0.553 2.0255 -4.137
0.683 1.7055 -4.27
1.103 1.869 -4.167
0.460125 3.2456875 -3.26675
0.4726875 3.226375 -3.3223125
0.4134375 3.2408125 -3.2804375
1.7085 2.5425 -2.9395
1.931 2.42 -2.521
1.8465 1.786 -3.598
1.173 0.8905 -4.0275
1.4665 1.616 -3.992
0.8095 1.1435 -4.2025
0.74 1.608 -4.2835
0.4465 0.8825 -4.319
1.483 2.039 -3.773
1.9715 2.2815 -2.9345

CELLS 690 2760
3 0 1 2
3 2 1 3
3 1 4 3
3 3 4 5
3 4 6 7
3 7 6 8
3 6 9 10
3 10 9 11
3 10 11 12
3 12 11 13
3 9 14 11
3 11 14 15
3 11 15 13
3 13 15 16
3 14 17 18
3 18 17 19
3 17 20 21
3 21 20 22
3 20 23 24
3 24 23 25
3 23 26 27
3 27 26 28
3 26 29 30
3 30 29 31
3 29 0 32
3 32 0 33
3 32 34 31
3 31 34 35
3 34 33 36
3 36 33 2
3 36 37 35
3 35 37 38
3 37 39 40
3 40 39 41
3 39 42 41
3 41 42 43
3 42 44 45
3 45 44 46
3 44 47 46
3 46 47 48
3 47 5 49
3 49 5 7
3 49 50 48
3 48 50 51
3 50 8 52
3 52 8 12
3 52 53 51
3 51 53 54
3 53 55 56
3 56 55 57
3 55 58 59
3 59 58 60
3 58 16 61
3 61 16 18
3 61 62 60
3 60 62 63
3 62 19 64
3 64 19 21
3 64 65 63
3 63 65 66
3 65 67 68
3 68 67 69
3 68 69 70
3 67 71 72
3 72 71 73
3 71 74 75
3 75 74 76
3 74 77 78
3 78 77 79
3 78 79 80
3 80 79 81
3 77 82 83
3 83 82 84
3 82 85 84
3 84 85 86
3 85 22 86
3 86 22 24
3 83 87 81
3 81 87 88
3 87 89 88
3 88 89 90
3 89 91 92
3 92 91 93
3 91 94 93
3 93 94 95
3 94 96 95
3 95 96 97
3 96 25 97
3 97 25 27
3 92 98 90
3 90 98 99
3 98 100 101
3 101 100 102
3 100 103 102
3 102 103 104
3 103 105 104
3 104 105 106
3 105 28 106
3 106 28 30
3 101 107 99
3 99 107 108
3 107 109 110
3 110 109 111
3 109 112 113
3 113 112 114
3 112 38 114
3 114 38 40
3 113 115 111
3 111 115 116
3 115 117 116
3 116 117 118
3 117 119 120
3 120 119 121
3 119 122 121
3 121 122 123
3 122 124 123
3 123 124 125
3 124 126 125
3 125 126 127
3 126 128 127
3 127 128 129
3 128 130 131
3 131 130 132
3 131 132 133
3 133 132 134
3 130 43 132
3 132 43 135
3 132 135 134
3 134 135 45
3 133 136 137
3 137 136 138
3 137 138 139
3 139 138 140
3 139 140 129
3 129 140 141
3 136 142 143
3 143 142 144
3 142 145 146
3 146 145 147
3 145 148 147
3 147 148 149
3 148 150 149
3 149 150 151
3 150 152 151
3 151 152 153
3 152 154 153
3 153 154 155
3 154 156 157
3 157 156 158
3 156 54 159
3 159 54 56
3 159 57 158
3 158 57 59
3 157 160 155
3 155 160 161
3 160 162 161
3 161 162 163
3 162 164 165
3 164 66 166
3 166 167 168
3 167 169 170
3 169 171 172
3 172 171 72
3 172 173 174
3 173 175 176
3 176 175 177
3 175 73 178
3 178 73 75
3 178 144 179
3 179 144 180
3 179 180 177
3 177 180 146
3 176 181 182
3 183 184 170
3 143 185 186
3 186 185 187
3 186 187 141
3 141 187 188
3 185 189 187
3 187 189 190
3 187 190 188
3 188 190 191
3 189 76 192
3 192 76 80
3 192 193 191
3 191 193 194
3 193 195 194
3 194 195 196
3 195 197 196
3 196 197 198
3 197 199 198
3 198 199 200
3 199 108 201
3 201 108 110
3 201 202 200
3 200 202 203
3 202 118 203
3 203 118 120
3 33 0 2
3 7 5 4
3 12 8 10
3 10 8 6
3 18 16 15
3 18 15 14
3 21 19 17
3 24 22 20
3 27 25 23
3 30 28 26
3 32 31 29
3 36 35 34
3 40 38 37
3 135 43 42
3 135 42 45
3 49 48 47
3 52 51 50
3 56 54 53
3 59 57 55
3 61 60 58
3 64 63 62
3 70 66 68
3 68 66 65
3 72 171 69
3 72 69 67
3 75 73 71
3 80 76 78
3 78 76 74
3 83 81 79
3 83 79 77
3 92 90 89
3 101 99 98
3 110 108 107
3 113 111 109
3 120 118 117
3 139 129 128
3 139 128 131
3 139 131 137
3 137 131 133
3 186 141 140
3 186 140 138
3 186 138 143
3 143 138 136
3 180 144 142
3 180 142 146
3 157 155 154
3 159 158 156
3 166 168 164
3 170 184 167
3 172 174 169
3 176 182 173
3 179 177 175
3 179 175 178
3 192 191 190
3 192 190 189
3 201 200 199
3 204 205 206
3 207 208 209
3 206 207 209
3 204 206 209
3 209 208 29
3 209 29 26
3 209 26 204
3 204 26 23
3 204 23 205
3 205 23 20
3 205 20 17
3 205 17 14
3 205 14 206
3 206 14 9
3 206 9 207
3 207 9 6
3 207 6 1
3 207 1 208
3 208 1 0
3 208 0 29
3 1 6 4
3 5 47 3
3 3 47 44
3 3 44 210
3 3 210 2
3 2 210 37
3 2 37 36
3 37 210 39
3 39 210 44
3 39 44 42
3 8 50 49
3 8 49 7
3 16 58 13
3 13 58 211
3 13 211 52
3 13 52 12
3 52 211 53
3 53 211 55
3 55 211 58
3 19 62 18
3 18 62 61
3 82 77 212
3 82 212 213
3 82 213 85
3 85 213 214
3 85 214 22
3 22 214 21
3 21 214 64
3 64 214 65
3 65 214 213
3 65 213 67
3 67 213 212
3 67 212 71
3 71 212 74
3 74 212 77
3 215 216 217
3 217 216 218
3 217 218 219
3 219 218 220
3 219 220 96
3 219 96 94
3 219 94 91
3 219 91 217
3 217 91 89
3 217 89 87
3 217 87 215
3 215 87 83
3 215 83 84
3 215 84 216
3 216 84 86
3 216 86 218
3 218 86 24
3 218 24 220
3 220 24 25
3 220 25 96
3 100 98 92
3 100 92 93
3 100 93 95
3 100 95 103
3 103 95 97
3 103 97 105
3 105 97 27
3 105 27 28
3 221 222 223
3 222 224 225
3 223 222 225
3 223 225 112
3 223 112 109
3 223 109 221
3 221 109 107
3 221 107 101
3 221 101 102
3 221 102 222
3 222 102 104
3 222 104 224
3 224 104 106
3 224 106 30
3 224 30 225
3 225 30 31
3 225 31 35
3 225 35 38
3 225 38 112
3 33 34 32
3 226 227 228
3 229 226 228
3 229 228 230
3 229 230 231
3 232 229 231
3 233 234 235
3 227 233 235
3 227 235 236
3 228 227 236
3 228 236 237
3 230 228 237
3 231 230 237
3 231 237 238
3 234 239 240
3 235 234 240
3 236 235 240
3 236 240 241
3 237 236 241
3 237 241 242
3 238 237 242
3 240 239 243
3 241 240 243
3 241 243 41
3 241 41 242
3 242 41 43
3 242 43 238
3 238 43 130
3 238 130 231
3 231 130 232
3 232 130 128
3 232 128 126
3 232 126 229
3 229 126 124
3 229 124 226
3 226 124 122
3 226 122 227
3 227 122 119
3 227 119 233
3 233 119 117
3 233 117 234
3 234 117 115
3 234 115 113
3 234 113 239
3 239 113 114
3 239 114 243
3 243 114 40
3 243 40 41
3 244 245 246
3 247 244 246
3 247 246 248
3 246 245 249
3 246 249 250
3 246 250 251
3 248 246 251
3 248 251 252
3 249 253 254
3 250 249 254
3 251 250 254
3 251 254 255
3 252 251 255
3 252 255 256
3 254 253 257
3 254 257 258
3 255 254 258
3 255 258 259
3 256 255 259
3 256 259 156
3 256 156 154
3 256 154 152
3 256 152 252
3 252 152 150
3 252 150 248
3 248 150 247
3 247 150 148
3 247 148 145
3 247 145 244
3 244 145 136
3 244 136 133
3 244 133 245
3 245 133 134
3 245 134 249
3 249 134 253
3 253 134 45
3 253 45 257
3 257 45 46
3 257 46 258
3 258 46 51
3 258 51 259
3 259 51 54
3 259 54 156
3 51 46 48
3 136 145 142
3 57 159 56
3 60 63 164
3 60 164 260
3 60 260 59
3 59 260 261
3 59 261 160
3 59 160 158
3 158 160 157
3 160 261 162
3 162 261 260
3 162 260 164
3 164 63 66
3 73 175 173
3 73 173 172
3 73 172 72
3 76 189 262
3 76 262 75
3 75 262 178
3 178 262 185
3 178 185 144
3 144 185 143
3 185 262 189
3 88 90 263
3 88 263 264
3 88 264 81
3 81 264 80
3 80 264 192
3 192 264 193
3 193 264 195
3 195 264 263
3 195 263 265
3 195 265 197
3 197 265 199
3 199 265 266
3 199 266 108
3 108 266 99
3 99 266 90
3 90 266 265
3 90 265 263
3 116 118 202
3 116 202 110
3 116 110 111
3 110 202 201
3 267 268 269
3 267 269 270
3 267 270 271
3 267 271 272
3 267 272 273
3 267 273 268
3 269 268 274
3 269 274 275
3 269 275 276
3 270 269 276
3 270 276 277
3 270 277 278
3 271 270 278
3 271 278 279
3 272 271 279
3 272 279 280
3 272 280 281
3 273 272 281
3 273 281 282
3 273 282 283
3 268 273 283
3 268 283 284
3 268 284 274
3 274 284 285
3 274 285 286
3 275 274 286
3 275 286 287
3 276 275 287
3 276 287 288
3 277 276 288
3 277 288 289
3 277 289 290
3 278 277 290
3 278 290 291
3 279 278 291
3 279 291 292
3 280 279 292
3 280 292 293
3 287 286 294
3 287 294 295
3 288 287 295
3 288 295 296
3 289 288 296
3 289 296 297
3 290 289 297
3 290 297 123
3 290 123 125
3 290 125 291
3 291 125 127
3 291 127 292
3 292 127 129
3 292 129 293
3 293 129 141
3 293 141 281
3 293 281 280
3 281 141 188
3 281 188 282
3 282 188 191
3 282 191 283
3 283 191 194
3 283 194 284
3 284 194 196
3 284 196 285
3 285 196 198
3 285 198 286
3 286 198 294
3 294 198 200
3 294 200 203
3 294 203 295
3 295 203 120
3 295 120 296
3 296 120 121
3 296 121 297
3 297 121 123
3 298 299 300
3 298 300 301
3 298 301 302
3 298 302 303
3 301 304 305
3 302 301 305
3 302 305 306
3 302 306 307
3 303 302 307
3 306 305 308
3 306 308 309
3 306 309 310
3 307 306 310
3 308 311 312
3 309 308 312
3 309 312 310
3 310 312 163
3 310 181 307
3 307 181 303
3 303 181 176
3 303 176 299
3 303 299 298
3 299 176 177
3 299 177 300
3 300 177 146
3 300 146 147
3 300 147 301
3 301 147 304
3 304 147 149
3 304 149 151
3 304 151 305
3 305 151 308
3 308 151 153
3 308 153 311
3 311 153 155
3 311 155 161
3 311 161 312
3 312 161 163
3 171 313 69
3 167 314 169
3 169 314 171
3 70 315 66
3 66 315 166
3 313 316 69
3 69 316 70
3 314 317 171
3 171 317 313
3 314 318 317
3 317 319 313
3 313 319 316
3 319 320 316
3 316 320 70
3 70 320 315
3 320 321 315
3 315 321 166
3 318 322 317
3 322 319 317
3 318 323 322
3 322 324 319
3 323 325 326
3 323 318 325
3 326 325 167
3 167 325 314
3 325 318 314
3 319 324 320
3 327 328 320
3 320 328 321
3 321 329 166
3 166 329 167
3 167 329 326
3 329 328 326
3 329 321 328
3 326 328 327
3 168 330 164
3 164 330 165
3 184 331 167
3 167 331 168
3 168 331 330
3 331 332 330
3 331 184 332
3 330 332 165
3 332 184 333
3 323 334 322
3 334 324 322
3 323 335 334
3 335 336 334
3 335 327 336
3 334 336 324
3 327 335 326
3 335 323 326
3 324 336 320
3 336 327 320
3 174 337 169
3 169 337 170
3 182 338 173
3 173 338 174
3 181 339 182
3 182 339 183
3 181 340 341
3 340 342 341
3 340 163 342
3 341 342 333
3 333 342 343
3 342 344 343
3 342 163 344
3 343 344 165
3 183 345 184
3 184 345 333
3 165 344 162
3 344 163 162
3 333 345 341
3 345 339 341
3 345 183 339
3 341 339 181
3 163 340 310
3 310 340 181
3 174 338 337
3 338 346 337
3 338 182 346
3 337 346 170
3 170 346 183
3 346 182 183
3 333 343 332
3 332 343 165

CELL_TYPES 690
5
5
5
5
5
5
5
5
5
5
5
5
5
5
5
5
5
5
5
5
5
5
5
5
5
5
5
5
5
5
5
5
5
5
5
5
5
5
5
5
5
5
5
5
5
5
5
5
5
5
5
5
5
5
5
5
5
5
5
5
5
5
5
5
5
5
5
5
5
5
5
5
5
5
5
5
5
5
5
5
5
5
5
5
5
5
5
5
5
5
5
5
5
5
5
5
5
5
5
5
5
5
5
5
5
5
5
5
5
5
5
5
5
5
5
5
5
5
5
5
5
5
5
5
5
5
5
5
5
5
5
5
5
5
5
5
5
5
5
5
5
5
5
5
5
5
5
5
5
5
5
5
5
5
5
5
5
5
5
5
5
5
5
5
5
5
5
5
5
5
5
5
5
5
5
5
5
5
5
5
5
5
5
5
5
5
5
5
5
5
5
5
5
5
5
5
5
5
5
5
5
5
5
5
5
5
5
5
5
5
5
5
5
5
5
5
5
5
5
5
5
5
5
5
5
5
5
5
5
5
5
5
5
5
5
5
5
5
5
5
5
5
5
5
5
5
5
5
5
5
5
5
5
5
5
5
5
5
5
5
5
5
5
5
5
5
5
5
5
5
5
5
5
5
5
5
5
5
5
5
5
5
5
5
5
5
5
5
5
5
5
5
5
5
5
5
5
5
5
5
5
5
5
5
5
5
5
5
5
5
5
5
5
5
5
5
5
5
5
5
5
5
5
5
5
5
5
5
5
5
5
5
5
5
5
5
5
5
5
5
5
5
5
5
5
5
5
5
5
5
5
5
5
5
5
5
5
5
5
5
5
5
5
5
5
5
5
5
5
5
5
5
5
5
5
5
5
5
5
5
5
5
5
5
5
5
5
5
5
5
5
5
5
5
5
5
5
5
5
5
5
5
5
5
5
5
5
5
5
5
5
5
5
5
5
5
5
5
5
5
5
5
5
5
5
5
5
5
5
5
5
5
5
5
5
5
5
5
5
5
5
5
5
5
5
5
5
5
5
5
5
5
5
5
5
5
5
5
5
5
5
5
5
5
5
5
5
5
5
5
5
5
5
5
5
5
5
5
5
5
5
5
5
5
5
5
5
5
5
5
5
5
5
5
5
5
5
5
5
5
5
5
5
5
5
5
5
5
5
5
5
5
5
5
5
5
5
5
5
5
5
5
5
5
5
5
5
5
5
5
5
5
5
5
5
5
5
5
5
5
5
5
5
5
5
5
5
5
5
5
5
5
5
5
5
5
5
5
5
5
5
5
5
5
5
5
5
5
5
5
5
5
5
5
5
5
5
5
5
5
5
5
5
5
5
5
5
5
5
5
5
5
5
5
5
5
5
5
5
5
5
5
5
5
5
5
5
5
5
5
5
5
5
5
5
5
5
5
5
5
5
5
5
5
5
5
5
5
5
5
5
5
5
5
5
5
5
5
5
5
5
5
5
5
5
5
5
5
5
5
5
5
5
5
5
5
5
5
5
5
5
5
5
5
5
5
5
5
5
5
5
5
5
5
5
5
5
5
5
5
5
5
5
5
5
5
5
5
5
5

CELL_DATA 690
SCALARS cell_data_0 double
LOOKUP_TABLE default
5.77125057894e-07
8.91407931503e-09
6.3571237254e-07
1.13241891876e-06
9.30162960252e-08
1.11754892199e-06
3.28738318974e-08
3.12310945879e-07
1.27284600275e-06
1.93928000191e-06
1.58151305667e-07
2.75221233069e-06
9.87440764627e-07
2.76217534245e-07
4.49623115635e-06
1.46689433377e-06
3.52880997754e-06
2.73089650521e-08
9.25022715171e-07
4.93708459651e-07
2.07895959681e-07
6.50018483339e-07
1.24939190563e-06
1.09019013148e-06
1.01190107049e-07
4.32077731541e-07
7.49042089897e-07
6.27874460634e-07
3.0142805013e-07
2.24069764595e-07
1.47419259912e-06
7.07972279116e-06
3.4214041233e-06
1.7518801369e-05
7.27835020784e-06
2.74366861258e-06
4.77622560008e-06
1.8122829421e-06
9.59050799951e-07
1.485765534e-06
7.6412324182e-07
5.68609410203e-07
1.12957790065e-06
3.77722776962e-07
6.25696814718e-07
7.08654701041e-07
3.1110190772e-06
4.2203937002e-08
4.80041042679e-06
3.93907003445e-06
8.42582027381e-06
1.81962892815e-06
4.08616847287e-06
3.18879095078e-06
3.03808504572e-07
6.7517948064e-07
2.39504834811e-06
2.8798997643e-06
2.08467978376e-06
6.28162574414e-06
7.59381226795e-06
1.22479437906e-06
8.75036400531e-06
4.15647994564e-06
1.04480450778e-05
2.87937967013e-06
2.58848079118e-06
4.02560296524e-07
1.20982709436e-06
1.13636804188e-07
9.70842351441e-08
1.24062187892e-06
6.95440171557e-07
4.73256635708e-07
5.05445747487e-07
1.12420445869e-06
6.31336374299e-07
4.06890661345e-07
4.51776646296e-06
5.69144372198e-06
9.7301216255e-07
5.55377405756e-07
5.54599863662e-09
4.03273435607e-08
1.36380355098e-07
1.58017482993e-07
3.25573628706e-08
1.66952254202e-07
6.08640937733e-07
9.77901888599e-07
2.18541621436e-06
4.76461514191e-07
6.42042816344e-07
2.44781133002e-07
2.53020753563e-07
7.45620511257e-08
4.53603944872e-07
1.60299543435e-07
1.80389242283e-08
8.15033653764e-07
1.99153616453e-06
3.28443329955e-06
3.25876421649e-06
4.4209039991e-06
3.80466600402e-07
1.37747774533e-05
6.95429107234e-06
9.20409389178e-07
3.93922854595e-07
2.55257745867e-08
1.00583699304e-06
7.70869270374e-07
6.55477138852e-07
1.88939131092e-06
2.11991507616e-05
1.19732067079e-05
3.25482207552e-05
2.98359569769e-05
1.18677587954e-05
3.76921955737e-06
3.79796578652e-06
1.08170440323e-05
1.72437343181e-06
1.17987007647e-05
1.02077991442e-05
6.95487705654e-06
2.82163035695e-06
2.19378935852e-06
8.72853567363e-06
5.16281199108e-07
5.62304355038e-06
3.56048856556e-06
6.53709335709e-07
1.48207577181e-06
1.73296068045e-06
2.61792712916e-06
2.36760768475e-06
2.06469174083e-06
2.98286041241e-06
3.45678681156e-06
1.35039085801e-06
5.04137089657e-07
2.57429513612e-06
4.49851109857e-06
3.96596051738e-06
2.15597558721e-06
4.10535354997e-06
9.93112764463e-07
1.81826717139e-06
4.77969924109e-06
5.00698595269e-06
4.09984414782e-07
3.10596930458e-06
6.35818341001e-07
1.97987595645e-06
7.05699494162e-06
3.03372511349e-06
6.75228618203e-05
1.1254790429e-05
6.46232932183e-05
0.000104789976409
3.9464817158e-06
6.60782558593e-06
9.74916852266e-05
5.09127049639e-06
2.43487770666e-06
1.51445827695e-07
3.09366406941e-06
1.8257997685e-06
1.1935757551e-07
2.64592912445e-06
9.0694490034e-07
6.4669654055e-06
3.92367991021e-06
4.11624212221e-07
1.34040024057e-06
2.02563839178e-06
1.05144627402e-06
1.29352532056e-06
2.72928145245e-06
1.37284159861e-06
2.06065015908e-07
1.07536765995e-05
6.24863238914e-07
4.21521766512e-06
2.48000938137e-05
2.16722830567e-05
2.98924059507e-05
2.33196764147e-05
9.45500766632e-07
4.75645232446e-06
3.18866078469e-06
1.61495351778e-06
2.12676186396e-06
2.04363857927e-06
5.51661985485e-07
3.53920136007e-07
2.91316884039e-08
7.53483655554e-07
1.60921619311e-06
4.80986735292e-08
3.23629994205e-06
4.15202862951e-07
2.74043356383e-06
2.43540830761e-06
3.98452381873e-06
1.7142174745e-06
2.03245276219e-06
1.51697769924e-06
5.688856484e-07
1.72045154049e-05
1.10718637763e-06
4.08272007079e-06
3.59718939016e-06
2.06538369661e-06
2.18271894973e-06
4.66206047197e-06
4.59966655428e-06
5.3350376846e-06
3.54215669362e-06
3.67665342082e-06
6.42700375434e-06
2.55801658296e-06
8.48629522686e-06
1.70690830187e-06
7.07375186629e-07
1.22211456342e-06
3.46549566415e-07
1.98501476123e-07
1.98547876672e-08
1.1304765102e-06
6.34205061439e-07
1.0036201167e-06
3.51418908098e-06
1.48089458395e-06
2.01643814597e-06
1.60518639248e-06
2.30870915414e-06
2.73603574994e-06
1.26989539869e-06
4.03691846393e-07
2.33776286952e-06
1.20729182841e-06
9.22164527026e-07
3.69141196339e-06
2.52874521803e-05
3.04613580728e-06
3.69025803889e-05
4.2700939568e-05
1.37209902158e-07
2.54534715931e-06
3.83364905789e-06
2.64864633225e-06
8.66584526644e-10
3.16497553327e-08
1.92375168577e-08
2.61771215054e-07
2.00396137789e-07
9.29511099298e-08
2.56766785941e-06
1.49297366793e-08
2.24591131579e-07
5.33904519577e-07
8.00894012969e-07
1.15646949188e-06
1.48625084267e-07
4.63314932305e-07
2.20130978714e-06
3.42078329814e-07
1.05018756589e-06
1.02197067031e-06
2.51485349824e-07
1.46337152357e-07
1.9386263792e-07
1.14661661783e-07
1.43903249484e-07
3.38127483944e-06
3.19958433243e-07
2.32742779107e-07
1.19331655903e-06
1.00587130567e-07
3.20734027167e-06
2.0875818707e-07
5.62797280123e-06
2.0383141117e-06
5.90491561412e-08
2.60826080718e-07
6.695795679e-06
1.72497775385e-06
2.22864572747e-08
6.78053835933e-07
1.74643162096e-06
2.84874303177e-06
5.0232346402e-07
5.80103758339e-06
2.22712461214e-06
3.23412285632e-07
3.55448693564e-07
2.01421701344e-07
2.06275176487e-06
4.5508164532e-07
1.84100747666e-07
6.47393095769e-07
2.36137399914e-06
8.36258908617e-06
2.53323732502e-06
2.3687419336e-06
3.38244261959e-07
2.49991625494e-07
9.07230490085e-07
6.58722003406e-07
7.90458425086e-08
9.96255765297e-08
2.1920650551e-07
1.19879024544e-07
4.80070856013e-09
4.84008482829e-07
4.14525951808e-09
3.43393819604e-06
1.0225672358e-06
8.71765686422e-07
7.14838488455e-07
3.5957390403e-07
1.54979967675e-06
2.20068221847e-08
8.6742405458e-07
2.74916863843e-07
7.54684728434e-07
4.50949296952e-07
1.07175803688e-06
2.20748869296e-07
1.5134549118e-07
2.05970449673e-08
8.09610746295e-08
2.04555064086e-07
1.782743405e-08
1.23654924886e-06
4.03831331796e-07
2.10560909893e-07
9.64140959824e-07
2.63719384719e-06
5.49448408002e-07
7.50206220732e-07
3.87214440465e-08
2.98581647999e-07
4.62388656482e-07
1.88305057091e-07
1.4739038868e-07
1.69233506148e-07
9.09036865412e-07
7.10117978937e-07
5.61524614183e-07
3.46852157203e-06
1.26988223543e-06
1.93380640433e-06
1.47914671552e-06
4.06931038849e-07
1.80661120866e-05
1.5295075157e-05
1.91154861446e-05
1.01225627519e-05
1.41619172413e-05
1.41729922385e-06
1.81386324203e-06
2.38820354048e-06
3.25024043457e-06
3.17568472718e-06
2.75106045414e-06
2.01111601418e-06
2.75019306664e-06
1.38811127317e-06
2.8115093182e-07
6.26659472421e-07
2.36355190639e-07
1.53312441064e-06
2.37442654744e-06
1.37057834143e-06
1.8013387678e-06
4.12070007598e-07
9.24823018313e-07
4.76535213237e-06
1.18263059102e-07
1.14470293568e-06
6.87927530664e-07
3.48424096166e-06
5.61108451304e-06
3.04083713636e-06
6.50193742465e-06
8.19803128397e-06
1.93745965533e-05
1.1936960031e-05
1.86782663124e-05
1.17856406908e-06
2.4445279929e-05
1.73094537142e-06
1.13823897968e-06
2.78089390031e-07
6.93142811974e-07
1.9858621425e-06
3.56940229877e-06
1.07062474146e-06
6.44261777815e-07
8.90545589746e-06
9.07439421409e-06
2.89287948782e-06
1.90107189481e-07
4.88922163304e-07
3.80566510765e-06
1.01196888634e-07
6.82878402539e-07
1.42544360121e-07
8.96005368259e-07
1.13441613371e-06
4.74749922874e-07
7.41239697212e-09
3.15303448991e-07
1.3436588502e-07
1.54116682257e-06
8.34032499841e-07
3.53704430819e-08
6.91127143502e-07
5.40443056909e-07
6.35136406461e-07
3.84477191638e-07
9.95965288027e-07
2.33607608322e-06
5.31277174656e-07
2.31301831348e-06
4.8328630057e-07
2.32942480717e-07
1.63106603765e-06
1.33218779506e-06
2.71647115847e-06
4.07108215065e-06
3.62420188872e-06
7.14143624093e-06
1.32627467868e-06
3.37330638752e-06
3.73218447265e-06
1.36260542505e-06
1.02455546401e-06
6.57110884696e-07
9.31645961239e-07
3.04893816698e-06
1.32655772602e-07
5.45716043954e-07
1.99017124008e-06
1.31100435382e-06
3.16982865842e-06
3.32765845134e-06
3.72545553907e-07
1.49346210981e-05
1.03029280026e-05
2.78841723476e-06
2.59582148544e-06
7.09113692609e-06
4.76970026281e-07
8.83624305727e-06
2.52558842853e-06
9.89924872501e-06
1.84011276469e-05
2.84131455675e-06
8.47272137129e-06
3.32936590157e-06
2.92759910089e-06
3.42551736263e-07
1.25899717998e-06
4.50587209786e-07
3.87353057522e-07
4.49012259333e-07
1.3479308443e-06
8.30356774197e-07
2.86499595292e-06
1.81326934803e-06
1.04791844801e-05
1.17859706668e-05
8.61004947191e-06
2.65859412894e-05
2.07991201915e-05
1.05579534231e-05
6.01770276634e-06
2.37463788076e-08
3.33854360698e-06
1.89826746757e-06
2.77936597822e-07
1.39908130838e-06
1.32101878715e-06
6.32693732187e-06
8.31488125783e-07
2.23334563654e-06
2.03655219649e-07
2.00717553078e-06
5.14720163611e-07
8.65519722769e-07
9.79809295036e-07
2.49806638019e-07
2.06819957792e-07
6.81001746447e-07
1.1145820501e-05
2.12609385719e-06
8.62616853835e-07
1.87009115966e-06
2.02751283118e-06
4.17612906883e-06
6.21309923091e-07
3.69699416067e-06
3.96152991929e-07
1.36307239541e-06
7.1565453598e-07
3.38549063935e-07
2.31520280313e-07
4.15544629331e-06
7.8851338438e-06
1.76134491195e-05
1.13841042738e-05
4.49285775365e-06
2.52425165637e-06
6.3156697619e-07
1.90958121801e-06
1.68354775458e-07
1.89038471174e-06
1.82890320194e-06
7.46821395075e-06
1.3846737413e-05
1.20792565098e-05
6.97805805212e-06
2.75803064625e-06
9.45023366377e-06
3.40622905994e-06
9.87886527473e-07
2.13436668675e-07
9.75269588263e-07
9.19779465728e-07
1.48072857086e-06
1.89325406442e-06
3.65265550005e-06
1.19977682743e-05
2.63010521922e-06
7.95265332551e-05
3.06739014226e-05
5.03870311023e-06
2.68278209045e-06
2.33323123224e-06
7.9918146663e-07
6.76900175438e-07
6.39548459383e-07
9.8222354536e-08
1.00905633241e-06
3.99538649475e-07
2.8003177515e-06
5.46314690207e-07
2.00118755908e-05
3.43470582145e-06
5.87261682362e-05
2.34122189393e-05
2.62715894092e-06
3.8341187443e-06
1.86426561658e-06
5.64595528994e-07
1.91556901905e-07
9.8571063802e-07
8.34344630156e-07
2.31990189335e-06
1.97549060669e-06
5.99525803674e-07
4.61197039814e-06
5.67961774268e-07
1.0998941231e-06
7.56158139387e-07
2.37674194406e-06
2.0356365344e-06
4.38597811638e-07
3.99753288428e-07
2.2994739183e-06
1.95795822953e-06
1.19650257893e-06
3.80626400352e-08
8.3201477857e-07
1.10504388564e-06
1.55347183264e-06
3.15546348062e-07
9.05668625829e-08
1.03387467709e-07
8.6643758265e-07
1.05227136241e-07
4.80284927602e-06
1.61442022288e-06
4.03278172844e-07
5.10826278116e-06
1.05397680886e-06
2.61805531165e-06
8.90802016912e-07
2.98809568237e-07
2.02952138764e-06
8.49038236177e-07
1.42383487689e-07
2.5663075207e-06
1.71960967969e-06
3.68389861818e-06
6.95886779109e-07
1.79005738128e-06
1.94485088834e-06
1.29694042751e-06
3.56544644422e-06
1.36788516681e-06
8.69438158024e-06
9.54119244057e-06
2.20383652308e-05
3.58774390829e-06
7.90061077544e-06
4.02051917551e-06
4.83460841137e-06
5.83015121115e-06
1.55983574235e-05
2.28360226281e-05
1.48305129152e-06
2.52935207306e-05
1.00558755889e-05
1.86621047907e-05
4.19994072851e-05
8.95235987384e-06
2.26619108901e-05
5.25997548361e-05
6.77386249856e-05
2.04161046628e-08
2.23208704434e-05
3.35083422242e-05
3.46294879188e-05
4.26000668275e-06
4.09763726936e-06
6.54848957002e-06
9.46640941884e-05
4.68089548263e-05
2.5074112986e-05
2.66474356793e-05
2.65478221091e-05
8.23654812215e-05
9.4473604291e-06
2.57175778829e-05
3.38695548667e-05
1.51503370827e-05
4.99165830965e-05
4.22254614178e-05
2.77424875777e-05
7.3859228269e-05
2.21736283411e-05
4.21785907829e-05
2.76458611785e-05
5.83423749064e-05
4.31327090643e-06
5.51525749806e-05
7.18839533919e-05
6.444040061e-05
1.79170286925e-05
4.23922245445e-05
2.82692260764e-05
3.27497790071e-05
3.55213138203e-05
7.47472784903e-05
1.2401415297e-05
6.26429049783e-05
1.76437317447e-05
3.20325942265e-05
0.000125285534558
1.35288663851e-05
2.36469951503e-06
1.17403968207e-05
1.65232295223e-05
3.35034081916e-05
7.13446754167e-06
2.24451284754e-06
7.71016858721e-06
6.17517612246e-06
8.39180429193e-06
1.94683491276e-06
1.18091929241e-05
8.61815038546e-06
2.52269384421e-06
1.42240501621e-05
1.27961320037e-05
1.21109920646e-06
2.10505689332e-06
3.64013514343e-05
7.97426053242e-05
6.47698770691e-05
1.46083561422e-06
4.46171883601e-05
2.8596245837e-05
1.52332998737e-05
2.28726918889e-05

