# vtk DataFile Version 3.0
File Name: Molecule/arg/arg_13.5-4.vtk
ASCII
DATASET UNSTRUCTURED_GRID
FIELD FieldData 1
TIME 1 1 double
0.0
POINTS 2452 double
-3.403 0.327 1.604
-3.452 0.202 1.348
-3.215 0.119 1.662
-3.262 -0.0 1.417
-3.073 -0.113 1.748
-3.12 -0.233 1.503
-2.981 -0.361 1.858
-3.03 -0.485 1.602
-3.45 0.103 1.078
-3.261 -0.095 1.158
-3.118 -0.328 1.244
-3.028 -0.584 1.332
-3.398 0.034 0.803
-3.211 -0.162 0.894
-3.068 -0.394 0.98
-2.976 -0.654 1.057
-3.298 -0.003 0.536
-3.114 -0.197 0.638
-2.972 -0.43 0.724
-2.876 -0.691 0.79
-3.153 -0.007 0.286
-2.976 -0.201 0.399
-2.833 -0.433 0.485
-2.731 -0.694 0.541
-2.971 0.024 0.066
-2.801 -0.171 0.187
-2.658 -0.404 0.273
-2.549 -0.664 0.32
-2.984 0.046 0.042
-2.75 -0.004 -0.09
-2.763 0.017 -0.113
-2.556 -0.072 -0.268
-2.569 -0.051 -0.29
-2.396 -0.177 -0.461
-2.409 -0.155 -0.484
-2.276 -0.316 -0.661
-2.29 -0.293 -0.686
-2.2 -0.483 -0.862
-2.216 -0.458 -0.889
-3.158 0.288 -0.115
-2.796 0.071 -0.172
-2.948 0.283 -0.31
-2.637 0.05 -0.409
-2.775 0.243 -0.534
-2.512 -0.016 -0.658
-2.645 0.17 -0.779
-2.429 -0.124 -0.909
-2.565 0.066 -1.033
-2.39 -0.269 -1.153
-2.537 -0.063 -1.287
-3.25 0.578 -0.258
-3.029 0.537 -0.435
-2.849 0.475 -0.648
-2.717 0.393 -0.888
-2.638 0.295 -1.145
-2.617 0.185 -1.409
-3.255 0.893 -0.375
-3.034 0.813 -0.538
-2.853 0.726 -0.742
-2.721 0.635 -0.979
-2.642 0.542 -1.238
-2.621 0.454 -1.509
-3.173 1.207 -0.458
-2.961 1.09 -0.611
-2.787 0.978 -0.808
-2.657 0.877 -1.042
-2.577 0.79 -1.303
-2.55 0.723 -1.58
-3.008 1.498 -0.5
-2.817 1.344 -0.647
-2.656 1.21 -0.842
-2.531 1.1 -1.074
-2.448 1.019 -1.336
-2.41 0.97 -1.615
-2.776 1.74 -0.497
-2.613 1.557 -0.645
-2.47 1.404 -0.839
-2.352 1.286 -1.072
-2.264 1.21 -1.334
-2.211 1.177 -1.613
-2.622 1.932 -0.429
-2.565 1.626 -0.624
-2.419 1.808 -0.56
-2.373 1.536 -0.795
-2.23 1.716 -0.731
-2.208 1.473 -1.002
-2.061 1.658 -0.936
-2.076 1.44 -1.237
-1.919 1.637 -1.168
-1.982 1.439 -1.492
-1.81 1.654 -1.416
-2.663 2.202 -0.218
-2.323 2.018 -0.459
-2.36 2.267 -0.264
-2.046 2.135 -0.548
-2.083 2.377 -0.358
-1.806 2.278 -0.69
-1.844 2.526 -0.495
-1.615 2.438 -0.879
-1.656 2.708 -0.668
-2.655 2.421 0.048
-2.352 2.47 -0.019
-2.075 2.574 -0.12
-1.836 2.729 -0.25
-1.647 2.927 -0.402
-2.597 2.577 0.351
-2.3 2.613 0.261
-2.024 2.713 0.152
-1.783 2.872 0.03
-1.59 3.083 -0.1
-2.495 2.657 0.67
-2.205 2.687 0.555
-1.932 2.785 0.438
-1.689 2.947 0.324
-1.488 3.163 0.22
-2.727 2.643 0.859
-2.31 2.73 0.924
-2.521 2.716 1.096
-2.137 2.872 1.156
-2.339 2.859 1.321
-1.986 3.077 1.354
-2.192 3.064 1.522
-1.863 3.333 1.507
-2.087 3.319 1.689
-2.925 2.572 1.071
-2.701 2.653 1.288
-2.512 2.798 1.506
-2.369 3.001 1.711
-2.279 3.251 1.894
-3.081 2.451 1.295
-2.843 2.542 1.492
-2.648 2.692 1.701
-2.508 2.893 1.911
-2.43 3.133 2.111
-3.186 2.284 1.521
-2.937 2.39 1.697
-2.739 2.546 1.897
-2.601 2.744 2.112
-2.53 2.972 2.328
-3.324 2.06 1.667
-2.975 2.319 1.779
-3.111 2.099 1.924
-2.815 2.412 2.059
-2.958 2.183 2.21
-2.717 2.558 2.345
-2.872 2.307 2.509
-3.419 1.801 1.788
-3.205 1.843 2.043
-3.055 1.917 2.334
-2.979 2.017 2.644
-3.531 1.499 1.816
-3.277 1.754 2.004
-3.38 1.477 2.029
-3.171 1.729 2.243
-3.269 1.465 2.268
-3.106 1.727 2.498
-3.203 1.466 2.522
-3.084 1.749 2.759
-3.185 1.478 2.784
-3.107 1.793 3.017
-3.215 1.501 3.044
-3.567 1.179 1.827
-3.413 1.182 2.04
-3.3 1.185 2.277
-3.235 1.188 2.532
-3.217 1.19 2.794
-3.25 1.192 3.055
-3.525 0.859 1.821
-3.374 0.888 2.034
-3.264 0.905 2.272
-3.198 0.91 2.527
-3.18 0.902 2.789
-3.209 0.883 3.049
-3.408 0.559 1.798
-3.266 0.612 2.013
-3.161 0.643 2.252
-3.096 0.65 2.507
-3.074 0.633 2.768
-3.095 0.593 3.027
-3.105 0.348 2.085
-3.1 0.088 1.867
-2.97 0.105 2.152
-3.031 0.459 2.387
-2.908 0.238 2.449
-3.027 0.542 2.707
-2.911 0.332 2.766
-2.978 0.383 3.085
-2.865 -0.346 2.113
-2.719 -0.541 2.278
-2.797 -0.13 2.332
-2.664 -0.308 2.482
-2.794 0.071 2.575
-2.666 -0.1 2.72
-2.855 0.244 2.83
-2.724 0.07 2.978
-2.837 0.195 3.245
-2.52 -0.7 2.425
-2.482 -0.453 2.616
-2.491 -0.24 2.849
-2.546 -0.073 3.11
-2.645 0.041 3.387
-2.502 -0.946 2.296
-2.309 -0.792 2.616
-2.292 -1.028 2.493
-2.148 -0.9 2.844
-2.131 -1.136 2.72
-2.044 -1.018 3.098
-2.027 -1.266 2.968
-2.003 -1.142 3.367
-1.984 -1.412 3.226
-2.44 -1.171 2.145
-2.233 -1.243 2.347
-2.072 -1.352 2.575
-1.964 -1.493 2.815
-1.915 -1.659 3.059
-2.335 -1.366 1.976
-2.132 -1.43 2.186
-1.971 -1.539 2.413
-1.858 -1.689 2.646
-1.8 -1.873 2.874
-2.192 -1.524 1.797
-1.995 -1.581 2.015
-1.833 -1.691 2.241
-1.714 -1.848 2.466
-1.642 -2.046 2.678
-2.015 -1.638 1.615
-1.826 -1.69 1.841
-1.664 -1.801 2.066
-1.536 -1.964 2.282
-1.449 -2.172 2.478
-1.813 -1.704 1.437
-1.632 -1.754 1.669
-1.469 -1.865 1.895
-1.332 -2.031 2.102
-1.226 -2.245 2.282
-1.592 -1.721 1.268
-1.42 -1.77 1.508
-1.257 -1.88 1.733
-1.109 -2.047 1.932
-0.984 -2.263 2.097
-1.82 -1.681 1.103
-1.41 -1.742 0.999
-1.625 -1.705 0.842
-1.237 -1.838 0.739
-1.452 -1.801 0.583
-1.085 -2.004 0.503
-1.311 -1.964 0.338
-0.96 -2.23 0.303
-1.211 -2.186 0.121
-2.026 -1.588 0.931
-1.819 -1.616 0.68
-1.646 -1.713 0.421
-1.517 -1.871 0.167
-1.437 -2.084 -0.068
-2.203 -1.444 0.759
-1.986 -1.481 0.518
-1.813 -1.578 0.259
-1.692 -1.729 -0.004
-1.631 -1.926 -0.256
-2.342 -1.257 0.596
-2.117 -1.305 0.364
-1.944 -1.402 0.106
-1.83 -1.543 -0.166
-1.784 -1.721 -0.435
-2.438 -1.034 0.448
-2.208 -1.094 0.224
-2.034 -1.191 -0.034
-1.926 -1.321 -0.313
-1.889 -1.476 -0.598
-2.487 -0.785 0.321
-2.254 -0.858 0.104
-2.08 -0.956 -0.154
-1.974 -1.073 -0.44
-1.943 -1.202 -0.738
-2.311 -0.692 0.068
-2.37 -0.577 0.067
-2.189 -0.632 -0.224
-2.248 -0.516 -0.225
-2.128 -0.607 -0.539
-2.191 -0.484 -0.54
-2.131 -0.618 -0.861
-2.114 -0.682 -1.181
-2.003 -0.9 -0.803
-1.987 -0.962 -1.114
-1.927 -1.264 -1.052
-2.312 -0.441 -1.376
-2.242 -0.501 -1.651
-2.116 -0.68 -1.269
-2.044 -0.743 -1.552
-1.985 -0.96 -1.159
-1.906 -1.028 -1.469
-1.837 -1.343 -1.406
-2.121 -0.506 -1.916
-1.92 -0.747 -1.824
-1.77 -1.033 -1.766
-1.682 -1.348 -1.746
-2.018 -0.367 -2.203
-1.864 -0.768 -1.888
-1.729 -0.586 -2.265
-1.939 -0.122 -2.418
-1.625 -0.265 -2.547
-1.897 0.192 -2.527
-1.57 0.147 -2.691
-1.956 0.421 -2.508
-1.62 0.271 -2.677
-1.681 0.509 -2.657
-1.383 0.337 -2.889
-1.45 0.6 -2.867
-1.198 0.386 -3.152
-1.276 0.687 -3.126
-1.996 0.646 -2.441
-1.722 0.743 -2.587
-1.496 0.856 -2.79
-1.328 0.981 -3.039
-2.015 0.855 -2.33
-1.742 0.96 -2.472
-1.517 1.096 -2.663
-1.352 1.255 -2.893
-2.011 1.039 -2.18
-1.739 1.151 -2.316
-1.514 1.306 -2.491
-1.348 1.496 -2.696
-2.106 1.164 -1.908
-1.72 1.257 -2.235
-1.844 1.421 -1.879
-1.668 1.465 -2.085
-1.505 1.361 -2.45
-1.453 1.565 -2.303
-1.296 1.704 -2.546
-1.587 1.653 -1.922
-1.374 1.749 -2.143
-1.215 1.892 -2.383
-1.479 1.817 -1.75
-1.268 1.91 -1.974
-1.107 2.057 -2.211
-1.379 2.028 -1.517
-1.683 1.878 -1.211
-1.325 2.288 -1.323
-1.617 2.145 -1.029
-1.319 2.584 -1.178
-1.091 2.821 -1.245
-1.192 2.409 -1.391
-0.972 2.637 -1.456
-1.111 2.259 -1.642
-0.89 2.489 -1.707
-1.083 2.139 -1.92
-0.849 2.382 -1.989
-0.852 2.322 -2.287
-0.816 3.013 -1.267
-0.707 2.822 -1.477
-0.623 2.675 -1.729
-0.568 2.578 -2.012
-0.543 2.537 -2.312
-0.463 3.323 -1.084
-0.576 2.949 -1.44
-0.315 3.179 -1.304
-0.367 2.923 -1.657
-0.177 3.089 -1.559
-0.198 2.935 -1.908
-0.057 3.059 -1.834
-0.077 2.986 -2.18
0.041 3.09 -2.119
-0.01 3.073 -2.462
0.111 3.18 -2.399
-0.0 3.192 -2.74
0.151 3.324 -2.662
-0.048 3.337 -3.001
0.158 3.517 -2.895
0.018 3.374 -0.943
0.042 3.216 -1.2
0.081 3.117 -1.483
0.136 3.08 -1.778
0.202 3.107 -2.072
0.276 3.197 -2.351
0.356 3.346 -2.601
0.438 3.547 -2.812
0.466 3.148 -0.891
0.373 3.049 -1.162
0.322 2.995 -1.455
0.315 2.989 -1.757
0.352 3.031 -2.055
0.43 3.12 -2.333
0.548 3.25 -2.579
0.699 3.415 -2.782
0.725 3.006 -0.709
0.525 2.952 -1.115
0.774 2.816 -0.939
0.619 2.806 -1.364
0.87 2.668 -1.187
0.743 2.717 -1.627
1.008 2.572 -1.44
0.892 2.689 -1.891
1.182 2.53 -1.686
0.926 2.805 -0.509
0.968 2.622 -0.748
1.065 2.473 -0.994
1.214 2.366 -1.236
1.407 2.305 -1.463
1.057 2.557 -0.305
1.094 2.383 -0.551
1.192 2.232 -0.796
1.348 2.112 -1.027
1.553 2.026 -1.234
1.04 2.677 -0.058
1.165 2.316 -0.174
1.149 2.431 0.062
1.328 2.1 -0.057
1.312 2.215 0.179
1.539 1.918 0.039
1.523 2.038 0.286
0.979 2.767 0.195
1.091 2.517 0.304
1.254 2.301 0.421
1.462 2.128 0.539
0.877 2.824 0.444
0.993 2.571 0.542
1.156 2.355 0.659
1.36 2.185 0.788
0.737 2.845 0.68
0.859 2.592 0.768
1.023 2.375 0.884
1.22 2.206 1.024
0.406 3.093 0.833
0.703 2.695 0.902
0.398 2.923 1.043
0.71 2.572 1.142
0.419 2.789 1.277
0.756 2.48 1.392
0.466 2.698 1.526
0.841 2.425 1.643
0.539 2.651 1.783
0.961 2.407 1.884
0.634 2.652 2.036
1.112 2.426 2.108
0.748 2.699 2.276
0.2 3.324 0.732
0.235 3.06 1.055
0.049 3.27 0.963
0.102 3.062 1.303
-0.074 3.26 1.216
0.01 3.098 1.567
-0.164 3.294 1.481
-0.036 3.167 1.836
-0.218 3.371 1.746
-0.034 3.266 2.099
-0.232 3.489 2.002
-0.057 3.491 0.624
-0.185 3.421 0.865
-0.295 3.402 1.124
-0.383 3.436 1.389
-0.446 3.519 1.65
-0.481 3.65 1.897
-0.35 3.583 0.516
-0.45 3.505 0.768
-0.545 3.481 1.032
-0.632 3.514 1.298
-0.705 3.601 1.555
-0.764 3.739 1.794
-0.659 3.595 0.416
-0.731 3.515 0.677
-0.81 3.491 0.946
-0.894 3.523 1.213
-0.979 3.611 1.466
-1.063 3.75 1.697
-0.965 3.525 0.33
-1.008 3.452 0.598
-1.072 3.431 0.872
-1.154 3.464 1.139
-1.25 3.549 1.39
-1.358 3.682 1.613
-1.247 3.378 0.263
-1.264 3.318 0.538
-1.313 3.305 0.815
-1.393 3.339 1.082
-1.5 3.418 1.331
-1.631 3.54 1.549
-1.482 3.124 0.498
-1.519 3.122 0.778
-1.598 3.157 1.046
-1.714 3.228 1.292
-0.032 3.368 2.384
0.177 3.023 2.187
0.179 3.124 2.469
0.443 2.83 2.247
0.444 2.936 2.542
0.75 2.815 2.6
-0.08 3.426 2.677
0.131 3.181 2.758
0.395 2.996 2.845
0.695 2.881 2.933
-0.175 3.437 2.964
0.038 3.192 3.042
0.296 3.007 3.142
0.587 2.894 3.259
-0.313 3.4 3.231
-0.099 3.156 3.306
0.154 2.97 3.419
0.431 2.852 3.563
-0.486 3.318 3.465
-0.27 3.074 3.537
-0.025 2.884 3.661
0.234 2.758 3.828
-0.687 3.194 3.654
-0.468 2.951 3.724
-0.233 2.756 3.857
0.006 2.617 4.044
-0.948 3.187 3.74
-0.58 2.815 3.881
-0.883 2.808 3.981
-1.222 3.175 3.77
-1.2 2.794 4.016
-1.495 3.158 3.743
-1.517 2.774 3.984
[...]
CELL_DATA 4900
SCALARS cell_data_0 double
LOOKUP_TABLE default
1.51130994282e-10
8.78561562718e-10
6.35134903474e-10
4.04573250504e-10
7.65681024795e-11
6.36962772693e-12
7.82038993934e-10
4.95472725495e-10
3.92491176107e-10
6.22755141728e-10
5.6077731392e-10
1.46664960757e-10
2.9114679726e-10
4.9234135638e-11
2.93651235333e-10
1.93170817034e-10
1.09066536144e-10
4.61267724111e-10
8.51002954683e-11
7.09438353731e-11
6.2450013014e-11
2.41740217484e-10
5.85375010073e-11
2.62554869614e-11
5.78749288978e-10
3.54976260016e-10
1.81545252346e-10
8.55386433716e-11
1.81278231154e-10
8.62325769161e-11
2.17183847433e-10
2.04589783349e-10
2.63291835171e-10
5.64789805575e-10
1.20892658635e-10
1.65945903131e-10
4.17979608746e-11
2.07443880575e-11
9.29423130897e-12
1.56804436148e-11
2.11971405383e-11
1.11768478395e-11
1.25795654293e-12
2.90215826166e-11
3.19750261883e-11
3.14484064155e-11
1.951710032e-10
3.43174428912e-10
1.07460096315e-10
1.95881957827e-10
5.7868843075e-10
1.0795636813e-10
3.72980293861e-11
3.97149262287e-11
1.05298069495e-10
1.35549486116e-10
1.46766319585e-10
5.15593700466e-11
9.63811511531e-11
1.18579072763e-10
9.08745041171e-11
1.08374402826e-10
1.13399786917e-11
3.40143358765e-10
3.00464379081e-10
1.00325384928e-10
4.6771003424e-10
2.82380559466e-10
1.53605115657e-10
2.65341934356e-10
2.9812806068e-10
9.04255543743e-11
5.96753113021e-10
4.07748847233e-10
7.4758595617e-11
3.78921118531e-10
6.95064097265e-10
3.70659714037e-10
4.35426919258e-10
1.18490072505e-10
4.1366815474e-10
7.27939592255e-11
4.55765803104e-10
3.86277140505e-10
2.34956941747e-10
1.52765731452e-09
1.28503429211e-11
6.67942678289e-10
4.44781069936e-11
1.1220135359e-10
4.31564175187e-10
3.23644388597e-10
2.65080490988e-10
9.81561599482e-10
1.5057503555e-09
4.42605968477e-10
9.62621877208e-10
1.43670381033e-09
1.21904826268e-09
4.28203976261e-10
8.86194196961e-10
1.58793026761e-09
1.14512117671e-09
6.34367920983e-10
6.69688869561e-10
5.46112986597e-10
5.58021873747e-10
1.2598628832e-09
1.67882947887e-09
1.01502267342e-09
5.36405250201e-10
1.71639127834e-10
3.74885478057e-10
9.91279936316e-11
5.30013585911e-10
4.8967041129e-10
1.26232451267e-10
9.46042023339e-11
1.25617535701e-09
1.81693176118e-09
3.99268763823e-10
1.1943851534e-09
6.16349742908e-10
3.36941932277e-10
7.68468690666e-10
5.20744467916e-10
5.56921922099e-10
4.44970502702e-10
7.27469308615e-10
5.11791198098e-10
5.39201257233e-10
2.39387054355e-10
1.44079141884e-10
8.49712783764e-10
2.30333259339e-10
9.96442992815e-11
4.85506606648e-10
1.8376443996e-10
9.58410294376e-11
6.79810793955e-10
4.83575170545e-10
2.1155677919e-10
2.20491299365e-10
8.53038361756e-11
5.02446905589e-10
1.87837413675e-10
1.38464136388e-11
4.95908846878e-10
1.5998037547e-10
4.39617277094e-11
5.59138815877e-10
4.63564617379e-10
1.73613137021e-10
1.68807371922e-10
2.21971628376e-10
3.49759651929e-10
3.75763007187e-11
7.26196884956e-11
3.8498746029e-12
3.27333096597e-10
4.68272350054e-10
3.87522315547e-10
1.61554094597e-10
7.29622296367e-11
1.21962020305e-10
4.93178244846e-10
7.92867307528e-10
4.00400013151e-10
1.36038054124e-10
3.51217868106e-10
4.11617570047e-10
7.30880386621e-10
3.35555064794e-10
2.56971413881e-10
4.76531255537e-10
4.47724099919e-10
1.12753234681e-09
1.34678927129e-09
6.53972791253e-11
4.05400429405e-10
7.67023001523e-10
1.88534272981e-09
1.56990131368e-09
3.94391227248e-10
8.65957948988e-10
1.66436027311e-09
1.81196923836e-09
1.40382558583e-09
3.04033505632e-10
6.52078065422e-10
1.26881336895e-09
9.9976468443e-10
3.28990434801e-10
4.94056733792e-10
2.3733786407e-10
4.13505387643e-10
2.05773594364e-10
1.49023223151e-10
1.44318575735e-10
9.40067349382e-11
2.31085196628e-10
1.09481911407e-10
2.39338880686e-10
1.95847991493e-10
2.59418505018e-10
5.12846347679e-10
1.92894286256e-10
9.37032568759e-10
6.48876778456e-10
6.44165977391e-10
1.03951841763e-09
1.83488456389e-09
1.41435297697e-10
9.06017641712e-10
2.82886738308e-10
1.27968332832e-09
3.06643026811e-10
7.53863576792e-10
8.33063635817e-11
1.18140935219e-09
2.58617019089e-09
4.84927293091e-11
2.46922633215e-10
2.30856531465e-10
1.54472062764e-09
1.66541067555e-09
1.0223548664e-09
8.69945698583e-10
3.52274610739e-10
2.20466980828e-10
1.62128979125e-09
5.07979046475e-10
1.44952097897e-09
1.32358833487e-09
1.79148830614e-09
1.41579007817e-09
5.18980957425e-10
1.57918966475e-09
3.82576383446e-09
4.04325243176e-09
5.54499395566e-09
6.43489827054e-09
5.68184082473e-09
1.27155940318e-09
3.90507938952e-10
1.33757121151e-09
9.97288906046e-10
7.40445816809e-10
1.38134578951e-09
8.67963403467e-10
7.77722700315e-09
6.53782055798e-09
1.49644906293e-10
1.24612291368e-09
6.93527149602e-10
1.56970508713e-10
6.79941641017e-10
3.03138659789e-10
5.87375596723e-09
1.98734347795e-10
1.64961318156e-10
4.98823555817e-10
9.13132693987e-10
1.15709415247e-09
8.21229150677e-10
1.67047544782e-09
3.79023876663e-11
1.42909336009e-09
2.36520776868e-09
2.96814369074e-09
1.19875688829e-09
2.97444976476e-10
4.53832134428e-10
6.80382575052e-10
2.90703529758e-09
2.56283042018e-09
1.75213682523e-09
2.05295056806e-10
5.34590344916e-10
5.36177430251e-10
1.14627841881e-10
4.95923813232e-10
7.14942487885e-10
5.06953414194e-10
1.32732724741e-10
8.15244358656e-10
1.14217458424e-09
8.12385925642e-10
4.88587984243e-10
8.68055946619e-10
1.13803683533e-10
4.7243308288e-10
1.04070863115e-09
1.46982555561e-09
8.50384777275e-10
4.52685758421e-10
6.91588968851e-10
2.50677775268e-10
1.32738768835e-09
3.2847811208e-09
2.89033591297e-09
1.41958185092e-09
4.5150597504e-10
2.34545236491e-11
4.76218379052e-10
1.78393730737e-09
3.92858380475e-09
2.40927861497e-09
3.63947750736e-10
7.87399694622e-10
7.59532231815e-10
2.43008867156e-09
2.8595044875e-09
5.82052431442e-09
2.19834578409e-09
1.23450449331e-09
4.0206571216e-10
1.14991178036e-10
2.90515523191e-10
1.02804080009e-09
5.25011077127e-10
5.35981071876e-11
5.44361505964e-10
6.26960567225e-10
1.00783868626e-09
2.80149378959e-09
2.6452081551e-09
1.34734928305e-09
1.03199709781e-09
2.24214579098e-09
1.03173803467e-10
1.75275655472e-10
2.46356185627e-09
2.51936440706e-09
1.46322306277e-09
9.70969161851e-10
2.13998178665e-09
5.83268551311e-10
2.18642678801e-10
1.06236348662e-09
5.99098980804e-10
2.26912721955e-09
1.78967467491e-09
3.62238005733e-09
3.31838948623e-09
2.99379920672e-09
9.64905936825e-10
5.87013117846e-11
1.7700622064e-09
1.55602307157e-09
3.67431196375e-09
7.83655967482e-10
8.91362814248e-11
4.07631459206e-10
9.76181582956e-10
1.19681900577e-09
4.01067794697e-10
9.57227599489e-10
2.01969684487e-10
1.40217678151e-09
1.30601129915e-09
4.22877365224e-09
4.88854952701e-10
3.52441295901e-10
1.23437192092e-09
1.63632483287e-10
5.48028663641e-10
1.08084642165e-09
1.07710538459e-09
1.00167153592e-09
6.00742644184e-10
1.94208739181e-09
3.47861459704e-09
4.18915640075e-09
1.99781594968e-09
1.7860635733e-10
2.56464129115e-09
2.95488455678e-09
1.9773901316e-09
6.24482778018e-10
1.17112871201e-09
2.58300315845e-09
2.66267619642e-10
6.96612560144e-10
9.99801397244e-10
1.44875041396e-09
9.88949268787e-10
2.67968121132e-09
5.15341808441e-09
3.81336342987e-09
1.04487427506e-09
4.86779377933e-09
6.43413578545e-10
1.27066005578e-10
1.35982892715e-09
4.31932407965e-09
1.60458852373e-09
1.46596660898e-09
2.38025439761e-09
1.28443714083e-11
2.13045450066e-09
1.93138236565e-09
1.19488433658e-09
5.84844050596e-10
2.79891315699e-10
1.55640730307e-09
4.98497790769e-10
8.10660465888e-10
9.05347008728e-10
5.78708102259e-10
1.23284784282e-09
2.5367427494e-10
5.33206950925e-10
1.08581281589e-09
6.36791344053e-10
3.00628024495e-10
1.37452918027e-09
6.45719804361e-11
7.35967415133e-10
1.07563558229e-09
1.14032833092e-09
2.20719752507e-10
9.90478583769e-10
2.0512901173e-09
1.79744970309e-09
1.07023187552e-09
1.60844692086e-09
3.70067980866e-10
8.40250738479e-11
6.27502252265e-10
1.52981868845e-11
2.33790087472e-10
1.17286080275e-10
1.60058936555e-10
1.78629581686e-09
2.03314148455e-09
1.63829112765e-09
6.33875937559e-10
7.22825032321e-10
6.10799956976e-10
2.95603596338e-10
2.05677220305e-10
4.01354122056e-11
1.13856748258e-10
6.96407416021e-11
3.47791423289e-10
3.77493418616e-10
5.65637007726e-10
8.39887413251e-11
2.57024406499e-10
4.15304476341e-11
3.0630878981e-10
6.38227605763e-10
2.55058248525e-10
8.43223496453e-11
7.87768765583e-11
4.83864687938e-10
3.73502270694e-10
3.06048402929e-10
4.58701740974e-10
1.07820289768e-10
2.4720111284e-10
4.47195502045e-10
1.78830043962e-10
2.93411073703e-10
1.796384092e-11
1.86982239308e-11
1.84630873046e-10
6.60334215537e-10
6.65200600317e-10
3.97676312308e-10
1.95737768348e-10
6.60238011514e-10
3.34932799796e-10
9.92907759601e-11
1.07539986916e-09
1.09779820064e-09
2.40395964301e-10
6.85354620152e-10
7.01012096782e-10
1.27773105101e-10
6.55402583834e-10
5.16925697455e-10
4.45964996023e-10
7.30498550952e-11
5.5275802564e-10
8.3262237575e-10
5.94397573826e-10
9.59258821456e-10
3.72288911901e-10
5.31687990387e-10
7.59673326684e-10
5.97751779644e-10
5.05089543038e-10
8.73333927889e-10
4.79692046341e-10
1.32057023018e-10
1.57173940525e-09
2.67811422992e-10
1.15413693056e-10
2.09647995722e-10
1.73767217843e-10
5.55422726414e-11
3.53037674913e-11
7.43968825855e-10
8.64113711619e-10
2.16337708395e-10
2.92574370716e-10
3.44759849229e-10
1.36302211532e-10
5.7073318945e-11
4.6135333599e-11
9.33015066235e-11
3.61433399842e-10
4.06116280463e-10
3.44352078068e-10
3.86927139282e-11
2.46122173385e-10
1.31844813677e-10
1.91419491475e-10
1.40469639244e-10
2.57091388611e-10
2.98554826515e-10
2.69960592149e-10
8.25672215501e-11
2.07127187578e-11
4.60467348649e-10
2.0307815009e-10
1.62368576072e-10
5.59317721595e-10
5.78269937479e-10
1.62760313733e-10
1.61646060999e-10
2.51710862883e-10
4.69153361396e-10
4.00138712251e-10
9.75722472509e-11
1.40392655334e-10
1.52501341106e-10
1.53744259779e-10
1.06608284509e-09
9.08658340598e-10
3.05906206581e-10
5.29911905093e-10
3.68052668753e-10
1.69647612644e-09
2.28395075378e-09
3.81711964026e-10
2.97449981633e-10
2.62881098378e-11
5.81336115063e-10
3.22313515129e-10
8.98740003394e-11
3.08015631703e-10
2.29055294442e-10
3.65981869914e-10
9.51732091938e-11
2.99623436456e-10
7.72966093225e-11
2.12037941548e-10
2.27761707216e-11
1.20340045614e-10
1.08717216296e-10
3.08207195071e-10
2.63728386123e-10
3.16591234951e-10
6.90808081652e-10
1.13487871698e-09
1.94057841692e-10
4.45366756742e-10
2.54697626284e-10
2.37460092174e-10
2.86840749004e-10
3.38604659366e-10
4.01543174785e-10
3.27140351885e-10
1.42291929964e-10
2.7326115904e-10
5.12943976365e-10
7.4024598623e-11
3.65738493064e-11
2.41560473451e-10
1.20962028842e-10
6.27516885604e-11
1.91600254916e-10
5.2219586547e-11
3.85605018146e-11
1.16070280128e-10
4.37339853576e-10
2.47282933283e-10
5.81341559478e-11
2.87981424594e-10
1.62485762231e-10
4.44250551161e-12
8.21457966901e-11
7.9010166667e-11
2.57747823219e-10
1.2333351622e-10
1.61254299168e-10
4.19049463714e-10
3.86009770658e-10
8.20363566897e-11
3.14236275263e-10
4.91849520114e-10
4.06809816428e-12
3.49083659955e-11
3.35157380218e-10
5.17791905951e-10
4.31560257378e-11
1.26234731575e-11
2.7163760003e-11
7.17506638054e-11
1.50273023229e-10
2.38168046801e-10
1.19671115649e-10
4.95098967458e-10
5.55001385657e-10
3.94160618874e-10
3.42809149245e-10
1.72024074657e-10
5.00824416158e-10
4.6129214484e-10
4.29629022639e-10
1.42195446705e-10
4.12775680877e-10
7.57161288891e-10
6.37669338558e-10
4.67241962412e-10
9.039076188e-10
1.70670756377e-11
5.23710168243e-12
2.67156863557e-10
2.50783157684e-10
4.3294028896e-10
3.13535172734e-11
1.67045896825e-10
4.1076505261e-10
3.36850590377e-10
2.8203296049e-10
4.21479243028e-11
6.02948475637e-10
1.38740190641e-10
3.81710510482e-10
1.65602006369e-10
2.57822757354e-10
1.68192221499e-10
5.47743641605e-11
5.48219506392e-10
1.14199309714e-10
3.93920249338e-10
2.33112952305e-10
5.3753673819e-11
8.25396334202e-11
8.94266674295e-11
7.60492302871e-11
2.14714831604e-10
7.11722416706e-11
1.37319636001e-10
2.67733642499e-10
3.09922013062e-10
2.48961260048e-10
2.39814940134e-10
1.35668236288e-10
1.18356573641e-10
5.84170034775e-11
9.32654633239e-11
7.77119284689e-10
1.3508693517e-09
1.2048927753e-09
6.43737229201e-10
1.15559422072e-10
5.21816457747e-10
5.13237284483e-10
4.69433022743e-10
4.81275132103e-11
2.92884052077e-10
6.56941431982e-11
5.65014221096e-10
8.2667156946e-11
9.69320519315e-10
3.99696287582e-10
5.58105332204e-10
9.49368387956e-11
6.19192378781e-10
1.95935488535e-10
1.79715812699e-10
3.61054086181e-10
8.07480127016e-10
5.25497973019e-12
2.61996658321e-11
6.00688640944e-10
1.31143803473e-09
2.44485636113e-10
8.00256907292e-11
8.51905119636e-10
7.43013383595e-10
1.13338956323e-10
3.80179624089e-10
2.11405660481e-10
3.91072888701e-10
1.35108068002e-09
2.28278988836e-10
3.86997654656e-10
3.6486595219e-10
5.13865674135e-10
2.09666818554e-10
8.55625248045e-10
1.73344294397e-10
2.56940392678e-10
2.99978243488e-11
6.10512100153e-10
6.40278364919e-10
7.88296892155e-10
4.26273060526e-10
6.96931431158e-11
3.20632781066e-10
4.76214677035e-10
9.61009671315e-10
9.79023569295e-10
1.33922156939e-11
6.7185577427e-10
2.45536621334e-10
5.18600337573e-10
3.13808065811e-10
7.28468630988e-12
8.77976431267e-10
4.72427791008e-10
8.68978590289e-10
3.94673210609e-10
1.79162073888e-09
1.83122079476e-09
1.21671341278e-09
6.44658574408e-10
2.56922031731e-09
2.65256943552e-09
4.85842096256e-10
2.1919274692e-09
2.45883687498e-09
9.82178975385e-10
1.1285275021e-09
8.05933378048e-10
3.38910021731e-09
4.65312991526e-10
3.62949328972e-10
5.08551785584e-10
1.05540438917e-10
2.00312210417e-10
2.02131612242e-10
5.79171945827e-10
4.25815291728e-10
3.23907828341e-11
2.37630534542e-10
6.58853164502e-11
1.73394238949e-10
7.71755421261e-11
2.67686940356e-10
2.35741890693e-10
4.10767098478e-10
1.33253123401e-10
4.9971044337e-10
1.20523171531e-10
1.71364427033e-10
4.46674714751e-10
1.96794922182e-10
4.36823039796e-10
2.65958077441e-10
2.72522384286e-10
1.88211592247e-10
3.10803576527e-10
7.10849028743e-11
2.30842520975e-11
3.59568363323e-10
3.05503420959e-10
5.83095788073e-11
6.36348791251e-11
3.51565073539e-10
4.89510253529e-10
3.11131233087e-10
2.54980976328e-10
3.28878316138e-10
2.80281040221e-10
2.03875969701e-10
2.27420378721e-10
7.23846487053e-10
2.20338948824e-10
2.76016691333e-10
1.23266828322e-10
1.76814726643e-10
1.0134965701e-10
3.51280418731e-10
4.75592394656e-10
5.15480526425e-11
7.29548110246e-10
6.11386707026e-10
7.78411652226e-10
6.39225963303e-11
6.36931268158e-11
3.2761116039e-10
2.86861631822e-10
1.12451377333e-09
6.46142304937e-10
5.82132046059e-10
1.00223413998e-10
1.69390553247e-10
7.77577598799e-11
1.10107976973e-09
1.19074772233e-09
1.26780247062e-09
1.15757989577e-09
7.40228636298e-10
6.17012941814e-10
6.89345735323e-11
9.67252125874e-10
2.15889165421e-10
1.28732552221e-09
1.67929592028e-09
2.57197251703e-10
1.64992644404e-09
1.98808589163e-09
3.56853624565e-10
1.55245841699e-09
1.39372736959e-09
1.10498040425e-10
2.26238172281e-09
3.87926850831e-10
9.75755884376e-11
9.8590733207e-10
6.74598965976e-10
1.52774242174e-09
1.09896232211e-09
5.52464010191e-11
1.12997204531e-09
2.15995323835e-09
2.83074316797e-10
3.11080291324e-10
8.66944155474e-10
2.16684332547e-09
1.55409420455e-09
5.88552933244e-10
1.93497130821e-10
6.26675733641e-10
1.14771256746e-09
7.28630030701e-10
6.09156598879e-10
3.87474097283e-10
3.60571337166e-10
3.32080352758e-10
6.17613012788e-10
3.10197125988e-11
9.64372730459e-10
3.76123379948e-10
8.57652174777e-10
1.79493161174e-09
6.74159150451e-10
4.07802046939e-10
3.63633124481e-10
5.42308322174e-10
4.07178700029e-11
7.57363999668e-10
1.43348362455e-09
7.04140399071e-10
1.83423158184e-10
4.81751899696e-10
5.22586021072e-10
6.68821213397e-10
7.27044281526e-10
4.37966357285e-10
7.3853572292e-11
2.3713317756e-10
2.63317604266e-10
9.63341649309e-10
1.4940048512e-09
7.46253353898e-10
4.91173915278e-10
4.63873181569e-10
2.69523290523e-10
6.02034669452e-10
2.58167035841e-10
2.94050742838e-10
5.45736565619e-10
5.33415432138e-10
1.0007296589e-09
1.03871698261e-09
1.76478315998e-09
1.72390310535e-09
5.39037509175e-10
8.81690590731e-10
4.80491692162e-10
3.78442430022e-10
4.9450842738e-10
6.49073559098e-10
1.93969757066e-10
1.33857213313e-09
1.70046924652e-09
7.40017453762e-10
1.11983765698e-11
4.78112861916e-10
3.55947078046e-10
1.29245110788e-09
1.06962794018e-09
8.1926071883e-10
1.22054710351e-11
6.3394343096e-12
2.78289862156e-10
2.99630586783e-10
2.97946715399e-11
4.26954007673e-11
7.23790009451e-10
9.15726061325e-10
1.82252467795e-10
3.42169557696e-10
2.39822685067e-10
6.61694166844e-10
1.13736308562e-10
1.13181597223e-09
3.20580531467e-09
4.14635004877e-10
1.34510965084e-10
2.25862585173e-11
2.72013181632e-11
4.51765870605e-10
6.97219314898e-10
2.56234136732e-10
1.3054478798e-10
6.613474797e-10
1.86603826233e-10
5.31236706389e-10
1.82417136097e-09
9.29716628306e-10
2.88137779939e-10
6.93469306937e-10
1.07523013091e-09
6.4191598201e-10
3.0653706539e-10
5.52074759171e-10
1.47595641147e-10
1.97909826021e-10
5.64435688689e-11
5.0255387729e-10
5.47925362097e-10
9.64084510353e-10
5.29735296708e-10
1.37737175477e-10
5.94326769483e-11
1.33258455807e-09
1.49051149075e-09
1.05731457039e-09
3.84019204284e-10
1.58457806394e-10
2.26417056872e-10
5.80914554741e-11
7.5407882273e-10
6.21687955861e-10
8.2768136255e-10
2.13625397104e-10
1.58593149523e-10
6.0906644247e-11
1.31616775108e-10
8.59866573133e-10
1.08476760467e-11
3.1773001456e-11
3.39189798397e-10
7.86211399954e-10
5.93690312073e-10
7.9339032293e-10
7.45313628671e-10
8.77468764254e-10
3.92735162323e-12
4.54238706e-10
5.71155472408e-10
4.24338229779e-10
4.36359941008e-10
8.44404911631e-10
1.72248952849e-10
9.25178354256e-10
1.32351617668e-09
6.3425805904e-10
4.25367198689e-11
2.78778482326e-11
9.08472353398e-10
7.26147095843e-10
2.66360534032e-10
5.86930131101e-10
1.29233407323e-10
1.99942269313e-10
9.74154931711e-10
6.08108793766e-11
5.64921476554e-10
8.40268815375e-10
4.03181406926e-10
5.1425408594e-10
4.87442015246e-10
9.54952062861e-10
1.4759265102e-09
9.10144360717e-10
9.09309470851e-10
7.51094966736e-10
2.84918843628e-10
1.89967468286e-09
2.17361155813e-09
3.15416153006e-09
2.70185334673e-09
8.35563881874e-10
9.77369105479e-10
6.14554318698e-10
2.85398394092e-10
9.27101640654e-10
9.65045432463e-10
1.64077728668e-10
2.63159014153e-11
3.41424187548e-10
1.5819142305e-09
1.60168779107e-09
6.30440875548e-10
1.96969817755e-10
4.30751527399e-10
6.89878951996e-10
1.75295855528e-10
4.62375536664e-10
2.81963068223e-10
1.4970346457e-10
1.52988996583e-10
7.07201486491e-11
3.00896857682e-10
5.17443312634e-10
1.0981734115e-09
1.45628000362e-09
5.58656799789e-10
3.16319112421e-10
8.86508443405e-10
1.13259563107e-09
1.85432405978e-09
5.82777731409e-10
5.30623072018e-10
2.59283068811e-10
3.68688577148e-10
2.01887659965e-10
3.34334637005e-10
3.7130084326e-10
5.22996985049e-10
5.92198519553e-10
3.7256502375e-10
5.53746945978e-10
4.737521352e-10
9.59321317715e-11
7.01792548702e-10
7.54915398585e-10
8.63120595175e-11
4.72594646481e-10
5.80809618926e-10
1.05824331414e-09
7.09206599708e-10
8.53676785391e-11
1.85162137047e-11
5.90603276827e-11
1.28119027539e-11
3.95517529045e-10
2.08583272379e-10
1.536690801e-10
1.5590536652e-10
7.18339096785e-11
1.4752159745e-10
4.02921892185e-11
1.68251929732e-10
2.1778712939e-10
1.52168224504e-10
6.20614472244e-11
5.23465733573e-10
6.62357191543e-10
3.36701282611e-10
3.30683157822e-10
5.57018753276e-10
3.89843515789e-10
2.2054372923e-10
7.09137327003e-10
2.73861481179e-10
5.51035926693e-10
5.50280591293e-10
5.99483470159e-10
4.46642043172e-10
2.64810869426e-10
9.64366542406e-11
4.76452553541e-10
1.34318829035e-09
7.13019852844e-10
5.32918815704e-10
7.74943679646e-11
3.14663267494e-10
4.12394233943e-10
3.81256532685e-10
5.04411297276e-10
2.11134254393e-10
6.45351799945e-10
6.23037147783e-10
3.11645100295e-10
1.99654177993e-10
2.35248010393e-11
5.68619440656e-11
2.15270311081e-10
6.89328003504e-11
5.57626198198e-10
6.24481649207e-10
2.17871428477e-10
1.76362643153e-10
4.69991749184e-10
1.15367491084e-10
2.2408382914e-10
1.8805132915e-10
6.87110358374e-10
7.72940020646e-10
3.57545081546e-10
5.45645006302e-11
7.57751709424e-11