# vtk DataFile Version 3.0
File Name: Molecule/arg/arg_6.25-4.vtk
ASCII
DATASET UNSTRUCTURED_GRID
FIELD FieldData 1
TIME 1 1 double
0.0
POINTS 1083 double
-3.403 0.327 1.604
-3.458 0.149 1.214
-3.138 0.005 1.702
-3.19 -0.164 1.33
-2.981 -0.361 1.858
-3.036 -0.538 1.468
-3.398 0.034 0.803
-3.133 -0.274 0.938
-2.976 -0.654 1.057
-3.231 -0.009 0.408
-2.974 -0.315 0.561
-2.809 -0.697 0.662
-2.971 0.024 0.066
-2.725 -0.284 0.235
-2.549 -0.664 0.32
-2.984 0.046 0.042
-2.617 -0.045 -0.207
-2.63 -0.024 -0.229
-2.351 -0.22 -0.527
-2.365 -0.198 -0.55
-2.2 -0.483 -0.862
-2.216 -0.458 -0.889
-3.215 0.428 -0.189
-2.686 0.062 -0.328
-2.875 0.375 -0.517
-2.48 -0.047 -0.742
-2.657 0.246 -0.92
-2.39 -0.269 -1.153
-2.586 0.057 -1.35
-3.255 0.893 -0.375
-2.908 0.756 -0.67
-2.688 0.604 -1.063
-2.621 0.454 -1.509
-3.1 1.357 -0.484
-2.781 1.137 -0.759
-2.569 0.961 -1.147
-2.488 0.85 -1.602
-2.776 1.74 -0.497
-2.515 1.451 -0.77
-2.319 1.256 -1.157
-2.211 1.177 -1.613
-2.622 1.932 -0.429
-2.434 1.563 -0.734
-2.291 1.743 -0.67
-2.16 1.459 -1.077
-2.01 1.647 -1.011
-1.982 1.439 -1.492
-1.81 1.654 -1.416
-2.666 2.281 -0.134
-2.227 2.054 -0.482
-2.267 2.371 -0.214
-1.881 2.228 -0.637
-1.921 2.545 -0.369
-1.615 2.438 -0.879
-1.659 2.787 -0.585
-2.622 2.533 0.247
-2.227 2.6 0.132
-1.881 2.773 -0.023
-1.614 3.039 -0.203
-2.495 2.657 0.67
-2.111 2.713 0.516
-1.765 2.886 0.361
-1.488 3.163 0.22
-2.925 2.572 1.071
-2.251 2.77 1.005
-2.634 2.694 1.361
-2.033 3.002 1.293
-2.411 2.928 1.645
-1.863 3.333 1.507
-2.279 3.251 1.894
-3.186 2.284 1.521
-2.865 2.437 1.761
-2.64 2.674 2.039
-2.53 2.972 2.328
-3.419 1.801 1.788
-2.888 2.359 1.917
-3.122 1.876 2.185
-2.717 2.558 2.345
-2.979 2.017 2.644
-3.552 1.393 1.822
-3.202 1.735 2.161
-3.319 1.374 2.191
-3.094 1.732 2.585
-3.21 1.376 2.614
-3.107 1.793 3.017
-3.235 1.399 3.05
-3.548 0.964 1.825
-3.316 0.994 2.194
-3.206 1.001 2.617
-3.231 0.984 3.053
-3.408 0.559 1.798
-3.191 0.635 2.17
-3.084 0.647 2.593
-3.095 0.593 3.027
-3.105 0.348 2.085
-3.1 0.088 1.867
-2.97 0.105 2.152
-3.02 0.504 2.546
-2.901 0.29 2.606
-2.978 0.383 3.085
-2.865 -0.346 2.113
-2.52 -0.7 2.425
-2.789 -0.06 2.411
-2.48 -0.378 2.69
-2.828 0.19 2.745
-2.523 -0.123 3.02
-2.645 0.041 3.387
-2.483 -1.039 2.238
-2.249 -0.827 2.688
-2.072 -0.978 3.011
-2.036 -1.312 2.826
-2.003 -1.142 3.367
-1.962 -1.514 3.162
-2.359 -1.33 2.011
-2.214 -1.15 2.51
-2.096 -1.427 2.294
-1.914 -1.599 2.602
-1.826 -1.833 2.912
-2.159 -1.55 1.761
-1.905 -1.637 2.055
-1.716 -1.817 2.356
-1.606 -2.075 2.638
-1.897 -1.684 1.507
-1.655 -1.765 1.813
-1.457 -1.949 2.105
-1.318 -2.222 2.359
-1.592 -1.721 1.268
-1.365 -1.8 1.585
-1.156 -1.986 1.869
-0.984 -2.263 2.097
-1.926 -1.641 1.017
-1.351 -1.766 0.91
-1.664 -1.691 0.675
-1.133 -1.941 0.578
-1.457 -1.864 0.334
-0.96 -2.23 0.303
-1.327 -2.142 0.027
-2.203 -1.444 0.759
-1.923 -1.507 0.433
-1.726 -1.673 0.084
-1.631 -1.926 -0.256
-2.396 -1.15 0.52
-2.103 -1.231 0.209
-1.913 -1.387 -0.149
-1.843 -1.603 -0.519
-2.487 -0.785 0.321
-2.189 -0.889 0.022
-2.002 -1.032 -0.342
-1.943 -1.202 -0.738
-2.264 -0.668 -0.026
-2.322 -0.554 -0.027
-2.141 -0.611 -0.433
-2.203 -0.492 -0.433
-2.131 -0.618 -0.861
-2.114 -0.682 -1.181
-1.927 -1.264 -1.052
-2.312 -0.441 -1.376
-2.121 -0.506 -1.916
-2.042 -0.816 -1.214
-1.838 -0.886 -1.79
-1.682 -1.348 -1.746
-1.975 -0.256 -2.322
-1.864 -0.768 -1.888
-1.672 -0.441 -2.421
-1.897 0.192 -2.527
-1.57 0.147 -2.691
-1.996 0.646 -2.441
-1.495 0.306 -2.776
-1.602 0.798 -2.682
-1.198 0.386 -3.152
-1.328 0.981 -3.039
-2.011 1.039 -2.18
-1.619 1.224 -2.399
-1.348 1.496 -2.696
-1.72 1.257 -2.235
-1.631 1.561 -2.005
-1.259 1.801 -2.466
-1.479 1.817 -1.75
-1.107 2.057 -2.211
-1.346 2.153 -1.415
-1.642 2.007 -1.116
-1.319 2.584 -1.178
-0.816 3.013 -1.267
-1.159 2.356 -1.471
-0.676 2.767 -1.557
-1.087 2.175 -1.825
-0.583 2.604 -1.915
-0.543 2.537 -2.312
-0.229 3.384 -1.004
-0.488 2.934 -1.522
-0.105 3.176 -1.351
-0.228 2.93 -1.855
0.02 3.086 -1.745
-0.059 3.001 -2.236
0.134 3.123 -2.15
0.003 3.141 -2.63
0.229 3.284 -2.529
-0.048 3.337 -3.001
0.294 3.553 -2.848
0.466 3.148 -0.891
0.348 3.022 -1.277
0.313 2.987 -1.697
0.364 3.045 -2.112
0.497 3.193 -2.485
0.699 3.415 -2.782
0.833 2.913 -0.61
0.553 2.897 -1.196
0.905 2.671 -0.926
0.699 2.74 -1.539
1.067 2.504 -1.257
0.892 2.689 -1.891
1.303 2.425 -1.576
1.057 2.557 -0.305
1.12 2.33 -0.634
1.29 2.148 -0.952
1.553 2.026 -1.234
0.979 2.767 0.195
1.24 2.204 -0.113
1.167 2.404 0.362
1.539 1.918 0.039
1.462 2.128 0.539
0.737 2.845 0.68
0.936 2.478 0.823
1.22 2.206 1.024
0.406 3.093 0.833
0.701 2.629 1.02
0.405 2.851 1.157
0.756 2.48 1.392
0.466 2.698 1.526
0.897 2.411 1.765
0.584 2.646 1.91
1.112 2.426 2.108
0.748 2.699 2.276
0.102 3.399 0.689
0.142 3.058 1.218
-0.121 3.323 1.093
-0.01 3.117 1.656
-0.27 3.379 1.533
-0.034 3.266 2.099
-0.327 3.561 1.96
-0.29 3.571 0.538
-0.462 3.472 0.961
-0.606 3.526 1.403
-0.705 3.727 1.814
-0.721 3.587 0.398
-0.837 3.486 0.84
-0.976 3.54 1.283
-1.123 3.742 1.679
-1.138 3.445 0.287
-1.199 3.363 0.744
-1.333 3.418 1.189
-1.525 3.605 1.572
-1.502 3.118 0.685
-1.632 3.177 1.131
-0.05 3.403 2.531
0.304 2.919 2.221
0.288 3.057 2.654
0.729 2.855 2.766
-0.175 3.437 2.964
0.162 3.091 3.09
0.587 2.894 3.259
-0.395 3.364 3.353
-0.059 3.019 3.48
0.337 2.812 3.701
-0.687 3.194 3.654
-0.352 2.847 3.783
0.006 2.617 4.044
-1.13 3.18 3.766
-0.58 2.815 3.881
-1.094 2.799 4.011
-1.584 3.151 3.721
-1.62 2.766 3.959
-1.995 3.111 3.523
-2.096 2.719 3.73
-2.312 3.063 3.198
-2.464 2.664 3.352
-2.498 3.015 2.783
-2.679 2.608 2.871
-0.749 2.537 4.164
-0.16 2.345 4.321
-0.912 2.194 4.368
-0.321 2.009 4.521
-1.061 1.806 4.483
-0.466 1.628 4.634
-1.364 2.231 4.354
-1.452 1.611 4.604
-1.713 1.977 4.492
-1.735 2.528 4.103
-2.033 2.233 4.276
-2.128 2.66 3.763
-2.373 2.347 3.982
-2.496 2.611 3.374
-2.69 2.305 3.646
-2.791 2.388 2.985
-2.945 2.113 3.311
-1.464 1.095 4.666
-0.956 1.592 4.533
-0.968 1.074 4.596
-0.48 1.041 4.705
-1.655 0.731 4.634
-1.079 0.886 4.596
-1.26 0.541 4.565
-0.689 0.687 4.666
-0.881 0.322 4.633
-0.333 0.517 4.869
-0.555 0.096 4.831
-2.027 0.463 4.516
-1.383 0.368 4.531
-1.728 0.119 4.423
-1.114 -0.009 4.584
-1.476 -0.27 4.469
-0.878 -0.357 4.785
-1.3 -0.661 4.651
-2.342 0.241 4.242
-2.019 -0.087 4.169
-1.783 -0.487 4.202
-1.658 -0.914 4.34
-2.557 0.093 3.848
-2.219 -0.224 3.803
-1.993 -0.631 3.818
-1.903 -1.082 3.892
-2.301 -0.273 3.375
-2.078 -0.682 3.368
-0.557 -0.612 4.999
-0.228 -0.165 5.05
-0.202 -0.89 5.102
0.134 -0.447 5.155
0.164 -1.171 5.088
0.507 -0.734 5.141
0.347 -1.566 4.993
0.615 -0.976 5.092
0.789 -1.35 5.001
1.043 -0.806 5.264
1.226 -1.201 5.169
0.533 -1.916 4.791
0.965 -1.683 4.809
1.412 -1.551 4.967
0.709 -2.198 4.495
1.133 -1.951 4.529
1.588 -1.833 4.672
0.864 -2.393 4.127
1.28 -2.136 4.179
1.743 -2.029 4.303
0.987 -2.488 3.71
1.397 -2.227 3.783
1.866 -2.124 3.886
1.07 -2.477 3.273
1.475 -2.216 3.368
1.949 -2.112 3.449
1.107 -2.36 2.845
1.511 -2.104 2.962
1.986 -1.995 3.021
1.096 -2.144 2.456
1.5 -1.9 2.592
1.975 -1.78 2.632
1.037 -1.846 2.131
1.444 -1.616 2.284
1.916 -1.481 2.307
0.738 -2.198 2.121
0.836 -1.714 1.711
0.588 -2.005 1.702
0.77 -1.662 1.233
0.54 -1.933 1.225
0.848 -1.697 0.757
0.6 -1.988 0.748
1.061 -1.813 0.337
0.762 -2.165 0.327
0.341 -2.433 2.111
0.259 -2.2 1.694
0.235 -2.113 1.218
0.272 -2.183 0.74
0.364 -2.4 0.317
-0.112 -2.527 2.103
-0.115 -2.278 1.688
-0.112 -2.185 1.212
-0.103 -2.26 0.734
-0.088 -2.494 0.31
-0.57 -2.468 2.098
-0.494 -2.229 1.684
-0.464 -2.14 1.209
-0.482 -2.211 0.73
-0.546 -2.435 0.305
-0.837 -2.059 1.682
-0.782 -1.983 1.207
-0.825 -2.042 0.728
1.48 -1.078 0.031
1.028 -1.535 0.641
1.346 -0.978 0.409
1.078 -1.33 0.996
1.331 -0.887 0.812
1.205 -1.217 1.373
1.436 -0.812 1.205
1.4 -1.205 1.737
1.652 -0.762 1.553
1.644 -1.296 2.058
1.961 -0.739 1.826
2.335 -0.746 2.002
1.639 -0.712 -0.547
1.451 -0.719 0.207
1.594 -0.39 -0.313
1.526 -0.39 0.423
1.664 -0.072 -0.079
1.697 -0.118 0.66
1.842 0.216 0.134
1.696 -1.103 -0.765
1.721 -0.524 -0.905
1.774 -0.881 -1.103
1.914 -0.328 -1.213
1.966 -0.68 -1.408
2.201 -0.141 -1.444
2.257 -0.517 -1.652
1.645 -1.46 -1.037
1.727 -1.206 -1.352
1.92 -1.0 -1.653
2.207 -0.859 -1.914
1.488 -1.753 -1.343
1.584 -1.473 -1.631
1.779 -1.262 -1.928
2.057 -1.14 -2.207
1.239 -1.959 -1.658
1.357 -1.661 -1.918
1.555 -1.448 -2.211
1.818 -1.338 -2.51
0.916 -2.062 -1.958
1.063 -1.755 -2.191
1.266 -1.54 -2.479
1.509 -1.437 -2.797
0.547 -2.053 -2.217
0.726 -1.747 -2.428
0.934 -1.532 -2.712
1.154 -1.428 -3.046
0.159 -1.934 -2.416
0.372 -1.638 -2.609
0.586 -1.425 -2.891
0.782 -1.314 -3.237
-0.216 -1.714 -2.539
0.031 -1.437 -2.721
0.25 -1.227 -3.001
0.423 -1.103 -3.355
-0.548 -1.409 -2.576
-0.272 -1.16 -2.755
-0.048 -0.954 -3.034
0.104 -0.811 -3.39
-0.822 -1.287 -2.506
-0.408 -0.948 -2.806
-0.669 -0.831 -2.739
-0.336 -0.591 -3.197
-0.616 -0.466 -3.125
-1.158 -1.334 -2.315
-0.988 -0.705 -2.664
-1.33 -0.753 -2.469
-1.449 -1.354 -2.058
-1.627 -0.774 -2.207
-1.322 -0.31 -2.728
-0.95 -0.071 -3.189
-0.33 -0.315 -3.523
0.111 -0.551 -3.697
-0.251 0.008 -3.791
0.185 -0.248 -3.95
-0.104 0.358 -3.987
0.323 0.082 -4.134
0.101 0.716 -4.098
0.516 0.418 -4.238
-0.411 1.252 -3.909
0.252 1.048 -4.202
-0.118 1.435 -4.065
0.377 1.347 -4.4
0.11 1.626 -4.301
-0.398 1.946 -3.588
-0.108 1.937 -3.833
0.117 1.987 -4.134
-0.712 2.237 -2.975
-0.187 2.28 -3.528
-0.425 2.5 -3.065
-0.042 2.651 -3.554
-0.227 2.824 -3.192
0.028 3.029 -3.665
-0.135 3.18 -3.347
-0.298 2.727 -2.563
-0.128 3.001 -2.799
0.9 3.106 -3.671
0.147 2.667 -3.761
0.845 2.729 -3.765
0.177 2.31 -3.921
0.876 2.372 -3.926
0.989 2.064 -4.14
1.128 2.855 -3.473
0.819 3.383 -2.845
1.063 3.077 -2.811
1.418 2.615 -3.364
1.354 2.837 -2.702
1.749 2.404 -3.353
1.668 2.681 -2.526
0.858 3.054 -2.621
0.721 3.091 -2.55
0.962 2.795 -2.335
0.787 2.842 -2.245
1.123 2.627 -2.01
1.688 2.19 -1.733
1.386 2.606 -2.284
1.794 2.29 -2.083
1.962 2.454 -2.382
2.133 1.624 -1.992
2.116 1.881 -2.27
2.194 2.159 -2.516
2.141 1.301 -1.585
2.428 1.273 -2.257
2.435 0.969 -1.874
2.042 0.907 -1.262
2.342 0.599 -1.57
1.981 1.32 -1.261
1.884 0.909 -0.851
1.83 1.271 -0.85
[...]
CELL_DATA 2162
SCALARS cell_data_0 double
LOOKUP_TABLE default
8.30898311613e-09
9.92790535416e-09
6.36544501322e-09
4.70977755323e-09
7.62647082301e-09
4.74324496894e-09
5.44489196276e-09
3.0485869373e-09
3.90901333387e-09
3.97956577162e-09
2.44749956566e-09
1.79554191169e-09
6.71785355784e-09
5.17078062245e-09
2.23972483325e-09
1.09444497831e-09
4.46288156698e-10
1.40242327975e-10
1.70347769665e-10
1.98887272901e-10
3.89583278756e-10
3.99309512126e-10
3.97171870763e-09
1.67043723224e-09
2.77995329803e-09
2.57005011057e-10
1.3102230335e-09
6.86834876015e-11
4.59412718005e-10
6.96503495978e-10
1.83246023302e-10
7.41989665609e-09
5.99642171536e-09
5.60267918136e-09
7.70762828195e-09
1.62221777119e-08
1.35635374263e-08
1.09775038783e-08
1.61287932436e-09
2.16590786718e-08
1.98374315678e-08
1.60248939672e-08
1.43172424965e-08
4.82771526267e-09
1.03050162496e-08
1.47640683666e-08
2.40968727614e-09
8.46145739265e-09
5.95791808758e-10
9.77299253304e-10
7.79674443467e-09
9.81926198544e-09
3.92811015577e-10
3.40075577389e-09
5.10699556794e-09
8.39988907964e-09
1.69255357004e-11
8.35387580712e-09
5.16481333922e-09
2.58955256704e-09
1.93342595833e-09
8.62411536685e-10
1.97044576348e-09
2.51417383177e-09
2.69810990273e-08
2.18790456204e-08
2.63388150771e-09
5.3618209322e-09
3.89462697237e-09
2.26688779957e-09
3.56660076023e-08
6.6056204827e-09
1.24432034738e-09
2.86539495678e-09
5.08215293602e-08
5.30641625766e-08
1.54789320647e-08
1.36079381239e-08
8.31922230264e-09
6.42165911426e-09
5.34865946468e-09
4.89328703692e-08
1.95724017334e-08
1.57253632644e-09
2.94260715122e-08
4.58025054788e-08
1.94316133814e-09
7.14451968188e-10
1.82942956209e-09
2.02727853893e-09
4.73820479556e-10
6.49677807879e-10
1.46571721398e-09
7.02533890238e-09
4.91939718785e-09
5.45744351746e-09
1.90661958013e-10
5.9319428577e-09
8.28825949433e-09
8.17277090962e-09
8.53319879693e-09
2.74305253379e-08
2.95246662028e-08
2.83549232089e-08
4.81323750506e-11
1.64541471257e-09
3.38938731872e-09
2.74563673227e-08
2.68114683754e-08
2.13208668956e-08
2.08594356368e-09
1.43756800237e-09
5.56428952572e-08
5.18980137513e-08
2.39307273548e-08
3.33401652646e-08
3.30111848116e-08
4.26006618908e-09
1.39772192421e-07
6.15370757317e-09
3.05628538635e-10
8.27114799007e-07
9.24278600926e-07
9.01548736955e-07
3.38784891525e-09
4.34333957512e-10
1.23240288237e-08
7.78103462853e-09
9.88896478168e-09
4.21150006635e-09
2.37257942758e-09
9.04864282315e-09
1.08490859487e-08
8.82462222922e-09
2.2981068049e-09
1.74443389904e-09
1.26776341124e-09
1.02834405257e-09
1.85662424613e-10
1.28825884629e-09
4.12643690567e-10
7.92695692368e-10
1.30875120598e-09
6.71771835364e-10
1.12269597307e-09
2.35409463104e-09
1.62827854917e-09
4.01274838563e-10
7.37066209808e-10
1.30878389393e-09
6.67102894428e-10
1.80202135751e-09
4.28695202946e-09
1.27504568884e-09
1.62924323853e-10
2.35062200095e-09
1.64599609424e-09
6.49943489699e-09
1.72404396265e-09
9.94792908683e-10
2.55910078313e-09
5.42175442023e-10
1.57485666388e-09
2.08033496825e-09
6.67186170309e-10
9.98445154715e-10
3.73250500592e-10
1.77665848875e-10
7.0626774987e-11
9.80348408772e-11
3.1931199886e-10
1.37022623478e-10
6.72928009319e-10
5.44306498591e-10
7.09462620195e-10
9.06981700091e-10
6.76026796893e-10
1.2450084768e-09
5.53218735602e-10
1.22013987624e-09
3.40639280083e-09
3.46103185649e-09
5.58975004802e-09
1.99093803342e-09
1.45334968497e-09
2.63258019361e-09
3.97208894723e-09
1.75527913947e-09
6.47784813862e-10
1.40858495532e-09
2.00545548736e-09
2.48267154141e-10
1.25707153783e-09
3.13411069659e-11
8.72503012945e-10
5.30669291128e-10
7.89016392356e-10
5.65299215311e-10
2.90282203934e-10
1.21383725898e-09
2.84918915335e-09
1.39194254812e-08
1.13347715193e-08
5.03067377477e-10
8.7295287468e-09
1.04361480751e-10
1.22312703358e-09
8.2907164285e-10
2.49013911635e-09
2.89546333591e-09
3.66318720277e-09
1.15381475801e-10
7.64467990547e-10
9.7110393207e-10
8.84924769246e-10
7.74667508328e-10
1.54886403648e-11
2.22088450883e-10
4.11526789089e-10
6.34684963457e-11
2.43185060729e-10
3.03451567312e-09
2.39968216107e-09
1.57973399682e-09
4.38015206497e-10
3.3971348003e-10
5.14480256908e-11
8.02387315625e-11
3.71730395105e-10
9.64171655899e-11
3.58174654018e-10
9.28503648244e-10
6.15702597452e-10
1.93739969235e-09
2.73674693527e-09
7.93018379776e-10
6.56843537132e-10
1.04472169275e-09
2.44810709334e-09
2.57253160096e-09
9.33375962719e-10
7.38174445276e-10
1.28887343405e-09
1.05635074482e-09
9.20620695632e-10
4.71788916993e-10
6.99552323988e-10
1.61535211278e-09
6.57699209438e-10
3.0042601536e-10
1.02862905488e-09
7.61847129235e-10
3.83521927526e-10
1.06223721344e-11
1.86249620494e-09
2.36769298108e-09
1.52145525054e-09
1.87881651571e-10
5.54010312162e-10
5.28741020844e-10
8.47355153124e-11
2.6639637508e-10
4.84270324985e-10
1.01557845948e-09
2.14680540968e-09
3.82921717549e-10
4.38064955841e-10
1.0319909566e-09
1.77624502505e-09
2.06554495656e-09
4.48534153976e-09
5.30954960796e-10
1.8035723099e-09
3.4884554971e-09
2.52695544169e-09
2.81575537097e-09
3.26362004841e-09
7.85856918856e-10
2.9078545746e-09
3.05238469615e-09
2.37836952765e-09
1.94621992584e-09
3.08008625953e-09
1.73981791688e-09
2.92047049048e-10
3.91824735863e-09
3.82402792201e-09
3.12668848087e-09
2.9104814724e-08
2.74121537533e-09
3.02185227472e-09
1.85216511379e-09
4.57720338546e-09
5.83201939778e-09
8.46509424617e-09
7.61244639001e-09
7.50525942978e-09
1.29526955053e-08
1.03748526149e-08
4.62748352232e-09
1.8130378738e-09
5.75525055769e-09
5.58589860098e-09
4.49606358728e-09
2.6284299588e-09
6.33268448493e-08
7.08149697016e-08
6.0246107112e-08
1.11077405687e-09
9.61109945641e-10
1.33590152573e-09
1.24723786443e-09
1.1554296934e-09
3.69379849521e-10
9.65439175451e-11
2.69258625302e-08
5.95683104304e-08
2.19778985333e-10
1.61657336714e-10
9.47032434279e-10
2.47769812936e-10
1.4518118761e-09
5.37692068875e-11
2.30708575153e-09
4.82978801384e-09
5.39076120762e-09
1.30604426044e-10
1.24268671546e-09
6.42057510313e-09
7.81660040833e-09
2.09976735253e-09
1.50122728928e-09
1.0186779558e-08
2.55993186011e-08
1.36659193129e-08
5.35104091357e-10
1.95944280617e-09
7.11911286717e-10
3.16894886177e-09
9.46644999695e-10
1.28211235513e-09
1.88928114013e-09
2.8937430501e-09
3.92302532391e-09
3.32946892168e-09
1.04253649131e-09
1.8975632999e-09
2.15593979921e-09
6.29691507029e-10
8.67537044093e-10
1.12608901337e-09
5.0772497946e-09
4.81314170652e-09
3.61087045593e-10
2.16023862646e-09
1.58632491804e-09
1.10769538141e-09
4.66936325192e-09
4.18678728006e-09
2.14929203858e-09
2.37770938811e-09
4.40713762054e-10
1.52162433853e-09
3.95464470072e-09
1.62193131682e-09
2.07228389561e-09
1.3453162905e-09
2.46614197332e-09
2.74353252489e-09
3.77605019801e-09
2.48910180896e-09
3.0387562687e-09
1.82134661712e-09
7.06327206095e-09
3.37239705028e-09
4.56068538053e-09
6.4886262789e-10
3.08888590229e-10
5.18548194428e-11
8.75819345856e-11
8.68527151996e-10
1.70652531407e-09
3.49999317677e-09
1.0650006713e-09
2.38117977148e-09
3.84346912223e-09
3.1951367375e-09
4.45768109187e-09
6.90233867737e-09
4.15644331397e-09
2.88683329403e-09
8.62811292744e-09
4.00415791778e-10
2.45707184669e-09
7.97092395283e-09
2.07853966655e-09
2.49574621263e-09
9.2121042415e-09
2.0215937698e-09
3.14239667079e-09
1.84511632169e-09
2.05247324944e-10
1.38786738167e-09
1.95644238694e-09
8.61775886327e-10
1.17678828505e-09
1.2096752081e-09
1.20962320563e-09
2.02431764735e-09
3.72077041849e-09
5.19891824901e-09
4.98402647956e-10
4.982752781e-10
1.33371605436e-09
2.56318085193e-09
2.22491158883e-09
1.7619659293e-09
1.55660531402e-09
1.88804912111e-09
1.24065050812e-09
1.86211698884e-09
2.77789987564e-09
1.57314385851e-09
1.08303189317e-09
3.25204755213e-10
9.81335358231e-10
6.52124531064e-10
1.25408426901e-09
6.47683433564e-10
7.31510053205e-10
2.32950358061e-10
9.16667732084e-10
2.29860553751e-10
8.49665332277e-10
9.88455978619e-10
1.28579957337e-10
6.75828431542e-10
9.20449199327e-10
3.54869200091e-10
3.34734477427e-10
2.49872698984e-10
2.05732932694e-10
1.0022195316e-09
6.16221252186e-10
1.93101978714e-10
7.02531765419e-10
6.04142860577e-10
1.84939870563e-10
9.61308341836e-11
4.17253701394e-10
1.30293366169e-09
2.87608748091e-09
7.76242543234e-10
2.06285128317e-11
3.67689458074e-10
9.93475312086e-10
4.81634386361e-10
6.13779740257e-11
2.98495129651e-10
7.85004883204e-10
1.07529285428e-09
8.04295539292e-10
4.07860372178e-09
6.33424805258e-10
1.05874446563e-09
4.38313086635e-10
8.76168644979e-10
5.26947911876e-10
1.66238515036e-10
2.29005941931e-09
4.52982091264e-10
5.90580125554e-10
7.0124220288e-10
1.76055662843e-09
1.80303086919e-09
8.78336167814e-10
1.4154694791e-09
9.91244515488e-10
2.17965900127e-09
2.62589400991e-10
7.78649593833e-10
4.62814725394e-09
4.16466443976e-09
2.61105535621e-09
3.46869688758e-10
8.45397846293e-10
2.0151290523e-09
7.02174328989e-09
6.18430314514e-09
1.4366632334e-09
1.28764037834e-09
8.41348256484e-10
5.87813010657e-10
6.8853562349e-09
1.20138460002e-09
5.32288841354e-10
3.61332840281e-10
1.52347616978e-09
3.27744960662e-09
1.5102347274e-09
8.79971607616e-10
8.07191854249e-10
3.35775947076e-09
3.62810537539e-09
8.97973789439e-09
3.28059200253e-09
1.21482902757e-08
5.32912373884e-09
2.9987201004e-09
1.10236039192e-08
7.33857924501e-08
1.27996397323e-08
4.17092599289e-08
4.15039395365e-08
2.56562946292e-08
6.59354499222e-09
1.71769559096e-08
5.82309067953e-08
5.38939364408e-08
3.31948274156e-08
9.36997830699e-08
9.27441418153e-08
3.11844546234e-09
4.13804379679e-08
6.05149945364e-08
5.92092940394e-08
1.92047112596e-08
1.75391778202e-08
6.405887232e-08
6.57247552122e-08
7.29677222038e-08
1.7554109571e-08
8.40968680929e-09
2.19174202651e-07
2.66016569819e-07
2.88831495051e-07
1.62064473839e-09
1.11682966182e-08
1.17932146274e-08
9.00849422941e-09
5.47653789083e-08
3.90958234075e-08
5.78108023117e-07
4.78258736108e-07
4.3468770112e-07
9.96707510004e-08
1.5019226963e-07
1.21267835596e-07
7.77731668552e-08
4.95246570757e-08
6.24558247274e-08
1.79402221183e-07
6.88406546911e-08
8.34764445426e-08
1.35359171499e-07
1.00452018546e-07
1.15349814295e-07
1.64924276049e-07
5.74859395777e-09
1.11933788104e-07
1.14955614183e-07
1.24739896606e-07
2.48781845201e-08
5.51780557022e-09
6.92230291653e-10
7.19107493037e-08
5.98446743756e-08
7.57234197589e-08
1.7971191101e-08
3.8536471023e-08
5.95645467971e-08
3.94029808786e-07
4.28037945818e-10
3.22814591619e-10
3.09892926983e-10
7.09578051614e-08
7.66461711057e-08
7.81156653563e-10
1.1301617341e-09
1.67676060921e-09
1.49912310132e-08
1.80868835835e-08
5.77762568172e-08
6.15473940947e-09
4.58891058331e-08
2.74639820085e-08
6.27767200981e-09
1.28489475251e-09
3.16119516917e-09
1.60711104701e-08
1.51466224259e-08
2.14053721928e-08
2.15985435148e-08
2.17250908973e-07
1.43340904901e-08
3.18559766151e-09
2.37309589478e-09
1.00086277856e-09
1.89283050253e-08
1.62169896979e-08
4.11586543148e-09
2.7226247663e-09
8.14582437883e-10
4.50740626877e-09
2.61106249184e-09
8.55589491417e-10
2.4076002823e-09
5.14620304756e-09
4.2187478169e-09
3.45446318869e-09
8.94898073686e-11
8.50965910117e-13
3.93825804455e-08
5.62474782398e-08
6.02676039698e-08
5.0453047921e-08
8.3871871573e-09
2.00574488606e-08
2.39692490213e-07
2.69384641872e-07
8.16553621516e-08
4.30581600012e-08
7.84882032237e-08
1.27955311672e-08
3.76863855223e-08
8.16903106027e-08
3.82140265755e-08
2.9901480892e-08
1.17796645786e-07
4.20334986294e-08
3.82847287297e-08
1.84342298047e-09
4.48697878827e-08
6.54452893914e-08
6.09436616505e-08
8.70821567917e-08
7.44401409707e-08
1.10105942712e-07
1.82603722557e-07
9.64420267167e-08
8.46374334386e-08
5.65974005895e-08
5.8834324614e-08
9.79343318501e-10
1.02925033079e-08
2.8574317665e-09
1.20851605827e-09
2.56422715451e-11
2.1301220994e-10
1.74285814287e-10
2.87024905882e-10
2.62806025956e-10
2.05329645987e-10
1.08475622286e-09
6.30643002091e-10
8.59416125478e-10
2.63445885572e-09
3.85523091028e-09
9.76362468968e-10
4.34418303783e-10
3.89861524657e-11
4.84872983e-10
7.49886679556e-10
9.50696418188e-10
1.67055443539e-09
1.34425111608e-09
1.27342702264e-09
1.50183513994e-09
1.28634361955e-09
1.47888895509e-09
8.07640355234e-10
1.68927861779e-09
1.15488691231e-09
1.15395683235e-09
3.23907526176e-09
2.2571766237e-09
1.14727671867e-09
3.02645644854e-09
4.22817887825e-09
3.52154047603e-09
3.75678436539e-10
7.45831704995e-09
6.03012476702e-09
3.5225375425e-09
5.83479113351e-09
4.86822953047e-09
3.97155165898e-09
6.13880155061e-09
4.09409591687e-09
3.19912028297e-09
5.00861402332e-09
8.69309964663e-09
1.42620776986e-08
1.23864292926e-08
8.89452543694e-09
1.08875536057e-08
8.06156412564e-09
7.83749753465e-09
2.88465655539e-09
6.16989120162e-09
1.34581520301e-08
1.26237400608e-08
1.97794285297e-10
4.13069804232e-10
4.50089222679e-09
4.13946001745e-09
1.37827056785e-09
6.88845465532e-10
4.40535049253e-11
2.00865516969e-09
1.11473400278e-09
5.14456580956e-12
7.94584983027e-11
5.21485339673e-11
4.36678494929e-09
3.11879251877e-09
9.0547900033e-10
5.23866324066e-09
8.17779056248e-09
3.46164575164e-09
1.99902052621e-09
2.0692217918e-10
1.60105745e-09
1.89362816851e-09
8.26551549899e-09
6.39329387713e-09
1.02124520253e-09
7.12731851804e-10
3.41196916807e-11
2.03559604828e-10
8.18929058867e-10
1.40153261431e-09
2.23228102483e-09
2.42721868145e-09
3.3448682392e-10
2.08232875677e-09
3.29403405219e-09
1.2820804116e-09
2.54238661622e-09
4.92471187049e-09
2.16991283699e-09
2.38544895507e-09
3.19507990317e-09
1.11874023665e-09
8.78452440383e-10
1.21241959964e-09
5.39524322767e-09
7.02015805962e-09
4.55062849602e-09
1.48255800761e-09
1.34610404435e-08
2.52156976301e-09
6.55844066547e-09
3.70881354159e-11
3.06054257331e-09
4.35291110354e-09
8.9521296384e-09
3.44948199601e-09
1.1878018653e-10
5.15905322888e-09
8.95563103537e-09
7.49287633971e-09
4.49461968068e-10
3.35685992814e-08
2.37926945431e-08
4.00628638196e-08
1.65796495775e-08
1.18987272075e-09
5.29345648495e-09
4.18813238225e-09
4.04832158819e-09
1.15587648073e-10
2.66467825772e-10
8.5307539371e-09
1.0382527018e-08
1.53122491592e-09
1.38739369769e-09
3.65094430687e-09
2.5479426166e-08
6.88715993601e-08
3.44056828726e-08
3.2015083494e-09
7.18590129168e-08
7.56732064149e-08
1.0015488304e-07
7.40825770392e-09
1.02025600585e-07
9.3105072903e-09
7.27325713794e-08
4.90261612253e-10
5.42336346236e-10
3.40786411268e-09
1.6425131489e-09
1.75053354339e-09
1.75223590116e-09
7.37526635003e-11
6.6857217276e-10
1.33196065923e-09
2.43584800166e-09
2.45752817335e-09
1.0212543651e-09
1.96748122363e-09
4.59958232645e-10
1.43730953158e-10
4.03996825729e-10
1.63671785036e-10
6.45447280253e-10
6.81051398939e-10
3.85573407889e-10
9.99903843933e-10
2.08595049844e-10
1.08213787214e-10
2.01605098289e-09
4.91197059839e-10
2.33312595913e-10
3.54292469174e-11
2.60047682101e-08
2.41497108497e-08
1.4762188769e-08
6.2497530988e-13
1.7021874078e-09
1.21503599206e-09
7.11738201404e-10
7.65375889703e-10
4.70874955418e-10
9.57147757362e-10
1.50278117654e-09
8.51923379867e-10
1.28711231012e-09
9.6084259633e-10
2.19365696333e-10
5.82715091624e-10
2.25092143302e-10
6.16829013993e-10
2.96083228043e-09
3.98172992488e-09
4.31943456853e-09
1.83254144196e-09
7.28613121455e-10
1.48505851766e-09
3.47944099947e-10
1.47651788555e-09
5.44806745376e-09
2.19254367162e-09
1.45976907218e-09
1.71228656758e-09
1.78769071034e-10
7.97081727582e-11
8.24440607306e-11
2.14397248525e-09
5.93910063681e-09
1.73457053094e-09
3.06559423707e-09
1.0626918015e-09
7.04597767325e-11
1.89112463212e-09
1.7494394862e-09
2.94256911248e-10
5.47658483743e-10
4.17840962225e-09
3.90906403295e-09
1.21492098877e-09
1.84508599005e-10
3.89068685395e-09
3.10590065546e-09
2.13282721125e-09
3.93957477928e-10
6.89580733141e-11
1.10938179745e-09
1.45318798797e-09
2.21553049304e-09
1.57083405547e-09
2.91640476722e-11
6.49122234666e-10
1.34619056105e-10
2.68587413884e-10
9.24523357721e-10
5.89955541803e-10
5.22024026563e-10
1.36878971327e-09
4.60202467514e-10
1.1926024562e-09
6.47860270395e-10
1.59993971812e-09
1.06936799576e-09
2.4456090874e-10
1.49605732794e-09
9.59615250456e-10
6.15687790591e-10
1.2654487254e-09
5.29818024889e-09
2.1952768741e-09
1.14682149081e-09
1.10839134888e-09
1.49348889707e-10
9.93412072817e-10
1.06427294974e-09
3.91467192635e-09
2.55786081211e-10
1.79438429526e-08
9.68734283946e-09
2.29630008795e-08
1.02637877558e-08
1.40589387611e-08
7.01455137932e-09
6.56140153037e-09
5.85592379452e-10
1.34147695098e-09
1.99614907983e-09
3.95293220932e-09
2.06285542392e-09
4.64510744958e-09
4.33755885956e-08
2.80650618643e-08
3.21519394123e-08
2.43975338372e-08
2.44515297073e-08
3.58708508069e-09
3.10060143708e-08
3.45314316399e-08
1.61361674917e-08
1.01295389527e-08
1.55263164539e-07
6.66949811136e-08
6.44372521138e-08
9.82319039915e-09
1.56453635918e-08
2.56866162888e-08
9.5715274709e-09
8.32459949106e-09
1.90299754849e-09
8.24619168408e-09
6.55228300493e-09
4.76473044719e-09
1.86675005982e-08
4.77062095391e-08
1.6626984035e-08
3.0290454952e-08
1.75780318899e-08
1.57900296501e-08
1.43932021884e-07
1.3705941966e-08
4.159731937e-08
4.03606834588e-08
2.5338691613e-08
5.93991432997e-08
9.7882110291e-08
7.74835851586e-09
6.34754578408e-09
3.6456532966e-09
2.12163152442e-09
6.70202021815e-09
7.04207960953e-10
1.146413872e-09
3.958295851e-09
1.76305525478e-08
8.25492425006e-09
5.03741155802e-09
3.54834322789e-10
2.67992917969e-09
5.56243503333e-09
4.63094136847e-09
2.73444426677e-09
2.40624184303e-09
3.05625325638e-09
4.55895199122e-09
3.98415039019e-09
1.4564751589e-10
7.52904603846e-11
2.38955531421e-10
1.97800134782e-09
1.68784179601e-09
2.07322946633e-10
1.47779773437e-10
5.8427491957e-10
6.83188561043e-10
9.48964608202e-10
5.92987270063e-10
6.49975071328e-10
1.48578651019e-10
5.0176918184e-10
1.06778072916e-10
8.06072073467e-10
6.340556657e-10
5.15793262247e-10
1.04447363067e-09
3.89373423514e-10
5.41005081272e-11
1.93483607597e-10
2.81355338903e-10
5.92685304992e-10
6.14935711149e-10
3.55366802109e-10
3.23086520614e-10
9.29577578873e-10
8.09851126733e-10
4.39385189767e-10
4.61996110687e-10
2.51089670353e-10
3.40893141445e-12
1.52865924747e-10
2.4337632587e-10
6.59033984115e-10
3.94442701628e-10
3.74821665218e-11
2.41130094612e-10
2.32318274732e-10
2.17168697959e-10
2.33140262274e-10
2.25936905747e-10
3.79853262778e-10
5.52061717433e-11
7.86175927876e-11
1.76085016335e-09
1.77983649455e-09
1.95933020305e-09
7.79791920983e-10
4.8137829612e-10
5.14607093616e-09
2.82893910339e-09
3.28440482993e-09
2.97169820301e-10
6.45301684538e-11
1.03378088301e-09
8.21057326852e-11
4.13569878417e-10
8.64931729085e-11
5.32418417322e-10
9.33104433554e-10
4.65204079684e-10
1.29448671757e-08
1.43272779551e-08
1.49461847314e-09
5.0033162697e-10
2.00238451504e-08
2.29758700084e-08
2.70733618516e-08
2.82008054711e-09
5.83794608512e-09
4.85460672739e-10
4.18531203024e-09
2.52180220973e-09
4.55111230843e-09
3.94841118387e-09
2.63571869542e-09
3.38768465735e-09
4.40754000756e-10
2.00023837585e-09
7.40517700784e-10
6.68010325833e-10
6.76973653855e-09
6.69000747171e-09
6.96813786705e-09
2.14788374753e-09
2.99229762069e-09
3.92863958109e-09
8.36609716123e-09
2.51694581281e-09
4.82247195373e-10
6.72408714535e-09
6.11730462636e-09
3.48954182398e-09
3.16337566389e-09
1.89278028492e-07
1.61779193992e-07
1.95079704393e-09
3.32067697336e-09
1.72525417646e-09
1.02030093107e-09
6.81656340991e-09
5.22980845731e-09
9.28924741352e-10
5.8433977226e-10
1.3949002556e-07
6.70869892089e-10
4.49120936359e-09
6.22959432011e-10
4.06575076426e-10
5.06733781291e-11
1.2107052629e-09
1.0261302142e-09
9.66325031271e-10
1.27468382068e-10
1.24227282258e-09
8.19003309368e-09
6.71545655691e-09
3.56627228105e-10
1.33399000937e-09
2.50736953962e-10
9.61938065483e-10
8.04849255903e-10
1.73641506227e-09
3.16693382459e-09
1.75405268712e-09
1.78870970061e-09
1.63597216239e-09
2.33238819482e-09
1.71338447739e-09
1.29066849136e-08
9.72701493956e-09
1.72524977707e-08
1.46611266909e-10
1.09763964346e-08
1.06523122248e-08
1.78872558064e-09
3.86865685879e-09
5.44039532604e-09
6.52342226236e-09
4.25640790734e-09
3.89722528281e-09
4.56535872427e-09
4.10460637952e-09
3.40049647019e-09
2.03499503669e-09