# vtk DataFile Version 3.0
File Name: Molecule/arg/arg_2.0-2.vtk
ASCII
DATASET UNSTRUCTURED_GRID
FIELD FieldData 1
TIME 1 1 double
0.0
POINTS 324 double
-3.403 0.327 1.604
-3.398 0.034 0.803
-2.981 -0.361 1.858
-2.976 -0.654 1.057
-2.971 0.024 0.066
-2.549 -0.664 0.32
-2.984 0.046 0.042
-2.2 -0.483 -0.862
-2.216 -0.458 -0.889
-3.255 0.893 -0.375
-2.57 0.022 -0.532
-2.781 0.681 -0.857
-2.39 -0.269 -1.153
-2.621 0.454 -1.509
-2.776 1.74 -0.497
-2.407 1.34 -0.951
-2.211 1.177 -1.613
-2.622 1.932 -0.429
-1.982 1.439 -1.492
-1.81 1.654 -1.416
-2.495 2.657 0.67
-1.615 2.438 -0.879
-1.488 3.163 0.22
-3.186 2.284 1.521
-1.863 3.333 1.507
-2.53 2.972 2.328
-3.419 1.801 1.788
-2.717 2.558 2.345
-2.979 2.017 2.644
-3.408 0.559 1.798
-3.107 1.793 3.017
-3.095 0.593 3.027
-3.105 0.348 2.085
-3.1 0.088 1.867
-2.97 0.105 2.152
-2.978 0.383 3.085
-2.865 -0.346 2.113
-2.52 -0.7 2.425
-2.645 0.041 3.387
-2.268 -1.45 1.888
-2.003 -1.142 3.367
-1.726 -1.965 2.777
-1.592 -1.721 1.268
-0.984 -2.263 2.097
-2.203 -1.444 0.759
-0.96 -2.23 0.303
-1.631 -1.926 -0.256
-2.487 -0.785 0.321
-1.943 -1.202 -0.738
-2.131 -0.618 -0.861
-2.114 -0.682 -1.181
-1.927 -1.264 -1.052
-2.312 -0.441 -1.376
-2.121 -0.506 -1.916
-1.682 -1.348 -1.746
-1.897 0.192 -2.527
-1.864 -0.768 -1.888
-1.57 0.147 -2.691
-2.011 1.039 -2.18
-1.198 0.386 -3.152
-1.348 1.496 -2.696
-1.72 1.257 -2.235
-1.479 1.817 -1.75
-1.107 2.057 -2.211
-1.319 2.584 -1.178
-0.816 3.013 -1.267
-0.543 2.537 -2.312
0.466 3.148 -0.891
-0.131 2.956 -2.042
0.328 3.005 -1.907
-0.048 3.337 -3.001
1.057 2.557 -0.305
0.892 2.689 -1.891
1.553 2.026 -1.234
0.737 2.845 0.68
1.539 1.918 0.039
1.22 2.206 1.024
0.406 3.093 0.833
0.756 2.48 1.392
0.466 2.698 1.526
1.112 2.426 2.108
0.748 2.699 2.276
-0.152 3.531 0.588
-0.034 3.266 2.099
-0.572 3.688 1.862
-0.865 3.557 0.357
-1.261 3.713 1.639
-0.175 3.437 2.964
0.587 2.894 3.259
-0.687 3.194 3.654
0.006 2.617 4.044
-1.359 3.167 3.763
-0.58 2.815 3.881
-1.359 2.784 4.008
-1.995 3.111 3.523
-2.096 2.719 3.73
-2.423 3.039 2.998
-2.593 2.636 3.121
-1.061 1.806 4.483
-0.466 1.628 4.634
-1.543 2.398 4.242
-1.452 1.611 4.604
-1.868 2.121 4.396
-2.128 2.66 3.763
-2.373 2.347 3.982
-2.655 2.52 3.176
-2.827 2.227 3.476
-1.464 1.095 4.666
-0.48 1.041 4.705
-1.655 0.731 4.634
-0.333 0.517 4.869
-0.555 0.096 4.831
-2.342 0.241 4.242
-0.878 -0.357 4.785
-1.658 -0.914 4.34
-0.383 -0.749 5.065
-0.05 -0.304 5.117
0.164 -1.171 5.088
0.507 -0.734 5.141
0.496 -1.85 4.839
1.043 -0.806 5.264
1.375 -1.486 5.015
0.805 -2.327 4.281
1.684 -1.962 4.458
1.026 -2.497 3.536
1.905 -2.132 3.712
1.109 -2.324 2.763
1.988 -1.959 2.939
1.037 -1.846 2.131
1.916 -1.481 2.307
0.119 -2.499 2.107
0.77 -1.662 1.233
0.064 -2.164 1.215
1.061 -1.813 0.337
0.142 -2.466 0.313
-0.782 -1.983 1.207
1.48 -1.078 0.031
1.078 -1.33 0.996
1.331 -0.887 0.812
1.4 -1.205 1.737
1.652 -0.762 1.553
2.335 -0.746 2.002
1.639 -0.712 -0.547
1.697 -0.118 0.66
1.842 0.216 0.134
1.664 -1.393 -0.979
2.201 -0.141 -1.444
2.226 -0.795 -1.858
1.348 -1.888 -1.533
1.923 -1.27 -2.389
0.772 -2.072 -2.068
1.371 -1.446 -2.902
0.082 -1.898 -2.448
0.708 -1.279 -3.267
-0.548 -1.409 -2.576
0.104 -0.811 -3.39
-0.822 -1.287 -2.506
-0.336 -0.591 -3.197
-0.616 -0.466 -3.125
-0.988 -0.705 -2.664
-0.251 0.008 -3.791
0.185 -0.248 -3.95
0.101 0.716 -4.098
0.516 0.418 -4.238
-0.398 1.946 -3.588
0.377 1.347 -4.4
0.117 1.987 -4.134
0.028 3.029 -3.665
0.9 3.106 -3.671
0.989 2.064 -4.14
0.819 3.383 -2.845
1.749 2.404 -3.353
1.668 2.681 -2.526
0.699 3.415 -2.782
1.123 2.627 -2.01
2.133 1.624 -1.992
2.194 2.159 -2.516
2.042 0.907 -1.262
2.428 1.273 -2.257
2.342 0.599 -1.57
1.976 0.918 0.014
1.896 0.717 -0.83
1.788 0.151 -0.734
1.83 1.363 -3.817
1.863 2.209 -3.379
1.103 1.869 -4.167
2.073 0.663 0.819
1.861 -0.287 1.473
2.18 0.376 1.607
2.748 0.111 2.175
1.884 1.434 1.198
2.02 1.032 1.93
2.541 0.959 2.592
1.842 1.579 2.299
1.864 1.938 3.008
2.563 1.318 3.301
1.633 2.033 3.763
2.331 1.413 4.055
1.197 1.843 4.4
1.895 1.223 4.692
0.651 1.408 4.781
1.35 0.788 5.074
0.82 0.891 4.947
0.613 0.111 5.233
1.146 0.023 5.355
-3.741 1.924 0.843
-3.197 2.264 0.147
-3.741 1.553 0.199
-3.741 0.809 0.199
-3.741 0.437 0.843
-3.94 1.181 0.843
-2.871 -0.981 1.367
-2.307 -0.067 -2.173
0.367 3.512 -0.086
-0.376 3.711 -0.086
-1.12 3.307 -0.782
-0.505 3.826 2.497
-1.198 4.012 2.497
-1.198 3.826 3.191
-1.891 3.826 2.497
-1.891 3.597 3.203
-2.399 3.319 2.497
-1.895 1.207 4.74
-2.589 1.578 4.495
-2.589 0.836 4.495
-3.096 1.554 3.954
-3.096 0.86 3.954
0.518 -2.667 4.028
-0.18 -2.439 4.587
-0.18 -2.834 3.995
0.518 -2.834 3.297
-0.18 -2.973 3.297
-0.18 -2.834 2.599
0.518 -2.667 2.566
-0.18 -1.847 4.982
-0.878 -1.524 4.94
-0.878 -2.2 4.615
-0.878 -2.667 4.028
-0.878 -2.834 3.297
-0.878 -2.667 2.566
-1.47 -1.333 4.574
-1.47 -1.994 4.272
-1.47 -2.387 3.66
-1.47 -2.387 2.934
-1.865 -1.498 3.901
1.164 -2.311 -0.471
0.572 -2.591 -0.103
0.572 -2.758 -0.834
1.164 -2.311 -1.197
0.572 -2.591 -1.565
-0.126 -2.758 -0.136
-0.126 -2.897 -0.834
-0.126 -2.758 -1.532
-0.126 -2.363 -2.124
-0.824 -2.591 -0.103
-0.824 -2.758 -0.834
-0.824 -2.591 -1.565
-0.824 -2.124 -2.152
-1.416 -2.311 -0.471
-1.416 -2.311 -1.197
-1.416 -1.918 -1.809
-0.957 1.437 -3.446
-0.957 0.685 -3.554
1.907 1.65 0.623
0.933 2.637 3.76
1.525 2.409 3.029
0.933 2.17 4.347
0.235 1.817 4.714
3.668 -0.309 3.703
3.529 0.389 3.703
3.529 0.04 4.307
3.529 -0.658 4.307
3.529 -1.007 3.703
3.529 -0.658 3.099
3.529 0.04 3.099
3.134 0.776 4.4
3.134 0.227 4.876
3.134 -0.493 4.98
3.134 -1.154 4.678
3.134 -1.547 4.066
3.134 -1.547 3.34
3.134 -1.154 2.728
3.134 -0.493 2.426
3.134 0.227 2.53
3.134 0.776 3.006
3.134 0.981 3.703
2.542 1.209 4.434
2.542 0.742 5.021
2.542 0.066 5.346
2.542 -0.684 5.346
2.542 -1.36 5.021
2.542 -1.827 4.434
2.542 -1.994 3.703
2.542 -1.827 2.972
2.542 -1.36 2.385
1.844 0.389 5.388
1.844 -0.309 5.527
1.844 -1.007 5.388
1.844 -1.599 4.993
2.923 0.206 -2.769
2.759 0.566 -2.145
2.759 -0.154 -2.145
2.759 -0.515 -2.769
2.759 -0.154 -3.393
2.759 0.566 -3.393
2.298 -1.093 -2.769
2.298 -0.845 -3.532
2.298 -0.195 -4.004
2.298 0.607 -4.004
1.632 -1.006 -3.843
1.632 -0.368 -4.283
1.632 0.401 -4.377
0.892 -1.006 -3.843
0.892 -0.368 -4.283
0.3255 3.376 -2.8915
0.7995 3.2605 -3.2265
-0.01 3.183 -3.333
0.13875 3.3565 -2.94625
0.5625 3.31825 -3.059
0.61275 3.241 -3.28125
0.37575 3.29875 -3.11375
0.426 3.2215 -3.336
0.189 3.27925 -3.1685
0.227 3.12525 -3.5005

CELLS 644 2576
3 0 1 2
3 2 1 3
3 1 4 3
3 3 4 5
3 4 6 7
3 7 6 8
3 6 9 10
3 10 9 11
3 10 11 12
3 12 11 13
3 9 14 11
3 11 14 15
3 11 15 13
3 13 15 16
3 14 17 18
3 18 17 19
3 17 20 21
3 21 20 22
3 20 23 24
3 24 23 25
3 23 26 27
3 27 26 28
3 26 29 30
3 30 29 31
3 29 0 32
3 32 0 33
3 32 34 31
3 31 34 35
3 34 33 36
3 36 33 2
3 36 37 35
3 35 37 38
3 37 39 40
3 40 39 41
3 39 42 41
3 41 42 43
3 42 44 45
3 45 44 46
3 44 47 46
3 46 47 48
3 47 5 49
3 49 5 7
3 49 50 48
3 48 50 51
3 50 8 52
3 52 8 12
3 52 53 51
3 51 53 54
3 53 55 56
3 56 55 57
3 55 58 59
3 59 58 60
3 58 16 61
3 61 16 18
3 61 62 60
3 60 62 63
3 62 19 64
3 64 19 21
3 64 65 63
3 63 65 66
3 65 67 68
3 68 67 69
3 68 69 70
3 67 71 72
3 72 71 73
3 71 74 75
3 75 74 76
3 74 77 78
3 78 77 79
3 78 79 80
3 80 79 81
3 77 82 83
3 83 82 84
3 82 85 84
3 84 85 86
3 85 22 86
3 86 22 24
3 83 87 81
3 81 87 88
3 87 89 88
3 88 89 90
3 89 91 92
3 92 91 93
3 91 94 93
3 93 94 95
3 94 96 95
3 95 96 97
3 96 25 97
3 97 25 27
3 92 98 90
3 90 98 99
3 98 100 101
3 101 100 102
3 100 103 102
3 102 103 104
3 103 105 104
3 104 105 106
3 105 28 106
3 106 28 30
3 101 107 99
3 99 107 108
3 107 109 110
3 110 109 111
3 109 112 113
3 113 112 114
3 112 38 114
3 114 38 40
3 113 115 111
3 111 115 116
3 115 117 116
3 116 117 118
3 117 119 120
3 120 119 121
3 119 122 121
3 121 122 123
3 122 124 123
3 123 124 125
3 124 126 125
3 125 126 127
3 126 128 127
3 127 128 129
3 128 130 131
3 131 130 132
3 131 132 133
3 133 132 134
3 130 43 132
3 132 43 135
3 132 135 134
3 134 135 45
3 133 136 137
3 137 136 138
3 137 138 139
3 139 138 140
3 139 140 129
3 129 140 141
3 136 142 143
3 143 142 144
3 142 145 146
3 146 145 147
3 145 148 147
3 147 148 149
3 148 150 149
3 149 150 151
3 150 152 151
3 151 152 153
3 152 154 153
3 153 154 155
3 154 156 157
3 157 156 158
3 156 54 159
3 159 54 56
3 159 57 158
3 158 57 59
3 157 160 155
3 155 160 161
3 160 162 161
3 161 162 163
3 162 164 165
3 165 164 166
3 164 66 167
3 167 168 166
3 166 168 169
3 168 170 171
3 171 170 172
3 170 173 174
3 174 173 72
3 174 175 172
3 172 175 176
3 175 177 178
3 178 177 179
3 177 73 180
3 180 73 75
3 180 144 181
3 181 144 182
3 181 182 179
3 179 182 146
3 178 183 176
3 176 183 184
3 183 163 185
3 185 163 165
3 185 169 184
3 184 169 171
3 143 186 187
3 187 186 188
3 187 188 141
3 141 188 189
3 186 190 188
3 188 190 191
3 188 191 189
3 189 191 192
3 190 76 193
3 193 76 80
3 193 194 192
3 192 194 195
3 194 196 195
3 195 196 197
3 196 198 197
3 197 198 199
3 198 200 199
3 199 200 201
3 200 108 202
3 202 108 110
3 202 203 201
3 201 203 204
3 203 118 204
3 204 118 120
3 33 0 2
3 7 5 4
3 12 8 10
3 10 8 6
3 18 16 15
3 18 15 14
3 21 19 17
3 24 22 20
3 27 25 23
3 30 28 26
3 32 31 29
3 36 35 34
3 40 38 37
3 135 43 42
3 135 42 45
3 49 48 47
3 52 51 50
3 56 54 53
3 59 57 55
3 61 60 58
3 64 63 62
3 70 66 68
3 68 66 65
3 72 173 69
3 72 69 67
3 75 73 71
3 80 76 78
3 78 76 74
3 83 81 79
3 83 79 77
3 92 90 89
3 101 99 98
3 110 108 107
3 113 111 109
3 120 118 117
3 139 129 128
3 139 128 131
3 139 131 137
3 137 131 133
3 187 141 140
3 187 140 138
3 187 138 143
3 143 138 136
3 182 144 142
3 182 142 146
3 157 155 154
3 159 158 156
3 165 163 162
3 167 166 164
3 171 169 168
3 174 172 170
3 178 176 175
3 181 179 177
3 181 177 180
3 185 184 183
3 193 192 191
3 193 191 190
3 202 201 200
3 205 206 207
3 208 209 210
3 207 208 210
3 205 207 210
3 210 209 29
3 210 29 26
3 210 26 205
3 205 26 23
3 205 23 206
3 206 23 20
3 206 20 17
3 206 17 14
3 206 14 207
3 207 14 9
3 207 9 208
3 208 9 6
3 208 6 1
3 208 1 209
3 209 1 0
3 209 0 29
3 1 6 4
3 5 47 3
3 3 47 44
3 3 44 211
3 3 211 2
3 2 211 37
3 2 37 36
3 37 211 39
3 39 211 44
3 39 44 42
3 8 50 49
3 8 49 7
3 16 58 13
3 13 58 212
3 13 212 52
3 13 52 12
3 52 212 53
3 53 212 55
3 55 212 58
3 19 62 18
3 18 62 61
3 82 77 213
3 82 213 214
3 82 214 85
3 85 214 215
3 85 215 22
3 22 215 21
3 21 215 64
3 64 215 65
3 65 215 214
3 65 214 67
3 67 214 213
3 67 213 71
3 71 213 74
3 74 213 77
3 216 217 218
3 218 217 219
3 218 219 220
3 220 219 221
3 220 221 96
3 220 96 94
3 220 94 91
3 220 91 218
3 218 91 89
3 218 89 87
3 218 87 216
3 216 87 83
3 216 83 84
3 216 84 217
3 217 84 86
3 217 86 219
3 219 86 24
3 219 24 221
3 221 24 25
3 221 25 96
3 100 98 92
3 100 92 93
3 100 93 95
3 100 95 103
3 103 95 97
3 103 97 105
3 105 97 27
3 105 27 28
3 222 223 224
3 223 225 226
3 224 223 226
3 224 226 112
3 224 112 109
3 224 109 222
3 222 109 107
3 222 107 101
3 222 101 102
3 222 102 223
3 223 102 104
3 223 104 225
3 225 104 106
3 225 106 30
3 225 30 226
3 226 30 31
3 226 31 35
3 226 35 38
3 226 38 112
3 33 34 32
3 227 228 229
3 230 227 229
3 230 229 231
3 230 231 232
3 233 230 232
3 234 235 236
3 228 234 236
3 228 236 237
3 229 228 237
3 229 237 238
3 231 229 238
3 232 231 238
3 232 238 239
3 235 240 241
3 236 235 241
3 237 236 241
3 237 241 242
3 238 237 242
3 238 242 243
3 239 238 243
3 241 240 244
3 242 241 244
3 242 244 41
3 242 41 243
3 243 41 43
3 243 43 239
3 239 43 130
3 239 130 232
3 232 130 233
3 233 130 128
3 233 128 126
3 233 126 230
3 230 126 124
3 230 124 227
3 227 124 122
3 227 122 228
3 228 122 119
3 228 119 234
3 234 119 117
3 234 117 235
3 235 117 115
3 235 115 113
3 235 113 240
3 240 113 114
3 240 114 244
3 244 114 40
3 244 40 41
3 245 246 247
3 248 245 247
3 248 247 249
3 247 246 250
3 247 250 251
3 247 251 252
3 249 247 252
3 249 252 253
3 250 254 255
3 251 250 255
3 252 251 255
3 252 255 256
3 253 252 256
3 253 256 257
3 255 254 258
3 255 258 259
3 256 255 259
3 256 259 260
3 257 256 260
3 257 260 156
3 257 156 154
3 257 154 152
3 257 152 253
3 253 152 150
3 253 150 249
3 249 150 248
3 248 150 148
3 248 148 145
3 248 145 245
3 245 145 136
3 245 136 133
3 245 133 246
3 246 133 134
3 246 134 250
3 250 134 254
3 254 134 45
3 254 45 258
3 258 45 46
3 258 46 259
3 259 46 51
3 259 51 260
3 260 51 54
3 260 54 156
3 51 46 48
3 136 145 142
3 57 159 56
3 60 63 164
3 60 164 261
3 60 261 59
3 59 261 262
3 59 262 160
3 59 160 158
3 158 160 157
3 160 262 162
3 162 262 261
3 162 261 164
3 164 63 66
3 73 177 175
3 73 175 174
3 73 174 72
3 76 190 263
3 76 263 75
3 75 263 180
3 180 263 186
3 180 186 144
3 144 186 143
3 186 263 190
3 88 90 264
3 88 264 265
3 88 265 81
3 81 265 80
3 80 265 193
3 193 265 194
3 194 265 196
3 196 265 264
3 196 264 266
3 196 266 198
3 198 266 200
3 200 266 267
3 200 267 108
3 108 267 99
3 99 267 90
3 90 267 266
3 90 266 264
3 116 118 203
3 116 203 110
3 116 110 111
3 110 203 202
3 268 269 270
3 268 270 271
3 268 271 272
3 268 272 273
3 268 273 274
3 268 274 269
3 270 269 275
3 270 275 276
3 270 276 277
3 271 270 277
3 271 277 278
3 271 278 279
3 272 271 279
3 272 279 280
3 273 272 280
3 273 280 281
3 273 281 282
3 274 273 282
3 274 282 283
3 274 283 284
3 269 274 284
3 269 284 285
3 269 285 275
3 275 285 286
3 275 286 287
3 276 275 287
3 276 287 288
3 277 276 288
3 277 288 289
3 278 277 289
3 278 289 290
3 278 290 291
3 279 278 291
3 279 291 292
3 280 279 292
3 280 292 293
3 281 280 293
3 281 293 294
3 288 287 295
3 288 295 296
3 289 288 296
3 289 296 297
3 290 289 297
3 290 297 298
3 291 290 298
3 291 298 123
3 291 123 125
3 291 125 292
3 292 125 127
3 292 127 293
3 293 127 129
3 293 129 294
3 294 129 141
3 294 141 282
3 294 282 281
3 282 141 189
3 282 189 283
3 283 189 192
3 283 192 284
3 284 192 195
3 284 195 285
3 285 195 197
3 285 197 286
3 286 197 199
3 286 199 287
3 287 199 295
3 295 199 201
3 295 201 204
3 295 204 296
3 296 204 120
3 296 120 297
3 297 120 121
3 297 121 298
3 298 121 123
3 299 300 301
3 299 301 302
3 299 302 303
3 299 303 304
3 302 305 306
3 303 302 306
3 303 306 307
3 303 307 308
3 304 303 308
3 307 306 309
3 307 309 310
3 307 310 311
3 308 307 311
3 309 312 313
3 310 309 313
3 310 313 311
3 311 313 163
3 311 163 183
3 311 183 308
3 308 183 304
3 304 183 178
3 304 178 300
3 304 300 299
3 300 178 179
3 300 179 301
3 301 179 146
3 301 146 147
3 301 147 302
3 302 147 305
3 305 147 149
3 305 149 151
3 305 151 306
3 306 151 309
3 309 151 153
3 309 153 312
3 312 153 155
3 312 155 161
3 312 161 313
3 313 161 163
3 166 169 165
3 165 169 185
3 172 176 171
3 171 176 184
3 173 314 69
3 168 315 170
3 170 315 173
3 70 316 66
3 66 316 167
3 314 317 69
3 69 317 70
3 315 318 173
3 173 318 314
3 315 319 318
3 319 320 318
3 319 321 320
3 318 320 314
3 321 319 168
3 168 319 315
3 314 320 317
3 320 322 317
3 320 321 322
3 317 322 70
3 70 322 316
3 322 323 316
3 322 321 323
3 316 323 167
3 167 323 168
3 168 323 321

CELL_TYPES 644
5
5
5
5
5
5
5
5
5
5
5
5
5
5
5
5
5
5
5
5
5
5
5
5
5
5
5
5
5
5
5
5
5
5
5
5
5
5
5
5
5
5
5
5
5
5
5
5
5
5
5
5
5
5
5
5
5
5
5
5
5
5
5
5
5
5
5
5
5
5
5
5
5
5
5
5
5
5
5
5
5
5
5
5
5
5
5
5
5
5
5
5
5
5
5
5
5
5
5
5
5
5
5
5
5
5
5
5
5
5
5
5
5
5
5
5
5
5
5
5
5
5
5
5
5
5
5
5
5
5
5
5
5
5
5
5
5
5
5
5
5
5
5
5
5
5
5
5
5
5
5
5
5
5
5
5
5
5
5
5
5
5
5
5
5
5
5
5
5
5
5
5
5
5
5
5
5
5
5
5
5
5
5
5
5
5
5
5
5
5
5
5
5
5
5
5
5
5
5
5
5
5
5
5
5
5
5
5
5
5
5
5
5
5
5
5
5
5
5
5
5
5
5
5
5
5
5
5
5
5
5
5
5
5
5
5
5
5
5
5
5
5
5
5
5
5
5
5
5
5
5
5
5
5
5
5
5
5
5
5
5
5
5
5
5
5
5
5
5
5
5
5
5
5
5
5
5
5
5
5
5
5
5
5
5
5
5
5
5
5
5
5
5
5
5
5
5
5
5
5
5
5
5
5
5
5
5
5
5
5
5
5
5
5
5
5
5
5
5
5
5
5
5
5
5
5
5
5
5
5
5
5
5
5
5
5
5
5
5
5
5
5
5
5
5
5
5
5
5
5
5
5
5
5
5
5
5
5
5
5
5
5
5
5
5
5
5
5
5
5
5
5
5
5
5
5
5
5
5
5
5
5
5
5
5
5
5
5
5
5
5
5
5
5
5
5
5
5
5
5
5
5
5
5
5
5
5
5
5
5
5
5
5
5
5
5
5
5
5
5
5
5
5
5
5
5
5
5
5
5
5
5
5
5
5
5
5
5
5
5
5
5
5
5
5
5
5
5
5
5
5
5
5
5
5
5
5
5
5
5
5
5
5
5
5
5
5
5
5
5
5
5
5
5
5
5
5
5
5
5
5
5
5
5
5
5
5
5
5
5
5
5
5
5
5
5
5
5
5
5
5
5
5
5
5
5
5
5
5
5
5
5
5
5
5
5
5
5
5
5
5
5
5
5
5
5
5
5
5
5
5
5
5
5
5
5
5
5
5
5
5
5
5
5
5
5
5
5
5
5
5
5
5
5
5
5
5
5
5
5
5
5
5
5
5
5
5
5
5
5
5
5
5
5
5
5
5
5
5
5
5
5
5
5
5
5
5
5
5
5
5
5
5
5
5
5
5
5
5
5
5
5
5
5
5
5
5
5
5
5
5
5
5
5
5
5
5
5
5
5
5
5
5
5
5
5
5
5
5
5
5
5
5
5
5
5
5
5
5
5
5
5
5
5

CELL_DATA 644
SCALARS cell_data_0 double
LOOKUP_TABLE default
4.29069962503e-07
8.77283332493e-09
5.64530301842e-07
9.53176276876e-07
7.11922093019e-08
1.09598504501e-06
2.12712335281e-07
2.69266762067e-07
1.22039307672e-06
1.84102106638e-06
2.66614954326e-07
2.79423545664e-06
1.02669493119e-06
3.84828230205e-07
4.45080496096e-06
1.79975651957e-06
3.57658737293e-06
2.70242226587e-07
9.068109482e-07
4.99726179056e-07
2.17962629752e-07
6.19753307013e-07
1.29288361862e-06
1.10169783228e-06
3.72373339572e-08
4.26027350425e-07
6.95239719109e-07
7.35457967393e-07
3.56586335968e-07
1.44011152915e-07
1.3379104703e-06
7.20137888356e-06
3.45993031126e-06
1.75528081875e-05
7.25326638389e-06
2.70520351445e-06
4.76587544324e-06
1.62479505858e-06
1.14603799343e-06
1.47559596573e-06
8.53026830592e-07
6.67216627277e-07
1.11819102508e-06
3.37835030969e-07
5.92416149233e-07
7.99415943329e-07
3.1749687184e-06
1.27177489058e-07
4.43286282704e-06
3.46221873521e-06
6.04350440475e-06
7.01949052863e-07
4.02575712158e-06
3.39587785272e-06
4.01677962286e-07
2.1855542316e-06
3.70240379813e-06
3.12971005131e-06
4.36291968152e-06
1.12402283138e-05
1.10964879584e-05
2.80021112956e-06
3.31339547955e-06
8.06622603612e-07
7.45278218569e-06
3.77906502583e-06
3.18231297251e-06
3.04928126617e-07
1.1406653968e-06
6.72007444069e-08
4.67074808343e-08
5.99316301376e-07
5.57366052842e-07
2.85211097427e-07
7.03638334924e-07
1.01345746286e-06
4.91933928338e-07
6.18058788266e-07
4.40529597718e-06
5.85939209432e-06
1.06153308624e-06
4.74783002703e-07
3.12978404883e-08
9.1662069196e-08
1.4130600683e-07
1.52412462377e-07
6.26300938641e-08
1.64624418066e-07
5.55943190034e-07
9.92039993831e-07
2.05241798862e-06
5.3479366694e-07
6.81409314073e-07
2.04611093416e-07
2.47801153496e-07
6.64448737383e-08
4.95185533775e-07
1.31618469246e-07
1.34811606107e-08
8.32348487437e-07
2.07901787861e-06
3.40602016844e-06
3.34920353443e-06
4.30597870362e-06
4.13001517339e-07
1.3912008929e-05
6.97324950324e-06
9.41032599001e-07
5.06536116024e-07
1.4190390288e-07
9.77678705618e-07
8.40511140083e-07
5.85685833027e-07
1.9007919729e-06
2.12594312049e-05
1.19457442268e-05
3.25359940934e-05
2.97122406879e-05
1.18212080372e-05
3.92558970967e-06
3.69708438729e-06
1.08140962006e-05
1.74731993775e-06
1.17739538236e-05
1.00999214611e-05
6.89790942314e-06
3.03289399036e-06
2.29571451611e-06
8.89185604875e-06
3.8507054217e-07
5.50471994956e-06
3.50786098614e-06
7.26218338235e-07
1.44348535952e-06
1.79902490518e-06
2.40716534193e-06
1.59413054886e-06
2.22461941907e-06
3.2412278775e-06
3.2809606818e-06
1.21936455114e-06
2.73048155297e-07
2.62533966933e-06
4.70600920806e-06
3.72631004145e-06
1.38178862949e-06
4.5706589897e-06
9.46908183637e-07
1.5435562621e-06
4.73398674972e-06
4.78694958131e-06
1.19309864192e-07
5.40613047723e-07
1.69201297038e-07
1.41308591616e-06
1.45876035158e-06
1.14936289982e-05
3.65295436982e-05
5.10969601143e-05
3.62594013933e-05
5.50973008042e-05
0.000106379611917
0.000146882142641
4.92581743129e-05
3.64952448895e-06
4.71983411591e-06
5.53722400969e-05
7.56084302501e-05
1.78849357717e-05
5.90076278062e-06
1.03523328792e-05
4.16838176065e-06
3.49355638891e-06
8.7383969913e-07
2.56133366495e-06
1.27368530525e-07
0.000110101850834
0.00012778530265
2.76756744915e-05
2.08417615994e-06
7.46658254634e-05
6.53354948914e-05
6.973703995e-08
1.5339152003e-06
2.05652371872e-06
1.01193896764e-06
1.06548761731e-06
2.88481364079e-06
1.307110225e-06
8.35027716106e-08
1.07507539004e-05
3.73279015819e-07
4.05182623803e-06
2.48555334536e-05
2.16235133077e-05
2.99767081886e-05
2.34443617283e-05
9.1068521773e-07
4.85882433002e-06
3.37001787579e-06
1.50842030127e-06
2.29997608096e-06
2.17759454777e-06
5.98693421174e-07
3.81831991285e-07
4.86397487723e-08
7.44119600367e-07
1.67072393399e-06
3.32880481658e-07
3.28675577832e-06
4.11307538659e-07
2.88591444533e-06
2.74110727939e-06
3.97289764189e-06
1.68101009841e-06
2.01160109814e-06
1.65599321784e-06
5.80821672484e-07
1.73176685495e-05
9.81316235636e-07
3.929503884e-06
3.51271773753e-06
2.07636411161e-06
2.14317723924e-06
4.22868405474e-06
4.89087516513e-06
6.68078546563e-06
1.89373000653e-06
3.02983311935e-06
1.11188075495e-05
8.06498695434e-06
1.15094896794e-05
1.73201203327e-06
5.19959030942e-07
1.32046682989e-06
3.69463409052e-07
2.01703041185e-07
1.57978670656e-08
1.12209710691e-06
6.13499305596e-07
9.75758516007e-07
3.52787360034e-06
1.29170622551e-06
1.92751050988e-06
1.62794994204e-06
2.37187242821e-06
2.51734801624e-06
9.10236474651e-07
3.18929242197e-07
2.73681992683e-06
1.80516464049e-06
1.90161060012e-06
3.73344161337e-06
6.65682044808e-05
0.000142114214499
0.000135328970455
9.15048744017e-05
7.57472145459e-05
1.11615972625e-06
2.92412180252e-06
8.90947530291e-05
4.00131476658e-06
2.63174016156e-06
2.06679087484e-08
7.6115052982e-09
4.82114315472e-08
2.00010680668e-07
1.35439332033e-07
9.89247403679e-08
2.6194617047e-06
3.59906040296e-08
3.39599124584e-07
4.88407243657e-07
8.32328527233e-07
1.05348041339e-06
1.40470230009e-07
4.86215660128e-07
2.29891046737e-06
4.10256980607e-07
1.04168246285e-06
1.00526354621e-06
2.7754960052e-07
9.99269432102e-08
3.10998877423e-07
9.97618051851e-08
1.09367345051e-07
3.3331113687e-06
3.15978144727e-07
1.87198279272e-07
1.16724364764e-06
1.20025334202e-07
3.30613255142e-06
1.93791376608e-07
5.80379421501e-06
2.04729440098e-06
6.84388162953e-08
1.03369912253e-07
6.83200811863e-06
2.01219159263e-06
1.45557538654e-07
5.16249901947e-07
2.12208760162e-06
2.3528070347e-06
5.59748715351e-07
6.72461533156e-06
2.24651930219e-06
1.28025320719e-07
2.52071204926e-07
2.27824230571e-07
1.87357500552e-06
4.99742462125e-07
6.95351452154e-07
1.27670153809e-06
2.18391821194e-06
9.54260561586e-06
2.78716908856e-06
2.70499206283e-06
5.85962550642e-09
5.26684549272e-07
8.03389214647e-07
5.48977975821e-07
8.9907935071e-08
9.07341017551e-08
2.37905721262e-07
1.81675006331e-07
1.39008940486e-08
3.29929107832e-07
6.93232902953e-09
3.11866907833e-06
6.49607339592e-07
9.0121636244e-07
4.45755753428e-07
2.15495285119e-07
1.62423157139e-06
1.57673830412e-07
9.94321233623e-07
2.35385342018e-07
7.79382786091e-07
4.56095091401e-07
9.52924630224e-07
2.85139395586e-07
9.35689390088e-08
1.13681100059e-08
9.53149658497e-08
1.85740688727e-07
2.28109249691e-08
1.24862617101e-06
3.8726156505e-07
2.51112945879e-07
9.38640152376e-07
2.62959363392e-06
6.17426927021e-07
6.25311649006e-07
1.02104862013e-09
2.4609996308e-07
4.08970829503e-07
2.47563717672e-07
1.89386620481e-07
1.17496695324e-07
9.58849560508e-07
6.1502894302e-07
5.18868270756e-07
3.61812563331e-06
1.20565936454e-06
1.91085689736e-06
1.43722531147e-06
4.20613551617e-07
1.80186684552e-05
1.52378664024e-05
1.89241446366e-05
1.00777129327e-05
1.4150100444e-05
1.50171225145e-06
1.79794860035e-06
2.37739266707e-06
3.31913709722e-06
3.14792699228e-06
2.77956675997e-06
2.00479134909e-06
2.82846474889e-06
1.43052921552e-06
2.59058552928e-07
7.88482650312e-07
8.62982686047e-08
1.44515584429e-06
2.35001619914e-06
1.46735091887e-06
1.74965924846e-06
4.30970154246e-07
9.16738741821e-07
4.78713568127e-06
1.16511219752e-07
1.10491349446e-06
8.06132919468e-07
3.46208805345e-06
5.54241360872e-06
3.11717389062e-06
6.4307155573e-06
8.21683606464e-06
1.93385302574e-05
1.17699746342e-05
1.86765075042e-05
1.23455431483e-06
2.45362230254e-05
1.72929880244e-06
1.21484698502e-06
3.4451333051e-07
7.12221141385e-07
2.02260699561e-06
3.48499529226e-06
1.04169163876e-06
6.75948643528e-07
8.91206320823e-06
9.09195896267e-06
2.81494308e-06
2.22448301134e-07
4.75899677438e-07
3.96596844958e-06
7.14690186272e-09
6.46560773763e-07
1.43865685172e-07
7.91144124696e-07
1.01587256459e-06
5.63438183826e-07
7.73248853003e-09
2.68638420933e-07
2.29613313872e-08
1.51716728552e-06
8.10464775796e-07
7.8262178778e-08
7.11225625198e-07
4.56641361591e-07
8.29020359748e-07
3.04612893223e-07
1.08593188005e-06
2.39977388583e-06
4.65075284267e-07
2.35614758774e-06
2.04253928996e-07
2.99956610674e-07
1.64692649864e-06
1.34520705857e-06
2.69618384692e-06
3.95849370046e-06
3.50824584474e-06
6.93695354268e-06
1.45325153776e-06
3.4074038759e-06
3.67429163832e-06
1.27298391189e-06
1.07993043253e-06
6.99229437178e-07
9.09187108688e-07
3.00864747652e-06
1.52745998144e-07
5.75858662121e-07
2.26992621637e-06
1.27011170649e-06
3.25033107136e-06
2.94726859424e-06
1.52756350326e-05
1.1910021263e-05
8.86273073033e-07
9.19958233911e-06
2.17789151587e-06
6.33247309149e-06
1.43459147857e-06
2.97807765362e-06
4.41896896346e-06
4.9886669563e-05
3.42399773236e-05
9.15930064689e-06
4.42086838704e-05
1.36514600325e-06
2.62896032335e-06
2.01733228026e-07
2.59599683646e-06
2.71316220235e-07
1.03036782962e-06
9.77014265572e-08
9.27644386879e-07
8.77631558883e-07
2.80181790135e-06
1.9841763626e-06
1.04967058491e-05
1.20561783835e-05
8.61869612783e-06
2.66503034451e-05
2.08440630605e-05
1.05893815114e-05
6.04548957723e-06
2.01249673822e-08
3.29347184635e-06
1.68452343153e-06
2.41920659682e-07
1.36574305811e-06
1.36808310956e-06
6.28151838458e-06
9.20018012448e-07
2.18255031099e-06
2.94106209502e-07
1.93982207044e-06
4.82854368471e-07
8.99110579624e-07
9.88598359238e-07
1.72418447972e-07
2.76105372662e-07
6.51715953823e-07
1.12385470908e-05
2.0299667521e-06
8.53047083151e-07
1.83803012521e-06
2.01329189833e-06
4.32080773676e-06
6.21357233965e-07
3.80720913439e-06
3.07320930269e-07
1.43947784411e-06
6.55541807126e-07
3.5803109662e-07
3.43565151533e-07
4.10245706889e-06
8.06294460985e-06
1.76262592139e-05
1.14344968717e-05
4.66994553393e-06
2.78897388169e-06
5.02913284899e-07
1.77106067412e-06
1.6347156763e-07
1.89100541223e-06
1.90078316012e-06
7.56191379228e-06
1.38064803626e-05
1.22214121248e-05
6.92007628437e-06
2.75257577953e-06
9.52387296774e-06
3.25534958484e-06
8.42867309689e-07
2.8595154786e-07
1.03088014169e-06
9.38839231636e-07
1.58157787852e-06
1.66489560624e-06
3.61245989196e-06
1.18671779932e-05
2.57362040194e-06
7.93440184073e-05
3.07653828357e-05
5.01180521109e-06
2.71328819163e-06
2.3195230543e-06
8.29770472557e-07
8.96543468592e-07
7.15998417993e-07
7.75077853817e-09
9.5804558376e-07
4.44605468991e-07
2.79955915446e-06
6.76722845374e-07
2.00647506615e-05
3.58630056976e-06
5.87292910879e-05
2.35747900513e-05
2.62338189411e-06
3.96710620755e-06
1.80495923841e-06
6.11252558623e-07
1.70573051183e-07
1.12747899409e-06
8.66428987804e-07
2.29961196652e-06
2.03836955318e-06
6.05887871899e-07
4.67325379907e-06
5.51037595913e-07
2.01551778503e-06
2.96895728523e-07
1.52639207911e-06
1.69819170542e-06
3.73953621202e-07
1.0610611129e-06
1.7169400945e-06
3.02467695081e-07
1.03768460147e-06
8.74371537794e-07
4.1363970031e-07
1.43947864112e-06
1.40021448121e-06
3.9825401938e-07
2.0401952753e-06
1.19973504105e-06
1.16926675334e-05
2.32490250167e-06
1.97405966198e-06
1.93248197083e-05
3.13751522882e-06
3.46846894492e-06
8.55260435662e-06
3.32382970796e-06
3.14203755396e-06
2.98353257524e-07
4.22261533663e-07
2.42319998918e-06
7.3601438285e-07
3.29142019064e-08
2.28186151334e-06
2.04180035426e-06
4.34491439943e-06
9.37993787341e-07
4.71598465253e-07
3.02524430346e-06
1.56206846032e-06
6.3085603038e-06
0.000354612768784
8.17452299915e-05
0.000312646409225
0.000103467857232
2.83037837407e-05
3.0494474025e-05
6.26260046548e-06
4.24020188177e-05
2.81382145663e-05
2.27878798793e-05
1.36093786165e-05
2.5624453829e-06
1.2289123278e-05
2.72928956724e-05
9.26106314359e-05
0.000692093243145
8.40350519984e-05
8.24335269719e-05
8.8109115691e-05
5.44269868106e-05
6.71486932267e-05
9.28497572696e-05
1.81898827762e-05
1.41851005412e-05
0.000107630973787
0.000116525014327
2.92719107267e-05
0.000203454526465
0.000518082097125

