# vtk DataFile Version 3.0
File Name: Molecule/arg/arg_5.0-5.vtk
ASCII
DATASET UNSTRUCTURED_GRID
FIELD FieldData 1
TIME 1 1 double
0.0
POINTS 1014 double
-3.129219532 -0.28547227383 1.2576755285
-3.1676659584 0.01099874638 1.6079733372
-3.4186012745 0.063645109534 1.1104389429
-3.3933458328 0.29429316521 1.5858488083
-2.9998700619 -0.36936816573 1.7822431326
-2.9719018936 -0.74079793692 1.3849846125
-3.056876421 -0.26666024327 0.66471809149
-3.3076996803 0.045316137373 0.48049581051
-2.8375508785 -0.71603316069 0.75666552782
-2.9687223434 -0.13288035989 0.28845870495
-2.714056015 -0.34445291758 0.30712303519
-2.5550374985 -0.64018332958 0.29902902246
-2.480350256 -0.1653752774 -0.22858738899
-2.6668531895 -0.1080897674 0.0052795521915
-2.6788341999 0.072674959898 -0.36064392328
-3.0287823677 0.12061704695 0.029581528157
-2.399844408 -0.16420178115 -0.49525943398
-2.3191728592 -0.31739166379 -0.34998875856
-2.4216141701 -0.37789231539 -0.018775353208
-2.2085168362 -0.46392777562 -0.62481319904
-2.2238669395 -0.43678694963 -0.9242361784
-2.4639470577 -0.0543034859 -0.79419654608
-2.9119560719 0.47537595034 -0.53970086575
-3.2790665627 0.5621535778 -0.20021599531
-2.6889836788 0.34009152651 -0.93315112591
-2.607462883 0.15070416033 -1.3919306993
-2.4001641273 -0.2548660934 -1.123973608
-3.1620185375 1.2203843594 -0.45447042584
-2.8177628517 1.0460551977 -0.75025343895
-2.6093280315 0.88036370277 -1.1276112795
-2.5381643772 0.79364389181 -1.5533589125
-2.8178522587 1.6860924959 -0.49227082729
-2.5134632587 1.4118322134 -0.80025988817
-2.315100193 1.2121938467 -1.2071092129
-2.1901853085 1.1418553591 -1.6849735975
-2.5874190331 1.9710235596 -0.42017957568
-2.5287051201 1.6572978497 -0.61256992817
-2.2466261387 1.7435398102 -0.69781708717
-2.1346576214 1.5249464512 -1.0392725468
-1.906293273 1.8600172997 -0.86470097303
-1.7331111431 1.7787256241 -1.2974797487
-1.9277603626 1.4894732237 -1.5170925856
-2.4330785275 2.3504953384 -0.16024067998
-2.1220986843 2.1124157906 -0.50299042463
-1.9521433115 2.5387523174 -0.32983741164
-1.7183488607 2.3567354679 -0.75349122286
-1.5718109608 2.8754074574 -0.69991075993
-2.1410338879 2.621989727 0.072841510177
-2.5824480057 2.5253248215 0.17627310753
-1.657856822 3.0107512474 -0.20928169787
-2.4529964924 2.664867878 0.60824471712
-1.8790006638 2.8225176334 0.43539741635
-1.4720847607 3.1773867607 0.2488091588
-2.8544039726 2.6097877026 1.0014876127
-2.2790284157 2.7552504539 1.0471476316
-2.6704678535 2.6675534248 1.4302814007
-2.0150430202 2.9933786392 1.2577593327
-2.3557744026 2.9437863827 1.5689889193
-1.8959387541 3.3292245865 1.5571666956
-2.3036832809 3.2467749119 1.9710183144
-3.1878757477 2.2841062546 1.496721983
-2.8242311478 2.4770286083 1.734323144
-2.6172018051 2.6900942326 1.987492919
-2.5223536491 2.9780058861 2.361821413
-2.8899583817 2.3468008041 1.9725728035
-3.0784704685 2.0171422958 2.1257410049
-3.4388096333 1.772492528 1.7544440031
-2.7869665623 2.457829237 2.4314863682
-2.9527812004 2.0612344742 2.6620359421
-3.6539206505 1.1321419477 1.6937114
-3.3695502281 1.2361212969 2.1107869148
-3.2048966885 1.6754380465 2.1851112843
-3.0996673107 1.731851697 2.5324296951
-3.2244546413 1.2933664322 2.5758302212
-3.1259543896 1.755307436 2.9588637352
-3.2488174438 1.1256815195 3.0188782215
-3.4144124985 0.62922561169 1.8289058208
-3.1941025257 0.67831999063 2.1880707741
-3.1546361446 0.81509578228 2.5770206451
-3.1148338318 0.62473195791 2.9631023407
-3.1405057907 0.37507796288 2.027794838
-3.0570988655 0.031974196434 1.9103816748
-2.9042496681 0.083305358887 2.2581450939
-3.0376768112 0.45085853338 2.3543922901
-2.9036478996 0.31891801953 2.6490037441
-2.9501645565 0.35337027907 3.1446845531
-2.8386771679 -0.35586616397 2.1647348404
-2.3292348385 -0.4706710577 2.8120975494
-2.6822834015 -0.18639782071 2.5533938408
-2.5448031425 -0.66338127851 2.41187644
-2.4936323166 -0.16412866116 3.0082755089
-2.7352340221 0.078828662634 2.8820509911
-2.6647341251 0.063076004386 3.3718817234
-2.5004532337 -1.0934689045 2.1151590347
-2.2938799858 -1.4270025492 1.870785594
-2.2206516266 -1.243370533 2.3470518589
-1.9685448408 -1.6598793268 1.6061760187
-1.9663052559 -1.5689675808 2.2156379223
-1.6113766432 -1.8352131844 2.0760686398
-1.8771822453 -1.6564002037 2.6097002029
-1.6909171343 -2.0015070438 2.7710773945
-1.3873741627 -2.1995210648 2.4223444462
-1.208994627 -1.9212573767 1.7749886513
-1.5426273346 -1.755592823 1.3216080666
-0.94850444794 -2.2896499634 2.1274757385
-1.7543714046 -1.6221623421 0.58257949352
-1.3403716087 -1.7692188025 0.87942278385
-1.9900619984 -1.6124575138 1.0094252825
-1.1622545719 -1.9296944141 0.53684467077
-1.5467450619 -1.7985686064 0.28084608912
-0.94374829531 -2.2568280697 0.2515950501
-1.3791621923 -2.1239786148 -0.03970669955
-2.3705568314 -1.2281163931 0.63138085604
-2.0899779797 -1.2774583101 0.26756420732
-1.886965394 -1.444904089 -0.039966959506
-1.7834388018 -1.705247879 -0.45675966144
-2.434576273 -0.9503531456 0.34859606624
-2.1274118423 -0.97209084034 0.0072120744735
-1.973035574 -1.0819926262 -0.33780038357
-1.9419142008 -1.2024160624 -0.7456433773
-2.3048803806 -0.67807108164 0.031675621867
-2.0915982723 -0.74789792299 -0.34814363718
-2.2249166965 -0.51549214125 -0.30807602406
-2.057090044 -0.77323067188 -0.78617048264
-2.0027751923 -0.87753659487 -1.2465057373
-1.8685728312 -1.4697633982 -1.1319662333
-2.314009428 -0.40477773547 -1.4282847643
-2.159696579 -0.60047227144 -1.1334235668
-2.1361153126 -0.50508022308 -1.8818792105
-1.8373838663 -0.88653618097 -1.7904331684
-1.6678901911 -1.3781546354 -1.7344139814
-1.9804667234 -0.25248682499 -2.3146862984
-1.8251429796 -0.61405009031 -2.1089029312
-1.651265502 -0.3790871501 -2.4709279537
-1.8663319349 0.16125971079 -2.5480947495
-1.3985087872 0.028557837009 -2.7915475368
-2.0086083412 0.61782300472 -2.4284482002
-1.5044242144 0.36057442427 -2.7689945698
-1.6393988132 0.80196607113 -2.6370823383
-1.3237115145 0.97776603699 -3.0428013802
-1.2375215292 0.36909502745 -3.1107060909
-2.0079271793 1.0406326056 -2.1839163303
-1.5690326691 1.2286154032 -2.4697442055
-1.3043367863 1.5989072323 -2.761926651
-1.6198321581 1.5308681726 -2.0819590092
-1.1163254976 2.068980217 -2.1720619202
-1.461365819 1.8570363522 -1.721912384
-1.3983098269 2.1188476086 -1.381649375
-1.6136399508 2.0837721825 -1.0713435411
-1.3448681831 2.5888700485 -1.1392506361
-0.85569477081 2.9516382217 -1.3159474134
-1.084236145 2.330552578 -1.5916725397
-0.63274985552 2.6188578606 -1.8035005331
-0.54385364056 2.5130729675 -2.3647441864
0.037212260067 3.5561385155 -0.627846241
0.26821276546 3.0278334618 -1.3040536642
-0.71776384115 3.338539362 -1.0181257725
0.47404193878 3.142059803 -0.90234953165
-0.43162077665 2.9433608055 -1.5435878038
-0.16694535315 2.9399616718 -1.9892497063
0.33773374557 3.0103969574 -1.9069176912
0.021813226864 3.1211750507 -2.551846981
0.34081831574 3.061839819 -2.1691160202
-0.069793507457 3.3135633469 -2.9655709267
0.30635693669 3.3938205242 -2.653523922
0.85530608892 2.8905291557 -0.67240417004
0.61345863342 2.828887701 -1.3191115856
1.0217982531 2.5348873138 -1.1725772619
0.85061502457 2.6949124336 -1.8216305971
1.3065092564 2.4295265675 -1.597877264
1.1761007309 2.249458313 -0.71683877707
1.022277832 2.5971903801 -0.26170235872
1.5102436543 2.0739703178 -1.2145401239
1.2252197266 2.1818759441 -0.19757281244
1.1576172113 2.4225661755 0.30967846513
0.93266832829 2.816113472 0.19545659423
1.5233361721 1.9398185015 0.10655269027
1.4501264095 2.1392016411 0.60379493237
0.75804507732 2.8304913044 0.65464878082
0.9980237484 2.420068264 0.76810276508
1.2219334841 2.2031354904 1.031758666
0.41116446257 2.8060622215 1.300630331
0.76583105326 2.539504528 1.1082057953
0.40704265237 3.0869021416 0.85826468468
0.8000870347 2.4707765579 1.6818319559
0.42094171047 2.7192494869 1.8047035933
0.72897928953 2.7113654613 2.2569842339
1.1564460993 2.3823320866 2.0841989517
0.025854561478 3.4350395203 0.70769292116
0.09847573936 3.0794990063 1.217777133
-0.22548899055 3.3664178848 1.1237307787
-0.26846829057 3.3771810532 1.5145858526
0.081954345107 3.0064663887 1.6597182751
-0.042069077492 3.2661116123 2.0361001492
-0.41770789027 3.6140453815 1.9554643631
-0.710955441 3.494489193 0.8760882616
-0.46737641096 3.6314492226 0.38095262647
-0.7019251585 3.5339660645 1.3427330256
-0.99236142635 3.7410783768 1.6684857607
-1.0480514765 3.4865720272 0.32332703471
-1.1718381643 3.3782169819 0.77234405279
-1.2360352278 3.4448728561 1.185631752
-1.4804465771 3.6315429211 1.5880305767
-1.5412464142 3.0943303108 0.70477885008
-1.6108939648 3.1838235855 1.1377674341
-0.082214981318 3.4223980904 2.5057792664
0.25770759583 2.9501976967 2.1883244514
0.28298553824 3.060988903 2.654904604
0.73300868273 2.8514406681 2.7931332588
-0.087093181908 3.3799939156 2.9964687824
0.30029773712 3.0035674572 3.1450166702
0.71427965164 2.8468613625 3.3515200615
-0.10165835917 3.0588636398 3.4444129467
-0.43494951725 3.4003999233 3.3231844902
0.28294846416 2.8489277363 3.6731650829
-0.65818911791 3.1893281937 3.6517541409
-0.28003007174 2.8475806713 3.760171175
-0.056897081435 2.6329946518 4.0396542549
-1.1375107765 2.7360670567 4.052749157
-0.64259588718 2.7928745747 3.9063901901
-1.1339136362 3.2018690109 3.7451124191
-1.5963897705 2.908010006 3.8485877514
-1.5999469757 3.2749874592 3.6408729553
-1.9750977755 3.1482737064 3.502109766
-2.0585865974 2.8265354633 3.6566114426
-2.3575060368 2.9033453465 3.250844717
-2.2299566269 3.2128829956 3.1978821754
-2.4449882507 3.1524717808 2.8087854385
-2.5918776989 2.7523298264 2.8406534195
-0.76254290342 2.3864216805 4.2676901817
-0.2380810976 2.1518368721 4.4491019249
-0.8313806653 1.934636116 4.45221138
-0.32985764742 1.5872741938 4.6795225143
-1.3005191088 2.2435963154 4.3543815613
-1.3712542057 1.6227322817 4.6106886864
-1.7230606079 1.9805338383 4.4879693985
-1.7272320986 2.5203490257 4.1099615097
-2.0628116131 2.2267405987 4.2664122581
-2.2149190903 2.5135142803 3.8435902596
-2.3994197845 2.2982399464 4.0100355148
[...]
CELL_DATA 2024
SCALARS cell_data_0 double
LOOKUP_TABLE default
9.2681277492e-09
9.29546603198e-09
1.8527117985e-08
1.47563221782e-08
4.29966032839e-09
2.15362048181e-08
3.74361537249e-09
1.96557122753e-08
1.98472860222e-08
2.00977326249e-08
2.847448758e-08
3.06796831988e-09
3.74878109e-09
3.03960414488e-09
1.42187333784e-08
5.80550720371e-09
9.66807812647e-09
1.82863830206e-08
5.0728266174e-09
2.92670991727e-08
4.60225692971e-09
4.12630627059e-08
5.49675754245e-08
3.12730469753e-08
1.62761712429e-08
4.30394889995e-09
2.41435103539e-08
2.49700058954e-08
3.64854427967e-08
5.29315836858e-08
2.00313170637e-08
2.96280008787e-08
6.35697851959e-08
9.727040227e-09
5.76036092799e-08
3.1668930382e-08
1.19179053636e-09
3.13949321408e-09
2.06584057694e-08
1.13720197007e-08
3.6117242577e-08
1.65389784376e-08
1.84326890674e-08
2.9201127289e-08
3.97177395379e-08
4.10794257713e-08
1.01122488056e-08
6.6910103191e-09
9.39207926739e-09
7.98941235647e-09
1.4379586589e-10
2.68525821787e-08
2.07969557768e-09
7.31647094116e-09
1.67092285544e-08
1.43385272933e-08
4.53648696827e-09
1.97927732996e-09
8.3854284725e-10
1.66963287932e-09
5.62511620866e-09
4.03812694846e-09
9.20835968838e-10
1.62526320022e-09
4.95038575062e-09
8.00474168053e-09
1.44489043204e-09
4.45450550132e-09
3.74565440933e-09
4.36622679472e-09
1.91956386817e-09
7.66778350566e-09
1.03687002219e-08
7.30234878579e-09
6.24671980946e-10
5.57291084075e-09
1.87266370447e-08
2.02663567167e-08
2.55737431506e-09
5.46195863559e-09
4.05148197236e-09
1.54780227379e-09
9.84192820574e-10
1.22568504544e-09
5.96830539047e-10
5.02227749229e-09
2.92620192984e-08
1.01424864238e-08
2.67182316986e-10
6.76817233058e-10
1.01476487143e-07
1.86135042462e-08
5.44033415481e-08
2.27134270206e-08
4.40083985761e-09
7.28679467817e-09
1.93867240384e-08
4.9716076346e-09
2.61304043142e-08
1.19736039725e-07
2.8355599112e-09
5.88018523628e-08
8.34852611561e-08
5.17705782856e-08
3.47569416799e-08
2.57592554174e-09
4.25443686838e-09
3.51453124476e-08
1.13377774577e-08
5.05076959131e-08
2.30581611271e-08
2.45852819513e-09
7.15925399711e-09
2.16002781562e-08
2.07073888321e-08
3.74560885661e-08
1.22326072226e-08
2.75843170982e-08
1.48321950494e-08
2.43894850207e-08
3.51194343718e-08
3.61185854028e-08
3.784116893e-08
7.61137071258e-09
1.12402805155e-08
4.80956949922e-09
1.03453461184e-08
2.74344825757e-10
1.71803874677e-08
3.1666972439e-08
8.4736916333e-08
3.05490843758e-10
1.72196918208e-08
1.98988012812e-09
5.68712791354e-08
1.72579368687e-08
5.5215792017e-08
3.51232695028e-08
3.06475470104e-09
1.02754532731e-08
2.69804912056e-08
1.3375841842e-08
4.79850476964e-08
9.12573471895e-10
5.11478688443e-09
4.02395876265e-08
8.10347121405e-08
1.38491997869e-09
7.48688120218e-08
3.99305687369e-08
1.76289501789e-09
6.69685629132e-08
6.11486903509e-08
1.84432999443e-08
3.28956193537e-08
4.23574342575e-08
2.84943175406e-08
6.14419767395e-08
9.97063815863e-08
1.1081611632e-07
2.56736957149e-07
1.18244707203e-08
6.02558412234e-08
2.47539101734e-07
4.66278916381e-08
2.04858131054e-07
1.12423165723e-07
4.13472894037e-08
2.40769778087e-08
2.09110016312e-07
8.21234315698e-08
5.91768171121e-08
3.13821718027e-08
2.64631572458e-08
1.18687177087e-07
5.98660411221e-09
1.87716187779e-08
1.37525625189e-08
1.58528232409e-08
2.73795615209e-09
2.4761534567e-08
6.56587683007e-10
1.19604202308e-09
1.14352113033e-08
6.52924588261e-09
1.07428672259e-09
7.91573641984e-10
3.15069406197e-08
5.0914354291e-08
8.13134479134e-09
1.65311285813e-08
2.04577309394e-09
6.90402015259e-09
2.73977149945e-09
1.13102073214e-08
1.45372342877e-08
3.9136978973e-09
3.21526883336e-09
9.59906721622e-09
1.41040928573e-09
4.8110831666e-09
4.15262563103e-09
3.29108170479e-09
2.56131554999e-09
5.51453581052e-09
1.34674199282e-08
7.07672826303e-09
5.77248654791e-09
3.05106820717e-09
4.36259099558e-09
1.13144996516e-10
1.37845830587e-08
8.38958703704e-10
3.40532338334e-09
1.84591109639e-08
6.2009713716e-08
1.77745482179e-08
5.48813153054e-09
2.17667013591e-08
4.41389639663e-09
2.80527980085e-08
1.58044341046e-08
5.89225559679e-09
1.06409977287e-07
2.36106599541e-08
4.98744800599e-10
4.92997921326e-09
2.43270157386e-09
3.84812928959e-08
3.03685972946e-11
5.57955233388e-09
2.93315665467e-10
3.26337308594e-09
3.9486031379e-10
5.51295841872e-09
2.22604805686e-09
1.8744189419e-09
9.08930956817e-10
5.3077624209e-09
7.05093410156e-09
5.43897503556e-09
1.41398592404e-08
2.69244022888e-08
5.33982319764e-09
2.08435745034e-08
1.14927561657e-08
8.72540870404e-10
2.18205147996e-09
1.19981375218e-09
2.44853230036e-09
1.75050274985e-09
3.4609044978e-11
2.83435909353e-09
2.89291640446e-10
2.71132349929e-09
1.98103505128e-09
3.8242075355e-09
3.43065402618e-09
5.15869863646e-09
1.87262640973e-08
1.6696458199e-08
7.65409955492e-09
3.56366014752e-09
6.86072264525e-10
1.38722051293e-09
3.31863388606e-10
9.16926522846e-09
7.69971374508e-09
7.41004122437e-09
1.46427850335e-08
4.64498707203e-09
2.14089107607e-08
3.40790597003e-09
4.9783641701e-09
1.37460439645e-09
1.6415316667e-08
5.37899729638e-09
6.01524896013e-08
2.40004210626e-08
2.18330445397e-08
2.55560799846e-08
1.14581393971e-08
3.09011239882e-08
4.60127870976e-08
4.85612242219e-08
1.62044343291e-08
5.22510801058e-08
8.76478121456e-09
7.61957806033e-09
1.60351151709e-08
1.43202731479e-09
8.92707374697e-09
2.54969702507e-09
2.36424036284e-08
1.51833223868e-08
1.13933167832e-08
1.1431356917e-09
2.24776433886e-08
4.36127140015e-09
5.74310666787e-08
1.58959783555e-08
2.72752093199e-08
1.90783981066e-08
1.10238489103e-07
1.45646603785e-08
8.24445055417e-08
4.48956628641e-09
9.05150081757e-08
8.87000214237e-08
1.05509870567e-07
7.16853863993e-08
7.85259731655e-08
5.58070847856e-08
5.53118103021e-08
1.7400853758e-08
5.04894135099e-09
1.21817832728e-08
5.82254455542e-09
8.10760975509e-09
5.25820379411e-08
6.22143773777e-08
3.93821374624e-08
6.15838271622e-08
4.74657130425e-08
1.12297191372e-07
1.74776850234e-07
1.13038254204e-07
4.26186665589e-08
4.11647290043e-08
2.98283707813e-08
1.74123918864e-08
6.5202010678e-08
1.94862659642e-08
1.54731272746e-07
1.17876176312e-07
2.17190679153e-08
3.28404561098e-08
4.24528242779e-09
1.72520024037e-09
2.21470925841e-08
1.24266412156e-08
2.19827490791e-09
2.99320943494e-08
2.59944486705e-08
6.4472985868e-09
2.70291547889e-08
3.2387870022e-08
7.15738833668e-08
2.29478336341e-09
6.03478980945e-08
3.12023820836e-08
1.78947511754e-07
4.36470156209e-08
8.15385140334e-09
6.80109668861e-08
1.48314024465e-08
1.08404820412e-08
3.10184752557e-08
1.68498361595e-09
2.54926192175e-08
1.01727550897e-08
1.67272929607e-07
2.90805100293e-08
4.14306430061e-08
3.32704991606e-09
3.68704852755e-08
6.47573983804e-08
2.02766413413e-07
6.94091238939e-08
5.19653645026e-08
5.09294645408e-08
6.69816046826e-08
9.77820826311e-09
6.95342865796e-10
6.30263719237e-08
7.35830149262e-09
9.01679747482e-08
1.9026111814e-08
9.11675071801e-08
2.30183267928e-08
3.40561146146e-08
1.98407394102e-08
1.16804706248e-08
1.0604992665e-08
4.12747921423e-08
1.59945062348e-08
6.19378567084e-08
6.04051891564e-09
4.72645423726e-08
3.77665635881e-08
4.39955834557e-09
6.25300150442e-08
6.34961435703e-08
2.78802273747e-08
4.29617881623e-08
4.9181157331e-08
1.61283870369e-08
2.30262085111e-08
1.75675943956e-08
1.98447508949e-08
1.50155606148e-08
1.09749118456e-08
3.74205455539e-08
2.79280114354e-09
6.55143401445e-08
1.43001816033e-08
9.21896177251e-09
1.63807027572e-08
8.75517513424e-10
7.1324384033e-08
6.90846113638e-08
1.76715204907e-07
2.9250372298e-08
1.03107945859e-07
1.3344049893e-07
2.44135160449e-09
1.81634750876e-07
2.97042211517e-08
7.49477912359e-09
2.53351417578e-08
1.11019094145e-07
9.43425332853e-08
1.03923869839e-07
1.70949094781e-07
4.01544246928e-08
6.10249663888e-08
2.42219637762e-08
1.29719243142e-08
4.74268851127e-09
8.02729821348e-09
3.0228769288e-08
1.77977179656e-08
1.07923463045e-08
3.86688623674e-08
1.84812021267e-09
1.25738148818e-08
1.87204474241e-08
2.93195988635e-09
4.50598067038e-09
2.37371375408e-08
3.96680801322e-09
7.43095010265e-08
2.05692412424e-07
9.87883972827e-08
8.68805020496e-08
7.37546730646e-09
7.08667371173e-08
7.76237172012e-08
1.87623900541e-07
4.18510377532e-08
5.55831021601e-08
8.65214445744e-08
3.79042201211e-08
5.4756052644e-08
6.67238485707e-08
4.72076894733e-10
1.99189167049e-07
1.94732345322e-07
2.66730530391e-09
2.90490569577e-08
3.1202893878e-09
1.14067548667e-08
6.24838604097e-09
2.90855095664e-08
2.18026901955e-08
2.85070205072e-08
5.04636653805e-09
9.72268783548e-09
1.05202826051e-08
4.37562408456e-09
6.16196297049e-09
2.96516887293e-08
1.04985616639e-08
6.98624110612e-08
1.44064381181e-08
8.30185935944e-09
9.40759822054e-09
2.57254189043e-08
1.58952650536e-08
7.6148021256e-10
9.84289790066e-08
2.27660699226e-08
7.96580732781e-10
4.01092830992e-08
2.81988922569e-08
2.87883135261e-08
2.48836095884e-08
7.56500334094e-09
8.06693405359e-08
5.14874491221e-08
4.57623855808e-09
9.96935313142e-08
1.1850623529e-08
3.10981395645e-08
8.7817362098e-08
1.45878047016e-08
3.31059166472e-08
4.98317645434e-08
1.63859467497e-07
2.9047160208e-09
3.34935772903e-08
9.72844606937e-09
2.56646682171e-08
4.79807542216e-08
1.03431771107e-07
1.68636398601e-08
1.6153927598e-08
3.6863137263e-08
3.01364734167e-08
1.2856540634e-08
6.6892137951e-09
9.05543827804e-09
1.87978911568e-08
4.45258115808e-09
8.53992130883e-09
1.47671175884e-08
5.39920568635e-09
1.22734218393e-08
5.48635611475e-09
2.93068520566e-10
2.61316952475e-09
2.17808268813e-08
1.31279614291e-08
8.08214157784e-09
6.09568297733e-09
4.24923712102e-09
7.87581690969e-09
7.56449850563e-10
2.44881423328e-08
2.49623026851e-08
1.18045709236e-08
2.62578137992e-08
4.64168829151e-08
2.67017516915e-08
1.1701160641e-08
2.10837771224e-08
1.58328744176e-08
2.04488038387e-08
1.76373735366e-08
4.11442240433e-08
3.15835071573e-08
8.42836821642e-09
1.86450465171e-09
1.2696590646e-08
4.67520520278e-09
1.54038436208e-08
3.16524204998e-09
5.61675085951e-09
1.29725064405e-08
4.28615726067e-09
3.64966195841e-09
8.21186173591e-09
8.53688950035e-09
1.25708287348e-08
2.01157750584e-09
1.72127433887e-09
6.97598087069e-09
9.07009573173e-09
2.27222791401e-09
1.23859909684e-08
7.96554021025e-09
7.36339012867e-09
9.98625509921e-10
1.02398029631e-08
1.02336688734e-08
5.97039897386e-10
1.10308057839e-08
6.92214668531e-08
4.00978837909e-08
6.58083970375e-08
2.29955315963e-08
7.87736883815e-09
5.86072798094e-08
3.19547737501e-08
5.13113508325e-08
3.51152326481e-08
3.83177051292e-08
2.47192443023e-08
2.35713404398e-08
1.32382988912e-09
2.47982265019e-09
1.3290660776e-10
4.4710515901e-08
3.37074046005e-08
6.90994907378e-08
5.21649957555e-08
1.1105359556e-08
1.78879789553e-08
7.08806716523e-08
9.03399510151e-09
4.00743176427e-08
1.07001688767e-07
4.27870184739e-08
1.33337886015e-08
2.62022647516e-07
2.11760797525e-07
1.05783674516e-07
6.20595724769e-08
6.08509692081e-08
1.95975702386e-07
5.22086085143e-08
2.76338940548e-08
3.61672383489e-08
5.6653832303e-08
7.49314090477e-08
9.04128964244e-09
4.37626000346e-08
1.69789067221e-09
5.54581604161e-09
3.91220970601e-08
1.65787488463e-08
2.66035964089e-09
2.8879599679e-08
4.00190797629e-09
1.76407168131e-09
5.50044854432e-09
5.68665474956e-09
3.78825886748e-09
7.22846469461e-09
2.56664827479e-09
6.70879361355e-09
8.59915918104e-09
3.82457259405e-09
1.41270241974e-08
6.32689115322e-10
5.04214345807e-10
2.76701815632e-08
2.73708446976e-09
5.01348205552e-10
4.66359656332e-09
9.62000848836e-09
2.25902914519e-09
2.23420894543e-09
3.08249186396e-09
1.22896543478e-08
1.34139962426e-08
3.62745743506e-08
2.33300008979e-08
5.21755557167e-08
9.02767520053e-08
1.03747094288e-08
1.47400077703e-07
4.45058600733e-09
4.48116848112e-09
4.6357970754e-08
1.10797761585e-08
2.28424930448e-08
2.16971393709e-08
3.44565911524e-08
1.4138241153e-07
1.69051805141e-07
1.68252018245e-09
5.01103976688e-09
1.7335625356e-09
7.50871783245e-08
1.23720687167e-08
4.61492327025e-08
8.10587293667e-08
6.44206217085e-08
2.98920464756e-08
1.65541875877e-08
4.48780906571e-08
5.11684726624e-08
1.9534155271e-08
8.26107049274e-10
3.96901178236e-09
1.84175356596e-07
3.0030437935e-08
2.13837625607e-07
3.08444918449e-08
9.84362346611e-08
6.67204669384e-09
1.61022699199e-08
3.26868938783e-08
1.02848101674e-07
1.16059479536e-07
5.62826725081e-09
2.99104931631e-08
1.09677443343e-09
8.01464964139e-08
9.18484610829e-10
1.11367820211e-08
1.7093533781e-08
2.14253921901e-08
1.70823337229e-09
2.79389649817e-09
4.71469321324e-09
3.04849813063e-09
1.72046122027e-09
1.07580344346e-09
1.37465879983e-09
1.28206723569e-09
1.60875770364e-09
5.43413660369e-10
1.04757977484e-09
2.31322676802e-10
1.10350003731e-09
1.09942342564e-09
1.86809779442e-09
8.34632724235e-10
7.69841073334e-09
1.49507905532e-09
9.67132576586e-10
2.67953300367e-09
1.30850493616e-09
3.43675323463e-09
5.42056490317e-10
5.85891349965e-10
1.71321717332e-10
9.78712116858e-10
1.43473993881e-09
8.4731281551e-10
1.15643932637e-09
4.39023851793e-09
5.05462948876e-09
2.97162390539e-10
3.50649720675e-09
8.3440973995e-09
4.59392767781e-10
1.28200332529e-09
2.69091936354e-09
1.00011327002e-08
1.21020647987e-09
7.31642916331e-09
2.20178817438e-09
7.53156731413e-09
1.00783010914e-09
2.83264012849e-09
1.08279741318e-08
5.01849391117e-10
1.3466787669e-08
2.89401953714e-09
1.79861383866e-09
1.03127512082e-08
8.61305884335e-09
1.43786976937e-08
1.0856389943e-08
1.3788619073e-08
4.51988337312e-09
8.08827254299e-09
3.7353786905e-09
1.15137251487e-09
1.0609072698e-08
5.35090354579e-09
4.69655825013e-09
2.4103782064e-09
2.62555351441e-09
5.36636395043e-09
4.92587837156e-09
9.6426504745e-09
1.90027777401e-08
1.315526816e-08
3.4859366702e-09
2.29274791404e-08
2.56067917029e-08
1.34094816726e-09
7.13758686618e-09
9.17141819676e-09
1.0961372374e-08
1.71390010651e-08
3.62863636239e-09
9.21071797521e-09
8.61520181267e-09
1.05495419533e-08
1.3927992283e-08
2.94734568086e-08
4.07320603653e-09
2.08563649094e-09
1.30612051438e-08
3.29249258227e-08
3.62640851009e-09
4.2265829317e-08
2.57642456825e-09
9.53275113302e-09
1.34686633877e-08
2.98779120307e-08
7.59517052988e-08
3.89478083685e-08
4.6491530114e-08
5.93936885057e-08
7.96903842694e-08
2.88709081309e-08
3.91122897721e-08
2.24840726661e-08
2.067015719e-09
1.41413088397e-08
1.1895448437e-08
9.5628065368e-09
4.67976647068e-09
7.2048926652e-09
1.71865023656e-09
3.31265892904e-09
1.34457145911e-09
1.79671298347e-09
4.34811076483e-09
3.63638034097e-09
4.34070830513e-09
1.20327611308e-09
2.97290321088e-09
2.11602867114e-09
5.86948135168e-09
1.99909545586e-10
9.43341773903e-10
7.23020262985e-09
8.37320540756e-09
5.86687521519e-09
1.12928080351e-09
3.90530073218e-09
3.9168799194e-09
8.18539439585e-09
4.60445228058e-09
1.58247139341e-08
2.96744989068e-09
7.03353533096e-09
1.03035384188e-08
4.1427576967e-08
1.5175771392e-08
7.74827609388e-09
3.70089358323e-09
1.57290168868e-07
1.6120583474e-08
8.13099995311e-09
4.48240467253e-08
2.47606692361e-09
2.20605828206e-08
1.2472935489e-08
1.55173488788e-08
6.87437351723e-09
3.65461318032e-08
1.29617069818e-09
4.01614949105e-09
5.41848112924e-09
6.57661582584e-10
1.41869872228e-09
8.21937234061e-10
1.50643074528e-09
3.2973597242e-09
2.00042659861e-09
1.06717177764e-09
7.63590146772e-10
7.83518539544e-10
4.15257881288e-11
2.8211500878e-09
2.79642378218e-09
4.88050086786e-10
1.36566664045e-09
1.22155292458e-09
8.63981383331e-10
2.76500460646e-09
1.90443919738e-09
8.28188075628e-09
1.33334639244e-09
4.84711939427e-09
1.44149925198e-09
2.07732910746e-09
2.82477562624e-09
1.78842603266e-09
9.20220679017e-10
1.25308429213e-09
4.55177719402e-10
3.14445230039e-09
6.77840865535e-09
1.19112049882e-09
5.87632776656e-09
3.42461565469e-10
5.85872044871e-09
1.86611694392e-08
1.99586985439e-09
2.7052383681e-09
7.77407847658e-09
1.66030424847e-09
4.74822404769e-09
1.26077941165e-08
5.3987910513e-09
1.04545253179e-08
8.78145978579e-09
1.5932913707e-09
1.91475774076e-09
1.38117038321e-11
2.99139609993e-09
4.23171590435e-09
1.09286434349e-09
3.22627987094e-09
1.08320539793e-09
5.24445131995e-09
8.1765929275e-09
1.15118446901e-08
1.0739088385e-08
1.05433548553e-09
1.62656891238e-09
1.18080168298e-09
3.20185809373e-09
1.56064700457e-09
4.09665536158e-10
2.07248730885e-09
1.46415038939e-09
9.91785906229e-10
1.99182085698e-10
8.24131208269e-10
1.24683202426e-09
1.88671313395e-09
1.32261717538e-09
1.96399913153e-09
2.19759500734e-09
2.52879663516e-09
3.84255354538e-09
4.07577237808e-09
2.56339705468e-09
6.14877874137e-10
1.05609631572e-09
3.50902865062e-09
5.40650471931e-09
2.8601891448e-10
1.4690644225e-08
2.64394070921e-08
7.49175930524e-10
3.21955749888e-08
9.0413681878e-09
3.61231249773e-09
3.74264008485e-09
8.479224204e-09
2.94265028949e-09
4.80169783914e-09
2.41486207104e-09
1.6809176555e-09
1.35012922127e-09
1.42909513798e-09
1.59551116651e-09
2.29504887719e-09
3.01377034491e-09
2.64302104825e-10
4.83077886542e-09
2.03585834935e-09
9.56267053498e-09
2.30807601098e-09
3.41414160369e-10
1.7475377545e-08
6.89676731281e-08
8.67036040001e-08
6.31911291188e-09
4.50780759142e-08
9.64035468955e-09
1.15539578821e-07
6.47936455552e-09
2.25295021507e-07
1.77724249034e-07
1.66042841102e-07
3.03757362621e-08
5.35961491398e-08
2.4172659917e-09
1.55209955969e-08
5.54031845716e-09
5.69549577276e-08
2.14307899985e-08
1.17481413549e-07
9.96419352667e-08
2.14645632348e-08
1.53240404709e-07
1.34579527263e-07
1.33070912588e-07
8.67088869386e-08
7.97588157741e-08
1.68337456913e-08
4.03392304382e-09
6.13400183448e-09
3.6625168398e-11
1.26513061845e-09
3.37346630191e-08
2.47651514631e-08
4.83176054179e-08
5.4256971177e-08
5.85407734118e-09
7.61362544423e-08
2.96904563803e-08
4.488218468e-08
1.61306403238e-08
1.88352192754e-08
1.14971264417e-09
1.64369633759e-09
3.27833252162e-09
1.45422274768e-08
8.31306780816e-09
9.30018971095e-09
8.69600963506e-09
1.42154189578e-08
1.62491699064e-08
9.75581643283e-09
7.63748280055e-09
9.78999421779e-09
2.77067234833e-08
9.30774935223e-09
2.05172286589e-09
1.81153703481e-08
1.93972932792e-08
1.81564028658e-08
1.21414593594e-07
3.77121241681e-08
4.55452257697e-08
4.78659668173e-08
1.31874643623e-08
3.23663414474e-08
1.69744323368e-08
1.57938188647e-08
6.76411653651e-09
1.70222496627e-09
1.87343515169e-08
2.59534054132e-08
5.69199911514e-08
4.15146298018e-08
4.76163681346e-08
9.68595689348e-08
2.25208527109e-07
7.66494231358e-09
1.05150361135e-07
1.5899196803e-07
1.4603647097e-07
1.08311303686e-07
5.24542938762e-08
3.76088293749e-08
1.07269503803e-08
1.83105045364e-08
2.79428538239e-09
7.76851759606e-09
4.95695167754e-09
3.56872705398e-09
1.10715785479e-08
2.06835951627e-08
5.16495452365e-08
3.31404852573e-08
1.14518263773e-09
5.29548135564e-08
1.05643771906e-07
1.08369317652e-07
5.59907938466e-08
9.10226952585e-08
3.14106659777e-08
1.05649346428e-08
6.69345050126e-09
1.51808717118e-08
9.73775453355e-09
1.52153528329e-09
8.14900443984e-09
6.41125660162e-09
1.19820487801e-08
7.07881284838e-09
4.05732330041e-09
2.16899317214e-09
2.73994241309e-09
1.04222238354e-09
6.15243199153e-09
4.19460462595e-09
2.71020259221e-09
3.05590399131e-09
2.89298206282e-09
2.5918498307e-09
1.43317631069e-09
1.46962292058e-09
3.47916045208e-09
6.77902186802e-10
3.89541356867e-09
2.7757517007e-09
3.33898816588e-09
8.57613508496e-10
5.65429716378e-09
1.54104437786e-09
3.48222949869e-09
2.46156487071e-09
1.92517837709e-09
1.58496032577e-09
6.97047655289e-10
1.64699238766e-09
2.30364605613e-09
1.56959814896e-09
4.3333955617e-09
9.84905320558e-09
4.69845770256e-09
2.8636468628e-10
8.54019885192e-10
7.13845364902e-10
1.12706210319e-09
1.42736730079e-09
2.94714282645e-09
4.56920872867e-09
5.2799291835e-09
3.31521803618e-09
3.02317760422e-09
5.428545853e-09
1.64716847358e-09
1.67351981216e-10
4.3500867452e-09
3.53449893063e-09
3.88622533155e-09
1.1731018314e-08
6.20191922778e-09
8.66433627815e-10
6.32212482331e-09
2.21140292686e-08
1.00374870888e-08
1.18086743832e-08
2.18395421916e-08
6.13489686334e-09
3.0479929412e-08
1.58286187241e-09
9.93275525561e-09
6.61114815577e-09
6.01548661948e-09
5.03825397026e-09
5.31620714451e-09
2.1015538861e-10
7.55106938179e-09
1.47395361421e-08
7.92080723129e-09
7.89338585207e-09
8.96155080088e-09