# vtk DataFile Version 3.0
File Name: Molecule/arg/arg_12.5-5.vtk
ASCII
DATASET UNSTRUCTURED_GRID
FIELD FieldData 1
TIME 1 1 double
0.0
POINTS 2920 double
-3.2786684036 0.0049951504916 1.3761286736
-3.2113714218 0.082238413393 1.6139167547
-3.4607214928 0.21781761944 1.3519968987
-3.3750526905 0.31372821331 1.6508358717
-3.0655374527 -0.13695278764 1.7320811749
-3.1502938271 -0.18427267671 1.4704988003
-2.9723598957 -0.40105479956 1.8389167786
-3.0590107441 -0.43420571089 1.5740990639
-3.4803800583 0.15067690611 1.0796066523
-3.2505397797 -0.096310965717 1.1599724293
-3.1119074821 -0.33162429929 1.272217989
-3.0221660137 -0.5938128829 1.3795713186
-3.3692924976 -0.0030704345554 0.81684410572
-3.18511796 -0.18505062163 0.86797451973
-3.0715808868 -0.38389801979 0.97742927074
-2.9798207283 -0.65330940485 1.0799564123
-3.1553337574 -0.14009656012 0.58813297749
-3.3287236691 0.049205530435 0.49575784802
-3.001168251 -0.36176770926 0.68720287085
-2.8795466423 -0.66705161333 0.76953309774
-3.1355378628 -0.048178758472 0.31892648339
-2.9575026035 -0.23005454242 0.41351541877
-2.8416352272 -0.44313836098 0.50496345758
-2.7593789101 -0.68611782789 0.56899482012
-2.9060020447 -0.073141753674 0.17619554698
-2.728805542 -0.21598832309 0.14914517105
-2.7006623745 -0.37600144744 0.30477553606
-2.5920114517 -0.60616415739 0.32733774185
-2.8044381142 0.12381701916 -0.2343096137
-2.7149302959 -0.050176542252 -0.060708262026
-3.0242586136 0.10104416311 0.019696809351
-2.6115086079 -0.016493545845 -0.27040952444
-2.4721426964 -0.27372837067 -0.069093130529
-2.4971208572 -0.14965431392 -0.22050698102
-2.4535434246 -0.1262793839 -0.41954684258
-2.3349711895 -0.30960714817 -0.33079990745
-2.2917625904 -0.30646842718 -0.51074182987
-2.2195029259 -0.45156225562 -0.49602508545
-2.208006382 -0.44323500991 -0.70179265738
-2.3426840305 -0.21099027991 -0.68176370859
-2.2783958912 -0.38342157006 -0.97433382273
-3.0458631516 0.31206443906 -0.23803988099
-3.2936992645 0.31227430701 -0.019651778042
-2.6345574856 0.077306188643 -0.46648326516
-2.7976555824 0.26668441296 -0.53534078598
-2.5143616199 -0.022551333532 -0.62827193737
-2.6656765938 0.18799680471 -0.74474364519
-2.4383299351 -0.10583723336 -0.88812595606
-2.5812218189 0.093349657953 -1.0040962696
-2.4147334099 -0.22371613979 -1.1664409637
-2.5645017624 -0.012992393225 -1.2548125982
-3.2590184212 0.55523997545 -0.22895103693
-2.9872107506 0.49398908019 -0.45635351539
-2.815564394 0.43669313192 -0.67799496651
-2.7161622047 0.36694711447 -0.87301200628
-2.6278617382 0.26427957416 -1.1481360197
-2.6013934612 0.14024069905 -1.4290161133
-3.0356528759 0.81485015154 -0.53576731682
-3.2886469364 0.92868334055 -0.34651982784
-2.8531117439 0.725464046 -0.74796682596
-2.7386374474 0.65019541979 -0.93602925539
-2.6545891762 0.56182229519 -1.1844000816
-2.6258077621 0.45600816607 -1.4899051189
-3.1117415428 1.2019020319 -0.5067679882
-2.9026749134 1.0803041458 -0.66349595785
-2.748493433 0.97512501478 -0.85389059782
-2.6479122639 0.89927440882 -1.0495127439
-2.56108284 0.80717808008 -1.3252443075
-2.5353934765 0.73944413662 -1.5991587639
-2.8490407467 1.3258951902 -0.63359570503
-3.0576071739 1.4914226532 -0.4686113596
-2.6803867817 1.1951217651 -0.8350661993
-2.5677120686 1.10689044 -1.0172251463
-2.4819948673 1.0209397078 -1.2640930414
-2.4354367256 0.97267585993 -1.5583242178
-2.7878990173 1.6877096891 -0.51999139786
-2.6381430626 1.4576845169 -0.68147242069
-2.4811618328 1.3618825674 -0.85939359665
-2.3543658257 1.2962566614 -1.059861064
-2.2912418842 1.1720033884 -1.3360513449
-2.1769599915 1.212253809 -1.6210995913
-2.5949327946 1.9404904842 -0.43865969777
-2.5077126026 1.6165171862 -0.65761816502
-2.317615509 1.8081669807 -0.61505645514
-2.0541548729 1.7651562691 -0.817943573
-2.2606167793 1.5397467613 -0.88246375322
-1.9215341806 1.6526215076 -1.1335431337
-2.1160852909 1.4584337473 -1.1456410885
-1.9696824551 1.473393321 -1.4562183619
-1.7294086218 1.7150777578 -1.5074017048
-2.270955801 2.0561304092 -0.455981493
-2.3822288513 2.2658543587 -0.24730822444
-2.712136507 2.1850562096 -0.20470997691
-1.9904440641 2.19500494 -0.5469827652
-2.1268761158 2.3568353653 -0.33784461021
-1.7796621323 2.3054687977 -0.69802808762
-1.8628302813 2.5103940964 -0.48154172301
-1.5789833069 2.4346883297 -0.92740648985
-1.6590145826 2.6809790134 -0.69095259905
-2.6656923294 2.4091024399 0.037057876587
-2.3543286324 2.4744696617 0.0011023739353
-2.1379694939 2.5361278057 -0.10509078205
-1.8930234909 2.6862096786 -0.21825756133
-1.6618192196 2.9107358456 -0.40106663108
-2.581880331 2.5667612553 0.30648595095
-2.2824039459 2.6320917606 0.31315779686
-2.0625450611 2.6916861534 0.15516352654
-1.7997733355 2.8499808311 0.018421411514
-1.6075906754 3.0697624683 -0.084490306675
-2.4675235748 2.6598935127 0.6389964819
-2.1578960419 2.7073755264 0.67871367931
-1.9979298115 2.7515556812 0.45142158866
-1.7335689068 2.9079105854 0.32103130221
-1.4766609669 3.1721503735 0.23342837393
-2.7209205627 2.6510708332 0.88798189163
-2.3373622894 2.7220461369 0.94327872992
-2.5904946327 2.6902222633 1.1759433746
-2.1366689205 2.886100769 1.191557169
-2.392083168 2.8411316872 1.3709523678
-1.9590623379 3.079441309 1.3256210089
-2.2108631134 3.0546243191 1.5285918713
-1.8625010252 3.3190727234 1.4854099751
-2.1594417095 3.2775194645 1.7333365679
-3.0231077671 2.4977502823 1.2203118801
-2.8350195885 2.5551850796 1.4453897476
-2.6266531944 2.7096989155 1.6291893721
-2.4691724777 2.9194889069 1.8382812738
-2.4063000679 3.144995451 2.0446197987
-3.1831021309 2.2979300022 1.4870713949
-2.8966693878 2.4377634525 1.663942337
-2.724663496 2.564375639 1.8753648996
-2.598553896 2.7464702129 2.1007039547
-2.5318551064 2.9680294991 2.3179106712
-3.3123486042 2.066213131 1.683190465
-2.987026453 2.2950291634 1.810836792
-3.1095216274 2.0991446972 1.9273953438
-2.8067457676 2.4161064625 2.1017980576
-2.970480442 2.1754515171 2.1794741154
-2.6881456375 2.6060009003 2.3788900375
-2.8746471405 2.3049552441 2.4972705841
-3.1810679436 1.8879675865 2.0437676907
-3.4210298061 1.7839492559 1.8007935286
-3.028249979 1.9559556246 2.3654255867
-2.9774546623 2.0066926479 2.7148590088
-3.3578350544 1.413834095 2.0946338177
-3.2714624405 1.6781851053 2.0646483898
-3.5181684494 1.4935595989 1.8418375254
-3.1438398361 1.7208777666 2.3395283222
-3.2290956974 1.4765625 2.3910050392
-3.093203783 1.737098217 2.6489474773
-3.1859493256 1.4790626764 2.7146818638
-3.116973877 1.7667757273 3.0039560795
-3.2276694775 1.4362249374 3.0405261517
-3.5501291752 1.2345459461 1.855705142
-3.377212286 1.1293252707 2.1033060551
-3.259783268 1.2377986908 2.4094679356
-3.2138693333 1.2435119152 2.7567431927
-3.2491774559 1.1287155151 3.0481572151
-3.3554089069 0.88505828381 2.0582194328
-3.5420398712 0.91588121653 1.8163778782
-3.2430362701 0.94061231613 2.3646328449
-3.1935636997 0.95266151428 2.7050859928
-3.2030165195 0.86796838045 3.0338885784
-3.436040163 0.60345393419 1.777264595
-3.2295947075 0.64423722029 2.1084434986
-3.1264362335 0.68607735634 2.4194848537
-3.0962941647 0.70801949501 2.7454061508
-3.0951035023 0.58797252178 2.9817590714
-3.1803302765 0.38752365112 1.9725394249
-3.1009807587 0.10824434459 1.8855777979
-2.9776697159 0.13692680001 2.1666350365
-3.0453357697 0.44523710012 2.3245403767
-2.9058120251 0.23613755405 2.4552457333
-3.0259878635 0.51427358389 2.6387131214
-2.9225399494 0.34954124689 2.7613179684
-2.9750943184 0.3832449317 3.1220593452
-2.9078421593 -0.19930145144 2.0605967045
-2.7504093647 -0.47527655959 2.2720651627
-2.8246674538 -0.082694143057 2.3183128834
-2.6939954758 -0.24749991298 2.4803254604
-2.7731592655 0.051872335374 2.6111469269
-2.6312685013 -0.14830860496 2.7219874859
-2.821972847 0.2157305181 2.9102511406
-2.6825339794 0.012366726995 2.9664196968
-2.809012413 0.172040537 3.2732081413
-2.5310513973 -0.69505751133 2.4106726646
-2.5015971661 -0.44202771783 2.5901191235
-2.4724755287 -0.24869997799 2.8828034401
-2.5266697407 -0.080746546388 3.1570951939
-2.6121499538 0.020614368841 3.4324064255
-2.4604756832 -0.95503044128 2.3600549698
-2.3163402081 -0.76880943775 2.6188895702
-2.2697947025 -1.0492660999 2.5124950409
-2.1827816963 -0.7590867281 2.8662979603
-2.1813204288 -1.0081954002 2.7111880779
-2.2630915642 -1.2029371262 2.3398096561
-2.468726635 -1.1132109165 2.1736371517
-2.1199100018 -1.2850236893 2.543107748
-2.3541665077 -1.3320921659 2.0139458179
-2.1119885445 -1.4320799112 2.2329924107
-1.9702775478 -1.5263272524 2.4880721569
-1.96735394 -1.4817962646 2.7538866997
-1.8753226995 -1.6600141525 2.6353592873
-2.0009806156 -1.5802013874 1.9729040861
-2.2006971836 -1.5250526667 1.7530633211
-1.8647475243 -1.661255002 2.1830909252
-1.7262967825 -1.8185176849 2.4042749405
-1.9593015909 -1.6617339849 1.6406059265
-1.7877278328 -1.7063416243 1.8509843349
-1.6546748877 -1.8052028418 2.0343055725
-1.5105490685 -1.9803076982 2.2721598148
-1.6166574955 -2.0516870022 2.6039152145
-1.4136885405 -2.1928241253 2.4558227062
-1.662361145 -1.7436276674 1.6440579891
-1.8385126591 -1.6983230114 1.4129980803
-1.5068057775 -1.8333809376 1.8325628042
-1.3693526983 -1.9836820364 2.0484600067
-1.2402601242 -2.2162659168 2.2476506233
-1.5677460432 -1.7302039862 1.2824069262
-1.403699398 -1.7789497375 1.5384434462
-1.237106204 -1.9011845589 1.7644586563
-1.1026943922 -2.0533716679 1.9443758726
-0.95216965675 -2.2717425823 2.0857901573
-1.8346184492 -1.6803597212 1.1045660973
-1.4279489517 -1.7355536222 0.99524384737
-1.6424303055 -1.7022029161 0.81871193647
-1.145234704 -1.8380508423 0.8555483222
-1.3723291159 -1.8201311827 0.64756846428
-1.1028368473 -1.9923692942 0.50992655754
-1.3423336744 -1.9375554323 0.36298561096
-0.93373000622 -2.2292051315 0.32966420054
-1.2246412039 -2.1525015831 0.17025972903
-1.9659205675 -1.6080080271 0.88009607792
-1.794137001 -1.6257214546 0.65349435806
-1.5948435068 -1.7425526381 0.46361625195
-1.5013018847 -1.878271699 0.18884569407
-1.4251033068 -2.0732777119 -0.020595155656
-2.0049638748 -1.4720206261 0.53930693865
[...]
CELL_DATA 5836
SCALARS cell_data_0 double
LOOKUP_TABLE default
2.21427570155e-09
2.13304926547e-09
2.50601141408e-09
2.54703206893e-10
4.474737009e-10
5.79524844423e-10
1.37299354704e-09
1.70762132808e-09
9.85092858901e-10
2.09290133023e-09
2.26954362074e-10
6.40143701229e-10
1.28164380237e-09
8.38443310926e-10
2.80278469189e-09
5.83920183868e-10
4.33561667651e-10
1.10461621467e-09
1.70138544012e-09
2.4221319173e-09
1.46787842431e-09
1.06699911081e-09
1.76386996126e-09
1.19861038555e-09
1.3423424991e-09
7.69452880961e-10
2.5443036695e-09
9.53386405784e-10
1.56781420586e-09
5.15664693052e-10
8.31945645471e-09
2.60700325719e-09
2.83965810312e-09
2.13498477387e-09
1.70034708704e-09
2.85695161311e-09
6.00899717142e-10
3.4828942945e-09
4.62013602542e-09
4.16836361141e-09
5.52427138201e-10
3.97869215197e-10
1.05318095789e-09
3.67476739845e-09
3.79950888078e-10
5.14808909611e-09
5.63598240058e-10
9.57934947159e-09
9.7037770645e-10
7.78616348497e-09
3.3108602033e-09
1.00881430326e-08
2.48062771198e-08
8.37624678593e-09
6.39069396858e-10
5.23446339504e-10
1.02365780272e-09
1.69103461584e-10
6.7048790961e-10
1.97766428813e-10
1.62115401301e-09
4.17442985224e-09
5.31751914467e-09
1.1834475652e-09
2.15855187258e-10
1.36172485497e-09
1.2126078835e-09
2.51953502401e-09
1.64426290861e-09
1.24485942546e-09
1.70758191881e-09
2.67705031934e-10
8.33333043684e-09
1.95032182561e-09
9.97965212034e-10
2.44820312502e-09
2.6546918884e-10
1.66315187209e-09
2.24108338029e-09
3.33352115274e-09
1.63598840685e-09
9.77050300546e-09
8.8270612176e-10
1.03714031705e-08
2.99458900637e-09
9.48699096407e-10
3.03630617703e-09
2.03687620023e-09
4.61868604469e-10
1.46129034906e-09
1.44668625369e-09
1.08809566104e-09
2.49518240676e-10
5.88420358873e-10
5.54378017327e-10
3.86291474146e-09
2.57479313361e-09
3.28193859896e-09
7.96700305536e-09
5.68473340848e-09
7.63717644701e-09
8.73107377547e-09
6.846772555e-09
5.25783219625e-09
1.17166436259e-09
4.22095088247e-09
2.24065846123e-09
1.26628841824e-09
4.28087182502e-09
6.23167054499e-09
8.10097011423e-09
3.07539870321e-09
8.39495583021e-10
3.57256084653e-09
3.67510094675e-09
3.30301827449e-09
6.24233598688e-09
1.11870472263e-08
1.01209081498e-10
5.18187971823e-09
2.73029141371e-09
2.90569176552e-10
2.18475260158e-09
5.02285083377e-10
3.72165440676e-09
2.15090207722e-09
3.45837204507e-09
2.25776397684e-09
1.41294857456e-09
1.03862289679e-09
4.94820981232e-10
2.597739359e-09
4.861054044e-10
1.37145280717e-09
4.9362245485e-10
2.1252272591e-09
1.92437364553e-09
2.22143726035e-09
4.67942362916e-09
2.9804121767e-09
2.41734593234e-09
1.70207303575e-09
1.60685653602e-09
5.05794465165e-10
1.84677109925e-09
3.27213862615e-09
3.1876012412e-09
1.31704621709e-09
2.07543098561e-09
5.60425134253e-09
4.93993068302e-10
2.20714440029e-09
3.8356906108e-09
2.49728863169e-10
1.73933699303e-09
1.58570709334e-09
3.03730508685e-09
1.09915568635e-09
3.56542759829e-09
9.09035390504e-11
4.73202475472e-10
1.93896272009e-09
3.16121731635e-09
2.27283232663e-09
3.65929960781e-09
4.47075368744e-09
9.67303039927e-10
4.18158319695e-10
4.17089122557e-10
5.01589940764e-10
1.14052095139e-09
7.84017931777e-10
1.61450682117e-09
9.00927493013e-11
7.08071541387e-11
1.24073948174e-10
1.81869586771e-09
7.73095272219e-10
5.67924060841e-10
3.63310885496e-10
1.64208538685e-09
5.877195683e-10
4.19755928071e-10
1.00035598821e-09
1.01332706851e-09
1.28837709574e-09
1.78985970887e-09
1.7006583103e-09
4.70873256242e-10
3.24776183008e-09
3.005060858e-09
3.53139325895e-09
1.66478131336e-09
1.36806106058e-09
8.26184257026e-10
4.85057748895e-11
2.53789320009e-10
1.02289992727e-09
3.5864848422e-10
1.25505042075e-09
2.28299803908e-09
1.09538992427e-09
2.33250816926e-09
5.16541548607e-09
1.85438528293e-09
2.18825889913e-09
8.03624149825e-10
1.84170377103e-09
3.76267920555e-09
6.87576875408e-10
1.19088752017e-10
6.27416223541e-10
1.45704323481e-09
9.97487859269e-11
2.85337960271e-09
5.71381781751e-09
1.22072740074e-09
2.37460883497e-09
9.60347279348e-10
2.01775433359e-09
1.58735378579e-09
1.97915103106e-09
8.09090527687e-09
7.41538119315e-09
4.01190378147e-09
1.09432710141e-09
3.80638536414e-09
1.82070455341e-10
1.84181970887e-09
5.25810090248e-10
1.10682798988e-08
4.0693828885e-09
5.12507672052e-09
6.17817702107e-09
6.69580496817e-10
4.62420837843e-09
9.7536109169e-10
1.20191539238e-09
1.05515008562e-08
1.11024114396e-08
1.51210178082e-09
8.66724755894e-09
4.44238565567e-10
8.06812375312e-09
7.34777224958e-09
4.95652474484e-09
1.29359674292e-08
2.65592418162e-08
9.18333707945e-09
1.87709283696e-08
5.26135949563e-09
1.18183260177e-09
1.28944610139e-08
1.64455242251e-09
3.52658454114e-08
1.11290222004e-08
2.20496966249e-09
2.70919025935e-09
4.46681388058e-09
3.1539813733e-09
4.97925072341e-09
4.19026896577e-09
2.13492589362e-09
8.79729243652e-09
3.21354173771e-09
1.34890983511e-10
1.20166858791e-09
2.59874441278e-09
6.6570822037e-09
9.58020712626e-10
6.07548597335e-09
7.06816411549e-09
5.18520818774e-09
5.85488252828e-09
4.00340272593e-10
4.86301820277e-09
1.32242092314e-09
1.44808074219e-08
5.26413051051e-09
4.07184630484e-09
6.72844874229e-10
4.14030779172e-09
3.58246877881e-09
4.98239569322e-09
3.35700919534e-09
4.49072459389e-09
7.17309723658e-09
5.34802742492e-09
6.18853196273e-09
1.00146779318e-09
4.39701399903e-09
1.787379682e-09
2.45979353858e-09
2.49663702578e-09
1.61260193542e-09
1.85393000278e-09
1.57339675735e-09
1.03739466996e-09
4.51009403295e-09
3.54203612902e-09
2.91755837269e-09
1.2286254485e-09
1.11761055358e-08
2.40642718149e-09
1.71703022985e-09
4.67329686376e-10
2.09576102324e-09
2.38422086215e-09
3.49608552639e-09
4.25830584444e-11
4.34780007033e-09
3.32966329747e-09
5.66317296106e-10
1.67710774303e-09
7.23575151661e-11
1.25813467023e-09
1.89766406458e-09
3.593368361e-10
8.35415393428e-10
1.55137691522e-09
1.55286691508e-09
2.57252635059e-09
2.29936582143e-09
3.71622941153e-09
8.07067803338e-09
1.91345451165e-09
7.51947202783e-09
1.44389361311e-09
5.5462597575e-10
3.92404926427e-09
7.53663859539e-09
3.28440895493e-09
1.09818118873e-10
1.06785575928e-09
3.4705910261e-09
6.24341803457e-09
1.25550183638e-08
7.78188773329e-09
3.03826611713e-09
1.59980410686e-09
2.44410272455e-09
1.20131660788e-08
9.32589630434e-09
2.96507959988e-09
8.76058273778e-09
3.5400132496e-09
6.93628915418e-10
4.33541214249e-09
3.05225785493e-09
5.68116250362e-09
6.3346630489e-09
8.23278924398e-09
4.4189518185e-10
6.42176951934e-09
1.45855821121e-08
3.24218918928e-09
1.6554489268e-08
1.54394740804e-08
4.83281166293e-09
1.24123980841e-08
1.29322247768e-08
7.91299350096e-09
6.80561797775e-10
1.58870141537e-08
1.16237920463e-09
2.16447623021e-09
4.59310009619e-09
8.0619970409e-09
6.12530797523e-09
8.08241927853e-09
3.54481207901e-09
8.44215004787e-10
1.1375287734e-09
2.01850420119e-08
1.41784804921e-08
2.64208895468e-08
2.35876517722e-09
1.62524070763e-09
1.4915289924e-09
6.40481581302e-09
4.79047117107e-09
1.66490820511e-09
1.38535152247e-08
2.35032180502e-08
3.30430187839e-09
1.78888505218e-09
9.89149709212e-09
1.04682729895e-08
3.11196349787e-08
3.12321491783e-08
1.82563584805e-08
8.02574127451e-09
1.06722676803e-09
1.35044470971e-09
1.06752243755e-08
5.55318397007e-09
1.09508747651e-08
4.82191546818e-09
5.49986323239e-09
2.26626153227e-08
3.56621263242e-09
5.70568609679e-09
1.72979487061e-08
2.55846484829e-09
1.41775317639e-09
1.08326773558e-09
5.89890185014e-09
1.0406832168e-08
4.0301677509e-09
2.80366157596e-08
1.93286639447e-08
7.56678271674e-10
2.1447589595e-08
1.9276489585e-08
1.2015467569e-08
1.11452280578e-08
8.24067844717e-10
1.35544782267e-08
9.09585122969e-09
1.09160101548e-08
4.19588679457e-09
3.70096344014e-09
3.671022996e-09
1.07026856656e-09
3.49623994892e-09
7.04480862748e-09
5.00761786121e-09
2.04176612004e-09
6.1155751082e-09
1.75127207776e-08
1.51530307612e-08
2.50690005099e-08
8.39032231348e-09
1.52131988856e-08
1.13695638715e-08
7.39117550675e-09
3.92744118658e-09
1.04409749987e-08
9.11363839244e-09
1.17511196954e-08
2.13537603234e-08
5.08675198243e-09
8.59403885176e-09
3.3552356001e-09
1.41739509838e-08
1.76895811497e-08
1.89750333106e-08
3.12636836463e-09
3.61202497543e-08
8.60111210595e-09
1.35378433575e-09
6.58044757913e-10
7.95874962169e-09
1.22460451943e-08
5.37358941929e-09
2.56472087736e-08
1.00868508425e-08
3.12876174863e-09
2.55517922202e-09
3.75591339869e-09
1.87443840784e-09
1.76625175078e-08
3.28266882536e-08
1.69304568523e-08
1.43291489083e-08
2.7829668734e-09
8.23566755643e-09
1.60306858268e-09
6.31656311581e-09
5.83391278361e-09
3.52879958174e-09
3.72801705995e-09
5.94696698206e-10
6.57006531536e-09
2.65906606215e-09
3.32100329196e-10
3.47349922819e-09
2.02412388974e-09
2.4299758569e-09
2.78043478984e-09
4.7742970928e-09
1.68022108657e-09
3.74596707627e-09
3.68449531936e-09
5.32196551821e-11
5.52130370936e-09
1.45644530411e-09
1.98682272336e-10
1.04742760308e-11
7.68376839739e-09
9.99167707983e-09
6.03498164835e-09
1.55396354608e-08
2.12625589933e-09
4.29845077313e-09
1.64402216386e-09
4.15614120653e-09
3.87193970664e-10
8.19712719802e-10
1.06809833537e-09
5.14340566445e-10
1.24125724908e-09
1.90719318016e-09
1.45101436638e-09
1.99856694142e-10
7.35393822965e-10
9.91081764948e-10
1.0286225556e-09
4.3203778491e-10
1.93397268334e-09
1.37065581836e-09
1.05289387947e-09
8.46154532066e-10
6.29989682332e-10
2.3829460107e-09
3.5764074469e-10
3.7744955236e-10
9.17310187641e-10
2.12807959507e-10
1.31272948129e-09
2.2640873102e-12
3.91782094412e-10
9.57841726315e-10
1.58345728519e-09
1.3749839955e-09
1.60794918859e-10
1.08876617564e-10
8.5484867873e-10
1.86866575985e-10
2.73039305908e-10
1.16283990225e-09
2.13444393007e-10
3.72545227398e-10
1.12809111763e-09
9.05770725855e-11
6.53106760733e-10
5.30529472214e-10
1.94799924913e-10
8.62722021181e-10
6.05963536418e-10
2.15073150095e-09
3.35686426672e-10
6.2003621773e-10
7.30046670832e-10
1.9981985313e-09
5.74911549749e-10
8.24541000744e-10
2.88217457874e-10
1.96713845037e-10
1.27429169342e-09
2.62593769259e-10
3.93197539564e-10
4.39546575724e-10
3.86405270396e-09
1.75587144066e-10
4.52139391956e-10
1.2610591552e-09
4.59516073262e-10
1.56358692612e-09
2.27533544576e-09
4.89586920606e-10
2.23432061997e-09
2.67653240976e-09
8.03240326885e-10
4.65179819228e-09
3.03232041974e-09
7.59441390985e-09
4.22524430693e-09
7.03749218618e-09
8.29508989761e-10
7.7635295697e-11
9.34607854889e-09
8.57646817857e-10
3.17989325428e-09
8.37679821032e-09
1.6075871012e-09
5.32115384842e-10
1.15078801286e-09
8.22563747134e-09
1.85306923292e-08
1.27276471472e-08
8.90476143918e-10
3.25811230903e-09
9.31138167715e-10
7.43779908011e-09
8.87389769981e-09
1.39585505523e-08
1.8896709565e-09
1.64863556105e-10
3.6865689161e-09
1.42293071594e-09
5.97591864961e-09
1.82610096635e-08
4.98379560033e-10
6.69732920791e-10
1.03543981411e-09
2.3126013068e-09
8.69413721441e-10
4.99246786066e-09
1.21317788583e-09
3.46532296693e-10
3.46522807058e-12
1.62101265612e-09
1.42788858968e-09
2.18688887064e-10
8.61994425296e-10
5.29182728798e-10
1.01191414939e-09
1.51118448573e-09
2.14138000775e-09
1.82625811555e-10
6.19945329507e-10
4.71540690657e-10
3.56227084239e-11
2.28468521271e-10
1.31938764879e-09
4.01344976638e-10
8.2012819369e-11
2.7086110441e-09
1.80437539688e-09
1.54058485022e-09
1.09091888039e-09
4.16728828079e-09
5.29028139364e-10
1.53313530385e-10
2.18985177928e-09
6.90108502148e-10
6.51930419345e-10
9.4804870541e-10
1.5738553871e-09
1.31736736344e-09
7.86982122291e-10
2.4392373427e-10
1.0740180359e-09
1.7882865104e-09
2.4364379871e-09
1.21310499103e-09
4.22837518927e-11
1.13278315965e-09
7.84642144405e-10
6.33039565034e-10
1.08797933795e-09
2.48120373547e-10
1.39245685791e-09
6.80437819524e-10
2.75201322481e-10
1.10060891013e-09
8.70547947328e-10
1.70346340679e-09
5.32434767923e-10
6.82205055043e-10
8.7593501512e-10
1.38229479042e-09
5.1789783331e-10
9.12763725917e-10
2.20068332972e-09
1.28228719098e-09
1.04913687499e-09
5.30174454357e-11
3.44938064864e-09
3.06028459819e-09
2.28315894174e-09
1.54545196308e-09
8.01964637572e-10
4.28574163097e-10
1.19168831735e-09
4.8503840565e-09
2.56271059514e-09
1.1918235999e-09
1.10885492281e-09
8.61315516246e-10
1.20031913823e-09
2.36236669961e-09
1.00006601322e-09
5.06416269527e-09
7.58733212176e-10
7.32387344995e-10
6.73787940568e-11
4.08192537971e-10
1.82312221577e-10
2.41147696124e-09
2.38006141366e-09
1.80684326955e-09
9.794521407e-10
1.48617496276e-09
8.97361638798e-10
4.24773661776e-10
2.06908575388e-09
2.26290206706e-09
1.97900172706e-10
9.14109877062e-10
9.48844428425e-10
3.67336352617e-11
2.39628020423e-09
5.26970261077e-09
2.89304678724e-10
2.08837329531e-09
8.83955753371e-11
2.09090589285e-09
1.50582541078e-09
1.3434592981e-09
1.39840840921e-08
2.46419979603e-09
8.41570979735e-09
6.14187725728e-09
1.18484662612e-09
2.24828274349e-10
4.20284118811e-09
6.40571904369e-10
1.32228659868e-09
9.0211613021e-09
9.58216769765e-10
1.76006207844e-08
4.78967617048e-09
3.3372345774e-09
6.01769133714e-09
4.86724805708e-09
1.09874683875e-08
9.26740924483e-09
8.32785980498e-09
9.30317664953e-09
6.53700184503e-09
9.71795879987e-09
2.35368478336e-08
2.50568286392e-09
7.03152545088e-09
7.28918764871e-09
1.46089778587e-08
8.31300748673e-09
1.52551257595e-08
2.83410393523e-08
3.44500501843e-09
1.83463439621e-08
8.81409281878e-10
2.33720523675e-09
3.86372757052e-09
5.02867155404e-09
5.73403229999e-11
8.17769012206e-10
2.57554394991e-09
2.19501142633e-09
2.4241143993e-09
9.16249725442e-10
8.40753158833e-10
5.68804877106e-10
1.53332251154e-09
1.80630450729e-10
1.23894482342e-10
8.36271872852e-10
4.7129741869e-10
9.86985873586e-10
1.40057017763e-09
1.2734860607e-09
4.57013823715e-09
4.96511200777e-10
1.95998100367e-09
1.09113026357e-09
2.97193573196e-09
4.78299207852e-09
2.05695467428e-09
4.91155729603e-09
1.42998115756e-09
3.08187426594e-09
5.47627089562e-09
6.36481429192e-09
1.17237371319e-09
2.31646744974e-09
4.7731627979e-10
6.6950266475e-09
3.0168045579e-09
1.20403757977e-08
1.14777595595e-09
5.34480677761e-12
4.78194996768e-09
5.25945936149e-09
1.04694783612e-08
1.04679426377e-08
1.12145233128e-08
1.42541242314e-09
1.50864177428e-08
2.89809243589e-09
4.34551414034e-10
9.80523856088e-09
2.67346123809e-08
2.58793126265e-08
1.65459197861e-08
3.61888237339e-08
1.25440737797e-08
1.7051450504e-08
2.71869715198e-08
2.47946598057e-08
1.40779478425e-08
1.47420026176e-08
2.16176970964e-08
1.27521980743e-08
1.18881703208e-08
1.17376273407e-08
1.33729290802e-08
9.06320626836e-09
1.58819628348e-08
8.41096385308e-09
1.06367496184e-09
8.89741089501e-09
2.8025841969e-09
4.26630427857e-09
4.34027771473e-09
6.33720931915e-09
3.37119269195e-09
6.60807158362e-09
6.29422908914e-09
8.66196260179e-09
9.43640456108e-10
3.43445117552e-09
1.78164556792e-10
2.79506052343e-09
3.52494884553e-09
1.01803358392e-09
7.04648042944e-09
4.19584571654e-09
4.17940472639e-09
1.88336508433e-09
7.37121125559e-09
1.09157633823e-08
4.76493183434e-09
1.13127541882e-08
3.23233812865e-08
2.14802838876e-08
2.10049438357e-09
1.19019435825e-08
6.6661080431e-09
3.42926302214e-09
5.20668067789e-09
1.34383176336e-10
2.69590129713e-09
4.070155887e-10
2.63930681498e-09
4.2564833309e-09
1.2313049871e-09
1.14981956128e-09
5.92806574489e-09
1.0648281599e-08
2.34497171817e-08
1.74154910725e-08
5.92923919346e-09
4.21333272918e-09
3.09890752775e-09
3.00103147059e-10
4.31514777845e-09
3.89572865963e-10
1.39088481638e-09
7.41349315924e-10
8.28487278163e-11
3.94147659144e-09
2.40219019724e-09
8.86337050518e-09
3.94169527917e-09
1.9339146565e-09
8.18973557386e-09
3.3538436465e-09
3.49314540856e-09
1.82299896246e-09
5.20385115264e-10
2.89702526249e-09
7.30510965962e-10
3.43656683176e-09
2.12563830363e-09
1.87008620138e-09
2.04881109766e-09
3.21516158545e-09
7.61456266167e-09
3.99649412288e-09
7.580605494e-09
5.10633349587e-10
1.43419399834e-09
4.7609800931e-10
3.70531533652e-09
3.76671835387e-10
1.08713066784e-09
1.75073875331e-09
3.91486229329e-09
8.12710752226e-09
9.55688627273e-10
5.13134376162e-09
1.5150995781e-08
4.38208010075e-09
1.16978272145e-08
4.41464875363e-09
3.79645488652e-09
1.2214235128e-09
3.36263709225e-09
5.91524509609e-09
1.78214487658e-10
2.1783847191e-09
2.6103802049e-09
1.09873515522e-09
3.55019315004e-09
5.00801313088e-10
7.20800623031e-09
1.39953040405e-09
8.9041568062e-09
4.10637214439e-09
7.14900625532e-09
5.87549793105e-09
2.17849899388e-09
1.31883960491e-09
3.97358314998e-09
5.18121792289e-09
9.56373808024e-09
1.67416715419e-08
6.0350406444e-09
9.14462323891e-09
7.36508072058e-09
1.35244071132e-10
2.94051855401e-09
2.34212423714e-08
6.04985244644e-10
2.34781073131e-08
1.07879086733e-08
8.84751459138e-09
2.06931982296e-08
1.10083282006e-09
1.53912614798e-08
1.52725211642e-09
2.61215037648e-09
1.14409630833e-09
1.41415257372e-09
6.02187102528e-10
5.36077082501e-09
7.78093127983e-09
2.51912142661e-09
2.95781115941e-08
8.06305497001e-09
2.5822052841e-08
5.80975846533e-09
6.15482194112e-09
8.68434366618e-09
5.41570510491e-10
4.90620296907e-09
3.40459697098e-09
1.28789117786e-09
5.11131205375e-09
9.98897595178e-10
5.81157336271e-09
1.19296354754e-08
3.56338482389e-09
2.72063840929e-09
2.69538981311e-08
1.41293641429e-08
1.11320268482e-08
3.11814045779e-09
2.49188210225e-09
8.34323984159e-09
9.85861319894e-10
3.8688080274e-09
9.24464966715e-09
3.73476235366e-09
1.21857546683e-08
2.38646203646e-10
1.26198568085e-08
1.2308967466e-08
4.79270436201e-10
1.01769419684e-09
6.31142433352e-09
9.65634682733e-09
6.15661316465e-09
9.24680758318e-09
1.45571862847e-09
1.96208038995e-09
6.91515076995e-09
8.30240098342e-10
7.64643509101e-10
8.69894162727e-09
4.71531746071e-10
2.1609560163e-10
2.34360147106e-09
1.39581118573e-10
8.21474088879e-09
8.38631256119e-09
5.36040699768e-09
5.23725931877e-09
5.4181299276e-09
2.3708241002e-09
8.49411800873e-10
2.56649119321e-09
1.84108960983e-09
5.52958563255e-09
7.19713707074e-09
4.19671724809e-10
6.35181349463e-09
4.42501469073e-09
6.02937025e-10
1.1140502598e-10
8.08598761639e-09
1.76374894957e-08
1.34342874022e-08
4.17248337187e-09
1.56531193702e-09
2.95343594091e-09
3.24871455653e-09
2.22681638534e-09
7.09551543851e-10
1.48938728172e-08
1.73557979037e-08
2.0353309665e-09
6.30811787424e-09
4.4672122454e-09
1.68364490759e-09
5.19331853045e-09
2.71030637281e-09
1.04196864338e-08
1.06761956155e-08
4.31443249423e-09
4.92085215026e-09
1.44583379709e-09
3.16261244046e-09
1.32591477189e-09
7.77945350821e-09
1.1826622468e-09
9.01373600925e-09
9.72032139405e-10
3.31388755253e-09
9.01499148384e-10
1.17852562951e-09
3.93191377912e-09
9.67757118016e-10
3.00516016251e-09
4.63139371869e-09
2.37180943931e-09
6.74938448787e-09
3.81525108656e-10
2.60899037936e-09
2.48300880495e-09
6.27414984621e-09
7.2280728627e-10
5.66480839392e-09
1.94763174201e-10
1.63386943353e-09
3.22381551925e-10
1.66881069411e-09
5.72845010216e-09
5.58529904658e-10
5.49933395559e-09
8.46026061046e-09
9.53102104947e-09
2.21273748539e-09
7.10325968845e-10
4.58606207082e-09
6.36156069906e-09
8.03039367505e-09
9.90068554194e-09
4.54792757856e-09
2.31345117848e-09
3.76021065609e-09
4.23554271087e-10
1.69781455153e-09
1.2954022758e-08
1.17710296981e-10
1.02391898963e-08
1.07677657255e-08
9.34089814281e-09
1.61106482097e-08
4.35577582807e-09
7.56809817379e-09
7.89010217867e-09
1.13929488547e-08
5.83384415691e-09
8.16009563074e-09
3.11898240681e-09
1.44524504182e-10
2.32730894693e-09
6.31466736906e-09
1.60089912366e-09
9.00254948212e-10
1.76179009071e-09
2.10151565942e-09
1.61556131053e-09
4.29012240565e-09
7.51263496855e-09
4.87483801723e-09
3.10076541465e-10
5.21370857437e-09
5.86095694554e-09
4.02910269264e-09
2.28660133906e-09
7.16976075793e-09
1.63529871145e-08
8.3394850124e-10
1.28977036692e-08
7.73085293028e-09
1.07357848951e-09
6.4977523747e-09
4.44958738481e-10
2.04810894183e-10
1.02633991919e-09
9.42206371843e-10
2.30846567015e-09
2.20371129096e-09
1.3864293165e-09
8.12320738651e-09
4.41857318733e-10
9.58974521023e-10
1.1938792817e-09
8.2043814213e-09
3.03826011924e-09
3.48181649098e-09
7.8723836787e-09
1.47877556203e-08
1.37710234696e-08
1.92241664873e-08
1.0096961256e-08
5.57893023961e-09
1.32350681015e-08
1.49547353048e-08
2.52707549294e-08
2.36034739303e-08