# vtk DataFile Version 3.0
File Name: Molecule/arg/arg_6.25-2.vtk
ASCII
DATASET UNSTRUCTURED_GRID
FIELD FieldData 1
TIME 1 1 double
0.0
POINTS 1077 double
-3.403 0.327 1.604
-3.458 0.149 1.214
-3.138 0.005 1.702
-3.19 -0.164 1.33
-2.981 -0.361 1.858
-3.036 -0.538 1.468
-3.398 0.034 0.803
-3.133 -0.274 0.938
-2.976 -0.654 1.057
-3.231 -0.009 0.408
-2.974 -0.315 0.561
-2.809 -0.697 0.662
-2.971 0.024 0.066
-2.725 -0.284 0.235
-2.549 -0.664 0.32
-2.984 0.046 0.042
-2.617 -0.045 -0.207
-2.63 -0.024 -0.229
-2.351 -0.22 -0.527
-2.365 -0.198 -0.55
-2.2 -0.483 -0.862
-2.216 -0.458 -0.889
-3.215 0.428 -0.189
-2.686 0.062 -0.328
-2.875 0.375 -0.517
-2.48 -0.047 -0.742
-2.657 0.246 -0.92
-2.39 -0.269 -1.153
-2.586 0.057 -1.35
-3.255 0.893 -0.375
-2.908 0.756 -0.67
-2.688 0.604 -1.063
-2.621 0.454 -1.509
-3.1 1.357 -0.484
-2.781 1.137 -0.759
-2.569 0.961 -1.147
-2.488 0.85 -1.602
-2.776 1.74 -0.497
-2.515 1.451 -0.77
-2.319 1.256 -1.157
-2.211 1.177 -1.613
-2.622 1.932 -0.429
-2.434 1.563 -0.734
-2.291 1.743 -0.67
-2.16 1.459 -1.077
-2.01 1.647 -1.011
-1.982 1.439 -1.492
-1.81 1.654 -1.416
-2.666 2.281 -0.134
-2.227 2.054 -0.482
-2.267 2.371 -0.214
-1.881 2.228 -0.637
-1.921 2.545 -0.369
-1.615 2.438 -0.879
-1.659 2.787 -0.585
-2.622 2.533 0.247
-2.227 2.6 0.132
-1.881 2.773 -0.023
-1.614 3.039 -0.203
-2.495 2.657 0.67
-2.111 2.713 0.516
-1.765 2.886 0.361
-1.488 3.163 0.22
-2.925 2.572 1.071
-2.251 2.77 1.005
-2.634 2.694 1.361
-2.033 3.002 1.293
-2.411 2.928 1.645
-1.863 3.333 1.507
-2.279 3.251 1.894
-3.186 2.284 1.521
-2.865 2.437 1.761
-2.64 2.674 2.039
-2.53 2.972 2.328
-3.419 1.801 1.788
-2.888 2.359 1.917
-3.122 1.876 2.185
-2.717 2.558 2.345
-2.979 2.017 2.644
-3.552 1.393 1.822
-3.202 1.735 2.161
-3.319 1.374 2.191
-3.094 1.732 2.585
-3.21 1.376 2.614
-3.107 1.793 3.017
-3.235 1.399 3.05
-3.548 0.964 1.825
-3.316 0.994 2.194
-3.206 1.001 2.617
-3.231 0.984 3.053
-3.408 0.559 1.798
-3.191 0.635 2.17
-3.084 0.647 2.593
-3.095 0.593 3.027
-3.105 0.348 2.085
-3.1 0.088 1.867
-2.97 0.105 2.152
-3.02 0.504 2.546
-2.901 0.29 2.606
-2.978 0.383 3.085
-2.865 -0.346 2.113
-2.52 -0.7 2.425
-2.789 -0.06 2.411
-2.48 -0.378 2.69
-2.828 0.19 2.745
-2.523 -0.123 3.02
-2.645 0.041 3.387
-2.483 -1.039 2.238
-2.249 -0.827 2.688
-2.214 -1.15 2.51
-2.072 -0.978 3.011
-2.036 -1.312 2.826
-2.003 -1.142 3.367
-1.962 -1.514 3.162
-2.359 -1.33 2.011
-2.096 -1.427 2.294
-1.914 -1.599 2.602
-1.826 -1.833 2.912
-2.159 -1.55 1.761
-1.905 -1.637 2.055
-1.716 -1.817 2.356
-1.606 -2.075 2.638
-1.897 -1.684 1.507
-1.655 -1.765 1.813
-1.457 -1.949 2.105
-1.318 -2.222 2.359
-1.592 -1.721 1.268
-1.365 -1.8 1.585
-1.156 -1.986 1.869
-0.984 -2.263 2.097
-1.926 -1.641 1.017
-1.351 -1.766 0.91
-1.664 -1.691 0.675
-1.133 -1.941 0.578
-1.457 -1.864 0.334
-0.96 -2.23 0.303
-1.327 -2.142 0.027
-2.203 -1.444 0.759
-1.923 -1.507 0.433
-1.726 -1.673 0.084
-1.631 -1.926 -0.256
-2.396 -1.15 0.52
-2.103 -1.231 0.209
-1.913 -1.387 -0.149
-1.843 -1.603 -0.519
-2.487 -0.785 0.321
-2.189 -0.889 0.022
-2.002 -1.032 -0.342
-1.943 -1.202 -0.738
-2.264 -0.668 -0.026
-2.322 -0.554 -0.027
-2.141 -0.611 -0.433
-2.203 -0.492 -0.433
-2.131 -0.618 -0.861
-2.114 -0.682 -1.181
-1.927 -1.264 -1.052
-2.312 -0.441 -1.376
-2.121 -0.506 -1.916
-2.042 -0.816 -1.214
-1.838 -0.886 -1.79
-1.682 -1.348 -1.746
-1.975 -0.256 -2.322
-1.864 -0.768 -1.888
-1.672 -0.441 -2.421
-1.897 0.192 -2.527
-1.57 0.147 -2.691
-1.996 0.646 -2.441
-1.495 0.306 -2.776
-1.602 0.798 -2.682
-1.198 0.386 -3.152
-1.328 0.981 -3.039
-2.011 1.039 -2.18
-1.619 1.224 -2.399
-1.348 1.496 -2.696
-1.72 1.257 -2.235
-1.631 1.561 -2.005
-1.259 1.801 -2.466
-1.479 1.817 -1.75
-1.107 2.057 -2.211
-1.346 2.153 -1.415
-1.642 2.007 -1.116
-1.319 2.584 -1.178
-0.816 3.013 -1.267
-1.159 2.356 -1.471
-0.676 2.767 -1.557
-1.087 2.175 -1.825
-0.583 2.604 -1.915
-0.543 2.537 -2.312
-0.229 3.384 -1.004
-0.488 2.934 -1.522
-0.105 3.176 -1.351
-0.228 2.93 -1.855
0.02 3.086 -1.745
-0.059 3.001 -2.236
0.134 3.123 -2.15
0.003 3.141 -2.63
0.229 3.284 -2.529
-0.048 3.337 -3.001
0.294 3.553 -2.848
0.466 3.148 -0.891
0.348 3.022 -1.277
0.313 2.987 -1.697
0.364 3.045 -2.112
0.497 3.193 -2.485
0.699 3.415 -2.782
0.833 2.913 -0.61
0.553 2.897 -1.196
0.905 2.671 -0.926
0.699 2.74 -1.539
1.067 2.504 -1.257
0.892 2.689 -1.891
1.303 2.425 -1.576
1.057 2.557 -0.305
1.12 2.33 -0.634
1.29 2.148 -0.952
1.553 2.026 -1.234
0.979 2.767 0.195
1.24 2.204 -0.113
1.167 2.404 0.362
1.539 1.918 0.039
1.462 2.128 0.539
0.737 2.845 0.68
0.936 2.478 0.823
1.22 2.206 1.024
0.406 3.093 0.833
0.701 2.629 1.02
0.405 2.851 1.157
0.756 2.48 1.392
0.466 2.698 1.526
0.897 2.411 1.765
0.584 2.646 1.91
1.112 2.426 2.108
0.748 2.699 2.276
0.102 3.399 0.689
0.142 3.058 1.218
-0.121 3.323 1.093
-0.01 3.117 1.656
-0.27 3.379 1.533
-0.034 3.266 2.099
-0.327 3.561 1.96
-0.29 3.571 0.538
-0.462 3.472 0.961
-0.606 3.526 1.403
-0.705 3.727 1.814
-0.721 3.587 0.398
-0.837 3.486 0.84
-0.976 3.54 1.283
-1.123 3.742 1.679
-1.138 3.445 0.287
-1.199 3.363 0.744
-1.333 3.418 1.189
-1.525 3.605 1.572
-1.502 3.118 0.685
-1.632 3.177 1.131
-0.05 3.403 2.531
0.304 2.919 2.221
0.288 3.057 2.654
0.729 2.855 2.766
-0.175 3.437 2.964
0.162 3.091 3.09
0.587 2.894 3.259
-0.395 3.364 3.353
-0.059 3.019 3.48
0.337 2.812 3.701
-0.687 3.194 3.654
-0.352 2.847 3.783
0.006 2.617 4.044
-1.13 3.18 3.766
-0.58 2.815 3.881
-1.094 2.799 4.011
-1.584 3.151 3.721
-1.62 2.766 3.959
-1.995 3.111 3.523
-2.096 2.719 3.73
-2.312 3.063 3.198
-2.464 2.664 3.352
-2.498 3.015 2.783
-2.679 2.608 2.871
-0.749 2.537 4.164
-0.16 2.345 4.321
-0.912 2.194 4.368
-0.321 2.009 4.521
-1.061 1.806 4.483
-0.466 1.628 4.634
-1.364 2.231 4.354
-1.452 1.611 4.604
-1.713 1.977 4.492
-1.735 2.528 4.103
-2.033 2.233 4.276
-2.128 2.66 3.763
-2.373 2.347 3.982
-2.496 2.611 3.374
-2.69 2.305 3.646
-2.791 2.388 2.985
-2.945 2.113 3.311
-1.464 1.095 4.666
-0.956 1.592 4.533
-0.968 1.074 4.596
-0.48 1.041 4.705
-1.655 0.731 4.634
-1.079 0.886 4.596
-1.26 0.541 4.565
-0.689 0.687 4.666
-0.881 0.322 4.633
-0.333 0.517 4.869
-0.555 0.096 4.831
-2.027 0.463 4.516
-1.383 0.368 4.531
-1.728 0.119 4.423
-1.114 -0.009 4.584
-1.476 -0.27 4.469
-0.878 -0.357 4.785
-1.3 -0.661 4.651
-2.342 0.241 4.242
-2.019 -0.087 4.169
-1.783 -0.487 4.202
-1.658 -0.914 4.34
-2.557 0.093 3.848
-2.219 -0.224 3.803
-1.993 -0.631 3.818
-1.903 -1.082 3.892
-2.301 -0.273 3.375
-2.078 -0.682 3.368
-0.557 -0.612 4.999
-0.228 -0.165 5.05
-0.202 -0.89 5.102
0.134 -0.447 5.155
0.164 -1.171 5.088
0.507 -0.734 5.141
0.347 -1.566 4.993
0.615 -0.976 5.092
0.789 -1.35 5.001
1.043 -0.806 5.264
1.226 -1.201 5.169
0.533 -1.916 4.791
0.965 -1.683 4.809
1.412 -1.551 4.967
0.709 -2.198 4.495
1.133 -1.951 4.529
1.588 -1.833 4.672
0.864 -2.393 4.127
1.28 -2.136 4.179
1.743 -2.029 4.303
0.987 -2.488 3.71
1.397 -2.227 3.783
1.866 -2.124 3.886
1.07 -2.477 3.273
1.475 -2.216 3.368
1.949 -2.112 3.449
1.107 -2.36 2.845
1.511 -2.104 2.962
1.986 -1.995 3.021
1.096 -2.144 2.456
1.5 -1.9 2.592
1.975 -1.78 2.632
1.037 -1.846 2.131
1.444 -1.616 2.284
1.916 -1.481 2.307
0.738 -2.198 2.121
0.836 -1.714 1.711
0.588 -2.005 1.702
0.77 -1.662 1.233
0.54 -1.933 1.225
0.848 -1.697 0.757
0.6 -1.988 0.748
1.061 -1.813 0.337
0.762 -2.165 0.327
0.341 -2.433 2.111
0.259 -2.2 1.694
0.235 -2.113 1.218
0.272 -2.183 0.74
0.364 -2.4 0.317
-0.112 -2.527 2.103
-0.115 -2.278 1.688
-0.112 -2.185 1.212
-0.103 -2.26 0.734
-0.088 -2.494 0.31
-0.57 -2.468 2.098
-0.494 -2.229 1.684
-0.464 -2.14 1.209
-0.482 -2.211 0.73
-0.546 -2.435 0.305
-0.837 -2.059 1.682
-0.782 -1.983 1.207
-0.825 -2.042 0.728
1.48 -1.078 0.031
1.028 -1.535 0.641
1.346 -0.978 0.409
1.078 -1.33 0.996
1.331 -0.887 0.812
1.205 -1.217 1.373
1.436 -0.812 1.205
1.4 -1.205 1.737
1.652 -0.762 1.553
1.644 -1.296 2.058
1.961 -0.739 1.826
2.335 -0.746 2.002
1.639 -0.712 -0.547
1.451 -0.719 0.207
1.594 -0.39 -0.313
1.526 -0.39 0.423
1.664 -0.072 -0.079
1.697 -0.118 0.66
1.842 0.216 0.134
1.696 -1.103 -0.765
1.721 -0.524 -0.905
1.774 -0.881 -1.103
1.914 -0.328 -1.213
1.966 -0.68 -1.408
2.201 -0.141 -1.444
2.257 -0.517 -1.652
1.645 -1.46 -1.037
1.727 -1.206 -1.352
1.92 -1.0 -1.653
2.207 -0.859 -1.914
1.488 -1.753 -1.343
1.584 -1.473 -1.631
1.779 -1.262 -1.928
2.057 -1.14 -2.207
1.239 -1.959 -1.658
1.357 -1.661 -1.918
1.555 -1.448 -2.211
1.818 -1.338 -2.51
0.916 -2.062 -1.958
1.063 -1.755 -2.191
1.266 -1.54 -2.479
1.509 -1.437 -2.797
0.547 -2.053 -2.217
0.726 -1.747 -2.428
0.934 -1.532 -2.712
1.154 -1.428 -3.046
0.159 -1.934 -2.416
0.372 -1.638 -2.609
0.586 -1.425 -2.891
0.782 -1.314 -3.237
-0.216 -1.714 -2.539
0.031 -1.437 -2.721
0.25 -1.227 -3.001
0.423 -1.103 -3.355
-0.548 -1.409 -2.576
-0.272 -1.16 -2.755
-0.048 -0.954 -3.034
0.104 -0.811 -3.39
-0.822 -1.287 -2.506
-0.408 -0.948 -2.806
-0.669 -0.831 -2.739
-0.336 -0.591 -3.197
-0.616 -0.466 -3.125
-1.158 -1.334 -2.315
-0.988 -0.705 -2.664
-1.33 -0.753 -2.469
-1.449 -1.354 -2.058
-1.627 -0.774 -2.207
-1.322 -0.31 -2.728
-0.95 -0.071 -3.189
-0.33 -0.315 -3.523
0.111 -0.551 -3.697
-0.251 0.008 -3.791
0.185 -0.248 -3.95
-0.104 0.358 -3.987
0.323 0.082 -4.134
0.101 0.716 -4.098
0.516 0.418 -4.238
-0.411 1.252 -3.909
0.252 1.048 -4.202
-0.118 1.435 -4.065
0.377 1.347 -4.4
0.11 1.626 -4.301
-0.398 1.946 -3.588
-0.108 1.937 -3.833
0.117 1.987 -4.134
-0.712 2.237 -2.975
-0.187 2.28 -3.528
-0.425 2.5 -3.065
-0.042 2.651 -3.554
-0.227 2.824 -3.192
0.028 3.029 -3.665
-0.135 3.18 -3.347
-0.298 2.727 -2.563
-0.128 3.001 -2.799
0.9 3.106 -3.671
0.147 2.667 -3.761
0.845 2.729 -3.765
0.177 2.31 -3.921
0.876 2.372 -3.926
0.989 2.064 -4.14
1.128 2.855 -3.473
0.819 3.383 -2.845
1.063 3.077 -2.811
1.418 2.615 -3.364
1.354 2.837 -2.702
1.749 2.404 -3.353
1.668 2.681 -2.526
0.858 3.054 -2.621
0.721 3.091 -2.55
0.962 2.795 -2.335
0.787 2.842 -2.245
1.123 2.627 -2.01
1.688 2.19 -1.733
1.386 2.606 -2.284
1.794 2.29 -2.083
1.962 2.454 -2.382
2.133 1.624 -1.992
2.116 1.881 -2.27
2.194 2.159 -2.516
2.141 1.301 -1.585
2.428 1.273 -2.257
2.435 0.969 -1.874
2.042 0.907 -1.262
2.342 0.599 -1.57
1.981 1.32 -1.261
1.884 0.909 -0.851
1.83 1.271 -0.85
[...]
CELL_DATA 2150
SCALARS cell_data_0 double
LOOKUP_TABLE default
1.32976417414e-09
1.11800481959e-09
8.60393230417e-10
1.50916054865e-09
5.38128339917e-10
2.36943714886e-10
1.13038356474e-09
1.07605613532e-09
5.04123429352e-11
1.16618864918e-09
1.0561590413e-09
1.56959714774e-09
8.76031184932e-10
1.0270946509e-09
1.80079338177e-09
6.35269487888e-10
1.01535847937e-10
7.02346404849e-11
4.18195159127e-11
7.46207399428e-11
4.75102811086e-11
1.49195186334e-10
2.22549171225e-10
2.64491998539e-10
8.38595055637e-10
1.03832286449e-09
1.22406260328e-09
2.03161557749e-09
1.14853060006e-09
6.13798768597e-10
1.92914683527e-09
3.55296764145e-09
3.69460639679e-09
7.75375373511e-09
2.68198040657e-09
2.17856557243e-08
1.83332977968e-08
1.38797069068e-08
3.58287840338e-09
2.17164716758e-08
2.59091119392e-08
1.92162456011e-08
1.63828401395e-08
4.30898037063e-09
9.84305743133e-09
1.49521881477e-08
3.72557263484e-09
9.18810293599e-09
7.10886564645e-10
6.13577119627e-10
7.08581942919e-09
8.65570471128e-09
2.49779840598e-09
3.15556680053e-09
5.40677157592e-09
8.64887208909e-09
1.11038130859e-09
7.16969163533e-09
3.76051157108e-09
1.8720692796e-09
1.51800924866e-09
7.61403774624e-10
1.25941977173e-09
2.42626620096e-09
2.50128241026e-08
2.18813931908e-08
3.21488668324e-09
4.39861496218e-09
2.89420899676e-09
3.65869883886e-09
3.65621122357e-08
8.59814027657e-09
3.69500122949e-10
6.86173121564e-11
5.89583927996e-08
5.95156901211e-08
1.37034055263e-08
1.25689689637e-08
7.80651176847e-09
3.62456954464e-09
2.81409865175e-09
4.8055206437e-08
1.80103255084e-08
2.49660582387e-10
2.95503703436e-08
4.15648042041e-08
2.98083035414e-10
1.26452004912e-09
1.49094186877e-09
3.59768374385e-09
3.07248663829e-09
1.33563914753e-10
3.33977097455e-09
6.59775334768e-09
2.90384680954e-09
2.17229952854e-09
1.03932958502e-09
5.37215067991e-09
7.73182617656e-09
6.48544870351e-09
5.5044039674e-09
2.57189977584e-08
2.79425252529e-08
2.90591439611e-08
2.45620371398e-10
1.06114330469e-09
5.61015631029e-10
2.88439891205e-08
2.75295805275e-08
2.48752290394e-08
1.8259127916e-09
7.99168767315e-10
6.35693087067e-08
5.91351729284e-08
3.66216694794e-08
1.00003381592e-07
9.81555505544e-08
7.034992285e-09
1.11390505548e-07
6.75754414501e-07
7.82299579891e-07
7.81031910619e-07
6.64842099044e-10
1.09444208748e-09
7.02564134844e-07
7.76409981656e-07
7.57035094841e-07
7.80722580077e-10
1.31368943096e-10
7.10427083159e-09
5.1153747716e-09
8.41888645601e-09
3.09888250782e-09
1.99415028208e-09
6.95869730709e-09
8.74768759921e-09
9.30434106039e-09
3.30709427517e-09
1.70680556915e-09
5.43934614079e-12
8.25554963956e-10
1.98741135572e-09
1.41490383089e-09
1.02974402705e-09
1.14453002064e-09
1.46727789672e-09
6.1125421817e-10
9.38504831211e-11
1.47142053874e-09
1.10475141978e-09
9.13417840724e-10
1.93068510991e-09
2.33122687744e-09
1.29210874508e-09
1.20245492738e-09
2.06240294778e-10
1.1357245786e-09
8.74359309348e-10
4.64307713954e-10
8.59579154676e-10
1.74627873029e-09
6.22052592404e-10
1.09723433771e-09
2.25107022799e-09
3.30435133372e-11
1.15209038331e-09
1.06251456433e-09
4.71658635569e-10
9.47859356788e-10
3.13902932272e-10
3.76472690897e-10
1.02474012987e-10
3.36164077396e-10
3.10690301555e-10
1.95159484491e-10
6.1183038037e-10
2.29153448543e-10
4.02514944298e-10
2.98553014735e-10
1.18381873085e-09
8.66417034197e-10
2.13510390306e-10
3.28346339582e-09
8.62313416888e-10
1.20174388895e-09
4.62888714507e-09
1.23455017213e-09
4.99903127989e-10
1.37720574026e-09
4.83120661548e-09
1.63925616966e-09
3.26141375228e-10
5.75209576896e-11
3.16038549877e-10
4.477380201e-09
5.27108721864e-09
1.52663766486e-10
6.1424586922e-10
1.69817283015e-09
2.18499292611e-09
1.86091994646e-09
1.65003557984e-10
9.20205495855e-10
9.40850836635e-10
1.26321716058e-08
1.05054769638e-08
6.07205054961e-10
8.57507288945e-09
5.96514186923e-11
1.26567286815e-09
3.01334267792e-10
1.29233206632e-09
3.39954524309e-10
1.44993523772e-10
3.38610664773e-10
7.9222118142e-10
7.67471510362e-10
1.12180258714e-09
1.04930730423e-09
4.35154679695e-10
9.11474988127e-10
8.90355181772e-10
3.96687346087e-11
3.37446101246e-11
2.46521094234e-09
1.47177933958e-09
1.58425038761e-09
5.30079661055e-10
7.51521847932e-10
6.33276576881e-10
3.95804421801e-10
2.4339018934e-10
1.14735958262e-10
9.76746870099e-10
1.08844573061e-09
7.35600140766e-10
1.8290235831e-09
1.99703553266e-09
4.48290045277e-10
5.28091527417e-11
5.77720053957e-10
1.3463002488e-09
1.52368581524e-09
4.61107997223e-10
4.48051704809e-10
9.94689566894e-11
3.74308079658e-10
4.03515959413e-10
1.53897887107e-10
2.71372694599e-11
8.74345788151e-10
4.08386827798e-11
1.38023447819e-10
7.15294509779e-10
1.49289430695e-09
3.54427987996e-10
4.66358742061e-11
1.07973311578e-09
1.17562763832e-09
8.39298834272e-10
1.08840287871e-09
2.04899266932e-09
2.51201523254e-10
3.069719417e-10
2.25315659366e-10
6.09224568224e-11
2.62932248699e-10
6.86870614745e-10
7.91059958086e-10
9.01687609169e-11
5.56292055733e-10
2.58747811838e-10
1.13593495997e-10
1.3364355779e-09
8.75549150609e-10
1.92764603136e-10
1.94647215123e-10
1.58177009233e-10
1.34197382325e-09
2.06186262787e-09
1.20191287979e-09
7.57314099267e-10
5.58993528574e-11
1.51459317024e-10
7.55695997457e-10
1.03747602079e-10
4.34804010548e-09
3.24996765816e-09
1.98100561908e-10
3.97826645864e-10
1.3360566192e-10
3.52602755475e-08
6.12771239683e-10
1.92723781748e-09
1.44432818646e-10
6.99645138794e-10
1.58078039545e-09
2.36312127135e-09
2.05348866078e-09
1.59964716473e-09
1.21073872721e-09
3.03455723084e-10
3.18744705047e-10
1.53234575107e-09
1.72075516638e-09
6.29420271125e-10
4.29540592162e-10
3.46095250499e-09
1.89283517583e-09
2.42045850188e-09
2.38346363942e-09
1.5092222911e-10
2.30584632257e-10
4.5553809547e-10
4.71198583265e-10
9.09304601585e-10
7.33201072306e-11
2.41354258162e-10
2.73666484321e-08
5.99459406215e-08
1.0690340618e-09
5.88439949067e-10
4.61489991637e-10
1.29962737337e-09
3.519409064e-10
1.96339092575e-09
8.75781326906e-10
2.99572737998e-09
3.69014886382e-09
5.54835010435e-11
1.24389444496e-09
6.98368061406e-09
6.70818881361e-09
3.72898526817e-09
3.61405933096e-09
7.33072639331e-09
2.07895005381e-08
1.10465030035e-08
2.24839370297e-09
3.02975048572e-09
2.42862291602e-09
3.7220003395e-10
4.27875669161e-11
1.08417816461e-09
1.39600256065e-09
2.23493015369e-09
3.79904745285e-09
2.63478465273e-09
1.0010815148e-09
1.60812429347e-09
6.73868096174e-10
4.16188537043e-10
6.3283826438e-10
6.80183755664e-10
3.23998324161e-09
3.25097799449e-09
7.31730500137e-10
1.76136761123e-09
1.47918640856e-09
1.28301512915e-09
2.57495609792e-09
4.27597553873e-09
2.59487048801e-09
1.96608929179e-09
2.23924147896e-09
2.09646286843e-09
2.63414652779e-09
1.99684522748e-09
3.03321305645e-09
9.00018811692e-10
3.02408054395e-10
1.06446155334e-09
9.72893272992e-10
2.50974911934e-11
1.02969077676e-09
4.41711461824e-10
3.99204688548e-09
1.63108824609e-09
1.70920826178e-09
2.63510837911e-09
2.43603589046e-09
2.79457301208e-09
3.07197205185e-09
1.44287768729e-09
1.38491382231e-09
3.50780599168e-09
2.27824997999e-10
1.58923275351e-09
4.58288179893e-09
5.17974091829e-09
1.07770417515e-09
5.51536398156e-10
1.3841812412e-09
1.18132669112e-09
1.93186002046e-09
1.83225087284e-09
5.92698511312e-09
8.91566380542e-09
2.24540095835e-09
2.64338955106e-09
9.06853868493e-09
3.46795796222e-09
2.03738699231e-09
2.34941061164e-09
1.34185685204e-09
6.26702324022e-10
9.76705126696e-10
4.85411249042e-10
2.88493149985e-09
5.42890421399e-11
4.09575943306e-10
8.33280332559e-10
1.84382827201e-09
3.62511646001e-09
1.03472104492e-09
8.18444542228e-10
1.99908001302e-09
3.46882534671e-09
1.68390846972e-09
1.42040875962e-11
1.29931154922e-09
3.24528235421e-10
7.09463336632e-10
3.10779228028e-10
2.13270617021e-09
1.70013662258e-09
1.52479493031e-09
1.05181668889e-09
1.14216215604e-09
1.01998779821e-09
8.07285700572e-11
2.17869618996e-10
4.69629618975e-11
2.09241244078e-10
6.73038796454e-10
1.73843797278e-10
2.9089803325e-10
4.92516258133e-10
3.37245992146e-10
2.52255033509e-10
4.14884382107e-10
4.64571100559e-10
9.34943833937e-10
6.79232008788e-10
3.61597928997e-11
7.68179282322e-10
1.38271524554e-09
6.40882098367e-10
3.21942227226e-10
4.14137361018e-10
2.36281855674e-10
5.77432615374e-10
4.29529701813e-10
3.48919920903e-11
1.01732535725e-09
4.2877275246e-10
3.67325636326e-10
7.65804821624e-10
1.0114093322e-09
3.94003653193e-10
2.74077407462e-10
3.54431965116e-11
1.62786662284e-10
2.6881014733e-10
3.69675312491e-10
1.53877442954e-09
2.59591141826e-10
1.40556310432e-10
1.15580514988e-10
7.05531859575e-10
1.7652640898e-09
9.80450661558e-10
1.7197281856e-09
2.76826460642e-10
5.37489514971e-10
3.07067896535e-10
9.48456123878e-10
4.98866131649e-10
4.75092211633e-10
1.5575970612e-09
1.63959162474e-09
2.14852535178e-09
3.92723381148e-10
2.27967195001e-09
4.36511499601e-09
3.53790150109e-09
1.59639608761e-09
9.79662224058e-10
1.86533068215e-09
1.82300523161e-09
5.22337628451e-09
5.18404731631e-09
1.16147074913e-09
1.81235578722e-09
1.8655909487e-10
1.29009478416e-09
5.76763373751e-09
3.76874921768e-10
4.96251436083e-10
3.96209131164e-10
1.98133570814e-09
3.2416376726e-09
2.23375632938e-09
7.30224935725e-10
9.15044053279e-10
3.82504707738e-09
3.46292825105e-09
9.11297979765e-09
3.24159618267e-09
1.40106429171e-08
6.42604480025e-09
2.99765440394e-09
1.31124440401e-08
7.65642025886e-08
1.43671671818e-08
3.94121652056e-08
4.01238395349e-08
2.61350876643e-08
5.09906002888e-09
1.62538797472e-08
5.2708273063e-08
4.6696180195e-08
3.68456595897e-08
9.75807498385e-08
9.43198955616e-08
5.09956588444e-09
3.58993369733e-08
5.77024564464e-08
5.82139309615e-08
1.56498652526e-08
8.01690381856e-09
3.65599855853e-08
4.65518172935e-08
5.5729574416e-08
8.68757558568e-09
5.44823212437e-10
2.38332013122e-07
2.85272363756e-07
2.94409510676e-07
2.35481487054e-09
6.4286807813e-09
1.05843646374e-08
6.95910101963e-09
5.53406364096e-08
4.97318027525e-08
6.25235749575e-07
5.29756025603e-07
4.88544176892e-07
1.09437864465e-07
1.42691793545e-07
1.18462957386e-07
9.09679825724e-08
8.64136615752e-08
9.89950077709e-08
1.85052096194e-07
8.77930398856e-08
7.05378047277e-08
1.48512424353e-07
6.39481432623e-08
1.098458183e-07
1.57683892207e-07
9.19082863349e-09
9.58703302552e-08
1.10008287379e-07
1.16627612558e-07
2.34849800042e-08
8.64293527432e-09
3.72861243874e-10
6.81701342128e-08
5.90695997788e-08
7.59609684722e-08
1.58772093353e-08
1.9619847066e-08
1.6427354715e-08
3.75947707503e-09
2.74420419596e-10
2.25098408358e-09
4.53568190868e-09
5.8713834931e-09
6.59295465976e-10
2.48128203789e-10
4.50328801205e-10
3.3089441989e-10
1.43468106123e-09
1.85963532209e-09
8.48709707371e-09
7.02665052134e-09
9.04685215723e-09
1.24565545179e-09
3.27799727035e-09
1.71941870178e-09
3.82398233241e-09
3.97695769026e-09
6.53909039086e-10
4.47540582108e-09
1.6802536716e-09
1.52467194462e-09
4.68825428207e-10
4.36379443839e-09
3.54853838804e-09
3.51863606416e-10
4.10784280736e-09
2.57068783372e-09
3.96229390862e-09
2.24371394403e-09
1.4364035552e-10
3.44841408385e-09
2.19245028723e-09
2.7104012526e-10
2.24560341605e-09
4.50189675898e-09
4.02132954237e-09
2.70690208744e-09
4.95487585237e-11
7.56592432536e-11
7.4753139061e-09
5.06957265927e-08
5.73896665309e-08
4.87793532494e-08
8.99967273946e-09
1.79911479917e-08
4.41833590735e-09
7.46232895352e-09
6.86953373493e-08
4.63299246496e-08
5.46575140388e-08
4.89703403843e-09
3.17925964022e-08
7.93041331988e-08
4.08129470912e-08
3.13822418499e-08
1.04323527861e-07
3.84247317433e-08
4.03886860838e-08
1.67337975633e-11
3.16062216134e-08
6.15542504649e-08
4.04009445954e-08
7.38388139564e-08
6.68753547138e-08
1.05213072208e-07
1.84688474457e-07
9.7464473879e-08
7.40857865082e-08
5.81573639541e-08
6.12718607779e-08
1.18041821079e-09
1.5820553183e-09
3.30624891555e-10
1.81937753261e-10
4.38247934398e-11
2.19880225312e-10
2.41360834336e-10
4.81932447546e-10
4.6893291569e-10
7.93827611799e-10
1.23955960928e-10
5.2450834717e-10
8.04473520432e-10
1.72158758896e-09
3.38992760597e-09
1.30217576987e-10
7.57202857824e-11
4.2717605175e-10
8.35181478581e-10
4.15956365785e-11
1.77982309567e-10
2.28350757762e-09
1.18989714723e-09
8.66405496372e-11
1.34629410355e-09
3.88467640878e-11
1.11418302609e-09
4.53058893826e-10
1.24785919218e-09
5.47261737036e-10
6.80173935466e-10
2.20008052013e-09
1.17189216633e-09
1.82240965156e-09
2.11204941223e-09
2.22638268687e-09
1.20451329954e-09
2.44469169606e-11
2.37118583096e-11
1.70999636737e-09
1.9803594163e-09
2.47240807302e-10
4.2597805965e-10
2.35960894201e-09
3.71445975111e-09
2.68187667321e-09
3.29882930763e-10
6.33963325914e-10
9.19474570612e-09
4.45559254924e-09
1.68072660128e-09
9.0284944413e-09
1.02411860254e-08
7.99403846264e-09
7.44052118545e-09
2.27131905384e-09
5.140613122e-09
1.20382901764e-08
1.17058633591e-08
1.47561736314e-09
1.61927795683e-09
3.94328173842e-09
5.087148318e-09
1.66191470675e-09
8.37851662244e-10
2.74371665443e-10
1.22844049888e-09
6.28021720068e-10
1.055148661e-09
4.31800249875e-10
1.91003929876e-10
1.02022618306e-09
7.2962900702e-11
3.07749041492e-10
9.44868104622e-10
3.94546126908e-10
7.29887038988e-11
1.55671202784e-10
4.90603761316e-10
1.20065173315e-09
2.1177122623e-09
2.36071978782e-10
1.14360589465e-09
2.5550898207e-12
3.18839988959e-10
7.22033748575e-10
3.36303075903e-10
6.94769688348e-10
1.74618675591e-09
9.00010277498e-10
7.32409763529e-10
6.55425824713e-10
2.88359257923e-09
8.80511862421e-10
3.61475718732e-10
9.28149888467e-10
1.24449196029e-09
1.24182969389e-09
1.68666176754e-09
1.14180277373e-09
1.5812605507e-10
1.89343768495e-11
2.41845835774e-09
4.45317309767e-09
6.34062015807e-09
4.40876182354e-09
1.1084899278e-09
1.26025304714e-08
1.68394845879e-09
7.72976343931e-09
2.12022436139e-10
5.09680203578e-09
5.95281445646e-09
1.05256718008e-08
4.4083206265e-09
2.87389170057e-09
2.46635817591e-09
6.51460236425e-09
2.48948916545e-09
2.35487343307e-09
4.02142236112e-08
2.38888385159e-08
3.87654662533e-08
1.52107102278e-08
8.08458908735e-10
4.81639785436e-09
4.49048401411e-09
3.8663029285e-09
3.28657645075e-11
1.3688877303e-10
1.03625395088e-08
1.17779430961e-08
9.397765795e-10
1.10199623736e-09
1.66245264025e-08
6.04405576294e-09
7.87505466235e-08
3.88020142616e-08
4.93357704714e-09
2.89534587861e-09
1.3140419972e-09
5.59556795579e-10
7.62952473788e-11
4.59281744364e-09
4.70077445457e-09
6.34328360428e-09
4.35102287555e-09
4.67539115373e-10
9.12123208271e-10
2.5175145291e-09
1.08161241862e-09
1.91169025733e-09
1.34173105355e-09
1.1518219349e-09
1.58015073269e-09
4.11801648107e-10
1.84789699515e-09
2.62393382432e-09
5.06122819544e-10
2.24349514481e-09
5.48735738344e-10
7.20304736648e-12
3.84697733002e-10
5.85395821783e-12
4.55680177505e-10
1.26099692306e-10
6.16785921009e-10
1.29686626774e-09
5.4442115763e-10
8.51290498942e-10
2.06141124647e-10
1.68318957413e-11
5.67494219378e-10
1.63497497784e-10
2.69121522747e-08
2.5033968377e-08
1.49804064257e-08
4.49590869721e-10
1.58134999062e-09
5.93053893651e-10
2.77733652091e-11
3.24618032925e-10
3.59744968182e-10
4.31513936776e-10
5.45188452336e-11
1.35103537964e-09
6.28910483663e-10
7.88644623748e-10
5.10544300548e-10
6.07463087587e-10
2.43172425874e-10
2.72814876732e-10
1.93510601189e-09
4.21174139341e-09
4.76963327548e-09
2.42550416231e-09
1.04653022534e-10
2.16200512777e-09
3.20102137298e-10
1.55176668769e-09
2.27798717345e-09
4.25405021194e-10
1.37736535569e-10
3.16961257558e-10
1.1616052301e-10
5.12386811051e-10
1.46188252681e-09
1.10594157664e-09
3.32555810586e-09
9.32487934211e-12
2.07153618192e-09
7.80204640196e-10
8.87673330633e-11
9.30012221598e-10
9.27141066787e-10
2.43621406872e-10
1.53097690973e-10
3.3090422353e-09
2.08504649324e-09
7.52578896467e-10
7.96895550861e-10
6.4086957931e-10
1.12578983051e-09
1.02375294154e-09
3.55430983984e-10
1.23960511862e-10
1.26874149396e-09
9.42777513179e-10
1.21438971105e-09
8.75116126415e-10
2.31975078023e-10
5.25216811664e-10
4.61073664293e-10
3.24019062802e-10
1.7470826378e-10
5.83398036655e-10
3.66987196918e-10
2.6611661305e-12
3.7034597021e-10
1.32530495742e-09
5.74427197584e-10
2.07836511811e-10
3.86928814704e-10
5.3108868405e-11
4.6253084999e-10
1.1816782172e-09
1.14522418018e-09
2.6977474544e-10
4.59220918154e-09
3.23290793765e-09
2.27939917081e-09
1.34488891562e-09
2.31967081647e-10
1.1806310457e-09
1.37700218267e-09
2.83129632427e-09
3.34446230523e-10
1.6942934037e-08
8.44744564472e-09
2.01451184149e-08
7.46642942336e-09
1.27792716143e-08
6.23274801368e-09
3.9125346332e-09
7.54652053216e-10
8.54342007897e-10
3.55784882233e-10
6.75026252375e-10
3.57226039096e-10
8.32051190899e-09
3.99680587431e-08
2.61741729758e-08
2.89381961708e-08
1.9061787899e-08
1.86959515375e-08
7.31629121416e-10
3.14965584573e-08
3.13488173356e-08
2.72992504767e-08
1.18073347727e-08
1.19449316192e-07
5.99056886928e-08
6.01177806986e-08
6.94960480439e-10
4.83219687608e-09
1.9397257482e-08
7.37426127621e-09
8.37087649448e-09
7.77503609145e-10
6.93402093424e-09
5.33633530733e-09
3.46906773912e-09
1.5798539767e-08
2.10246726931e-08
1.57682871088e-08
4.8063473151e-09
1.42548711373e-08
1.26633914431e-08
8.33748603547e-10
1.25709759497e-08
1.61355266833e-08
2.91050799242e-08
2.7715734555e-08
4.9385321785e-08
1.80170793299e-09
2.03254201544e-10
5.12689977497e-10
3.02432524045e-09
1.62530140666e-09
1.89296829784e-09
2.3761419255e-09
1.66852082756e-09
3.7987498907e-10
3.27908838264e-09
6.89592903247e-11
1.63399232814e-09
1.03429836874e-09
1.68171055102e-09
1.4336653141e-10
1.63548064167e-09
1.33073565626e-09
7.31012445595e-10
1.02202298622e-09
3.91179295432e-10
3.76726015364e-10
2.2736513399e-10
1.2348086093e-10
7.1811786737e-11
7.32261069604e-10
6.61312815895e-10
6.2609065775e-10
4.57022901085e-10
1.13861889475e-09
1.24466036664e-10
8.40734903584e-10
5.15125527213e-11
2.31989171716e-10
2.91564570808e-10
1.06769659648e-10
4.51744459961e-10
1.30403101392e-09
6.10568089543e-10
7.60777678884e-10
8.06477980052e-10
8.66000157495e-10
6.58314489074e-10
1.92753361544e-10
1.66093472798e-10
4.32794531679e-10
1.93658293071e-10
2.86884199508e-10
3.17855744294e-10
4.0184121307e-10
6.69517749821e-10
4.4683303309e-10
5.55593542476e-10
3.55764631833e-10
1.03059960795e-09
1.15680009202e-09
7.5286638132e-10
5.7955891903e-10
8.32885100327e-10
8.84410069053e-10
4.60161308099e-10
1.09119732413e-10
2.68849055972e-10
2.34863453465e-10
1.07873921313e-09
1.56862875022e-09
6.72039671125e-10
1.42050215477e-10
3.51966051647e-10
5.24887865721e-10
1.39791266562e-10
3.25560764099e-11
3.70352832414e-10
4.25726947141e-10
1.83590306487e-10
3.55911289168e-11
1.72730066758e-10
4.22929616167e-10
1.86574544276e-09
1.14195062113e-09
1.79125513897e-09
9.28187164635e-10
5.79419957448e-11
1.76798563568e-10
6.70720326516e-11
1.22171156986e-08
1.29661477493e-08
1.00681378587e-09
5.15818567374e-10
1.87692988389e-08
2.20280409076e-08
2.56942405594e-08
2.14067838922e-09
3.92909098212e-09
2.94015858081e-10
5.66751279181e-09
3.76687874052e-09
1.37651028825e-09
1.77545822471e-09
1.51289002656e-09
1.56840467912e-09
1.5791784245e-11
8.52005825252e-10
5.27293714793e-10
1.07273055294e-09
1.28606527395e-09
6.50638795278e-10
4.06414909151e-10
2.3766738686e-09
1.18314870283e-09
3.78820088433e-10
9.53396182824e-10
1.33733620705e-09
3.21218413886e-10
5.36650944686e-09
4.61377905633e-09
3.117635704e-09
2.96776688584e-09
1.53204443731e-07
1.32612251932e-07
3.33113594201e-10
1.50283192108e-09
1.43610700389e-09
1.63908535189e-09
5.71815613782e-10
5.63900377444e-11
1.37970944759e-10
9.28361070599e-11
1.14321047326e-07
2.01887174423e-10
3.2638347753e-09
3.2067417551e-10
4.70650270245e-10
4.0019231917e-13
5.53202775176e-10
1.08007883523e-09
2.23469552908e-09
2.13322137869e-10
9.32490136976e-10
8.16346762778e-09
6.76633393489e-09
2.40413585547e-09
4.33270946218e-09
4.082392842e-09
4.06069414796e-10
6.19265828915e-10
1.85249148819e-09
2.75705095939e-09
1.2424382139e-09
2.55331288275e-10
9.79024557117e-10
4.42656847829e-10
2.4788546521e-10
1.45351081385e-08
1.14247079806e-08
1.76855371809e-08
8.90109552698e-10
1.0099370707e-08
9.34042506292e-09
4.00355138554e-10
3.57817497408e-09
4.89203673739e-09
6.23106544937e-09
4.16560648477e-09
3.96186740817e-09