# vtk DataFile Version 3.0
File Name: Molecule/arg/arg_5.0-0.vtk
ASCII
DATASET UNSTRUCTURED_GRID
FIELD FieldData 1
TIME 1 1 double
0.0
POINTS 823 double
-3.1418616772 -0.0041954079643 1.6752266884
-3.4010708332 0.31010103226 1.58758533
-3.1839675903 -0.20504100621 1.2002826929
-3.4496371746 0.10399767756 1.0770032406
-3.012547493 -0.6060680747 1.3395824432
-2.9876494408 -0.3599486351 1.8391848803
-3.0442061424 -0.29793772101 0.67973297834
-3.3042740822 0.0058587943204 0.53800213337
-2.8674867153 -0.70067602396 0.78841465712
-2.9436528683 -0.051890160888 0.14011633396
-2.7190995216 -0.3004129231 0.25017687678
-2.5750937462 -0.60495692492 0.29003301263
-2.5783219337 -0.13847847283 -0.13832749426
-2.6330196857 -0.029859034345 -0.21517720819
-3.0242106915 0.10017348826 0.041462525725
-2.3401832581 -0.26994097233 -0.46307036281
-2.3810429573 -0.16814462841 -0.56808745861
-2.2146589756 -0.47939172387 -0.77822577953
-2.2353327274 -0.4154561758 -0.91082578897
-2.6904726028 0.080027706921 -0.34748902917
-2.9039783478 0.49699306488 -0.5722591877
-3.2612600327 0.5833747983 -0.24284553528
-2.4782061577 -0.044601690024 -0.75960081816
-2.6842050552 0.35987824202 -0.9707197547
-2.616412878 0.18571004272 -1.4096796513
-2.4012076855 -0.25172835588 -1.1294392347
-3.1795682907 1.1993993521 -0.45085000992
-2.8370871544 1.0123136044 -0.74078321457
-2.6245005131 0.84545779228 -1.1269934177
-2.5543992519 0.73873895407 -1.5604918003
-2.7882711887 1.7090537548 -0.50339102745
-2.5172631741 1.4267430305 -0.78561103344
-2.3243141174 1.2395143509 -1.1646664143
-2.2109649181 1.1535476446 -1.6361054182
-2.5936589241 1.9367659092 -0.44640016556
-2.446210146 1.5858986378 -0.70801955462
-2.2591562271 1.7680255175 -0.67522901297
-2.1820588112 1.4563951492 -1.0541632175
-1.977507472 1.684651494 -1.0079957247
-1.7825254202 1.7078282833 -1.3901925087
-1.9638476372 1.4414008856 -1.5159873962
-2.6221570969 2.2884213924 -0.16246788204
-2.0474033356 2.1090869904 -0.57386034727
-2.0810167789 2.4467329979 -0.2912106514
-1.6524227858 2.4131717682 -0.86286914349
-1.6555272341 2.7872717381 -0.59023928642
-2.0778009892 2.6584103107 0.069603204727
-2.6080329418 2.5342276096 0.23371478915
-1.6360980272 3.0306348801 -0.1878901422
-2.4824757576 2.6599788666 0.65371334553
-1.9107987881 2.8034596443 0.45823293924
-1.4782458544 3.1698827744 0.22955410182
-2.9214253426 2.5714359283 1.0490614176
-2.2582683563 2.7658073902 1.0069378614
-2.6335697174 2.6936483383 1.362705946
-2.0277843475 3.0040988922 1.2891744375
-2.4084262848 2.9276642799 1.6389245987
-1.8674877882 3.3420059681 1.5374335051
-2.2698976994 3.2638201714 1.9182561636
-3.1970357895 2.2765207291 1.4916609526
-2.8534142971 2.4536075592 1.7323600054
-2.6388790607 2.6755340099 2.0179934502
-2.521572113 2.982047081 2.3241403103
-3.4282062054 1.7953884602 1.7631943226
-2.9044826031 2.3345351219 1.9198321104
-3.1007516384 1.91865623 2.1874277592
-2.7327094078 2.5292389393 2.3660674095
-2.9669611454 2.0384917259 2.6541850567
-3.3339078426 1.1857144833 2.1907875538
-3.2101538181 1.712002635 2.1586282253
-3.5812618732 1.1798015833 1.786572814
-3.0976037979 1.7272301912 2.5741086006
-3.2225241661 1.192327261 2.615278244
-3.1121346951 1.7767882347 3.0052495003
-3.2481486797 1.186391592 3.0563414097
-3.4055137634 0.58112955093 1.8204085827
-3.1923043728 0.66387075186 2.1882591248
-3.088845253 0.68752723932 2.6127567291
-3.103505373 0.60339277983 2.9953999519
-3.0865490437 0.068212732673 1.8789823055
-3.1208329201 0.37267193198 2.0682291985
-2.9568691254 0.1029099375 2.1861343384
-3.0261003971 0.49138820171 2.506103754
-2.8997175694 0.29049259424 2.6160676479
-2.9630250931 0.36766260862 3.1109278202
-2.8557379246 -0.34911125898 2.1331515312
-2.4662396908 -0.38371774554 2.7194435596
-2.7850437164 -0.058997832239 2.4243934155
-2.5344586372 -0.68841356039 2.4016680717
-2.5384817123 -0.099930301309 3.0140006542
-2.8014051914 0.15621773899 2.772305727
-2.6459710598 0.049486678094 3.3991765976
-2.4556658268 -1.1173343658 2.1981458664
-2.1629216671 -0.87977081537 2.8303468227
-2.0908479691 -1.2986661196 2.6166713238
-2.0131049156 -1.1381853819 3.3381888866
-1.9370003939 -1.5988590717 3.1068997383
-1.9238013029 -1.6043487787 2.2981960773
-2.2794508934 -1.4407502413 1.8711059093
-1.7350746393 -1.9553318024 2.7614200115
-1.9679614305 -1.6590288877 1.5767160654
-1.6184489727 -1.8211842775 2.0242366791
-1.399195075 -2.1915011406 2.4222509861
-1.2530255318 -1.8818567991 1.7294750214
-1.578132391 -1.7292121649 1.2810137272
-0.97074377537 -2.2717490196 2.1074790955
-1.3371149302 -1.772970438 0.89782381058
-1.7567638159 -1.6409300566 0.59971755743
-2.0307600498 -1.5873377323 0.95953124762
-1.1381579638 -1.9404755831 0.56920719147
-1.5546628237 -1.8107068539 0.25462719798
-0.95004028082 -2.2458033562 0.2751416564
-1.431152463 -2.0905468464 -0.078146860003
-2.3612425327 -1.2425471544 0.61668479443
-2.0541715622 -1.33076334 0.28296324611
-1.8717634678 -1.4754306078 -0.072529166937
-1.7810171843 -1.72399652 -0.43638336658
-2.4628968239 -0.82559901476 0.33561724424
-2.1643695831 -0.92812025547 0.019534988329
-2.007225275 -1.0201666355 -0.34783521295
-1.9591733217 -1.1789879799 -0.69753593206
-2.3553526402 -0.48508536816 -0.054361507297
-2.2607953548 -0.70174229145 0.013343371451
-2.1219754219 -0.66854804754 -0.38896250725
-2.2135810852 -0.46719539165 -0.44650292397
-2.0945570469 -0.69799160957 -0.82816815376
-1.8965666294 -1.3098136187 -1.0731035471
-2.0343856812 -0.82500910759 -1.2310063839
-2.1301403046 -0.66363054514 -1.1231526136
-2.3148081303 -0.42516463995 -1.3940794468
-2.1317653656 -0.49998110533 -1.8972793818
-1.8455523252 -0.90726691484 -1.7421226501
-1.6798810959 -1.3485589027 -1.7488882542
-1.9877727032 -0.24807046354 -2.3108594418
-1.8617478609 -0.70883214474 -1.9352775812
-1.6707404852 -0.41341203451 -2.4358479977
-1.9029829502 0.18487668037 -2.5188024044
-1.5173642635 0.12227723002 -2.7284507751
-1.9990742207 0.63747817278 -2.4382162094
-1.5224618912 0.3326613009 -2.7523431778
-1.6065505743 0.79596084356 -2.6771357059
-1.3240329027 0.98107123375 -3.0427494049
-1.2272933722 0.37790101767 -3.1219601631
-2.0249221325 1.0249640942 -2.1679129601
-1.6198931932 1.1956006289 -2.4204101562
-1.3442109823 1.5068844557 -2.6912589073
-1.7293577194 1.3073794842 -2.1629898548
-1.4747464657 1.7993527651 -1.7798382044
-1.0963484049 2.0747997761 -2.2019591331
-1.3746089935 2.1206436157 -1.4131319523
-1.6481876373 2.0201969147 -1.0952454805
-1.3208098412 2.5872309208 -1.1718946695
-0.8154515028 3.0052638054 -1.2797161341
-1.0956176519 2.2767653465 -1.64041996
-0.62745344639 2.6622941494 -1.7474284172
-0.54518139362 2.5279750824 -2.3272378445
0.44300758839 3.1477148533 -0.90473121405
-0.40667060018 2.940554142 -1.569978714
0.091731764376 3.5551857948 -0.56123930216
0.32030892372 3.0024752617 -1.4022254944
-0.13662232459 2.9524838924 -2.04398489
0.33557495475 3.0036284924 -1.9111498594
-0.0022095704917 3.0984568596 -2.5143289566
0.45201966166 3.1544678211 -2.4161846638
-0.034208208323 3.3398602009 -2.9909076691
0.67738640308 3.4140486717 -2.7718462944
0.83259695768 2.9118959904 -0.62377327681
0.61970818043 2.8067369461 -1.3630224466
0.97586339712 2.5782189369 -1.0941349268
0.87469309568 2.6924409866 -1.8667397499
1.2990875244 2.4221222401 -1.5545631647
1.191740036 2.2326266766 -0.78566724062
1.0419021845 2.5748062134 -0.30046778917
1.5590084791 2.0182714462 -1.2368942499
1.2420643568 2.201854229 -0.13223092258
1.1651552916 2.4065101147 0.35036200285
0.97215074301 2.7743124962 0.19089977443
1.541680932 1.9133228064 0.074147209525
1.4639544487 2.1234097481 0.57138705254
0.74272936583 2.8432786465 0.66224378347
0.95182138681 2.4645648003 0.80139797926
1.2244986296 2.1997101307 1.0450210571
0.4153174758 2.7917265892 1.2849515676
0.7323654294 2.5534446239 1.1349033117
0.40494933724 3.0923876762 0.83930432796
0.82429009676 2.4392249584 1.629257679
0.51448017359 2.671838522 1.8017067909
1.1238204241 2.4165530205 2.1096727848
0.74147349596 2.7034704685 2.2720050812
0.0180609487 3.4453377724 0.68034738302
0.13123588264 3.0695614815 1.1958889961
-0.20356157422 3.3734922409 1.0628823042
0.024678776041 3.0929815769 1.6615257263
-0.34255605936 3.4250280857 1.4993448257
-0.042937349528 3.270111084 2.0808281898
-0.4226551652 3.6202602386 1.9364804029
-0.64401566982 3.4973347187 0.8840944171
-0.49465039372 3.6009571552 0.43741723895
-0.78577083349 3.5490045547 1.3375399113
-0.91242271662 3.7496831417 1.7283600569
-1.0305116177 3.4969100952 0.31213879585
-1.112793684 3.40564394 0.76643031836
-1.2458959818 3.4609069824 1.208373785
-1.4366996288 3.6523849964 1.6010273695
-1.5171232224 3.1109528542 0.68877279758
-1.6246768236 3.1838691235 1.140006423
-0.060843788087 3.4094734192 2.5166575909
0.28603890538 2.9307677746 2.2045352459
0.28507968783 3.0592775345 2.6500508785
0.73019111156 2.8540782928 2.7696864605
-0.16792717576 3.4340052605 2.9581394196
0.16238501668 3.0914387703 3.0887362957
0.60857498646 2.8787453175 3.2709901333
-0.082490466535 3.0355138779 3.4691970348
-0.39853146672 3.3700413704 3.3451094627
0.31800633669 2.8220922947 3.6962852478
-0.67842000723 3.1941952705 3.6511316299
-0.3133161366 2.8419263363 3.7764186859
-0.025727916509 2.6306958199 4.0369586945
-1.100995183 2.7814056873 4.0239582062
-0.5951295495 2.7916736603 3.9022603035
-1.125864625 3.1984093189 3.7480983734
-1.5822212696 3.1632883549 3.7103207111
-1.6259691715 2.8072795868 3.924318552
-1.9891744852 3.1018226147 3.5358617306
-2.0617218018 2.7889683247 3.6891872883
-2.3036510944 3.06645298 3.2058968544
-2.4179141521 2.7462208271 3.3076455593
-2.4945590496 3.0190856457 2.7840578556
-2.6508691311 2.6503198147 2.8581836224
-0.81463289261 2.375364542 4.2754750252
-0.25021320581 2.1755154133 4.4352769852
-1.0124403238 1.8374969959 4.4720578194
-0.44120460749 1.6122902632 4.6409897804
-1.3374779224 2.2395114899 4.3517432213
-1.4530898333 1.6140167713 4.6030440331
-1.7187447548 1.9785649776 4.4900093079
-1.7289601564 2.5086483955 4.1181278229
-2.0406985283 2.2330465317 4.2719497681
[...]
CELL_DATA 1642
SCALARS cell_data_0 double
LOOKUP_TABLE default
5.9460541082e-09
4.12840119238e-09
6.85792142863e-09
1.76774171582e-08
7.03815542164e-09
1.35983216601e-08
3.4928787175e-09
5.91266567673e-09
2.17056272374e-08
2.71723766266e-08
2.02557693917e-08
5.35689965674e-09
1.0928552195e-08
1.07159415725e-08
1.21157009499e-09
2.80973622058e-08
5.46594744067e-09
1.62035719415e-08
1.28830240163e-08
3.11469787688e-08
2.60492291953e-08
4.11709532849e-08
8.64201764751e-09
7.16739647204e-08
9.55946774047e-09
3.40414622397e-10
1.3236182427e-08
3.45431293913e-09
3.06107933752e-08
3.44686873866e-08
1.61884997726e-08
3.91983026665e-08
4.19397246273e-09
5.31218354088e-08
2.48730774393e-08
5.11898545274e-08
6.17727591806e-09
1.18365578868e-08
3.1430296724e-09
2.54978195485e-08
3.13452478985e-09
2.09651047948e-08
1.82222565729e-08
3.02659342196e-08
4.09637179377e-08
4.28870802287e-08
1.0745510145e-08
3.21554667861e-09
3.52898832279e-09
8.85425885102e-09
4.42185321891e-09
2.62690439922e-08
2.16810125135e-09
1.04259709151e-09
1.96995080533e-08
1.51515033061e-08
9.41206090248e-09
3.16020076582e-09
6.52780995623e-09
4.21781362067e-09
2.85603529758e-09
9.00229251494e-09
7.16342373944e-09
6.53384496311e-09
2.1708547184e-09
1.47820238848e-08
4.72283270348e-09
9.65708194173e-09
1.39948016767e-08
1.43525861319e-09
3.60155890749e-09
3.51470499446e-09
1.12442198554e-08
2.51187543606e-09
1.15721767559e-08
2.25554092807e-09
1.45012562181e-08
1.82196413088e-08
1.45766560721e-08
9.41635349956e-09
6.14421347065e-09
1.12730115478e-08
1.46731454123e-09
2.17813036123e-09
5.91488223747e-10
1.17773756195e-08
8.13816948004e-09
9.1356532617e-09
5.74909690733e-09
7.29238262497e-10
1.61763195927e-08
1.71782346883e-08
4.99395974026e-08
1.29504135582e-08
1.5434916253e-08
2.49732877486e-08
1.79145592713e-07
1.96957585194e-07
6.4886420267e-07
1.02204395184e-07
1.6465284572e-07
4.30094423007e-08
3.20264877856e-07
3.23243555158e-07
2.48409532995e-09
7.66865882205e-09
1.02085007852e-07
1.9715541756e-08
6.24547730346e-08
1.0585660338e-07
5.93779066828e-08
4.85026603115e-08
2.087256747e-08
5.62589724917e-08
3.59979559676e-08
4.3569434618e-08
7.21884142618e-08
1.86572318259e-09
1.43707921608e-08
3.10072951485e-09
2.2553847662e-08
1.51535484406e-08
9.10590959093e-09
1.79432989087e-08
3.70428153446e-08
2.92960490418e-08
3.14889232733e-08
1.16726303078e-08
5.30778886908e-08
3.84653001188e-08
1.69581116384e-08
8.62912879574e-09
1.10922371833e-08
6.52419076424e-09
7.15931883511e-09
1.16220930473e-08
7.14341411136e-08
1.11195704345e-08
1.33515413455e-08
1.8397237931e-08
1.3593293364e-08
5.99144374663e-08
4.5163157535e-08
1.88630168071e-08
2.05856264919e-08
1.66668712812e-08
1.38381246053e-08
7.59327916617e-08
7.2316998869e-09
2.39839054632e-08
7.28557462978e-09
1.06356709685e-07
9.65544480767e-08
1.05105711338e-07
5.93020816429e-08
5.4429529704e-09
1.66569198733e-08
2.83381402789e-08
3.12537784574e-08
1.56550239204e-07
3.73959367315e-08
4.8407563468e-08
1.99529300126e-08
1.92871839779e-08
9.39794629566e-08
7.56500409433e-08
2.00528837527e-07
2.40243317065e-07
2.48200399549e-07
3.28320442491e-07
1.03838287963e-07
5.54631171454e-08
1.13299559735e-07
6.40728843516e-08
6.00826992323e-07
9.06047508194e-07
4.13178884826e-08
3.32157582672e-08
3.01476715634e-07
2.44228661592e-07
3.80933558885e-08
4.69754512736e-08
8.59400941011e-08
3.87199290562e-08
1.0010371808e-08
1.96776708405e-08
2.43398950153e-09
1.88184584188e-08
2.45950554082e-09
1.8534858264e-08
1.97030553146e-10
3.79960766218e-09
8.30648708539e-09
1.05604297155e-09
1.68151279444e-08
1.32378884881e-09
5.35560927279e-08
3.55922804988e-08
1.13917032635e-08
5.53885678275e-09
2.30390131355e-09
8.53554880889e-09
6.97486969275e-09
1.70849296109e-08
6.82416854848e-09
1.91539172558e-09
7.71202236128e-09
2.94146871585e-09
2.01975016415e-09
6.93522623813e-10
3.61403090731e-09
1.86335312948e-09
1.91523949208e-09
5.24502390979e-10
5.7197581451e-09
5.51698158734e-10
4.12003004096e-09
6.1287395895e-09
7.73902096112e-09
3.90147911285e-09
6.15603694946e-09
4.80142388279e-09
1.97706649776e-10
2.11001864783e-08
1.77440367514e-08
5.23522885925e-08
4.98310255784e-09
1.70414257182e-08
3.73546850961e-08
6.25921126662e-08
1.25470568914e-08
5.71089975237e-09
1.18819101953e-07
1.27549259104e-08
5.67165577676e-09
4.81149363655e-09
3.69487517422e-09
3.21631087737e-08
5.49795474057e-10
4.31942238182e-09
1.20191212446e-10
2.67893852071e-09
1.90639018765e-09
2.38126375383e-09
1.64515826958e-09
3.15877221695e-09
1.88258790143e-09
4.61539819528e-09
6.02184300042e-09
4.82648604655e-09
1.67888723981e-08
3.29339107271e-08
5.56078822166e-09
2.35361453341e-08
1.12145738763e-08
2.81432609959e-09
1.72988328543e-09
1.19113984407e-09
3.57172721187e-09
1.2532618669e-09
2.67092598321e-09
2.9590211509e-09
1.32549703233e-10
1.74346551466e-09
2.90507980045e-09
4.85328770547e-09
4.93154969746e-09
1.64065786161e-09
2.57292685904e-08
1.41991053314e-08
3.45246295405e-09
6.88305330903e-09
1.48958391306e-09
2.05447325389e-10
3.97384989279e-09
6.43627230465e-09
8.44483092449e-09
1.92164753919e-10
1.47411594075e-08
2.2775011634e-09
1.80927625617e-08
2.36873891525e-09
1.62724828848e-08
1.01030197131e-08
1.12789596352e-08
1.8949854967e-08
6.10261157555e-08
2.88958293096e-08
9.92468623302e-09
2.3171461393e-08
2.02585642486e-08
3.13862701246e-08
3.88173099398e-08
2.62203983053e-08
4.30371628912e-08
5.71286499403e-08
8.59916054474e-08
3.32233731327e-07
1.6214894668e-07
3.37065076975e-07
2.40855642055e-08
9.85089658413e-09
1.49977408872e-09
1.3520374353e-08
4.89686865965e-09
2.76771771425e-08
2.24566537252e-08
1.67218495759e-08
1.84730559607e-08
2.0031204252e-08
9.09973267043e-09
5.89205662179e-08
1.83057072125e-08
4.20984423704e-08
7.23576751472e-08
1.65353103268e-07
3.52113916386e-08
1.068487479e-07
7.65475905668e-08
5.49050769005e-07
1.76369091663e-07
4.8533978201e-08
2.46274087106e-07
8.74249562577e-08
2.27620484688e-07
2.28031347901e-07
1.07321764398e-07
9.95542589049e-08
1.8870872054e-08
2.69665148716e-07
7.65571931298e-08
1.94805148725e-08
7.78636310416e-09
1.06367062021e-07
1.65092674575e-08
7.7843817144e-09
1.80027316045e-08
5.07892265602e-09
6.60944736764e-08
4.84266481602e-08
2.46756318818e-08
3.9069383198e-08
1.47146795503e-07
8.04314637862e-08
1.92943971182e-07
1.52480001275e-07
2.75809822082e-08
3.8849258198e-08
1.33979768031e-08
7.28427614704e-09
1.13432960793e-09
2.63068690674e-08
6.79223594118e-08
9.80328202428e-08
3.58308759144e-08
3.97109348381e-08
1.52372788158e-09
1.10713391165e-08
1.29513208863e-08
8.46166037813e-09
4.77062024315e-08
1.83073873928e-08
2.74646597237e-08
8.70506504384e-09
2.5138042143e-08
1.28839798878e-08
1.48779492803e-08
5.73311590862e-08
4.89059260748e-08
4.76809942623e-08
3.71793746336e-07
1.27587472629e-07
4.02987750228e-08
8.74329735852e-08
1.24368555143e-09
1.90747783251e-08
1.29887464642e-08
3.99464754748e-08
1.20552760736e-08
1.15758530624e-08
8.93350515657e-08
6.36690722309e-08
6.52394861012e-09
3.6636609563e-09
4.82496813152e-08
8.28605745754e-08
6.64364372123e-08
1.28466946944e-07
1.34270376269e-07
8.14735264878e-08
1.88070315048e-07
1.48539013522e-07
2.67899505277e-09
7.07962326879e-08
3.42093415479e-09
7.19261540944e-08
2.9817774315e-08
7.05417608079e-08
3.96617793452e-08
5.7752177187e-08
4.58260172945e-08
3.67175700908e-08
8.08487124892e-08
4.26031514548e-08
4.36923815844e-08
4.3239941125e-08
8.47403005266e-08
3.44977468098e-08
1.08781011262e-08
5.14730982326e-10
1.58241771599e-07
1.60325593085e-08
5.76388026434e-08
3.02235565291e-08
1.74464423858e-07
7.76435991175e-08
3.80722863171e-08
2.16258211468e-09
1.94197524884e-08
3.20741862291e-08
1.67313069396e-08
2.92143615978e-08
1.5911835995e-08
9.76114652788e-08
1.89491385791e-08
4.58510411111e-09
1.14327117478e-08
1.96052708689e-08
7.95805506469e-08
9.97711847355e-08
1.94709501861e-07
2.15984515634e-08
3.95242234716e-07
1.58587116222e-07
3.8530262042e-07
6.34089509081e-07
1.35851219573e-06
1.83477604491e-06
5.16572315523e-07
3.74488108678e-08
2.37030685787e-08
6.84289224515e-07
2.84763131884e-07
1.55300113147e-07
2.64609897057e-07
6.24837416182e-07
1.886117153e-06
4.00297397943e-06
1.00750114138e-06
6.47558260485e-07
7.45193363009e-07
5.10060401495e-07
1.82201889833e-06
7.8980894273e-07
4.20154996142e-07
1.45360595219e-07
4.97995726552e-07
6.4042238198e-08
9.36687449106e-08
3.37991457479e-07
1.16003999305e-06
1.32338127696e-06
1.45954265255e-07
9.52272355075e-08
1.01236537189e-07
1.37129316503e-07
9.75959621152e-08
5.20349292368e-08
2.30921881391e-08
4.27176543091e-08
7.3112690424e-09
8.72426769775e-09
5.88613366968e-08
9.95686393242e-08
1.96612713273e-08
3.00179305256e-08
1.38080856607e-08
1.01260119938e-08
1.29404525341e-09
2.28468676421e-08
2.73108182191e-08
1.35716780473e-08
5.22218330346e-08
1.0362100474e-07
1.48481167474e-08
1.3241133201e-07
4.98461339504e-07
4.61885628536e-08
1.01905514554e-06
2.82245597775e-07
2.83071188206e-07
2.48321231155e-07
3.02487229995e-07
4.41864035153e-07
1.25071439091e-07
4.21519931047e-07
3.74363437738e-07
1.06890111041e-06
8.15288540741e-07
6.27167742838e-08
8.91922715738e-07
4.47555193855e-07
7.31312162215e-08
2.35322577566e-07
5.61498998657e-07
5.46440578059e-07
7.77861745944e-08
3.52658406324e-07
2.20537484146e-07
9.20876881387e-07
1.20075113357e-07
5.11928031956e-07
8.37287351034e-08
8.29499447117e-08
2.68652393777e-09
2.91106804388e-08
2.27247639376e-09
1.99031393426e-08
8.406007748e-09
1.62235308203e-08
1.21646868401e-08
1.83208514946e-08
2.76956103371e-09
1.07847523252e-08
1.03237792607e-09
4.61226968192e-10
1.10117858396e-08
2.01622691535e-08
5.17406933746e-09
3.10233937341e-08
9.10417173388e-09
1.67062791714e-08
7.925522748e-09
1.91175543217e-08
1.39125860258e-09
4.21316277651e-08
4.3817549711e-08
4.25846253247e-08
8.65527581707e-09
4.51052688239e-08
4.70454830613e-08
5.92126184763e-08
1.76016167366e-08
5.3042702387e-09
1.17947973307e-07
3.53252542546e-08
1.16120087374e-07
2.08417172908e-07
3.00270399072e-09
2.31651355656e-08
7.30614911048e-08
1.8584438618e-07
6.71457250502e-08
4.68463887289e-08
8.02433455374e-08
1.08341074911e-07
1.04069236478e-07
1.24223978183e-07
7.47566013897e-08
1.26291814042e-07
1.22438836566e-07
4.20062226492e-07
1.29278017103e-09
4.9089068905e-08
1.98301268952e-08
9.58482314513e-08
1.18078433257e-08
2.04087661958e-08
4.78570758327e-08
4.88113964205e-08
2.83099128185e-08
6.8308060981e-09
6.08026982865e-09
2.20748132379e-08
1.80276397438e-08
1.50909034493e-08
1.59101330394e-08
4.22629316647e-09
1.16664676649e-08
1.25841264926e-08
7.84299022859e-09
1.44444215081e-09
2.02930546719e-08
1.91331024146e-08
5.41557624675e-09
3.7618781348e-09
9.63201714016e-09
2.52545829739e-08
2.08074235881e-10
2.51432806237e-08
1.47277275406e-08
8.78041390228e-09
6.15080355038e-09
3.42070663108e-08
1.74984196862e-08
1.40222037276e-08
1.58117725012e-08
1.08952340307e-08
4.80141189252e-08
2.89345806843e-08
6.81650444073e-08
4.08341983412e-09
6.06238752205e-09
1.25291158384e-09
1.23225039357e-08
1.72573394737e-09
1.57423314221e-08
6.51365538503e-09
2.61148267249e-09
1.27044716113e-08
3.73390063723e-09
4.47833837226e-09
1.59508108801e-10
1.50780719437e-09
8.47078324715e-09
5.97924213766e-09
3.39501893336e-10
2.01862398321e-09
1.10810814421e-08
4.07600573478e-09
1.02881771591e-09
9.10287697856e-09
6.04135287914e-09
1.30893514341e-09
1.38547062974e-09
9.00442284958e-09
1.86735014124e-08
1.25792542923e-08
3.15992888446e-08
6.35305901118e-08
4.27058130068e-07
6.08028388863e-07
4.84899828039e-07
4.17008476054e-08
8.51566478725e-09
4.34444204373e-08
1.27380682632e-08
4.26060610519e-08
2.55179146758e-08
2.00683491563e-08
4.9222625859e-08
3.33047380669e-08
1.09642002417e-08
4.72054449043e-09
7.41064441045e-09
4.231545182e-08
5.75737694633e-08
3.88306150642e-08
8.40180215947e-08
4.62749204425e-08
1.51648773052e-08
8.78311520029e-08
3.55187325825e-08
8.51056389641e-08
1.3033069635e-07
5.01660707963e-08
1.15963959304e-07
8.90591128691e-08
5.18954932368e-07
8.38947896534e-08
1.06906559122e-07
3.97105437776e-08
6.6676924153e-07
2.75260404392e-07
9.44524130031e-08
1.37779129408e-07
1.08580509375e-07
1.33307857847e-07
2.60404979584e-08
8.07225945427e-08
7.22174656358e-08
2.21657908296e-08
3.46634243461e-08
8.63952449669e-09
9.80535808054e-09
2.97844852773e-08
1.46571061256e-08
3.63922483378e-09
1.72475111953e-08
5.86415998821e-09
2.2657197582e-09
2.14339676334e-09
6.15402133274e-09
5.18134322747e-09
7.34145284415e-09
1.94769892091e-09
8.1498667266e-09
9.15894758563e-09
6.01903675584e-09
1.49770051939e-08
2.26472564979e-09
5.30927794871e-09
1.83479191592e-08
3.21319095776e-09
4.84036040075e-10
2.6146988653e-09
5.88600262498e-09
2.78891237531e-09
4.5435173053e-09
4.05356032315e-09
6.27224769403e-09
3.83866254217e-08
5.64347917154e-08
5.66856562845e-08
5.62795802415e-08
5.28504516274e-08
1.4713142196e-07
3.07340416246e-08
3.08749034958e-08
1.62688151904e-09
3.06284010233e-08
3.62747486906e-09
8.15202392834e-09
8.99840763559e-09
5.20718301344e-08
7.59962268331e-08
1.58762966439e-07
8.84273555445e-08
3.78578157711e-08
1.87823249027e-08
6.5709246087e-08
1.9771294507e-08
5.92697939743e-08
5.84523762284e-08
6.96722495072e-08
3.16275451507e-08
1.5893830032e-08
5.23019349091e-10
5.45368597682e-08
1.24880870308e-08
2.06488668221e-08
3.88751967319e-08
4.17685460118e-08
4.44095692336e-07
1.94448716185e-07
1.59309302126e-06
2.48348712848e-07
2.33680033269e-06
2.12461378747e-06
8.78294683641e-07
2.49904846206e-06
4.98429101234e-07
1.29698532175e-06
7.95449952266e-07
1.60878200807e-07
3.00226116797e-08
1.04972761394e-07
1.01200623723e-08
3.92128554948e-08
2.84118845959e-08
1.06172457442e-08
1.78892671734e-08
4.25560137466e-07
2.15073503822e-07
4.39858637499e-07
2.11024057206e-07
2.01011020314e-08
1.64528205145e-09
1.72854895387e-08
9.53255895291e-08
8.29140147394e-09
1.19209722657e-08
2.58324606705e-09
2.12501664177e-08
3.47498920964e-09
2.58988383744e-09
2.94560933415e-09
1.80031362171e-09
1.31124471549e-09
1.32630791046e-09
1.89759585274e-09
1.0625709924e-09
3.15709885498e-09
5.98577595107e-10
8.43064250314e-10
4.61951264844e-10
1.11041640391e-10
1.36119648135e-09
2.4335666401e-09
1.59669235945e-10
4.78389256471e-09
3.29979906403e-09
9.1144956465e-10
1.00975298692e-09
2.41732078221e-09
2.95011638426e-09
6.41742218189e-11
1.39411003955e-09
1.12711797514e-09
8.55857891283e-10
4.82218833365e-10
2.00771549588e-10
8.29992596625e-10
2.41549400676e-09
4.69631326608e-09
1.27067465037e-09
4.55669486331e-09
9.50373390367e-09
4.84659148092e-09
1.74094738715e-09
6.94654925861e-09
9.45959912775e-09
3.64276279438e-09
7.15180562695e-09
6.74048628744e-09
1.00087095126e-09
6.2952206493e-09
4.63380851865e-09
9.97539627853e-09
4.79349038961e-09
1.99220220998e-08
5.17387095535e-09
2.46211522402e-09
6.85655897286e-09
8.2585490126e-09
2.08058077986e-08
1.04422235219e-08
1.47444832023e-08
4.31954107867e-09
9.15169763685e-09
9.36539050952e-10
5.61922200921e-10
1.32648303271e-08
8.17204178832e-09
7.82184925551e-09
1.50117861242e-08
2.67764808137e-11
1.09951166352e-09
1.27138408835e-08
1.10076996685e-08
1.02649478029e-08
3.08985462238e-08
3.01050654078e-08
2.66582094235e-08
1.62344607646e-08
1.89418414588e-08
1.24660879664e-08
4.29226959804e-10
1.1748577822e-08
2.84871564061e-08
3.38333205981e-09
1.25771400397e-08
2.77211752124e-08
3.0591969321e-10
4.38295122548e-08
4.47935874512e-08
2.46675069609e-08
1.26300938673e-08
6.8839098353e-09
4.42810095342e-08
3.97361378265e-08
6.03263955828e-08
9.11117027636e-10
5.42384624693e-09
2.93116510337e-08
2.93094842493e-08
9.04551948132e-08
9.34484062316e-09
6.30753959527e-08
2.01294311849e-08
5.84738313816e-08
1.45116085333e-08
1.04196509548e-08
3.97635132375e-08
5.84434986757e-08
8.11697041319e-08
4.97380514581e-09
1.13549972718e-08
3.84837278027e-09
6.56176965347e-09
6.30411038205e-09
3.34072601808e-09
8.40584044757e-09
3.04879211126e-09
9.25022005464e-11
2.06095205308e-09
2.29465398602e-09
3.03280491286e-09
2.81373467673e-10
2.34572719177e-09
1.08476916616e-08
1.8879364347e-09
4.51456009657e-09
8.34635032538e-09
7.0924729628e-09
4.22430619338e-09
6.25567244148e-10
2.06494292798e-09
6.84923353448e-09
1.07428507797e-08
4.01490997289e-09
1.4602936536e-08
9.13968171367e-10
8.57749257686e-09
9.04909543627e-09
4.1367846143e-08
6.50238471844e-09
3.738052213e-08
5.26495269835e-08
2.3071615422e-07
3.63234896004e-08
7.1397482302e-09
1.22380385886e-08
2.76857049264e-09
3.27287208146e-08
8.99994681917e-09
1.2062352426e-08
6.43169571618e-09
6.12226348567e-09
2.26194802351e-09
1.56103644973e-09
5.14443144999e-09
3.52830483861e-10
1.40516774397e-10
3.23515645324e-10
6.4379624337e-10
3.84823420268e-09
6.82439968614e-10
1.08488311832e-09
8.04219611532e-10
1.12469113837e-09
9.04303917453e-10
1.40179005776e-09
1.50416358713e-09
9.73881759852e-10
2.58077415589e-10
1.29658999729e-09
8.64856349265e-10
4.03257596928e-09
1.40533786049e-09
9.48598499523e-09
3.25288504148e-09
3.2876766246e-09
1.8734011855e-09
4.28633141007e-09
1.64192597006e-09
1.42528482938e-09
9.80312232813e-10
4.85041358255e-09
2.10550573599e-09
3.94888896965e-09
3.54424771848e-09
6.7750179587e-09
2.95196040844e-09
9.21483106247e-09
1.72096193283e-09
1.13219863397e-08
8.57939625113e-09
4.58195201975e-09
7.63390140388e-09
1.83549387147e-09
8.23920154391e-09
8.94842500104e-09
8.20460743877e-09
1.24279361406e-08
1.8055154824e-08
5.55962092337e-09
2.17514471938e-09
1.91010338876e-09
2.38471692576e-09
2.39617998698e-09
6.63152892845e-09
3.26728568392e-09
2.86853963209e-09
4.120307247e-09
7.72714372199e-09
1.23028657538e-08
1.0675244721e-08
2.76835526248e-10
1.68800766065e-09
4.19746457376e-10
3.08023217636e-09
9.70319373263e-10
1.21792136459e-09
2.40081963144e-09
3.30252636986e-09
8.68705820513e-10
8.32437771203e-10
1.6889543809e-09
2.82199346608e-09
6.6458180065e-10
1.30656022441e-09
3.86011166362e-09
4.63952894994e-10
1.19228457646e-08
1.5876754351e-09
2.32573753207e-09
1.08429004143e-09
6.45462423862e-11
3.18254076645e-09
1.83413868244e-09
8.76733345877e-09
6.99036413388e-10
7.64237686097e-09
3.52872843675e-08
6.54021431597e-09
1.61400330984e-08
5.67977190216e-10
6.4331241309e-09
2.48240125989e-09
5.13085449095e-09
2.23471428583e-09
3.81135512851e-09
2.55308496136e-09
5.3497557754e-10
1.72584942356e-09
2.01271432619e-09
2.57026035165e-09
2.6647832506e-09
2.05106512108e-09
8.12102557143e-10
6.41898525951e-09
9.62478418459e-10
7.92512043227e-09
1.59484023672e-09
1.89916912932e-09
1.85182887929e-08
1.57193457997e-07
1.4258856803e-08
1.96976702135e-07
5.36847952274e-08
4.83583301183e-08
9.58417799161e-09
9.30429352878e-08
3.17701855757e-08
3.45249834652e-07
2.0516092747e-07
1.46046137319e-07
4.83688399917e-07
4.53393184689e-07
1.39251518408e-07
2.237350941e-07
7.3783399832e-09
5.14271216916e-08
4.27050122699e-09
1.79163591369e-08
9.15436848709e-09
5.43528008446e-08
3.21285729624e-08
1.1172414686e-07
1.10775944926e-07
7.63581986923e-08
2.41307632438e-07
1.32531203045e-07
2.32517930365e-07
1.79166453953e-07
9.94060919593e-08
7.30523299704e-08
1.35389423006e-08
2.12012277101e-10
4.94274897973e-09
3.67609120805e-09
8.40872689725e-09
3.28650959193e-08
2.84585039436e-08
4.91372501945e-08
6.26064301339e-08
2.06567909963e-08
7.82080388487e-08
2.76731414997e-08
4.65693512788e-08
1.41589332489e-08
2.12427652653e-08
8.70192959002e-10
2.3620616507e-09
5.29232434028e-09
1.0131123588e-08
4.11614416343e-09
9.42396675998e-09
9.57128603761e-09
1.70388999209e-08
1.61612725803e-08
7.51166104646e-09
6.50138626406e-09
4.68383265908e-09
4.17996611503e-08
1.16909328747e-08
3.98892993823e-09
1.26106262214e-08
1.8827763199e-08
2.9368370427e-09
1.64983123911e-07
1.0022384551e-08
1.77753186744e-07
3.99977320114e-08
1.05063696716e-07
1.13291485395e-08
3.78956668585e-08
1.94128333815e-08
2.000036608e-08
2.727553148e-09
1.23503338379e-08
2.09878236104e-08
2.73336959242e-08
3.92443785055e-08
4.27648310274e-08
6.15843351436e-08
1.1953520176e-07
3.05217968728e-07
1.75280657226e-08
1.08627997344e-08
3.5823792114e-07
4.60655340912e-07
4.30200860466e-07
2.49948769555e-07
2.45025719955e-07
9.62025601468e-08
4.59659147343e-08
3.62249109101e-08
1.17771908037e-08
9.62144236917e-09
7.27907489921e-09
8.85736575927e-09
8.59269528541e-09