# vtk DataFile Version 3.0
File Name: Molecule/arg/arg_3.0-2.vtk
ASCII
DATASET UNSTRUCTURED_GRID
FIELD FieldData 1
TIME 1 1 double
0.0
POINTS 525 double
-3.403 0.327 1.604
-3.398 0.034 0.803
-2.981 -0.361 1.858
-2.976 -0.654 1.057
-2.971 0.024 0.066
-2.549 -0.664 0.32
-2.984 0.046 0.042
-2.471 -0.12 -0.363
-2.484 -0.099 -0.385
-2.2 -0.483 -0.862
-2.216 -0.458 -0.889
-3.255 0.893 -0.375
-2.57 0.022 -0.532
-2.781 0.681 -0.857
-2.39 -0.269 -1.153
-2.621 0.454 -1.509
-2.776 1.74 -0.497
-2.407 1.34 -0.951
-2.211 1.177 -1.613
-2.622 1.932 -0.429
-2.287 1.501 -0.894
-2.142 1.682 -0.83
-1.982 1.439 -1.492
-1.81 1.654 -1.416
-2.655 2.421 0.048
-2.046 2.135 -0.548
-2.075 2.574 -0.12
-1.615 2.438 -0.879
-1.647 2.927 -0.402
-2.495 2.657 0.67
-1.932 2.785 0.438
-1.488 3.163 0.22
-3.186 2.284 1.521
-2.137 2.872 1.156
-2.739 2.546 1.897
-1.863 3.333 1.507
-2.53 2.972 2.328
-3.419 1.801 1.788
-2.717 2.558 2.345
-2.979 2.017 2.644
-3.567 1.179 1.827
-3.133 1.725 2.369
-3.262 1.186 2.403
-3.107 1.793 3.017
-3.25 1.192 3.055
-3.408 0.559 1.798
-3.123 0.649 2.378
-3.095 0.593 3.027
-3.105 0.348 2.085
-3.1 0.088 1.867
-2.97 0.105 2.152
-2.978 0.383 3.085
-2.865 -0.346 2.113
-2.52 -0.7 2.425
-2.794 0.071 2.575
-2.491 -0.24 2.849
-2.645 0.041 3.387
-2.41 -1.24 2.09
-2.148 -0.9 2.844
-2.042 -1.418 2.522
-2.003 -1.142 3.367
-1.882 -1.734 2.999
-2.078 -1.605 1.676
-1.723 -1.769 2.124
-1.517 -2.136 2.544
-1.592 -1.721 1.268
-1.257 -1.88 1.733
-0.984 -2.263 2.097
-2.203 -1.444 0.759
-1.237 -1.838 0.739
-1.813 -1.578 0.259
-0.96 -2.23 0.303
-1.631 -1.926 -0.256
-2.487 -0.785 0.321
-2.08 -0.956 -0.154
-1.943 -1.202 -0.738
-2.189 -0.632 -0.224
-2.248 -0.516 -0.225
-2.131 -0.618 -0.861
-2.114 -0.682 -1.181
-1.927 -1.264 -1.052
-2.312 -0.441 -1.376
-2.121 -0.506 -1.916
-1.682 -1.348 -1.746
-1.897 0.192 -2.527
-1.864 -0.768 -1.888
-1.57 0.147 -2.691
-2.011 1.039 -2.18
-1.198 0.386 -3.152
-1.348 1.496 -2.696
-1.72 1.257 -2.235
-1.479 1.817 -1.75
-1.107 2.057 -2.211
-1.319 2.584 -1.178
-0.816 3.013 -1.267
-1.111 2.259 -1.642
-0.623 2.675 -1.729
-0.543 2.537 -2.312
0.466 3.148 -0.891
-0.306 2.923 -1.738
0.315 2.988 -1.555
-0.026 3.04 -2.368
0.4 3.085 -2.243
-0.048 3.337 -3.001
0.699 3.415 -2.782
1.057 2.557 -0.305
0.619 2.806 -1.364
1.192 2.232 -0.796
0.892 2.689 -1.891
1.553 2.026 -1.234
0.737 2.845 0.68
1.539 1.918 0.039
1.22 2.206 1.024
0.406 3.093 0.833
0.756 2.48 1.392
0.466 2.698 1.526
1.112 2.426 2.108
0.748 2.699 2.276
-0.152 3.531 0.588
0.05 3.076 1.433
-0.422 3.446 1.225
-0.034 3.266 2.099
-0.572 3.688 1.862
-0.865 3.557 0.357
-1.026 3.468 1.03
-1.261 3.713 1.639
-1.554 3.135 0.914
-0.08 3.426 2.677
0.695 2.881 2.933
-0.313 3.4 3.231
0.431 2.852 3.563
-0.687 3.194 3.654
0.006 2.617 4.044
-1.359 3.167 3.763
-0.58 2.815 3.881
-1.359 2.784 4.008
-1.995 3.111 3.523
-2.096 2.719 3.73
-2.423 3.039 2.998
-2.593 2.636 3.121
-0.832 2.373 4.277
-0.242 2.183 4.431
-1.061 1.806 4.483
-0.466 1.628 4.634
-1.543 2.398 4.242
-1.452 1.611 4.604
-1.868 2.121 4.396
-2.128 2.66 3.763
-2.373 2.347 3.982
-2.655 2.52 3.176
-2.827 2.227 3.476
-1.464 1.095 4.666
-0.48 1.041 4.705
-1.655 0.731 4.634
-0.882 0.784 4.614
-1.066 0.434 4.582
-0.333 0.517 4.869
-0.555 0.096 4.831
-2.14 0.383 4.441
-1.246 0.178 4.538
-1.7 -0.148 4.358
-0.878 -0.357 4.785
-1.429 -0.753 4.566
-2.498 0.133 3.99
-2.035 -0.382 3.936
-1.836 -1.037 4.053
-2.172 -0.468 3.371
-0.383 -0.749 5.065
-0.05 -0.304 5.117
0.164 -1.171 5.088
0.507 -0.734 5.141
0.44 -1.748 4.904
1.043 -0.806 5.264
1.319 -1.383 5.081
0.709 -2.198 4.495
1.588 -1.833 4.672
0.93 -2.454 3.923
1.809 -2.089 4.099
1.07 -2.477 3.273
1.949 -2.112 3.449
1.108 -2.263 2.644
1.987 -1.899 2.82
1.037 -1.846 2.131
1.916 -1.481 2.307
0.482 -2.37 2.114
0.798 -1.688 1.555
0.356 -2.104 1.542
0.806 -1.676 0.912
0.365 -2.092 0.898
1.061 -1.813 0.337
0.505 -2.337 0.32
-0.266 -2.524 2.101
-0.238 -2.226 1.532
-0.229 -2.214 0.888
-0.808 -2.019 1.528
1.48 -1.078 0.031
1.043 -1.422 0.814
1.323 -0.93 0.61
1.797 -0.747 1.701
2.335 -0.746 2.002
1.639 -0.712 -0.547
1.476 -0.549 0.311
1.615 -0.229 -0.195
1.697 -0.118 0.66
1.842 0.216 0.134
1.085 -2.024 -1.812
0.547 -2.053 -2.217
1.309 -1.6 -2.199
-0.032 -1.836 -2.488
0.827 -1.627 -2.562
0.31 -1.432 -2.805
1.154 -1.428 -3.046
0.599 -1.22 -3.306
-0.548 -1.409 -2.576
-0.152 -1.05 -2.884
0.104 -0.811 -3.39
-0.822 -1.287 -2.506
-0.336 -0.591 -3.197
-0.616 -0.466 -3.125
-1.31 -1.347 -2.194
-0.988 -0.705 -2.664
-1.485 -0.767 -2.346
-0.251 0.008 -3.791
0.185 -0.248 -3.95
0.101 0.716 -4.098
0.516 0.418 -4.238
0.377 1.347 -4.4
-0.398 1.946 -3.588
0.117 1.987 -4.134
-0.106 2.463 -3.53
-0.202 2.855 -2.684
0.028 3.029 -3.665
0.9 3.106 -3.671
0.173 2.486 -3.833
0.85 2.546 -3.838
0.989 2.064 -4.14
1.267 2.733 -3.406
0.819 3.383 -2.845
1.204 2.948 -2.765
1.749 2.404 -3.353
1.668 2.681 -2.526
0.902 2.914 -2.485
0.749 2.956 -2.405
1.123 2.627 -2.01
2.133 1.624 -1.992
2.194 2.159 -2.516
2.042 0.907 -1.262
2.428 1.273 -2.257
2.342 0.599 -1.57
1.855 0.911 -0.632
1.44 1.861 -0.608
1.976 0.918 0.014
1.861 0.778 -0.544
1.751 0.201 -0.446
1.991 0.665 -1.105
1.878 0.074 -1.004
2.201 -0.141 -1.444
2.497 1.237 -3.182
2.232 2.14 -3.028
1.83 1.363 -3.817
1.863 2.209 -3.379
1.382 0.739 -4.338
1.103 1.869 -4.167
0.855 1.524 -4.455
1.404 2.01 -3.684
1.315 2.161 -3.664
1.861 -0.287 1.473
2.073 0.663 0.819
2.18 0.376 1.607
2.748 0.111 2.175
1.884 1.434 1.198
2.02 1.032 1.93
2.541 0.959 2.592
1.755 1.469 1.75
1.11 2.216 1.58
1.842 1.579 2.299
1.881 1.886 2.857
2.58 1.266 3.15
1.754 2.03 3.466
2.452 1.41 3.759
1.478 1.99 4.04
2.177 1.37 4.333
1.093 1.773 4.5
1.791 1.153 4.793
0.651 1.408 4.781
1.35 0.788 5.074
0.073 1.245 4.841
0.82 0.891 4.947
0.23 0.725 5.008
0.613 0.111 5.233
1.146 0.023 5.355
-1.909 1.923 -0.799
-0.8 -2.007 0.885
1.517 -1.238 1.905
1.099 -1.46 1.828
1.205 -1.217 1.373
1.805 -0.426 -1.067
-3.022 2.038 -0.231
-3.504 1.618 -0.113
-3.504 2.066 0.275
-3.022 2.419 0.247
-3.504 2.232 0.843
-3.504 2.066 1.411
-3.827 1.75 0.843
-3.827 1.466 1.336
-3.504 1.031 -0.198
-3.504 0.492 0.048
-3.827 0.896 0.35
-3.827 1.466 0.35
-3.94 1.181 0.843
-3.827 0.896 1.336
-3.827 0.612 0.843
-2.634 -1.246 1.071
-2.634 -1.246 1.663
-2.419 0.645 -2.059
-2.419 -0.001 -2.059
0.193 3.598 -0.086
-0.376 3.598 -0.655
-0.376 3.711 -0.086
-0.945 3.598 -0.086
-0.945 3.462 -0.682
-1.427 3.109 -0.654
0.675 3.275 -0.086
-0.333 3.709 2.497
-0.889 3.977 2.497
-0.889 3.843 3.084
-1.507 3.843 3.084
-1.507 3.468 3.554
-0.889 3.468 3.554
-1.507 3.843 1.91
-1.507 3.977 2.497
-2.063 3.709 2.497
-2.063 3.537 3.083
-2.204 1.508 4.671
-2.76 1.657 4.339
-2.76 1.053 4.426
-2.204 0.906 4.671
-2.76 0.497 4.173
-2.76 2.119 3.939
-3.145 1.508 3.874
-3.145 0.906 3.874
0.732 -2.729 3.297
0.137 -2.837 3.911
0.137 -2.945 3.297
0.137 -2.837 2.683
0.732 -2.608 2.693
0.137 -2.047 4.853
-0.497 -2.047 4.853
-0.497 -2.525 4.452
0.137 -2.525 4.452
-0.497 -2.837 3.911
-0.497 -2.945 3.297
-0.497 -2.837 2.683
-0.497 -1.461 5.066
-1.092 -1.149 4.877
-1.092 -1.753 4.756
-1.092 -2.266 4.414
-1.092 -2.608 3.901
-1.092 -2.729 3.297
-1.092 -2.608 2.693
-1.577 -1.735 4.312
-1.577 -2.164 3.883
-1.577 -2.321 3.297
-1.894 -1.461 3.837
1.271 -2.245 -0.834
1.271 -2.088 -0.248
0.786 -2.532 -0.23
0.786 -2.653 -0.834
0.786 -2.532 -1.438
0.191 -2.761 -0.22
0.191 -2.869 -0.834
0.191 -2.761 -1.448
0.191 -2.449 -1.989
-0.443 -2.761 -0.22
-0.443 -2.869 -0.834
-0.443 -2.761 -1.448
-0.443 -2.449 -1.989
-1.038 -2.532 -0.23
-1.038 -2.653 -0.834
-1.038 -2.532 -1.438
-1.038 -2.19 -1.951
-0.443 -1.971 -2.39
-1.038 -1.677 -2.293
-1.523 -2.245 -0.834
-1.523 -2.088 -1.42
1.488 -1.753 -1.343
1.588 -1.385 -0.294
-0.243 -2.491 0.308
-1.152 1.82 -2.825
-1.152 1.343 -3.239
-0.729 0.877 -3.763
-0.729 0.286 -3.645
0.159 3.677 -3.268
1.993 1.475 0.623
1.632 2.291 3.029
1.147 2.699 3.029
1.147 2.578 3.633
1.147 2.236 4.146
0.552 2.495 4.184
0.552 2.017 4.585
0.025 0.329 5.098
3.668 -0.309 3.703
3.558 0.315 3.703
3.558 0.003 4.243
3.558 -0.621 4.243
3.558 -0.933 3.703
3.558 -0.621 3.163
3.558 0.003 3.163
3.241 0.706 4.289
3.241 0.277 4.718
3.241 -0.309 4.875
3.241 -0.895 4.718
3.241 -1.324 4.289
3.241 -1.481 3.703
3.241 -1.324 3.117
3.241 -0.895 2.688
3.241 -0.309 2.531
3.241 0.277 2.688
3.241 0.706 3.117
3.241 0.863 3.703
2.756 1.15 4.307
2.756 0.808 4.82
2.756 0.295 5.162
2.756 -0.309 5.283
2.756 -0.913 5.162
2.756 -1.426 4.82
2.756 -1.768 4.307
2.756 -1.889 3.703
2.756 -1.768 3.099
2.756 -1.426 2.586
2.756 -0.913 2.244
2.161 1.067 4.858
2.161 0.003 5.472
2.161 -0.621 5.472
2.161 -1.207 5.259
2.161 -1.685 4.858
2.161 -1.997 4.317
2.161 0.589 5.259
1.527 0.003 5.472
1.527 -0.621 5.472
2.923 0.206 -2.769
2.823 0.774 -2.769
2.823 0.49 -2.277
2.823 -0.078 -2.277
2.823 -0.362 -2.769
2.823 -0.078 -3.261
2.823 0.49 -3.261
2.535 0.054 -1.712
2.535 -0.493 -1.962
2.535 -0.819 -2.468
2.535 -0.819 -3.07
2.535 -0.493 -3.576
2.535 0.054 -3.826
2.535 0.65 -3.74
2.093 -1.201 -3.068
2.093 -0.958 -3.615
2.093 -0.513 -4.015
2.093 0.056 -4.2
2.093 0.651 -4.137
1.55 -1.185 -3.63
1.55 -0.78 -4.075
1.55 -0.242 -4.343
1.55 0.357 -4.398
0.974 -1.185 -3.63
0.974 -0.78 -4.075
0.974 -0.242 -4.343
0.431 -0.513 -4.015
2.245 -0.694 -1.778
1.684 -1.288 -0.895
1.7445 -0.857 -0.981
1.8255 -0.6835 -1.223
1.765 -1.1145 -1.137
1.846 -0.941 -1.379
2.0455 -0.8175 -1.5785
1.586 -1.5205 -1.119
1.667 -1.347 -1.361
1.758 -1.1495 -1.5795
1.579 -1.5555 -1.5615
1.67 -1.358 -1.78
1.9575 -1.026 -1.779
2.151 -0.917 -1.9925
1.8635 -1.249 -1.9935
2.057 -1.14 -2.207
1.4895 -1.479 -1.9895
1.683 -1.37 -2.203
1.8635 -1.27 -2.432
1.4895 -1.5 -2.428
1.67 -1.4 -2.657
1.068 -1.6135 -2.3805
1.2485 -1.5135 -2.6095
1.412 -1.414 -2.8515
0.9905 -1.5275 -2.804
0.8595 3.2445 -3.258
0.489 3.53 -3.0565
0.5295 3.3915 -3.4695
2.075 -1.1705 -2.6375
1.8815 -1.3005 -2.8625
1.6235 -1.3145 -3.057
0.138 -2.2755 0.604
0.131 -2.414 0.314
-0.236 -2.3525 0.598
-0.5145 -2.1105 0.8865
-0.5215 -2.249 0.5965
1.264 -1.0735 0.9915
1.3205 -1.0145 1.289
1.3795 -0.871 0.9075
1.436 -0.812 1.205
1.361 -1.2275 1.639
1.4765 -1.025 1.555
1.657 -0.9925 1.803
1.6165 -0.7795 1.453
-0.1485 1.331 -3.843
[...]
CELL_DATA 1046
SCALARS cell_data_0 double
LOOKUP_TABLE default
7.41024090569e-08
3.49602620194e-07
1.64346134303e-08
8.92801959027e-07
1.13054869248e-08
3.1365850396e-07
9.51593471271e-08
3.00713812178e-07
5.95286620949e-07
1.27291153243e-06
1.80321161729e-06
3.01112704263e-06
1.89079907155e-09
1.33075746286e-06
2.03686417526e-06
5.1341640767e-06
4.01263111626e-08
1.00968636286e-06
1.25235549504e-06
1.67315173592e-06
1.52822605701e-06
2.37901541931e-06
2.35242590171e-06
1.50819942569e-06
8.98456413617e-07
6.02866857996e-07
5.38425647172e-07
1.74250302299e-07
5.09328468785e-07
1.24226390808e-07
5.15532921704e-07
6.63969176904e-06
9.33155493198e-06
1.40607436449e-05
2.68008157053e-06
6.0603562162e-07
1.6325176107e-06
2.21164301363e-06
3.88612495222e-07
1.09650444405e-07
9.58444831173e-07
5.6465880751e-07
3.91798088327e-07
7.32484966899e-08
1.7171981026e-07
7.10725973712e-07
9.16583971688e-08
1.43620298163e-07
1.46257692156e-06
1.99647183567e-06
1.02728652354e-06
2.23291842157e-07
1.98476927904e-06
2.54556428453e-06
4.98076827908e-06
4.06267197593e-06
1.54640445621e-06
2.75128676388e-06
2.96710712998e-06
2.79265124625e-06
2.45871431761e-06
2.92318177773e-06
2.57270456495e-06
2.39511413388e-06
4.15580112054e-06
2.55866034282e-06
2.67244582432e-06
1.5519019789e-06
1.96990138219e-06
1.73434935654e-06
1.06903417684e-06
3.11911523872e-06
4.24569954545e-07
5.71704525356e-07
8.75709997779e-07
8.84153411347e-07
1.8588789533e-06
1.79729317367e-06
1.30307576215e-06
7.19942052907e-07
5.46945822359e-06
5.70110986971e-06
3.49669512907e-06
4.59751180533e-06
1.07804519818e-05
1.59516500305e-05
2.70151517976e-06
3.26895079705e-06
7.5668200308e-06
8.20307508258e-06
4.54712445151e-06
1.54343609001e-06
3.31194092202e-06
5.46218733983e-06
7.25178106277e-06
5.57847668244e-06
1.02641387166e-05
8.18141953534e-06
2.31649350763e-06
1.44516542362e-06
2.33734689324e-06
9.02271077981e-06
6.22826863228e-06
8.32223930504e-06
1.2298114498e-05
2.26815092356e-05
1.14241837056e-06
7.79434843235e-07
6.23414048957e-07
7.97805792353e-07
1.0337140849e-06
8.66315122743e-07
1.7549346284e-05
2.25001191378e-05
1.39730986668e-05
1.32610748733e-05
1.11814628131e-05
4.15837429012e-06
1.25207893475e-05
1.00757854415e-05
3.56219504661e-06
1.97744083395e-06
4.18894178736e-07
1.57293496769e-06
1.90010209572e-06
1.33563632843e-06
9.28802882692e-07
6.97107835861e-06
1.06269355997e-05
1.71623536409e-05
7.83618996176e-06
1.47873986029e-05
1.41586285768e-05
9.95144790107e-06
3.166731415e-06
2.78993546457e-06
6.25134916302e-06
8.15978788111e-06
8.57851561749e-06
1.0796681914e-05
8.92550506875e-06
9.0081747312e-06
1.09448145822e-05
1.4964099178e-05
1.41706923441e-05
4.25093582098e-06
2.3873734383e-06
5.49229335372e-06
1.00245404488e-05
9.23415113722e-06
1.02861605774e-05
1.13471451743e-05
7.33214046215e-06
6.36170828989e-06
6.06641242819e-06
7.02902309749e-06
4.9746904084e-06
1.13475474364e-06
2.75041755257e-06
1.19077256499e-06
1.66992061417e-07
1.13308025821e-06
8.78759540436e-07
6.25604833927e-07
8.7578945708e-07
4.62846571676e-07
1.39786664194e-06
1.08177248949e-06
3.09967389461e-06
2.534619119e-06
2.13224613999e-06
6.91223088484e-06
6.49078540161e-06
1.32734686809e-06
5.82698544367e-07
1.04901662724e-06
6.27523161576e-06
8.30582664978e-06
1.00068628201e-05
8.35342276783e-06
4.53578501215e-06
2.9851505168e-06
1.49102444893e-06
1.78544024259e-06
2.45222311633e-05
2.54245550593e-05
1.34821904418e-06
2.7900059394e-05
1.80703710787e-05
4.95431475162e-05
4.80539191001e-05
4.06014942689e-05
8.16784898466e-05
9.27980252308e-05
3.62492044099e-05
2.87210893748e-05
5.15076972792e-05
5.12294156581e-06
3.38607036629e-05
9.09730205309e-06
1.12110626049e-05
1.56584535742e-05
1.64432487803e-05
1.14062449119e-05
5.15478638786e-06
7.01608273456e-07
2.41650119425e-05
2.78313102125e-05
2.20093549512e-05
4.64259091826e-05
4.80241304288e-05
1.49117368003e-05
1.10014203972e-05
1.28041462746e-05
3.54859921123e-06
7.28187211219e-06
5.63242421209e-06
4.08320542831e-06
9.54616299611e-07
4.08310289258e-06
3.59243883399e-05
5.25615400621e-05
5.26531276237e-05
2.1728474848e-05
6.31140182275e-06
8.67724029543e-06
1.14060090174e-05
1.16259324774e-05
1.8349824712e-05
1.92971591889e-05
7.52518032128e-06
5.04101700053e-06
1.00810215293e-05
8.72263678002e-06
7.23679036147e-06
2.13849047614e-05
1.47943216417e-06
1.83670424116e-06
2.01468422306e-06
5.17844082668e-06
2.48781513486e-05
1.31877496513e-05
6.497323974e-07
5.37161963309e-07
3.10970383794e-06
4.0181418082e-06
1.24786535069e-06
1.7697440308e-06
4.75306015936e-06
7.09476477514e-06
9.26743405623e-06
1.47425147332e-05
9.68594512501e-06
1.46200036225e-05
6.19376198852e-06
4.93407396725e-06
5.31046835442e-06
8.17123197806e-06
4.19443961321e-06
6.7454023579e-06
3.8782663584e-06
2.05393925343e-06
2.75213824467e-06
2.21312325591e-06
2.1201078352e-06
3.11737186451e-06
8.99458681262e-07
1.70921825001e-06
2.04637523406e-06
2.68010770629e-06
3.26809878068e-06
3.5081097876e-06
4.20037616468e-06
1.65370558478e-06
1.04968832461e-06
2.14873472519e-06
3.32981846963e-06
6.08445380182e-06
5.41405057335e-06
6.98641156309e-06
5.24392871721e-06
4.8781937786e-06
4.58381597233e-06
2.30262096545e-06
1.57054446433e-06
5.51539710119e-07
5.44797084954e-08
1.88998900909e-07
5.55606573869e-08
1.41687121908e-06
3.76031730594e-06
1.93268399407e-07
2.99783462544e-07
2.16313302154e-06
4.44161750671e-06
1.09247764094e-07
1.38871893846e-06
1.69238199576e-06
8.97504464982e-07
1.1157099414e-06
6.32309700212e-07
1.84005982798e-07
1.84468946349e-06
8.57693263072e-07
6.73425371383e-07
2.94235387322e-06
1.79356180325e-06
1.03994678847e-06
1.94586148323e-06
1.95720738649e-06
4.13818905543e-07
2.43875364619e-07
5.59766777349e-07
2.34567965064e-07
1.90425933027e-06
5.52831083539e-07
2.33382336909e-06
2.8697297983e-06
9.12907555346e-08
1.94491737076e-07
9.48128345345e-09
5.13802570748e-07
7.89451625968e-08
7.24452150544e-08
3.37860029004e-08
3.0400606089e-06
1.70479252827e-06
9.23028206285e-07
1.72984820124e-06
2.58085101353e-05
1.12869253744e-05
3.25228602969e-06
2.06118040792e-06
1.49678970839e-06
5.83048204686e-07
6.07735691292e-07
9.2087273031e-07
1.47050120888e-06
6.93796485434e-06
4.68297211097e-06
3.07703607485e-06
1.76829363745e-06
5.34883979111e-06
2.47140001328e-06
1.84490361894e-06
2.93726314539e-06
7.93655888353e-06
1.16860288387e-05
5.29031982047e-06
4.18125874044e-06
3.96473860907e-06
2.692808746e-06
2.39446086354e-06
1.19828213704e-06
8.49980635938e-07
1.6146764119e-06
2.76860627668e-06
9.05141166774e-06
7.7007805978e-06
4.96614592968e-06
3.67328204866e-06
6.64159590769e-06
6.87067991576e-06
6.37484410192e-06
3.63463537898e-06
3.59729382711e-06
4.85320111962e-06
9.91091171611e-06
3.33002298269e-06
5.27185876514e-06
6.65697189278e-06
5.05614874531e-06
2.78242461373e-07
3.79350991329e-07
3.08309155475e-05
1.00903624377e-05
1.67439382886e-05
1.03663707257e-05
1.16049014979e-05
1.1124746201e-05
1.45627308436e-05
1.45807482755e-05
8.74360839453e-06
4.30815800558e-06
2.72467039452e-06
2.06897394942e-06
3.73278893012e-06
4.51090215149e-06
2.84749653499e-06
5.17216025801e-06
2.72408985569e-06
9.0726522201e-06
4.50495584853e-06
4.98678976161e-06
1.55689774546e-06
1.35498801303e-06
9.9737058272e-07
9.19773455573e-07
4.24683195065e-07
5.66401183792e-06
6.36104725341e-06
3.34207127505e-06
8.30180015552e-07
6.73261228401e-07
2.58226934417e-07
7.83733432285e-07
2.85675182265e-07
3.84737588583e-07
1.27984820652e-06
3.77982769274e-06
7.20510733048e-09
3.49396165517e-07
4.10045385893e-07
1.12124277392e-06
2.93121338509e-06
2.19477246044e-06
3.73684839252e-06
2.03918690342e-06
7.43320397969e-07
6.91161679932e-07
5.85652408815e-07
1.93389401871e-06
4.09829136562e-07
7.1381720006e-07
1.08205691412e-06
9.4477235789e-07
7.37273137413e-07
1.10677879896e-06
1.74139045397e-06
5.57665006005e-06
4.60185831316e-06
1.7893548876e-06
2.42047469033e-07
1.22097588118e-06
1.30840915199e-07
2.39668540193e-07
2.9552821385e-07
2.52403993295e-07
5.07598451938e-07
1.61993890003e-06
2.34663401571e-06
6.07589434149e-08
2.44968817136e-07
1.26447075798e-07
9.78292210814e-07
2.09599708449e-08
3.18301798438e-07
6.34322075917e-07
2.11846312523e-07
4.51374112489e-07
2.98932984646e-07
9.69217903729e-07
3.88506434548e-07
5.20999857111e-07
2.46247341484e-07
1.02887212935e-06
3.20806624445e-06
1.1335531479e-06
5.1770218294e-07
2.18761818863e-08
3.26505147263e-06
3.94583691065e-06
2.05056733699e-06
4.31859707484e-06
1.69096678509e-06
2.78357913819e-06
3.71665199998e-06
3.18475188417e-06
4.91767203317e-06
1.28881760918e-06
5.71218827324e-06
1.28773620798e-06
1.1153691062e-06
1.05593745483e-06
1.13831474543e-06
8.98148742724e-07
1.01207837655e-06
1.7246548852e-07
3.68607261576e-06
8.66521995309e-07
2.63214026992e-06
1.17546930749e-06
1.53799779287e-06
2.12536841226e-06
3.35345575774e-06
2.2262043916e-06
2.23697623275e-06
2.53232014403e-06
1.18631210908e-06
9.00675536916e-07
4.11750514045e-07
1.9697197302e-08
2.30069544326e-06
6.19974817334e-07
4.18882324466e-07
5.42062585151e-08
1.96215084766e-08
1.93938956379e-07
2.48638818715e-07
5.55831141713e-08
2.22394188494e-07
1.56370410811e-05
1.45592727998e-05
7.78713843308e-08
1.57290892144e-06
1.13665766633e-05
5.97601459436e-06
1.75671280329e-05
2.39447063952e-05
2.08869506379e-05
4.81168709228e-06
1.7551221218e-06
2.92242280858e-06
7.67795794432e-07
1.26389400286e-07
3.86442319901e-08
3.66126546073e-08
2.86265917795e-08
5.36170428525e-06
4.44143169802e-06
8.52373824036e-06
1.10542049787e-08
9.14212226234e-07
1.16990744363e-05
1.4753986968e-05
1.38187543139e-05
1.0294186417e-06
4.55887591762e-07
1.99765982903e-06
2.24339974892e-06
8.68839787584e-06
1.35978479049e-05
3.00968621481e-05
3.66372273278e-05
8.77227776532e-06
7.52549394269e-06
5.69344270952e-06
1.04327844714e-05
6.59865015897e-06
8.43379764773e-06
1.22054873937e-07
1.97450036765e-07
7.80342607546e-06
1.02604777949e-05
1.09275382284e-05
4.99531726866e-05
3.18507043735e-05
4.5650224972e-05
5.27261100081e-05
1.35937290201e-05
3.23825626267e-06
3.21909989363e-06
8.1513736065e-06
1.55478627965e-05
5.77267206167e-06
9.94174915323e-06
7.00312616442e-06
4.38736531575e-06
1.0740482946e-05
2.13520035458e-08
3.25083598235e-06
3.18365383051e-06
4.13686652649e-06
2.35012959574e-07
1.3942557616e-07
8.00150997541e-08
1.89470140996e-06
4.93854623572e-07
1.31839749617e-06
3.56701036778e-08
7.93821635091e-08
2.29371781691e-06
1.64578642399e-06
2.39929361957e-06
1.11463777918e-06
1.40316701424e-06
1.93841683067e-07
3.34355184266e-07
6.77883920102e-07
5.0036054984e-07
6.19703942273e-07
3.06488099038e-06
2.42909218795e-06
2.07204596224e-06
6.48603468305e-07
3.66034358961e-07
7.04910204952e-07
4.68999088289e-07
2.63164386117e-06
1.22211306493e-06
2.34648538791e-06
1.68720072083e-06
1.61008988802e-06
7.95108011969e-07
4.62115279703e-06
2.4306706568e-06
2.93982206175e-05
1.03609173007e-05
1.07817008583e-05
2.7902217326e-06
3.69004873258e-06
6.58189170981e-06
1.2925645989e-05
3.58871391436e-06
5.07388778796e-06
8.6372659322e-07
3.77919288538e-07
1.86597448184e-06
4.43609436725e-06
1.06562248697e-06
1.73820626979e-06
7.24478957002e-07
2.01846380894e-06
2.21018045253e-06
1.94249381127e-06
3.02358612039e-06
3.54488300519e-08
2.36613800364e-07
1.59019652355e-06
3.36136605158e-06
1.9839296724e-05
1.45962090037e-06
6.50883882711e-07
3.59361845246e-07
7.44013972133e-07
1.73881986172e-07
4.51280818275e-07
7.70902051601e-07
8.89628489132e-07
3.81931556046e-07
3.4614223541e-07
3.49136626745e-07
2.68615892848e-07
1.62056533098e-06
1.90341750398e-06
6.89814422085e-06
2.86060715895e-06
3.35816951742e-06
5.95920430795e-06
3.87937799904e-06
6.06366131084e-06
5.609370744e-06
1.79037823948e-06
7.11467577928e-06
5.54118855182e-06
2.35341135614e-05
2.70782644706e-05
2.63160116903e-05
2.42197042825e-07
2.11256085079e-06
3.62687295935e-07
2.25373593443e-06
5.97074247791e-08
5.8266716224e-07
6.1130380362e-07
3.96979778271e-06
2.17426904593e-07
2.80254159137e-06
3.45579426801e-06
1.37887953653e-06
3.83017709017e-07
1.82755339823e-06
1.61555752769e-06
4.16788915342e-06
2.10531460772e-06
1.80562686033e-06
1.13052150849e-06
1.26903240086e-06
2.03457712305e-07
2.50210019872e-06
1.70103932981e-06
1.59025560949e-06
1.94723841917e-05
1.25084176669e-05
3.97882356711e-07
1.61470685986e-06
8.3178161851e-06
2.21682612597e-06
3.44410285604e-06
3.21464448854e-06
9.31059763236e-06
1.09540083316e-05
1.00371962756e-06
2.06935769845e-06
3.80524792406e-05
2.06519900381e-05
3.46557516484e-05
2.61363379015e-06
2.29165512807e-05
8.31574218779e-06
4.25866584429e-06
1.3081454973e-05
7.98417104518e-06
3.58092223314e-05
1.24366230293e-05
2.3905603126e-06
3.41009097749e-06
2.09175958042e-06
1.80301167979e-06
1.40850413776e-06
5.47833872566e-06
1.63244210002e-06
6.31705660709e-06
1.45519508924e-06
2.1452595701e-07
2.54889115746e-07
8.96150171587e-07
1.88428166979e-06
6.31427764922e-06
6.53846031698e-06
4.7876065381e-06
9.58053725805e-06
8.77609200838e-06
2.3546489555e-06
1.38025371742e-06
3.2963450756e-07
2.83850383852e-06
4.21039571861e-07
5.3885070373e-06
6.08083975484e-06
3.43967432274e-06
7.37791481176e-06
2.02513949075e-06
2.18742548603e-07
6.62457812537e-08
3.46889869605e-06
9.52053941426e-06
3.99915103036e-06
9.68035977823e-07
4.24384973752e-06
3.46094270855e-06
1.15397256353e-06
2.31426152456e-08
2.97233793111e-07
9.76541616654e-07
1.78881014666e-06
3.61714496817e-06
5.15771965944e-06
3.35540351626e-06
1.32715071887e-06
1.0049592702e-06
2.70579698422e-07
4.11355256508e-06
4.05474113182e-06
2.72749345045e-05
3.10307530183e-05
1.02422971624e-05
8.52357512224e-06
2.92279067419e-07
1.1526416688e-06
2.16004185917e-07
2.48660092591e-07
3.84645120898e-07
8.99443401019e-08
2.56121297013e-06
1.65330830732e-07
4.48692180729e-06
1.18073543928e-06
6.55297633772e-06
6.7135967254e-07
4.54351304462e-07
5.77426471594e-06
4.78393172432e-06
5.65320617447e-06
3.19594351482e-05
1.31557237063e-05
2.41798063592e-05
1.07865863866e-06
1.75964048218e-07
2.42983952439e-06
2.23051127987e-06
3.3204625817e-07
1.87330253828e-05
1.44140860023e-05
1.38281397702e-05
1.13425493986e-07
1.37323656401e-07
1.06672459742e-07
7.05659143088e-07
2.15959360277e-07
9.79988832801e-07
1.15772063416e-06
5.54554439815e-06
4.57951940905e-06
1.00636708967e-05
3.31541568475e-06
2.78687844852e-06
3.92241421621e-06
2.29775039437e-06
2.46799792055e-06
4.9890269418e-06
6.91575628835e-06
1.804932373e-06
4.39542364205e-06
1.70197568857e-06
2.47454620635e-06
3.69754300304e-06
7.03601650977e-06
4.13070571512e-06
1.85502488158e-05
2.32789236416e-05
2.84169819639e-05
4.97992600558e-06
1.90200993069e-06
4.16515630504e-07
4.08026327452e-07
3.29173946223e-06
2.04649139091e-06
7.70276234274e-06
1.11502073014e-05
7.33645273831e-06
1.62367857106e-05
6.15346112015e-06
2.04320805086e-06
1.37940915829e-07
3.53297673421e-07
5.91172564979e-08
1.82398600706e-06
6.84990474222e-07
1.23503153692e-06
9.25968211972e-07
7.62645132842e-07
4.74860391166e-07
7.98578940279e-07
2.5465463053e-07
4.86652398767e-07
7.96027766083e-07
3.72142667233e-07
3.74473281382e-06
3.57552608657e-06
2.59874682165e-06
1.66152372843e-06
2.53898590276e-07
2.50509371016e-07
1.95856998017e-06
1.07037415231e-06
5.69918752484e-08
1.06667931019e-06
2.03734770277e-06
2.77399196948e-06
2.44174703242e-06
1.5464667117e-06
3.39528384795e-07
4.36376841863e-07
1.54138662113e-06
2.71362728684e-06
3.10356563731e-06
2.55371670469e-06
8.48808856319e-07
4.15018632089e-07
2.01283478394e-06
3.91509580092e-07
5.51477340383e-07
1.50458058514e-06
2.80681145889e-07
6.77418405976e-07
8.0711005218e-07
7.32999141281e-06
2.83178049241e-05
9.47106711173e-06
3.99698591976e-06
7.70904575556e-06
2.13862908981e-06
1.78311603945e-06
2.03413921554e-06
1.21535535265e-05
8.44947505059e-06
7.52933920018e-06
1.05573150905e-05
1.78239780132e-06
1.74112824505e-06
2.24451955172e-06
2.5340351246e-06
2.24629307304e-06
1.68089410051e-06
5.64429833804e-08
5.8980278838e-07
2.0098327354e-06
1.38356971949e-06
1.01738495171e-06
1.25390685531e-06
2.13132305169e-07
9.51439978238e-06
1.92038094394e-05
7.92644357369e-06
1.61310025679e-06
1.9260042383e-05
3.95320961079e-05
2.60218652717e-06
9.25704606726e-06
2.64692708674e-06
4.18734344435e-07
1.9139322446e-07
2.7051363837e-06
7.09873316624e-08
3.83456213228e-06
3.09945258048e-06
3.98566856759e-06
2.59909393071e-06
2.62910229955e-06
9.16050019802e-08
6.5672344217e-08
1.14363384869e-07
2.21484765515e-07
5.8869318206e-07
3.15316979255e-07
1.38383290811e-07
2.1655101389e-07
3.10223702431e-07
2.21207182776e-07
5.77609374489e-08
1.64448737634e-07
8.63450665431e-08
2.25852261871e-07
6.51170783926e-07
1.33835339435e-06
3.26738107612e-07
5.37717700915e-07
5.78858910723e-07
8.37170427267e-07
3.40003950743e-07
2.10881820086e-07
3.63447829161e-07
4.25593578078e-07
4.12385214572e-08
3.27968462888e-07
6.34094043824e-07
1.15214089231e-06
7.20990551172e-07
8.01759470668e-07
1.76108581943e-07
1.29854576319e-07
4.86183210645e-07
3.33438853272e-07
1.36079082454e-05
1.43702104034e-05
1.5087123285e-05
5.61048277209e-05
5.95074831161e-05
1.09080231258e-05
1.72764899394e-05
6.48516883761e-08
3.76431778652e-06
1.44965084611e-06
1.47106668991e-05
2.19796516591e-05
2.0865600273e-05
5.68042691818e-05
2.76472648635e-05
1.47342581731e-05
4.45072393149e-07
1.19402906995e-06
8.0632207319e-07
2.59899176396e-09
9.88301351985e-08
7.53884718708e-08
3.17980924186e-07
1.91259276603e-07
4.18788697903e-07
6.05034305436e-07
2.18574296561e-07
8.29250931506e-07
1.61423657997e-06
1.94125013081e-06
2.36729834063e-05
1.97543311143e-05
1.28656812494e-06
3.40686376491e-08
3.27592788445e-06
1.58278066099e-06
2.0975719773e-05
8.37295841677e-06
4.70098513448e-06
3.4252807557e-07
6.94389847547e-06
1.29413327576e-06
8.81469056968e-07
1.33877652173e-05
1.59750576552e-05
7.69004772136e-06
2.22427131431e-06
3.77230199987e-08
4.84735328044e-06
6.33002143245e-06
2.18764489016e-06
1.14146231561e-07
6.28817410764e-06
1.15645133369e-06
1.92198508696e-08
5.53548398575e-09
7.46523920482e-06
1.15054261877e-07
2.03806908673e-06
7.34001113307e-07
1.33968429877e-06
1.67424379602e-06
7.4105982689e-08
2.91828024526e-07
2.40931901323e-06
5.17127131435e-08
1.45661105935e-06
5.9698871907e-07
7.78368726921e-07
4.1775705297e-08
1.74619622137e-07
6.37748517731e-06
9.493264163e-11
8.79299351747e-08
1.18453958574e-05
7.61292216268e-08
7.44242109765e-07
9.71138376649e-08
1.05281619218e-05
8.62057332821e-06
3.64279615527e-06
1.47487094691e-05
2.9352096354e-07
4.03824600783e-08
5.65768628477e-06
2.10849406766e-07
5.40475032755e-07
7.66160948362e-07
1.87848963458e-06
1.3205037377e-06
6.63066434337e-07
8.92784130237e-06
3.99344233989e-06
4.61072003054e-06
9.64505127238e-07
1.12824626434e-06
4.18023934317e-07
5.92353631068e-06
4.64760645368e-06
3.01455334927e-06
4.87431094698e-07
2.28170034732e-07
3.29943510604e-07
5.79631966399e-07
5.94766427828e-08
2.83655660693e-08
1.78276748807e-08
8.27252720242e-08
2.3128047466e-07
4.63385979919e-07
3.67283907875e-06
1.26837731734e-07

