# vtk DataFile Version 3.0
File Name: Molecule/arg/arg_3.0-0.vtk
ASCII
DATASET UNSTRUCTURED_GRID
FIELD FieldData 1
TIME 1 1 double
0.0
POINTS 474 double
-3.403 0.327 1.604
-3.398 0.034 0.803
-2.981 -0.361 1.858
-2.976 -0.654 1.057
-2.971 0.024 0.066
-2.549 -0.664 0.32
-2.984 0.046 0.042
-2.471 -0.12 -0.363
-2.484 -0.099 -0.385
-2.2 -0.483 -0.862
-2.216 -0.458 -0.889
-3.255 0.893 -0.375
-2.57 0.022 -0.532
-2.781 0.681 -0.857
-2.39 -0.269 -1.153
-2.621 0.454 -1.509
-2.776 1.74 -0.497
-2.407 1.34 -0.951
-2.211 1.177 -1.613
-2.622 1.932 -0.429
-2.287 1.501 -0.894
-2.142 1.682 -0.83
-1.982 1.439 -1.492
-1.81 1.654 -1.416
-2.655 2.421 0.048
-2.046 2.135 -0.548
-2.075 2.574 -0.12
-1.615 2.438 -0.879
-1.647 2.927 -0.402
-2.495 2.657 0.67
-1.932 2.785 0.438
-1.488 3.163 0.22
-3.186 2.284 1.521
-2.137 2.872 1.156
-2.739 2.546 1.897
-1.863 3.333 1.507
-2.53 2.972 2.328
-3.419 1.801 1.788
-2.717 2.558 2.345
-2.979 2.017 2.644
-3.567 1.179 1.827
-3.133 1.725 2.369
-3.262 1.186 2.403
-3.107 1.793 3.017
-3.25 1.192 3.055
-3.408 0.559 1.798
-3.123 0.649 2.378
-3.095 0.593 3.027
-3.105 0.348 2.085
-3.1 0.088 1.867
-2.97 0.105 2.152
-2.978 0.383 3.085
-2.865 -0.346 2.113
-2.52 -0.7 2.425
-2.794 0.071 2.575
-2.491 -0.24 2.849
-2.645 0.041 3.387
-2.41 -1.24 2.09
-2.148 -0.9 2.844
-2.042 -1.418 2.522
-2.003 -1.142 3.367
-1.882 -1.734 2.999
-2.078 -1.605 1.676
-1.723 -1.769 2.124
-1.517 -2.136 2.544
-1.592 -1.721 1.268
-1.257 -1.88 1.733
-0.984 -2.263 2.097
-2.203 -1.444 0.759
-1.237 -1.838 0.739
-1.813 -1.578 0.259
-0.96 -2.23 0.303
-1.631 -1.926 -0.256
-2.487 -0.785 0.321
-2.08 -0.956 -0.154
-1.943 -1.202 -0.738
-2.189 -0.632 -0.224
-2.248 -0.516 -0.225
-2.131 -0.618 -0.861
-2.114 -0.682 -1.181
-1.927 -1.264 -1.052
-2.312 -0.441 -1.376
-2.121 -0.506 -1.916
-1.682 -1.348 -1.746
-1.897 0.192 -2.527
-1.864 -0.768 -1.888
-1.57 0.147 -2.691
-2.011 1.039 -2.18
-1.198 0.386 -3.152
-1.348 1.496 -2.696
-1.72 1.257 -2.235
-1.479 1.817 -1.75
-1.107 2.057 -2.211
-1.319 2.584 -1.178
-0.816 3.013 -1.267
-1.111 2.259 -1.642
-0.623 2.675 -1.729
-0.543 2.537 -2.312
0.466 3.148 -0.891
-0.306 2.923 -1.738
0.315 2.988 -1.555
-0.026 3.04 -2.368
0.4 3.085 -2.243
-0.048 3.337 -3.001
0.699 3.415 -2.782
1.057 2.557 -0.305
0.619 2.806 -1.364
1.192 2.232 -0.796
0.892 2.689 -1.891
1.553 2.026 -1.234
0.737 2.845 0.68
1.539 1.918 0.039
1.22 2.206 1.024
0.406 3.093 0.833
0.756 2.48 1.392
0.466 2.698 1.526
1.112 2.426 2.108
0.748 2.699 2.276
-0.152 3.531 0.588
0.05 3.076 1.433
-0.422 3.446 1.225
-0.034 3.266 2.099
-0.572 3.688 1.862
-0.865 3.557 0.357
-1.026 3.468 1.03
-1.261 3.713 1.639
-1.554 3.135 0.914
-0.08 3.426 2.677
0.695 2.881 2.933
-0.313 3.4 3.231
0.431 2.852 3.563
-0.687 3.194 3.654
0.006 2.617 4.044
-1.359 3.167 3.763
-0.58 2.815 3.881
-1.359 2.784 4.008
-1.995 3.111 3.523
-2.096 2.719 3.73
-2.423 3.039 2.998
-2.593 2.636 3.121
-0.832 2.373 4.277
-0.242 2.183 4.431
-1.061 1.806 4.483
-0.466 1.628 4.634
-1.543 2.398 4.242
-1.452 1.611 4.604
-1.868 2.121 4.396
-2.128 2.66 3.763
-2.373 2.347 3.982
-2.655 2.52 3.176
-2.827 2.227 3.476
-1.464 1.095 4.666
-0.48 1.041 4.705
-1.655 0.731 4.634
-0.882 0.784 4.614
-1.066 0.434 4.582
-0.333 0.517 4.869
-0.555 0.096 4.831
-2.14 0.383 4.441
-1.246 0.178 4.538
-1.7 -0.148 4.358
-0.878 -0.357 4.785
-1.429 -0.753 4.566
-2.498 0.133 3.99
-2.035 -0.382 3.936
-1.836 -1.037 4.053
-2.172 -0.468 3.371
-0.383 -0.749 5.065
-0.05 -0.304 5.117
0.164 -1.171 5.088
0.507 -0.734 5.141
0.44 -1.748 4.904
1.043 -0.806 5.264
1.319 -1.383 5.081
0.709 -2.198 4.495
1.588 -1.833 4.672
0.93 -2.454 3.923
1.809 -2.089 4.099
1.07 -2.477 3.273
1.949 -2.112 3.449
1.108 -2.263 2.644
1.987 -1.899 2.82
1.037 -1.846 2.131
1.916 -1.481 2.307
0.482 -2.37 2.114
0.798 -1.688 1.555
0.356 -2.104 1.542
0.806 -1.676 0.912
0.365 -2.092 0.898
1.061 -1.813 0.337
0.505 -2.337 0.32
-0.266 -2.524 2.101
-0.238 -2.226 1.532
-0.229 -2.214 0.888
-0.243 -2.491 0.308
-0.808 -2.019 1.528
-0.8 -2.007 0.885
1.48 -1.078 0.031
1.043 -1.422 0.814
1.323 -0.93 0.61
1.205 -1.217 1.373
1.436 -0.812 1.205
1.517 -1.238 1.905
1.797 -0.747 1.701
2.335 -0.746 2.002
1.639 -0.712 -0.547
1.476 -0.549 0.311
1.615 -0.229 -0.195
1.697 -0.118 0.66
1.842 0.216 0.134
1.684 -1.288 -0.895
1.805 -0.426 -1.067
1.846 -0.941 -1.379
2.201 -0.141 -1.444
2.245 -0.694 -1.778
1.488 -1.753 -1.343
1.67 -1.358 -1.78
2.057 -1.14 -2.207
1.085 -2.024 -1.812
1.309 -1.6 -2.199
1.67 -1.4 -2.657
0.547 -2.053 -2.217
0.827 -1.627 -2.562
1.154 -1.428 -3.046
-0.032 -1.836 -2.488
0.31 -1.432 -2.805
0.599 -1.22 -3.306
-0.548 -1.409 -2.576
-0.152 -1.05 -2.884
0.104 -0.811 -3.39
-0.822 -1.287 -2.506
-0.336 -0.591 -3.197
-0.616 -0.466 -3.125
-1.31 -1.347 -2.194
-0.988 -0.705 -2.664
-1.485 -0.767 -2.346
-0.251 0.008 -3.791
0.185 -0.248 -3.95
0.101 0.716 -4.098
0.516 0.418 -4.238
-0.398 1.946 -3.588
0.377 1.347 -4.4
0.117 1.987 -4.134
-0.106 2.463 -3.53
-0.202 2.855 -2.684
0.028 3.029 -3.665
0.9 3.106 -3.671
0.173 2.486 -3.833
0.85 2.546 -3.838
0.989 2.064 -4.14
0.819 3.383 -2.845
1.267 2.733 -3.406
1.204 2.948 -2.765
1.749 2.404 -3.353
1.668 2.681 -2.526
0.902 2.914 -2.485
0.749 2.956 -2.405
1.123 2.627 -2.01
2.133 1.624 -1.992
2.194 2.159 -2.516
2.042 0.907 -1.262
2.428 1.273 -2.257
2.342 0.599 -1.57
1.855 0.911 -0.632
1.44 1.861 -0.608
1.976 0.918 0.014
1.861 0.778 -0.544
1.751 0.201 -0.446
1.991 0.665 -1.105
1.878 0.074 -1.004
2.497 1.237 -3.182
2.232 2.14 -3.028
1.83 1.363 -3.817
1.863 2.209 -3.379
1.382 0.739 -4.338
1.103 1.869 -4.167
0.855 1.524 -4.455
1.404 2.01 -3.684
1.315 2.161 -3.664
2.073 0.663 0.819
1.861 -0.287 1.473
2.18 0.376 1.607
2.748 0.111 2.175
1.884 1.434 1.198
2.02 1.032 1.93
2.541 0.959 2.592
1.755 1.469 1.75
1.11 2.216 1.58
1.842 1.579 2.299
1.881 1.886 2.857
2.58 1.266 3.15
1.754 2.03 3.466
2.452 1.41 3.759
1.478 1.99 4.04
2.177 1.37 4.333
1.093 1.773 4.5
1.791 1.153 4.793
0.651 1.408 4.781
1.35 0.788 5.074
0.073 1.245 4.841
0.82 0.891 4.947
0.23 0.725 5.008
0.613 0.111 5.233
1.146 0.023 5.355
-1.909 1.923 -0.799
1.099 -1.46 1.828
-3.022 2.038 -0.231
-3.504 1.618 -0.113
-3.504 2.066 0.275
-3.022 2.419 0.247
-3.504 2.232 0.843
-3.504 2.066 1.411
-3.827 1.75 0.843
-3.827 1.466 1.336
-3.504 1.031 -0.198
-3.504 0.492 0.048
-3.827 0.896 0.35
-3.827 1.466 0.35
-3.94 1.181 0.843
-3.827 0.896 1.336
-3.827 0.612 0.843
-2.634 -1.246 1.071
-2.634 -1.246 1.663
-2.419 0.645 -2.059
-2.419 -0.001 -2.059
0.193 3.598 -0.086
-0.376 3.598 -0.655
-0.376 3.711 -0.086
-0.945 3.598 -0.086
-0.945 3.462 -0.682
-1.427 3.109 -0.654
0.675 3.275 -0.086
-0.333 3.709 2.497
-0.889 3.977 2.497
-0.889 3.843 3.084
-1.507 3.843 3.084
-1.507 3.468 3.554
-0.889 3.468 3.554
-1.507 3.843 1.91
-1.507 3.977 2.497
-2.063 3.709 2.497
-2.063 3.537 3.083
-2.204 1.508 4.671
-2.76 1.657 4.339
-2.76 1.053 4.426
-2.204 0.906 4.671
-2.76 0.497 4.173
-2.76 2.119 3.939
-3.145 1.508 3.874
-3.145 0.906 3.874
0.732 -2.729 3.297
0.137 -2.837 3.911
0.137 -2.945 3.297
0.137 -2.837 2.683
0.732 -2.608 2.693
0.137 -2.047 4.853
-0.497 -2.047 4.853
-0.497 -2.525 4.452
0.137 -2.525 4.452
-0.497 -2.837 3.911
-0.497 -2.945 3.297
-0.497 -2.837 2.683
-0.497 -1.461 5.066
-1.092 -1.149 4.877
-1.092 -1.753 4.756
-1.092 -2.266 4.414
-1.092 -2.608 3.901
-1.092 -2.729 3.297
-1.092 -2.608 2.693
-1.577 -1.735 4.312
-1.577 -2.164 3.883
-1.577 -2.321 3.297
-1.894 -1.461 3.837
1.271 -2.245 -0.834
1.271 -2.088 -0.248
0.786 -2.532 -0.23
0.786 -2.653 -0.834
0.786 -2.532 -1.438
0.191 -2.761 -0.22
0.191 -2.869 -0.834
0.191 -2.761 -1.448
0.191 -2.449 -1.989
-0.443 -2.761 -0.22
-0.443 -2.869 -0.834
-0.443 -2.761 -1.448
-0.443 -2.449 -1.989
-1.038 -2.532 -0.23
-1.038 -2.653 -0.834
-1.038 -2.532 -1.438
-1.038 -2.19 -1.951
-0.443 -1.971 -2.39
-1.038 -1.677 -2.293
-1.523 -2.245 -0.834
-1.523 -2.088 -1.42
1.588 -1.385 -0.294
-1.152 1.82 -2.825
-1.152 1.343 -3.239
-0.729 0.877 -3.763
-0.729 0.286 -3.645
0.159 3.677 -3.268
1.993 1.475 0.623
1.632 2.291 3.029
1.147 2.699 3.029
1.147 2.578 3.633
1.147 2.236 4.146
0.552 2.495 4.184
0.552 2.017 4.585
0.025 0.329 5.098
3.668 -0.309 3.703
3.558 0.315 3.703
3.558 0.003 4.243
3.558 -0.621 4.243
3.558 -0.933 3.703
3.558 -0.621 3.163
3.558 0.003 3.163
3.241 0.706 4.289
3.241 0.277 4.718
3.241 -0.309 4.875
3.241 -0.895 4.718
3.241 -1.324 4.289
3.241 -1.481 3.703
3.241 -1.324 3.117
3.241 -0.895 2.688
3.241 -0.309 2.531
3.241 0.277 2.688
3.241 0.706 3.117
3.241 0.863 3.703
2.756 1.15 4.307
2.756 0.808 4.82
2.756 0.295 5.162
2.756 -0.309 5.283
2.756 -0.913 5.162
2.756 -1.426 4.82
2.756 -1.768 4.307
2.756 -1.889 3.703
2.756 -1.768 3.099
2.756 -1.426 2.586
2.756 -0.913 2.244
2.161 1.067 4.858
2.161 0.589 5.259
2.161 0.003 5.472
2.161 -0.621 5.472
2.161 -1.207 5.259
2.161 -1.685 4.858
2.161 -1.997 4.317
1.527 0.003 5.472
1.527 -0.621 5.472
2.923 0.206 -2.769
2.823 0.774 -2.769
2.823 0.49 -2.277
2.823 -0.078 -2.277
2.823 -0.362 -2.769
2.823 -0.078 -3.261
2.823 0.49 -3.261
2.535 0.054 -1.712
2.535 -0.493 -1.962
2.535 -0.819 -2.468
2.535 -0.819 -3.07
2.535 -0.493 -3.576
2.535 0.054 -3.826
2.535 0.65 -3.74
2.093 -1.201 -3.068
2.093 -0.958 -3.615
2.093 -0.513 -4.015
2.093 0.056 -4.2
2.093 0.651 -4.137
1.55 -1.185 -3.63
1.55 -0.78 -4.075
1.55 -0.242 -4.343
1.55 0.357 -4.398
0.974 -1.185 -3.63
0.974 -0.78 -4.075
0.974 -0.242 -4.343
0.431 -0.513 -4.015

CELLS 944 3776
3 0 1 2
3 2 1 3
3 1 4 3
3 3 4 5
3 4 6 7
3 7 6 8
3 7 8 9
3 9 8 10
3 6 11 12
3 12 11 13
3 12 13 14
3 14 13 15
3 11 16 13
3 13 16 17
3 13 17 15
3 15 17 18
3 16 19 20
3 20 19 21
3 20 21 22
3 22 21 23
3 19 24 25
3 25 24 26
3 25 26 27
3 27 26 28
3 24 29 26
3 26 29 30
3 26 30 28
3 28 30 31
3 29 32 33
3 33 32 34
3 33 34 35
3 35 34 36
3 32 37 38
3 38 37 39
3 37 40 41
3 41 40 42
3 41 42 43
3 43 42 44
3 40 45 42
3 42 45 46
3 42 46 44
3 44 46 47
3 45 0 48
3 48 0 49
3 48 50 47
3 47 50 51
3 50 49 52
3 52 49 2
3 52 53 54
3 54 53 55
3 54 55 51
3 51 55 56
3 53 57 58
3 58 57 59
3 58 59 60
3 60 59 61
3 57 62 59
3 59 62 63
3 59 63 61
3 61 63 64
3 62 65 63
3 63 65 66
3 63 66 64
3 64 66 67
3 65 68 69
3 69 68 70
3 69 70 71
3 71 70 72
3 68 73 70
3 70 73 74
3 70 74 72
3 72 74 75
3 73 5 76
3 76 5 77
3 76 77 78
3 78 77 9
[...]
CELL_DATA 944
SCALARS cell_data_0 double
LOOKUP_TABLE default
6.69355975666e-08
3.443996264e-07
1.85435075223e-08
8.81814673723e-07
1.1475232624e-08
3.11732553278e-07
9.49002749445e-08
3.01575502279e-07
5.84735381336e-07
1.25749749674e-06
1.7844250534e-06
3.02206064266e-06
3.24319902897e-09
1.32345413882e-06
2.03811428746e-06
5.2086870271e-06
4.01833577906e-08
1.01108158052e-06
1.25240769498e-06
1.65723820775e-06
1.53077585529e-06
2.3804898843e-06
2.35840222822e-06
1.52524501111e-06
8.998982951e-07
5.97635908956e-07
5.43630113796e-07
1.76347302867e-07
5.09443885189e-07
1.23923366184e-07
5.17369317743e-07
6.66319026134e-06
9.37774862389e-06
1.40906671909e-05
2.70580554274e-06
6.05525497104e-07
1.63621378578e-06
2.21369797118e-06
3.91803882158e-07
1.03346712167e-07
9.56138091641e-07
5.63901533632e-07
3.93317895492e-07
7.35204473194e-08
1.72710109612e-07
7.11691377785e-07
8.9694780638e-08
1.42485800345e-07
1.45846155756e-06
1.99256959413e-06
1.02730124949e-06
2.21011895424e-07
1.96724138647e-06
2.53181934507e-06
4.96165995684e-06
4.04812537798e-06
1.54304964467e-06
2.76202879337e-06
2.9744608883e-06
2.79403171782e-06
2.46755910093e-06
2.92053148706e-06
2.57132392022e-06
2.38058183234e-06
4.12277948653e-06
2.53934787959e-06
2.64721540783e-06
1.5362767238e-06
1.9726875074e-06
1.73959388379e-06
1.06571615973e-06
3.11247445754e-06
4.25918456494e-07
5.66959103655e-07
8.74373936409e-07
8.82376599587e-07
1.85082162421e-06
1.79292720458e-06
1.29997714633e-06
7.17159044652e-07
5.47861579557e-06
5.69796614435e-06
3.50289131467e-06
4.62299753322e-06
1.07727842502e-05
1.60474023776e-05
2.73649204876e-06
3.31128602795e-06
7.61560122885e-06
8.2933237785e-06
4.53673255817e-06
1.54940195012e-06
3.32619584386e-06
5.46087509974e-06
7.27885496612e-06
5.6622590642e-06
1.03188385685e-05
8.22535033138e-06
2.34407549069e-06
1.45192138302e-06
2.32183438042e-06
9.13967581601e-06
6.26570587473e-06
8.31597798229e-06
1.22808138482e-05
2.27429004129e-05
1.17574872637e-06
7.93283471443e-07
6.13492621959e-07
7.94772895663e-07
1.04264873254e-06
8.84872638525e-07
1.75188384863e-05
2.24726414699e-05
1.39533279058e-05
1.32263182294e-05
1.11623149587e-05
4.13534239949e-06
1.24896600952e-05
1.00816448054e-05
3.5455475863e-06
1.95940667389e-06
4.26088450336e-07
1.58509601967e-06
1.8945523614e-06
1.37929738886e-06
9.64681926495e-07
7.04346334631e-06
1.0655860159e-05
1.71136076694e-05
7.95127820765e-06
1.47196663681e-05
1.46126530496e-05
1.02924539316e-05
3.49997877351e-06
3.12708692005e-06
6.59873756381e-06
8.61682764825e-06
1.03538761328e-05
8.57106735881e-06
6.81831206674e-06
5.21714574444e-06
7.96699120018e-06
1.08196297157e-05
1.77249998236e-05
1.72114340484e-05
1.48979227926e-05
8.09566838322e-06
5.65048922268e-06
6.79322384162e-06
1.03817045495e-05
1.14232688813e-05
4.85129896321e-06
2.83121156613e-06
2.61042454107e-06
5.33166185134e-06
5.13858956039e-06
5.41577357552e-06
4.49006614167e-06
1.29339869169e-05
9.60666233058e-06
5.99863328038e-06
7.9664989294e-06
4.87221861011e-06
2.27696829394e-06
4.26598308145e-07
7.92893858704e-07
4.63951507223e-06
4.87451123368e-06
1.77054096998e-06
1.31945481289e-06
3.67239563701e-06
3.0503761384e-06
1.21551337425e-06
7.89586042013e-07
1.72726632469e-06
2.03865533719e-06
2.56609662449e-06
2.77484847575e-06
2.72383902597e-06
2.43224659524e-06
2.12268022125e-06
8.18306010213e-08
1.51835232205e-06
8.10427748244e-07
6.69709588321e-07
3.54875620381e-06
3.83189380748e-06
4.60748500069e-06
3.25671506563e-06
1.4799143522e-07
1.11879516261e-06
2.53574390002e-06
2.86998073562e-06
2.5851264583e-06
2.5511385345e-06
9.19727368133e-07
8.08779946456e-07
6.18734676264e-07
8.52306199773e-07
1.89533224908e-06
3.06186150672e-06
3.42695972503e-06
1.2078769956e-06
1.81922288707e-06
1.31502530695e-06
3.0401097836e-06
3.06673105105e-05
2.42232648714e-05
4.11212917515e-05
3.85542211993e-05
4.15322579025e-05
4.28348831263e-05
9.45897242708e-06
4.75873204234e-05
0.000119431933731
8.22925100484e-05
7.8894382061e-05
0.000128766127765
0.000140184053371
0.000137801473223
0.000138080418569
6.23986256819e-05
5.65514292049e-05
0.000135776697511
0.000163447401315
6.96129524473e-05
6.12471085057e-05
6.57701424601e-05
9.54410386593e-05
7.95238037285e-05
1.21155500725e-05
1.71305564936e-05
5.73413858903e-05
1.53322554496e-05
5.72630185171e-06
2.94338500037e-05
2.68867085759e-05
1.0392041107e-05
1.22879212957e-05
4.00185024609e-06
2.36763161706e-07
2.88386124588e-07
1.02618552033e-06
8.78631820552e-07
4.11553264746e-06
8.60933690755e-06
8.23928705427e-06
7.76677555584e-06
8.99049950022e-06
5.45632699898e-06
7.96238788913e-06
1.97083362781e-05
1.27411128282e-05
1.71763346298e-05
1.80035901868e-05
2.21703667755e-05
1.37547799032e-05
1.25576979145e-05
1.62613503054e-05
2.15965818785e-05
5.24737301171e-06
3.15763486012e-06
1.11952739985e-05
3.29841375496e-06
4.19937606039e-06
3.80389905154e-06
3.80973887876e-06
2.44291128773e-05
1.29845525464e-05
6.42959671063e-07
5.43951799111e-07
1.55953976205e-05
5.87216647615e-06
6.4264700098e-06
5.5273019309e-07
1.70951661357e-05
2.42677381008e-05
4.62920534615e-05
4.41494189697e-05
2.97901828957e-05
1.98069314409e-05
1.42841346528e-06
3.43961335806e-06
1.47445567289e-06
5.28122328216e-06
2.87454865689e-06
2.6103058372e-06
2.68136356402e-06
9.87849019977e-07
2.31447981245e-06
1.80213803606e-06
1.76585169239e-06
2.84593958829e-06
6.18473100702e-06
1.29897168255e-06
4.83912656444e-06
1.14708703184e-05
9.45828721283e-09
3.56720677116e-06
9.98800804087e-06
8.36273816384e-06
4.81470142642e-06
1.46653138122e-05
5.74087077598e-06
1.02449071391e-06
5.35270283087e-06
3.95075748609e-06
6.31774042423e-06
9.93563435975e-06
7.1742818731e-06
5.34717428777e-06
1.68615604519e-06
4.86850928208e-07
8.40561080883e-08
9.15751560537e-08
2.8152211004e-07
1.40170948927e-07
2.03481753899e-06
4.27830268296e-06
2.99584825433e-07
2.61481769853e-07
1.98075061595e-06
3.73821951434e-06
1.07587984394e-07
1.37954319126e-06
1.6848304485e-06
8.89766852461e-07
1.10726887492e-06
6.31483923886e-07
1.83331287959e-07
1.86572304165e-06
8.51553558198e-07
6.70682600271e-07
7.97551245932e-07
9.29228073746e-07
1.04987891665e-06
1.9417397966e-06
1.70483023011e-06
4.10202466232e-07
2.36665027862e-07
5.56663259769e-07
2.30693955367e-07
1.91357193663e-06
5.52029300853e-07
2.32884811006e-06
2.8833650558e-06
8.89948632764e-08
1.94303053045e-07
9.19062287263e-09
5.13962651896e-07
1.93551391918e-06
4.55128605067e-06
4.91296290656e-06
3.01983514017e-06
1.37294515704e-06
2.12865844433e-06
4.04048788756e-06
1.70099544786e-06
2.231641978e-06
3.25229560496e-06
2.05655995505e-06
1.49946040076e-06
5.84021282187e-07
6.10767718303e-07
9.35138866142e-07
1.4879700649e-06
6.95987443848e-06
4.68989881374e-06
3.94119041499e-06
2.76226014215e-06
5.42786289214e-06
2.51384646507e-06
1.84944766923e-06
5.55404258951e-08
5.73221442367e-06
1.17046226638e-05
5.28490972292e-06
4.19529163244e-06
3.66052182503e-06
1.72123098508e-06
1.88121060813e-06
3.60667758204e-06
3.06683559249e-06
1.59813316546e-06
2.77913623434e-06
9.04056637029e-06
7.68059433229e-06
4.94243165517e-06
3.66862822245e-06
4.25635630543e-06
4.3882743286e-06
3.64261443905e-06
1.28616152418e-06
1.23603021495e-06
4.84269197535e-06
7.02805487032e-06
1.55706413441e-06
6.09037124775e-08
7.71899038003e-07
1.68896823568e-06
8.560512262e-07
2.31536734572e-06
3.77208610136e-07
2.07171658549e-05
2.34106056294e-05
1.39907769256e-05
5.17326202942e-06
1.79161788424e-05
1.44873369969e-05
1.16575776271e-05
2.54033721442e-05
2.28567657548e-05
1.97783794218e-05
1.33472260068e-05
4.89646797502e-06
4.67816926791e-06
8.37265350145e-06
4.23439907295e-06
5.04906831419e-06
5.41474256039e-06
4.87881859678e-06
5.83476458996e-06
9.04170300139e-06
7.8898275965e-06
7.76145828964e-06
1.36146079195e-05
6.5838658656e-06
8.09639553408e-06
1.56115721113e-06
5.86530502183e-06
1.08349344386e-05
1.16939554325e-05
5.72509838888e-06
4.50772514801e-06
5.2685579029e-06
1.59722356314e-06
3.16919139662e-06
5.49067356553e-06
2.59246086229e-07
1.50175627136e-07
7.06299551887e-08
1.2563130298e-08
2.85017395386e-07
4.54255204338e-07
2.7098822618e-07
1.69911464698e-07
1.95993351309e-07
1.17551055358e-07
1.21131915348e-07
1.43005757871e-07
3.30644662524e-07
2.11482449017e-07
5.50055972022e-08
6.83037223848e-09
2.48729997014e-08
1.92984301828e-07
1.96098318305e-07
8.07826794152e-08
1.59191083112e-07
2.47281152879e-09
4.74094190826e-07
6.65323432994e-07
1.42795646955e-07
3.18840586284e-06
2.94048398354e-06
1.99863788574e-06
3.75725946272e-07
1.29984413744e-06
3.07532847652e-07
1.71832066811e-07
2.13717107159e-07
2.11831256724e-07
5.34600775181e-07
9.84338081495e-07
9.06145278767e-07
2.33160028681e-07
2.70740199354e-07
1.3536412989e-07
9.79156510197e-07
1.942373763e-08
3.19217057579e-07
9.64415264595e-07
1.59865555423e-08
6.64525391245e-07
4.00098457402e-07
1.17242043612e-06
4.77013334399e-07
6.11757088568e-07
5.78981123035e-07
1.4289845489e-06
3.1955952092e-06
1.52135679649e-06
5.14318020579e-07
2.17648183123e-08
2.43803202295e-06
3.17569745624e-06
1.52771165924e-06
3.41826882507e-06
1.22083322451e-06
2.56525228084e-06
3.40988977454e-06
2.1264552833e-06
4.91177539894e-06
1.28375901705e-06
5.71012048277e-06
6.04558485456e-09
4.77159461562e-08
5.00669830298e-08
2.05663242157e-07
1.64837680324e-06
1.55389766692e-06
3.44300379543e-07
4.95720646591e-06
3.61971622432e-06
4.75015428088e-06
1.04129373917e-07
4.07830199795e-06
5.4425029072e-06
8.46193161519e-07
5.16941745737e-07
1.20503397018e-07
8.69872868551e-07
1.2869961286e-07
1.07219524097e-07
1.849286168e-07
4.7972837905e-06
4.69103180614e-07
4.90459160608e-08
5.56710920723e-08
1.2511357465e-07
2.33027602122e-07
5.74405629804e-08
1.421936284e-07
7.83841664624e-08
1.01467930404e-07
1.27288037222e-07
2.30812973126e-07
9.89056850696e-08
1.5647258841e-06
1.11850068956e-05
5.78985291671e-06
4.88040304314e-07
3.78771151056e-06
3.07245816977e-06
5.47939720249e-06
2.00349461599e-06
3.00038183504e-06
7.87069066446e-07
2.1671954478e-07
4.29236070474e-07
1.69325047764e-07
1.95603595238e-07
6.26270346059e-06
5.62869643456e-06
8.97253940745e-06
1.09403509969e-07
9.28663273785e-07
1.02186908818e-05
1.32227997751e-05
1.0339476228e-05
1.68008781063e-06
1.56859941271e-06
3.80105158991e-06
1.87620314478e-06
6.54356332615e-06
1.55692748418e-05
2.73364217348e-07
7.62660812498e-08
1.08802763141e-07
1.08414545736e-07
2.569103007e-07
2.03276747628e-07
7.43259289995e-08
1.07525868025e-07
8.00999073799e-07
2.61993008832e-06
1.51059251597e-06
4.04549436657e-06
3.15533097765e-06
2.06225118302e-06
4.93842730733e-06
8.57538915999e-06
4.94786349031e-06
1.5950848052e-05
2.86460942996e-06
3.93009988784e-06
1.4532895607e-06
7.79363559623e-06
3.40007223131e-06
1.03736697829e-07
3.44058344264e-08
5.75268512273e-07
1.44960584663e-06
2.2474075598e-08
1.01036891681e-05
5.60752436434e-06
6.20401896156e-06
1.56039725768e-05
6.05421813116e-06
4.78999261424e-07
3.15626335854e-06
2.67987064356e-06
4.438825018e-06
9.77210480558e-07
5.4557416273e-07
4.69568217637e-07
6.53310655695e-06
4.18813433343e-06
6.07510777174e-06
6.70469966655e-07
7.69319342937e-07
1.26806386927e-07
1.8625118949e-07
1.74491544152e-07
5.26764540809e-09
1.8362804574e-08
3.79910493969e-08
6.36833738338e-08
6.39730842519e-08
7.6369348165e-08
7.38898424688e-09
1.49804159389e-07
1.31733511245e-06
3.63154250183e-07
1.472430113e-06
4.56548254569e-07
9.28009425769e-07
1.33331571149e-07
6.38429486184e-07
3.71843512839e-07
9.27066339616e-07
1.29046209103e-06
2.20644369823e-07
3.25114707731e-06
1.24896397525e-06
7.21951380018e-06
2.22791541988e-05
1.11673349506e-05
5.61001776111e-06
6.82850293188e-07
7.36036800172e-07
4.51386460672e-06
1.93483440747e-05
1.77139803886e-05
4.21116605175e-06
1.00802499486e-06
1.6643572608e-06
4.56372433237e-06
2.80726121203e-06
4.03371837035e-08
3.98374001972e-06
2.38316776626e-07
1.52494413969e-06
3.11554145908e-06
2.16158839174e-07
6.27454176627e-08
3.78070516006e-07
8.04512363338e-07
1.05528892893e-06
8.37974261935e-07
4.82237010968e-07
2.81072761986e-07
1.3236888409e-06
8.78689668205e-07
7.57655885389e-07
3.73851983242e-07
3.13933029578e-07
5.11300718714e-07
1.27498287368e-06
8.41987304286e-07
6.06176026865e-07
2.90590318111e-07
1.78125209855e-07
5.41756980877e-07
8.35848536907e-07
1.06672504489e-06
4.89485271843e-07
5.907719086e-07
2.0450219376e-07
8.28073442714e-07
1.14309846002e-06
3.24110892295e-07
7.5441791144e-07
5.56768539185e-08
2.32759736156e-06
2.79742471416e-06
9.4981559671e-07
6.04008772411e-06
8.33231427153e-06
1.62822701102e-06
6.83889124713e-05
5.86498877096e-05
6.77574659284e-05
1.4272099266e-06
7.30457931136e-07
4.45640723905e-05
3.52319150617e-05
5.41691750234e-07
1.1931557661e-06
3.48024596195e-07
1.96796046287e-06
9.75885966194e-07
1.70775926673e-06
1.15514244736e-06
2.54885071154e-06
1.76517952914e-06
2.23551942619e-06
1.27866516619e-06
2.572114506e-06
2.20830763967e-06
7.55898126892e-07
2.20125910458e-06
7.76755955147e-07
1.33634093825e-06
2.61114785671e-05
9.45672365229e-07
1.88046583191e-06
4.19866431334e-06
2.75036211285e-06
7.8655570088e-06
4.25151080819e-06
1.34648327894e-07
1.71551563582e-06
7.85698418753e-06
5.23739535254e-06
6.09694248834e-06
5.82278613893e-06
8.17082310445e-06
7.83963800392e-06
3.77572273408e-07
2.05689423902e-05
9.78663433053e-06
4.02956310238e-06
2.38098014094e-05
1.00780060791e-05
5.9594608967e-05
8.55416993612e-05
7.99564901556e-06
3.58675663702e-05
1.24731605717e-05
4.70804784535e-07
5.06343189297e-07
1.46555718073e-07
1.63239354999e-06
4.58961073389e-06
6.62395604361e-06
9.69961716829e-08
1.95698031138e-06
1.61467349043e-06
2.4124276398e-07
9.87397820153e-08
8.9375432622e-07
1.24579247936e-06
8.36048912739e-06
6.61302833935e-06
2.40862325849e-06
2.64741241323e-07
2.42192523956e-07
7.4369283512e-08
8.69254372452e-07
4.02088714721e-06
8.23137235603e-06
7.64954303188e-06
5.71730451627e-06
3.6723797287e-06
1.30119154667e-06
3.79360378378e-06
2.71070813187e-06
3.8829431146e-07
6.95040306511e-08
3.88396761264e-06
8.55882170137e-06
1.71427423656e-06
2.51259605318e-08
1.68276129738e-06
3.10657685298e-06
1.1392821737e-06
5.38078807078e-09
1.03613162833e-07
5.65144938895e-08
9.56070879198e-08
3.83588685397e-08
4.43684405289e-08
5.67678057865e-08
1.17247595173e-08
1.93373625239e-06
1.07264345995e-06
9.83133998094e-09
2.02546716257e-07
6.89896903938e-07
9.46938668619e-07
2.26974845733e-07
1.0386534112e-07
8.63835178899e-08
1.17059825447e-08
1.71599930052e-08
1.99789105588e-07
3.91114449275e-07
3.68124817647e-06
1.5183719762e-05
9.51496259955e-06
3.31188506879e-06
4.48992549582e-06
8.52626065998e-06
1.77664019266e-06
1.52484808989e-06
1.22636066058e-07
2.49597318335e-08
5.95949754842e-08
7.51909943552e-08
8.44109617977e-07
1.23150757444e-06
1.32408072518e-06
1.24933301019e-06
2.61130502845e-07
7.41986136139e-07
1.24657020178e-06
3.26878714387e-07
2.63789000494e-07
3.9014506936e-08
9.86683780082e-09
1.07264296719e-07
2.33102199359e-06
2.08616267002e-07
2.19300399546e-07
5.32337308677e-08
4.78771335422e-08
1.93457813722e-08
4.14632874738e-08
8.19552468169e-08
2.8316659109e-07
6.47732941541e-07
3.84087682827e-07
2.58918384483e-06
1.47547888248e-06
2.75393385238e-08
3.10422345337e-08
2.94614543104e-08
1.08782201571e-07
2.99999092777e-07
5.18085948437e-07
1.36967334227e-06
2.88214194281e-06
6.94553691292e-06
1.14122657956e-05
2.37481592454e-05
7.79678211771e-06
1.78178305246e-06
1.04774941238e-06
1.54323703156e-06
1.7897719939e-06
5.12758278086e-06
6.16355320724e-06
3.49493320284e-06
7.97268097288e-06
5.68954820304e-06
1.17140295398e-05
3.70493886776e-06
8.9130128526e-06
2.0212706736e-05
2.19084929208e-05
7.8522171942e-06
1.34609617268e-06
4.99065727422e-07
4.80347049836e-08
5.03328728404e-08
2.46713217778e-07
6.913541215e-08
1.17417964143e-08
6.1228747993e-07
9.61539925891e-07
1.30344035496e-07
6.10638310726e-08
4.20901521393e-09
9.93766799278e-09
3.29430175681e-08
9.02060878465e-08
6.39587734846e-08
1.94922806957e-08
3.76368327799e-08
2.3642761401e-09
2.97739824287e-08
5.84816213805e-09
1.5554595343e-08
1.59119122229e-08
3.86169352113e-08
1.84114503318e-07
4.77001664151e-08
1.83115063771e-09
1.44069548322e-08
6.41969137312e-09
1.09837702206e-08
3.75199594185e-08
2.15908913268e-07
5.11985621715e-08
2.64554568887e-08
1.16882310358e-08
1.99087340999e-08
2.0173784356e-08
5.62598684163e-08
1.23772693867e-07
3.89897593162e-08
1.70878179831e-08
4.59312468553e-08
5.61047661803e-08
5.74761913152e-08
7.54994238471e-07
7.89233903186e-06
2.37730157008e-06
6.53546287236e-08
2.37532970269e-06
1.32171493193e-07
6.37418407274e-07
9.53866381402e-07
1.09586100211e-06
2.39135278842e-07
2.46543057325e-07
7.94646951836e-07
6.19997661492e-07
1.12378021553e-06
7.06305684826e-08
2.9433983899e-06
1.9753707386e-06
7.14400394747e-08
4.3886234374e-06
4.39040936586e-05
4.67872518531e-05
5.73824371115e-08
0.000131186842222
7.97668730611e-05
9.65730628928e-06
6.30887467672e-06
2.99917453558e-05
1.77626513232e-05
2.61028270211e-08
2.58148287689e-05
2.07239833685e-06
1.79208326505e-05
7.84366816379e-06
6.78489118567e-07
1.54921277004e-05
3.33374094772e-05
1.76131462351e-06

