# vtk DataFile Version 3.0
File Name: Molecule/arg/arg_4.0-4.vtk
ASCII
DATASET UNSTRUCTURED_GRID
FIELD FieldData 1
TIME 1 1 double
0.0
POINTS 758 double
-3.2938160896 0.21281073987 1.6120637655
-3.0538277626 -0.53421634436 1.3870373964
-3.0461535454 -0.048557713628 1.8663002253
-3.4273736477 0.067378439009 1.1224089861
-2.8829810619 -0.57014000416 0.71976262331
-3.2632336617 -0.019565587863 0.483006984
-2.8319237232 -0.19203241169 0.29181602597
-2.616502285 -0.47476926446 0.26249936223
-2.5148873329 -0.073117032647 -0.34862139821
-2.625180006 -0.19257430732 0.043026544154
-2.984893322 0.083998836577 -0.0016807494685
-2.378559351 -0.40108031034 -0.072491392493
-2.2410645485 -0.41724994779 -0.85103726387
-2.2367839813 -0.41349461675 -0.51092237234
-2.4704778194 -0.045079495758 -0.77958840132
-2.7879526615 0.39970222116 -0.70941197872
-3.2153742313 0.54481816292 -0.27751106024
-2.4014225006 -0.25771412253 -1.1136102676
-2.608246088 0.14163041115 -1.3900130987
-2.7512018681 1.0190711021 -0.83507066965
-3.1839177608 1.2738794088 -0.42147395015
-2.5607135296 0.80187958479 -1.3944683075
-2.7759377956 1.6859434843 -0.53847515583
-2.3182222843 1.2128007412 -1.1977306604
-2.329059124 1.5089013577 -0.83997774124
-2.1941018105 1.1314057112 -1.6864746809
-2.4339289665 2.0141336918 -0.41395992041
-1.954349637 1.8010801077 -0.87119364738
-1.6949176788 1.820322752 -1.3010771275
-1.9475432634 1.5071545839 -1.4662925005
-1.9316476583 2.2330317497 -0.55791795254
-2.1503210068 2.5411291122 -0.082019984722
-2.6794595718 2.4033172131 0.048991847783
-1.6756368876 2.9104678631 -0.39015871286
-1.5438513756 2.5010926723 -0.89056819677
-2.4980611801 2.6398406029 0.62472498417
-1.8508789539 2.8133273125 0.35804221034
-1.4518324137 3.1701664925 0.17099148035
-2.7261986732 2.663433075 1.190490365
-2.1445083618 2.8729901314 1.1675323248
-2.3866667747 2.9224729538 1.5950841904
-1.857760191 3.3200497627 1.4499393702
-2.1896061897 3.3204042912 1.909088254
-2.7145531178 2.5794250965 1.8553756475
-3.1930186749 2.2804467678 1.4817035198
-2.5188546181 2.9852883816 2.318179369
-2.9129178524 2.3175978661 1.9538582563
-3.0825521946 2.016045332 2.110922575
-3.4279854298 1.7976723909 1.7613151073
-2.7857632637 2.4564750195 2.4375441074
-2.9720678329 2.0453517437 2.6072273254
-3.5642855167 1.2424060106 1.8329598904
-3.1628170013 1.690138936 2.3002276421
-3.256790638 1.1197552681 2.415443182
-3.1208617687 1.786005497 2.9539484978
-3.2523365021 1.1272203922 3.0127644539
-3.3301250935 0.65024811029 1.9241263866
-3.1394183636 0.67130893469 2.3452041149
-3.0942323208 0.65900200605 2.8370101452
-3.1077263355 0.33992499113 2.0680088997
-2.8979403973 0.0792908445 2.2722172737
-3.0167882442 0.43768340349 2.4570741653
-2.8879451752 0.29309377074 2.6653313637
-2.949357748 0.34483087063 3.1219172478
-2.825066328 -0.36127746105 2.1979138851
-2.958643198 -0.41821673512 1.8446344137
-2.3518271446 -0.33554193377 2.9394414425
-2.6913671494 -0.072795718908 2.7046546936
-2.5165820122 -0.66536784172 2.488502264
-2.6055657864 -0.031699687243 3.3873577118
-2.1987042427 -0.7025411725 2.8894209862
-2.1805250645 -1.0194476843 2.7041254044
-2.0273737907 -1.3815475702 2.679213047
-2.4252874851 -1.1490936279 2.2468554974
-1.9616570473 -1.5719395876 2.2364273071
-2.3031029701 -1.4217550755 1.8291580677
-1.9307820797 -1.598878026 3.1426677704
-1.7298350334 -1.9622508287 2.7695930004
-1.9395234585 -1.6817808151 1.588506937
-1.5683255196 -1.8705048561 2.0959265232
-1.3816335201 -2.1983444691 2.4069263935
-1.2944883108 -1.8450392485 1.6599907875
-1.5526454449 -1.7413902283 1.2490478754
-1.0007872581 -2.232739687 2.0163650513
-1.9730279446 -1.6175967455 0.90847688913
-1.2608457804 -1.822111249 0.78093796968
-1.5892709494 -1.7528994083 0.42096024752
-1.0043691397 -2.2066876888 0.30467545986
-1.4589415789 -2.0388188362 -0.019819656387
-1.9592387676 -1.3771612644 0.10721240938
-2.3885650635 -1.2053388357 0.62406861782
-1.8259398937 -1.6469281912 -0.48214885592
-1.9992208481 -1.0481851101 -0.28306314349
-2.3349444866 -0.85562026501 0.21078965068
-1.9437513351 -1.1989613771 -0.74407309294
-2.1653158665 -0.67186635733 -0.22821117938
-2.0407865047 -0.78343188763 -0.66647148132
-1.9897111654 -0.95077621937 -1.1580765247
-1.8706092834 -1.4459116459 -1.1785874367
-2.2938697338 -0.44318211079 -1.4373457432
-2.1490342617 -0.60697776079 -1.0474193096
-1.9203108549 -0.8837878108 -1.6342642307
-2.1255402565 -0.49947977066 -1.9137986898
-1.6914532185 -1.2918980122 -1.7828937769
-2.007838726 -0.26477241516 -2.277973175
-1.771653533 -0.74976503849 -2.0479474068
-1.6456689835 -0.41578456759 -2.4567260742
-1.8895637989 0.15660734475 -2.5256652832
-1.3864966631 0.033685363829 -2.804059267
-1.5989522934 0.82956761122 -2.6755340099
-1.4979896545 0.36783364415 -2.7772393227
-2.0141003132 0.63937175274 -2.4190986156
-1.1572898626 0.43221563101 -3.1963636875
-1.3281669617 0.95446330309 -3.0439825058
-2.0324511528 1.0251796246 -2.1585884094
-1.6696947813 1.1557967663 -2.3764913082
-1.3880025148 1.3899891376 -2.6466341019
-1.6944377422 1.4289925098 -2.095549345
-1.1284337044 1.9988663197 -2.5167880058
-1.4573589563 1.8282823563 -1.7695757151
-1.407572031 2.1556301117 -1.3373538256
-1.6773842573 2.0652430058 -0.96472686529
-1.1396533251 2.6064500809 -1.3211593628
-1.0350635052 2.2368600368 -1.802215457
-0.66274243593 2.6844871044 -1.679346323
-0.87034714222 3.0832285881 -1.1750240326
-0.5412401557 2.4972529411 -2.36358881
-0.40986248851 2.9689497948 -1.4821320772
-0.12089717388 3.4634423256 -0.90016382933
0.28867608309 3.0154554844 -1.3691840172
0.48185494542 3.1323471069 -0.92635607719
-0.17005291581 2.9380815029 -1.9903702736
0.34750795364 3.0138039589 -1.9738391638
0.0076631940901 3.111543417 -2.5344295502
0.46999770403 3.1738476753 -2.4479846954
-0.050933953375 3.3325622082 -2.9957289696
0.19827055931 3.3897500038 -2.7033193111
0.81957745552 2.9265627861 -0.59292864799
0.9396173954 2.617470026 -0.99423062801
0.62944751978 2.8235528469 -1.3545299768
0.86953097582 2.6978881359 -1.8800590038
1.2679499388 2.4414072037 -1.530564189
1.0789872408 2.4330773354 -0.36500734091
1.2151333094 2.216224432 -0.89569604397
1.5496083498 2.0128474236 -1.1805971861
1.0650367737 2.5902493 0.19460786879
1.4072622061 2.021543026 0.006580254063
1.3426201344 2.2100377083 0.5208119154
0.79882949591 2.7952833176 0.63407164812
1.1469657421 2.280547142 1.0289940834
0.3732047081 3.1039850712 0.9434594512
0.69684094191 2.6042547226 1.0771205425
0.44375297427 2.7394583225 1.3862011433
0.80067062378 2.4453029633 1.5204945803
0.56554269791 2.6443893909 1.8774595261
0.83092224598 2.7360956669 2.4192585945
1.1210112572 2.4099724293 2.0389351845
0.075176291168 3.0116009712 1.6339650154
-0.242007792 3.3629007339 1.309893012
0.015452612191 3.4488201141 0.65187656879
-0.017885312438 3.253308773 2.1627817154
-0.35178571939 3.5827157497 1.9390324354
-0.61785519123 3.4921090603 0.97232872248
-0.47215393186 3.6326286793 0.41718187928
-0.81188809872 3.7396757603 1.6898518801
-1.0839697123 3.4385480881 0.50625050068
-1.2383487225 3.4386525154 1.1517478228
-1.450949192 3.6481666565 1.612565279
-1.5682939291 3.1175060272 0.86942738295
0.31716054678 2.909309864 2.2118227482
0.21083068848 3.1107375622 2.7702834606
-0.17962548137 3.5276722908 2.6381490231
0.64452648163 2.9003903866 2.9837212563
-0.33362856507 3.4129846096 3.2170000076
0.055812112987 3.0521206856 3.327028513
0.42262038589 2.8430509567 3.5822954178
-0.24594478309 2.9310147762 3.6728346348
-0.71422028542 3.2233352661 3.6248595715
-0.016570327803 2.6160154343 4.0495052338
-1.2699116468 3.2009243965 3.7428452969
-0.64786893129 2.8064086437 3.8910915852
-1.2616227865 2.7607302666 4.0365056992
-1.7539365292 2.8909745216 3.7942545414
-1.7566655874 3.1833913326 3.6109981537
-2.2356722355 2.9402914047 3.3810141087
-2.1183712482 3.2658457756 3.2908477783
-2.3783268929 3.1207969189 2.9050652981
-2.561242342 2.751023531 2.9765958786
-0.80143803358 2.4068994522 4.254758358
-0.28514817357 2.1890068054 4.4276070595
-0.92837923765 1.9776141644 4.447701931
-0.47816997766 1.6076943874 4.6396288872
-1.3803310394 2.328908205 4.3104128838
-1.4354834557 1.6435735226 4.5952367783
-1.8629117012 2.0276093483 4.4392328262
-1.8579566479 2.5437116623 4.035888195
-2.1913423538 2.2871410847 4.1535167694
-2.4263486862 2.529706955 3.5947892666
-2.6813964844 2.2393937111 3.8456709385
-2.8858833313 2.1509709358 3.4360342026
-2.8093855381 2.3504273891 2.9990968704
-0.95245724916 1.6034832001 4.5299515724
-0.94136029482 1.2361507416 4.6036524773
-1.4275149107 1.1321909428 4.6683459282
-0.41369110346 1.0360673666 4.7150435448
-1.6609927416 0.7012245059 4.6317329407
-0.91446572542 0.83496594429 4.6067771912
-0.88741564751 0.35788917542 4.6293802261
-0.38058108091 0.51114791632 4.859650135
-0.51980286837 0.011414444074 4.8459672928
-1.9963942766 0.22842246294 4.3921394348
-1.2784548998 0.12343859673 4.5212135315
-1.692908287 -0.21730822325 4.3436756134
-0.90444469452 -0.38125902414 4.7738308907
-1.4316955805 -0.71342343092 4.568418026
-2.0753715038 -0.30555319786 3.9339253902
-2.4846434593 0.13964256644 4.0118865967
-1.8649976254 -0.84660601616 4.003361702
-2.1463816166 -0.51150906086 3.3858275414
-2.0037419796 -1.0976210833 3.4109194279
-0.37578743696 -0.67751830816 5.0650029182
0.025782115757 0.0026446185075 5.1521024704
0.30994477868 -0.63598418236 5.1444573402
0.12848900259 -1.1480221748 5.0874333382
0.33711603284 -1.6276477575 4.9646658897
0.61413323879 -1.0487090349 5.0679001808
0.86781001091 -1.5331044197 4.9113130569
0.96115708351 -0.77368432283 5.2594799995
1.2181606293 -1.2402387857 5.1520786285
0.59050524235 -2.0998780727 4.6268401146
1.0730673075 -1.8790524006 4.6199555397
1.5406548977 -1.7037866116 4.8213620186
0.82806009054 -2.3556630611 4.2176733017
1.2371058464 -2.1233887672 4.2123913765
1.5636854172 -2.0085935593 4.4065546989
1.0362409353 -2.4838278294 3.6236104965
1.4668107033 -2.2152559757 3.6999104023
0.99191826582 -2.5285601616 3.0746679306
1.4245578051 -2.2091720104 3.1821908951
[...]
CELL_DATA 1512
SCALARS cell_data_0 double
LOOKUP_TABLE default
1.07678156516e-08
3.76919508895e-08
3.02235197696e-08
2.99219987282e-08
6.23884067661e-08
1.12408323469e-08
3.16943289913e-08
1.96152786305e-08
3.15226732711e-08
3.62250356671e-08
4.79080882193e-08
5.5974919715e-08
6.82369664565e-08
2.29845408043e-07
1.69178326474e-08
1.88495570288e-08
5.9174132323e-08
5.8667524018e-08
3.45661764468e-08
4.59684269281e-08
2.04629562002e-07
9.64638897558e-08
3.80394918697e-08
9.42059640457e-09
2.00562100569e-08
2.47018323213e-08
3.97479774054e-08
2.4409033858e-08
4.0080515928e-08
3.17194856876e-08
1.11649872716e-09
3.33552979673e-08
3.4655809871e-09
3.51961191875e-08
1.60628795972e-08
1.91894398286e-08
1.98306322323e-08
3.95119403728e-09
4.15703569961e-10
4.18660017866e-10
7.51216777371e-09
1.57255855542e-08
1.60403449235e-09
3.91255813541e-09
3.23961013447e-09
1.90213568262e-09
2.64430047126e-09
3.19054478544e-09
3.04752244877e-08
7.88592617578e-09
3.70939979868e-08
8.75344602231e-09
1.92754959494e-08
1.55283344876e-08
2.16664815848e-08
1.45410339314e-10
1.69657286881e-09
2.14951295986e-09
1.20293228027e-08
3.33854460436e-09
1.42703763991e-09
2.79816831733e-09
7.28000259402e-09
2.63144144744e-08
9.73590062574e-09
1.1255476375e-07
3.59199347473e-08
2.12391783223e-07
4.00984095741e-09
4.22922684568e-07
3.27417220931e-07
5.18362546642e-09
2.90651624845e-08
1.28901415589e-07
8.86044297042e-08
6.59405706871e-09
2.82817482427e-08
2.34384716564e-08
9.76918805144e-08
3.59993827859e-10
8.15359522146e-08
7.52494617229e-08
2.53133021932e-08
7.70578874544e-09
1.56765118905e-08
5.77448407675e-08
5.89624381724e-09
2.81437016444e-08
6.02994298936e-08
3.6134698647e-09
5.50886832425e-10
9.72655525185e-09
1.28686058569e-08
4.58991517676e-09
1.36507402297e-08
2.14309331472e-08
5.5230709052e-08
1.64265955199e-08
1.22602590875e-08
3.16113801203e-08
2.12056436696e-08
5.69299649247e-09
8.9055575805e-10
2.13275664707e-08
1.25583119176e-08
1.1905435591e-08
1.48895124281e-08
2.18791396353e-08
4.86411140521e-08
2.2391390799e-08
2.95815359443e-08
3.85740128539e-08
4.48304751106e-08
7.91374128344e-10
1.1349343167e-07
4.29993843591e-09
2.56534374543e-08
8.50213086865e-08
1.11218842911e-07
6.22372301641e-08
3.99836103192e-08
5.89906059117e-08
1.56494669278e-08
5.16859474844e-08
7.05417430445e-08
1.05519437153e-08
1.20453057262e-07
1.23030286994e-08
2.75626091664e-08
2.46877391014e-07
7.49278178568e-08
4.87102279343e-08
8.39750500155e-08
3.63051000933e-07
4.23272264799e-09
1.34981740541e-08
1.57984434112e-08
6.17769351226e-08
2.52557541192e-08
1.04063092252e-07
6.04216037089e-08
1.07406406929e-07
2.11615298016e-08
1.75659760518e-08
1.36958538382e-08
5.77286812028e-09
2.12189366782e-08
4.8916977019e-09
2.00203556947e-08
1.58015777308e-08
1.82540580688e-08
3.05251785285e-08
1.63733263635e-08
1.59237797801e-08
1.37578345067e-08
1.18898644271e-08
1.85738969752e-08
1.61399143211e-08
1.9546844703e-09
2.06938607819e-08
1.51061933362e-08
4.84970212613e-09
1.94368608537e-09
1.34709691084e-08
1.76020269533e-08
2.11792255913e-09
4.37707098234e-09
6.93724349417e-09
2.19254651958e-09
2.50105259125e-08
5.53003096476e-08
4.28070548839e-08
1.08777141147e-08
1.74009395672e-08
5.24214684448e-08
1.21694668097e-07
2.61086710371e-09
6.72737111055e-09
7.92435244571e-09
1.13443895779e-07
9.04059037295e-09
9.5760992721e-09
1.38633529524e-09
5.61221105915e-10
7.47643065188e-09
5.77998746561e-10
2.82094084188e-09
4.82467174432e-09
1.1571266064e-08
1.69933363568e-09
2.66543483838e-08
2.85201170585e-08
2.92893484007e-09
1.47211897701e-08
6.6576783832e-09
9.63579971569e-10
6.59503193272e-10
3.11463693856e-09
1.373712846e-08
7.43697552582e-09
1.26614387079e-08
1.24449703921e-08
5.25939734621e-09
6.44793414223e-10
5.88088863483e-09
4.55240418455e-09
2.46712841838e-09
2.81948670916e-08
1.64102732592e-08
1.50485280642e-09
8.56123963164e-09
1.75728297066e-08
7.75347297035e-09
2.7192776093e-08
9.38348775651e-09
1.03917291449e-08
1.99882374829e-08
4.45930065754e-08
1.15409979871e-07
1.26922456382e-07
5.63752639748e-08
2.30965353538e-07
4.31741745045e-08
7.04877063236e-09
5.98509070672e-09
2.19904950618e-08
1.97865010314e-08
1.09415907785e-08
2.51624275942e-08
4.69886013048e-10
1.69534289048e-08
8.20248406104e-09
2.19208525698e-08
1.3653782979e-07
3.95293043926e-08
7.90203270229e-08
1.41864591161e-07
3.40202962747e-07
1.16194673276e-07
7.41420453036e-08
1.60632962933e-07
1.23828981101e-07
1.39490641707e-07
3.27436024135e-09
8.9922041725e-08
3.90553364317e-08
7.0783551366e-08
5.31762478649e-08
3.83220480709e-08
7.19945946114e-09
1.22169964494e-08
1.07220547895e-07
8.45140789182e-08
6.8214386358e-08
1.41552765253e-07
3.24679146749e-08
2.81724301422e-07
1.17410868264e-07
9.90022587675e-08
5.41510934367e-09
1.75286154878e-07
3.43702502971e-08
1.86521358554e-07
1.58468894354e-07
2.48520838004e-09
7.00939799904e-08
3.66398962305e-09
5.64538856672e-08
5.25331640069e-08
2.18219681428e-08
5.11200851185e-08
2.11259412096e-08
8.75612012329e-08
7.26534445843e-08
8.17469238873e-08
7.23553278471e-08
2.67425843698e-07
1.71247413004e-08
8.62165625394e-09
2.25536363669e-08
1.3807768236e-08
7.39548366812e-08
6.59128224205e-09
2.96504457357e-08
1.21868491381e-07
1.9429404951e-08
1.24199224447e-08
2.19891686573e-08
4.82849420718e-08
5.49804943724e-08
1.64723764203e-07
9.82538194832e-08
1.40264091252e-07
1.04335760055e-07
3.70801391676e-08
1.60936161219e-07
3.80426176459e-09
1.1084406322e-07
6.17223060095e-08
6.11347408199e-08
2.7890566628e-09
3.19175754636e-08
1.27186459674e-08
3.13032853243e-08
1.10159497122e-08
6.12748443489e-08
1.79306694781e-08
9.82750758131e-08
2.24981928581e-08
4.94096883623e-08
8.29944499708e-08
1.33876815697e-07
2.61136048632e-08
5.96240642197e-08
1.30934939707e-07
9.55285169376e-08
3.21286820976e-08
5.03410692546e-08
1.78073611117e-08
1.98294214188e-08
2.83836121253e-08
5.24825397513e-08
6.18195995523e-08
6.02284956472e-08
3.03998912514e-09
3.70375345863e-08
3.16973452575e-08
1.26411376977e-08
1.08891779738e-07
1.55770912131e-07
3.05670379103e-07
3.76600999453e-08
2.8283723591e-07
6.98939735178e-08
5.55829729736e-07
3.41694463611e-08
3.27070253482e-09
1.18063738978e-07
2.97879932925e-08
7.26852379447e-09
5.96129184355e-07
1.14657711737e-07
3.93418356473e-08
3.66481497735e-09
9.46717624909e-08
4.76703986821e-08
1.1863635264e-07
4.17824183762e-08
1.68755329249e-08
3.58290141258e-08
1.25187838082e-07
5.80152846704e-08
1.17336843833e-08
2.84290514795e-08
3.3672548335e-08
9.46721145975e-08
3.29029079153e-08
4.95744535329e-08
2.46270934037e-07
7.53839024839e-08
1.34848647524e-07
5.8920434497e-07
5.87302215667e-07
1.92391585873e-07
1.55520994339e-07
1.05038805873e-07
2.38110391131e-08
1.59520258761e-08
7.87912460398e-09
1.67032812625e-08
1.44058214478e-08
3.70495146819e-09
1.66926854413e-08
2.37994108164e-09
1.44694894967e-08
1.8402138098e-08
8.9823316967e-09
6.65235879326e-08
1.47768739377e-08
1.02215298078e-08
1.33742060985e-08
2.2242428781e-08
1.17861433259e-08
6.70463746092e-08
1.72926959838e-08
3.64895931197e-08
6.8738152027e-09
4.73020185191e-08
3.03588259099e-08
5.02528171339e-09
1.39737212178e-07
1.79984136713e-08
1.08092134885e-07
6.09750481615e-08
5.39623790603e-08
6.57644794806e-08
2.03808418585e-07
2.58970789318e-07
8.32584522811e-08
1.22393994205e-08
5.28331142116e-07
1.6922389112e-07
1.22397080423e-08
1.78433678799e-07
4.00029725543e-08
4.10820267017e-08
5.317560606e-08
3.08276647981e-09
6.30812951209e-08
3.76371338356e-08
1.2416894799e-08
1.52257850988e-09
1.27946360899e-08
6.1701367106e-09
2.19097320175e-08
5.4384124267e-09
6.98965620513e-09
2.71314828503e-08
3.80647371907e-08
4.35431401694e-08
2.06723150728e-09
1.69241359135e-08
2.38620719712e-08
3.02427520326e-09
1.45865597904e-08
6.98545731976e-09
1.40705742174e-08
9.93354393727e-09
2.65209525484e-09
2.10752435383e-09
6.61027601002e-08
6.87914946586e-08
1.6457629206e-08
5.49882423892e-08
4.07673567882e-08
6.00946436652e-08
5.73962960638e-08
2.61694991103e-10
1.04513870078e-08
2.57683190676e-08
4.0073221885e-08
1.55842786384e-08
3.59872448813e-09
2.57727877973e-08
1.26321795234e-08
2.13896719549e-08
1.14693354399e-08
1.82701614613e-08
1.77187142929e-08
1.94805969739e-09
1.03982613149e-08
1.05678032543e-08
8.95775150454e-09
1.5770180483e-08
3.55277129037e-08
3.36365836417e-09
2.3435213299e-07
3.7290724539e-07
2.10320001463e-07
1.95180779995e-08
5.32390343331e-08
9.43275855385e-08
1.15804457861e-07
1.15524784215e-09
1.82721969111e-09
2.14578446161e-09
4.00959492418e-10
5.10893184782e-08
3.92561423542e-08
5.37106407143e-08
6.07034724309e-08
1.9474011329e-08
2.64630446537e-08
2.24265725983e-08
9.70178582178e-09
3.0029771078e-08
7.21144507733e-10
1.40249862658e-09
1.41789776795e-07
1.64664986427e-07
1.88334765335e-07
2.77132730321e-07
1.54214509768e-07
1.9977012731e-07
6.79989079664e-08
2.34418999253e-08
6.61680540371e-08
3.67601662898e-07
1.10748388114e-07
2.18862366581e-07
8.38794265012e-08
4.02870686939e-08
1.12502129272e-08
9.80875733364e-08
3.5806258188e-10
6.57145293354e-09
1.00114058565e-08
4.38227537024e-08
1.08761624354e-09
4.34324672446e-08
1.97943733659e-08
8.58777939336e-09
1.87032734529e-08
1.43656182697e-08
1.21151898042e-08
1.61460849638e-09
5.51213111904e-09
6.09196671224e-09
1.67764634751e-08
9.74457093051e-09
3.52240039914e-09
3.91810483046e-08
2.91611906612e-08
2.37958470191e-08
4.99544910574e-09
7.51314107052e-11
1.84267962053e-08
1.57917618208e-08
5.96446374643e-09
4.35466096492e-08
1.48765540082e-07
9.70039927279e-08
4.47430909175e-08
5.20742476725e-08
2.24004706684e-08
1.97546932915e-08
2.05656363011e-09
6.73423097628e-09
9.54553833714e-08
1.98070563356e-07
8.74163700241e-09
4.87257209929e-08
3.20558154566e-08
8.55230164606e-08
3.75027876305e-08
1.13634387246e-07
7.40887306768e-08
2.50513689992e-08
7.67961689456e-09
3.7046349598e-08
7.41890407098e-08
4.68285986081e-08
4.43156613864e-08
2.42425311944e-08
4.91439177674e-08
2.59484801979e-07
4.12037496778e-07
1.75101977948e-07
1.14499840734e-07
2.03875161127e-07
1.39025595532e-07
6.29072731941e-08
3.08475557706e-08
1.69699810387e-10
2.51548481961e-07
3.27467025465e-07
9.24780303558e-08
6.0927009759e-08
6.51699551899e-09
1.11910366543e-07
8.62308512386e-08
2.09716167729e-08
3.09189345879e-08
2.46406865757e-08
5.31649718631e-09
6.91708120502e-09
5.32647324763e-10
9.67834661945e-09
1.18083625171e-10
9.0999946821e-10
4.64385648715e-09
5.38489511963e-09
1.83854262251e-09
3.81447116355e-10
5.70598471229e-09
1.46709110184e-09
1.61894907004e-09
8.77718919517e-10
4.64989414644e-10
2.13981689847e-09
6.927844655e-10
8.83053481191e-11
1.33703048917e-09
6.23433057621e-10
1.09721076312e-08
2.43860972635e-09
6.95183723512e-09
2.63984507205e-09
5.33006471247e-09
7.31529124032e-10
3.07280695372e-09
5.27505769259e-09
2.36159270187e-09
1.05787899247e-09
8.90823297298e-10
1.49838869405e-08
4.20157240256e-11
6.47705836811e-09
2.28587660008e-08
1.28147800786e-08
3.96707979705e-08
1.08335247135e-08
2.92529549129e-10
5.81743947073e-09
1.80915156902e-08
1.76470927645e-08
6.86483616011e-09
3.63062563344e-09
1.02752645098e-08
2.88681821055e-09
9.40683923541e-10
2.44528289006e-08
1.38066197937e-08
4.4403786131e-10
4.55501343199e-09
2.79221290671e-08
1.63517472065e-08
2.36802220563e-08
7.28901663894e-09
3.68399517196e-09
6.22121473128e-09
1.96200937819e-08
1.81844929491e-08
2.33407305123e-08
3.40759735921e-08
2.65994640341e-08
4.24141358003e-08
2.01489506644e-09
3.07569276849e-08
1.5059826008e-08
1.35540291679e-08
1.70705744974e-08
2.54462256065e-08
7.6591368494e-09
2.19981854776e-09
2.46673176308e-08
1.70653043348e-07
1.53232388219e-07
4.32240009128e-08
6.09697900071e-08
1.05608497049e-09
2.8033970921e-08
7.49618639227e-08
3.01391620119e-08
1.53123495886e-07
8.08653040461e-08
5.97594775981e-08
4.63947114024e-09
8.28362763902e-08
2.49919321382e-09
1.23118094153e-08
2.17882495383e-08
4.20854477285e-08
8.72253244169e-09
7.53439320719e-09
9.82813749016e-09
2.10246803769e-09
1.40295166829e-08
1.19471054014e-08
2.11500530333e-09
4.1993179019e-09
1.31424831289e-08
1.6549063201e-08
1.04734561233e-08
7.12612375332e-09
2.63412822786e-09
5.33104384033e-09
1.15923195743e-08
6.19166199344e-09
2.87823045017e-09
5.63017176468e-08
7.38105263593e-08
2.75642147598e-08
1.33667441179e-08
1.41887149493e-08
9.17831018526e-08
1.37547026319e-08
1.17694157678e-08
1.50861937596e-08
3.69516713088e-08
1.21887685031e-08
3.39927584417e-08
8.29730983131e-08
2.07778386424e-09
3.50083332301e-09
1.71459062559e-09
2.52605142524e-09
6.61307615317e-11
1.97977682082e-09
4.46655446914e-10
6.29049251164e-09
2.25523515774e-09
3.29608662018e-09
3.4065494425e-09
2.06582616745e-09
8.5131438586e-10
4.28038337307e-09
1.91813301324e-09
2.47488023846e-08
6.62198882304e-09
4.6453734184e-09
3.23225645136e-09
1.31216128751e-09
3.87185208184e-09
1.67274729891e-10
9.49033579237e-10
7.902681169e-09
1.09932712854e-08
1.39581266146e-08
1.95683173846e-08
7.7680416818e-09
7.69803893079e-09
2.49461827343e-09
4.02253134135e-09
1.57946927196e-09
3.45538752614e-09
1.03694347421e-08
9.02277680534e-09
8.04988626379e-09
1.22947764786e-08
7.42632079057e-10
8.49601910605e-10
4.88150445005e-09
5.04528238981e-09
9.69646623471e-09
8.61454806181e-09
1.21346514495e-08
9.90191872049e-09
7.17382882178e-09
1.7010910926e-08
8.0514257589e-09
6.46594585006e-09
5.56246302566e-09
1.28145128505e-09
2.41476754989e-09
4.10567463962e-10
1.04230233482e-08
3.06817002718e-09
2.99298670782e-09
5.87719696284e-10
7.71094315055e-09
8.18563674278e-10
1.18886584735e-08
8.02379048295e-09
3.70986788433e-09
4.21813055318e-09
5.56209355941e-10
2.69205597397e-09
3.74666691716e-09
2.90457324967e-08
1.60779570264e-08
8.25983307923e-10
2.61301851672e-09
6.67111636715e-09
8.41091360738e-09
3.27664064982e-08
9.38159043968e-09
2.44562324219e-08
2.78892603291e-09
1.71948519064e-09
1.04924526352e-08
6.99122465644e-09
1.72929559124e-08
1.25773302724e-09
3.29290858005e-09
4.32358312271e-09
7.19862048292e-09
5.77051332128e-09
1.13151385412e-11
9.22027093539e-10
2.64274355675e-11
1.78081079408e-09
9.86397693382e-09
8.48828292117e-08
3.69796889894e-08
4.14827870253e-07
7.80843069014e-08
3.29599950493e-08
2.76742163058e-08
1.69198635661e-08
3.19048491223e-08
2.12800833919e-09
2.07124627132e-08
2.28650927008e-09
4.99524594117e-08
1.5280969869e-08
6.41929679941e-08
2.07281827207e-09
1.23560604452e-07
9.57487892207e-08
5.22591904406e-08
1.45838802184e-09
1.73879220188e-08
6.45906158066e-10
1.21911078502e-08
1.46965272541e-08
3.1747337587e-10
1.41212907148e-08
1.03451680701e-08
2.44490496546e-08
3.27514351299e-09
9.47914554179e-09
1.92959157179e-09
2.63638178211e-10
4.17046482428e-09
6.20933232396e-09
4.09929442677e-08
8.34225675543e-09
1.83829327464e-08
2.99627191981e-09
4.24031715162e-09
7.49650791531e-08
1.19370292175e-07
1.30257051171e-07
2.93251344227e-07
1.4583734732e-07
3.57169736714e-08
5.55503813352e-08
4.10517048723e-09
4.24208530148e-08
1.36778797869e-08
2.22050055807e-08
1.78074080944e-08
8.19461401328e-08
1.46412900589e-07
1.86476197411e-07
4.11062747059e-09
9.07578333818e-08
1.4417784905e-07
2.2400376468e-07
3.10685550602e-07
2.22746346014e-07
3.45314584558e-07
2.44980818108e-07
1.57962339812e-07
6.8725020788e-10
2.0384754322e-07
5.49471014285e-08
7.72304201555e-08
9.69675417064e-09
2.58585136125e-08
1.8416161203e-08
3.7539091895e-08
6.48416080475e-08
1.57197814835e-08
3.45396439356e-08
1.40876993423e-07
2.64130159805e-07
2.23925833656e-07
2.42817851455e-07
1.36116835576e-07
1.79272767789e-08
1.03697110515e-08
2.40289036541e-08
2.9533275659e-08
1.33578943578e-08
7.29395670446e-09
3.42432571134e-09
1.95234227619e-09
1.05141325841e-08
6.17475880125e-09
2.25450557539e-08
3.17861504435e-09
3.82697527761e-09
2.47353322092e-09
6.20189171864e-09
1.32072898013e-09
4.17753206155e-09
3.33089376574e-08
9.32619385606e-09
7.38165251937e-09
9.39151720906e-09
2.35083111352e-09
4.64515158054e-09
1.24646152237e-09
9.39608760474e-09
1.98687317075e-09
1.65729849137e-08
1.35548932046e-09
1.90344329009e-08
2.92785449022e-09
7.72778694665e-09
1.60169369918e-09
6.9993671526e-09
3.07909661252e-09
8.16593823735e-09
4.20051222865e-10
4.76571287866e-09
6.68195975744e-10
1.1026399043e-09
2.22470795474e-09
2.7070380102e-09
9.37465690393e-10
7.78949922313e-09
6.76174204143e-09
5.33908771457e-09
5.35919475425e-09
5.6230385228e-09
5.55629076071e-09
6.81279226603e-09
8.2488010346e-09
7.83677339358e-09
1.63892044143e-08
4.39303195523e-09
2.18986828934e-09
2.89697438495e-09
5.83109133007e-09
7.46430521184e-09
9.36081850768e-09
2.69889493655e-09
3.25457227562e-10
2.25381602742e-08
1.66310528916e-08
2.2497986141e-08
2.99368998461e-08
4.07144772757e-08
9.48034622102e-09
1.98169064421e-08
6.58085055438e-08
7.35346903106e-08
1.00761106693e-07
5.19221947698e-08
1.65366601296e-07
5.55285254717e-08
2.01792417961e-08
9.47444406856e-08
3.56964923261e-08
3.81244012729e-08
1.71010544868e-08
6.47715130703e-08
8.89872944726e-09
1.39443130628e-09
2.86882163043e-08
8.2520114075e-09
1.49096976817e-08
1.88860803021e-08
2.09644383141e-08
9.49047307544e-09
3.56166985383e-09
1.22630639476e-08
3.4858502685e-08
5.36595294493e-08
4.73102644943e-08
3.6815388279e-08
6.34275127887e-09
5.5750234807e-08
3.57984947718e-08
4.92309719088e-09
1.34503904546e-08
2.50024109447e-08
7.80106587419e-08
9.46253803173e-09
9.56872943559e-09
6.88373625622e-08
1.75947045721e-08
1.22664505538e-08
8.20896497156e-08
8.50481317099e-08
7.8728523937e-08
3.68538663776e-08
5.87117994984e-07
2.01793707767e-08
1.63164797726e-08
5.86318526384e-08
1.2469985862e-09
3.86422066988e-08
5.07666129868e-09
2.1783200635e-09
2.51545487699e-08
2.67072738684e-08
2.98518751808e-08
5.63183788978e-08
3.22485565831e-08
1.03831450692e-08
2.69666039914e-08
2.0914234655e-08
2.02737712484e-08
2.2934096472e-08
1.23293100734e-08
6.14369999601e-09
1.83827190798e-07
6.57791149477e-08
2.58950422217e-07
1.47476557117e-07
5.06281551337e-08
3.76659846133e-08
4.905152947e-09
1.189022452e-08
1.27242285637e-09
1.54846519196e-08
3.5714966834e-08
4.96946840753e-08
1.25846449029e-07
1.30284749937e-07
1.24352924399e-08
2.86027433344e-07
1.87618146618e-07
5.59257712235e-08
2.84692641038e-09
3.13461585007e-07
6.20968121599e-08
5.47735524577e-08
3.48261323473e-09
2.12617832072e-08
8.1180201337e-09
1.08833217385e-09
1.71725707074e-08
9.23529907901e-08
1.68474932159e-07
2.22369115249e-07
1.29486840552e-07
2.7176221171e-08
1.52180459995e-08
7.74960169636e-10
1.82131669025e-08
2.33643011168e-08
3.57074532718e-08
1.75108989286e-08
3.67118072503e-09
1.21599544928e-08
1.15698908395e-08
9.82311646945e-09
2.41737973652e-08
1.1434438662e-07
7.18980130504e-08
1.50911014928e-08
4.33344919564e-09
4.85561358644e-09
3.37541331972e-08
1.93064481273e-10
3.41561810075e-08
9.22945734938e-09
1.36394218174e-08
1.35384797414e-08
4.17058944018e-08
3.05799636233e-08
3.82643442105e-08
1.11668479311e-07
1.21632902916e-07
1.12800423646e-07
2.9865203679e-07
5.59516817494e-07
1.84290985268e-07
7.8849721753e-08
2.26335025003e-08
1.61383130641e-08
1.26409792186e-08
1.71684637183e-08
4.39275919735e-08
1.06659277826e-07
1.97715279581e-07
2.47450524349e-07
4.44360072449e-08
1.01585583853e-07
5.75192172989e-08
1.48096749808e-08
6.73831870403e-09
1.11500690724e-08
1.21887962768e-08
8.14388004047e-08
1.46742030119e-08
4.92882169718e-08
3.22291197674e-09
3.16620765813e-07
5.58761611288e-07
4.31737047788e-09
1.99934794169e-07
1.24257460759e-07
2.63867946377e-08
2.68982786762e-08
3.27163901623e-08
9.80704307389e-09
1.13443314681e-09
4.59911024638e-09
9.82218507469e-10
1.32098162116e-08
3.63963187593e-08
2.21531282944e-08
1.33999316942e-07
1.99737635435e-07
2.16273574075e-08
1.93749312671e-07
4.85810776684e-07
3.77002477372e-07
5.79061025837e-08
2.88109761494e-08
2.26731589564e-08
1.51017299001e-08
8.11872083007e-09
3.45619253419e-09
6.95057629176e-08
1.55613930986e-08
1.77886376212e-08
1.03032382473e-08
1.64369053078e-09
1.39801372939e-09
1.67956223727e-08
2.41423491267e-08
5.22093902083e-08
2.22502045167e-07
3.78121355999e-08
2.4910758919e-07
1.94831188903e-08
1.00787342369e-08
5.23484600558e-09
4.42881816051e-09
8.78943034664e-09
1.12132311095e-08
1.00537965457e-08
9.57787680266e-08
8.98969463255e-08
7.50672877646e-08
3.24159275111e-07