# vtk DataFile Version 3.0
File Name: Molecule/sphere_dip_12/sphere_dip_12_0-s2.vtk
ASCII
DATASET UNSTRUCTURED_GRID
FIELD FieldData 1
TIME 1 1 double
0.0
POINTS 162 double
0.850650808352 -0.525731112119 0.0
0.862668480416 -0.433888564553 -0.259891913008
0.961938357784 -0.273266528913 0.0
0.951056516295 -0.162459848116 -0.26286555606
0.809016994375 -0.309016994375 -0.5
1.0 0.0 0.0
0.850650808352 0.0 -0.525731112119
0.951056516295 0.162459848116 -0.26286555606
0.809016994375 0.309016994375 -0.5
0.69378047756 -0.16062203564 -0.702046444776
0.69378047756 0.16062203564 -0.702046444776
0.525731112119 0.0 -0.850650808352
0.961938357784 0.273266528913 0.0
0.862668480416 0.433888564553 -0.259891913008
0.850650808352 0.525731112119 0.0
0.702046444776 0.69378047756 -0.16062203564
0.688190960236 0.587785252292 -0.425325404176
0.5 0.809016994375 -0.309016994375
0.587785252292 0.425325404176 -0.688190960236
0.425325404176 0.688190960236 -0.587785252292
0.309016994375 0.5 -0.809016994375
0.433888564553 0.259891913008 -0.862668480416
0.259891913008 0.862668480416 -0.433888564553
0.16062203564 0.702046444776 -0.69378047756
0.0 0.850650808352 -0.525731112119
0.702046444776 0.69378047756 0.16062203564
0.525731112119 0.850650808352 0.0
0.5 0.809016994375 0.309016994375
0.26286555606 0.951056516295 -0.162459848116
0.26286555606 0.951056516295 0.162459848116
0.0 1.0 0.0
0.0 0.961938357784 -0.273266528913
0.259891913008 0.862668480416 0.433888564553
0.0 0.961938357784 0.273266528913
0.0 0.850650808352 0.525731112119
-0.259891913008 0.862668480416 0.433888564553
-0.26286555606 0.951056516295 0.162459848116
-0.5 0.809016994375 0.309016994375
-0.26286555606 0.951056516295 -0.162459848116
-0.525731112119 0.850650808352 0.0
-0.5 0.809016994375 -0.309016994375
-0.259891913008 0.862668480416 -0.433888564553
-0.702046444776 0.69378047756 0.16062203564
-0.702046444776 0.69378047756 -0.16062203564
-0.850650808352 0.525731112119 0.0
-0.16062203564 0.702046444776 0.69378047756
-0.425325404176 0.688190960236 0.587785252292
-0.309016994375 0.5 0.809016994375
-0.688190960236 0.587785252292 0.425325404176
-0.587785252292 0.425325404176 0.688190960236
-0.809016994375 0.309016994375 0.5
-0.862668480416 0.433888564553 0.259891913008
-0.433888564553 0.259891913008 0.862668480416
-0.69378047756 0.16062203564 0.702046444776
-0.525731112119 0.0 0.850650808352
0.16062203564 0.702046444776 0.69378047756
0.0 0.525731112119 0.850650808352
0.309016994375 0.5 0.809016994375
-0.162459848116 0.26286555606 0.951056516295
0.162459848116 0.26286555606 0.951056516295
0.0 0.0 1.0
-0.273266528913 0.0 0.961938357784
0.433888564553 0.259891913008 0.862668480416
0.273266528913 0.0 0.961938357784
0.525731112119 0.0 0.850650808352
-0.433888564553 -0.259891913008 0.862668480416
-0.162459848116 -0.26286555606 0.951056516295
-0.309016994375 -0.5 0.809016994375
0.0 -0.525731112119 0.850650808352
0.162459848116 -0.26286555606 0.951056516295
0.309016994375 -0.5 0.809016994375
-0.16062203564 -0.702046444776 0.69378047756
0.16062203564 -0.702046444776 0.69378047756
0.0 -0.850650808352 0.525731112119
0.433888564553 -0.259891913008 0.862668480416
0.69378047756 -0.16062203564 0.702046444776
0.587785252292 -0.425325404176 0.688190960236
0.809016994375 -0.309016994375 0.5
0.425325404176 -0.688190960236 0.587785252292
0.688190960236 -0.587785252292 0.425325404176
0.5 -0.809016994375 0.309016994375
0.259891913008 -0.862668480416 0.433888564553
0.862668480416 -0.433888564553 0.259891913008
0.702046444776 -0.69378047756 0.16062203564
0.433888564553 -0.259891913008 -0.862668480416
0.273266528913 0.0 -0.961938357784
0.162459848116 -0.26286555606 -0.951056516295
0.309016994375 -0.5 -0.809016994375
0.0 0.0 -1.0
0.0 -0.525731112119 -0.850650808352
-0.162459848116 -0.26286555606 -0.951056516295
-0.309016994375 -0.5 -0.809016994375
0.16062203564 -0.702046444776 -0.69378047756
-0.16062203564 -0.702046444776 -0.69378047756
0.0 -0.850650808352 -0.525731112119
-0.273266528913 0.0 -0.961938357784
-0.433888564553 -0.259891913008 -0.862668480416
-0.525731112119 0.0 -0.850650808352
0.951056516295 -0.162459848116 0.26286555606
0.951056516295 0.162459848116 0.26286555606
0.850650808352 0.0 0.525731112119
0.809016994375 0.309016994375 0.5
0.862668480416 0.433888564553 0.259891913008
0.69378047756 0.16062203564 0.702046444776
0.688190960236 0.587785252292 0.425325404176
0.425325404176 0.688190960236 0.587785252292
0.587785252292 0.425325404176 0.688190960236
-0.69378047756 -0.16062203564 -0.702046444776
-0.69378047756 0.16062203564 -0.702046444776
-0.850650808352 0.0 -0.525731112119
-0.809016994375 -0.309016994375 -0.5
-0.809016994375 0.309016994375 -0.5
-0.951056516295 -0.162459848116 -0.26286555606
-0.951056516295 0.162459848116 -0.26286555606
-1.0 0.0 0.0
-0.862668480416 -0.433888564553 -0.259891913008
-0.961938357784 -0.273266528913 0.0
-0.850650808352 -0.525731112119 0.0
-0.862668480416 0.433888564553 -0.259891913008
-0.961938357784 0.273266528913 0.0
-0.16062203564 0.702046444776 -0.69378047756
-0.425325404176 0.688190960236 -0.587785252292
-0.309016994375 0.5 -0.809016994375
-0.587785252292 0.425325404176 -0.688190960236
-0.688190960236 0.587785252292 -0.425325404176
-0.433888564553 0.259891913008 -0.862668480416
-0.702046444776 -0.69378047756 -0.16062203564
-0.702046444776 -0.69378047756 0.16062203564
-0.525731112119 -0.850650808352 0.0
-0.5 -0.809016994375 -0.309016994375
-0.5 -0.809016994375 0.309016994375
-0.26286555606 -0.951056516295 -0.162459848116
-0.26286555606 -0.951056516295 0.162459848116
0.0 -1.0 0.0
-0.259891913008 -0.862668480416 -0.433888564553
0.0 -0.961938357784 -0.273266528913
-0.259891913008 -0.862668480416 0.433888564553
0.0 -0.961938357784 0.273266528913
-0.862668480416 -0.433888564553 0.259891913008
-0.688190960236 -0.587785252292 0.425325404176
-0.809016994375 -0.309016994375 0.5
-0.425325404176 -0.688190960236 0.587785252292
-0.587785252292 -0.425325404176 0.688190960236
-0.69378047756 -0.16062203564 0.702046444776
-0.850650808352 0.0 0.525731112119
-0.951056516295 0.162459848116 0.26286555606
-0.951056516295 -0.162459848116 0.26286555606
-0.587785252292 -0.425325404176 -0.688190960236
-0.425325404176 -0.688190960236 -0.587785252292
-0.688190960236 -0.587785252292 -0.425325404176
0.259891913008 -0.862668480416 -0.433888564553
0.26286555606 -0.951056516295 -0.162459848116
0.5 -0.809016994375 -0.309016994375
0.525731112119 -0.850650808352 0.0
0.26286555606 -0.951056516295 0.162459848116
0.702046444776 -0.69378047756 -0.16062203564
0.587785252292 -0.425325404176 -0.688190960236
0.688190960236 -0.587785252292 -0.425325404176
0.425325404176 -0.688190960236 -0.587785252292
0.162459848116 0.26286555606 -0.951056516295
-0.162459848116 0.26286555606 -0.951056516295
0.0 0.525731112119 -0.850650808352

CELLS 320 1280
3 0 1 2
3 1 3 2
3 1 4 3
3 2 3 5
3 4 6 3
3 6 7 3
3 6 8 7
3 3 7 5
3 4 9 6
3 9 10 6
3 9 11 10
3 6 10 8
3 5 7 12
3 7 13 12
3 7 8 13
3 12 13 14
3 14 13 15
3 13 16 15
3 13 8 16
3 15 16 17
3 8 18 16
3 18 19 16
3 18 20 19
3 16 19 17
3 8 10 18
3 10 21 18
3 10 11 21
3 18 21 20
3 17 19 22
3 19 23 22
3 19 20 23
3 22 23 24
3 14 15 25
3 15 26 25
3 15 17 26
3 25 26 27
3 17 28 26
3 28 29 26
3 28 30 29
3 26 29 27
3 17 22 28
3 22 31 28
3 22 24 31
3 28 31 30
3 27 29 32
3 29 33 32
3 29 30 33
3 32 33 34
3 34 33 35
3 33 36 35
3 33 30 36
3 35 36 37
3 30 38 36
3 38 39 36
3 38 40 39
3 36 39 37
3 30 31 38
3 31 41 38
3 31 24 41
3 38 41 40
3 37 39 42
3 39 43 42
3 39 40 43
3 42 43 44
3 34 35 45
3 35 46 45
3 35 37 46
3 45 46 47
3 37 48 46
3 48 49 46
3 48 50 49
3 46 49 47
3 37 42 48
3 42 51 48
3 42 44 51
3 48 51 50
3 47 49 52
3 49 53 52
3 49 50 53
3 52 53 54
3 34 45 55
3 45 56 55
3 45 47 56
3 55 56 57
3 47 58 56
3 58 59 56
3 58 60 59
3 56 59 57
3 47 52 58
3 52 61 58
3 52 54 61
3 58 61 60
3 57 59 62
3 59 63 62
3 59 60 63
3 62 63 64
3 54 65 61
3 65 66 61
3 65 67 66
3 61 66 60
3 67 68 66
3 68 69 66
3 68 70 69
3 66 69 60
3 67 71 68
3 71 72 68
3 71 73 72
3 68 72 70
3 60 69 63
3 69 74 63
3 69 70 74
3 63 74 64
3 64 74 75
3 74 76 75
3 74 70 76
3 75 76 77
3 70 78 76
3 78 79 76
3 78 80 79
3 76 79 77
3 70 72 78
3 72 81 78
3 72 73 81
3 78 81 80
3 77 79 82
3 79 83 82
3 79 80 83
3 82 83 0
3 11 84 85
3 84 86 85
3 84 87 86
3 85 86 88
3 87 89 86
3 89 90 86
3 89 91 90
3 86 90 88
3 87 92 89
3 92 93 89
3 92 94 93
3 89 93 91
3 88 90 95
3 90 96 95
3 90 91 96
3 95 96 97
3 0 2 82
3 2 98 82
3 2 5 98
3 82 98 77
3 5 99 98
3 99 100 98
3 99 101 100
3 98 100 77
3 5 12 99
3 12 102 99
3 12 14 102
3 99 102 101
3 77 100 75
3 100 103 75
3 100 101 103
3 75 103 64
3 14 25 102
3 25 104 102
3 25 27 104
3 102 104 101
3 27 105 104
3 105 106 104
3 105 57 106
3 104 106 101
3 27 32 105
3 32 55 105
3 32 34 55
3 105 55 57
3 101 106 103
3 106 62 103
3 106 57 62
3 103 62 64
3 97 107 108
3 107 109 108
3 107 110 109
3 108 109 111
3 110 112 109
3 112 113 109
3 112 114 113
3 109 113 111
3 110 115 112
3 115 116 112
3 115 117 116
3 112 116 114
3 111 113 118
3 113 119 118
3 113 114 119
3 118 119 44
3 24 120 41
3 120 121 41
3 120 122 121
3 41 121 40
3 122 123 121
3 123 124 121
3 123 111 124
3 121 124 40
3 122 125 123
3 125 108 123
3 125 97 108
3 123 108 111
3 40 124 43
3 124 118 43
3 124 111 118
3 43 118 44
3 117 126 127
3 126 128 127
3 126 129 128
3 127 128 130
3 129 131 128
3 131 132 128
3 131 133 132
3 128 132 130
3 129 134 131
3 134 135 131
3 134 94 135
3 131 135 133
3 130 132 136
3 132 137 136
3 132 133 137
3 136 137 73
3 117 127 138
3 127 139 138
3 127 130 139
3 138 139 140
3 130 141 139
3 141 142 139
3 141 67 142
3 139 142 140
3 130 136 141
3 136 71 141
3 136 73 71
3 141 71 67
3 140 142 143
3 142 65 143
3 142 67 65
3 143 65 54
3 54 53 143
3 53 144 143
3 53 50 144
3 143 144 140
3 50 145 144
3 145 146 144
3 145 114 146
3 144 146 140
3 50 51 145
3 51 119 145
3 51 44 119
3 145 119 114
3 140 146 138
3 146 116 138
3 146 114 116
3 138 116 117
3 97 96 107
3 96 147 107
3 96 91 147
3 107 147 110
3 91 148 147
3 148 149 147
3 148 129 149
3 147 149 110
3 91 93 148
3 93 134 148
3 93 94 134
3 148 134 129
3 110 149 115
3 149 126 115
3 149 129 126
3 115 126 117
3 94 150 135
3 150 151 135
3 150 152 151
3 135 151 133
3 152 153 151
3 153 154 151
3 153 80 154
3 151 154 133
3 152 155 153
3 155 83 153
3 155 0 83
3 153 83 80
3 133 154 137
3 154 81 137
3 154 80 81
3 137 81 73
3 11 9 84
3 9 156 84
3 9 4 156
3 84 156 87
3 4 157 156
3 157 158 156
3 157 152 158
3 156 158 87
3 4 1 157
3 1 155 157
3 1 0 155
3 157 155 152
3 87 158 92
3 158 150 92
3 158 152 150
3 92 150 94
3 11 85 21
3 85 159 21
3 85 88 159
3 21 159 20
3 88 160 159
3 160 161 159
3 160 122 161
3 159 161 20
3 88 95 160
3 95 125 160
3 95 97 125
3 160 125 122
3 20 161 23
3 161 120 23
3 161 122 120
3 23 120 24

CELL_TYPES 320
5
5
5
5
5
5
5
5
5
5
5
5
5
5
5
5
5
5
5
5
5
5
5
5
5
5
5
5
5
5
5
5
5
5
5
5
5
5
5
5
5
5
5
5
5
5
5
5
5
5
5
5
5
5
5
5
5
5
5
5
5
5
5
5
5
5
5
5
5
5
5
5
5
5
5
5
5
5
5
5
5
5
5
5
5
5
5
5
5
5
5
5
5
5
5
5
5
5
5
5
5
5
5
5
5
5
5
5
5
5
5
5
5
5
5
5
5
5
5
5
5
5
5
5
5
5
5
5
5
5
5
5
5
5
5
5
5
5
5
5
5
5
5
5
5
5
5
5
5
5
5
5
5
5
5
5
5
5
5
5
5
5
5
5
5
5
5
5
5
5
5
5
5
5
5
5
5
5
5
5
5
5
5
5
5
5
5
5
5
5
5
5
5
5
5
5
5
5
5
5
5
5
5
5
5
5
5
5
5
5
5
5
5
5
5
5
5
5
5
5
5
5
5
5
5
5
5
5
5
5
5
5
5
5
5
5
5
5
5
5
5
5
5
5
5
5
5
5
5
5
5
5
5
5
5
5
5
5
5
5
5
5
5
5
5
5
5
5
5
5
5
5
5
5
5
5
5
5
5
5
5
5
5
5
5
5
5
5
5
5
5
5
5
5
5
5
5
5
5
5
5
5
5
5
5
5
5
5
5
5
5
5
5
5
5
5
5
5
5
5

CELL_DATA 320
SCALARS cell_data_0 double
LOOKUP_TABLE default
8.2666395448e-05
8.15045468863e-06
2.14839782912e-05
2.73724115439e-06
3.62405626203e-05
2.72783208496e-05
3.72110801706e-05
5.14170495785e-06
5.23621924359e-05
7.51417904383e-05
9.86479485877e-05
5.2983417927e-05
5.92946382722e-06
5.92969899779e-06
2.18409466606e-05
1.52313754642e-05
5.15127446051e-06
8.28175429913e-06
1.97500891614e-05
5.96861260469e-06
5.27889685047e-05
5.8017204604e-05
9.8861460924e-05
1.71051682246e-05
6.39197628762e-05
0.000109081930621
0.000115084024575
0.000114422663356
1.38702351426e-05
4.37490138344e-05
8.04682478706e-05
4.2949143072e-05
5.74994259391e-05
9.25841413205e-05
2.61421468186e-05
0.00011691670304
0.000129910651294
0.000260745085064
0.000246752013864
0.000141600167673
5.52054148158e-05
8.51838100018e-05
9.47437455754e-06
0.000145993732517
0.000125683085164
0.000153042175472
0.000138822117738
8.01450455494e-05
4.94268946659e-05
0.000108780205277
0.000135390105766
0.000117369468916
0.000138189389366
0.000104140957179
0.000125780076067
0.000134650876622
7.16288402887e-05
4.9623913181e-05
7.49048954587e-06
0.00011654355378
7.17689800331e-05
3.78794831751e-05
9.36997200108e-05
6.45605879864e-05
2.6124944372e-05
1.86609795772e-05
5.08563513424e-05
8.35045523621e-05
5.96034205264e-05
2.24939139022e-05
4.3147204871e-05
9.85714729145e-05
7.45143046127e-05
4.75756498321e-05
7.13236048603e-05
4.40741972925e-05
6.30019062808e-05
1.71799575001e-05
1.06359119017e-05
2.58718799838e-05
1.47356740042e-07
1.884684328e-05
6.05647285593e-05
4.31368728262e-06
2.53182298623e-05
6.71328784e-05
7.73328177429e-05
2.25897043985e-05
2.41131595521e-05
5.65537982658e-05
4.30886174393e-05
6.32200626403e-05
7.52787768198e-05
0.000223861653121
6.69746424031e-05
0.000292701343755
8.6980596721e-05
0.000178063668895
0.000211814900849
2.3695644809e-05
0.000380889727744
0.000610963660558
0.000430004496755
8.72141210768e-05
0.000569299150451
0.000849989842776
0.000307349303538
0.000384482256282
0.000212464180918
0.000321278009642
7.52023218959e-05
0.000204642819471
7.02835240242e-05
9.11808667321e-05
2.79695438561e-05
5.03899539689e-05
0.000254599654778
0.000548780839436
0.00048456530744
0.00014506763711
0.000308526867699
0.00057496211599
0.000193958727897
0.000397928957017
9.6377956039e-05
0.000101968918533
0.000106529180295
8.87560563862e-05
0.000152769736843
0.000178547766527
0.000137229599308
0.000195628640866
0.000175571052902
0.000225344625924
0.00018156840171
0.000232724157985
0.000111603446256
0.000109172713807
6.44559648246e-05
0.000113888657075
0.000237001988077
0.000215135356254
0.000152535013409
0.000162089492983
9.37684145214e-05
2.38586274702e-05
2.9505471314e-05
1.87502864087e-05
5.79410047425e-05
8.11594757412e-05
4.20558991867e-05
4.44943334486e-05
3.0351920229e-05
3.37355126957e-05
3.01147447645e-05
2.5067375816e-05
5.30616730801e-05
5.88024132877e-05
1.65723739357e-05
4.00389263413e-05
7.66790944869e-05
5.49815906998e-05
5.52922849958e-05
6.9578670768e-06
1.51503874665e-05
7.67696473257e-07
3.14025334903e-05
4.16962732459e-06
6.29201154081e-05
4.31248427033e-05
4.29962389236e-05
2.65951067675e-05
3.06611450393e-06
7.43965705478e-05
0.000112786125098
8.40506465441e-05
8.5064457014e-05
6.22905411763e-05
4.93027218585e-05
4.85090275253e-05
8.88372459619e-06
4.11268133231e-05
6.46437466608e-05
1.94061033168e-05
8.26415724573e-05
0.000190354748616
0.000195859202557
8.13748814868e-05
9.08136307437e-06
0.000150661657788
0.000128810383664
0.000181119333309
3.65545432914e-05
4.60839381142e-05
7.2686536344e-05
5.62621485803e-05
8.8577688823e-05
5.89336383661e-05
5.13856511852e-05
2.60735196436e-05
9.78388912632e-05
9.19407103264e-05
0.000107879799969
5.89794409971e-05
5.73477872319e-05
3.38952805266e-06
1.31137275563e-05
5.33079320238e-05
4.04373228155e-05
4.24217991632e-07
6.68524263806e-06
4.47008025324e-06
1.72387720983e-07
1.96186343988e-05
1.89752386261e-05
1.2584009789e-05
1.1037756596e-05
1.09313032367e-05
2.62530244217e-05
1.98616284457e-06
1.05471798761e-05
6.86788974288e-06
7.56790209764e-06
8.69568982616e-08
4.17671988279e-05
3.76631895591e-06
6.96395777998e-06
1.09633827958e-05
1.21246684903e-05
7.66284094618e-06
9.86718778928e-06
1.25490728421e-05
7.42351968133e-06
0.000203357899565
0.000182797556761
0.000173108053324
3.92071545061e-06
0.000169603248198
0.000147471776194
0.000131525820572
1.77858905373e-05
9.13122139661e-06
7.6306391138e-06
1.44068535741e-06
1.15691790761e-05
4.73413666094e-05
4.59508917525e-05
5.64530650132e-05
1.9526224325e-05
0.000114698616054
0.000182282823937
9.55704944251e-05
5.28946643062e-05
0.000100701101965
9.25827194099e-05
9.56462231605e-05
0.000104223872534
7.96025810372e-05
8.9738068678e-05
5.23929288959e-05
7.51758296075e-05
2.61883026953e-05
2.07217551097e-05
3.12849234879e-05
7.38984392875e-05
4.92102916938e-05
4.59310337132e-05
2.67284032964e-05
3.89426358997e-05
6.68203949403e-05
7.09183402444e-06
0.000122613173651
2.30742448367e-05
1.14015449212e-05
5.69322382861e-07
2.63561082509e-06
1.02009660054e-05
4.32988091218e-06
4.72209300207e-06
4.20230407296e-06
5.37253323997e-06
2.75670260342e-08
8.91402188852e-05
4.3752205674e-06
1.00683061487e-06
9.73183337919e-05
0.000100256425591
9.245924468e-05
0.000122667192451
9.89879808787e-05
4.36038101434e-05
0.000105040254753
1.82138227719e-05
1.39371124817e-06
7.4986365708e-06
6.70301958731e-05
1.90062480211e-05
5.96894193237e-06
7.78794958391e-05
5.66854920023e-06
7.341137172e-05
3.9728323126e-05
2.46252860966e-06
4.29916530221e-05
0.00016075670722
0.000234691189505
0.000295286728783
0.000135905539085
0.000307948860157
3.93723595658e-07
0.000103212448077
7.47769134746e-05
0.000285519468814
0.000207250749959
0.000166350119581
0.000148181427089
8.02573059593e-05
6.7854636334e-05
8.86035270476e-05
6.32311169467e-05

