# vtk DataFile Version 3.0
File Name: Molecule/sphere_excent/sphere_excent_0-s5.vtk
ASCII
DATASET UNSTRUCTURED_GRID
FIELD FieldData 1
TIME 1 1 double
0.0
POINTS 54 double
0.0 0.85065081 0.52573111
-0.5 0.80901699 0.30901699
-0.30901699 0.5 0.80901699
-0.80901699 0.30901699 0.5
-0.85065081 0.52573111 0.0
-0.52573111 0.0 0.85065081
0.30901699 0.5 0.80901699
0.0 0.0 1.0
0.52573111 0.0 0.85065081
-0.30901699 -0.5 0.80901699
0.30901699 -0.5 0.80901699
0.0 -0.85065081 0.52573111
0.80901699 -0.30901699 0.5
0.5 -0.80901699 0.30901699
0.85065081 -0.52573111 0.0
0.52573111 0.0 -0.85065081
0.30901699 -0.5 -0.80901699
0.0 0.0 -1.0
-0.30901699 -0.5 -0.80901699
0.0 -0.85065081 -0.52573111
-0.52573111 0.0 -0.85065081
1.0 0.0 0.0
0.80901699 0.30901699 0.5
0.85065081 0.52573111 0.0
0.5 0.80901699 0.30901699
-0.80901699 -0.30901699 -0.5
-0.80901699 0.30901699 -0.5
-1.0 0.0 0.0
-0.85065081 -0.52573111 0.0
0.0 0.85065081 -0.52573111
-0.30901699 0.5 -0.80901699
-0.5 0.80901699 -0.30901699
-0.5 -0.80901699 -0.30901699
-0.5 -0.80901699 0.30901699
0.0 -1.0 0.0
-0.80901699 -0.30901699 0.5
0.5 -0.80901699 -0.30901699
0.80901699 -0.30901699 -0.5
0.30901699 0.5 -0.80901699
0.0 1.0 0.0
-0.26286556 0.95105652 0.16245985
-0.26286556 0.95105652 -0.16245985
-0.52573111 0.85065081 0.0
0.5 0.80901699 -0.30901699
0.52573111 0.85065081 0.0
0.26286556 0.95105652 -0.16245985
0.26286556 0.95105652 0.16245985
0.80901699 0.30901699 -0.5
0.68819096 0.58778525 -0.4253254
0.58778525 0.4253254 -0.68819096
0.4253254 0.68819096 -0.58778525
0.95105652 -0.16245985 -0.26286556
0.85065081 0.0 -0.52573111
0.95105652 0.16245985 -0.26286556

CELLS 104 416
3 0 1 2
3 1 3 2
3 1 4 3
3 2 3 5
3 0 2 6
3 2 7 6
3 2 5 7
3 6 7 8
3 5 9 7
3 9 10 7
3 9 11 10
3 7 10 8
3 8 10 12
3 10 13 12
3 10 11 13
3 12 13 14
3 15 16 17
3 16 18 17
3 16 19 18
3 17 18 20
3 14 21 12
3 21 22 12
3 21 23 22
3 12 22 8
3 23 24 22
3 24 6 22
3 24 0 6
3 22 6 8
3 20 25 26
3 25 27 26
3 25 28 27
3 26 27 4
3 29 30 31
3 30 26 31
3 30 20 26
3 31 26 4
3 28 32 33
3 32 34 33
3 32 19 34
3 33 34 11
3 28 33 35
3 33 9 35
3 33 11 9
3 35 9 5
3 5 3 35
3 3 27 35
3 3 4 27
3 35 27 28
3 20 18 25
3 18 32 25
3 18 19 32
3 25 32 28
3 19 36 34
3 36 13 34
3 36 14 13
3 34 13 11
3 15 37 16
3 37 36 16
3 37 14 36
3 16 36 19
3 15 17 38
3 17 30 38
3 17 20 30
3 38 30 29
3 39 40 0
3 0 40 1
3 39 41 40
3 41 42 40
3 41 31 42
3 40 42 1
3 31 41 29
3 29 41 39
3 1 42 4
3 42 31 4
3 43 44 23
3 23 44 24
3 43 45 44
3 45 46 44
3 45 39 46
3 44 46 24
3 39 45 29
3 29 45 43
3 24 46 0
3 46 39 0
3 47 48 23
3 23 48 43
3 47 49 48
3 49 50 48
3 49 38 50
3 48 50 43
3 38 49 15
3 15 49 47
3 43 50 29
3 50 38 29
3 37 51 14
3 14 51 21
3 37 52 51
3 52 53 51
3 52 47 53
3 51 53 21
3 47 52 15
3 15 52 37
3 21 53 23
3 53 47 23

CELL_TYPES 104
5
5
5
5
5
5
5
5
5
5
5
5
5
5
5
5
5
5
5
5
5
5
5
5
5
5
5
5
5
5
5
5
5
5
5
5
5
5
5
5
5
5
5
5
5
5
5
5
5
5
5
5
5
5
5
5
5
5
5
5
5
5
5
5
5
5
5
5
5
5
5
5
5
5
5
5
5
5
5
5
5
5
5
5
5
5
5
5
5
5
5
5
5
5
5
5
5
5
5
5
5
5
5
5

CELL_DATA 104
SCALARS cell_data_0 double
LOOKUP_TABLE default
4.02595144695e-05
5.17456757613e-05
6.22201197519e-05
6.07612939077e-05
6.91486880315e-05
0.000156194073456
0.000196809341901
0.000129537672315
0.000196240742662
0.000131542905768
6.91866418706e-05
0.000119441925603
6.43539920555e-05
5.00248699589e-05
4.12968310276e-05
5.45044839734e-06
0.000521827858138
5.34663741657e-06
3.0145097817e-05
0.000114079249174
1.01276491922e-05
2.51181522514e-05
7.79890755061e-05
4.97420584258e-05
3.29403898053e-05
4.83322955473e-05
4.15104374649e-05
6.62936951388e-05
0.00015043691661
5.03747923344e-05
0.000154154173049
0.000138017222478
9.6361677486e-05
5.33537715657e-06
0.000128213735627
8.86724238827e-05
5.40147831637e-05
1.30317323324e-05
2.10417722835e-05
1.29852061873e-05
3.58015248963e-05
4.8239575364e-05
4.25827645607e-05
7.56276013486e-05
6.62516682025e-06
3.87907736151e-06
0.000131432599389
9.85097404417e-05
0.0001433852596
1.54024788207e-05
2.58769127531e-05
0.000108656130708
2.43926574106e-05
5.9829350719e-06
1.04820912708e-05
6.72174432618e-06
0.000620822909392
2.9888471712e-05
4.79231499328e-05
2.62895768472e-05
0.00051139080881
3.71159921636e-06
0.000113957794054
0.000106280011993
6.54782666631e-06
8.7059620314e-06
2.1547816718e-06
1.07109969202e-06
9.20758158589e-07
2.81764863683e-06
4.41045289647e-05
4.08267795836e-05
3.11101668166e-05
3.90454554512e-05
4.28562310568e-05
3.17164144651e-05
4.01701732861e-08
1.26832361102e-06
1.94514040734e-06
4.06723839674e-06
4.78838093837e-05
5.13728129781e-05
1.04267824873e-05
7.82610123324e-06
5.73655228758e-05
4.52088333002e-05
1.40360425461e-06
3.36029827033e-08
9.72767075981e-08
5.57579865429e-07
0.000260477290812
0.000275216641688
4.4977958228e-05
4.99957998241e-05
2.39620860093e-05
1.24030460799e-05
6.9252760948e-06
9.30903512883e-08
1.42207373614e-06
2.09676770748e-06
0.000275170913058
0.000314411969712
5.81516440405e-05
5.72048616636e-05

