# vtk DataFile Version 3.0
File Name: Molecule/sphere_excent/sphere_excent_0-s4.vtk
ASCII
DATASET UNSTRUCTURED_GRID
FIELD FieldData 1
TIME 1 1 double
0.0
POINTS 51 double
0.85065081 -0.52573111 0.0
0.80901699 -0.30901699 -0.5
1.0 0.0 0.0
0.80901699 0.30901699 -0.5
0.52573111 0.0 -0.85065081
0.85065081 0.52573111 0.0
0.0 0.85065081 0.52573111
-0.5 0.80901699 0.30901699
-0.30901699 0.5 0.80901699
-0.80901699 0.30901699 0.5
-0.85065081 0.52573111 0.0
-0.52573111 0.0 0.85065081
0.30901699 0.5 0.80901699
0.0 0.0 1.0
0.52573111 0.0 0.85065081
-0.30901699 -0.5 0.80901699
0.30901699 -0.5 0.80901699
0.0 -0.85065081 0.52573111
0.80901699 -0.30901699 0.5
0.5 -0.80901699 0.30901699
0.30901699 -0.5 -0.80901699
0.0 0.0 -1.0
-0.30901699 -0.5 -0.80901699
0.0 -0.85065081 -0.52573111
-0.52573111 0.0 -0.85065081
0.80901699 0.30901699 0.5
0.5 0.80901699 0.30901699
-0.80901699 -0.30901699 -0.5
-0.80901699 0.30901699 -0.5
-1.0 0.0 0.0
-0.85065081 -0.52573111 0.0
0.0 0.85065081 -0.52573111
-0.30901699 0.5 -0.80901699
-0.5 0.80901699 -0.30901699
-0.5 -0.80901699 -0.30901699
-0.5 -0.80901699 0.30901699
0.0 -1.0 0.0
-0.80901699 -0.30901699 0.5
0.5 -0.80901699 -0.30901699
0.30901699 0.5 -0.80901699
0.0 1.0 0.0
-0.26286556 0.95105652 0.16245985
-0.26286556 0.95105652 -0.16245985
-0.52573111 0.85065081 0.0
0.5 0.80901699 -0.30901699
0.52573111 0.85065081 0.0
0.26286556 0.95105652 -0.16245985
0.26286556 0.95105652 0.16245985
0.68819096 0.58778525 -0.4253254
0.58778525 0.4253254 -0.68819096
0.4253254 0.68819096 -0.58778525

CELLS 98 392
3 0 1 2
3 1 3 2
3 1 4 3
3 2 3 5
3 6 7 8
3 7 9 8
3 7 10 9
3 8 9 11
3 6 8 12
3 8 13 12
3 8 11 13
3 12 13 14
3 11 15 13
3 15 16 13
3 15 17 16
3 13 16 14
3 14 16 18
3 16 19 18
3 16 17 19
3 18 19 0
3 4 20 21
3 20 22 21
3 20 23 22
3 21 22 24
3 0 2 18
3 2 25 18
3 2 5 25
3 18 25 14
3 5 26 25
3 26 12 25
3 26 6 12
3 25 12 14
3 24 27 28
3 27 29 28
3 27 30 29
3 28 29 10
3 31 32 33
3 32 28 33
3 32 24 28
3 33 28 10
3 30 34 35
3 34 36 35
3 34 23 36
3 35 36 17
3 30 35 37
3 35 15 37
3 35 17 15
3 37 15 11
3 11 9 37
3 9 29 37
3 9 10 29
3 37 29 30
3 24 22 27
3 22 34 27
3 22 23 34
3 27 34 30
3 23 38 36
3 38 19 36
3 38 0 19
3 36 19 17
3 4 1 20
3 1 38 20
3 1 0 38
3 20 38 23
3 4 21 39
3 21 32 39
3 21 24 32
3 39 32 31
3 40 41 6
3 6 41 7
3 40 42 41
3 42 43 41
3 42 33 43
3 41 43 7
3 33 42 31
3 31 42 40
3 7 43 10
3 43 33 10
3 44 45 5
3 5 45 26
3 44 46 45
3 46 47 45
3 46 40 47
3 45 47 26
3 40 46 31
3 31 46 44
3 26 47 6
3 47 40 6
3 3 48 5
3 5 48 44
3 3 49 48
3 49 50 48
3 49 39 50
3 48 50 44
3 39 49 4
3 4 49 3
3 44 50 31
3 50 39 31

CELL_TYPES 98
5
5
5
5
5
5
5
5
5
5
5
5
5
5
5
5
5
5
5
5
5
5
5
5
5
5
5
5
5
5
5
5
5
5
5
5
5
5
5
5
5
5
5
5
5
5
5
5
5
5
5
5
5
5
5
5
5
5
5
5
5
5
5
5
5
5
5
5
5
5
5
5
5
5
5
5
5
5
5
5
5
5
5
5
5
5
5
5
5
5
5
5
5
5
5
5
5
5

CELL_DATA 98
SCALARS cell_data_0 double
LOOKUP_TABLE default
0.00107722491861
0.00133113473165
0.000344869221094
0.00107689012238
4.04876228521e-05
4.86557230276e-05
6.77113337747e-06
5.47010347221e-05
4.68276287577e-05
8.47655840627e-05
8.76410055778e-05
7.07860281993e-05
0.000135965141343
0.000171634341114
7.38891811249e-05
9.83510447598e-05
6.07097587556e-05
4.91644556854e-05
4.07096159569e-05
3.60317252357e-05
3.27233768141e-05
1.87877762277e-05
7.86831008213e-06
3.83663975508e-05
0.000615715224617
0.000318936199057
0.000577596377333
3.81049883024e-05
5.81558370869e-05
5.02420391774e-05
4.10255064681e-05
4.51516828808e-05
2.92889958297e-05
1.09493582619e-05
8.2720619689e-06
2.82318253231e-05
9.12863861778e-06
5.74179396437e-06
3.92263863119e-05
1.3900261398e-05
1.00002461469e-05
1.15056744375e-06
1.20207123534e-05
2.03467541549e-05
1.8389557992e-05
5.28451969444e-05
4.19662897592e-05
7.76872005899e-05
4.87660911181e-05
2.74509891939e-05
1.68089866288e-06
5.63876915591e-06
2.9063248765e-05
2.88852185532e-05
2.27328777285e-05
2.35293351078e-05
6.00246265528e-07
1.10907637376e-05
8.65392066739e-05
2.04247149291e-05
0.000152777319841
0.000155407898656
0.000291248672023
1.29481820788e-05
0.0001595900281
0.000170934260571
4.99195318767e-05
0.000137911056914
3.7579564894e-06
9.30881207221e-06
4.39197815584e-06
1.5421800457e-06
8.78834836672e-07
1.56614879283e-06
1.95480046533e-06
1.40118491385e-05
7.00565873239e-06
4.43862485611e-06
0.000125184619369
5.47655209697e-05
2.9436924942e-05
9.51158603661e-09
5.59018391038e-06
3.4597511446e-06
1.25033579383e-05
5.52509996919e-05
5.42882325696e-06
1.61636091921e-06
0.000137822987235
0.000124123079187
3.40692285215e-05
6.37898364033e-08
3.12851435485e-05
2.87974562578e-05
6.95361113637e-05
7.48664930644e-05
5.46321912684e-05
5.94992013724e-05

