# vtk DataFile Version 3.0
File Name: Molecule/sphere_excent/sphere_excent_0-s2.vtk
ASCII
DATASET UNSTRUCTURED_GRID
FIELD FieldData 1
TIME 1 1 double
0.0
POINTS 45 double
0.85065081 -0.52573111 0.0
0.80901699 -0.30901699 -0.5
1.0 0.0 0.0
0.80901699 0.30901699 -0.5
0.52573111 0.0 -0.85065081
0.85065081 0.52573111 0.0
0.5 0.80901699 -0.30901699
0.30901699 0.5 -0.80901699
0.0 0.85065081 -0.52573111
0.5 0.80901699 0.30901699
0.0 1.0 0.0
0.0 0.85065081 0.52573111
-0.5 0.80901699 0.30901699
-0.30901699 0.5 0.80901699
-0.80901699 0.30901699 0.5
-0.85065081 0.52573111 0.0
-0.52573111 0.0 0.85065081
0.30901699 0.5 0.80901699
0.0 0.0 1.0
0.52573111 0.0 0.85065081
-0.30901699 -0.5 0.80901699
0.30901699 -0.5 0.80901699
0.0 -0.85065081 0.52573111
0.80901699 -0.30901699 0.5
0.5 -0.80901699 0.30901699
0.30901699 -0.5 -0.80901699
0.0 0.0 -1.0
-0.30901699 -0.5 -0.80901699
0.0 -0.85065081 -0.52573111
-0.52573111 0.0 -0.85065081
0.80901699 0.30901699 0.5
-0.80901699 -0.30901699 -0.5
-0.80901699 0.30901699 -0.5
-1.0 0.0 0.0
-0.85065081 -0.52573111 0.0
-0.30901699 0.5 -0.80901699
-0.5 0.80901699 -0.30901699
-0.5 -0.80901699 -0.30901699
-0.5 -0.80901699 0.30901699
0.0 -1.0 0.0
-0.80901699 -0.30901699 0.5
0.5 -0.80901699 -0.30901699
-0.26286556 0.95105652 0.16245985
-0.26286556 0.95105652 -0.16245985
-0.52573111 0.85065081 0.0

CELLS 86 344
3 0 1 2
3 1 3 2
3 1 4 3
3 2 3 5
3 5 3 6
3 3 7 6
3 3 4 7
3 6 7 8
3 5 6 9
3 6 10 9
3 6 8 10
3 9 10 11
3 11 12 13
3 12 14 13
3 12 15 14
3 13 14 16
3 11 13 17
3 13 18 17
3 13 16 18
3 17 18 19
3 16 20 18
3 20 21 18
3 20 22 21
3 18 21 19
3 19 21 23
3 21 24 23
3 21 22 24
3 23 24 0
3 4 25 26
3 25 27 26
3 25 28 27
3 26 27 29
3 0 2 23
3 2 30 23
3 2 5 30
3 23 30 19
3 5 9 30
3 9 17 30
3 9 11 17
3 30 17 19
3 29 31 32
3 31 33 32
3 31 34 33
3 32 33 15
3 8 35 36
3 35 32 36
3 35 29 32
3 36 32 15
3 34 37 38
3 37 39 38
3 37 28 39
3 38 39 22
3 34 38 40
3 38 20 40
3 38 22 20
3 40 20 16
3 16 14 40
3 14 33 40
3 14 15 33
3 40 33 34
3 29 27 31
3 27 37 31
3 27 28 37
3 31 37 34
3 28 41 39
3 41 24 39
3 41 0 24
3 39 24 22
3 4 1 25
3 1 41 25
3 1 0 41
3 25 41 28
3 4 26 7
3 26 35 7
3 26 29 35
3 7 35 8
3 10 42 11
3 11 42 12
3 10 43 42
3 43 44 42
3 43 36 44
3 42 44 12
3 36 43 8
3 8 43 10
3 12 44 15
3 44 36 15

CELL_TYPES 86
5
5
5
5
5
5
5
5
5
5
5
5
5
5
5
5
5
5
5
5
5
5
5
5
5
5
5
5
5
5
5
5
5
5
5
5
5
5
5
5
5
5
5
5
5
5
5
5
5
5
5
5
5
5
5
5
5
5
5
5
5
5
5
5
5
5
5
5
5
5
5
5
5
5
5
5
5
5
5
5
5
5
5
5
5
5

CELL_DATA 86
SCALARS cell_data_0 double
LOOKUP_TABLE default
0.000152035476252
0.000199648648582
3.94105668279e-05
0.000120061673044
2.06973092382e-05
0.000217462903657
0.000172026717658
0.000141532118573
6.84176574614e-05
0.000809082600083
0.000510106001075
0.000543035517341
6.61965392803e-05
0.000140775556113
0.000104054068249
6.45542458234e-05
6.87075499178e-05
0.000242150131291
0.000195295739872
0.000143657498332
0.000117193086142
0.00012327945041
5.2601293055e-05
0.000100225518368
4.33943776755e-05
3.87365919316e-05
3.61612934567e-05
1.47507873485e-05
2.49058072552e-05
3.20472028445e-05
1.40972066423e-06
3.41603125147e-05
7.42846761645e-05
1.24642904132e-05
3.96316298857e-05
3.78503417312e-05
2.6057815809e-05
8.63630807657e-06
4.33129644974e-06
7.04254720782e-05
1.37596808574e-05
3.38600827124e-06
8.34281472797e-07
4.58449287464e-06
0.000116563651301
0.000135627008142
1.15299005065e-05
0.000122583259406
1.24783684771e-06
5.00542682897e-07
1.00625097158e-06
1.25429754994e-05
1.2526007094e-06
5.10856888743e-05
4.13001390766e-05
7.37730657419e-05
4.74262614218e-05
9.82085677514e-06
1.58435967841e-06
4.57066074582e-06
9.95993071223e-06
7.3034900099e-06
1.95706419441e-06
5.70053302346e-06
1.00769337918e-06
1.01624731325e-05
3.60654058518e-06
1.86496352401e-05
9.85728018204e-06
1.15731959762e-05
3.15136717442e-05
2.66997412276e-07
0.000180852572564
0.000228440163322
3.71550172514e-05
0.000141323187728
0.000190980480149
2.34758785752e-05
0.000142708178916
1.20133645552e-07
2.90654164069e-05
2.72666785395e-05
5.47103395671e-05
0.00025282394565
5.18433409329e-05
5.6559151343e-05

