# vtk DataFile Version 3.0
File Name: Molecule/sphere_test/sphere_test_0-s2.vtk
ASCII
DATASET UNSTRUCTURED_GRID
FIELD FieldData 1
TIME 1 1 double
0.0
POINTS 162 double
0.850650808352 -0.525731112119 0.0
0.862668480416 -0.433888564553 -0.259891913008
0.961938357784 -0.273266528913 0.0
0.951056516295 -0.162459848116 -0.26286555606
0.809016994375 -0.309016994375 -0.5
1.0 0.0 0.0
0.850650808352 0.0 -0.525731112119
0.951056516295 0.162459848116 -0.26286555606
0.809016994375 0.309016994375 -0.5
0.69378047756 -0.16062203564 -0.702046444776
0.69378047756 0.16062203564 -0.702046444776
0.525731112119 0.0 -0.850650808352
0.961938357784 0.273266528913 0.0
0.862668480416 0.433888564553 -0.259891913008
0.850650808352 0.525731112119 0.0
0.702046444776 0.69378047756 -0.16062203564
0.688190960236 0.587785252292 -0.425325404176
0.5 0.809016994375 -0.309016994375
0.587785252292 0.425325404176 -0.688190960236
0.425325404176 0.688190960236 -0.587785252292
0.309016994375 0.5 -0.809016994375
0.433888564553 0.259891913008 -0.862668480416
0.259891913008 0.862668480416 -0.433888564553
0.16062203564 0.702046444776 -0.69378047756
0.0 0.850650808352 -0.525731112119
0.702046444776 0.69378047756 0.16062203564
0.525731112119 0.850650808352 0.0
0.5 0.809016994375 0.309016994375
0.26286555606 0.951056516295 -0.162459848116
0.26286555606 0.951056516295 0.162459848116
0.0 1.0 0.0
0.0 0.961938357784 -0.273266528913
0.259891913008 0.862668480416 0.433888564553
0.0 0.961938357784 0.273266528913
0.0 0.850650808352 0.525731112119
-0.259891913008 0.862668480416 0.433888564553
-0.26286555606 0.951056516295 0.162459848116
-0.5 0.809016994375 0.309016994375
-0.26286555606 0.951056516295 -0.162459848116
-0.525731112119 0.850650808352 0.0
-0.5 0.809016994375 -0.309016994375
-0.259891913008 0.862668480416 -0.433888564553
-0.702046444776 0.69378047756 0.16062203564
-0.702046444776 0.69378047756 -0.16062203564
-0.850650808352 0.525731112119 0.0
-0.16062203564 0.702046444776 0.69378047756
-0.425325404176 0.688190960236 0.587785252292
-0.309016994375 0.5 0.809016994375
-0.688190960236 0.587785252292 0.425325404176
-0.587785252292 0.425325404176 0.688190960236
-0.809016994375 0.309016994375 0.5
-0.862668480416 0.433888564553 0.259891913008
-0.433888564553 0.259891913008 0.862668480416
-0.69378047756 0.16062203564 0.702046444776
-0.525731112119 0.0 0.850650808352
0.16062203564 0.702046444776 0.69378047756
0.0 0.525731112119 0.850650808352
0.309016994375 0.5 0.809016994375
-0.162459848116 0.26286555606 0.951056516295
0.162459848116 0.26286555606 0.951056516295
0.0 0.0 1.0
-0.273266528913 0.0 0.961938357784
0.433888564553 0.259891913008 0.862668480416
0.273266528913 0.0 0.961938357784
0.525731112119 0.0 0.850650808352
-0.433888564553 -0.259891913008 0.862668480416
-0.162459848116 -0.26286555606 0.951056516295
-0.309016994375 -0.5 0.809016994375
0.0 -0.525731112119 0.850650808352
0.162459848116 -0.26286555606 0.951056516295
0.309016994375 -0.5 0.809016994375
-0.16062203564 -0.702046444776 0.69378047756
0.16062203564 -0.702046444776 0.69378047756
0.0 -0.850650808352 0.525731112119
0.433888564553 -0.259891913008 0.862668480416
0.69378047756 -0.16062203564 0.702046444776
0.587785252292 -0.425325404176 0.688190960236
0.809016994375 -0.309016994375 0.5
0.425325404176 -0.688190960236 0.587785252292
0.688190960236 -0.587785252292 0.425325404176
0.5 -0.809016994375 0.309016994375
0.259891913008 -0.862668480416 0.433888564553
0.862668480416 -0.433888564553 0.259891913008
0.702046444776 -0.69378047756 0.16062203564
0.433888564553 -0.259891913008 -0.862668480416
0.273266528913 0.0 -0.961938357784
0.162459848116 -0.26286555606 -0.951056516295
0.309016994375 -0.5 -0.809016994375
0.0 0.0 -1.0
0.0 -0.525731112119 -0.850650808352
-0.162459848116 -0.26286555606 -0.951056516295
-0.309016994375 -0.5 -0.809016994375
0.16062203564 -0.702046444776 -0.69378047756
-0.16062203564 -0.702046444776 -0.69378047756
0.0 -0.850650808352 -0.525731112119
-0.273266528913 0.0 -0.961938357784
-0.433888564553 -0.259891913008 -0.862668480416
-0.525731112119 0.0 -0.850650808352
0.951056516295 -0.162459848116 0.26286555606
0.951056516295 0.162459848116 0.26286555606
0.850650808352 0.0 0.525731112119
0.809016994375 0.309016994375 0.5
0.862668480416 0.433888564553 0.259891913008
0.69378047756 0.16062203564 0.702046444776
0.688190960236 0.587785252292 0.425325404176
0.425325404176 0.688190960236 0.587785252292
0.587785252292 0.425325404176 0.688190960236
-0.69378047756 -0.16062203564 -0.702046444776
-0.69378047756 0.16062203564 -0.702046444776
-0.850650808352 0.0 -0.525731112119
-0.809016994375 -0.309016994375 -0.5
-0.809016994375 0.309016994375 -0.5
-0.951056516295 -0.162459848116 -0.26286555606
-0.951056516295 0.162459848116 -0.26286555606
-1.0 0.0 0.0
-0.862668480416 -0.433888564553 -0.259891913008
-0.961938357784 -0.273266528913 0.0
-0.850650808352 -0.525731112119 0.0
-0.862668480416 0.433888564553 -0.259891913008
-0.961938357784 0.273266528913 0.0
-0.16062203564 0.702046444776 -0.69378047756
-0.425325404176 0.688190960236 -0.587785252292
-0.309016994375 0.5 -0.809016994375
-0.587785252292 0.425325404176 -0.688190960236
-0.688190960236 0.587785252292 -0.425325404176
-0.433888564553 0.259891913008 -0.862668480416
-0.702046444776 -0.69378047756 -0.16062203564
-0.702046444776 -0.69378047756 0.16062203564
-0.525731112119 -0.850650808352 0.0
-0.5 -0.809016994375 -0.309016994375
-0.5 -0.809016994375 0.309016994375
-0.26286555606 -0.951056516295 -0.162459848116
-0.26286555606 -0.951056516295 0.162459848116
0.0 -1.0 0.0
-0.259891913008 -0.862668480416 -0.433888564553
0.0 -0.961938357784 -0.273266528913
-0.259891913008 -0.862668480416 0.433888564553
0.0 -0.961938357784 0.273266528913
-0.862668480416 -0.433888564553 0.259891913008
-0.688190960236 -0.587785252292 0.425325404176
-0.809016994375 -0.309016994375 0.5
-0.425325404176 -0.688190960236 0.587785252292
-0.587785252292 -0.425325404176 0.688190960236
-0.69378047756 -0.16062203564 0.702046444776
-0.850650808352 0.0 0.525731112119
-0.951056516295 0.162459848116 0.26286555606
-0.951056516295 -0.162459848116 0.26286555606
-0.587785252292 -0.425325404176 -0.688190960236
-0.425325404176 -0.688190960236 -0.587785252292
-0.688190960236 -0.587785252292 -0.425325404176
0.259891913008 -0.862668480416 -0.433888564553
0.26286555606 -0.951056516295 -0.162459848116
0.5 -0.809016994375 -0.309016994375
0.525731112119 -0.850650808352 0.0
0.26286555606 -0.951056516295 0.162459848116
0.702046444776 -0.69378047756 -0.16062203564
0.587785252292 -0.425325404176 -0.688190960236
0.688190960236 -0.587785252292 -0.425325404176
0.425325404176 -0.688190960236 -0.587785252292
0.162459848116 0.26286555606 -0.951056516295
-0.162459848116 0.26286555606 -0.951056516295
0.0 0.525731112119 -0.850650808352

CELLS 320 1280
3 0 1 2
3 1 3 2
3 1 4 3
3 2 3 5
3 4 6 3
3 6 7 3
3 6 8 7
3 3 7 5
3 4 9 6
3 9 10 6
3 9 11 10
3 6 10 8
3 5 7 12
3 7 13 12
3 7 8 13
3 12 13 14
3 14 13 15
3 13 16 15
3 13 8 16
3 15 16 17
3 8 18 16
3 18 19 16
3 18 20 19
3 16 19 17
3 8 10 18
3 10 21 18
3 10 11 21
3 18 21 20
3 17 19 22
3 19 23 22
3 19 20 23
3 22 23 24
3 14 15 25
3 15 26 25
3 15 17 26
3 25 26 27
3 17 28 26
3 28 29 26
3 28 30 29
3 26 29 27
3 17 22 28
3 22 31 28
3 22 24 31
3 28 31 30
3 27 29 32
3 29 33 32
3 29 30 33
3 32 33 34
3 34 33 35
3 33 36 35
3 33 30 36
3 35 36 37
3 30 38 36
3 38 39 36
3 38 40 39
3 36 39 37
3 30 31 38
3 31 41 38
3 31 24 41
3 38 41 40
3 37 39 42
3 39 43 42
3 39 40 43
3 42 43 44
3 34 35 45
3 35 46 45
3 35 37 46
3 45 46 47
3 37 48 46
3 48 49 46
3 48 50 49
3 46 49 47
3 37 42 48
3 42 51 48
3 42 44 51
3 48 51 50
3 47 49 52
3 49 53 52
3 49 50 53
3 52 53 54
3 34 45 55
3 45 56 55
3 45 47 56
3 55 56 57
3 47 58 56
3 58 59 56
3 58 60 59
3 56 59 57
3 47 52 58
3 52 61 58
3 52 54 61
3 58 61 60
3 57 59 62
3 59 63 62
3 59 60 63
3 62 63 64
3 54 65 61
3 65 66 61
3 65 67 66
3 61 66 60
3 67 68 66
3 68 69 66
3 68 70 69
3 66 69 60
3 67 71 68
3 71 72 68
3 71 73 72
3 68 72 70
3 60 69 63
3 69 74 63
3 69 70 74
3 63 74 64
3 64 74 75
3 74 76 75
3 74 70 76
3 75 76 77
3 70 78 76
3 78 79 76
3 78 80 79
3 76 79 77
3 70 72 78
3 72 81 78
3 72 73 81
3 78 81 80
3 77 79 82
3 79 83 82
3 79 80 83
3 82 83 0
3 11 84 85
3 84 86 85
3 84 87 86
3 85 86 88
3 87 89 86
3 89 90 86
3 89 91 90
3 86 90 88
3 87 92 89
3 92 93 89
3 92 94 93
3 89 93 91
3 88 90 95
3 90 96 95
3 90 91 96
3 95 96 97
3 0 2 82
3 2 98 82
3 2 5 98
3 82 98 77
3 5 99 98
3 99 100 98
3 99 101 100
3 98 100 77
3 5 12 99
3 12 102 99
3 12 14 102
3 99 102 101
3 77 100 75
3 100 103 75
3 100 101 103
3 75 103 64
3 14 25 102
3 25 104 102
3 25 27 104
3 102 104 101
3 27 105 104
3 105 106 104
3 105 57 106
3 104 106 101
3 27 32 105
3 32 55 105
3 32 34 55
3 105 55 57
3 101 106 103
3 106 62 103
3 106 57 62
3 103 62 64
3 97 107 108
3 107 109 108
3 107 110 109
3 108 109 111
3 110 112 109
3 112 113 109
3 112 114 113
3 109 113 111
3 110 115 112
3 115 116 112
3 115 117 116
3 112 116 114
3 111 113 118
3 113 119 118
3 113 114 119
3 118 119 44
3 24 120 41
3 120 121 41
3 120 122 121
3 41 121 40
3 122 123 121
3 123 124 121
3 123 111 124
3 121 124 40
3 122 125 123
3 125 108 123
3 125 97 108
3 123 108 111
3 40 124 43
3 124 118 43
3 124 111 118
3 43 118 44
3 117 126 127
3 126 128 127
3 126 129 128
3 127 128 130
3 129 131 128
3 131 132 128
3 131 133 132
3 128 132 130
3 129 134 131
3 134 135 131
3 134 94 135
3 131 135 133
3 130 132 136
3 132 137 136
3 132 133 137
3 136 137 73
3 117 127 138
3 127 139 138
3 127 130 139
3 138 139 140
3 130 141 139
3 141 142 139
3 141 67 142
3 139 142 140
3 130 136 141
3 136 71 141
3 136 73 71
3 141 71 67
3 140 142 143
3 142 65 143
3 142 67 65
3 143 65 54
3 54 53 143
3 53 144 143
3 53 50 144
3 143 144 140
3 50 145 144
3 145 146 144
3 145 114 146
3 144 146 140
3 50 51 145
3 51 119 145
3 51 44 119
3 145 119 114
3 140 146 138
3 146 116 138
3 146 114 116
3 138 116 117
3 97 96 107
3 96 147 107
3 96 91 147
3 107 147 110
3 91 148 147
3 148 149 147
3 148 129 149
3 147 149 110
3 91 93 148
3 93 134 148
3 93 94 134
3 148 134 129
3 110 149 115
3 149 126 115
3 149 129 126
3 115 126 117
3 94 150 135
3 150 151 135
3 150 152 151
3 135 151 133
3 152 153 151
3 153 154 151
3 153 80 154
3 151 154 133
3 152 155 153
3 155 83 153
3 155 0 83
3 153 83 80
3 133 154 137
3 154 81 137
3 154 80 81
3 137 81 73
3 11 9 84
3 9 156 84
3 9 4 156
3 84 156 87
3 4 157 156
3 157 158 156
3 157 152 158
3 156 158 87
3 4 1 157
3 1 155 157
3 1 0 155
3 157 155 152
3 87 158 92
3 158 150 92
3 158 152 150
3 92 150 94
3 11 85 21
3 85 159 21
3 85 88 159
3 21 159 20
3 88 160 159
3 160 161 159
3 160 122 161
3 159 161 20
3 88 95 160
3 95 125 160
3 95 97 125
3 160 125 122
3 20 161 23
3 161 120 23
3 161 122 120
3 23 120 24

CELL_TYPES 320
5
5
5
5
5
5
5
5
5
5
5
5
5
5
5
5
5
5
5
5
5
5
5
5
5
5
5
5
5
5
5
5
5
5
5
5
5
5
5
5
5
5
5
5
5
5
5
5
5
5
5
5
5
5
5
5
5
5
5
5
5
5
5
5
5
5
5
5
5
5
5
5
5
5
5
5
5
5
5
5
5
5
5
5
5
5
5
5
5
5
5
5
5
5
5
5
5
5
5
5
5
5
5
5
5
5
5
5
5
5
5
5
5
5
5
5
5
5
5
5
5
5
5
5
5
5
5
5
5
5
5
5
5
5
5
5
5
5
5
5
5
5
5
5
5
5
5
5
5
5
5
5
5
5
5
5
5
5
5
5
5
5
5
5
5
5
5
5
5
5
5
5
5
5
5
5
5
5
5
5
5
5
5
5
5
5
5
5
5
5
5
5
5
5
5
5
5
5
5
5
5
5
5
5
5
5
5
5
5
5
5
5
5
5
5
5
5
5
5
5
5
5
5
5
5
5
5
5
5
5
5
5
5
5
5
5
5
5
5
5
5
5
5
5
5
5
5
5
5
5
5
5
5
5
5
5
5
5
5
5
5
5
5
5
5
5
5
5
5
5
5
5
5
5
5
5
5
5
5
5
5
5
5
5
5
5
5
5
5
5
5
5
5
5
5
5
5
5
5
5
5
5
5
5
5
5
5
5
5
5
5
5
5
5
5
5
5
5
5
5

CELL_DATA 320
SCALARS cell_data_0 double
LOOKUP_TABLE default
6.73770186632e-07
1.89457235801e-06
3.95859883457e-06
4.04864191716e-07
1.93344622768e-05
3.34995422236e-05
3.34279611905e-05
8.64424109577e-06
4.9164209824e-05
6.26753536075e-05
3.52556039681e-05
2.45277210814e-05
1.96327600878e-05
3.41892793761e-05
1.79693483236e-05
1.51963479232e-05
5.82084366805e-06
4.77070736986e-05
4.41535771067e-05
3.39105616815e-05
7.11288604919e-05
0.000145723040077
6.64169533283e-05
9.19528624305e-05
2.59066483125e-05
5.08765760423e-05
2.46369969707e-05
3.65528142414e-05
7.59643232591e-05
0.000137702029365
6.91574356906e-05
7.14276882888e-05
4.89003765569e-05
0.000153265953159
5.83169587158e-05
0.00012202698798
0.000222525902089
0.000408210603725
0.0002041176967
0.000149444888645
0.00014945128307
0.000241768350744
7.91812380111e-05
0.000135791968058
0.000115904164659
0.000199793652279
8.43020857395e-05
6.57420712559e-05
3.64735843099e-05
0.000145494919847
8.09693341894e-05
7.25217189216e-05
9.62823586713e-05
0.000190959858226
6.38105790812e-05
9.74011592669e-05
5.5307893298e-05
0.000178603282839
0.000118389113578
9.31160179109e-05
4.26949920781e-05
8.54044201433e-05
4.14348774414e-05
2.96321793232e-05
1.05311912525e-05
2.06360387049e-05
1.10682308621e-05
1.54245861282e-05
1.30216078803e-05
2.56459166698e-05
1.2907803285e-05
1.86455014053e-05
3.61051289364e-05
6.92277375222e-05
2.48859480244e-05
2.12585951157e-05
2.36071569337e-05
1.63466189084e-05
8.68953281523e-06
2.45185372402e-05
1.05618280582e-05
1.8625151735e-05
2.30823523355e-05
2.11349684781e-05
3.42400333982e-05
4.80392157695e-05
4.96783384411e-05
3.23777331691e-05
3.07125771792e-05
4.19681211582e-05
3.19148106267e-05
4.00529494122e-05
2.17822424318e-05
2.59990956497e-05
3.03156089473e-05
1.65301400269e-05
2.43388632902e-05
2.46970613209e-05
2.01889971779e-05
2.90753268075e-05
2.40361371252e-05
2.14101777802e-05
2.23412197145e-05
2.61383196014e-05
1.55540441776e-05
1.12623444368e-05
1.04963653496e-05
1.46962202551e-05
2.12264077094e-05
1.84155579378e-05
1.93043202213e-05
1.69612284293e-05
1.39639027323e-05
1.29787477937e-05
1.57752130093e-05
1.17597729602e-05
1.50034767526e-05
1.02369765801e-05
8.20415234253e-06
1.12744736289e-05
1.20560631924e-05
8.19386657614e-06
8.78131678647e-06
6.8832823452e-06
5.60743357304e-06
3.64565622764e-06
4.71319936962e-06
1.18558698635e-06
1.95536234742e-05
2.65050218804e-05
1.82645802747e-05
1.60480173555e-05
3.20138035186e-05
4.10610834453e-05
3.11600797455e-05
1.69731445396e-05
3.61611250252e-05
5.87336098248e-05
2.85023313552e-05
3.76236701927e-05
8.55458171106e-06
5.95096842506e-06
6.71580460222e-06
7.24543585566e-07
1.91513708865e-06
2.77298905512e-06
2.84609678778e-06
4.0894692483e-06
4.72850660393e-06
7.34314575005e-06
8.21359983644e-06
8.48955456396e-06
4.47643655785e-06
2.79643758143e-06
4.41660964687e-06
4.68358961495e-06
1.02676200807e-05
1.1153889638e-05
1.05316154796e-05
1.33805190572e-05
3.61919681678e-05
3.5046795505e-05
3.23836908829e-05
5.0731626605e-06
8.71061174517e-06
1.28626665228e-05
1.5882668517e-05
1.07588391361e-05
2.23097779679e-05
2.04391534781e-05
2.17468884865e-05
1.50525319424e-05
1.24253399643e-05
1.56056166691e-05
1.51876422603e-05
1.50208047059e-05
2.69712214393e-06
4.03771651029e-06
6.7487770653e-06
9.59580818558e-06
4.00314574583e-06
1.13781258143e-07
1.47619152342e-06
8.56131279359e-06
8.83231023461e-07
2.10827192457e-06
2.40816619906e-06
3.44565285424e-07
4.75401349665e-06
1.90610656306e-06
2.76048262651e-07
2.31544335905e-06
6.35726314709e-05
7.02600715511e-05
6.8099051694e-06
5.92064923187e-05
9.15152617077e-06
5.35294333082e-06
1.0823180675e-05
1.66601127023e-06
9.97526607275e-06
7.26253211705e-06
5.12977191492e-06
1.00853855392e-05
9.32352236691e-06
1.06455353732e-05
6.00851826262e-06
7.08068097678e-06
1.28415525425e-06
1.00759197791e-07
2.79387785374e-06
1.84409575906e-06
2.30343067842e-06
2.20348704177e-06
2.08701513214e-06
3.55730371026e-06
7.2234732169e-06
7.03040133713e-06
8.54172006822e-06
1.6553099739e-06
4.26098803189e-06
1.84610399963e-06
1.90433560659e-07
3.92480747331e-06
5.27962771414e-07
6.45701653093e-06
9.94593301105e-08
1.80148655286e-07
3.42398632138e-06
1.01358054585e-05
1.26458918409e-05
3.18566186042e-06
1.55953289363e-06
9.47213394314e-06
9.76095764491e-06
1.64329417535e-05
9.16563138403e-06
2.13895132314e-05
2.3257834201e-05
2.21898968618e-05
1.92490712825e-05
1.04190301169e-05
9.52431824336e-06
9.8131342279e-06
7.58568771069e-06
6.07775238024e-06
3.72649673451e-07
8.56060669471e-06
1.27525088567e-06
4.99659411305e-06
2.45782688026e-06
9.42979634303e-07
4.53772130571e-06
2.22662239413e-06
1.55115132673e-06
9.4394131848e-07
1.99417012424e-06
1.78044625808e-06
1.03229184183e-06
4.92591697535e-06
1.34260856742e-06
4.04534450297e-07
3.38522012962e-06
3.35537046712e-06
1.47712259792e-05
2.22717290651e-05
2.18968131515e-05
8.67090306822e-06
1.6486830775e-06
7.62577524008e-07
2.64176487996e-06
1.72214700208e-06
3.65508402913e-06
2.71436042137e-06
2.86621476501e-08
1.95627322353e-06
6.27489396353e-07
4.05139167124e-07
2.3288330252e-06
3.78362538378e-07
1.69382117921e-07
7.34200322756e-07
9.88736536743e-07
1.3508805336e-06
1.58581827026e-06
3.32966547339e-06
4.96583804707e-06
6.0203275935e-06
3.96252421233e-05
3.80301870496e-05
2.43564707569e-05
1.12879502849e-05
1.31974373892e-06
6.16629122047e-09
2.38991901355e-07
2.80022562027e-06
2.88094533012e-06
1.49753223544e-06
2.34402294189e-07
1.78281490235e-07
1.28373575007e-05
9.76193996374e-06
3.5011601194e-07
1.03127319865e-05
2.75398935512e-05
2.58598591922e-05
9.45612912344e-06
1.38263506093e-05
1.93899626173e-06
1.23276384246e-09
2.72527085697e-06
5.20918057076e-07
1.95229107629e-06
3.94532125942e-06
4.39057390341e-06
7.05529218525e-06
2.26171368853e-05
2.46993570023e-05
3.61629599259e-06
2.71382921059e-05

