# vtk DataFile Version 3.0
File Name: Molecule/arg/arg_5.0-4.vtk
ASCII
DATASET UNSTRUCTURED_GRID
FIELD FieldData 1
TIME 1 1 double
0.0
POINTS 870 double
-3.403 0.327 1.604
-3.45 0.103 1.078
-3.138 0.005 1.702
-3.183 -0.208 1.2
-2.981 -0.361 1.858
-3.028 -0.584 1.332
-3.298 -0.003 0.536
-3.038 -0.309 0.683
-2.876 -0.691 0.79
-2.971 0.024 0.066
-2.725 -0.284 0.235
-2.549 -0.664 0.32
-2.984 0.046 0.042
-2.617 -0.045 -0.207
-2.63 -0.024 -0.229
-2.351 -0.22 -0.527
-2.365 -0.198 -0.55
-2.2 -0.483 -0.862
-2.216 -0.458 -0.889
-3.25 0.578 -0.258
-2.686 0.062 -0.328
-2.904 0.498 -0.574
-2.48 -0.047 -0.742
-2.684 0.361 -0.973
-2.39 -0.269 -1.153
-2.617 0.185 -1.409
-3.173 1.207 -0.458
-2.84 1.014 -0.738
-2.625 0.846 -1.127
-2.55 0.723 -1.58
-2.776 1.74 -0.497
-2.515 1.451 -0.77
-2.319 1.256 -1.157
-2.211 1.177 -1.613
-2.622 1.932 -0.429
-2.434 1.563 -0.734
-2.291 1.743 -0.67
-2.16 1.459 -1.077
-2.01 1.647 -1.011
-1.982 1.439 -1.492
-1.81 1.654 -1.416
-2.666 2.281 -0.134
-2.046 2.135 -0.548
-2.085 2.448 -0.283
-1.615 2.438 -0.879
-1.659 2.787 -0.585
-2.622 2.533 0.247
-2.045 2.674 0.059
-1.614 3.039 -0.203
-2.495 2.657 0.67
-1.932 2.785 0.438
-1.488 3.163 0.22
-2.925 2.572 1.071
-2.251 2.77 1.005
-2.634 2.694 1.361
-2.033 3.002 1.293
-2.411 2.928 1.645
-1.863 3.333 1.507
-2.279 3.251 1.894
-3.186 2.284 1.521
-2.865 2.437 1.761
-2.64 2.674 2.039
-2.53 2.972 2.328
-3.419 1.801 1.788
-2.888 2.359 1.917
-3.122 1.876 2.185
-2.717 2.558 2.345
-2.979 2.017 2.644
-3.567 1.179 1.827
-3.202 1.735 2.161
-3.333 1.184 2.196
-3.094 1.732 2.585
-3.223 1.188 2.619
-3.107 1.793 3.017
-3.25 1.192 3.055
-3.408 0.559 1.798
-3.191 0.635 2.17
-3.084 0.647 2.593
-3.095 0.593 3.027
-3.105 0.348 2.085
-3.1 0.088 1.867
-2.97 0.105 2.152
-3.02 0.504 2.546
-2.901 0.29 2.606
-2.978 0.383 3.085
-2.865 -0.346 2.113
-2.52 -0.7 2.425
-2.789 -0.06 2.411
-2.48 -0.378 2.69
-2.828 0.19 2.745
-2.523 -0.123 3.02
-2.645 0.041 3.387
-2.46 -1.117 2.184
-2.148 -0.9 2.844
-2.09 -1.3 2.613
-2.003 -1.142 3.367
-1.937 -1.6 3.103
-2.268 -1.45 1.888
-1.906 -1.62 2.328
-1.726 -1.965 2.777
-1.967 -1.659 1.57
-1.617 -1.821 2.023
-1.396 -2.195 2.428
-1.592 -1.721 1.268
-1.257 -1.88 1.733
-0.984 -2.263 2.097
-2.026 -1.588 0.931
-1.351 -1.766 0.91
-1.757 -1.641 0.594
-1.133 -1.941 0.578
-1.555 -1.812 0.25
-0.96 -2.23 0.303
-1.437 -2.084 -0.068
-2.342 -1.257 0.596
-2.053 -1.332 0.28
-1.861 -1.491 -0.075
-1.784 -1.721 -0.435
-2.487 -0.785 0.321
-2.189 -0.889 0.022
-2.002 -1.032 -0.342
-1.943 -1.202 -0.738
-2.264 -0.668 -0.026
-2.322 -0.554 -0.027
-2.141 -0.611 -0.433
-2.203 -0.492 -0.433
-2.131 -0.618 -0.861
-2.114 -0.682 -1.181
-1.927 -1.264 -1.052
-2.312 -0.441 -1.376
-2.121 -0.506 -1.916
-2.042 -0.816 -1.214
-1.838 -0.886 -1.79
-1.682 -1.348 -1.746
-1.975 -0.256 -2.322
-1.864 -0.768 -1.888
-1.672 -0.441 -2.421
-1.897 0.192 -2.527
-1.57 0.147 -2.691
-1.996 0.646 -2.441
-1.495 0.306 -2.776
-1.602 0.798 -2.682
-1.198 0.386 -3.152
-1.328 0.981 -3.039
-2.011 1.039 -2.18
-1.619 1.224 -2.399
-1.348 1.496 -2.696
-1.72 1.257 -2.235
-1.479 1.817 -1.75
-1.107 2.057 -2.211
-1.346 2.153 -1.415
-1.642 2.007 -1.116
-1.319 2.584 -1.178
-0.816 3.013 -1.267
-1.111 2.259 -1.642
-0.623 2.675 -1.729
-0.543 2.537 -2.312
0.466 3.148 -0.891
-0.416 2.926 -1.599
0.331 3.005 -1.38
-0.131 2.956 -2.042
0.328 3.005 -1.907
-0.002 3.1 -2.533
0.456 3.148 -2.398
-0.048 3.337 -3.001
0.699 3.415 -2.782
0.833 2.913 -0.61
0.619 2.806 -1.364
0.976 2.577 -1.092
0.892 2.689 -1.891
1.303 2.425 -1.576
1.057 2.557 -0.305
1.192 2.232 -0.796
1.553 2.026 -1.234
0.979 2.767 0.195
1.24 2.204 -0.113
1.167 2.404 0.362
1.539 1.918 0.039
1.462 2.128 0.539
0.737 2.845 0.68
0.936 2.478 0.823
1.22 2.206 1.024
0.406 3.093 0.833
0.71 2.572 1.142
0.419 2.789 1.277
0.841 2.425 1.643
0.539 2.651 1.783
1.112 2.426 2.108
0.748 2.699 2.276
0.011 3.456 0.651
0.142 3.058 1.218
-0.201 3.373 1.06
-0.01 3.117 1.656
-0.348 3.428 1.5
-0.034 3.266 2.099
-0.415 3.616 1.924
-0.504 3.599 0.465
-0.648 3.497 0.898
-0.789 3.55 1.341
-0.913 3.754 1.744
-1.038 3.495 0.311
-1.112 3.406 0.765
-1.247 3.461 1.209
-1.429 3.653 1.595
-1.502 3.118 0.685
-1.632 3.177 1.131
-0.05 3.403 2.531
0.304 2.919 2.221
0.288 3.057 2.654
0.729 2.855 2.766
-0.175 3.437 2.964
0.162 3.091 3.09
0.587 2.894 3.259
-0.395 3.364 3.353
-0.059 3.019 3.48
0.337 2.812 3.701
-0.687 3.194 3.654
-0.352 2.847 3.783
0.006 2.617 4.044
-1.13 3.18 3.766
-0.58 2.815 3.881
-1.094 2.799 4.011
-1.584 3.151 3.721
-1.62 2.766 3.959
-1.995 3.111 3.523
-2.096 2.719 3.73
-2.312 3.063 3.198
-2.464 2.664 3.352
-2.498 3.015 2.783
-2.679 2.608 2.871
-0.832 2.373 4.277
-0.242 2.183 4.431
-1.061 1.806 4.483
-0.466 1.628 4.634
-1.364 2.231 4.354
-1.452 1.611 4.604
-1.713 1.977 4.492
-1.735 2.528 4.103
-2.033 2.233 4.276
-2.128 2.66 3.763
-2.373 2.347 3.982
-2.496 2.611 3.374
-2.69 2.305 3.646
-2.791 2.388 2.985
-2.945 2.113 3.311
-1.464 1.095 4.666
-0.956 1.592 4.533
-0.968 1.074 4.596
-0.48 1.041 4.705
-1.655 0.731 4.634
-1.079 0.886 4.596
-1.26 0.541 4.565
-0.689 0.687 4.666
-0.881 0.322 4.633
-0.333 0.517 4.869
-0.555 0.096 4.831
-2.027 0.463 4.516
-1.383 0.368 4.531
-1.728 0.119 4.423
-1.114 -0.009 4.584
-1.476 -0.27 4.469
-0.878 -0.357 4.785
-1.3 -0.661 4.651
-2.342 0.241 4.242
-2.019 -0.087 4.169
-1.783 -0.487 4.202
-1.658 -0.914 4.34
-2.557 0.093 3.848
-2.219 -0.224 3.803
-1.993 -0.631 3.818
-1.903 -1.082 3.892
-2.301 -0.273 3.375
-2.078 -0.682 3.368
-0.557 -0.612 4.999
-0.228 -0.165 5.05
-0.202 -0.89 5.102
0.134 -0.447 5.155
0.164 -1.171 5.088
0.507 -0.734 5.141
0.37 -1.612 4.973
0.615 -0.976 5.092
0.811 -1.395 4.983
1.043 -0.806 5.264
1.249 -1.247 5.15
0.578 -1.993 4.725
1.008 -1.757 4.747
1.457 -1.629 4.901
0.77 -2.282 4.364
1.191 -2.031 4.405
1.649 -1.918 4.541
0.93 -2.454 3.923
1.343 -2.194 3.985
1.809 -2.089 4.099
1.044 -2.494 3.437
1.451 -2.232 3.524
1.923 -2.129 3.613
1.103 -2.399 2.949
1.506 -2.141 3.061
1.981 -2.034 3.126
1.1 -2.176 2.501
1.504 -1.93 2.635
1.979 -1.811 2.678
1.037 -1.846 2.131
1.444 -1.616 2.284
1.916 -1.481 2.307
0.647 -2.269 2.118
0.836 -1.714 1.711
0.512 -2.064 1.7
0.77 -1.662 1.233
0.47 -1.987 1.224
0.848 -1.697 0.757
0.525 -2.047 0.746
1.061 -1.813 0.337
0.67 -2.236 0.324
0.119 -2.499 2.107
0.075 -2.255 1.691
0.064 -2.164 1.215
0.088 -2.237 0.737
0.142 -2.466 0.313
-0.457 -2.497 2.099
-0.401 -2.253 1.685
-0.378 -2.162 1.209
-0.389 -2.235 0.73
-0.434 -2.464 0.306
-0.837 -2.059 1.682
-0.782 -1.983 1.207
-0.825 -2.042 0.728
1.48 -1.078 0.031
1.032 -1.487 0.709
1.333 -0.958 0.489
1.12 -1.273 1.146
1.358 -0.854 0.972
1.315 -1.197 1.595
1.553 -0.779 1.421
1.592 -1.27 1.999
1.893 -0.741 1.779
2.335 -0.746 2.002
1.639 -0.712 -0.547
1.476 -0.549 0.311
1.615 -0.229 -0.195
1.697 -0.118 0.66
1.842 0.216 0.134
2.201 -0.141 -1.444
1.856 -0.818 -1.29
2.256 -0.562 -1.683
1.615 -1.54 -1.111
1.405 -1.841 -1.462
1.784 -1.167 -1.572
1.595 -1.437 -1.886
1.085 -2.024 -1.812
-0.171 -1.746 -2.529
-0.548 -1.409 -2.576
0.186 -1.352 -2.841
-0.152 -1.05 -2.884
-0.822 -1.287 -2.506
-0.408 -0.948 -2.806
-0.669 -0.831 -2.739
-0.336 -0.591 -3.197
-0.616 -0.466 -3.125
-1.485 -0.767 -2.346
-0.988 -0.705 -2.664
-1.322 -0.31 -2.728
-0.95 -0.071 -3.189
-0.311 -0.212 -3.619
0.104 -0.811 -3.39
0.128 -0.454 -3.788
-0.16 0.24 -3.931
0.27 -0.03 -4.081
0.101 0.716 -4.098
0.516 0.418 -4.238
-0.411 1.252 -3.909
0.377 1.347 -4.4
0.11 1.626 -4.301
-0.398 1.946 -3.588
0.117 1.987 -4.134
-0.712 2.237 -2.975
-0.106 2.463 -3.53
-0.314 2.656 -3.124
0.028 3.029 -3.665
-0.135 3.18 -3.347
-0.202 2.855 -2.684
0.9 3.106 -3.671
0.173 2.486 -3.833
0.85 2.546 -3.838
0.989 2.064 -4.14
1.267 2.733 -3.406
0.819 3.383 -2.845
1.204 2.948 -2.765
1.749 2.404 -3.353
1.668 2.681 -2.526
0.902 2.914 -2.485
0.749 2.956 -2.405
1.123 2.627 -2.01
1.688 2.19 -1.733
1.962 2.454 -2.382
2.133 1.624 -1.992
2.194 2.159 -2.516
2.141 1.301 -1.585
2.428 1.273 -2.257
2.435 0.969 -1.874
2.042 0.907 -1.262
2.342 0.599 -1.57
1.911 1.516 -1.257
1.884 0.909 -0.851
1.768 1.444 -0.847
1.861 0.913 -0.411
1.75 1.425 -0.407
1.976 0.918 0.014
1.858 1.462 0.018
1.454 1.892 -0.826
1.449 1.855 -0.388
1.867 0.812 -0.4
1.753 0.215 -0.299
1.896 0.717 -0.83
1.788 0.151 -0.734
2.06 0.644 -1.234
1.942 0.027 -1.129
2.566 1.229 -2.871
2.241 1.687 -2.422
2.339 1.656 -2.857
2.27 2.135 -2.856
2.341 1.264 -3.459
2.179 1.681 -3.275
2.146 2.154 -3.181
1.83 1.363 -3.817
1.817 1.751 -3.528
1.863 2.209 -3.379
1.605 0.935 -4.222
1.413 1.57 -3.947
1.254 1.267 -4.234
1.103 1.869 -4.167
0.979 1.632 -4.39
1.11 0.579 -4.381
0.902 1.014 -4.346
0.705 1.435 -4.478
0.482 0.901 -4.245
1.404 2.01 -3.684
1.315 2.161 -3.664
2.007 0.383 0.735
1.733 -0.159 1.085
2.004 0.279 1.15
1.861 -0.287 1.473
2.124 0.139 1.536
2.068 -0.489 1.788
2.355 -0.024 1.857
2.675 -0.196 2.083
2.074 0.941 0.928
2.063 0.767 1.319
2.181 0.613 1.7
2.417 0.492 2.036
2.749 0.417 2.295
1.884 1.434 1.198
1.897 1.199 1.555
2.02 1.032 1.93
2.241 0.95 2.287
2.541 0.959 2.592
1.624 1.884 1.117
1.755 1.469 1.75
1.503 1.904 1.671
1.842 1.579 2.299
1.557 2.073 2.21
1.11 2.216 1.58
1.886 1.845 2.759
2.132 1.224 2.493
2.174 1.477 2.929
2.585 1.225 3.051
1.814 2.002 3.263
2.105 1.625 3.407
2.513 1.382 3.555
1.633 2.033 3.763
1.933 1.655 3.881
2.331 1.413 4.055
1.359 1.937 4.21
1.674 1.563 4.305
2.058 1.316 4.502
1.021 1.721 4.561
1.354 1.359 4.638
1.72 1.101 4.853
0.651 1.408 4.781
1.002 1.062 4.847
1.35 0.788 5.074
0.073 1.245 4.841
0.82 0.891 4.947
0.23 0.725 5.008
0.672 0.387 5.179
1.205 0.294 5.301
0.564 -0.173 5.245
1.099 -0.256 5.367
-1.834 2.927 0.971
1.396 -0.602 0.696
1.678 -0.195 -0.741
1.805 -0.426 -1.067
-2.913 1.955 -0.341
-3.327 1.641 -0.268
-3.327 2.032 -0.008
-2.913 2.297 -0.026
-3.327 2.292 0.383
-2.913 2.519 0.384
-3.327 2.384 0.843
-3.656 1.544 0.048
-3.656 1.916 0.37
-3.656 2.055 0.843
-3.656 1.916 1.316
-3.867 1.641 0.843
-3.867 1.411 1.241
-3.656 0.342 1.089
-3.656 0.609 1.504
-3.867 0.951 1.241
-3.867 0.721 0.843
-3.656 0.342 0.597
-3.867 0.951 0.445
-3.656 0.609 0.182
-3.656 1.057 -0.022
-3.867 1.411 0.445
-3.94 1.181 0.843
-2.457 -1.44 1.367
-2.786 -1.076 1.613
-2.786 -1.076 1.121
-2.457 -1.348 0.907
[...]
CELL_DATA 1736
SCALARS cell_data_0 double
LOOKUP_TABLE default
1.90350973083e-06
3.60817395852e-06
1.85400379159e-06
1.95989221707e-06
4.11658648017e-06
4.04271388293e-06
3.71884417736e-06
2.61076394359e-06
2.17373078024e-06
1.3199187179e-06
2.01793711269e-06
4.47876600596e-07
2.1227387637e-08
5.42117147627e-08
7.56388674679e-08
8.53021470831e-08
4.93383550128e-08
1.12692591123e-07
3.86614917405e-06
5.68115294512e-06
3.91212795133e-06
4.40638493437e-06
1.06153976606e-06
1.23051184801e-06
1.0032518687e-05
8.17110948502e-06
6.51751642475e-06
6.48122073019e-06
4.37603923377e-06
4.87949589951e-06
7.32394767111e-06
6.00157642326e-06
8.77973138234e-06
5.68881924295e-06
4.20185937179e-06
8.20518064349e-07
6.61845527705e-07
5.53534309084e-07
3.2809099557e-07
3.89949665713e-07
1.06111041274e-07
5.95114106581e-07
7.62628596363e-06
6.97536816818e-06
1.99878565745e-06
2.04076007918e-06
7.84004421205e-06
4.32377729242e-06
4.17506400571e-06
7.15981062345e-06
6.58389737348e-06
6.43059210986e-06
7.15110005837e-06
6.99859493226e-06
2.65922355105e-05
2.17589692292e-05
2.34164846261e-05
2.29292704278e-05
2.54406435907e-05
7.84359743383e-06
1.8906045338e-05
5.68596070168e-06
8.9596536926e-06
1.3982090586e-05
9.47963667756e-06
1.0724510198e-05
3.21162158263e-06
6.78679272947e-06
5.25599865704e-06
4.90403315701e-06
7.95278822622e-06
5.59169767815e-06
4.35570731938e-06
1.88639270915e-06
2.28758958211e-06
2.72875192132e-06
3.92640305137e-06
2.14239606828e-06
1.71020222884e-06
1.4683365014e-06
1.79369108725e-06
3.15097578379e-06
4.87383390888e-07
2.47265048352e-08
4.55585345932e-07
4.48572223601e-07
9.32908319093e-07
8.89326026192e-07
7.07586891791e-07
1.70138383181e-07
6.6463243036e-07
4.89332368583e-08
1.15347246424e-07
9.37810011082e-08
2.21392826074e-07
1.58310097278e-07
6.30800404039e-07
1.78458042257e-06
3.78132532418e-06
3.27639583364e-06
7.41082855765e-07
1.3338101336e-06
2.01716945979e-06
1.81805213796e-06
7.42984418755e-07
1.20258547973e-06
1.44179408275e-06
1.16657153086e-06
8.9441866396e-07
1.16472936851e-06
1.07712835072e-06
7.51544826459e-08
8.40528334625e-07
8.12951264924e-07
1.21032016964e-06
1.14468156598e-06
1.22588995589e-06
1.05080640479e-06
6.24395113149e-07
7.77596905687e-07
9.47551364595e-07
1.01464777878e-06
1.01161234801e-06
7.99393469232e-07
1.25076670867e-07
3.46151416631e-07
7.81629139776e-07
9.37838332602e-07
6.72051836637e-07
3.69707185746e-07
1.22854834753e-07
3.00338134851e-07
3.13481097548e-07
3.88501798319e-07
3.5388638262e-07
4.49209426573e-07
3.57964603714e-07
1.26658100118e-06
6.20914596857e-07
5.79226958564e-07
1.1368351227e-06
1.42908186349e-06
1.00565239636e-06
2.51376636574e-07
8.38916280392e-07
1.17174764723e-06
9.6458823599e-07
1.28674164744e-06
1.26791497655e-06
1.35580175601e-06
1.40318944398e-06
2.52219096076e-06
1.91211786379e-06
2.48669867708e-06
2.44429840058e-06
3.21626928259e-06
2.0034809976e-06
2.7090219267e-06
5.40061114095e-06
5.24847171662e-06
2.57880139662e-06
2.4033346164e-06
2.43222420477e-06
1.86131690896e-06
4.6343599893e-06
5.54218920102e-06
5.81645727072e-06
6.58121178091e-06
7.07312495237e-06
3.33784275604e-06
4.56615320803e-06
8.29619166484e-07
2.42044991658e-06
1.57968196378e-06
4.51033025044e-06
8.44844017698e-06
1.28735678321e-06
1.41133463491e-06
1.89149851413e-06
5.06522065712e-06
3.27486726877e-06
3.89237130112e-06
4.04808369655e-06
5.21959466929e-06
2.48373471528e-06
2.12891493729e-06
2.17136722834e-06
2.23107223721e-06
1.91349608507e-06
1.80090920231e-06
2.04262438149e-06
1.9048820539e-06
1.5925473753e-06
1.39084982522e-06
1.47798638372e-06
1.07505470637e-06
1.31000545034e-06
1.73395305846e-06
9.79820969245e-07
5.71159179545e-07
3.5924506301e-07
4.06729463748e-07
4.77827446398e-07
4.50616662394e-07
6.34197585195e-07
4.97370066634e-07
5.14961498505e-07
4.29901616029e-07
3.17179520102e-07
2.64403642515e-07
5.47553320272e-07
4.7194310483e-07
4.15687687022e-07
2.96483842687e-07
2.56152402083e-07
1.17296560737e-07
4.82643010953e-07
2.43764978855e-07
3.00009512422e-07
1.71502953855e-07
1.86728785371e-07
1.11271098613e-06
5.7614196094e-07
4.94237861064e-07
1.24384355051e-06
1.58020862459e-06
9.06753084082e-08
2.45414292695e-07
4.72907594201e-07
3.57993550174e-07
1.25601240095e-06
2.49174916907e-06
1.92997084199e-06
6.68740121158e-06
2.26950985045e-06
7.29448311146e-07
4.49659173631e-06
3.27410242406e-06
2.66684314733e-07
1.0102802254e-07
3.36142038123e-08
1.02234964491e-07
3.03888985622e-08
3.66867339983e-08
9.2995277177e-08
1.2561246958e-07
7.91284264015e-09
2.45322299382e-08
1.34928884623e-06
2.75663479295e-06
1.77318604606e-06
2.82544684452e-06
2.94479497011e-06
1.78705367926e-06
1.10632022313e-06
4.26337801347e-06
7.5349014879e-06
1.10561836373e-05
1.92321635583e-05
1.79829876014e-05
2.72781215289e-05
1.99901799981e-05
2.2648262501e-05
1.57280824185e-05
9.36668301621e-06
6.61311067261e-06
2.759095576e-06
4.48857434992e-06
4.386761487e-06
1.93132705945e-06
2.01802120067e-06
2.01690203946e-06
2.15947288605e-06
9.12728186834e-07
8.76797773538e-07
6.02709413785e-07
2.84862195187e-07
2.2193816438e-07
1.22751444652e-07
3.93094773055e-07
9.06404442529e-07
9.95902409673e-07
1.09983087501e-06
1.94132631459e-06
8.55409300181e-07
4.04574301711e-06
3.44525700353e-06
7.22964043963e-06
5.3965126989e-06
4.69126971482e-06
5.00310767225e-06
3.01041286603e-06
4.25371920571e-06
1.33780840644e-06
3.62623891039e-06
9.53633826968e-07
6.23810469394e-07
6.360983129e-07
4.98970005482e-07
1.39815381516e-06
2.49217397227e-06
1.96048050603e-06
2.33205193817e-06
1.14490673698e-06
1.97951305532e-06
2.139651385e-06
3.82712125889e-06
3.6254552936e-06
2.8489145244e-06
2.270339975e-06
3.03853541241e-06
3.15462343618e-06
3.18811412156e-06
6.20657300679e-06
3.27856022007e-06
2.0256190788e-06
3.8506455833e-06
1.90332335576e-06
1.13224941411e-06
1.36157032781e-06
7.96489990034e-07
1.90891019964e-06
2.02955153943e-06
5.97732965005e-07
7.59065281094e-07
1.88170615489e-06
1.18027251051e-06
6.89141744074e-07
1.48175599589e-06
1.36702427975e-06
6.17585577577e-07
4.92245998446e-08
7.54478363733e-08
4.96182688467e-08
1.14177026089e-08
1.12023608587e-06
1.59026843992e-06
3.19837027537e-07
1.18057303072e-06
1.32883118866e-06
2.10856051659e-06
2.14926883605e-06
2.19658989253e-06
2.49017381408e-06
2.68311461463e-06
2.84931864162e-06
1.36068230135e-06
1.06300770383e-06
1.59897972452e-06
1.43264602455e-06
2.20624855279e-06
2.38847781943e-06
2.69350444531e-06
2.59816120116e-06
6.66016932907e-08
6.4472570123e-07
2.58014297581e-07
9.70128373031e-08
1.05942122501e-06
6.07979722432e-07
1.33711756278e-06
4.98770170105e-07
2.67217896478e-06
1.03865913604e-06
8.21216634567e-08
7.4351226896e-07
6.32099036327e-07
2.73246366874e-07
7.42988172747e-07
7.47501423913e-07
4.76963580351e-06
1.91644718484e-06
1.58697861457e-06
3.90016784842e-06
3.64767659936e-06
1.83414947173e-05
5.88384250108e-06
1.27185058145e-05
2.190696239e-06
5.54761902049e-06
1.76551774432e-05
2.46365741173e-05
2.49746831555e-05
1.23463217826e-06
4.72583323901e-05
4.39375188578e-05
8.04337893662e-05
7.54507559083e-05
3.00192690106e-05
1.95713819074e-05
1.18202368222e-06
8.34169058141e-08
2.03619400772e-06
4.63412255071e-06
9.88513593462e-07
2.18929711108e-06
2.27728730329e-06
7.62301057921e-07
1.65261237702e-06
1.82831974305e-05
1.13457895745e-05
2.76322804242e-06
2.62836480339e-06
6.59707830519e-07
1.63854551992e-06
8.4882524589e-06
7.39189688946e-06
1.17279322151e-05
8.23931949107e-06
1.02683034417e-05
7.20538523965e-06
9.31895163671e-06
8.3319857612e-06
1.01265638857e-05
6.66335508005e-06
8.88450729215e-06
7.17904618353e-06
1.7130572355e-05
1.17649983638e-06
2.11057179812e-06
3.63261369548e-06
1.85372344531e-05
1.84791065201e-05
2.75831431389e-05
4.96186093609e-06
4.61452299074e-06
4.08530486901e-06
1.61283961241e-06
1.7199926636e-05
1.24447195768e-05
1.01308894519e-05
1.00772500023e-05
5.51475462857e-07
2.88481503563e-06
2.9913343711e-06
5.39306645264e-06
9.38549246165e-06
9.2727229945e-06
4.08758361347e-06
4.55291296336e-06
3.7945245139e-06
1.58170236169e-05
1.71374902536e-06
1.87528810664e-06
3.14975337742e-06
2.73541951757e-06
1.59991137768e-05
2.99521253873e-06
5.2135585701e-06
1.20394073009e-05
1.59932048514e-05
5.26965541428e-06
6.43516340613e-06
5.50474159633e-06
7.51553433393e-06
2.27311199709e-06
1.55638574696e-08
3.75628145045e-07
3.07973438425e-06
2.49547254843e-06
4.29569120371e-07
1.71014124079e-08
1.58567804762e-07
4.13501599379e-07
9.3589069632e-09
9.1416672399e-07
8.24697230039e-07
2.77603040679e-06
2.57350660733e-07
3.48046348969e-07
2.96107042649e-06
2.52990720503e-06
5.54518945902e-07
1.76638894816e-08
9.28207259699e-07
1.58179841612e-06
1.76643479043e-06
1.84396876261e-08
1.60766180966e-06
3.5793073425e-06
2.86715172213e-06
1.40434904015e-06
1.7787248589e-06
3.71181879571e-06
4.33006165479e-07
2.03856997608e-06
3.01027397108e-06
4.41226461528e-06
2.51842104244e-06
3.74923281217e-06
3.32732516019e-06
8.20763070821e-06
9.02721617292e-06
1.18668815817e-05
6.02407753329e-06
7.78008413157e-06
7.41258802144e-06
1.19447996897e-05
1.13921249177e-05
1.32338164454e-05
8.30349619631e-06
4.56577223229e-06
1.07919712971e-05
7.17029901628e-06
7.86987116261e-06
2.19263965236e-06
4.23391685146e-06
8.94748967221e-07
4.80645769913e-07
1.11695171086e-06
1.33045848096e-06
2.07577495822e-06
1.40186638785e-06
1.29561124339e-06
1.20911656591e-06
1.84183327052e-06
2.19224057151e-06
8.84499602791e-07
2.06321183705e-06
2.69970768488e-06
1.46575101018e-06
2.41136979544e-06
2.19546471681e-06
1.8801733348e-06
3.59566307243e-06
1.25002338156e-06
2.27698050469e-07
7.2137348094e-07
1.98943042825e-06
9.59500202866e-07
2.20793092749e-06
1.97975159576e-06
1.16965065752e-06
5.79345302309e-10
2.7542109165e-07
3.67804900872e-07
1.02327758406e-06
9.77922716941e-07
1.77286947778e-07
1.19982247683e-06
4.80826605512e-06
1.91631647715e-06
2.63433546681e-07
5.10507279797e-07
4.43024545678e-06
1.84909076669e-06
3.79426668213e-09
1.18333125794e-07
4.18213477925e-07
1.2530834699e-06
3.05823349944e-07
2.12868804112e-07
1.60241238411e-07
7.57721599964e-07
1.05591101032e-07
8.61057230871e-07
1.02891264373e-06
6.6989733712e-07
7.53698902566e-07
3.36916220054e-08
1.39020587776e-06
6.65463599322e-07
3.56590668888e-07
6.87611916993e-07
2.13283760587e-07
1.53259415788e-06
8.28682884049e-07
1.00465791759e-06
1.55539645101e-06
3.68506951174e-07
7.00272185888e-07
2.38101563662e-06
1.64259924601e-06
2.29837086833e-06
5.17904289234e-07
1.23186020141e-07
6.88308652325e-06
1.3745567199e-05
1.26465540397e-05
2.71054677982e-06
6.45054696578e-06
4.56033738737e-06
3.44869283698e-06
3.80988861322e-06
2.0064925169e-06
9.94823245495e-07
1.74955124448e-06
1.90776499295e-06
2.47741249858e-06
7.3051686294e-07
3.02842322693e-07
2.92000373748e-07
6.46550499251e-07
1.2808576386e-07
1.05011565696e-07
3.69784017603e-07
7.9072488853e-07
2.72742177668e-08
1.44001928438e-07
4.94453902091e-07
2.64561790929e-06
3.47145211808e-06
7.22218189954e-07
1.39756273599e-07
5.3767956567e-07
5.85290181062e-07
5.16109157846e-07
7.15698642657e-07
3.42693345215e-07
3.78645569257e-07
1.49265005478e-07
7.63173938121e-07
8.01127395337e-07
3.8117038186e-07
2.23263671401e-07
6.59617266213e-08
1.30567120593e-07
6.42614797955e-08
1.10985233185e-07
3.39512733112e-07
3.07957888372e-07
7.30631497322e-07
7.34122495378e-07
4.06227564066e-06
2.25762058839e-06
2.18081884151e-06
6.17479730291e-06
3.59779873054e-06
3.9221967372e-06
5.49309399759e-06
2.88316465837e-06
2.4409064007e-06
3.4516872371e-07
1.76173325569e-06
1.95724308373e-06
3.22405012017e-07
8.3125616491e-07
4.0361635579e-07
5.33742233339e-07
1.39593586265e-06
3.98741450884e-06
1.94609055675e-06
3.0566664816e-06
1.85070139048e-06
1.11077262003e-06
1.13041896894e-06
1.31403328011e-06
1.32323558401e-06
1.22579762174e-06
8.30748344018e-07
5.83877660299e-07
8.07851322482e-07
4.09246611703e-07
7.91040525724e-07
3.07895466368e-08
3.05959424691e-08
1.13099915068e-06
1.0145359806e-06
7.26369148494e-07
1.41211669332e-06
1.63213575684e-06
1.5162640876e-06
8.53907744186e-07
5.33556855285e-07
4.13723204089e-07
2.56671766799e-07
3.18714250254e-07
1.64873914596e-06
1.54547672872e-06
6.20754719806e-07
5.70760451452e-07
1.01061185119e-07
6.54874817831e-07
1.1772186765e-06
1.49277200338e-06
1.59677468129e-06
1.52141437473e-06
1.35101036508e-06
2.94843232455e-06
3.27924891944e-06
1.40949075153e-05
7.08985656332e-06
2.20101088277e-05
1.73976666807e-06
1.31604810253e-06
5.73234372537e-06
6.26812244952e-06
1.38037775434e-05
1.76928368321e-06
5.81080113482e-06
4.28920740269e-06
9.24116225074e-07
4.39278060299e-07
7.44208165785e-07
2.48062678402e-06
9.00269903732e-08
3.30174995074e-07
2.03018989888e-06
9.91505430936e-07
1.54421401109e-06
4.98422846754e-07
1.30461752578e-07
2.47546935763e-06
5.28275540518e-06
5.10972994294e-06
1.06516669112e-05
9.56663591927e-07
5.3991917644e-06
1.04961827221e-05
4.61124601461e-06
2.1703682586e-05
1.14869825081e-05
1.23441605915e-05
2.95596086732e-06
1.07954172604e-06
2.76231082547e-06
3.24000369221e-06
2.76475565334e-06
6.14862858463e-06
1.92890020488e-06
5.01949912654e-07
3.60228685462e-06
2.49488079909e-06
4.51986059956e-06
1.52822219406e-06
9.28787414958e-07
8.52660619151e-07
2.0580562714e-06
8.99918992895e-07
1.20232726337e-06
1.43749504281e-06
1.86718035215e-06
1.81591507937e-06
1.90147054213e-07
2.210780836e-07
8.51969262408e-08
1.10856587101e-07
5.17625083873e-08
1.95357139717e-07
1.51008534078e-06
8.29002346466e-07
1.16894290508e-06
8.69172977705e-08
9.39149586602e-07
2.40936505191e-06
1.27850342358e-06
2.08228332439e-06
9.57977360637e-07
9.83748332276e-07
7.83212945656e-07
6.52513836554e-07
8.04836060043e-07
1.00118002534e-06
2.04981442556e-06
3.20230551334e-06
2.4855822714e-06
2.37885377871e-06
2.4990481599e-06
1.6517078662e-06
7.13510468276e-07
6.16366068505e-07
1.41128798788e-06
2.85025800816e-06
5.73466426211e-06
8.42336098836e-06
3.32304354436e-06
1.72063885205e-06
2.16075551653e-07
5.40229207241e-08
1.86292192552e-05
1.74451865268e-05
2.19135080894e-05
1.46545129072e-06
4.32350025711e-07
2.51997737002e-06
1.31532026072e-06
1.95653958196e-06
8.58026705275e-08
2.83195831294e-08
2.73694003574e-06
3.22555094518e-06
5.32055565844e-07
9.3346621492e-06
3.2357383215e-06
3.55397034014e-06
2.43990717885e-06
1.81610286845e-06
2.86903346155e-06
9.5881106937e-07
7.75627775713e-07
1.33561220609e-07
3.27686890504e-07
2.06727346869e-06
6.78173700992e-08
7.88430706813e-09
2.68280499769e-08
6.92456262458e-09
1.53768042051e-07
1.08419223674e-07
4.81647289675e-07
3.41170146509e-07
1.32958136118e-07
1.64372197696e-08
2.06198056672e-07
9.92481063571e-07
9.27417677849e-07
1.33047824975e-06
1.01688919545e-07
9.43309175606e-07
1.66948402571e-07
5.86947191954e-07
1.48197579551e-07
3.74799795488e-07
8.15811313694e-08
6.28351196679e-07
2.08140653142e-07
3.01667679527e-08
3.36132533656e-07
2.21238344183e-07
1.28249090347e-06
8.90705572811e-07
8.47953337374e-07
5.20097205444e-07
4.62771075783e-07
2.97875812835e-07
1.1382897282e-06
1.84878051412e-07
4.89178999839e-07
1.54505128737e-06
5.22573245133e-08
2.2380515e-06
2.06364007476e-06
5.4219411256e-07
1.15586317119e-06
5.52574745121e-06
4.57726928231e-07
3.51456596649e-07
4.66317791652e-07
5.91146925408e-07
5.42429520588e-07
5.02100295989e-07
7.44280874215e-07
7.07345641502e-07
7.56382004478e-07
6.98925926109e-07
1.02188507147e-06
8.36757688743e-07
7.83522125279e-07
6.9919401067e-07
5.42903617842e-07
1.98849688274e-06
3.87544400833e-08
5.65880193345e-07
6.72300680241e-07
6.83434766773e-07
8.17547924085e-07
6.11183180426e-07
4.67043345275e-07
4.16920560274e-07
1.04651051099e-06
1.10456788755e-06
1.93901816581e-06
1.08352442451e-06
1.56322721301e-06
1.71785798565e-06
1.15406650235e-06
1.26128909188e-06
8.90360170582e-07
3.79542386372e-06
1.049662876e-06
8.32828472855e-07
4.73263795379e-06
1.24415602962e-06
2.19245657095e-06
7.7215663533e-07
4.4311252862e-07
2.49415173424e-06
7.75189617236e-08
1.27829529502e-07
1.33045844524e-07
2.1501248067e-07
1.16291590276e-07
8.57990101535e-08
1.89817731084e-08
4.36481238966e-08
2.13310983287e-07
1.07999893844e-07
7.24208193726e-08
4.64256053664e-08
4.38947965045e-08
4.12884069592e-09
5.78381847975e-09
8.67194769986e-08
8.06168350582e-08
1.25024905661e-08
8.2021417417e-09
3.20643440537e-08
2.83837223937e-08
2.46886457594e-06
6.25192372724e-06
1.7549773637e-06
2.59115279651e-08
2.7160469592e-08
3.29905495605e-08
7.32252298283e-08
1.03316245826e-07
1.08407580838e-07
2.14160631962e-07
7.79766997321e-08
1.32786998717e-07
1.02845268624e-06
8.43668799755e-07
6.60290971421e-07
5.61810189919e-08
5.80808561406e-08
1.69389758863e-07
3.67860370163e-07
2.14142648447e-07
1.62979096834e-07
9.01757169947e-08
3.33619681032e-08
2.02538988857e-06
5.56351759918e-06
3.21896072371e-07
2.39047842174e-06
1.84052467318e-06
2.84683021906e-06
3.60154569815e-07
5.93095371911e-07
1.72070095618e-06
1.25918380221e-06
2.96909827156e-06
1.13515512931e-06
6.82107162969e-06
1.47240612811e-06
4.36619571423e-06
7.6338708438e-07
9.42621655209e-06
9.48061692184e-06
2.89424231373e-05
1.13553850032e-05
2.33957269369e-05
8.60033682164e-06
1.46018990935e-05
1.95251814812e-05
3.39839335264e-05
2.83742129321e-05
1.12894044423e-05
5.96157299704e-06
9.61130967141e-06
5.51216538369e-06
5.98128680752e-06
5.25566767036e-06
3.8036427559e-06
5.81978108755e-06
7.41927665428e-06
1.15199454973e-05
1.32483191212e-05
7.48857947886e-06
3.92748068174e-06
1.48619252648e-06
3.04369927314e-06
9.79651666942e-07
3.07728259304e-06
5.46738092668e-06
4.48897955717e-06
1.45692384579e-05
1.05957680438e-05
7.98147363352e-06
4.30065879694e-07
7.26216236141e-07
7.23232738303e-07
7.76929234745e-07
4.43132352204e-06
2.77976764633e-06
6.51022130894e-06
3.97960452751e-06
6.03028160832e-06
7.00810743285e-06
1.2241363594e-05
1.85093755297e-05
1.21740646312e-05
4.58021724087e-06
1.20927461307e-06
5.24839059803e-06
1.16194922414e-07
4.7181817811e-06
6.34533696319e-06
3.39406676729e-06
2.14645467352e-06
1.44082628139e-06
8.29060205816e-07
2.76466197485e-07
3.19579673885e-07
2.74988870288e-07
5.65158376799e-07
1.63147376807e-06
1.29919299442e-06
5.86131114917e-07
3.99299365311e-07
6.30452003979e-07
4.42835016407e-07
1.13837229462e-06
1.39874017209e-06
1.96499336054e-06
1.01755925846e-06
8.00940545667e-07
2.96399167573e-07
8.61710262357e-08
7.98758109936e-08
2.36333766717e-07
4.76397936604e-07
6.89338628821e-07
7.40989191541e-08
2.13278981632e-07
2.17899043691e-07
2.08671362167e-07
2.68344741379e-07
6.59575999364e-07
5.9065123073e-07
7.96604299249e-07
6.76956093717e-07
4.73089654485e-07
1.15272256693e-06
3.00141825044e-07
6.74942221687e-07
5.89259536378e-08
3.3125002396e-07
1.84547190231e-07
8.8079808818e-08
2.96355119223e-07
1.11765391124e-07
1.73721877106e-07
9.04673785684e-07
1.53262048011e-06
2.08606557824e-06
2.06792140145e-06
1.64857000941e-06
8.00008626062e-07
9.31696729762e-07
1.78089926433e-07
2.96511911456e-07
1.60345955614e-07
9.13271069144e-07
1.20158883299e-06
1.65729302463e-06
7.40559882556e-07
4.75973688436e-07
2.3797920371e-07
5.58394648936e-09
1.09778898828e-06
2.27448648741e-07
1.1192816566e-06
6.76655436241e-07
9.18039426729e-07
5.85343224226e-07
6.5725866517e-07
1.03809484177e-06
1.42913229593e-06
1.46574502915e-07
6.82474777522e-07
8.30099111461e-07
9.74465085661e-07
1.26560668077e-06
6.37890145288e-07
4.58605879874e-07
2.61820833847e-07
2.34636155885e-06
3.96092881014e-06
3.58475542377e-06
6.54031485015e-06
1.09224772824e-06
4.00276687276e-06
1.5313076927e-06
3.03684851826e-07
3.91728501764e-08
1.45329585653e-06
1.99562128597e-06
3.4451586658e-06
2.70009797712e-06
1.84090633267e-06
1.9490933576e-06
2.27872907086e-06
2.5983759883e-06
3.45075720205e-06
1.01696933259e-06
3.44568334111e-06
5.74988269904e-06
8.33403963873e-07
3.50015600142e-06
2.10280949758e-06
2.68333421538e-07
4.79296771801e-07
1.9092427238e-06
5.67944223344e-07
9.19294294648e-07
5.8146211008e-07
1.64804113449e-07
9.99768736973e-07
8.47856137467e-07
5.21999262396e-08
8.07656118802e-08
6.37071605595e-07
1.35618381002e-07
9.7829623765e-07
8.84247709681e-07
5.01522308709e-07
5.18574958172e-08
2.97049397784e-07
7.77900580765e-07
3.91751976109e-07
7.03016357498e-07
3.89236564837e-07
3.60259562591e-07