# vtk DataFile Version 3.0
File Name: Molecule/arg/arg_5.0-0.vtk
ASCII
DATASET UNSTRUCTURED_GRID
FIELD FieldData 1
TIME 1 1 double
0.0
POINTS 823 double
-3.403 0.327 1.604
-3.45 0.103 1.078
-3.138 0.005 1.702
-3.183 -0.208 1.2
-2.981 -0.361 1.858
-3.028 -0.584 1.332
-3.298 -0.003 0.536
-3.038 -0.309 0.683
-2.876 -0.691 0.79
-2.971 0.024 0.066
-2.725 -0.284 0.235
-2.549 -0.664 0.32
-2.984 0.046 0.042
-2.617 -0.045 -0.207
-2.63 -0.024 -0.229
-2.351 -0.22 -0.527
-2.365 -0.198 -0.55
-2.2 -0.483 -0.862
-2.216 -0.458 -0.889
-3.25 0.578 -0.258
-2.686 0.062 -0.328
-2.904 0.498 -0.574
-2.48 -0.047 -0.742
-2.684 0.361 -0.973
-2.39 -0.269 -1.153
-2.617 0.185 -1.409
-3.173 1.207 -0.458
-2.84 1.014 -0.738
-2.625 0.846 -1.127
-2.55 0.723 -1.58
-2.776 1.74 -0.497
-2.515 1.451 -0.77
-2.319 1.256 -1.157
-2.211 1.177 -1.613
-2.622 1.932 -0.429
-2.434 1.563 -0.734
-2.291 1.743 -0.67
-2.16 1.459 -1.077
-2.01 1.647 -1.011
-1.982 1.439 -1.492
-1.81 1.654 -1.416
-2.666 2.281 -0.134
-2.046 2.135 -0.548
-2.085 2.448 -0.283
-1.615 2.438 -0.879
-1.659 2.787 -0.585
-2.622 2.533 0.247
-2.045 2.674 0.059
-1.614 3.039 -0.203
-2.495 2.657 0.67
-1.932 2.785 0.438
-1.488 3.163 0.22
-2.925 2.572 1.071
-2.251 2.77 1.005
-2.634 2.694 1.361
-2.033 3.002 1.293
-2.411 2.928 1.645
-1.863 3.333 1.507
-2.279 3.251 1.894
-3.186 2.284 1.521
-2.865 2.437 1.761
-2.64 2.674 2.039
-2.53 2.972 2.328
-3.419 1.801 1.788
-2.888 2.359 1.917
-3.122 1.876 2.185
-2.717 2.558 2.345
-2.979 2.017 2.644
-3.567 1.179 1.827
-3.202 1.735 2.161
-3.333 1.184 2.196
-3.094 1.732 2.585
-3.223 1.188 2.619
-3.107 1.793 3.017
-3.25 1.192 3.055
-3.408 0.559 1.798
-3.191 0.635 2.17
-3.084 0.647 2.593
-3.095 0.593 3.027
-3.105 0.348 2.085
-3.1 0.088 1.867
-2.97 0.105 2.152
-3.02 0.504 2.546
-2.901 0.29 2.606
-2.978 0.383 3.085
-2.865 -0.346 2.113
-2.52 -0.7 2.425
-2.789 -0.06 2.411
-2.48 -0.378 2.69
-2.828 0.19 2.745
-2.523 -0.123 3.02
-2.645 0.041 3.387
-2.46 -1.117 2.184
-2.148 -0.9 2.844
-2.09 -1.3 2.613
-2.003 -1.142 3.367
-1.937 -1.6 3.103
-2.268 -1.45 1.888
-1.906 -1.62 2.328
-1.726 -1.965 2.777
-1.967 -1.659 1.57
-1.617 -1.821 2.023
-1.396 -2.195 2.428
-1.592 -1.721 1.268
-1.257 -1.88 1.733
-0.984 -2.263 2.097
-2.026 -1.588 0.931
-1.351 -1.766 0.91
-1.757 -1.641 0.594
-1.133 -1.941 0.578
-1.555 -1.812 0.25
-0.96 -2.23 0.303
-1.437 -2.084 -0.068
-2.342 -1.257 0.596
-2.053 -1.332 0.28
-1.861 -1.491 -0.075
-1.784 -1.721 -0.435
-2.487 -0.785 0.321
-2.189 -0.889 0.022
-2.002 -1.032 -0.342
-1.943 -1.202 -0.738
-2.264 -0.668 -0.026
-2.322 -0.554 -0.027
-2.141 -0.611 -0.433
-2.203 -0.492 -0.433
-2.131 -0.618 -0.861
-2.114 -0.682 -1.181
-1.927 -1.264 -1.052
-2.312 -0.441 -1.376
-2.121 -0.506 -1.916
-2.042 -0.816 -1.214
-1.838 -0.886 -1.79
-1.682 -1.348 -1.746
-1.975 -0.256 -2.322
-1.864 -0.768 -1.888
-1.672 -0.441 -2.421
-1.897 0.192 -2.527
-1.57 0.147 -2.691
-1.996 0.646 -2.441
-1.495 0.306 -2.776
-1.602 0.798 -2.682
-1.198 0.386 -3.152
-1.328 0.981 -3.039
-2.011 1.039 -2.18
-1.619 1.224 -2.399
-1.348 1.496 -2.696
-1.72 1.257 -2.235
-1.479 1.817 -1.75
-1.107 2.057 -2.211
-1.346 2.153 -1.415
-1.642 2.007 -1.116
-1.319 2.584 -1.178
-0.816 3.013 -1.267
-1.111 2.259 -1.642
-0.623 2.675 -1.729
-0.543 2.537 -2.312
0.466 3.148 -0.891
-0.416 2.926 -1.599
0.331 3.005 -1.38
-0.131 2.956 -2.042
0.328 3.005 -1.907
-0.002 3.1 -2.533
0.456 3.148 -2.398
-0.048 3.337 -3.001
0.699 3.415 -2.782
0.833 2.913 -0.61
0.619 2.806 -1.364
0.976 2.577 -1.092
0.892 2.689 -1.891
1.303 2.425 -1.576
1.057 2.557 -0.305
1.192 2.232 -0.796
1.553 2.026 -1.234
0.979 2.767 0.195
1.24 2.204 -0.113
1.167 2.404 0.362
1.539 1.918 0.039
1.462 2.128 0.539
0.737 2.845 0.68
0.936 2.478 0.823
1.22 2.206 1.024
0.406 3.093 0.833
0.71 2.572 1.142
0.419 2.789 1.277
0.841 2.425 1.643
0.539 2.651 1.783
1.112 2.426 2.108
0.748 2.699 2.276
0.011 3.456 0.651
0.142 3.058 1.218
-0.201 3.373 1.06
-0.01 3.117 1.656
-0.348 3.428 1.5
-0.034 3.266 2.099
-0.415 3.616 1.924
-0.504 3.599 0.465
-0.648 3.497 0.898
-0.789 3.55 1.341
-0.913 3.754 1.744
-1.038 3.495 0.311
-1.112 3.406 0.765
-1.247 3.461 1.209
-1.429 3.653 1.595
-1.502 3.118 0.685
-1.632 3.177 1.131
-0.05 3.403 2.531
0.304 2.919 2.221
0.288 3.057 2.654
0.729 2.855 2.766
-0.175 3.437 2.964
0.162 3.091 3.09
0.587 2.894 3.259
-0.395 3.364 3.353
-0.059 3.019 3.48
0.337 2.812 3.701
-0.687 3.194 3.654
-0.352 2.847 3.783
0.006 2.617 4.044
-1.13 3.18 3.766
-0.58 2.815 3.881
-1.094 2.799 4.011
-1.584 3.151 3.721
-1.62 2.766 3.959
-1.995 3.111 3.523
-2.096 2.719 3.73
-2.312 3.063 3.198
-2.464 2.664 3.352
-2.498 3.015 2.783
-2.679 2.608 2.871
-0.832 2.373 4.277
-0.242 2.183 4.431
-1.061 1.806 4.483
-0.466 1.628 4.634
-1.364 2.231 4.354
-1.452 1.611 4.604
-1.713 1.977 4.492
-1.735 2.528 4.103
-2.033 2.233 4.276
-2.128 2.66 3.763
-2.373 2.347 3.982
-2.496 2.611 3.374
-2.69 2.305 3.646
-2.791 2.388 2.985
-2.945 2.113 3.311
-1.464 1.095 4.666
-0.956 1.592 4.533
-0.968 1.074 4.596
-0.48 1.041 4.705
-1.655 0.731 4.634
-1.079 0.886 4.596
-1.26 0.541 4.565
-0.689 0.687 4.666
-0.881 0.322 4.633
-0.333 0.517 4.869
-0.555 0.096 4.831
-2.027 0.463 4.516
-1.383 0.368 4.531
-1.728 0.119 4.423
-1.114 -0.009 4.584
-1.476 -0.27 4.469
-0.878 -0.357 4.785
-1.3 -0.661 4.651
-2.342 0.241 4.242
-2.019 -0.087 4.169
-1.783 -0.487 4.202
-1.658 -0.914 4.34
-2.557 0.093 3.848
-2.219 -0.224 3.803
-1.993 -0.631 3.818
-1.903 -1.082 3.892
-2.301 -0.273 3.375
-2.078 -0.682 3.368
-0.557 -0.612 4.999
-0.228 -0.165 5.05
-0.202 -0.89 5.102
0.134 -0.447 5.155
0.164 -1.171 5.088
0.507 -0.734 5.141
0.37 -1.612 4.973
0.615 -0.976 5.092
0.811 -1.395 4.983
1.043 -0.806 5.264
1.249 -1.247 5.15
0.578 -1.993 4.725
1.008 -1.757 4.747
1.457 -1.629 4.901
0.77 -2.282 4.364
1.191 -2.031 4.405
1.649 -1.918 4.541
0.93 -2.454 3.923
1.343 -2.194 3.985
1.809 -2.089 4.099
1.044 -2.494 3.437
1.451 -2.232 3.524
1.923 -2.129 3.613
1.103 -2.399 2.949
1.506 -2.141 3.061
1.981 -2.034 3.126
1.1 -2.176 2.501
1.504 -1.93 2.635
1.979 -1.811 2.678
1.037 -1.846 2.131
1.444 -1.616 2.284
1.916 -1.481 2.307
0.647 -2.269 2.118
0.836 -1.714 1.711
0.512 -2.064 1.7
0.77 -1.662 1.233
0.47 -1.987 1.224
0.848 -1.697 0.757
0.525 -2.047 0.746
1.061 -1.813 0.337
0.67 -2.236 0.324
0.119 -2.499 2.107
0.075 -2.255 1.691
0.064 -2.164 1.215
0.088 -2.237 0.737
0.142 -2.466 0.313
-0.457 -2.497 2.099
-0.401 -2.253 1.685
-0.378 -2.162 1.209
-0.389 -2.235 0.73
-0.434 -2.464 0.306
-0.837 -2.059 1.682
-0.782 -1.983 1.207
-0.825 -2.042 0.728
1.48 -1.078 0.031
1.032 -1.487 0.709
1.333 -0.958 0.489
1.12 -1.273 1.146
1.358 -0.854 0.972
1.315 -1.197 1.595
1.553 -0.779 1.421
1.592 -1.27 1.999
1.893 -0.741 1.779
2.335 -0.746 2.002
1.639 -0.712 -0.547
1.476 -0.549 0.311
1.615 -0.229 -0.195
1.697 -0.118 0.66
1.842 0.216 0.134
1.696 -1.15 -0.796
1.805 -0.426 -1.067
1.856 -0.818 -1.29
2.201 -0.141 -1.444
2.256 -0.562 -1.683
1.615 -1.54 -1.111
1.784 -1.167 -1.572
2.179 -0.936 -1.985
1.405 -1.841 -1.462
1.595 -1.437 -1.886
1.977 -1.225 -2.321
1.085 -2.024 -1.812
1.309 -1.6 -2.199
1.67 -1.4 -2.657
0.689 -2.07 -2.126
0.955 -1.641 -2.48
1.29 -1.444 -2.958
0.256 -1.974 -2.373
0.567 -1.556 -2.702
0.875 -1.352 -3.195
-0.171 -1.746 -2.529
0.186 -1.352 -2.841
0.466 -1.134 -3.344
-0.548 -1.409 -2.576
-0.152 -1.05 -2.884
0.104 -0.811 -3.39
-0.822 -1.287 -2.506
-0.408 -0.948 -2.806
-0.669 -0.831 -2.739
-0.336 -0.591 -3.197
-0.616 -0.466 -3.125
-1.31 -1.347 -2.194
-0.988 -0.705 -2.664
-1.485 -0.767 -2.346
-1.322 -0.31 -2.728
-0.95 -0.071 -3.189
-0.311 -0.212 -3.619
0.128 -0.454 -3.788
-0.16 0.24 -3.931
0.27 -0.03 -4.081
0.101 0.716 -4.098
0.516 0.418 -4.238
-0.411 1.252 -3.909
0.377 1.347 -4.4
0.11 1.626 -4.301
-0.398 1.946 -3.588
0.117 1.987 -4.134
-0.712 2.237 -2.975
-0.106 2.463 -3.53
-0.314 2.656 -3.124
0.028 3.029 -3.665
-0.135 3.18 -3.347
-0.202 2.855 -2.684
0.9 3.106 -3.671
0.173 2.486 -3.833
0.85 2.546 -3.838
0.989 2.064 -4.14
0.819 3.383 -2.845
1.267 2.733 -3.406
1.204 2.948 -2.765
1.749 2.404 -3.353
1.668 2.681 -2.526
0.902 2.914 -2.485
0.749 2.956 -2.405
1.123 2.627 -2.01
1.688 2.19 -1.733
1.962 2.454 -2.382
2.133 1.624 -1.992
2.194 2.159 -2.516
2.141 1.301 -1.585
2.428 1.273 -2.257
2.435 0.969 -1.874
2.042 0.907 -1.262
2.342 0.599 -1.57
1.911 1.516 -1.257
1.884 0.909 -0.851
1.768 1.444 -0.847
1.861 0.913 -0.411
1.75 1.425 -0.407
1.976 0.918 0.014
1.858 1.462 0.018
1.454 1.892 -0.826
1.449 1.855 -0.388
1.867 0.812 -0.4
1.753 0.215 -0.299
1.896 0.717 -0.83
1.788 0.151 -0.734
2.06 0.644 -1.234
1.942 0.027 -1.129
2.566 1.229 -2.871
2.241 1.687 -2.422
2.339 1.656 -2.857
2.27 2.135 -2.856
2.341 1.264 -3.459
2.179 1.681 -3.275
2.146 2.154 -3.181
1.83 1.363 -3.817
1.817 1.751 -3.528
1.863 2.209 -3.379
1.605 0.935 -4.222
1.413 1.57 -3.947
1.254 1.267 -4.234
1.103 1.869 -4.167
0.979 1.632 -4.39
1.11 0.579 -4.381
0.902 1.014 -4.346
0.705 1.435 -4.478
0.482 0.901 -4.245
1.404 2.01 -3.684
1.315 2.161 -3.664
2.007 0.383 0.735
1.733 -0.159 1.085
2.004 0.279 1.15
1.861 -0.287 1.473
2.124 0.139 1.536
2.068 -0.489 1.788
2.355 -0.024 1.857
2.675 -0.196 2.083
2.074 0.941 0.928
2.063 0.767 1.319
2.181 0.613 1.7
2.417 0.492 2.036
2.749 0.417 2.295
1.884 1.434 1.198
1.897 1.199 1.555
2.02 1.032 1.93
2.241 0.95 2.287
2.541 0.959 2.592
1.624 1.884 1.117
1.755 1.469 1.75
1.503 1.904 1.671
1.842 1.579 2.299
1.557 2.073 2.21
1.11 2.216 1.58
1.886 1.845 2.759
2.132 1.224 2.493
2.174 1.477 2.929
2.585 1.225 3.051
1.814 2.002 3.263
2.105 1.625 3.407
2.513 1.382 3.555
1.633 2.033 3.763
1.933 1.655 3.881
2.331 1.413 4.055
1.359 1.937 4.21
1.674 1.563 4.305
2.058 1.316 4.502
1.021 1.721 4.561
1.354 1.359 4.638
1.72 1.101 4.853
0.651 1.408 4.781
1.002 1.062 4.847
1.35 0.788 5.074
0.073 1.245 4.841
0.82 0.891 4.947
0.23 0.725 5.008
0.672 0.387 5.179
1.205 0.294 5.301
0.564 -0.173 5.245
1.099 -0.256 5.367
-1.834 2.927 0.971
1.396 -0.602 0.696
1.678 -0.195 -0.741
-2.913 1.955 -0.341
-3.327 1.641 -0.268
-3.327 2.032 -0.008
-2.913 2.297 -0.026
-3.327 2.292 0.383
-2.913 2.519 0.384
-3.327 2.384 0.843
-3.656 1.544 0.048
-3.656 1.916 0.37
-3.656 2.055 0.843
-3.656 1.916 1.316
-3.867 1.641 0.843
-3.867 1.411 1.241
-3.656 0.342 1.089
[...]
CELL_DATA 1642
SCALARS cell_data_0 double
LOOKUP_TABLE default
1.90831188685e-06
3.6107573462e-06
1.85150105316e-06
1.9560667405e-06
4.1282629008e-06
4.04847523914e-06
3.71296780911e-06
2.60702811573e-06
2.17882016419e-06
1.31811648505e-06
2.01242229294e-06
4.43493937212e-07
2.14021739671e-08
5.49321096184e-08
7.65609678859e-08
8.45761313203e-08
4.80547021702e-08
1.12781802249e-07
3.86230723074e-06
5.68543283184e-06
3.91911054191e-06
4.42343372359e-06
1.0671300881e-06
1.24342448625e-06
1.00132891049e-05
8.14761197599e-06
6.5330990925e-06
6.49367223677e-06
4.3994485933e-06
4.88418448664e-06
7.31180930455e-06
5.99183510847e-06
8.77626876653e-06
5.68963008977e-06
4.2045785348e-06
8.22128260948e-07
6.64968274319e-07
5.44789217621e-07
3.26520690073e-07
3.92126669505e-07
1.00997376619e-07
5.97601981482e-07
7.61288038564e-06
6.9697682699e-06
1.9795675699e-06
2.01848283936e-06
7.90669950677e-06
4.39205848047e-06
4.18435545582e-06
6.93665597332e-06
6.68243078727e-06
6.51079639164e-06
6.98382031735e-06
6.84418361448e-06
2.35080847001e-05
1.89462859305e-05
2.34440779873e-05
2.18642665957e-05
2.43490481769e-05
7.82227607569e-06
1.51696370855e-05
5.69701666205e-06
8.9935301193e-06
1.4032838514e-05
9.4872844237e-06
1.07007473758e-05
3.23163938353e-06
6.77596298301e-06
5.23634121896e-06
4.8610159971e-06
8.01349834236e-06
5.64412260739e-06
4.3775763407e-06
1.8651546327e-06
2.2669354334e-06
2.73045918952e-06
3.92539436441e-06
2.14004748935e-06
1.70473890064e-06
1.46467502959e-06
1.79621042143e-06
3.15495070765e-06
4.84308112053e-07
2.36279924468e-08
4.54397415695e-07
4.45322789706e-07
9.24435166726e-07
8.83238233766e-07
7.11513367336e-07
1.68893186891e-07
6.68468613958e-07
4.55414886501e-08
1.18151386968e-07
9.39229384775e-08
2.18703095357e-07
1.55248565642e-07
6.31019294249e-07
1.7823077958e-06
3.77512750088e-06
3.27387913311e-06
7.40539600184e-07
1.32933119055e-06
2.0126967183e-06
1.81700084247e-06
7.44371415165e-07
1.20116488416e-06
1.43566094419e-06
1.16571037602e-06
8.94947505576e-07
1.16153966284e-06
1.07587354388e-06
7.82566697039e-08
8.42415981011e-07
8.09266851779e-07
1.20933489566e-06
1.14211476973e-06
1.22792565206e-06
1.05380524094e-06
6.21539029262e-07
7.78140828089e-07
9.44846648346e-07
1.01451225767e-06
1.01400974976e-06
8.01389318253e-07
1.25468650751e-07
3.46312176232e-07
7.82196218953e-07
9.38377113759e-07
6.72882042039e-07
3.70179250155e-07
1.22650989407e-07
2.99600267983e-07
3.13693501203e-07
3.85211427764e-07
3.53222838885e-07
4.47281268145e-07
3.64908097002e-07
1.2767709389e-06
6.22544940239e-07
5.80644237825e-07
1.14056259381e-06
1.4354158738e-06
1.0120791875e-06
2.56288266974e-07
8.42157364808e-07
1.18070613571e-06
9.65552117024e-07
1.27967269602e-06
1.24172707501e-06
1.33271263496e-06
1.4183826045e-06
2.56187715157e-06
1.89635351026e-06
2.49639855709e-06
2.47244968973e-06
3.22901449249e-06
2.00796331017e-06
2.71405309709e-06
5.37727456071e-06
5.25041692582e-06
2.57411355258e-06
2.39865962571e-06
2.41966162661e-06
1.85458416881e-06
4.63241263319e-06
5.55165090811e-06
5.83926433325e-06
6.63012101218e-06
7.0896391319e-06
3.34558019209e-06
4.55790612501e-06
8.23575233199e-07
2.40575739071e-06
1.58758173962e-06
4.50778402269e-06
8.53484441898e-06
1.27145802538e-06
1.37348826701e-06
1.8731974795e-06
5.02546715658e-06
3.24514621291e-06
3.879775432e-06
4.02516020007e-06
5.22562984579e-06
2.49044213235e-06
2.12570994931e-06
2.16354870513e-06
2.22381140731e-06
1.90852113457e-06
1.79352235978e-06
2.03671134117e-06
1.9004328771e-06
1.58356594962e-06
1.38893255381e-06
1.4872777643e-06
1.07838290861e-06
1.31739538399e-06
1.73849541534e-06
9.65657779368e-07
5.69472731791e-07
3.5477702928e-07
4.01623058375e-07
4.71451701386e-07
4.49688663199e-07
6.31607304169e-07
4.9881420353e-07
5.19279126522e-07
4.34077385772e-07
3.17632134015e-07
2.65174524418e-07
5.48517101225e-07
4.7521099844e-07
4.18924913024e-07
3.00175501649e-07
2.5519548078e-07
1.18068215255e-07
4.96224362416e-07
2.48024307431e-07
2.98474204383e-07
1.70968701425e-07
1.85278945758e-07
1.09797584459e-06
5.77119786637e-07
4.9413306268e-07
1.24286171906e-06
1.57722859743e-06
9.0743111001e-08
2.42669788748e-07
4.72541767353e-07
3.59278742967e-07
1.24861792667e-06
2.47797944522e-06
1.92573689128e-06
6.68724148377e-06
2.26673534624e-06
7.30587184546e-07
4.49777316758e-06
3.27425611414e-06
2.65478163332e-07
9.85808202572e-08
3.40398601142e-08
1.01840121148e-07
3.01091172459e-08
4.0054974629e-08
9.54446930135e-08
1.2532671243e-07
6.54526347293e-09
2.36653675405e-08
1.35289966813e-06
2.75679743069e-06
1.77479731044e-06
2.83707083783e-06
2.96375463756e-06
1.79571290445e-06
1.10441973929e-06
4.25628908216e-06
7.51404832568e-06
1.10382599079e-05
1.92313325563e-05
1.80165109941e-05
2.73452647565e-05
2.0010225556e-05
2.26180375585e-05
1.56831133957e-05
9.34526399962e-06
6.61783407186e-06
2.76861443889e-06
4.50197096642e-06
4.38984325154e-06
1.92804703947e-06
2.01556816236e-06
2.01665265568e-06
2.1583678385e-06
9.22941280388e-07
8.81075486664e-07
6.06876941262e-07
2.88709216531e-07
2.20415013953e-07
1.15243547601e-07
3.88368252264e-07
9.05436560998e-07
1.00102799634e-06
1.10503377673e-06
1.94122101024e-06
8.52460787862e-07
4.05024183467e-06
3.44392725956e-06
7.22924805339e-06
5.39609836304e-06
4.67556062086e-06
4.98853285718e-06
3.00212293807e-06
4.25695628156e-06
1.34085366088e-06
3.61275750824e-06
9.46533330743e-07
6.19406770728e-07
6.34937516799e-07
4.97626536885e-07
1.39791838877e-06
2.49311273337e-06
1.9595818358e-06
2.32698525853e-06
1.13080671783e-06
1.96875531156e-06
2.1280272747e-06
3.84622409972e-06
3.65054687074e-06
2.85125722363e-06
2.26795499483e-06
3.05655496244e-06
3.16488536393e-06
3.19336935897e-06
6.20096783323e-06
3.2909198013e-06
2.03445145148e-06
3.84447251455e-06
1.90136810361e-06
1.13202665726e-06
1.36113343833e-06
7.96883955904e-07
1.90909483054e-06
2.01974330589e-06
5.92633505934e-07
7.68673874029e-07
1.89571812332e-06
1.17636831349e-06
6.90676749315e-07
1.48623340638e-06
1.36968107375e-06
6.14272801435e-07
5.96150576057e-09
2.56282728955e-07
5.16428341336e-07
3.03909265237e-07
7.37947334591e-07
6.35387957481e-07
5.89264477022e-07
9.63397266421e-08
2.20639478175e-06
4.34526212099e-06
1.9745931529e-06
8.87472349396e-07
2.55083919049e-06
2.68161190865e-06
4.67273990637e-07
5.76720367297e-07
5.90022792181e-07
5.90554776262e-07
7.13191208282e-07
7.07283475596e-07
7.96772547758e-07
6.81438251233e-07
8.4527075722e-07
8.34884164486e-07
6.94528972079e-07
8.16536712473e-07
6.03372059531e-07
6.50649176463e-07
4.0203722468e-07
5.09872768694e-07
5.30896882255e-07
2.33108758105e-07
5.85069946972e-07
1.23119148919e-06
5.07934359213e-07
2.94647942911e-06
1.76275587453e-06
6.08516722507e-07
1.9085110407e-06
5.26017396248e-06
4.45182916578e-06
3.016031879e-06
2.08875996957e-06
1.34402364708e-06
1.64362157242e-06
9.15500218376e-07
4.97745095024e-07
5.80812783134e-07
1.60236563139e-08
3.37638149013e-06
2.7372405664e-06
2.75205958035e-06
2.33712459735e-06
1.07218775262e-06
2.65333356202e-06
2.29384611357e-06
7.20025090585e-07
1.92444413608e-06
4.79303486196e-07
3.09913792047e-10
1.13160926603e-06
3.68347317065e-08
1.93018797838e-06
6.28172526455e-06
3.50986487352e-05
1.81242209693e-05
3.04488212068e-05
3.76505766565e-05
8.95464681103e-05
3.57320144638e-05
2.01722528994e-05
5.90074875195e-05
6.61666418077e-05
5.18180346631e-05
5.6049546632e-05
2.84664691759e-05
3.43897590372e-05
0.000107657036085
5.80585555236e-05
2.39197796216e-05
1.64704193384e-05
5.05028447655e-05
4.30651307703e-05
4.89750753817e-05
6.32775311116e-05
1.66539779439e-05
1.48804217476e-05
2.33869947081e-05
8.26340590735e-06
6.72712205838e-06
4.84061205001e-05
4.3952303869e-05
2.81684699208e-05
2.36609767171e-05
2.86358920774e-05
1.87004877181e-05
3.79635472985e-07
2.99323374259e-05
2.87043527767e-05
2.10025536642e-05
3.20992752976e-05
1.72624577032e-05
1.3586880016e-05
8.2219289562e-06
7.43857390972e-06
1.22329948047e-05
1.40228977988e-05
5.50824740858e-06
2.55859978316e-07
4.64641156811e-06
4.10942678941e-06
4.59523386326e-07
1.1609688528e-06
1.48021176946e-07
2.99039103988e-06
2.26042202706e-05
1.45172360639e-05
1.52233791715e-05
1.81583596566e-05
2.36969918852e-05
1.57506589285e-05
1.4950750481e-05
2.42085539629e-05
2.69945247397e-06
2.40425566883e-06
2.64391467905e-06
3.60824677258e-06
1.36146266923e-05
8.30149811515e-06
1.00463231259e-05
8.70136649075e-06
3.42761569912e-07
1.56143782839e-06
1.53720407981e-06
1.7596562207e-06
8.88165121002e-07
1.4080578713e-06
9.51416139739e-07
1.15162389585e-06
7.85023118911e-07
2.61986229184e-07
3.3561949971e-06
2.94098343347e-06
1.31328812041e-06
5.43330550722e-07
3.45528824649e-07
7.42588842496e-07
7.1167753617e-06
1.84395497009e-05
1.48309156011e-05
3.82844949653e-06
1.23834227744e-07
4.6707044118e-06
7.88696237197e-06
7.86361993013e-06
5.45095769025e-06
5.65128385643e-06
3.54515901278e-07
4.03014742166e-06
1.40557359419e-05
1.91331518102e-05
1.4955986497e-06
3.44912553351e-06
2.28776649462e-05
2.01645791415e-06
3.27793997372e-06
2.82977924302e-06
9.20773022178e-06
1.17417560668e-05
9.20521487895e-07
6.99017770107e-07
1.10921650018e-05
3.59841003163e-06
3.49912721716e-06
1.49182080831e-06
1.83753617512e-06
3.40936837032e-07
1.6221796024e-06
3.18230664931e-06
2.85221320899e-06
1.06122177362e-06
1.48717023158e-06
3.38916584049e-06
6.16845556427e-07
1.55717554279e-07
1.35408116461e-07
6.05610111674e-08
9.38212972608e-08
5.67642861312e-08
3.39332373423e-07
7.03427372689e-07
9.30479279086e-08
1.68843450522e-07
5.98754720455e-08
2.42705919895e-07
1.46339579185e-07
8.18037322767e-07
9.12842959206e-07
1.31849829862e-06
4.78778500958e-07
3.19781233098e-07
3.3356569447e-07
1.49721216661e-07
6.50194520224e-07
9.21855908938e-07
1.27487520861e-06
3.85191294873e-07
1.08036525223e-06
3.9450550544e-06
3.04572640612e-06
1.96091385947e-06
1.23514018994e-06
2.70837704224e-06
4.8618986949e-06
2.856350224e-07
2.81422853116e-06
4.73817143588e-06
1.51940098749e-06
1.25361027769e-06
4.61282576323e-07
1.42949580061e-06
7.69220754789e-07
1.60274825469e-06
4.15800534925e-06
2.79610345805e-06
2.85093897482e-06
4.18835501871e-06
2.4968360431e-06
1.4707831589e-06
2.09778035949e-06
1.78058099584e-06
7.84416136928e-07
5.51463079093e-07
7.38406085081e-07
3.20819207925e-07
8.69841848919e-07
7.9963920768e-07
1.24157141445e-07
8.40219424618e-07
5.38249640828e-06
2.34051454642e-06
4.61743152756e-07
5.11355852724e-07
4.63369703748e-06
1.5902593746e-06
1.54040434418e-08
4.51385796392e-08
3.91125549259e-07
1.02066122789e-06
3.05841358066e-07
2.14368624232e-07
1.61798717001e-07
7.57852675889e-07
1.05024924493e-07
8.59582775042e-07
1.02445681803e-06
6.74202200367e-07
7.51674659181e-07
4.06588985479e-08
1.39240568032e-06
6.65880984966e-07
3.57294218151e-07
6.90008258723e-07
2.14494485468e-07
1.53254253313e-06
8.25147486863e-07
1.00057585795e-06
1.55673123982e-06
3.63445595742e-07
7.03859093022e-07
2.3783071499e-06
1.64572162137e-06
2.34917535548e-06
1.08000155298e-06
1.39465756398e-07
7.46542960311e-06
1.30261907354e-05
1.41923307647e-05
4.85952859447e-06
7.590399978e-06
4.55692278107e-06
3.46132423519e-06
3.8275958924e-06
2.02614806476e-06
9.88766100146e-07
1.71961032469e-06
1.90128932646e-06
2.48244753692e-06
7.31131351953e-07
3.03346938133e-07
2.89793413575e-07
6.43309081148e-07
1.2698120857e-07
1.05170193893e-07
3.69668094122e-07
7.91061843925e-07
2.77084303775e-08
1.44292659741e-07
4.93007587973e-07
2.64744553641e-06
3.47133881421e-06
7.24365745499e-07
4.58119885866e-07
2.2515938228e-07
2.99752753305e-07
1.28767570307e-07
5.769625185e-07
1.19605725938e-06
1.00494809572e-06
1.47728842081e-07
7.62599692034e-07
8.01197124734e-07
3.80949609418e-07
2.23623667425e-07
6.5128724621e-08
1.31272114699e-07
6.43583853923e-08
1.10543050231e-07
3.41091665782e-07
3.0640536716e-07
7.2761364999e-07
7.35735709188e-07
4.07184536456e-06
2.2470254424e-06
2.16950800767e-06
1.97279037805e-06
1.18557733855e-06
1.23954411279e-06
5.50196387421e-06
2.88172837475e-06
2.44862450624e-06
2.63658585929e-06
1.00040641467e-06
2.98067991643e-06
3.15581787298e-07
8.20877462402e-07
4.10377694483e-07
3.05418453568e-06
1.94984628071e-06
3.63774785952e-06
1.74977658997e-06
3.05889182896e-06
1.03929057735e-06
6.54299991146e-07
7.1860790086e-07
1.31584559977e-06
1.32159216969e-06
1.22021771843e-06
8.16858086873e-07
5.80907577524e-07
8.00695195453e-07
4.0190773978e-07
7.83863972685e-07
3.09098498759e-08
3.12330369182e-08
1.13299732613e-06
1.01797920695e-06
7.33182482257e-07
1.41859290799e-06
1.63481090173e-06
1.51500269195e-06
8.55028892897e-07
5.34929004564e-07
4.14821191733e-07
2.60329616617e-07
3.20545838764e-07
1.64420120483e-06
1.54855461545e-06
6.68342998044e-07
6.97566373404e-07
1.43571609918e-06
5.65745634502e-07
5.89105200065e-07
3.49776626328e-06
1.25622700057e-06
6.37341722453e-07
1.74615291773e-06
1.7571555111e-07
8.058525484e-08
4.82979636768e-07
4.87321033483e-07
1.74308255791e-06
1.1755999578e-06
8.54648044831e-07
1.33979807987e-06
1.38839816092e-06
2.24344398555e-06
1.40792097476e-06
4.64977724696e-06
6.3034960855e-06
3.67838027376e-06
1.71628598725e-06
4.25674947388e-06
5.44181874759e-06
7.44545356699e-08
1.32897761269e-06
5.47991613519e-05
4.33941396629e-05
3.97944099826e-05
4.17199857405e-06
1.87973140081e-06
4.71580426149e-07
2.32816605453e-06
6.65926132069e-06
6.20833859819e-06
1.01240735542e-05
5.33384556585e-06
9.74220205585e-06
8.58564597348e-06
8.94763794559e-06
1.2579776287e-05
5.74780579368e-06
7.35168441239e-06
1.47375961661e-06
2.38283393534e-06
9.37411745172e-07
1.35257592206e-07
1.54302797357e-07
1.45851956485e-06
1.20050278476e-06
1.14311383277e-06
5.92702951472e-06
5.90795274954e-06
8.42490291383e-06
8.59736634735e-07
1.20815786053e-06
1.46283194913e-06
1.26792938732e-06
1.05085390919e-07
3.28125291382e-07
5.89588534689e-07
1.6000371028e-06
1.54523134688e-06
3.47161839556e-08
4.57282554549e-09
9.20948256768e-09
5.26655150634e-08
6.7950970089e-08
1.15982010145e-08
4.308800915e-08
1.38840751704e-08
2.34965016268e-08
1.3169952743e-07
8.1014362815e-08
1.2830625898e-07
1.11539219585e-07
9.08517568093e-09
7.52175468098e-08
1.12141240717e-08
1.02632646003e-07
1.28903362011e-08
5.66791834454e-08
3.48418497428e-08
1.97406630124e-08
2.6131397624e-08
6.5161976631e-08
8.61631516542e-08
6.96862716337e-08
5.21320027129e-08
7.79299363433e-08
3.52714026826e-08
2.39467876929e-08
1.03081071618e-06
1.34954293714e-06
5.06270544998e-06
1.61758128646e-06
1.76290532093e-06
4.68828054613e-07
1.5432055185e-07
1.56114647976e-05
1.50036412396e-05
1.83994961255e-05
1.58966917421e-06
5.3903433881e-07
2.60860915926e-06
1.52826065649e-06
2.15868808382e-06
1.51729448463e-07
5.36941231664e-08
2.61413190513e-06
2.45921813087e-06
4.73238085028e-08
8.07204815969e-06
1.9324375107e-06
2.50848318983e-06
1.40975252078e-06
6.52655008323e-07
1.95077850087e-06
2.29942376016e-07
3.64407899626e-07
1.13783157245e-07
3.3173779219e-07
2.08039139712e-06
6.7956142688e-08
1.84725301888e-07
6.84414534035e-08
5.51798329824e-08
2.93244124567e-07
2.36966011955e-07
5.02154866547e-07
3.56305615992e-07
1.2856430857e-07
2.2998781322e-08
1.55487724784e-07
9.63903750802e-07
1.2149620506e-06
1.64029308263e-06
2.87348178615e-07
9.42519529192e-07
1.6950184738e-07
5.28238483271e-07
1.23125282584e-07
3.33277367917e-07
3.49091932351e-08
6.29471376717e-07
2.09375903508e-07
3.05264949012e-08
1.86048980393e-08
4.7014860964e-08
2.10645022996e-06
1.22293738414e-06
1.14755271724e-06
6.461277916e-07
5.0636940723e-07
2.17862822526e-07
1.65443394014e-06
2.90475194025e-07
9.29654884512e-07
2.04687802245e-06
1.77539058056e-07
3.07432941442e-06
2.96775987706e-06
5.42000804907e-07
1.15946548661e-06
5.52420986348e-06
2.55545253587e-08
1.1271509056e-07
1.79714852051e-07
8.86882750187e-08
2.41746423591e-08
1.38249985025e-07
1.16442759252e-07
2.25102599091e-08
1.07715407248e-07
5.84917630766e-09
2.31996584231e-07
1.34770998062e-08
2.65855382455e-07
2.91493685838e-07
1.58671704789e-06
2.78121317597e-06
7.76793870413e-07
5.60726248643e-08
2.8828506504e-07
3.02330046806e-08
9.85241724009e-08
1.3525402646e-07
1.54287019471e-07
2.99667510689e-08
6.56432352542e-07
7.34167099817e-07
1.44540524002e-06
6.02466487464e-07
1.43769979771e-06
1.5909545781e-06
7.90144883308e-07
1.05597033939e-06
5.39562925178e-07
2.43133829555e-06
3.50815805482e-07
9.11333066951e-09
3.86046216824e-06
5.88114507699e-07
1.58079843428e-06
5.63908315055e-08
7.02643589619e-07
3.02263591884e-06
7.73317683712e-08
7.55246297984e-09
9.93258660631e-08
9.14076014525e-08
4.10325307453e-08
1.93933397818e-08
7.23859436735e-08
1.51565927125e-07
1.13204041727e-07
9.47684640311e-08
4.42136496487e-08
2.01550874909e-08
1.4341610377e-09
7.55269016476e-08
7.69483007341e-08
3.98642423451e-08
7.04910259411e-08
3.76898939776e-09
2.96948767673e-09
4.65961541024e-09
7.70528498344e-09
2.46473063898e-06
6.12255106759e-06
1.70795329424e-06
2.95819031752e-08
2.2995197432e-08
5.10860045518e-08
8.38906031347e-08
1.13908577837e-07
1.75058817967e-07
2.68541120105e-07
2.93246579849e-07
2.92804488674e-07
1.27809231296e-06
1.31025046537e-06
7.84237932467e-07
4.554789023e-08
9.46036953321e-08
1.17946508479e-07
2.13223430164e-07
1.46371800315e-07
1.02656610186e-07
9.70750108178e-08
1.05528389774e-09
2.10557548896e-06
5.63566208485e-06
3.23227828969e-07
2.38924405556e-06
1.83215324503e-06
2.82942638362e-06
3.54313359351e-07
5.87019839948e-07
1.72193657693e-06
1.25926421051e-06
2.97161493026e-06
1.13759628587e-06
6.82348592315e-06
1.46422384395e-06
4.3339589723e-06
7.63075195045e-07
2.58262470267e-08
7.23585104631e-09
4.78651864833e-08
1.5485272961e-08
8.57710209483e-09
1.85099426815e-08
2.60016173337e-08
1.11108752895e-08
5.49736574853e-08
4.43315647919e-08
1.17864325991e-08
2.02155600304e-08
2.62159479967e-08
2.70222273525e-08
1.21950559727e-07
8.66881904865e-08
3.59653488574e-08
2.98676372641e-08
1.20464764555e-08
9.99051605093e-08
8.03816311648e-08
2.80277059078e-07
1.74591946986e-06
6.18349291333e-07
1.63882603179e-07
2.49389382166e-07
2.07545272103e-06
4.17762992701e-06
1.61301059097e-06
1.53682658693e-06
1.40186847045e-06
2.60538341499e-08
2.70275112757e-07
4.96334466972e-07
2.10037514854e-07
4.97231999237e-07
3.94391533583e-06
2.37255137367e-06
6.34209280646e-06
3.61526208327e-06
5.8175994377e-06
6.77623680032e-06
4.55449110818e-06
1.00544491366e-05
4.41435733182e-06
4.33609254585e-06
1.16022841593e-06
2.40789078494e-07
1.15722011997e-07
5.85886544464e-06
2.00553993229e-06
2.94360393081e-06
3.02471087116e-06
4.17253606438e-07
1.24797865725e-05
1.02720762521e-05
7.30413717678e-06
3.861378392e-07
8.36017937958e-07
3.7519108074e-06
3.24833569386e-06
3.95981650081e-06
2.4674313497e-06
1.88968250344e-06
6.05060094048e-07
7.34702903585e-07
1.24635084121e-06
3.290235686e-06
9.5372483384e-07
6.95312579618e-06
4.399244928e-06
6.48638522336e-06
1.05993365635e-06
1.33350426071e-06
3.70271964253e-07
4.4704615521e-07
3.60167360991e-07
7.65194036025e-07
2.63685710715e-07
3.9517712853e-07
1.0180903252e-07
1.34277768456e-08
8.64679812043e-09
1.02609790059e-08
2.15465728881e-08
3.94999024004e-08
4.4974041238e-08
7.93814034702e-08
8.81900420249e-08
9.11381962426e-08
9.02181170161e-08
6.71039702707e-08
5.09964312959e-08
4.14540045842e-08
2.30348998788e-08
2.22901216091e-08
2.07401385693e-09
1.04835240024e-08
1.56032345042e-08
1.16668526222e-08
1.49005212149e-08
1.540519594e-08
1.70328214358e-08
2.25572670069e-08
2.16819311157e-08
1.18989469269e-08
4.87435215872e-08
5.1044527881e-08
3.30938541693e-08
2.20417841756e-08
3.15934513281e-08
9.65790071923e-09
1.133189445e-07
1.0034670884e-06
4.34087026155e-07
9.5022122294e-07
2.77617976657e-07
5.59833467969e-07
1.4523229709e-07
6.39019727858e-07
1.01215660119e-06
7.30862602555e-07
1.24836260329e-06
1.41533886446e-06
9.04133796298e-07
1.10491113732e-06
4.98590513677e-07
1.69180338629e-06
3.10586768979e-06
7.33609513192e-06
8.79269511125e-08
3.38276009731e-07
3.19710160033e-06
6.86252209327e-06
5.88851427694e-06
4.31362956894e-06
1.11546460719e-06
1.7522009133e-06
3.04231871209e-06
3.50488408259e-06
6.68532591549e-06
6.38443216662e-06
3.92885094419e-06
2.96651834495e-06
2.49044560698e-06
1.60057219554e-06
1.13682601382e-06