# vtk DataFile Version 3.0
File Name: Molecule/arg/arg_5.0-5.vtk
ASCII
DATASET UNSTRUCTURED_GRID
FIELD FieldData 1
TIME 1 1 double
0.0
POINTS 883 double
-3.403 0.327 1.604
-3.45 0.103 1.078
-3.138 0.005 1.702
-3.183 -0.208 1.2
-2.981 -0.361 1.858
-3.028 -0.584 1.332
-3.298 -0.003 0.536
-3.038 -0.309 0.683
-2.876 -0.691 0.79
-2.971 0.024 0.066
-2.725 -0.284 0.235
-2.549 -0.664 0.32
-2.984 0.046 0.042
-2.617 -0.045 -0.207
-2.63 -0.024 -0.229
-2.351 -0.22 -0.527
-2.365 -0.198 -0.55
-2.2 -0.483 -0.862
-2.216 -0.458 -0.889
-3.25 0.578 -0.258
-2.686 0.062 -0.328
-2.904 0.498 -0.574
-2.48 -0.047 -0.742
-2.684 0.361 -0.973
-2.39 -0.269 -1.153
-2.617 0.185 -1.409
-3.173 1.207 -0.458
-2.84 1.014 -0.738
-2.625 0.846 -1.127
-2.55 0.723 -1.58
-2.776 1.74 -0.497
-2.515 1.451 -0.77
-2.319 1.256 -1.157
-2.211 1.177 -1.613
-2.622 1.932 -0.429
-2.434 1.563 -0.734
-2.291 1.743 -0.67
-2.16 1.459 -1.077
-2.01 1.647 -1.011
-1.982 1.439 -1.492
-1.81 1.654 -1.416
-2.666 2.281 -0.134
-2.046 2.135 -0.548
-2.085 2.448 -0.283
-1.615 2.438 -0.879
-1.659 2.787 -0.585
-2.622 2.533 0.247
-2.045 2.674 0.059
-1.614 3.039 -0.203
-2.495 2.657 0.67
-1.932 2.785 0.438
-1.488 3.163 0.22
-2.925 2.572 1.071
-2.251 2.77 1.005
-2.634 2.694 1.361
-2.033 3.002 1.293
-2.411 2.928 1.645
-1.863 3.333 1.507
-2.279 3.251 1.894
-3.186 2.284 1.521
-2.865 2.437 1.761
-2.64 2.674 2.039
-2.53 2.972 2.328
-3.419 1.801 1.788
-2.888 2.359 1.917
-3.122 1.876 2.185
-2.717 2.558 2.345
-2.979 2.017 2.644
-3.567 1.179 1.827
-3.202 1.735 2.161
-3.333 1.184 2.196
-3.094 1.732 2.585
-3.223 1.188 2.619
-3.107 1.793 3.017
-3.25 1.192 3.055
-3.408 0.559 1.798
-3.191 0.635 2.17
-3.084 0.647 2.593
-3.095 0.593 3.027
-3.105 0.348 2.085
-3.1 0.088 1.867
-2.97 0.105 2.152
-3.02 0.504 2.546
-2.901 0.29 2.606
-2.978 0.383 3.085
-2.865 -0.346 2.113
-2.52 -0.7 2.425
-2.789 -0.06 2.411
-2.48 -0.378 2.69
-2.828 0.19 2.745
-2.523 -0.123 3.02
-2.645 0.041 3.387
-2.46 -1.117 2.184
-2.148 -0.9 2.844
-2.09 -1.3 2.613
-2.003 -1.142 3.367
-1.937 -1.6 3.103
-2.268 -1.45 1.888
-1.906 -1.62 2.328
-1.726 -1.965 2.777
-1.967 -1.659 1.57
-1.617 -1.821 2.023
-1.396 -2.195 2.428
-1.592 -1.721 1.268
-1.257 -1.88 1.733
-0.984 -2.263 2.097
-2.026 -1.588 0.931
-1.351 -1.766 0.91
-1.757 -1.641 0.594
-1.133 -1.941 0.578
-1.555 -1.812 0.25
-0.96 -2.23 0.303
-1.437 -2.084 -0.068
-2.342 -1.257 0.596
-2.053 -1.332 0.28
-1.861 -1.491 -0.075
-1.784 -1.721 -0.435
-2.487 -0.785 0.321
-2.189 -0.889 0.022
-2.002 -1.032 -0.342
-1.943 -1.202 -0.738
-2.264 -0.668 -0.026
-2.322 -0.554 -0.027
-2.141 -0.611 -0.433
-2.203 -0.492 -0.433
-2.131 -0.618 -0.861
-2.114 -0.682 -1.181
-1.927 -1.264 -1.052
-2.312 -0.441 -1.376
-2.121 -0.506 -1.916
-2.042 -0.816 -1.214
-1.838 -0.886 -1.79
-1.682 -1.348 -1.746
-1.975 -0.256 -2.322
-1.864 -0.768 -1.888
-1.672 -0.441 -2.421
-1.897 0.192 -2.527
-1.57 0.147 -2.691
-1.996 0.646 -2.441
-1.495 0.306 -2.776
-1.602 0.798 -2.682
-1.198 0.386 -3.152
-1.328 0.981 -3.039
-2.011 1.039 -2.18
-1.619 1.224 -2.399
-1.348 1.496 -2.696
-1.72 1.257 -2.235
-1.479 1.817 -1.75
-1.107 2.057 -2.211
-1.346 2.153 -1.415
-1.642 2.007 -1.116
-1.319 2.584 -1.178
-0.816 3.013 -1.267
-1.111 2.259 -1.642
-0.623 2.675 -1.729
-0.543 2.537 -2.312
0.466 3.148 -0.891
-0.416 2.926 -1.599
0.331 3.005 -1.38
-0.131 2.956 -2.042
0.328 3.005 -1.907
-0.002 3.1 -2.533
0.456 3.148 -2.398
-0.048 3.337 -3.001
0.699 3.415 -2.782
0.833 2.913 -0.61
0.619 2.806 -1.364
0.976 2.577 -1.092
0.892 2.689 -1.891
1.303 2.425 -1.576
1.057 2.557 -0.305
1.192 2.232 -0.796
1.553 2.026 -1.234
0.979 2.767 0.195
1.24 2.204 -0.113
1.167 2.404 0.362
1.539 1.918 0.039
1.462 2.128 0.539
0.737 2.845 0.68
0.936 2.478 0.823
1.22 2.206 1.024
0.406 3.093 0.833
0.71 2.572 1.142
0.419 2.789 1.277
0.841 2.425 1.643
0.539 2.651 1.783
1.112 2.426 2.108
0.748 2.699 2.276
0.011 3.456 0.651
0.142 3.058 1.218
-0.201 3.373 1.06
-0.01 3.117 1.656
-0.348 3.428 1.5
-0.034 3.266 2.099
-0.415 3.616 1.924
-0.504 3.599 0.465
-0.648 3.497 0.898
-0.789 3.55 1.341
-0.913 3.754 1.744
-1.038 3.495 0.311
-1.112 3.406 0.765
-1.247 3.461 1.209
-1.429 3.653 1.595
-1.502 3.118 0.685
-1.632 3.177 1.131
-0.05 3.403 2.531
0.304 2.919 2.221
0.288 3.057 2.654
0.729 2.855 2.766
-0.175 3.437 2.964
0.162 3.091 3.09
0.587 2.894 3.259
-0.395 3.364 3.353
-0.059 3.019 3.48
0.337 2.812 3.701
-0.687 3.194 3.654
-0.352 2.847 3.783
0.006 2.617 4.044
-1.13 3.18 3.766
-0.58 2.815 3.881
-1.094 2.799 4.011
-1.584 3.151 3.721
-1.62 2.766 3.959
-1.995 3.111 3.523
-2.096 2.719 3.73
-2.312 3.063 3.198
-2.464 2.664 3.352
-2.498 3.015 2.783
-2.679 2.608 2.871
-0.832 2.373 4.277
-0.242 2.183 4.431
-1.061 1.806 4.483
-0.466 1.628 4.634
-1.364 2.231 4.354
-1.452 1.611 4.604
-1.713 1.977 4.492
-1.735 2.528 4.103
-2.033 2.233 4.276
-2.128 2.66 3.763
-2.373 2.347 3.982
-2.496 2.611 3.374
-2.69 2.305 3.646
-2.791 2.388 2.985
-2.945 2.113 3.311
-1.464 1.095 4.666
-0.956 1.592 4.533
-0.968 1.074 4.596
-0.48 1.041 4.705
-1.655 0.731 4.634
-1.079 0.886 4.596
-1.26 0.541 4.565
-0.689 0.687 4.666
-0.881 0.322 4.633
-0.333 0.517 4.869
-0.555 0.096 4.831
-2.027 0.463 4.516
-1.383 0.368 4.531
-1.728 0.119 4.423
-1.114 -0.009 4.584
-1.476 -0.27 4.469
-0.878 -0.357 4.785
-1.3 -0.661 4.651
-2.342 0.241 4.242
-2.019 -0.087 4.169
-1.783 -0.487 4.202
-1.658 -0.914 4.34
-2.557 0.093 3.848
-2.219 -0.224 3.803
-1.993 -0.631 3.818
-1.903 -1.082 3.892
-2.301 -0.273 3.375
-2.078 -0.682 3.368
-0.557 -0.612 4.999
-0.228 -0.165 5.05
-0.202 -0.89 5.102
0.134 -0.447 5.155
0.164 -1.171 5.088
0.507 -0.734 5.141
0.37 -1.612 4.973
0.615 -0.976 5.092
0.811 -1.395 4.983
1.043 -0.806 5.264
1.249 -1.247 5.15
0.578 -1.993 4.725
1.008 -1.757 4.747
1.457 -1.629 4.901
0.77 -2.282 4.364
1.191 -2.031 4.405
1.649 -1.918 4.541
0.93 -2.454 3.923
1.343 -2.194 3.985
1.809 -2.089 4.099
1.044 -2.494 3.437
1.451 -2.232 3.524
1.923 -2.129 3.613
1.103 -2.399 2.949
1.506 -2.141 3.061
1.981 -2.034 3.126
1.1 -2.176 2.501
1.504 -1.93 2.635
1.979 -1.811 2.678
1.037 -1.846 2.131
1.444 -1.616 2.284
1.916 -1.481 2.307
0.647 -2.269 2.118
0.836 -1.714 1.711
0.512 -2.064 1.7
0.77 -1.662 1.233
0.47 -1.987 1.224
0.848 -1.697 0.757
0.525 -2.047 0.746
1.061 -1.813 0.337
0.67 -2.236 0.324
0.119 -2.499 2.107
0.075 -2.255 1.691
0.064 -2.164 1.215
0.088 -2.237 0.737
0.142 -2.466 0.313
-0.457 -2.497 2.099
-0.401 -2.253 1.685
-0.378 -2.162 1.209
-0.389 -2.235 0.73
-0.434 -2.464 0.306
-0.837 -2.059 1.682
-0.782 -1.983 1.207
-0.825 -2.042 0.728
1.48 -1.078 0.031
1.032 -1.487 0.709
1.333 -0.958 0.489
1.12 -1.273 1.146
1.358 -0.854 0.972
1.315 -1.197 1.595
1.553 -0.779 1.421
1.592 -1.27 1.999
1.893 -0.741 1.779
2.335 -0.746 2.002
1.639 -0.712 -0.547
1.476 -0.549 0.311
1.615 -0.229 -0.195
1.697 -0.118 0.66
1.842 0.216 0.134
-0.171 -1.746 -2.529
-0.548 -1.409 -2.576
0.186 -1.352 -2.841
-0.152 -1.05 -2.884
-0.822 -1.287 -2.506
-0.408 -0.948 -2.806
-0.669 -0.831 -2.739
-0.336 -0.591 -3.197
-0.616 -0.466 -3.125
-1.485 -0.767 -2.346
-0.988 -0.705 -2.664
-1.322 -0.31 -2.728
-0.95 -0.071 -3.189
-0.311 -0.212 -3.619
0.104 -0.811 -3.39
0.128 -0.454 -3.788
-0.16 0.24 -3.931
0.27 -0.03 -4.081
0.101 0.716 -4.098
0.516 0.418 -4.238
-0.411 1.252 -3.909
0.377 1.347 -4.4
0.11 1.626 -4.301
-0.398 1.946 -3.588
0.117 1.987 -4.134
-0.712 2.237 -2.975
-0.106 2.463 -3.53
-0.314 2.656 -3.124
0.028 3.029 -3.665
-0.135 3.18 -3.347
-0.202 2.855 -2.684
0.9 3.106 -3.671
0.173 2.486 -3.833
0.85 2.546 -3.838
0.989 2.064 -4.14
1.267 2.733 -3.406
0.819 3.383 -2.845
1.204 2.948 -2.765
1.749 2.404 -3.353
1.668 2.681 -2.526
0.902 2.914 -2.485
0.749 2.956 -2.405
1.123 2.627 -2.01
1.688 2.19 -1.733
1.962 2.454 -2.382
2.133 1.624 -1.992
2.194 2.159 -2.516
2.141 1.301 -1.585
2.428 1.273 -2.257
2.435 0.969 -1.874
2.042 0.907 -1.262
2.342 0.599 -1.57
1.911 1.516 -1.257
1.884 0.909 -0.851
1.768 1.444 -0.847
1.861 0.913 -0.411
1.75 1.425 -0.407
1.976 0.918 0.014
1.858 1.462 0.018
1.454 1.892 -0.826
1.449 1.855 -0.388
1.867 0.812 -0.4
1.753 0.215 -0.299
1.896 0.717 -0.83
1.788 0.151 -0.734
2.06 0.644 -1.234
1.942 0.027 -1.129
2.201 -0.141 -1.444
2.566 1.229 -2.871
2.241 1.687 -2.422
2.339 1.656 -2.857
2.27 2.135 -2.856
2.341 1.264 -3.459
2.179 1.681 -3.275
2.146 2.154 -3.181
1.83 1.363 -3.817
1.817 1.751 -3.528
1.863 2.209 -3.379
1.605 0.935 -4.222
1.413 1.57 -3.947
1.254 1.267 -4.234
1.103 1.869 -4.167
0.979 1.632 -4.39
1.11 0.579 -4.381
0.902 1.014 -4.346
0.705 1.435 -4.478
0.482 0.901 -4.245
1.404 2.01 -3.684
1.315 2.161 -3.664
2.007 0.383 0.735
1.733 -0.159 1.085
2.004 0.279 1.15
1.861 -0.287 1.473
2.124 0.139 1.536
2.068 -0.489 1.788
2.355 -0.024 1.857
2.675 -0.196 2.083
2.074 0.941 0.928
2.063 0.767 1.319
2.181 0.613 1.7
2.417 0.492 2.036
2.749 0.417 2.295
1.884 1.434 1.198
1.897 1.199 1.555
2.02 1.032 1.93
2.241 0.95 2.287
2.541 0.959 2.592
1.624 1.884 1.117
1.755 1.469 1.75
1.503 1.904 1.671
1.842 1.579 2.299
1.557 2.073 2.21
1.11 2.216 1.58
1.886 1.845 2.759
2.132 1.224 2.493
2.174 1.477 2.929
2.585 1.225 3.051
1.814 2.002 3.263
2.105 1.625 3.407
2.513 1.382 3.555
1.633 2.033 3.763
1.933 1.655 3.881
2.331 1.413 4.055
1.359 1.937 4.21
1.674 1.563 4.305
2.058 1.316 4.502
1.021 1.721 4.561
1.354 1.359 4.638
1.72 1.101 4.853
0.651 1.408 4.781
1.002 1.062 4.847
1.35 0.788 5.074
0.073 1.245 4.841
0.82 0.891 4.947
0.23 0.725 5.008
0.672 0.387 5.179
1.205 0.294 5.301
0.564 -0.173 5.245
1.099 -0.256 5.367
-1.834 2.927 0.971
1.396 -0.602 0.696
1.678 -0.195 -0.741
1.805 -0.426 -1.067
-2.913 1.955 -0.341
-3.327 1.641 -0.268
-3.327 2.032 -0.008
-2.913 2.297 -0.026
-3.327 2.292 0.383
-2.913 2.519 0.384
-3.327 2.384 0.843
-3.656 1.544 0.048
-3.656 1.916 0.37
-3.656 2.055 0.843
-3.656 1.916 1.316
-3.867 1.641 0.843
-3.867 1.411 1.241
-3.656 0.342 1.089
-3.656 0.609 1.504
-3.867 0.951 1.241
-3.867 0.721 0.843
-3.656 0.342 0.597
-3.867 0.951 0.445
-3.656 0.609 0.182
-3.656 1.057 -0.022
-3.867 1.411 0.445
-3.94 1.181 0.843
-2.457 -1.44 1.367
-2.786 -1.076 1.613
-2.786 -1.076 1.121
-2.457 -1.348 0.907
-2.786 -0.809 2.028
-2.215 0.2 -2.35
-2.215 -0.241 -2.149
-2.52 0.083 -1.912
-2.52 0.561 -1.912
0.827 3.098 -0.086
0.498 3.335 -0.546
[...]
CELL_DATA 1762
SCALARS cell_data_0 double
LOOKUP_TABLE default
1.91129770431e-06
3.61721391089e-06
1.85948865855e-06
1.95936795043e-06
4.11298340203e-06
4.03931259679e-06
3.71917463168e-06
2.61306865245e-06
2.17327852958e-06
1.31199602559e-06
2.01292092897e-06
4.43289337954e-07
2.14076413015e-08
5.50183495178e-08
7.38783106932e-08
8.76698761302e-08
4.88637113616e-08
1.13425958104e-07
3.86290864111e-06
5.67861434454e-06
3.91591851651e-06
4.41418626343e-06
1.06259661146e-06
1.23390136552e-06
1.00341764414e-05
8.17304184831e-06
6.52600572525e-06
6.48904641503e-06
4.37628441473e-06
4.88052447749e-06
7.33041671789e-06
6.00175605303e-06
8.77999645543e-06
5.69175663296e-06
4.20737800667e-06
8.20648071052e-07
6.64583714411e-07
5.47581136408e-07
3.26531062333e-07
3.90536398939e-07
1.05533860253e-07
5.96508108013e-07
7.616807474e-06
6.96862530189e-06
1.99727797402e-06
2.0363533185e-06
7.85609916565e-06
4.34692762295e-06
4.17388361996e-06
7.15090513438e-06
6.60331229917e-06
6.41478403928e-06
7.14363066924e-06
7.01317601423e-06
2.65709988789e-05
2.17253720726e-05
2.34181835373e-05
2.29014447777e-05
2.54087852087e-05
7.81634909967e-06
1.88777703922e-05
5.68044713991e-06
8.92378616234e-06
1.39568523682e-05
9.47244052132e-06
1.07290266731e-05
3.220830182e-06
6.77748788735e-06
5.26078238019e-06
4.87347614357e-06
7.97642460993e-06
5.6096268515e-06
4.35894003871e-06
1.87164285875e-06
2.27664042594e-06
2.72621314377e-06
3.92594022624e-06
2.14456721002e-06
1.70614559087e-06
1.47327149472e-06
1.79754095667e-06
3.16375243919e-06
4.85976157036e-07
2.48417430582e-08
4.53711200494e-07
4.455397695e-07
9.30183227617e-07
8.87991555364e-07
7.07519312381e-07
1.70961068672e-07
6.68497495617e-07
5.09737186767e-08
1.16552702723e-07
9.67856092892e-08
2.13743601472e-07
1.59296314278e-07
6.31958963303e-07
1.78342484441e-06
3.77416010416e-06
3.27680798791e-06
7.44194046628e-07
1.33743450273e-06
2.02573025449e-06
1.83320899734e-06
7.46893152536e-07
1.20271556782e-06
1.45123800463e-06
1.17308804409e-06
8.95537802491e-07
1.16310053288e-06
1.07589645977e-06
7.57036870411e-08
8.39338668288e-07
8.14360038536e-07
1.2112287731e-06
1.14611767969e-06
1.23024725119e-06
1.05168697552e-06
6.25186681094e-07
7.78243401656e-07
9.50570976903e-07
1.01722876654e-06
1.01217723718e-06
7.98411902626e-07
1.2307050882e-07
3.45571756577e-07
7.85761964264e-07
9.39238693119e-07
6.73353535457e-07
3.71014926481e-07
1.23217642181e-07
2.99234750626e-07
3.13043979315e-07
3.86909232375e-07
3.54112043961e-07
4.47986115418e-07
3.63228533363e-07
1.26677592984e-06
6.21111139189e-07
5.76832857015e-07
1.14059012437e-06
1.43379593679e-06
1.00889708211e-06
2.4722257421e-07
8.38082620377e-07
1.17204491515e-06
9.58198103056e-07
1.27941322649e-06
1.26761001652e-06
1.36492125255e-06
1.41990516408e-06
2.53865507995e-06
1.91279619336e-06
2.49259764175e-06
2.44875464451e-06
3.21358781576e-06
1.99764062407e-06
2.70890485614e-06
5.3799501109e-06
5.25014949105e-06
2.57728073623e-06
2.39887698757e-06
2.4275392106e-06
1.8643933991e-06
4.62880535062e-06
5.53445334849e-06
5.82081284325e-06
6.6117715172e-06
7.06183487987e-06
3.3329683812e-06
4.5513461657e-06
8.18093819467e-07
2.40883663026e-06
1.57059454883e-06
4.51126190991e-06
8.47658009392e-06
1.29478625004e-06
1.42264844362e-06
1.87518658922e-06
5.02662564006e-06
3.28425700096e-06
3.89225030353e-06
4.03334220401e-06
5.1999685379e-06
2.48521369493e-06
2.12475043962e-06
2.1635382308e-06
2.23345190066e-06
1.91607648252e-06
1.80256366088e-06
2.04126258616e-06
1.90031069209e-06
1.59685756834e-06
1.39307020225e-06
1.47771813376e-06
1.06900632741e-06
1.29275554317e-06
1.72543631357e-06
9.7869196052e-07
5.67870164435e-07
3.50196103286e-07
4.04833173988e-07
4.79453179484e-07
4.52629902544e-07
6.24455012366e-07
4.94371674763e-07
5.1640857473e-07
4.35405817632e-07
3.20180540583e-07
2.6535022513e-07
5.46655604717e-07
4.7324301249e-07
4.19202982028e-07
2.98151871836e-07
2.56582690301e-07
1.17408085291e-07
4.90552862801e-07
2.48709424136e-07
2.96013948457e-07
1.6555761884e-07
1.8684195225e-07
1.1032577255e-06
5.75704247544e-07
4.94123583207e-07
1.24454353906e-06
1.5759657179e-06
8.97381206155e-08
2.43905801973e-07
4.71858541984e-07
3.56164987646e-07
1.25461241255e-06
2.48473327019e-06
1.92577578623e-06
6.68447166835e-06
2.26717290846e-06
7.29930436855e-07
4.49583071327e-06
3.27635399597e-06
2.6518836064e-07
9.87990841543e-08
3.36367019424e-08
1.02334217398e-07
3.06553891075e-08
3.82467827321e-08
9.68974043382e-08
1.27815605905e-07
6.90494019614e-09
2.19288083348e-08
1.35141470911e-06
2.76482461861e-06
1.77262294691e-06
2.83068982808e-06
2.94888232041e-06
1.79024741283e-06
1.09913035049e-06
4.25597458706e-06
7.52709899985e-06
1.10542038626e-05
1.92296624855e-05
1.79913114952e-05
2.7301169233e-05
1.99985603395e-05
2.26300411824e-05
1.56986927076e-05
9.33797847406e-06
6.59824890066e-06
2.76010858627e-06
4.50295817949e-06
4.3906075159e-06
1.93504617305e-06
2.01084782656e-06
2.00368696876e-06
2.15280633194e-06
9.08429090404e-07
8.69888254241e-07
6.05815650644e-07
2.77191370652e-07
2.23907037844e-07
1.17944795099e-07
3.89193239976e-07
9.10954052355e-07
1.00615733978e-06
1.10557216385e-06
1.94229783086e-06
8.51181807834e-07
4.04708165871e-06
3.44946945403e-06
7.22642904535e-06
5.40425362833e-06
4.68311852204e-06
4.99486402434e-06
3.00243001101e-06
4.25464449892e-06
1.33895343396e-06
3.62267159959e-06
9.4901132302e-07
6.20929567096e-07
6.3363086392e-07
4.98360547297e-07
1.39835514424e-06
2.51225203029e-06
1.97803683654e-06
2.33152854814e-06
1.13159866968e-06
1.96081753201e-06
2.13760279075e-06
3.83413243453e-06
3.63414551948e-06
2.82841443491e-06
2.25399662402e-06
3.04137901194e-06
3.15403269125e-06
3.1916814282e-06
6.20275532432e-06
3.28359306063e-06
2.03302263602e-06
3.84372003512e-06
1.90001879678e-06
1.13191307154e-06
1.36090476704e-06
7.96687821595e-07
1.90588662611e-06
2.0222671939e-06
5.9340276262e-07
7.5918058544e-07
1.89163092789e-06
1.17738399054e-06
6.89691829869e-07
1.48368544468e-06
1.36954817044e-06
6.15815359918e-07
4.66794621009e-07
7.07858524905e-07
1.09715363729e-06
6.77996180224e-07
1.15150799388e-06
1.30472377918e-06
9.97113180423e-07
7.60627652115e-07
7.059274797e-07
1.41623770435e-06
1.27693308478e-06
2.3498159423e-06
2.45837824437e-06
2.85531078493e-06
2.1295775421e-06
8.76792416592e-07
1.12958239539e-06
4.21513186808e-08
3.68919134649e-07
1.31807086677e-06
1.24815591194e-06
1.58623137995e-06
4.33094586254e-07
2.03710319761e-06
1.79939288059e-07
2.62100833688e-07
2.83146162344e-07
6.1661851407e-07
1.36989812939e-07
1.49292067134e-06
3.14712618882e-07
6.37172383115e-07
6.74503799057e-06
5.70502336758e-06
1.67716063296e-05
4.1401479736e-06
6.84989369909e-06
2.53524010007e-06
4.74629855981e-06
1.58326815817e-05
4.09419332261e-05
5.51212715988e-05
2.842817561e-05
1.0890209404e-05
1.12500939148e-05
9.13259796569e-06
3.2391543129e-05
2.1781081782e-05
2.11322674034e-05
7.59446411839e-07
5.85413403656e-06
6.22531238455e-06
3.09566392524e-06
1.0266849594e-05
8.21816297187e-06
1.91259282509e-06
7.30567706257e-08
2.83321939509e-06
4.47651044883e-06
7.38305637231e-07
1.81961059363e-06
1.12441869667e-06
1.25582485305e-06
1.99030704519e-06
1.85159631811e-05
1.18190070887e-05
3.06903004198e-06
2.41844098658e-06
2.26135663756e-07
1.14415032521e-06
4.41050829569e-06
3.6057817452e-07
3.73795887016e-06
3.38372171031e-06
1.17600526855e-05
7.48086615984e-06
1.38326675773e-05
9.52774612224e-06
1.31240855727e-05
9.91531548111e-06
9.91958319544e-06
3.69838209825e-06
3.67674008155e-05
1.68650014834e-05
1.7440769725e-05
5.95596656148e-06
1.97932669149e-05
2.02867229324e-05
3.5195084803e-05
1.11339707158e-06
2.12311678383e-06
2.31935765815e-06
5.08072813157e-06
1.85758903668e-05
1.17185479864e-05
8.88748995785e-06
8.82646911462e-06
4.06329083096e-06
4.98284906265e-06
5.1097005676e-06
4.88752070426e-07
7.04235661694e-07
5.14146723622e-06
1.17469522482e-05
1.74456602402e-05
9.98279277745e-06
3.03785580302e-06
4.68092139898e-07
8.19766335385e-07
6.73103157136e-06
1.31002784429e-06
2.09677735984e-06
1.15009426605e-06
8.47042982273e-07
8.47666042761e-07
5.68883205514e-07
2.69334663787e-07
2.61891181323e-07
1.9943710157e-07
5.02123054716e-07
1.67970982809e-06
5.72253958419e-08
3.07720361602e-07
2.83992508107e-06
2.33972598114e-06
4.82784261488e-07
1.86170011564e-07
8.81828229194e-07
1.36969089094e-06
3.59411866729e-07
1.12520544587e-06
1.8200854099e-06
2.92103587301e-06
2.75077540948e-07
2.19996921819e-07
3.85333780049e-06
2.56283283572e-06
2.07760443967e-06
1.34330571301e-06
1.52145836261e-06
2.06222689878e-06
4.71539852095e-06
2.5932058678e-06
1.76165952614e-06
4.16489471509e-06
3.43666252409e-06
2.51354002764e-06
2.74493446348e-06
4.47869177975e-06
6.71048490244e-06
1.24987432659e-05
1.26544524097e-05
1.00122424269e-05
9.23313778243e-06
8.03393789388e-06
6.40903184088e-06
5.69050371909e-06
8.97537542292e-06
2.59554624675e-06
4.11403324403e-06
6.77177584196e-07
3.27972535049e-06
1.45037179855e-06
3.51293389256e-06
1.89324984446e-07
5.43205784658e-07
4.53781222725e-07
7.47225288875e-07
9.09046404574e-07
8.4733933002e-07
8.19520486888e-07
5.02754321486e-07
8.80126077787e-07
1.17199202594e-06
1.42989283572e-06
1.77544347989e-06
2.92401384761e-06
1.85647466268e-06
9.23293035815e-07
1.01805963001e-06
1.37603565883e-06
1.99155420128e-06
1.75704369253e-06
2.80428161354e-06
3.05547880182e-06
3.9726914687e-06
4.55264985759e-06
3.78009162927e-06
4.24120882039e-06
4.52022452524e-06
2.24891712147e-06
2.54381205985e-06
2.3092508251e-06
1.58087929592e-06
1.25067367714e-06
1.5050916953e-06
1.4770136774e-06
8.33372041309e-07
6.55838502556e-07
8.54162436188e-07
7.03483380911e-07
4.49720798452e-07
4.48511493745e-07
4.64600163029e-07
6.89467100157e-07
4.52351359094e-06
1.37580995188e-06
1.91313727642e-08
2.47617403162e-07
4.65308364218e-06
2.0744929268e-06
8.75045982499e-08
1.80548197259e-07
4.69731523676e-07
1.31209911952e-06
3.06572148932e-07
2.14183753427e-07
1.58071434443e-07
7.52034667442e-07
1.14712918939e-07
8.5780651287e-07
1.02648984446e-06
6.74762126151e-07
7.52109894258e-07
3.41523362847e-08
1.38984389559e-06
6.65158810482e-07
3.57557883867e-07
6.89140445589e-07
2.12744929673e-07
1.5339937556e-06
8.26705296472e-07
1.00214814272e-06
1.5526298023e-06
3.65601328521e-07
7.03075055512e-07
2.37683231201e-06
1.65025626272e-06
2.29069554763e-06
5.87801595367e-07
1.11722987143e-07
7.17855570551e-06
1.37349306381e-05
1.30319205615e-05
2.86923225012e-06
6.43849782045e-06
4.55942237813e-06
3.45412251371e-06
3.81277837797e-06
2.01400484588e-06
9.88228353856e-07
1.734500954e-06
1.90474302355e-06
2.47867013019e-06
7.31922810102e-07
3.05027325638e-07
2.92712616034e-07
6.47508391837e-07
1.29589640546e-07
1.03700837347e-07
3.66807221406e-07
7.91023298106e-07
2.77037347351e-08
1.42898082787e-07
4.89950931763e-07
2.64596352338e-06
3.4695655607e-06
7.24338050997e-07
6.64171252389e-06
1.33720400211e-05
6.18034234737e-06
3.71470899007e-06
9.23906541284e-06
4.96442707825e-08
3.8742710308e-07
1.51904609026e-07
7.59695373739e-07
8.04017243055e-07
3.79970444838e-07
2.23706512391e-07
6.49295369827e-08
1.31416181908e-07
6.38800066163e-08
1.11183631065e-07
3.42065914434e-07
3.085465562e-07
7.27494774182e-07
7.31348479621e-07
4.06406348961e-06
2.25206521231e-06
2.17965313179e-06
7.77962650842e-06
4.52286704346e-06
5.05558817762e-06
5.51296456185e-06
2.88246233697e-06
2.43709170085e-06
5.25384912141e-06
3.359609478e-06
7.10934006129e-06
3.41999613942e-07
8.32361558394e-07
4.03066103395e-07
2.38965115816e-06
1.69151044734e-06
2.65573674678e-06
1.41186724103e-06
3.04763660401e-06
1.19805258201e-06
7.52155208829e-07
7.44055747316e-07
1.31613628491e-06
1.3242899917e-06
1.22521198809e-06
8.25742417826e-07
5.82923922082e-07
8.05367901383e-07
4.10848180763e-07
7.92294446773e-07
3.13423231108e-08
3.03936265478e-08
1.13160575555e-06
1.01284719919e-06
7.22288994862e-07
1.41525641847e-06
1.63855830173e-06
1.51765343659e-06
8.69218699047e-07
5.4266380758e-07
4.14201604482e-07
2.55556267542e-07
3.12269748635e-07
1.64002880484e-06
1.54804103035e-06
1.13882896161e-06
1.26122954064e-06
7.44703382352e-06
1.22167258863e-06
5.07265726743e-06
2.01621924312e-07
1.60636002357e-05
3.93336109441e-06
4.1959113039e-06
9.4019312384e-06
1.46951493648e-05
2.97436871608e-05
1.48848020248e-05
1.94572727447e-05
4.29270185179e-06
1.04158309847e-06
4.22891722697e-07
7.90732499057e-06
1.58509674207e-05
9.61139078501e-06
1.6609650767e-06
8.45249506464e-07
1.78874485094e-07
2.87928287945e-07
1.11004454866e-05
1.78583835846e-05
1.08209977428e-05
9.74716667979e-07
4.13965686715e-06
2.62935525964e-06
1.45120085463e-06
4.13908734025e-07
1.3165743762e-06
2.4017708134e-06
1.06800132829e-05
9.57891585098e-06
1.29019219769e-05
2.45481509256e-06
9.01739089995e-06
1.22448828408e-05
6.38861963855e-06
5.78460776106e-06
6.44297563737e-06
7.78778123762e-06
2.90365335961e-06
1.0610073076e-06
1.60083587063e-07
1.62729410643e-07
6.37624373729e-08
7.48893415136e-08
9.52042521533e-07
7.41277149388e-07
4.63193252353e-06
4.0800184793e-06
6.23778721411e-06
1.59037925205e-06
8.96769652036e-07
6.47278444329e-07
2.27357248577e-06
1.59023170136e-06
5.0054477394e-07
5.13945550395e-07
1.60542849732e-06
1.54985252307e-06
1.63946454997e-07
1.17678786135e-07
2.16291876968e-07
3.12727485067e-08
4.16520405928e-07
6.0000009652e-07
6.57919283993e-07
6.21301058453e-07
1.0910426514e-06
1.14141680741e-06
2.12644277443e-06
1.95538438662e-06
2.45986573664e-06
1.4432034975e-06
2.38539830554e-06
1.47203615053e-06
1.66947762984e-06
6.49324470517e-07
5.42551685122e-07
6.11167538711e-07
5.83102871212e-07
6.11558876111e-07
9.51477036748e-07
5.20500376038e-07
5.0633606003e-07
4.61746899318e-07
4.31286127215e-07
4.02938891916e-07
4.4938229223e-07
3.305802669e-06
2.12844132832e-06
5.97932176879e-06
4.51978809116e-06
4.04094162923e-06
3.27341225627e-06
2.35588079014e-06
2.08922557356e-05
1.95291724775e-05
2.16932401585e-05
1.43613748567e-06
3.57540922182e-07
2.39701409435e-06
1.20476500389e-06
1.93210152927e-06
8.34288223094e-08
1.24502737852e-07
3.45430224274e-06
4.20473920489e-06
7.1239224889e-07
9.69669814568e-06
3.76258606165e-06
4.16024409158e-06
3.07208449131e-06
3.2561736339e-06
4.1875044615e-06
2.2598609941e-06
1.30015518819e-06
1.59977384609e-06
9.69129335251e-07
3.97093484431e-06
6.77617058463e-08
1.45415637634e-08
8.05405197574e-08
1.17287567001e-07
1.50475987848e-07
8.96935265673e-08
2.07194980209e-07
1.2851283564e-07
2.8704662962e-08
1.08703843987e-07
1.36853759356e-07
8.87410878269e-07
4.12292015706e-07
8.35756948733e-07
3.49757274788e-07
9.46838265886e-07
1.68490599353e-07
6.2181111392e-07
1.62295837729e-07
4.04501449967e-07
9.3921713953e-08
6.25259773759e-07
2.08147694362e-07
3.03912387636e-08
1.08477559396e-06
1.25165430346e-06
2.09963003168e-06
1.11940913413e-06
1.08221584907e-06
7.87990010505e-07
5.45998519982e-07
7.68831198328e-07
1.91223371899e-06
1.44287430138e-06
1.02836801895e-06
6.70451702532e-07
5.66989847862e-07
2.88296729776e-06
2.55622800251e-06
5.38130460909e-07
1.16161814077e-06
5.5271304363e-06
9.49936168754e-07
9.07484297729e-07
8.53926362437e-07
9.98421040104e-07
8.79712113045e-07
7.67148591311e-07
8.07132007428e-07
7.3445435577e-07
7.49066879603e-07
7.16084050813e-07
1.1391832662e-06
9.67818189638e-07
8.89466397799e-07
7.92341874905e-07
4.86953950999e-07
1.9357248588e-06
2.15424121036e-08
5.92888402394e-07
6.32618079336e-07
7.49337276389e-07
9.87538317473e-07
7.25662807436e-07
4.94372974848e-07
5.22667813462e-07
1.21512502271e-06
1.26168684585e-06
2.17449797221e-06
1.6101491365e-06
1.95528518341e-06
2.10165356463e-06
1.51811894986e-06
1.31436504639e-06
1.04751336277e-06
4.47985016612e-06
1.24180484386e-06
9.30230374948e-07
5.02599377416e-06
1.38150221509e-06
2.24638200325e-06
8.37956521333e-07
4.83323429684e-07
2.48011777886e-06
7.55146017774e-08
2.10839344361e-07
1.39072728631e-07
2.62223274462e-07
1.77807210487e-07
3.04232853536e-09
3.80335243474e-08
6.81785724574e-08
1.8282340109e-07
5.97125352143e-08
4.19997962986e-08
1.78528800569e-07
3.11807445978e-07
2.10192060812e-07
2.17310961716e-07
8.35368955021e-06
6.88809212731e-08
1.11123953316e-05
2.34099186347e-05
6.25316334651e-06
2.64101969577e-05
5.34557894077e-05
3.04973297565e-05
1.68334005378e-05
2.08421524263e-05
4.33802976218e-06
6.14414260656e-06
1.29533475917e-07
1.68837195027e-07
1.83303535139e-07
1.87426581199e-07
2.79858766842e-08
1.15472546075e-07
1.00116236295e-06
8.01264197783e-07
6.52225922454e-07
1.42356212262e-07
8.00960919747e-08
3.26585642021e-07
4.61693111775e-07
2.03421835763e-07
1.54733489062e-07
9.06710105089e-08
8.58022932729e-06
1.72383568773e-05
2.56515167069e-05
3.22691564067e-07
2.38385084987e-06
1.83205522499e-06
2.83303043091e-06
3.5576888563e-07
5.90237642461e-07
1.72009605659e-06
1.25963759606e-06
2.96893295514e-06
1.13730595453e-06
6.82349470366e-06
1.47321148014e-06
4.34549343959e-06
7.59146223903e-07
7.36555381479e-06
1.00527644562e-05
3.53167477889e-06
4.3055874813e-06
2.04820341842e-06
7.07919274067e-06
4.24491210853e-06
1.38459669114e-05
9.24099420293e-06
8.98414087907e-06
1.59216295267e-05
7.57067783961e-06
6.55251650845e-06
1.35460967411e-05
9.78838249755e-06
1.23244226874e-05
7.23298111331e-06
2.39436447757e-06
2.13748653673e-06
1.99803153704e-07
6.41440280078e-08
2.88588255434e-09
1.27201448105e-06
4.61385223703e-07
3.34601085434e-06
5.00251028252e-06
6.9322500418e-06
1.02905546197e-05
1.75350612806e-05
9.15691167695e-06
2.3847751289e-06
2.2766420718e-06
1.53331737366e-06
2.00047149204e-06
6.73933534291e-06
4.44625479204e-06
9.34445317023e-06
1.31598380331e-05
1.32081796661e-05
1.36443254898e-05
7.69464639992e-06
8.75648078481e-06
1.15146237543e-05
1.52133429338e-05
1.38594989277e-05
7.44036571587e-06
3.64902813629e-06
1.28511461862e-06
1.15242797516e-07
1.472911864e-07
5.69058209728e-07
6.07614553229e-08
1.55383265342e-06
5.85413187718e-07
2.10515365983e-07
2.73615300394e-07
6.8467608262e-07
1.64572339969e-06
1.26848358106e-06
1.73475574257e-06
6.58760155264e-07
2.21341094317e-07
6.6391022614e-07
8.11503768932e-07
1.19991229912e-07
2.6542633331e-07
3.33235144951e-07
2.18363359668e-07
4.03040100598e-07
1.13106944098e-07
1.30295885413e-07
2.64802646955e-07
2.16846919149e-07
6.38611116295e-07
5.386230991e-07
9.39364548808e-07
7.59885497219e-07
5.89588274147e-07
4.04585489742e-07
4.55820028468e-07
2.41948218839e-07
1.20704906816e-06
7.73582028659e-07
1.51652200172e-06
1.19657391321e-06
9.32093644069e-07
1.18858380102e-06
3.21054703453e-07
3.34830211085e-07
1.21947190289e-07
3.90777657387e-08
2.56711631916e-08
2.7710222464e-07
7.19757032153e-08
3.43304977825e-07
5.58538211386e-07
1.88026650572e-06
1.79981336056e-06
1.46744140198e-06
6.53029455251e-07
3.8987310274e-07
4.26184274225e-08
2.25346067243e-07
9.75672271774e-08
1.61784199801e-07
2.84592891965e-07
9.07523748834e-07
3.04067381068e-07
2.17403877349e-07
1.42716080098e-07
4.60224862609e-07
2.52293448265e-07
4.06156554169e-07
1.70792360355e-06
8.70418047612e-07
1.22236634457e-06
5.71881654957e-07
6.25856799555e-07
2.55488178047e-07
1.13328539525e-06
1.820451773e-06
1.22322640588e-06
2.58235895619e-07
4.06111866909e-07
2.54829312437e-07
3.0782647537e-08
1.18822146853e-06
4.02892599638e-07
3.72257790142e-07
1.91000965057e-06
2.21175390234e-06
1.19807374029e-06
1.47334518873e-06
2.62443786645e-06
4.40860089082e-06
4.50336112355e-06
2.22622153727e-06
4.89509607256e-07
4.0764645864e-07
1.54032436683e-06
1.37414966227e-06
1.01721352051e-06
1.35583788493e-06
6.43907345707e-07
4.70265153073e-07
2.33454646162e-06
3.25535443861e-06
4.13898197058e-06
1.4512947737e-06
4.04220584714e-06
7.54989303076e-06
1.62334494169e-06
4.64823640475e-06
2.50352403497e-06
2.5084630815e-07
5.45779709861e-07
1.97858232659e-06
9.69708180958e-08
7.96931348629e-07
3.95517456783e-07
5.77837682045e-08
8.07258464337e-07
6.42354049638e-07
3.35808212614e-08
1.08881501364e-07
5.16066021382e-07
1.72015724742e-07
8.70584130859e-07
6.95098989114e-07
3.27505003065e-07
1.46505507582e-07
4.26510803195e-07
7.50698122467e-07
7.03533664946e-07
6.96010347838e-07
3.05663919371e-07
1.72862409453e-07
2.54965233227e-07
3.50875545305e-07
6.80218656851e-07
7.70607244639e-07