# vtk DataFile Version 3.0
File Name: Molecule/arg/arg_4.0-1.vtk
ASCII
DATASET UNSTRUCTURED_GRID
FIELD FieldData 1
TIME 1 1 double
0.0
POINTS 688 double
-3.403 0.327 1.604
-3.45 0.103 1.078
-2.981 -0.361 1.858
-3.028 -0.584 1.332
-3.298 -0.003 0.536
-2.876 -0.691 0.79
-2.971 0.024 0.066
-2.549 -0.664 0.32
-2.984 0.046 0.042
-2.471 -0.12 -0.363
-2.484 -0.099 -0.385
-2.2 -0.483 -0.862
-2.216 -0.458 -0.889
-3.25 0.578 -0.258
-2.57 0.022 -0.532
-2.777 0.436 -0.766
-2.39 -0.269 -1.153
-2.617 0.185 -1.409
-3.173 1.207 -0.458
-2.716 0.926 -0.921
-2.55 0.723 -1.58
-2.776 1.74 -0.497
-2.407 1.34 -0.951
-2.211 1.177 -1.613
-2.622 1.932 -0.429
-2.287 1.501 -0.894
-2.142 1.682 -0.83
-1.982 1.439 -1.492
-1.81 1.654 -1.416
-2.655 2.421 0.048
-2.046 2.135 -0.548
-2.075 2.574 -0.12
-1.615 2.438 -0.879
-1.647 2.927 -0.402
-2.495 2.657 0.67
-1.932 2.785 0.438
-1.488 3.163 0.22
-2.925 2.572 1.071
-2.137 2.872 1.156
-2.512 2.798 1.506
-1.863 3.333 1.507
-2.279 3.251 1.894
-3.186 2.284 1.521
-2.739 2.546 1.897
-2.53 2.972 2.328
-3.419 1.801 1.788
-2.888 2.359 1.917
-3.122 1.876 2.185
-2.717 2.558 2.345
-2.979 2.017 2.644
-3.567 1.179 1.827
-3.133 1.725 2.369
-3.262 1.186 2.403
-3.107 1.793 3.017
-3.25 1.192 3.055
-3.408 0.559 1.798
-3.123 0.649 2.378
-3.095 0.593 3.027
-3.105 0.348 2.085
-3.1 0.088 1.867
-2.97 0.105 2.152
-3.02 0.504 2.546
-2.901 0.29 2.606
-2.978 0.383 3.085
-2.865 -0.346 2.113
-2.52 -0.7 2.425
-2.794 0.071 2.575
-2.491 -0.24 2.849
-2.645 0.041 3.387
-2.46 -1.117 2.184
-2.148 -0.9 2.844
-2.09 -1.3 2.613
-2.003 -1.142 3.367
-1.937 -1.6 3.103
-2.268 -1.45 1.888
-1.906 -1.62 2.328
-1.726 -1.965 2.777
-1.967 -1.659 1.57
-1.617 -1.821 2.023
-1.396 -2.195 2.428
-1.592 -1.721 1.268
-1.257 -1.88 1.733
-0.984 -2.263 2.097
-2.026 -1.588 0.931
-1.237 -1.838 0.739
-1.646 -1.713 0.421
-0.96 -2.23 0.303
-1.437 -2.084 -0.068
-2.342 -1.257 0.596
-1.944 -1.402 0.106
-1.784 -1.721 -0.435
-2.487 -0.785 0.321
-2.08 -0.956 -0.154
-1.943 -1.202 -0.738
-2.189 -0.632 -0.224
-2.248 -0.516 -0.225
-2.131 -0.618 -0.861
-2.114 -0.682 -1.181
-1.927 -1.264 -1.052
-2.312 -0.441 -1.376
-2.121 -0.506 -1.916
-2.042 -0.816 -1.214
-1.838 -0.886 -1.79
-1.682 -1.348 -1.746
-1.975 -0.256 -2.322
-1.864 -0.768 -1.888
-1.672 -0.441 -2.421
-1.897 0.192 -2.527
-1.57 0.147 -2.691
-1.996 0.646 -2.441
-1.495 0.306 -2.776
-1.602 0.798 -2.682
-1.198 0.386 -3.152
-1.328 0.981 -3.039
-2.011 1.039 -2.18
-1.619 1.224 -2.399
-1.348 1.496 -2.696
-1.72 1.257 -2.235
-1.479 1.817 -1.75
-1.107 2.057 -2.211
-1.346 2.153 -1.415
-1.642 2.007 -1.116
-1.319 2.584 -1.178
-0.816 3.013 -1.267
-1.111 2.259 -1.642
-0.623 2.675 -1.729
-0.543 2.537 -2.312
0.466 3.148 -0.891
-0.416 2.926 -1.599
0.331 3.005 -1.38
-0.131 2.956 -2.042
0.328 3.005 -1.907
-0.002 3.1 -2.533
0.456 3.148 -2.398
-0.048 3.337 -3.001
0.699 3.415 -2.782
0.833 2.913 -0.61
0.619 2.806 -1.364
0.976 2.577 -1.092
0.892 2.689 -1.891
1.303 2.425 -1.576
1.057 2.557 -0.305
1.192 2.232 -0.796
1.553 2.026 -1.234
0.979 2.767 0.195
1.539 1.918 0.039
1.462 2.128 0.539
0.737 2.845 0.68
1.22 2.206 1.024
0.406 3.093 0.833
0.71 2.572 1.142
0.419 2.789 1.277
0.841 2.425 1.643
0.539 2.651 1.783
1.112 2.426 2.108
0.748 2.699 2.276
0.011 3.456 0.651
0.05 3.076 1.433
-0.284 3.383 1.279
-0.034 3.266 2.099
-0.415 3.616 1.924
-0.504 3.599 0.465
-0.72 3.504 1.122
-0.913 3.754 1.744
-1.038 3.495 0.311
-1.173 3.416 0.991
-1.429 3.653 1.595
-1.554 3.135 0.914
-0.08 3.426 2.677
0.304 2.919 2.221
0.258 3.08 2.801
0.695 2.881 2.933
-0.313 3.4 3.231
0.024 3.055 3.358
0.431 2.852 3.563
-0.687 3.194 3.654
-0.352 2.847 3.783
0.006 2.617 4.044
-1.222 3.175 3.77
-0.58 2.815 3.881
-1.2 2.794 4.016
-1.756 3.136 3.659
-1.82 2.748 3.887
-2.199 3.083 3.341
-2.333 2.687 3.518
-2.473 3.025 2.87
-2.65 2.619 2.973
-0.832 2.373 4.277
-0.242 2.183 4.431
-1.061 1.806 4.483
-0.466 1.628 4.634
-1.434 2.302 4.313
-1.452 1.611 4.604
-1.773 2.038 4.456
-1.892 2.602 3.976
-2.169 2.297 4.166
-2.355 2.652 3.532
-2.568 2.341 3.783
-2.74 2.445 3.06
-2.9 2.162 3.376
-1.464 1.095 4.666
-0.956 1.592 4.533
-0.968 1.074 4.596
-0.48 1.041 4.705
-1.655 0.731 4.634
-0.882 0.784 4.614
-1.066 0.434 4.582
-0.333 0.517 4.869
-0.555 0.096 4.831
-2.14 0.383 4.441
-1.246 0.178 4.538
-1.7 -0.148 4.358
-0.878 -0.357 4.785
-1.429 -0.753 4.566
-2.498 0.133 3.99
-2.035 -0.382 3.936
-1.836 -1.037 4.053
-2.172 -0.468 3.371
-0.383 -0.749 5.065
-0.05 -0.304 5.117
0.164 -1.171 5.088
0.507 -0.734 5.141
0.4 -1.671 4.946
0.615 -0.976 5.092
0.839 -1.451 4.956
1.043 -0.806 5.264
1.279 -1.306 5.122
0.636 -2.087 4.632
1.063 -1.845 4.659
1.514 -1.722 4.808
0.844 -2.371 4.183
1.26 -2.115 4.232
1.723 -2.007 4.359
1.002 -2.493 3.648
1.411 -2.231 3.724
1.881 -2.129 3.824
1.092 -2.439 3.086
1.496 -2.18 3.191
1.971 -2.075 3.263
1.104 -2.215 2.561
1.508 -1.967 2.692
1.983 -1.85 2.738
1.037 -1.846 2.131
1.444 -1.616 2.284
1.916 -1.481 2.307
0.647 -2.269 2.118
0.798 -1.688 1.555
0.487 -2.024 1.545
0.806 -1.676 0.912
0.496 -2.012 0.902
1.061 -1.813 0.337
0.67 -2.236 0.324
0.119 -2.499 2.107
0.068 -2.206 1.536
0.076 -2.194 0.893
0.142 -2.466 0.313
-0.457 -2.497 2.099
-0.39 -2.205 1.53
-0.381 -2.193 0.887
-0.434 -2.464 0.306
-0.808 -2.019 1.528
-0.8 -2.007 0.885
1.48 -1.078 0.031
1.043 -1.422 0.814
1.323 -0.93 0.61
1.205 -1.217 1.373
1.436 -0.812 1.205
1.517 -1.238 1.905
1.797 -0.747 1.701
2.335 -0.746 2.002
1.639 -0.712 -0.547
1.476 -0.549 0.311
1.615 -0.229 -0.195
1.697 -0.118 0.66
1.842 0.216 0.134
1.693 -1.21 -0.838
1.805 -0.426 -1.067
1.853 -0.872 -1.327
2.201 -0.141 -1.444
2.253 -0.62 -1.722
1.568 -1.637 -1.21
1.741 -1.254 -1.66
2.133 -1.029 -2.079
1.279 -1.936 -1.614
1.483 -1.521 -2.022
0.995 -1.392 -3.136
0.238 -1.387 -2.827
0.523 -1.172 -3.329
-0.152 -1.05 -2.884
0.104 -0.811 -3.39
-0.548 -1.409 -2.576
-0.822 -1.287 -2.506
-0.408 -0.948 -2.806
-0.669 -0.831 -2.739
-0.336 -0.591 -3.197
-0.616 -0.466 -3.125
-1.31 -1.347 -2.194
-0.988 -0.705 -2.664
-1.485 -0.767 -2.346
-1.322 -0.31 -2.728
-0.95 -0.071 -3.189
-0.311 -0.212 -3.619
0.128 -0.454 -3.788
-0.16 0.24 -3.931
0.27 -0.03 -4.081
0.101 0.716 -4.098
0.516 0.418 -4.238
-0.411 1.252 -3.909
0.377 1.347 -4.4
0.11 1.626 -4.301
-0.398 1.946 -3.588
0.117 1.987 -4.134
-0.106 2.463 -3.53
-0.202 2.855 -2.684
0.028 3.029 -3.665
0.173 2.486 -3.833
0.9 3.106 -3.671
0.85 2.546 -3.838
0.989 2.064 -4.14
1.267 2.733 -3.406
0.819 3.383 -2.845
1.204 2.948 -2.765
1.749 2.404 -3.353
1.668 2.681 -2.526
0.902 2.914 -2.485
0.749 2.956 -2.405
1.123 2.627 -2.01
1.688 2.19 -1.733
1.962 2.454 -2.382
2.133 1.624 -1.992
2.194 2.159 -2.516
2.141 1.301 -1.585
2.428 1.273 -2.257
2.435 0.969 -1.874
2.042 0.907 -1.262
2.342 0.599 -1.57
1.911 1.516 -1.257
1.855 0.911 -0.632
1.743 1.428 -0.628
1.976 0.918 0.014
1.858 1.462 0.018
1.44 1.861 -0.608
1.861 0.778 -0.544
1.751 0.201 -0.446
1.991 0.665 -1.105
1.878 0.074 -1.004
2.497 1.237 -3.182
2.241 1.687 -2.422
2.29 1.662 -3.078
2.232 2.14 -3.028
1.83 1.363 -3.817
1.817 1.751 -3.528
1.863 2.209 -3.379
1.382 0.739 -4.338
1.413 1.57 -3.947
1.095 1.128 -4.316
1.103 1.869 -4.167
0.855 1.524 -4.455
0.482 0.901 -4.245
1.404 2.01 -3.684
1.315 2.161 -3.664
2.007 0.383 0.735
1.766 -0.192 1.22
2.031 0.236 1.284
1.991 -0.414 1.693
2.267 0.032 1.759
2.675 -0.196 2.083
2.074 0.941 0.928
2.088 0.713 1.449
2.326 0.528 1.931
2.749 0.417 2.295
1.884 1.434 1.198
1.926 1.135 1.68
2.158 0.967 2.172
2.541 0.959 2.592
1.624 1.884 1.117
1.755 1.469 1.75
1.503 1.904 1.671
1.842 1.579 2.299
1.557 2.073 2.21
1.11 2.216 1.58
1.886 1.845 2.759
2.132 1.224 2.493
2.174 1.477 2.929
2.585 1.225 3.051
1.814 2.002 3.263
2.105 1.625 3.407
2.513 1.382 3.555
1.633 2.033 3.763
1.933 1.655 3.881
2.331 1.413 4.055
1.359 1.937 4.21
1.674 1.563 4.305
2.058 1.316 4.502
1.021 1.721 4.561
1.354 1.359 4.638
1.72 1.101 4.853
0.651 1.408 4.781
1.002 1.062 4.847
1.35 0.788 5.074
0.073 1.245 4.841
0.82 0.891 4.947
0.23 0.725 5.008
0.672 0.387 5.179
1.205 0.294 5.301
0.564 -0.173 5.245
1.099 -0.256 5.367
-1.999 2.782 0.776
-1.065 -1.824 1.176
1.419 -0.545 0.696
1.7 -0.166 -0.791
-3.196 2.043 -0.114
-3.592 1.578 -0.026
-3.592 1.985 0.326
-3.196 2.357 0.319
-3.592 2.137 0.843
-3.196 2.469 0.843
-3.592 1.985 1.36
-3.85 1.69 0.843
-3.85 1.435 1.283
-3.592 0.264 0.574
-3.85 0.672 0.843
-3.85 0.927 0.403
-3.592 0.555 0.121
-3.592 1.045 -0.103
-3.85 1.435 0.403
-3.94 1.181 0.843
-3.85 0.927 1.283
-3.592 0.555 1.565
-2.722 -1.154 1.098
-2.722 -1.154 1.636
-2.722 -0.863 2.089
-2.326 -1.497 1.099
-2.482 0.597 -1.975
-2.482 0.047 -1.975
0.763 3.18 -0.086
0.367 3.4 -0.61
0.367 3.512 -0.086
0.367 3.4 0.438
-0.118 3.59 -0.615
-0.118 3.688 -0.086
-0.634 3.59 -0.615
-0.634 3.688 -0.086
-1.119 3.512 -0.086
-1.119 3.4 -0.61
-1.119 3.086 -1.043
-0.667 3.796 3.018
-0.667 3.906 2.497
-1.198 3.918 2.998
-1.198 3.65 3.431
-1.198 3.918 1.996
-1.198 4.012 2.497
-1.729 3.906 2.497
-1.729 3.796 3.018
-1.729 3.482 3.449
-1.729 3.796 1.976
-2.179 3.606 2.497
-2.179 3.474 2.987
-1.895 1.335 4.734
-2.426 1.603 4.572
-2.426 1.073 4.627
-2.426 2.064 4.305
-2.876 2.056 3.843
-2.876 1.697 4.202
-2.876 1.207 4.334
-2.876 0.717 4.202
-2.426 0.566 4.463
-3.176 1.738 3.353
-3.176 1.472 3.813
-3.176 0.942 3.813
-2.876 0.358 3.843
-3.176 0.676 3.353
-3.282 1.207 3.353
0.578 -2.491 4.272
0.08 -2.472 4.525
0.08 -2.776 4.08
0.578 -2.727 3.81
0.08 -2.934 3.566
0.578 -2.808 3.297
0.08 -2.934 3.028
0.578 -2.727 2.784
0.08 -2.776 2.514
0.08 -2.052 4.861
-0.44 -2.052 4.861
-0.44 -2.472 4.525
-0.44 -2.776 4.08
-0.44 -2.934 3.566
-0.44 -2.934 3.028
-0.44 -2.776 2.514
-0.44 -1.551 5.057
-0.938 -1.149 4.956
-0.938 -1.662 4.875
-0.938 -2.124 4.639
-0.938 -2.491 4.272
-0.938 -2.727 3.81
-0.938 -2.808 3.297
-0.938 -2.727 2.784
-0.938 -2.491 2.322
-1.374 -1.149 4.675
-1.374 -1.677 4.571
-1.374 -2.124 4.272
-1.374 -2.423 3.825
-1.374 -2.527 3.297
-1.374 -2.423 2.769
-1.714 -1.289 4.273
-1.714 -1.795 4.042
-1.714 -2.095 3.575
-1.93 -1.406 3.742
1.624 -1.33 -0.389
1.408 -1.719 -0.089
1.408 -2.019 -0.556
1.068 -2.347 -0.306
1.068 -2.451 -0.834
1.408 -2.019 -1.112
1.068 -2.347 -1.362
0.632 -2.651 -0.321
0.632 -2.732 -0.834
0.632 -2.651 -1.347
[...]
CELL_DATA 1372
SCALARS cell_data_0 double
LOOKUP_TABLE default
7.37950402712e-06
9.69547929167e-06
1.65197288298e-05
7.86422116926e-06
5.18971973933e-06
1.02593700772e-06
2.34530358197e-09
9.61227907802e-08
1.76120128803e-07
2.10199893276e-07
6.33536852289e-06
3.24837351876e-05
2.0126780609e-05
4.43566994087e-05
3.93163609145e-05
2.60542615048e-05
5.2942352701e-05
2.47757545941e-05
5.8325490161e-06
1.01958277321e-05
1.05787217304e-05
6.82469930745e-06
2.16601998354e-06
1.28056317028e-06
1.55090398754e-06
4.57369757091e-07
6.47151388663e-06
6.94793281778e-06
2.3137145343e-06
1.25632468279e-06
8.38708732319e-06
2.76036769246e-06
1.50750133352e-06
1.74972923168e-06
3.88950653488e-06
1.36264233127e-06
2.1578894853e-06
3.11129249846e-06
2.34528586935e-06
1.72637721919e-06
1.62274306488e-06
1.71208329378e-06
2.76769077705e-06
2.07128877085e-06
2.41288158014e-06
2.43154848877e-06
5.85284821474e-06
3.06762727327e-06
5.09974974089e-06
4.53714854353e-06
3.4726059589e-06
1.34668994586e-06
6.71354225777e-07
9.77865328656e-07
9.92415169552e-07
4.7191750071e-07
1.32955945557e-06
4.80277898381e-07
8.38258451279e-09
8.55868025886e-07
5.85466299776e-07
1.52628049889e-07
7.17293497064e-07
8.97013135366e-07
8.1710381876e-07
2.18090797367e-06
1.57514416169e-06
2.08568157827e-06
3.45343057712e-06
3.17048389775e-06
1.15779824115e-06
1.76982160949e-06
2.21134475689e-06
1.88810062742e-06
8.8002455895e-07
1.20612251897e-06
1.44433119847e-06
1.12597311541e-06
8.83200214749e-07
1.33448400354e-06
1.25613117658e-06
8.11415411719e-07
2.05688245576e-06
1.73477012127e-06
1.87285961797e-06
1.18485498269e-06
1.48365057231e-06
1.28832785866e-06
6.51464251252e-07
1.22749791282e-06
1.53699119388e-06
1.87072019248e-06
2.07261916501e-06
2.52535875186e-06
4.73297953345e-07
6.75701165064e-07
8.22019861892e-07
8.52017591263e-07
1.46438004753e-06
1.11627009457e-06
1.07782173397e-06
7.06000795465e-07
2.75512287199e-06
3.11751700092e-06
2.75768179119e-06
2.42291816432e-06
1.76676791119e-06
1.79589979357e-06
1.44148378241e-06
1.79364071767e-06
9.95892262705e-07
5.43694185625e-07
3.07066385969e-07
1.80559726709e-06
1.1079751939e-06
1.8842540462e-06
1.27488279564e-06
4.17013542405e-06
2.75340876189e-06
3.46510464492e-06
7.24472840476e-06
8.71513308292e-06
3.95664101569e-06
3.36498724135e-06
2.61005662244e-06
2.09861303999e-06
4.31283625738e-06
5.19982247623e-06
6.77859673725e-06
8.4798305595e-06
6.54301106845e-06
4.39807240592e-06
5.81200636929e-06
2.89412090781e-06
3.53126716343e-06
2.50021637448e-06
4.64280983221e-06
9.3206384423e-06
2.33363585536e-06
1.84166864734e-06
2.90040065717e-06
5.05106502751e-06
2.90889099927e-06
3.49593928179e-06
3.28303998699e-06
5.37868425423e-06
3.85095598106e-06
3.29081117838e-06
2.55267849135e-06
2.58819196477e-06
5.70320072164e-07
5.97292868791e-07
8.86607848526e-07
6.29765590852e-07
9.50455422866e-07
1.05575391512e-06
2.77960558974e-07
6.32399835514e-08
2.37880886615e-07
3.93689844642e-06
1.73072855393e-07
2.79151273419e-07
2.72877491759e-06
2.09518330845e-06
2.91267240325e-07
3.91440736355e-07
2.64231803684e-07
1.4542615824e-07
3.82275111897e-10
1.19356415704e-07
2.26945597282e-07
1.06882008187e-06
2.89230001613e-07
7.01304115587e-08
3.88822314632e-07
1.00852902266e-07
2.23877513397e-06
8.27704917749e-06
5.37592066009e-06
7.40184397378e-06
1.87144108072e-05
2.69348070439e-05
1.71339403338e-05
1.1116623772e-05
2.64887257702e-05
2.24679036098e-05
2.79422821787e-05
2.46634313193e-05
1.96126131926e-05
1.13936075481e-05
5.85617716678e-06
5.58322064159e-06
1.46938366921e-06
2.48783645193e-06
1.02477069067e-05
1.77914461602e-06
9.6496226319e-06
2.55607890087e-05
7.07019446663e-06
7.3406445507e-07
2.02976212314e-07
2.64688728292e-07
7.99422930472e-07
5.144023714e-06
9.00215575701e-06
1.3232599041e-05
8.57416223469e-06
7.08180899482e-06
6.11216277054e-06
4.96292995768e-06
1.3057018529e-05
1.4907300015e-05
3.13706177688e-06
3.22428796044e-06
3.07870648269e-06
5.68922956894e-06
4.28194263612e-06
2.94541591859e-06
5.0161213521e-06
6.30607243464e-06
2.50403975852e-06
2.67870125693e-06
3.12498251527e-06
6.71988830163e-06
3.23107419381e-06
2.11637800719e-06
2.81034292386e-06
2.84039129431e-07
1.2162047737e-05
1.68553022377e-05
1.32431767753e-05
7.63556185866e-06
2.37572312945e-06
2.38384557899e-06
1.89333380289e-06
1.42303634506e-06
5.53493886892e-07
5.09886252061e-07
1.30578459923e-06
2.49957805709e-06
6.60023666514e-07
7.28378583543e-07
5.3465374251e-07
8.11440268483e-07
3.58896576466e-06
3.06762769984e-06
2.29996484439e-06
3.10173795154e-06
1.705343206e-06
2.07322063941e-06
1.99946797398e-07
2.33275419324e-07
3.11958129512e-06
3.89565308245e-06
2.7372110027e-06
4.19384628063e-07
5.87780297822e-07
5.78910944922e-07
6.87713132595e-07
9.31936038525e-07
2.81624895124e-06
2.7324893187e-06
6.07715986391e-07
8.87957438331e-07
1.91306350493e-06
2.71617902257e-06
1.00343228353e-07
9.6628016586e-07
1.16059771652e-06
1.89492095334e-06
2.24445873316e-06
3.33807194816e-06
3.97215121389e-07
1.33737343706e-08
9.93519047903e-07
1.13005694857e-06
1.96428734668e-06
1.36642454324e-06
3.84786413096e-07
1.96402489936e-07
2.74665252569e-07
2.97633908185e-07
3.96053045354e-07
1.13907453779e-06
5.92792618871e-06
1.94531971504e-06
4.71871010927e-07
7.96926242879e-08
5.92548206388e-07
2.26719044765e-08
4.12222922697e-07
1.84274065688e-06
8.19539604963e-07
8.62109064909e-06
9.37124252041e-06
6.25883182288e-06
1.89876176449e-05
6.68121784008e-05
6.00385951548e-05
5.9928298637e-05
6.23623786545e-05
7.78787089102e-05
8.5552866019e-05
3.65709922167e-05
3.66277906481e-05
3.963380611e-05
1.92368305844e-05
3.54594897021e-05
3.17700009595e-05
2.34100997636e-06
7.50294941188e-06
7.58757121373e-06
7.09908762031e-06
1.55006604616e-06
1.98953464355e-07
4.17056481626e-07
1.09860718185e-06
6.68226224145e-07
5.63234181432e-07
1.40708094612e-06
3.1796393772e-06
1.84199830358e-06
3.21834895425e-06
2.62465250044e-06
6.42617437183e-06
3.04486422548e-06
3.75322383406e-06
9.51160171507e-06
5.28819626204e-06
9.12221015985e-06
8.04571234452e-06
2.11309024924e-05
1.44195792149e-05
2.08554764454e-05
1.76600839518e-05
1.69112392476e-05
1.73515529264e-05
2.81580835179e-05
7.19196552541e-06
8.34666924616e-06
1.91145089655e-05
3.22199787842e-06
3.91259745689e-06
3.83112342314e-06
4.60334964399e-06
1.84969681169e-05
1.00820809741e-05
2.50700685441e-06
5.17560204922e-06
4.81253822745e-06
1.31951576875e-05
1.33884614209e-05
1.24127594189e-05
2.87936009153e-06
7.91377532514e-07
4.26059381741e-07
1.26269655936e-05
1.53279138418e-06
9.26822035471e-06
3.5281523316e-05
3.274375753e-05
2.93227408369e-06
4.46122100056e-06
1.53688606435e-05
1.37741828573e-05
1.15815040221e-05
6.19407813938e-06
2.52354810175e-06
7.1563185912e-07
4.54304774517e-06
3.10705681359e-06
2.47415769897e-06
1.11096646335e-06
2.14415617846e-07
3.7420786859e-06
1.70177261709e-06
8.05060079659e-07
4.339033908e-06
2.94866991913e-06
2.17433217749e-06
8.80223558911e-07
1.08977161048e-06
3.71681581569e-06
4.26869279466e-06
2.82586331183e-06
2.73731627602e-06
4.63856376753e-06
3.96556446156e-07
6.29287373424e-07
4.50879105964e-07
1.07780619216e-06
1.69206041303e-06
5.19696432724e-06
3.98281560904e-07
3.31417842078e-06
4.9805355844e-06
6.90864150889e-06
4.27985034113e-06
6.53748886622e-06
5.38468516832e-06
9.42993567059e-06
9.37458215036e-06
1.2122901423e-05
1.0043042485e-05
1.2112337195e-05
1.18382603255e-05
1.50626243565e-05
3.89964825546e-06
2.37009551898e-06
9.31040665641e-06
3.89220615286e-06
6.70702531149e-06
2.21732025487e-06
2.16651168618e-06
3.1034118604e-06
1.54929985623e-06
2.54057656468e-06
4.35475429399e-06
3.54675212959e-06
3.38841318207e-06
2.67946188069e-06
3.00411523996e-06
1.47975874967e-06
1.14132698554e-06
7.12599186228e-07
1.51914412009e-06
1.48776103522e-06
9.56338192022e-07
1.75637198744e-06
7.83864001874e-07
6.23023522897e-07
1.31598291241e-06
4.22333043975e-07
1.09191264375e-06
1.90859498579e-06
1.33076283415e-07
7.31756562992e-07
1.06496694926e-05
1.01261552388e-05
1.13769843825e-05
8.73613052942e-06
7.07380742404e-06
3.73934601496e-06
2.03225989114e-06
2.93448833696e-07
1.2516939171e-06
2.23280841893e-06
1.41684723211e-07
6.69438074732e-07
1.04813830182e-06
7.98600436904e-07
2.1815130672e-07
8.93996655057e-07
1.76408768213e-06
2.72750872481e-06
4.0241610262e-06
4.91597149238e-06
2.34943901723e-06
7.00042165524e-07
8.91844145013e-07
1.18412830668e-06
6.56266432983e-07
1.02925238259e-07
1.43551143058e-07
1.72435508242e-06
9.10275753097e-07
7.82975211838e-07
1.57903559294e-06
9.594630279e-07
6.8927736053e-07
2.95728610353e-06
5.65697505408e-07
1.04104877407e-06
7.08332254887e-08
3.05371166954e-07
1.36833013294e-06
5.05644045729e-07
2.7150588507e-07
6.23517459599e-07
4.40989528644e-07
3.84768389802e-06
4.8475052886e-06
2.27108533852e-06
4.03279089764e-07
1.20775157282e-06
9.54516151352e-07
1.49479475121e-06
1.66306677222e-06
1.66959702259e-06
1.34003035377e-06
2.85928269295e-06
2.09853857308e-06
1.61772463592e-06
3.84730456022e-07
3.42180470739e-07
2.48431898544e-07
3.1958878936e-07
4.03322351577e-07
3.64667577041e-07
8.48107377226e-07
8.06605584272e-07
4.92413884916e-06
2.29725545849e-06
2.12625014967e-06
7.3300652933e-06
4.19950389196e-06
4.22334641089e-06
6.65503108594e-06
3.13114094711e-06
2.33525177317e-06
2.93082436292e-06
2.17085759592e-06
5.9440211479e-06
3.18818053711e-06
8.87540811351e-07
1.53292116975e-06
4.0657075907e-07
3.00179428481e-06
1.38674332398e-05
3.32799978796e-07
1.76696668702e-07
3.69420906812e-07
1.74597968407e-06
6.12884191653e-07
6.9030201148e-07
5.48906796738e-07
4.92446605764e-07
4.8662640399e-07
5.66416597459e-06
1.04095588453e-05
9.0721998831e-06
4.10063925279e-06
4.01427380662e-06
1.67445797988e-06
1.1338858604e-06
7.37151374876e-06
5.09267124728e-06
4.15516681153e-06
1.52786804997e-06
1.30260882256e-06
2.76425433591e-07
6.4971508878e-07
1.38933205664e-07
2.13392107965e-06
4.15863055714e-06
7.68125174216e-07
2.58673026137e-06
9.14289944994e-08
1.40765535763e-07
4.66023453675e-07
1.40515666038e-06
1.40366937598e-06
8.31922495772e-07
7.42567469558e-07
8.69948320919e-07
9.82155790071e-07
1.10654588146e-05
7.06188414978e-06
8.62082634307e-07
2.94481648735e-06
1.22587018723e-05
4.06075554799e-06
2.45287416731e-06
1.87800014252e-05
9.81986503573e-06
9.82409195867e-06
6.12383620116e-06
6.43507381844e-06
1.51329761381e-07
2.40687969709e-06
8.35109935697e-06
7.23390063134e-06
1.37635898148e-05
9.62894560843e-06
9.60722703912e-06
9.46049238237e-06
1.05664675379e-05
1.90451477308e-05
6.80060246853e-06
6.26748297652e-06
2.28092778868e-06
1.70767663075e-07
7.08449006889e-06
3.1078135253e-06
1.21277183943e-06
2.96466482208e-07
3.71373118342e-06
1.38820072625e-06
4.6336116032e-06
9.51043030242e-07
3.49407132854e-06
2.01567301533e-06
1.13849700293e-05
3.069650728e-06
4.56135697444e-06
1.80773582741e-06
2.83630462377e-06
9.30629246984e-08
9.06347474599e-09
1.51985660105e-07
1.96691337284e-08
3.32117311218e-07
8.47339902913e-07
1.75839644578e-06
8.80966938833e-07
6.46715607976e-07
2.64435846822e-06
8.16044425228e-07
1.13097783517e-06
1.95897647377e-06
4.22103811843e-07
1.11368637727e-06
1.47867776041e-06
1.48675059529e-06
2.16422800636e-06
3.22794751103e-06
2.02399050237e-06
6.02628318335e-06
9.28032803247e-06
1.09848559652e-06
1.99998374418e-06
2.84182903618e-06
4.53997309945e-06
1.78942972736e-06
1.68490784364e-06
6.46481902407e-07
6.63730624965e-07
9.30321844011e-07
1.61823315025e-06
1.66138807237e-06
7.29970774929e-06
2.49682289567e-06
2.57112057477e-06
1.37706579603e-07
1.68644155189e-06
2.98503534242e-07
2.74571810623e-07
2.53072857888e-06
1.34975530567e-06
2.55269884735e-06
2.57812022042e-06
9.00082177354e-07
5.59861531501e-06
3.90773583205e-08
1.37399320322e-06
2.4184957219e-07
2.77698226225e-06
5.41184687597e-08
1.51925513083e-07
8.50820517353e-07
2.49430143307e-06
1.01795898201e-06
8.43129120723e-07
5.05430576111e-07
1.50085215665e-07
3.08603606707e-07
2.95455675296e-07
1.35730486978e-07
4.49229025648e-07
7.30844008599e-08
2.57953093243e-07
2.79733214835e-07
1.0129383803e-06
5.2647223314e-07
1.47605510976e-07
2.65800723752e-07
5.05614945301e-07
2.24017496215e-08
2.98302089389e-06
5.05007555952e-08
9.9772430237e-06
9.54649387824e-06
9.44731778277e-06
3.60395940941e-06
2.31408864787e-06
2.05568301286e-06
2.53052820426e-06
2.41439650307e-06
1.08408806176e-06
1.94507079207e-06
1.64287362241e-06
7.47799262725e-06
2.45885099899e-07
1.90581633487e-07
3.3561344988e-07
6.11424787552e-07
8.22112427731e-07
8.61790243109e-07
8.68178077539e-07
8.10780119024e-07
4.29442011722e-07
6.01201729282e-07
1.39025156506e-07
4.09432570002e-07
1.58739911638e-07
1.97134774197e-07
3.93353122674e-07
2.0504243733e-07
2.67870931806e-07
5.27793042004e-07
1.23417737646e-07
5.73350798829e-07
9.89322189659e-07
1.55885248136e-06
1.9097435551e-06
1.10077797459e-06
1.12592689538e-06
6.05832975403e-07
6.49735039522e-06
2.13701705525e-06
1.63806828676e-06
1.14728052913e-06
9.45735900853e-07
8.27093669666e-07
1.56815555497e-06
1.64265330348e-06
1.56342414689e-07
4.58291714712e-08
1.49906797799e-07
3.81909323462e-08
4.01107182504e-08
7.56923698387e-09
4.08335793873e-08
1.9264100426e-09
2.28531024214e-07
8.02731177734e-08
8.69434958592e-08
6.64329001831e-08
1.70984164412e-08
1.98527004167e-07
6.0959804966e-07
9.28081867017e-07
1.135764348e-06
6.09547724064e-07
1.89224060745e-06
1.19052479044e-06
1.05276124407e-05
1.83451248886e-05
7.69893624557e-06
2.04193832556e-05
9.63039907711e-06
1.03169753453e-05
1.11175590242e-06
2.855691085e-07
3.50883843037e-06
2.18580121739e-06
2.27469499046e-07
1.30647341209e-07
1.60251663281e-07
7.72070018159e-07
2.36507836726e-06
2.58670110104e-06
8.46051006699e-06
4.19578839114e-06
3.17015708229e-06
2.79474089242e-06
3.55190403482e-06
2.97941981834e-07
4.54164162703e-07
2.07275653251e-06
2.84031226084e-06
7.2080246764e-06
1.25084029379e-05
1.3395082101e-07
5.40999489184e-07
4.43883566187e-07
4.26487892213e-07
2.16330251871e-07
6.14508328992e-06
5.76125616858e-06
3.41427998749e-05
1.48816096159e-05
1.44859855114e-05
3.51032031522e-05
1.88915993996e-05
2.4862504613e-05
3.33954170848e-05
3.56473147912e-05
3.71221030134e-05
2.88034509167e-05
9.34598041677e-06
7.1457598714e-06
4.04390654985e-06
1.86352419948e-05
6.89196519507e-06
4.30438006874e-06
1.13073469395e-05
9.93217318889e-06
9.02723472553e-07
4.57782438716e-07
8.0589920596e-07
8.8595873582e-07
1.91216580327e-06
2.19217784314e-06
6.42292590738e-07
2.04990139738e-07
2.89225401649e-07
5.76434602512e-07
3.778038881e-06
3.47636549292e-06
6.65608361654e-06
1.2841129437e-05
1.27912657389e-05
9.98728584445e-06
8.61347452986e-06
7.98850318908e-07
3.43516858488e-06
6.02702657938e-06
6.2245361853e-06
5.22635638525e-06
3.45919726135e-06
1.89352460489e-06
2.91844873198e-07
1.30424184501e-07
3.2101825254e-07
1.16888828668e-06
2.7130404023e-06
2.63430740511e-06
4.09455643904e-06
2.06903663175e-06
2.01694423967e-06
6.6635058867e-07
3.0147488582e-07
7.35847404192e-08
1.26184105701e-07
8.8011108846e-08
1.61847181851e-07
7.96459253027e-08
1.85860153226e-07
2.45471749343e-07
7.66313877076e-07
4.32237593257e-07
6.42503861377e-07
1.95591823231e-07
1.97779971389e-07
1.49511373445e-07
2.24978279246e-07
2.60984627853e-07
3.36070780733e-08
8.18128219347e-07
3.87879479576e-07
1.39172035996e-06
3.37028744564e-07
1.4440638809e-06
4.21356029478e-07
5.0383352504e-07
9.85250694362e-07
7.80712034488e-08
8.68126166701e-07
1.1185098214e-06
1.38750175291e-06
2.15260278756e-06
1.07496871738e-06
1.73940679603e-06
9.38575328016e-08
4.50839465331e-07
2.31183692245e-06
1.62679897636e-06
6.99516886978e-07
7.7719546808e-07
5.16343168443e-07
4.66399670292e-07
3.3133992649e-07
8.12509433459e-09
2.39999804777e-08
1.95772720263e-07
3.01604077065e-07
6.10416612656e-07
3.90094961469e-07
1.9750220557e-06
9.9888968309e-07
1.32433761017e-07
2.56055663025e-06
5.10840761211e-06
5.51407644504e-06
2.68694589868e-06
9.52191417466e-07
1.50600292022e-06
4.96714081316e-07
3.78814106995e-07
1.33206293986e-06
2.04980095331e-07
1.25674199637e-06
6.30722126983e-06
5.83280585914e-06
1.08510067739e-05
6.54618178505e-06
1.74317675364e-06
2.02716202895e-06
3.6361513055e-06
6.98769905064e-07
5.72535830401e-07
2.13326083997e-06
3.41943729825e-07
1.46162351498e-06
1.14248755587e-06
3.0893998776e-07
6.44442329713e-07
1.49146586413e-07
3.48729527435e-07
5.91247178211e-07
3.17044581568e-07
6.15156654556e-07
8.89648506214e-07
9.72672352842e-07
7.81039360882e-07
4.84140308397e-07
1.90036356928e-07
5.17465609105e-07
9.56836806247e-07
8.89799756913e-07
8.57429086255e-07
7.94329537598e-07
3.72962196785e-07
3.19719130507e-07
3.51112299976e-08
1.23538703821e-07
5.42702079631e-07
8.91561417915e-07
1.28038139902e-06
5.39073265041e-07
2.57328884306e-07
1.69135754236e-07
8.34572812594e-08
2.15110499535e-07
6.52430899753e-07
9.02151189545e-07
9.87882274722e-07
9.76618185359e-07
7.24762152462e-07
1.61996587962e-06
2.21661559837e-06
2.53466517309e-06
4.80348991739e-06
1.93762256168e-06
4.79356767591e-06
2.79760748085e-06
2.92902155562e-06
1.08266898856e-06
1.26770197687e-06
4.32317764829e-06
4.04607449964e-06
3.82638306022e-06
4.51737370645e-06
7.33000384611e-07
8.04004281462e-07
7.20931610671e-07
1.36117197523e-06
4.39449970516e-06
7.71709574846e-06
2.08472882878e-06
6.22459507178e-06
2.72349827846e-06
1.34564290877e-05
2.87333015541e-06
2.37298098036e-06
1.5792117044e-06
1.55442598601e-06
3.1509050709e-06
1.99361562972e-06
2.56019830562e-06
1.66829121549e-06
2.49330168757e-06
1.71673566478e-06
1.02544653993e-06
9.34478527536e-07
3.3014559401e-07
1.11336361857e-06
1.48114358117e-06
9.84767964848e-07
2.75363801426e-07
4.63231026714e-07
2.1087972745e-06
6.63093588123e-06
5.93070767724e-06
8.7671512803e-07
3.62558854653e-08
1.04324041476e-06
2.84445880495e-07
4.97832372636e-07
3.75094870689e-07
4.16009506559e-07
2.17320893297e-06
1.63874566709e-05
3.30386725255e-05
9.23853722718e-06
3.53346114333e-07
9.85298003379e-07
4.47761787152e-06
5.88633092374e-06
4.10427840942e-06
6.80112748904e-06
3.03427527356e-06
1.7592682509e-06
4.52559272123e-07
1.69723696912e-07
7.57943333154e-07
3.03411743606e-07
2.62161021357e-06
2.24203304791e-06
2.38362907297e-05
1.37849957863e-05
6.37974417594e-06
3.9662144668e-06
2.67936632628e-05
9.4672861445e-06
3.84702769564e-06
5.90401894596e-06
3.77691134865e-06
6.21684604396e-06
1.99369782212e-06
2.12430614893e-06
1.27783719681e-06
4.46469587386e-06
9.36226570605e-06
1.68790342052e-05
6.09400501773e-06
3.05337994036e-06
2.34093371441e-06
3.6332053803e-07
2.86843982424e-06
1.85060200007e-06
4.98111036089e-06
1.86719850109e-06
3.38769056361e-06
6.57583516055e-07
3.51845406739e-07
3.29959677818e-07
2.13662170847e-07
6.58394827195e-09
1.5334594066e-06
4.20600602688e-06
1.04924705789e-06
2.32447577768e-08
4.18623070608e-07
9.40578605018e-07
2.57553388796e-06
2.74520431851e-06
3.60023320999e-06
4.71454754741e-06
6.17489275843e-06
4.76241922517e-06
5.83559885695e-07
3.19970151589e-06
1.14888798435e-06
4.38696949627e-07
4.61634257731e-06
4.56405967303e-06
1.97349808407e-06
3.10489342386e-07
6.48092004683e-07
7.05414922698e-08
7.95187714727e-06
1.08980938368e-05
2.17470851238e-05
1.7119127618e-06
1.35570033478e-06
3.13197519741e-06
1.93995939911e-06
5.52268754755e-06
6.24230709455e-06
1.90521430016e-05
1.41399633398e-05
7.34868401576e-06
8.76681734616e-06
7.28213731845e-07
3.75254093481e-08
7.96864411791e-08
3.37134995729e-07
2.65071949472e-07
7.07298793524e-07
3.81039180033e-07
2.33709712408e-07
1.84815160162e-06
1.49611135591e-06
6.69038698123e-06
1.17362135282e-05
4.49655641475e-06
5.67922921677e-06
1.04374672011e-06
1.00401536927e-06
8.42170949116e-08
5.92143268006e-08
1.61898431352e-07
7.8753033722e-07
4.80659119207e-07
2.14501723025e-06
1.31207762461e-06
2.58182192696e-06
1.70612389544e-06
3.87254548976e-07
1.61831244115e-07
5.6829466265e-08
1.93800958368e-06
1.36161523414e-06
7.82553524339e-06
3.54456801213e-06
3.95478205106e-06
1.23653790028e-05
9.55324568028e-06
1.31046145809e-05
1.88738754025e-05
1.2734507412e-05
2.14902195146e-05
7.60169502492e-06
7.79499388876e-07
6.94411172767e-07
1.83883286071e-07
2.44638964729e-07
4.57928776563e-08
1.24247795006e-06
1.68409614403e-06
2.48207555344e-06
4.6530987089e-06