# vtk DataFile Version 3.0
File Name: Molecule/sphere_excent/sphere_excent_0-s2.vtk
ASCII
DATASET UNSTRUCTURED_GRID
FIELD FieldData 1
TIME 1 1 double
0.0
POINTS 51 double
0.850650808352 -0.525731112119 0.0
0.809016994375 -0.309016994375 -0.5
1.0 0.0 0.0
0.809016994375 0.309016994375 -0.5
0.525731112119 0.0 -0.850650808352
0.850650808352 0.525731112119 0.0
0.5 0.809016994375 -0.309016994375
0.309016994375 0.5 -0.809016994375
0.0 0.850650808352 -0.525731112119
0.5 0.809016994375 0.309016994375
0.0 1.0 0.0
0.0 0.850650808352 0.525731112119
-0.309016994375 0.5 0.809016994375
0.309016994375 0.5 0.809016994375
0.0 0.0 1.0
-0.525731112119 0.0 0.850650808352
0.525731112119 0.0 0.850650808352
-0.309016994375 -0.5 0.809016994375
0.309016994375 -0.5 0.809016994375
0.0 -0.850650808352 0.525731112119
0.809016994375 -0.309016994375 0.5
0.5 -0.809016994375 0.309016994375
0.309016994375 -0.5 -0.809016994375
0.0 0.0 -1.0
-0.309016994375 -0.5 -0.809016994375
0.0 -0.850650808352 -0.525731112119
-0.525731112119 0.0 -0.850650808352
0.809016994375 0.309016994375 0.5
-0.809016994375 -0.309016994375 -0.5
-0.809016994375 0.309016994375 -0.5
-1.0 0.0 0.0
-0.850650808352 -0.525731112119 0.0
-0.850650808352 0.525731112119 0.0
-0.309016994375 0.5 -0.809016994375
-0.5 0.809016994375 -0.309016994375
-0.5 -0.809016994375 -0.309016994375
-0.5 -0.809016994375 0.309016994375
0.0 -1.0 0.0
-0.809016994375 -0.309016994375 0.5
-0.809016994375 0.309016994375 0.5
0.5 -0.809016994375 -0.309016994375
-0.26286555606 0.951056516295 0.162459848116
-0.5 0.809016994375 0.309016994375
-0.26286555606 0.951056516295 -0.162459848116
-0.525731112119 0.850650808352 0.0
-0.702046444776 0.69378047756 0.16062203564
-0.702046444776 0.69378047756 -0.16062203564
-0.425325404176 0.688190960236 0.587785252292
-0.688190960236 0.587785252292 0.425325404176
-0.587785252292 0.425325404176 0.688190960236
-0.862668480416 0.433888564553 0.259891913008

CELLS 98 392
3 0 1 2
3 1 3 2
3 1 4 3
3 2 3 5
3 5 3 6
3 3 7 6
3 3 4 7
3 6 7 8
3 5 6 9
3 6 10 9
3 6 8 10
3 9 10 11
3 11 12 13
3 12 14 13
3 12 15 14
3 13 14 16
3 15 17 14
3 17 18 14
3 17 19 18
3 14 18 16
3 16 18 20
3 18 21 20
3 18 19 21
3 20 21 0
3 4 22 23
3 22 24 23
3 22 25 24
3 23 24 26
3 0 2 20
3 2 27 20
3 2 5 27
3 20 27 16
3 5 9 27
3 9 13 27
3 9 11 13
3 27 13 16
3 26 28 29
3 28 30 29
3 28 31 30
3 29 30 32
3 8 33 34
3 33 29 34
3 33 26 29
3 31 35 36
3 35 37 36
3 35 25 37
3 36 37 19
3 31 36 38
3 36 17 38
3 36 19 17
3 38 17 15
3 15 39 38
3 39 30 38
3 38 30 31
3 26 24 28
3 24 35 28
3 24 25 35
3 28 35 31
3 25 40 37
3 40 21 37
3 40 0 21
3 37 21 19
3 4 1 22
3 1 40 22
3 1 0 40
3 22 40 25
3 4 23 7
3 23 33 7
3 23 26 33
3 7 33 8
3 10 41 11
3 11 41 42
3 10 43 41
3 43 44 41
3 43 34 44
3 41 44 42
3 34 43 8
3 8 43 10
3 42 44 45
3 44 46 45
3 44 34 46
3 45 46 32
3 42 47 11
3 11 47 12
3 42 48 47
3 48 49 47
3 48 39 49
3 47 49 12
3 42 45 48
3 45 50 48
3 45 32 50
3 48 50 39
3 12 49 15
3 49 39 15
3 32 46 29
3 29 46 34
3 39 50 30
3 50 32 30

CELL_TYPES 98
5
5
5
5
5
5
5
5
5
5
5
5
5
5
5
5
5
5
5
5
5
5
5
5
5
5
5
5
5
5
5
5
5
5
5
5
5
5
5
5
5
5
5
5
5
5
5
5
5
5
5
5
5
5
5
5
5
5
5
5
5
5
5
5
5
5
5
5
5
5
5
5
5
5
5
5
5
5
5
5
5
5
5
5
5
5
5
5
5
5
5
5
5
5
5
5
5
5

CELL_DATA 98
SCALARS cell_data_0 double
LOOKUP_TABLE default
0.000310674729352
0.00129787279321
0.000783643530345
0.000696374585319
0.000750938085387
0.00143628106406
0.000824074527662
0.000336574475431
0.000218492850679
0.000523191923025
0.000284034232551
0.000145653591266
6.11881903082e-05
0.000123598117741
0.000118002144652
6.95608391632e-05
9.09213475436e-05
8.76969689131e-05
5.22254865604e-05
6.96360161266e-05
6.86226026054e-05
5.24994439133e-05
3.73016658394e-05
4.40889458618e-06
9.07093501677e-06
1.9601371075e-05
7.8414285973e-06
1.93509444061e-05
0.000131749417148
6.96451894893e-05
4.88323083447e-05
5.41208989727e-05
3.50905471038e-05
3.51979202466e-05
3.1981330375e-05
5.47011071483e-05
2.95831188882e-06
3.31717324989e-06
3.66292262434e-06
4.24595235359e-06
5.1151745715e-05
5.16262589137e-05
1.99908398861e-05
1.59095635594e-05
4.42250487727e-05
2.32018781365e-05
1.03483964313e-05
9.02348311541e-06
5.18786068467e-05
4.13403183349e-05
5.82591304133e-05
4.62202659324e-05
2.95617534132e-05
1.44644943495e-05
7.67503399111e-06
9.81853950625e-06
1.10052466902e-05
2.66321445833e-06
2.46999615137e-05
1.12534466142e-05
1.07715970148e-05
1.12133858721e-05
0.000104718866243
0.000139418865623
0.000155446482992
6.77649459301e-06
0.000139462012626
0.000212698592954
2.89316553498e-05
0.000170814960421
3.04846283502e-05
4.42731584891e-06
3.07212507606e-05
1.40658243193e-06
6.46246037748e-06
5.09793985697e-06
1.46241092945e-05
5.08925662914e-05
2.53341404291e-06
7.66056449271e-08
5.56395199754e-06
1.78253302075e-06
7.98753639129e-06
2.49743389686e-05
3.62527005485e-06
9.94947080863e-07
6.65217762014e-06
1.12006733506e-05
2.77145268864e-06
2.26953905929e-08
1.82913113358e-06
4.42762292282e-06
4.25602798472e-05
2.98613907711e-05
4.20374881996e-06
1.16726915016e-05
8.58508042316e-06
1.27134666994e-06

