# vtk DataFile Version 3.0
File Name: Molecule/sphere_excent/sphere_excent_0-s35.vtk
ASCII
DATASET UNSTRUCTURED_GRID
FIELD FieldData 1
TIME 1 1 double
0.0
POINTS 438 double
0.29931122065 -0.63192486763 0.71315771341
0.050813436508 -0.83196175098 0.55176496506
0.39099398255 -0.83764261007 0.38121804595
0.76440453529 -0.20683155954 0.61058533192
0.77242457867 0.20854413509 0.59960108995
0.60694146156 0.0093464376405 0.79461187124
0.68433481455 -0.21540643275 -0.6960734129
0.75852769613 -0.10743016005 -0.64276313782
0.7609052062 -0.26307842135 -0.59308475256
-0.23667663336 0.34608376026 0.90774005651
-0.41700708866 0.21613365412 0.88280171156
-0.22266079485 0.12469808757 0.96686923504
-0.31885105371 -0.67745870352 0.66276323795
-0.51144719124 -0.38797283173 0.76645255089
-0.57352995872 -0.56661790609 0.59144246578
-0.780379951 -0.26504912972 0.56616383791
-0.6325095892 -0.11248099059 0.76620143652
0.92620491982 0.18323677778 0.3293800056
0.84268325567 0.38204467297 0.37923371792
0.68546420336 0.48026421666 0.54712343216
0.57201832533 0.30100867152 0.76280725002
0.98277330399 0.12132194638 -0.13912983239
0.98600500822 0.14585877955 0.080706842244
0.99698489904 -0.076650135219 0.012142974883
-0.015412619337 0.45257353783 0.89149028063
-0.2939966917 0.62483787537 0.7231246233
-0.022225730121 0.21815811098 0.97565573454
0.19258707762 0.27655678988 0.94141024351
0.17678897083 0.033311303705 0.98296838999
-0.41296839714 -0.81134623289 0.41315066814
-0.81813359261 -0.5501434207 0.16695123911
-0.77099192142 -0.63546103239 0.040858667344
-0.62905222178 -0.74890708923 0.20791395009
0.57348722219 -0.53940427303 0.6162160635
0.31148332357 -0.44946756959 0.83637410402
0.62883657217 -0.75679242611 -0.17872098088
0.7672970295 -0.64078432322 -0.023932250217
0.52602690458 -0.84938299656 0.034869764
0.67998236418 -0.7105538249 0.18058933318
0.86919879913 -0.47823783755 0.12481407076
0.89557111263 -0.44184285402 -0.05185392499
0.8402299881 -0.50973558426 -0.18434078991
-0.96223753691 -0.25515952706 0.094390012324
-0.90376037359 -0.39956566691 0.1534485966
-0.92180109024 -0.24392648041 0.30113172531
-0.84333908558 -0.4320179224 0.31916636229
-0.81655019522 -0.56969708204 -0.092997811735
-0.86376559734 -0.50289052725 0.030650012195
-0.023077687249 -0.64453262091 0.76421058178
0.28097194433 -0.27930644155 0.91785240173
0.52475678921 -0.29697418213 0.79766106606
0.39326664805 -0.077239118516 0.91624373198
-0.22234489024 -0.49152314663 0.84200268984
0.0059771500528 -0.44967824221 0.89261525869
-0.1652623713 -0.29025661945 0.94249230623
0.40324920416 0.15466716886 0.90191048384
0.0062020579353 0.8992832303 -0.43713730574
0.095628529787 0.96585440636 -0.24067975581
0.21577510238 0.87210607529 -0.43912869692
0.36495772004 0.88398808241 -0.29209131002
0.28329068422 0.95163369179 -0.11829628795
0.40126490593 0.78272366524 -0.47537484765
0.53735923767 0.77641177177 -0.32871842384
0.51558208466 0.67118918896 -0.53224718571
0.23795039952 0.73877137899 -0.63048899174
0.40076366067 0.65570068359 -0.63878780603
-0.97724181414 -0.082969382405 0.19515755773
-0.91170549393 -0.035767652094 0.40788206458
-0.95947015285 -0.26744192839 -0.088823214173
-0.92656737566 -0.37602284551 -0.0066825477406
-0.91421759129 -0.36918622255 -0.16702540219
-0.92724066973 -0.26729178429 -0.26219278574
-0.83544039726 0.49100112915 -0.24626599252
-0.90958380699 0.4005869627 -0.1078774631
-0.76362532377 0.63765758276 -0.099961683154
-0.9722995162 0.17306058109 0.15495245159
-0.99896723032 -0.0036403867416 0.043821066618
-0.98917341232 -0.1458427012 -0.0099867032841
-0.99467712641 -0.042615164071 -0.093678832054
-0.97286170721 -0.1648029685 -0.16227403283
-0.98296886683 0.04334095493 -0.17823860049
-0.992623806 0.10876921564 -0.053511224687
-0.43836143613 -0.54866331816 -0.7118088007
-0.33766305447 -0.72537535429 -0.59929531813
-0.55698341131 -0.6033013463 -0.57064157724
-0.19727921486 -0.5925770998 -0.78079366684
-0.70911628008 -0.48970088363 -0.5072914958
-0.75140804052 -0.55820459127 -0.3518306613
-0.80868113041 -0.43399804831 -0.39703688025
-0.64878571033 -0.62153410912 -0.4389910996
-0.65254372358 -0.69125497341 -0.3100746572
-0.76468771696 -0.60708248615 -0.21594321728
-0.6915512085 -0.69938546419 -0.18038700521
-0.83921825886 -0.48998677731 -0.23574112356
-0.50658965111 -0.74258679152 -0.43812075257
-0.51701569557 -0.80922883749 -0.27886998653
-0.37177798152 -0.87754756212 -0.3020670712
-0.73326146603 -0.67562520504 -0.076363436878
-0.80344611406 0.36923718452 0.46614032984
-0.59467273951 0.52427828312 0.60927772522
-0.71714317799 0.63416743279 0.28651639819
-0.53881943226 0.72727894783 0.42393010855
-0.77910208702 0.067709825933 0.62319409847
0.56347227097 0.80829536915 -0.1703017652
0.69797569513 0.68086510897 -0.22190615535
0.66402083635 0.74729919434 -0.024103952572
0.84664106369 0.49430036545 -0.19685922563
0.78592282534 0.61435616016 -0.069321490824
0.63380545378 0.65461140871 -0.41171768308
0.75904804468 0.54965347052 -0.34888252616
-0.5872413516 0.10026536137 0.80314391851
-0.64813649654 0.29552900791 0.70184153318
-0.44950062037 0.41616436839 0.79037201405
-0.40590542555 0.004603870213 0.91387557983
-0.61771833897 -0.43048790097 -0.65673285723
-0.49900439382 -0.34327057004 -0.79571902752
0.66951775551 0.71783465147 0.19071175158
0.53999984264 0.8364546895 0.093070439994
-0.83699983358 0.54199463129 0.075212351978
-0.92202138901 0.36494228244 0.12814635038
-0.96637320518 0.25700089335 -0.0098859835416
-0.9635387063 0.19928789139 -0.17799505591
-0.84577703476 0.29524618387 -0.44436866045
-0.90276783705 0.32494619489 -0.28144523501
-0.79175359011 0.47204861045 -0.38704767823
-0.92176163197 0.17905895412 -0.34380161762
0.46678012609 0.49054133892 -0.73536813259
0.51920580864 0.37667277455 -0.76614898443
0.39656072855 0.39124009013 -0.83049851656
0.3626832366 0.25119259953 -0.89702326059
0.48613709211 0.26554301381 -0.83252859116
0.43307349086 0.14500281215 -0.88964211941
0.52062684298 0.1455411464 -0.84132361412
0.47296532989 -0.035517543554 -0.88033241034
0.713301301 0.15174229443 -0.68423438072
0.73282849789 0.25651982427 -0.62949717045
0.77268856764 0.12229149789 -0.62293899059
0.81367981434 0.0085141537711 -0.58124804497
0.72742396593 0.024045079947 -0.6857688427
0.85990142822 -0.11598490924 -0.49707967043
0.88904136419 0.079178795218 -0.45086061954
0.64215445518 -0.076615944505 -0.76216953993
0.63675862551 0.025961600244 -0.77048277855
0.31173926592 0.10418301076 -0.94448262453
0.18663538992 0.22912341356 -0.95529121161
0.1338802278 0.13226123154 -0.98198997974
0.93213319778 0.31639698148 0.17616389692
0.94559961557 0.32230764627 -0.044122479856
0.8977868557 0.43335705996 0.078397847712
0.85616064072 0.47345435619 0.20685210824
0.77484387159 0.54847294092 0.31425741315
0.8482093811 0.4065155983 -0.33957952261
0.925111413 0.29962590337 -0.23322078586
-0.038992963731 0.015764983371 0.99910444021
-0.0090020354837 -0.18185833097 0.98272371292
-0.18374665082 -0.079285815358 0.97973275185
0.75429463387 0.65323847532 0.065060853958
0.2723466754 -0.042783532292 -0.96040475368
0.45182338357 0.55533713102 0.69818139076
0.21595095098 0.70472627878 0.67579889297
0.20633223653 0.52409946918 0.82629036903
-0.0023157482501 0.66306763887 0.74855357409
-0.05562928319 0.84237378836 0.53533190489
0.37754178047 0.75103777647 0.54118001461
0.94042378664 -0.0073158512823 -0.33991119266
0.88431715965 0.25556722283 -0.39082717896
0.93574643135 0.15364785492 -0.3174662292
-0.67412817478 -0.17680759728 -0.71632033587
-0.81175208092 -0.15829265118 -0.56211459637
-0.80424469709 0.0053157862276 -0.59416896105
-0.39835196733 -0.12270317972 -0.9089820981
-0.52255493402 -0.14996735752 -0.8392753005
-0.4399958849 0.00090783799533 -0.89799034595
-0.57830929756 -0.0006619784981 -0.81579476595
-0.26850581169 0.04138943553 -0.96236926317
-0.36757388711 0.11649247259 -0.92263162136
-0.49700301886 0.15198463202 -0.85433113575
-0.56431889534 0.27795615792 -0.77733677626
-0.62958449125 0.13428223133 -0.76521170139
-0.92129325867 -0.08226338774 -0.38006699085
-0.88324761391 -0.18943279982 -0.42887756228
-0.94609510899 -0.1430106461 -0.29062435031
-0.78421926498 -0.32268637419 -0.52859055996
-0.87509071827 -0.053116008639 -0.48101636767
-0.8814804554 0.094743147492 -0.46247261763
-0.92540132999 0.028697527945 -0.3778154552
-0.95533972979 -0.026507960632 -0.29423564672
-0.97612529993 -0.068853102624 -0.20591379702
-0.95678335428 0.083321973681 -0.2784267664
0.51594954729 -0.23756816983 -0.82222592831
0.34302663803 -0.19158948958 -0.91958957911
0.63897699118 -0.35071223974 -0.6845715642
0.50668722391 -0.40371239185 -0.7617406249
0.60711294413 -0.23307974637 -0.75853359699
0.57344186306 -0.48739215732 -0.65807318687
0.3538596034 -0.38239136338 -0.85325801373
0.70423525572 -0.43324607611 -0.56243777275
0.82906574011 -0.32527384162 -0.45472455025
0.20018216968 -0.59722214937 -0.77666252851
0.3743083477 -0.5628990531 -0.73648834229
0.97246432304 -0.016957337037 0.23251652718
0.95261412859 -0.23822054267 0.1891156137
0.89276456833 0.0075359260663 0.45039153099
0.91566759348 -0.16989673674 0.36407864094
-0.86380678415 -0.31804344058 -0.39077934623
-0.87927114964 -0.37804597616 -0.28976887465
0.74167776108 -0.51912552118 -0.42418575287
0.86929106712 -0.36870184541 0.32896032929
0.27302089334 -0.75451308489 -0.59668946266
0.33528158069 -0.86931377649 -0.36085993052
0.041293960065 -0.85974091291 -0.50862789154
0.95574551821 -0.29366287589 0.01702561602
0.95829606056 -0.24069941044 -0.15393739939
0.45504179597 -0.71028268337 -0.53572899103
0.77602285147 0.43418973684 -0.45744502544
0.69759434462 0.5276902914 -0.48434868455
0.37213033438 0.37177574635 0.85042458773
0.5563942194 -0.73950564861 -0.37791544199
0.44103747606 -0.88302147388 -0.16005572677
0.64235472679 -0.59569293261 -0.48093020916
0.68830114603 -0.64725971222 -0.32733443379
-0.66058284044 -0.74973124266 0.038455169648
-0.49689677358 -0.86734032631 0.026114495471
-0.63055682182 -0.77137583494 -0.085483185947
[...]
CELL_DATA 872
SCALARS cell_data_0 double
LOOKUP_TABLE default
0.00023785870458
1.39988083399e-05
9.18776991187e-07
1.68925779191e-05
1.36681486968e-05
1.67159566017e-05
6.31553400172e-06
7.81995670691e-06
1.13968315695e-05
3.81993751178e-05
2.38417673658e-05
1.87488901372e-05
1.4217329823e-05
3.82539927693e-05
1.43559610856e-05
6.8561570979e-06
1.42516274778e-05
0.000147373134927
5.04087635618e-06
1.77924926449e-05
9.63859190362e-06
7.78252080893e-06
5.84870469249e-05
5.52233312302e-05
1.9724720967e-06
5.94167535017e-06
5.23848396095e-08
5.3344464402e-05
7.35416205172e-06
2.50329101131e-05
2.49252785591e-05
7.40289344592e-06
9.13892978641e-06
2.35659678134e-05
1.7703977334e-05
1.30253765927e-05
1.70816562502e-05
3.6177666831e-05
1.34246371209e-06
1.00578319248e-06
6.77716421269e-07
7.41015261062e-07
2.33854505019e-06
2.62973403008e-06
8.51647759301e-07
8.86441814971e-06
3.102444857e-06
2.25011367168e-06
6.41268898024e-06
5.38804983253e-06
2.35092824556e-06
9.74519752431e-07
4.54346412701e-07
8.4419570729e-08
2.07624267322e-06
1.33607548593e-06
6.0018360252e-07
1.51621674921e-06
9.35230886712e-07
6.75284026979e-07
4.52835681646e-07
5.65221726174e-07
1.74548153095e-05
5.91229290559e-07
6.04076077651e-07
3.68396233317e-06
3.01554752494e-07
5.32500877969e-07
3.80374980767e-07
4.30941790327e-07
3.88279189121e-07
6.50015230475e-07
2.86663875392e-07
3.85649112877e-07
2.09844295358e-07
9.68093318823e-06
1.44375267432e-05
1.30986181203e-05
9.53349901007e-06
2.66096986083e-06
3.12154148686e-07
8.71426947663e-07
1.55032788213e-05
8.0929021366e-06
1.28599411801e-05
1.03915543268e-05
1.29238402779e-05
1.14721268808e-05
9.68482958829e-06
1.06666813675e-05
1.45841750838e-05
1.29201622607e-05
1.94435755237e-05
1.59415914755e-05
1.25467955059e-05
1.78044264584e-05
7.88595527033e-07
8.38514200017e-07
1.74026221744e-05
2.42750393171e-05
5.77416386592e-05
2.52376700881e-05
5.29831317079e-05
1.77407022125e-06
8.48983542807e-07
1.08715441419e-07
2.16749227353e-05
6.27771107434e-05
2.85531727887e-05
2.30830644712e-05
1.71162049012e-05
4.44444702071e-07
7.46087186587e-07
3.03946411984e-07
5.27885951824e-06
3.70526309283e-06
3.43078350026e-06
1.91056291531e-07
1.11352085372e-05
1.50030496033e-05
1.37763669511e-05
3.25846457677e-08
2.63685020292e-08
1.19936762755e-07
8.25393999767e-09
7.21425072891e-06
8.3043816865e-06
1.10405095785e-06
1.95945774916e-07
1.83595533138e-06
8.42650900956e-06
8.44129953598e-08
2.41194894009e-06
3.04101620121e-06
1.94892391837e-06
1.38338563334e-06
1.77116361129e-06
4.09031959074e-06
2.0742331575e-06
1.45542104722e-05
3.46988162476e-05
1.35477073923e-05
1.73944502408e-05
1.24033898757e-05
1.21608214413e-05
9.32095573829e-06
1.12045598319e-05
1.11467343506e-05
1.16308159618e-06
3.21868589313e-06
2.93019152781e-06
1.65541648637e-05
5.83785007801e-06
1.08890518412e-05
8.86316516413e-06
1.17966366554e-05
1.13353840069e-05
8.75776083296e-06
1.34327958092e-05
1.21983736048e-06
8.68119259559e-06
3.73436421777e-07
3.06833493098e-07
1.87444654143e-06
1.28069074797e-05
2.16852068403e-07
7.36068050381e-08
1.06834752598e-07
5.53920927716e-07
8.40554428358e-08
1.33277782229e-07
2.04917076506e-07
7.81333236414e-08
9.3187322473e-07
1.54385674134e-05
1.59474113399e-05
1.46094842878e-05
8.29422979308e-07
2.41046082474e-06
2.86085459604e-07
2.99099389667e-09
1.812883244e-08
3.35751856314e-08
2.76532359429e-07
4.87276458034e-08
1.30803075166e-05
7.025953974e-07
1.32857671348e-06
1.19264122603e-06
6.91500156186e-07
5.14513814894e-07
8.82531187557e-07
4.96854055733e-07
1.20895786728e-07
1.02869730007e-06
5.71092654224e-07
1.36437511207e-05
2.33126652428e-07
2.01757470669e-05
4.91022151725e-05
1.70234515427e-05
9.34273998866e-07
3.77042225032e-08
1.76752164336e-07
2.29813134573e-05
1.20426253902e-06
1.1557484772e-06
6.34080428933e-06
3.61789172253e-08
3.62297849136e-05
2.56869949959e-05
1.25960447436e-05
4.59913921752e-06
3.17816334328e-06
3.40700579408e-06
1.08425677404e-05
1.40547509739e-05
5.96717801447e-06
2.81493993194e-06
5.90823410923e-06
2.39163177185e-06
1.2663470443e-07
1.52031821644e-07
2.04139061448e-07
6.55449727308e-06
1.22432682787e-05
1.83061501307e-07
2.48735923401e-07
1.68905964825e-07
1.026082138e-05
2.17852741278e-06
2.7673080508e-07
1.18230522821e-05
1.74666360905e-05
4.41448603743e-05
1.90094955893e-06
1.04545697756e-07
3.39306021952e-05
5.18022156043e-05
2.25060970509e-05
1.8074356713e-05
2.50771411211e-06
4.48496213268e-07
5.76890478708e-06
1.13188175268e-05
1.08245853359e-05
1.23797334059e-05
2.00146088866e-05
6.94018692623e-07
1.3020905913e-07
2.56233353305e-07
5.25831471105e-07
8.31316359103e-07
1.69341638921e-07
6.63490147235e-07
4.17154148662e-07
9.56633330222e-07
4.52954675521e-05
5.16452437024e-06
2.06774076236e-06
2.94623396329e-06
1.86772867389e-05
4.08175205165e-07
5.02492341205e-07
2.32931538971e-05
3.28706599343e-05
3.63299908621e-07
1.81113607189e-07
2.3353264407e-07
3.82159802581e-07
4.23812676526e-07
9.40586513062e-07
6.48562588395e-07
1.16860010481e-07
1.55760843939e-06
6.55363992327e-09
1.29365071569e-07
1.18133379367e-07
1.21305802317e-05
1.17399660864e-05
2.33571861816e-07
1.11898171286e-06
2.52300596383e-05
8.97639899883e-07
2.55716582331e-06
2.61504914856e-06
2.20354034619e-05
8.27261929031e-06
5.73263976902e-07
1.21902777175e-05
1.3722203388e-05
3.12252361661e-05
3.13594396787e-05
1.80371646285e-07
1.2508337139e-07
1.16600163966e-07
2.66712409337e-07
4.23844012084e-07
1.74402691826e-07
1.18103958907e-07
7.97658092968e-06
5.93167084013e-07
1.21755197218e-05
3.45299944892e-07
3.88706399654e-07
8.63817056127e-07
3.58244652456e-07
9.81141082685e-06
5.7390257615e-07
6.42976448569e-06
4.87316764447e-06
1.10410068334e-05
1.74547733628e-06
2.1224176318e-06
4.0149206304e-06
7.68998404777e-06
6.19231846419e-06
1.99933384184e-06
2.45768206497e-06
1.64480071855e-05
4.36438245222e-06
1.12764699905e-06
1.99521444223e-06
5.15598097595e-07
3.85673608751e-07
1.172973468e-05
6.55532819818e-06
6.14013704821e-07
8.31563893913e-07
7.61898157586e-07
3.97937078621e-07
4.71895572972e-07
3.77490237381e-07
1.25036498364e-06
2.2963775101e-06
3.38861105798e-06
5.72545015166e-06
3.11699404202e-06
3.86316771326e-07
1.13292842598e-08
1.41970211608e-07
2.38172808674e-07
1.20410393757e-05
5.19204099737e-07
6.28952320358e-08
2.22440937168e-07
4.48476193182e-07
3.79957028336e-07
8.1114122173e-09
2.63942531207e-07
8.85258605058e-08
4.20957606278e-06
1.00056432333e-05
4.92519798502e-06
2.65041013786e-06
2.84735000941e-06
2.7126650318e-06
3.84210248305e-05
2.84368736527e-05
4.36356145809e-07
4.34833087967e-07
6.05614664583e-07
7.47070958883e-07
1.09375280039e-06
5.99361725996e-07
4.95523362318e-06
7.60706787187e-06
6.86042524482e-07
1.13568191222e-06
4.85763606514e-07
2.11426821793e-06
4.44788880557e-08
8.9696252402e-08
1.80902332843e-07
3.27897339058e-07
1.72200114855e-07
6.52805720696e-08
1.81566780089e-07
2.58227857734e-06
2.90331840034e-06
5.45267018568e-07
1.77822161297e-07
5.9263778613e-06
6.52588597805e-06
4.11775862109e-06
3.9864637635e-06
6.51135246593e-07
9.11911002029e-08
1.02062476878e-06
2.47941828849e-07
2.36692585705e-06
1.28370186725e-06
3.28374627629e-06
2.91973834877e-06
1.25507717461e-08
7.4269574424e-07
5.23535385198e-07
2.74318783598e-07
3.88783037277e-09
8.93198160455e-06
9.20287339705e-06
3.6125778632e-07
3.69993333561e-07
2.16164351901e-07
1.67202617638e-07
9.59275367502e-08
1.370401406e-07
1.21890109281e-06
5.12614468776e-07
6.64827871732e-08
1.32799530083e-06
4.89797492556e-07
5.33475199584e-08
8.58572499951e-08
2.89255526446e-07
5.21229686188e-07
1.27296602667e-06
8.55171612816e-08
2.67055754287e-07
2.06065949384e-07
4.185906457e-08
2.84838871518e-07
4.74421578339e-08
7.48047690512e-06
5.32926898587e-06
2.39186889541e-06
2.16319483185e-06
4.00256761948e-06
2.20248663228e-06
6.34515828455e-06
4.14677110878e-06
5.14633083798e-06
7.59700674107e-06
1.85207591871e-05
4.35681169662e-05
8.24684958602e-06
4.92588895325e-07
8.7279567846e-07
1.96199315569e-06
5.64532829171e-07
8.99710635148e-07
4.18082845565e-08
2.60833134104e-07
3.91785039682e-07
1.46441333993e-07
1.29925503589e-07
8.41523694802e-07
1.68405512046e-06
5.46332011052e-07
2.98091708756e-07
1.6866766262e-07
4.58548927523e-07
9.82753619476e-08
1.11967401694e-05
2.6081895843e-06
2.21293727972e-07
1.9229239375e-07
2.5788600609e-08
5.0113485252e-06
8.84170625329e-07
2.84297791815e-07
5.47118158224e-07
6.65597909354e-07
1.29011830103e-06
2.91773192662e-06
2.46675962797e-06
1.85347737259e-06
4.35752949585e-06
1.45674431867e-05
1.70388601984e-05
8.85845529118e-06
6.98401115924e-06
8.86395503606e-06
9.28841954507e-06
9.67414124584e-06
1.10312250261e-05
6.6140221515e-07
7.19421960139e-07
5.20941828684e-07
1.09651809108e-06
2.8724321868e-07
5.64305894063e-08
1.99758259463e-07
1.56246252286e-06
3.02720636886e-07
3.17448063944e-07
1.2862514911e-06
6.32157749796e-07
6.75818064786e-07
1.50616315322e-06
1.0679355464e-05
1.00104999436e-05
5.31802107993e-08
1.33321864223e-06
4.956239049e-06
7.79515686596e-06
4.70218687658e-06
5.76940291084e-06
4.70001794836e-07
7.84232134983e-06
4.4462768596e-07
3.53274690319e-07
2.2047700975e-06
3.3978499574e-06
4.77486994793e-06
3.43330550733e-06
2.36881384406e-06
2.15198210263e-06
1.50843213464e-06
8.96587879645e-07
1.38888993109e-06
5.72985169087e-06
8.96334628959e-06
3.55677016676e-07
1.18173379051e-05
7.49452876872e-07
4.95030084698e-07
3.26324068863e-07
2.4688716557e-06
2.36819622051e-07
4.31233701365e-06
2.20220103112e-06
1.25039146445e-06
8.58270066229e-07
6.74887562779e-07
8.85175476091e-07
8.59799862248e-07
7.75687856205e-07
5.15984344709e-08
1.17822215708e-07
1.11770628037e-07
3.98752857642e-06
8.82172737267e-06
6.65321136828e-07
4.41239119927e-06
3.9878061558e-06
2.63469529312e-06
1.42712584272e-06
3.55344669554e-06
1.84874230987e-06
1.23079516917e-05
8.89676458745e-05
6.33844454104e-05
3.07700602203e-05
2.02375246981e-05
2.41235070605e-05
9.79939086612e-07
4.65304678996e-07
2.21342561054e-05
2.54322970417e-06
2.82820221124e-06
2.80105798379e-06
1.21520051406e-06
4.34864570566e-06
1.47176505537e-06
6.65431139031e-06
1.00177150611e-07
1.84332802963e-06
7.92855000445e-06
5.6325238284e-06
1.11780057202e-05
4.22425019306e-06
2.10648030729e-06
8.63880659446e-07
7.43063482528e-08
4.11066652753e-06
6.64989290003e-07
1.327297372e-06
3.31587960496e-08
1.92408610346e-06
4.53558867129e-06
2.3099416702e-08
1.03771923446e-08
4.10522149043e-07
3.56767342183e-05
2.83488096247e-05
6.38302206343e-06
4.49855608192e-07
3.71778543349e-06
3.50701797277e-06
4.34208558824e-07
1.04628744428e-06
3.997378661e-05
1.61074784096e-07
1.22101313669e-05
1.07346498225e-05
7.01496814002e-06
3.03410465682e-06
5.35781371e-05
4.31212854424e-06
2.82524563399e-06
2.60445061933e-06
3.63899680983e-06
3.43922103695e-07
1.95013334353e-07
2.35224645981e-06
1.63499983084e-05
1.99408198428e-06
2.42406343341e-06
1.03110545467e-05
2.06277493839e-05
2.09984663814e-06
3.62187450669e-06
7.96639867311e-07
8.11475451955e-07
1.80715606047e-06
1.03881001794e-06
2.441236094e-05
4.48741760483e-08
1.53043540938e-07
1.56032626975e-07
8.36263305324e-08
5.01211408888e-09
3.79073335828e-08
7.07346083419e-08
3.89017456137e-08
2.99039610569e-07
2.24886808677e-07
2.92453290834e-06
1.7085212121e-06
1.76273669333e-06
1.8506252193e-06
2.30662118775e-06
2.98483856023e-06
8.10895294167e-06
5.09942205635e-06
1.27525444455e-06
1.09360207668e-06
1.51504936383e-06
1.64347646828e-06
1.52127867487e-06
7.20942245525e-06
7.71459732687e-06
1.1565080649e-06
3.41441504446e-07
1.67849586871e-06
1.56009005576e-06
9.32699914918e-07
1.29903267955e-06
1.4955083721e-06
2.55522367721e-06
1.52306228269e-06
1.1772295031e-05
1.73401936783e-06
1.01830819126e-05
1.2242043973e-06
1.77209298836e-07
5.46637326647e-06
1.84148743676e-06
1.99661224822e-06
2.25303384001e-06
2.91519641491e-06
6.37179295453e-06
5.03356636081e-06
2.51268647091e-06
2.21781442898e-06
8.2739672336e-07
2.48120866677e-07
7.04615732831e-07
1.09572172831e-06
1.25136417792e-06
1.00962420182e-06
5.08729060465e-06
7.36767627119e-06
3.91835839125e-06
1.83862736807e-06
2.69360305447e-06
3.58776142623e-07
6.5025995754e-09
7.46393306915e-07
1.94433982579e-09
2.53460033177e-08
4.36033408308e-08
8.81277045594e-07
5.30286372691e-08
8.82718757557e-06
7.38443538818e-08
4.40902486646e-07
2.30588445992e-07
4.11818299602e-07
1.33876328066e-08
4.35520215366e-07
1.32567961753e-07
6.66237886708e-07
5.09356757817e-07
2.42635722758e-07
8.61761397177e-08
5.9382540867e-07
5.03193883669e-06
2.40851230148e-07
1.23257537137e-05
4.12953260948e-06
6.15710499447e-06
8.72420763376e-08
2.48067085869e-05
1.87984662947e-05
1.79156310697e-05
1.43423812343e-05
1.47396967563e-05
4.15415710744e-06
6.34494282685e-06
9.86123080346e-06
1.28362431521e-05
6.95665255912e-06
3.636584262e-06
1.03778214728e-05
1.73545086812e-05
1.79837942383e-05
8.56791255913e-06
2.07098880182e-06
1.05984043749e-06
1.23033448227e-05
4.23768786935e-05
6.68495203582e-06
8.37054660927e-06
2.09707647243e-05
3.88900809358e-05
3.40270420097e-05
2.3127940616e-05
2.50216561682e-05
1.28581560062e-05
1.63492417263e-05
3.24974924821e-06
2.60314883552e-06
3.94889977056e-08
3.44552580209e-06
2.24689661348e-08
7.1661348547e-08
8.81671207619e-06
1.0901074732e-05
4.91773335652e-08
1.21517007622e-07
6.12748012005e-08
2.89346543951e-09
3.87295729498e-08
1.10155044463e-07
5.48149755627e-08
3.64330958031e-06
8.95352625187e-08
9.74839350256e-09
2.31948608242e-08
5.74267637545e-08
8.51849389209e-08
3.93914315831e-06
3.78145727343e-06
9.22753692894e-08
8.82125808299e-08
1.53875761677e-07
7.61765111957e-08
3.14329831625e-08
6.17676530086e-06
3.37931413693e-07
2.2338873989e-07
1.50432514124e-06
1.73704084015e-07
3.77686698978e-07
1.99616362582e-07
4.22863323288e-06
7.7072503369e-06
7.65893951757e-08
6.03509136062e-07
1.28615350994e-08
1.12975455476e-06
1.13696472818e-05
5.64569451836e-06
8.06472821488e-08
2.83458701086e-07
2.23579348704e-07
1.82557360564e-06
1.43052270664e-06
3.60420731178e-07
8.6681170398e-07
2.10106137023e-07
6.21152175081e-08
4.27904386393e-08
4.6621397832e-06
7.63808791648e-06
8.46778450995e-08
5.72303924142e-07
6.09184348693e-06
6.11990663571e-06
9.50751446641e-08
4.76205069683e-07
5.92409873776e-07
1.51312398742e-08
1.17062110458e-07
5.55065000892e-08
1.35725193642e-06
6.67706555021e-06
3.15086786039e-06
1.62114305518e-06
2.75116500601e-06
3.02978442965e-09
2.86133249725e-08
1.32976444457e-08
3.14953803869e-07
1.64087618595e-08
3.38760009545e-08
2.4018797805e-08
2.78473611306e-07
1.59238920962e-08
4.41828534274e-08
1.87036089304e-08
3.37749647719e-08
1.81160676199e-08
3.78583245308e-08
8.29795232104e-09
2.76263117806e-06
2.82637527199e-06
4.62506589635e-08
1.1362712022e-08
2.54596076071e-08
1.29574723366e-07
2.97114313599e-08
2.6076001025e-08
1.08570414967e-07
4.48548096882e-08
9.29865757239e-08
8.28901150679e-08
2.64673002398e-06
5.18677477341e-06
2.15338369644e-06
2.65082667177e-06
6.46617021724e-08
7.69537583212e-08
5.28593338314e-08
1.2765086635e-07
1.52199635252e-07
6.71429722245e-08
5.76663504908e-08
6.00805679256e-08
1.11498963196e-07
8.84932467864e-08
2.78108549612e-08
5.11508999914e-08
5.13399394885e-08
1.07282076743e-08
4.66698438378e-08
1.24349535345e-07
1.78393940985e-06
6.17218961129e-09
5.22406959311e-08
1.41062445713e-08
4.77720122537e-08
1.26549425984e-08
9.66724075437e-08
5.38890916067e-08
1.6435441788e-07
3.21315134771e-06
9.26191017454e-08
2.67160386329e-08
5.41662162348e-08
6.69514251092e-08
3.89962717885e-08
4.02807521156e-07
3.88429167858e-06
1.08531795283e-06
7.24790506356e-06
1.86220286105e-07
5.57541192863e-06
5.07261257387e-08
5.35968912282e-08
3.15423838561e-06
5.4109228877e-08
8.02982138586e-07
3.47241064973e-07
2.72415327593e-08
5.80806855249e-09
2.05344440331e-08
1.4215579893e-08
1.88197909949e-08
2.90210022613e-07

