# vtk DataFile Version 3.0
File Name: Molecule/sphere_excent/sphere_excent_0-s1.vtk
ASCII
DATASET UNSTRUCTURED_GRID
FIELD FieldData 1
TIME 1 1 double
0.0
POINTS 42 double
0.85065078735 -0.52573108673 0.0
0.80892920494 -0.30898347497 -0.49994572997
0.99989145994 -9.9714245749e-09 4.1670162432e-07
0.8089287281 0.30898413062 -0.49994593859
0.52573108673 0.0 -0.85065078735
0.85065078735 0.52573114634 0.0
0.49994558096 0.80892938375 -0.30898311734
0.30898275971 0.49994543195 -0.80892956257
0.0 0.85065078735 -0.52573114634
0.49994587898 0.80892896652 0.3089838028
-8.3899965375e-07 0.99989140034 3.8027305749e-09
2.2204460493e-16 0.85065078735 0.52573108673
-0.49994584918 0.80892896652 0.3089838028
-0.49994596839 0.8089287281 -0.30898413062
-0.85065078735 0.52573114634 0.0
-0.30898311734 0.49994561076 0.80892938375
-0.80892956257 0.30898275971 0.49994543195
-0.52573108673 5.5511151231e-17 0.85065078735
0.30898344517 0.49994570017 0.80892914534
-1.689826945e-09 -8.4459253458e-07 0.99989140034
0.52573108673 2.7755575616e-17 0.85065078735
-0.3089838028 -0.49994584918 0.80892896652
0.30898413062 -0.49994596839 0.8089287281
0.0 -0.85065078735 0.52573108673
0.80892914534 -0.30898344517 0.49994570017
0.49994546175 -0.80892956257 0.30898275971
0.30898311734 -0.49994558096 -0.80892938375
1.0897897695e-08 -8.694914122e-09 -0.99989140034
-0.30898413062 -0.49994593859 -0.8089287281
2.2204460493e-16 -0.85065078735 -0.52573108673
-0.52573114634 0.0 -0.85065078735
0.80892908573 0.30898341537 0.49994564056
-0.80892938375 -0.30898308754 -0.49994558096
-0.80892914534 0.30898344517 -0.49994570017
-0.99989134073 8.5710043507e-09 4.1315800559e-07
-0.85065078735 -0.52573108673 4.4408920985e-16
-0.30898344517 0.49994564056 -0.80892908573
-0.49994546175 -0.80892956257 -0.30898275971
-0.49994570017 -0.80892914534 0.30898344517
4.2515640075e-07 -0.99989134073 4.2034709047e-09
-0.80892908573 -0.30898344517 0.49994567037
0.49994564056 -0.80892908573 -0.30898344517

CELLS 80 320
3 0 1 2
3 1 3 2
3 1 4 3
3 2 3 5
3 5 3 6
3 3 7 6
3 3 4 7
3 6 7 8
3 5 6 9
3 6 10 9
3 6 8 10
3 9 10 11
3 11 10 12
3 10 13 12
3 10 8 13
3 12 13 14
3 11 12 15
3 12 16 15
3 12 14 16
3 15 16 17
3 11 15 18
3 15 19 18
3 15 17 19
3 18 19 20
3 17 21 19
3 21 22 19
3 21 23 22
3 19 22 20
3 20 22 24
3 22 25 24
3 22 23 25
3 24 25 0
3 4 26 27
3 26 28 27
3 26 29 28
3 27 28 30
3 0 2 24
3 2 31 24
3 2 5 31
3 24 31 20
3 5 9 31
3 9 18 31
3 9 11 18
3 31 18 20
3 30 32 33
3 32 34 33
3 32 35 34
3 33 34 14
3 8 36 13
3 36 33 13
3 36 30 33
3 13 33 14
3 35 37 38
3 37 39 38
3 37 29 39
3 38 39 23
3 35 38 40
3 38 21 40
3 38 23 21
3 40 21 17
3 17 16 40
3 16 34 40
3 16 14 34
3 40 34 35
3 30 28 32
3 28 37 32
3 28 29 37
3 32 37 35
3 29 41 39
3 41 25 39
3 41 0 25
3 39 25 23
3 4 1 26
3 1 41 26
3 1 0 41
3 26 41 29
3 4 27 7
3 27 36 7
3 27 30 36
3 7 36 8

CELL_TYPES 80
5
5
5
5
5
5
5
5
5
5
5
5
5
5
5
5
5
5
5
5
5
5
5
5
5
5
5
5
5
5
5
5
5
5
5
5
5
5
5
5
5
5
5
5
5
5
5
5
5
5
5
5
5
5
5
5
5
5
5
5
5
5
5
5
5
5
5
5
5
5
5
5
5
5
5
5
5
5
5
5

CELL_DATA 80
SCALARS cell_data_0 double
LOOKUP_TABLE default
2.34884370595e-05
1.09149056197e-05
1.35084639063e-05
5.58047712142e-06
8.8352605821e-05
0.000191219849476
2.88680003465e-05
0.000164965292771
0.000213434481723
0.000515954216191
0.000260372712908
0.000157491292036
0.000539197188978
0.00119534071082
0.00028011263469
0.000752833816581
0.000364040279516
0.000745040430593
0.000614584556501
2.38829490326e-05
6.40274309452e-05
0.000202707464122
0.000171879590626
0.000129282906611
0.000126204833529
0.000145085415801
6.05829969138e-05
0.00010195941203
3.91793484655e-05
3.7689449727e-05
3.61423588824e-05
1.84553801898e-05
1.41236754795e-06
2.62658189609e-05
2.31245006702e-05
2.6866612118e-05
1.04214494761e-05
2.99603847108e-05
1.74928157741e-05
3.45925435218e-05
3.24286096025e-05
1.52934393339e-06
4.1907686196e-06
6.28867301671e-05
4.8714503703e-06
1.17910681657e-06
2.24300800857e-06
8.96940905904e-06
0.000118363546742
0.000137832255703
4.8258489448e-06
0.000135225292381
1.53088602756e-06
3.46494798431e-06
1.97278690797e-06
1.4705943232e-05
1.18397597912e-06
4.07913625218e-05
3.83201391213e-05
7.02151146974e-05
1.67660053904e-05
6.59633995878e-05
7.09465222211e-05
4.46374307308e-07
2.67036896188e-05
2.46343235141e-05
2.21127163071e-05
2.05646008258e-06
1.97279411948e-06
1.47652411967e-05
9.14796111737e-07
2.15029299089e-05
8.96884183097e-06
9.87966672965e-06
2.84149296467e-05
1.47847118973e-06
2.17842761122e-05
2.44588513176e-05
2.5168430453e-07
2.94817329531e-05

