# vtk DataFile Version 3.0
File Name: Molecule/sphere_excent/sphere_excent_0-s28.vtk
ASCII
DATASET UNSTRUCTURED_GRID
FIELD FieldData 1
TIME 1 1 double
0.0
POINTS 316 double
-0.042997166514 0.86807286739 0.49339553714
-0.54525893927 0.73702269793 0.39872440696
-0.29298233986 0.61368733644 0.73276799917
-0.82642501593 0.55799907446 0.0753897205
-0.83379966021 0.34469977021 0.43089735508
0.31667155027 -0.60378909111 0.73141604662
0.0082000130787 -0.86083185673 0.50879257917
0.40140718222 -0.83795833588 0.36961585283
0.16419816017 -0.59376978874 -0.78725838661
-0.006978506688 -0.86279845238 -0.50519162416
-0.16669668257 -0.57624977827 -0.79956203699
0.77430260181 -0.20535901189 0.59851896763
0.76720052958 0.23413597047 0.59656774998
0.59543293715 0.018874570727 0.80277705193
-0.32960703969 -0.89836347103 -0.2901673317
0.013678885065 -0.99979788065 0.014997415245
-0.48382115364 -0.87378787994 0.043126512319
-0.38252812624 -0.84634363651 0.37091752887
-0.33391806483 -0.65923178196 0.67376410961
-0.96857053041 0.17175325751 0.17908094823
0.37987157702 -0.86463624239 -0.32845363021
0.52688974142 -0.84967315197 0.014957332984
-0.044966518879 0.99880731106 -0.010111030191
-0.27633732557 0.942715168 0.18641853333
0.072813726962 0.98133766651 0.175891608
-0.27095526457 0.94369918108 -0.18937604129
-0.55056363344 0.83431845903 0.030875168741
-0.62560915947 0.73449105024 -0.2622012794
-0.039660733193 0.89213401079 -0.44909664989
0.10045912862 0.96536558867 -0.24059209228
0.48615378141 -0.043124768883 -0.87276369333
0.36622223258 -0.30351915956 -0.87943154573
0.25273370743 -0.062247496098 -0.96537870169
0.094453923404 -0.31252560019 -0.94496840239
0.039019998163 0.017650099471 -0.99904716015
0.46184021235 0.48884043097 -0.74002069235
0.59815204144 0.46429094672 -0.65316665173
0.54146230221 0.36399710178 -0.75782644749
0.68087077141 -0.20234888792 -0.70389211178
0.75940662622 -0.092462189496 -0.64396494627
0.76287400723 -0.26239523292 -0.59089785814
-0.22633431852 0.33117267489 0.91589647532
-0.4089628756 0.21734018624 0.88617730141
-0.20918855071 0.11513014138 0.97087687254
-0.49992078543 -0.35867226124 0.78649067879
-0.60488992929 -0.56814903021 0.55654001236
-0.78833597898 -0.25608438253 0.55922657251
-0.62012624741 -0.090783849359 0.77883410454
-0.090828888118 0.25219857693 -0.96306949854
0.148688972 0.22108526528 -0.96382158995
-0.68345493078 -0.17437298596 -0.708776474
-0.48371136189 -0.33325451612 -0.80896604061
-0.63985037804 -0.40953293443 -0.65023863316
0.92716681957 0.18661621213 0.32477846742
0.84954327345 0.39458438754 0.34998831153
0.69246649742 0.51161265373 0.50747036934
0.54401820898 0.28692343831 0.78718262911
-0.27867487073 0.84626084566 -0.45358997583
0.98014217615 0.12038335204 -0.1568402797
0.98497062922 0.15862086415 0.066904254258
0.99673360586 -0.078173652291 0.015584630892
-0.0087896762416 0.44457289577 0.89564669132
-0.01558116544 0.20401927829 0.97879981995
0.20058600605 0.24270190299 0.94899147749
0.14202529192 -0.0052442979068 0.989767313
-0.82166433334 -0.55309659243 0.13511067629
-0.76860481501 -0.63885837793 0.029879739508
-0.66298031807 -0.714397192 0.22037535906
0.60656619072 -0.54715448618 0.57562839985
0.5220426321 -0.30088233948 0.79800421
0.65077877045 -0.7334009409 -0.19562752545
0.77486395836 -0.63162577152 -0.023545701057
0.69677501917 -0.69266569614 0.1861884594
0.87371695042 -0.46921414137 0.12741465867
0.89597284794 -0.44077152014 -0.053396955132
0.84703087807 -0.48798510432 -0.20843744278
-0.96318423748 -0.26183143258 0.059142738581
-0.90485215187 -0.40543860197 0.12909832597
-0.92410993576 -0.26241537929 0.27732127905
-0.83313208818 -0.45684078336 0.31028905511
-0.82321870327 -0.56050485373 -0.088972337544
-0.87312602997 -0.48674494028 0.015824271366
-0.022083260119 -0.63723772764 0.77043199539
0.25194567442 -0.27569770813 0.92762541771
0.36225807667 -0.051173750311 0.93068987131
-0.2185241133 -0.47898069024 0.85020720959
0.0079757235944 -0.19154824317 0.9814619422
0.031940355897 -0.42173197865 0.90615022182
-0.20648393035 -0.26799786091 0.94016230106
0.41023460031 0.16294634342 0.89713674784
-0.73197704554 0.45684725046 -0.50495296717
-0.82654207945 0.49785748124 -0.26242467761
-0.92499488592 -0.021705789492 0.37901970744
-0.77956199646 0.072293512523 0.62206381559
0.2274184525 0.87090724707 -0.43548041582
0.37091860175 0.88588309288 -0.27849328518
0.30468091369 0.94732916355 -0.096190758049
0.42455714941 0.77238100767 -0.47232970595
0.63345736265 0.6524540782 -0.41588577628
0.54480624199 0.77845823765 -0.3116659224
0.23780323565 0.73961400986 -0.6294888258
0.4067723155 0.64137268066 -0.65040582418
-0.98158335686 -0.099099263549 0.16306364536
-0.95919460058 -0.26238277555 -0.10517966747
-0.92659556866 -0.3754491508 -0.021194618195
-0.91638201475 -0.3666523695 -0.16013178229
-0.929012537 -0.26291847229 -0.26044851542
-0.85193634033 0.27243590355 -0.44645360112
-0.92034113407 0.36112195253 -0.14948141575
-0.99942493439 -0.021042799577 0.020382111892
-0.98801207542 -0.15053214133 -0.032708473504
-0.99211061001 -0.052261698991 -0.11364354193
-0.97044557333 -0.16439592838 -0.17643256485
-0.98113155365 0.028731249273 -0.19084621966
-0.99299693108 0.088193401694 -0.076986446977
-0.33986267447 -0.74792933464 -0.57017409801
-0.51694619656 -0.74160039425 -0.42772170901
-0.45461198688 -0.54633533955 -0.70316058397
-0.57423377037 -0.60076397657 -0.55598443747
-0.72242057323 -0.48516693711 -0.49262613058
-0.76100200415 -0.54958826303 -0.34470587969
-0.81700766087 -0.42527768016 -0.389295578
-0.66147494316 -0.61699169874 -0.42634055018
-0.66893821955 -0.6800262928 -0.30002391338
-0.77250820398 -0.59904766083 -0.21046759188
-0.69911378622 -0.69221872091 -0.17905114591
-0.84492713213 -0.4798361063 -0.23614369333
-0.54874962568 -0.78678739071 -0.28230518103
-0.73766571283 -0.67006742954 -0.082621172071
-0.58842843771 0.5063020587 0.63032507896
0.54623502493 0.82329928875 -0.15149727464
0.69254606962 0.68505257368 -0.22551578283
0.67744123936 0.73508495092 -0.022091442719
0.83175718784 0.53060817719 -0.1612996161
0.8059309721 0.58884477615 -0.040285106748
0.75998443365 0.54544001818 -0.35341131687
-0.5722489953 0.10836709291 0.81281816959
-0.64608711004 0.28707450628 0.70713990927
-0.44390028715 0.41071021557 0.79644316435
-0.38958099484 -0.019244868308 0.92046171427
-0.78656601906 -0.31905996799 -0.52856892347
0.67872780561 0.70959794521 0.18861722946
0.51862466335 0.84748673439 0.10599690676
-0.97089552879 0.236393556 -0.029582202435
-0.96634918451 0.17543011904 -0.18822899461
-0.91652470827 0.28408116102 -0.28156656027
-0.92697042227 0.15609315038 -0.34096673131
0.40767455101 0.38025701046 -0.83011800051
0.36032140255 0.25548070669 -0.89708811045
0.49552062154 0.25986170769 -0.82879567146
0.45229652524 0.14449445903 -0.88009154797
0.55324089527 0.14695036411 -0.81988888979
0.61663001776 0.23958751559 -0.74991494417
0.63914865255 0.07445859164 -0.76536244154
0.70093595982 0.16205555201 -0.69457662106
0.64184188843 0.34909439087 -0.68277776241
0.72160708904 0.26763314009 -0.63847273588
0.7022164464 0.40085780621 -0.58837878704
0.77851688862 0.15004517138 -0.60940110683
0.81202274561 0.23626615107 -0.53357702494
0.87032645941 0.10877072066 -0.48019164801
0.80806100368 0.027896212414 -0.58831053972
0.72843450308 0.042919512838 -0.68367236853
0.858309865 -0.10378754139 -0.50243461132
0.64615505934 -0.072543330491 -0.75973951817
0.3376943171 0.10116185993 -0.93579792976
0.55733907223 -0.22707080841 -0.79858440161
0.065644413233 0.46372243762 -0.88318288326
0.29744267464 0.53961509466 -0.78756129742
0.25608757138 0.38167715073 -0.88810032606
0.93136107922 0.32439029217 0.16505855322
0.93829268217 0.34216958284 -0.049722276628
0.88191199303 0.46211695671 0.086102440953
0.84300410748 0.50457137823 0.18205422163
0.78212475777 0.56084084511 0.26812160015
0.84625548124 0.40002861619 -0.3517537415
0.92481797934 0.29361864924 -0.24137240648
-0.040713965893 0.0091606555507 0.99911254644
-0.17447158694 -0.078115493059 0.98142921925
0.77623462677 0.62483119965 0.072391673923
0.45939579606 0.54179316759 0.70331388712
0.22839006782 0.71064847708 0.66540795565
0.20598828793 0.52206689119 0.82762020826
0.0063833994791 0.66429811716 0.74739873409
0.39531183243 0.78544348478 0.47074303031
0.9359434247 0.0020058085211 -0.35213497281
0.87701141834 0.25348222256 -0.40813812613
0.92780268192 0.15502779186 -0.33913999796
-0.81865805387 -0.14970256388 -0.55436676741
-0.80782872438 0.016854714602 -0.58879494667
-0.37762284279 -0.12140575796 -0.9177544117
-0.51001143456 -0.13259600103 -0.84971916676
-0.42547529936 0.008431378752 -0.90488094091
-0.57898211479 0.013372123241 -0.81505525112
-0.26012924314 0.041480876505 -0.96453922987
-0.35928404331 0.12857818604 -0.92417097092
-0.49172526598 0.14986333251 -0.85771715641
-0.56732755899 0.26868766546 -0.77843034267
-0.63783562183 0.12469740957 -0.75969618559
-0.92149746418 -0.088654719293 -0.37812528014
-0.88488125801 -0.18994030356 -0.42535874248
-0.94459885359 -0.14504316449 -0.29444873333
-0.87859010696 -0.054706361145 -0.47443366051
-0.88850498199 0.081107027829 -0.45138379931
-0.92707830667 0.015195702203 -0.37441897392
-0.95362204313 -0.035789139569 -0.29879301786
-0.97327208519 -0.074480853975 -0.21717356145
-0.95700359344 0.066289059818 -0.28220960498
0.63861399889 -0.34893962741 -0.68585139513
0.51354837418 -0.3936586082 -0.76241993904
0.56144428253 -0.51030409336 -0.6513993144
0.70444202423 -0.43578132987 -0.56022417545
0.82822871208 -0.34396019578 -0.44174081087
0.39933159947 -0.57296526432 -0.71566057205
0.97429174185 -0.0060539860278 0.22505177557
0.94987952709 -0.25457599759 0.1810439527
0.89787793159 -0.00066794035956 0.44020038843
0.92141139507 -0.17565651238 0.34614977241
-0.86890727282 -0.31263253093 -0.38374897838
-0.88430905342 -0.37043225765 -0.284180969
0.71973693371 -0.55136460066 -0.42068225145
0.86756330729 -0.38219437003 0.31735295057
0.29750609398 -0.75186735392 -0.58830630779
0.95655614138 -0.291166991 0.013129959814
[...]
CELL_DATA 628
SCALARS cell_data_0 double
LOOKUP_TABLE default
2.50495180938e-05
1.37394303215e-05
2.29930571528e-05
2.75942841797e-06
2.31542428604e-05
5.51899270806e-06
3.46198257545e-06
1.5073014783e-05
1.81040249136e-05
8.76467261103e-06
0.000105525789126
1.14683054794e-05
1.43501647653e-05
3.45847794693e-05
4.22729248526e-05
0.000177737674893
0.000253307565912
0.000148887371399
8.38997023027e-05
0.000114971069665
1.98354448619e-05
2.0620583425e-05
1.89631207249e-05
4.46242945502e-05
3.84035237137e-05
3.16034189138e-05
3.09428576343e-05
2.07603168818e-05
6.65265717324e-07
2.36387214253e-05
1.79880636504e-05
1.27986345425e-05
2.62215599343e-06
1.76948331578e-06
2.11383544594e-06
2.76838758189e-05
3.34011702682e-06
0.000221638696417
1.5219993862e-05
3.22595717064e-05
2.68172713768e-05
3.00424140642e-05
3.85337657106e-05
1.85664867543e-05
1.27175300466e-05
1.85713378378e-06
5.4454395737e-06
1.0188564636e-05
1.75027353044e-05
1.92162023544e-05
4.32507378766e-05
8.04243816347e-05
1.07573728332e-06
1.71445224533e-06
2.3909059288e-06
5.62995546819e-06
2.95611242677e-06
6.71101022104e-07
1.77585524791e-06
1.69537976061e-07
2.31136073522e-05
2.08236433092e-05
1.96274270276e-05
1.91730322964e-05
2.55113618218e-05
2.53076710477e-05
2.27677586183e-05
1.75089891985e-05
2.45840854371e-05
2.00115473116e-05
1.44120108067e-05
1.32656900632e-05
2.34168186331e-05
1.85432278928e-05
1.19100121793e-05
1.25157084774e-05
1.34046060013e-05
2.37871224317e-05
1.69415440749e-06
3.24053454272e-06
7.37253098125e-06
1.05508781988e-05
8.97550498206e-05
1.25135267631e-05
1.0805639825e-07
3.73403623298e-06
6.20537494733e-08
2.39889068551e-08
4.67248706813e-07
6.56813194148e-07
2.87955346967e-07
1.16318894087e-06
4.96039343448e-07
2.97583715456e-06
7.17359368561e-06
5.88633320804e-06
2.1757296311e-06
1.05697532932e-06
2.70642312124e-07
4.97528352838e-07
1.9926314643e-06
6.30268662834e-07
1.4440045837e-06
3.89981616042e-07
3.23518491797e-06
2.90134930423e-07
2.70055637982e-07
3.56983427395e-07
2.75994894354e-07
4.80450635771e-07
3.15859504832e-05
3.76040307681e-05
3.38708561485e-05
3.63788602108e-05
5.59684404219e-05
1.08637730127e-05
1.02140498539e-05
1.24137495476e-05
1.85973452693e-06
1.0940085045e-05
3.77220138064e-06
4.52690341642e-06
6.46479020007e-06
1.43055211814e-07
3.61411344609e-06
1.32161345316e-05
1.61333631407e-05
1.46726808724e-05
1.0027310923e-05
8.42434768901e-08
1.18495482861e-06
1.32221308096e-05
2.52749266663e-07
3.73375617013e-07
1.32426109634e-05
8.02555479377e-06
8.69772894673e-06
1.09967613328e-05
1.07068478909e-05
7.82119643556e-06
1.00010110895e-05
1.12100059592e-05
1.64519107155e-05
1.20268814813e-05
1.57108225169e-05
1.8406617485e-05
1.4842956264e-05
8.04057551221e-08
2.53065539511e-05
2.36270218023e-06
4.32958694668e-06
1.59696606567e-06
8.10828829749e-07
9.76441921886e-07
5.79314390154e-07
9.0284959499e-08
3.74148616235e-07
7.03617474697e-07
2.23795130095e-07
5.41974893005e-07
6.56715898142e-07
1.72243455826e-06
6.21552298286e-07
4.30393178734e-06
2.60871635222e-05
9.73139662432e-06
4.94706389204e-07
2.82573938764e-07
5.53398702202e-07
1.13770851746e-05
2.39323787439e-05
9.83104558788e-06
7.20951109159e-08
3.52898163694e-08
1.47095394194e-06
1.44032206294e-06
1.73510335665e-08
1.66922863874e-05
1.22659128985e-05
1.4295104002e-05
1.53085480396e-07
6.69684726707e-08
1.09938325686e-05
7.399798911e-08
1.36411616853e-05
9.08694343701e-06
2.63129802811e-07
1.67486139371e-05
1.77963115092e-05
2.23445775496e-07
1.58253622848e-07
9.45468637501e-06
2.23286013209e-07
2.4125818575e-05
9.83227432182e-06
3.2661680234e-07
1.08378872689e-06
2.89459402359e-06
1.98189509948e-06
3.82780892045e-06
1.2823019341e-06
5.27737810157e-06
6.39080960078e-06
1.25128656859e-06
1.22145774624e-06
4.07759567025e-06
3.73890473244e-06
2.78112713644e-06
1.7088041829e-05
4.11560590357e-06
2.14131473946e-05
2.3465301024e-05
5.82495556816e-06
2.01081363637e-06
2.62795327002e-06
3.20815562236e-05
6.86308327854e-05
3.84461335648e-06
4.69202259432e-05
8.80805851878e-07
4.77792369495e-05
2.98611430542e-05
2.03772745095e-05
2.69067718259e-05
3.00798278351e-05
2.08543327299e-05
2.65038268914e-05
2.20594321213e-05
2.19776170342e-05
2.71461683575e-05
1.28854495847e-05
1.30967909588e-05
2.04061451929e-05
8.14962711128e-06
1.06647343895e-05
1.44827254726e-05
1.22344765359e-05
1.32003958515e-05
1.99777618014e-05
1.05909786563e-05
3.95954935444e-05
3.83063269554e-05
3.33455969464e-05
1.85959428299e-05
3.84292173901e-07
3.26298307908e-07
3.11340051602e-07
1.39893017608e-07
1.04922764233e-06
1.53991815633e-07
2.12955297104e-06
6.49377667661e-08
1.85742938014e-07
1.98756100759e-06
7.02724923811e-11
4.22346151348e-06
1.68949546788e-06
2.30889743713e-05
1.87044754386e-05
3.42698732503e-05
2.14562194389e-07
5.45270229763e-07
3.80568705877e-07
2.29326635913e-07
6.73986554263e-08
6.1019312604e-08
2.31508607102e-07
1.44410218114e-07
2.66263736413e-07
2.02124773106e-07
1.59411527921e-07
1.39622781276e-07
1.91664599048e-07
2.38742257542e-07
3.55388467302e-07
2.67478490074e-07
2.46631820647e-07
2.26792335655e-07
1.37422275523e-07
2.19227231853e-07
9.52224379057e-08
2.10186338196e-07
4.02889005922e-07
3.84053245586e-07
1.90364943222e-05
8.04840815507e-07
6.73401631036e-06
1.98687052268e-07
4.36226621318e-07
5.77105570967e-07
2.51668936368e-06
1.78420930779e-07
3.23562541896e-08
3.36679818804e-06
1.91241407337e-07
5.57818866842e-06
4.00996294756e-06
6.30347648495e-07
6.83476256627e-06
2.96405858972e-06
3.3199743513e-06
5.41099304342e-06
1.05593131951e-05
6.43959336606e-06
2.76308269033e-06
6.96585794854e-06
3.80541789502e-07
1.0144640332e-07
1.25806534406e-07
1.16285616109e-07
3.0682839954e-06
6.17115026661e-06
1.79998167441e-07
7.70539303383e-08
1.05950078634e-05
4.09206466731e-07
4.85549376616e-07
3.81738844736e-07
2.09348215711e-07
1.79863646126e-05
1.03397109678e-05
7.83431968507e-05
4.41238629993e-07
2.48537705231e-07
6.75159343819e-06
1.34788126542e-06
4.9843593967e-06
2.91172552719e-06
5.32984333424e-07
4.03577425331e-05
1.78893802381e-06
1.38114516991e-06
8.51908647818e-07
3.36074130576e-07
6.82708608052e-08
1.23574957379e-05
1.05698699792e-05
1.38407610022e-05
1.55873196635e-05
2.74288238636e-05
1.77215167135e-07
2.20561343636e-07
3.87957594274e-07
2.49800043103e-05
1.37103954056e-06
1.5931144519e-06
3.5856470745e-06
3.92320261734e-06
6.59264299719e-06
7.3479050772e-07
1.95015964071e-06
6.67850178559e-06
1.64600805277e-06
2.08836103643e-06
9.47140686252e-07
7.77794119507e-06
5.74729769907e-06
1.7698224093e-05
1.76361355744e-05
9.22010121857e-08
1.12944169951e-06
9.87355162054e-07
2.02007840231e-07
1.49172949261e-07
3.38221950139e-07
7.35836437816e-07
1.87198242456e-07
2.0165594748e-07
1.13559504637e-07
3.93811449116e-07
3.86344411247e-07
6.73246537485e-08
9.37939388458e-07
1.48016857924e-05
1.22976227205e-05
2.13219223492e-07
1.77948963536e-07
8.01011876116e-07
3.32287576381e-06
3.16352680216e-07
3.09108871462e-08
2.22793678376e-06
2.52471333936e-06
3.52301456609e-06
3.74707611071e-07
2.88019501543e-07
6.55068197329e-07
6.85040654468e-07
7.94969607119e-06
1.28097073966e-05
5.82238283946e-05
8.8371227807e-06
2.93190263161e-07
1.73214936129e-05
2.67579546623e-05
1.06479746866e-05
2.68768144805e-05
4.39256981679e-07
1.6534988732e-05
5.83013473787e-07
1.3269836263e-06
2.3685207616e-05
0.000123343040326
5.59481252632e-05
4.00666321931e-07
2.27888809492e-05
4.49223683598e-07
1.59572340553e-06
2.02956945233e-06
3.02343327912e-05
3.41851127472e-07
3.56007564493e-07
6.14196157072e-08
1.41138321496e-08
5.87454982839e-07
4.27700036469e-07
6.69997664336e-06
1.97280778028e-06
7.36489184789e-06
1.04065398439e-05
6.83990332476e-06
1.49360182432e-05
1.544855861e-06
6.59906684899e-06
3.53147763742e-06
1.33140027748e-05
2.40279289661e-06
4.17819221185e-06
2.09780190887e-06
4.43712969106e-07
2.10354422067e-07
1.43417541271e-07
7.37121310689e-06
4.82066746172e-06
3.01483710045e-07
7.37661713417e-08
7.56559867334e-06
6.14336890999e-06
5.07378943108e-06
1.67355060461e-05
1.67224430921e-05
5.09310591151e-08
2.58953137768e-08
5.98308986964e-06
7.99174874626e-06
5.60372089443e-07
1.18010878259e-07
1.4773965106e-05
8.21079521797e-07
2.6329691473e-06
3.44202685495e-06
8.09443864086e-07
6.63780326231e-08
7.45683628178e-07
9.51033822065e-08
1.34606045559e-07
1.33955529001e-07
7.14759413405e-07
1.19397952365e-05
2.22137793874e-05
7.6426081286e-07
8.38879372481e-06
6.30406890107e-06
3.30013958666e-06
1.8552805391e-06
2.18252371181e-06
2.12271395877e-06
5.4373110744e-06
7.66360384023e-06
5.39064162948e-07
4.17654281378e-07
4.38657650674e-09
6.43961292633e-07
8.96143455177e-07
3.8056451822e-08
3.43742653231e-07
4.88789444413e-07
2.10352104687e-07
8.75295348577e-07
8.84231733887e-07
1.06070285333e-06
7.78340685034e-07
1.05412330205e-06
1.00704134319e-06
1.99798521269e-06
1.01737709794e-06
8.20735569098e-08
7.97110918961e-07
2.0894008801e-06
2.3895126585e-06
1.77684898341e-07
1.38166560965e-05
1.57671793486e-07
1.36462430176e-07
1.95925928867e-07
8.72193221861e-08
1.6236747871e-07
2.23723434632e-07
3.20367375627e-07
2.8386782529e-07
7.80569200716e-07
2.4497389624e-06
1.56730112231e-05
1.38032102413e-05
1.30154608533e-05
1.28232809839e-05
3.1351874896e-07
4.25246387803e-07
3.95348187135e-07
5.07871502604e-07
3.94855203664e-07
7.93937914544e-07
7.02027918733e-07
1.15081915009e-05
1.06902399672e-05
4.72752105984e-07
1.30922844895e-07
1.34962358857e-07
3.40828735374e-07
3.49170261076e-07
1.82583474423e-07
1.683250721e-07
2.56089856147e-07
3.25635162764e-07
5.56651900676e-08
1.6001242308e-08
6.0542564695e-07
5.04331599589e-07
5.61841831693e-07
4.07273848704e-07
1.28150356694e-07
1.60280514028e-06
1.31546453447e-07
1.05105750794e-06
3.45522774344e-06
3.3443567747e-07
2.92867218021e-07
1.83712036238e-06
1.73265702546e-06
1.65240298818e-06
1.58265639356e-06
2.55356449334e-06
1.55285698344e-06
6.10295599877e-06
4.55596127739e-06
4.90222854613e-06
6.75250239347e-06
2.89828447543e-06
3.02131953456e-06
1.21459912597e-06
1.44540239172e-06
4.52109011651e-07
3.43627986828e-06
1.53796784029e-06
4.32686104819e-07
3.6926768688e-07
1.25762737969e-07
1.6801856341e-07
1.62537906416e-07
9.32424875256e-07
1.00114882791e-07
4.97938561227e-07
3.61603308166e-07
4.59641991211e-07
8.84193182729e-07
1.6797591694e-07
3.77352247206e-07
4.27059263777e-07
4.37342007157e-06
7.0637871243e-07
2.09903496337e-06
6.46500814609e-07
2.85709532728e-06
2.69027864809e-07
6.40512911921e-07
3.75594198338e-07
2.26801407681e-06
7.61705739027e-07
1.42176661554e-06
1.12340421641e-06
3.87038947742e-06
1.33431630817e-06
8.58195855416e-06
1.45783632074e-05
8.03396798136e-06
8.94318795912e-06
1.14382662161e-05
1.07258198251e-05
9.72220273324e-06
1.40308836176e-05
4.07489004489e-05
7.35104855581e-05
1.5427003159e-05
1.37476690086e-05
5.63570451035e-06
1.57736320227e-05
1.59042091365e-07
2.02242169763e-07
1.05177171181e-06
7.4081412772e-06
1.3412604802e-05
7.79763445284e-06
1.29984353649e-05
7.38237684566e-06
1.46824836862e-05
1.54230059056e-05
9.31677045775e-06
1.66743634663e-05
3.99721519292e-06
5.02645656403e-06
3.71080809839e-07
2.07629879952e-07
1.89076685918e-06
5.16309235845e-07
2.49971614287e-06
1.07966207468e-06
2.04253049827e-06
4.40133500286e-06
1.20928702331e-06
8.40583355679e-07
4.44617158521e-07
3.57248711976e-07
7.35084561076e-07
2.44639266179e-06
1.43496763212e-05
7.63136515756e-06
4.20752500517e-07
7.81564877169e-07

