# vtk DataFile Version 3.0
File Name: Molecule/sphere_excent/sphere_excent_0-s15.vtk
ASCII
DATASET UNSTRUCTURED_GRID
FIELD FieldData 1
TIME 1 1 double
0.0
POINTS 136 double
0.0023814262822 0.84561938047 0.5337126255
-0.53510779142 0.74434393644 0.39866560698
-0.32742229104 0.5617043972 0.75915759802
-0.81184917688 0.30033382773 0.50061064959
-0.84421598911 0.53365904093 0.02090921253
0.37522435188 0.51456820965 0.77028894424
0.037782344967 0.44347208738 0.89488327503
0.3202521801 -0.53031265736 0.78382605314
0.0047741411254 -0.85401666164 0.52019286156
0.46102753282 -0.82413852215 0.32546749711
0.24768032134 -0.59341526031 -0.76573640108
-0.006698269397 -0.85787826777 -0.51380735636
-0.31672585011 -0.53893125057 -0.77976590395
0.80903702974 -0.25787857175 0.52374100685
0.7763543129 0.25905263424 0.57401400805
0.54037755728 0.020243279636 0.83933192492
0.47515147924 0.7804273963 0.40528270602
-0.43721014261 -0.83975827694 -0.32130789757
0.00066084280843 -0.99968409538 0.0049079270102
-0.5926836133 -0.80295777321 0.040205720812
-0.44713890553 -0.82490634918 0.3444326818
-0.31999993324 -0.5953117609 0.73516577482
-0.59553653002 -0.0014593275264 0.80264979601
-0.81862485409 -0.26262134314 0.50942760706
-0.99579507113 0.060052730143 0.029814941809
0.45255687833 -0.82391005754 -0.33896362782
0.60190880299 -0.79488176107 0.046978846192
0.0025579428766 0.99980890751 0.004234621767
-0.28152948618 0.94274866581 0.17918461561
-0.27500444651 0.94331407547 -0.1823361814
-0.54557996988 0.83804345131 0.006123514846
-0.57368201017 0.74325454235 -0.34319472313
0.03019025363 0.86397099495 -0.50214487314
0.1565104723 0.93250286579 -0.31746065617
0.51372349262 0.79946607351 -0.30612725019
0.53722089529 0.84315252304 0.021847456694
0.83529955149 0.54387176037 -0.06881133467
0.2751647234 0.95053315163 -0.12998788059
0.27901694179 0.94313955307 0.18016421795
0.83911287785 0.35006001592 -0.41524222493
0.68503075838 0.58349275589 -0.43623024225
0.58328300714 0.48503497243 -0.65152782202
0.41865417361 0.66700333357 -0.61306661367
0.87959593534 -0.47297894955 0.012890342623
0.95327556133 -0.18198624253 -0.24039186537
0.99454510212 -0.073143310845 0.066867157817
0.80629473925 -0.35925468802 -0.46981576085
0.87102949619 -0.076184563339 -0.48513829708
0.95897376537 0.14638823271 -0.24269938469
0.54329413176 0.010257353075 -0.83943361044
0.43197029829 -0.26375177503 -0.86250448227
0.27854934335 0.007047069259 -0.96034580469
0.13533324003 -0.2832736671 -0.94905686378
-0.018952131271 0.026426762342 -0.99932903051
0.68271321058 -0.21117916703 -0.69944733381
0.57387161255 -0.47175434232 -0.66902494431
0.16602489352 0.48442015052 -0.85830837488
0.72217959166 0.34606018662 -0.59892725945
0.43616464734 0.45152711868 -0.77831631899
0.42079764605 0.24062378705 -0.87463515997
0.57644176483 0.28422784805 -0.76617360115
0.70074552298 0.16981086135 -0.69289052486
0.83499652147 0.1529699564 -0.52845835686
0.73967212439 -0.0014425351983 -0.67294085026
-0.44946092367 0.25355964899 0.8561976552
-0.20186457038 0.28811880946 0.93602377176
-0.28877314925 -0.0011421919335 0.95739543438
-0.46805173159 -0.27867802978 0.8374043107
-0.16638818383 -0.27174156904 0.94709438086
-0.5217436552 0.0067789247259 -0.85299748182
-0.68197584152 -0.15647619963 -0.71439480782
-0.6882289052 0.17863759398 -0.70284038782
-0.85234248638 0.0061471965164 -0.52306103706
-0.80179363489 -0.3412091434 -0.49004724622
-0.80280345678 0.37775358558 -0.45667868853
-0.4866052866 0.59690159559 -0.63666552305
-0.43169009686 0.25818312168 -0.86416900158
-0.66400057077 -0.58187574148 0.46772456169
-0.18260349333 -0.22549724579 -0.95706039667
-0.29250833392 0.017943069339 -0.95602977276
-0.41542571783 -0.21992810071 -0.88277184963
-0.17663891613 0.27418571711 -0.94527554512
-0.28328952193 0.49823185802 -0.81883138418
0.21081115305 0.23690061271 0.94807392359
0.9405759573 0.14372584224 0.30660369992
0.96317201853 0.26446834207 0.049274764955
0.8633736968 0.43006855249 0.26392567158
0.71462893486 0.66748398542 0.20962922275
0.68432253599 0.55856990814 0.46842688322
-0.15438915789 0.70552557707 -0.69067215919
-0.28801512718 0.82869076729 -0.47952884436
0.2268332839 0.78225010633 -0.57642024755
-0.037440504879 0.15095943213 0.98765981197
0.093601725996 -0.026751682162 0.99458414316
-0.033809043467 -0.15380044281 0.98716551065
-0.84212565422 -0.4670779705 -0.26956656575
-0.93954116106 -0.22208818793 -0.25970768929
-0.66950654984 -0.61227101088 -0.41981732845
-0.69569092989 -0.69229364395 -0.19101305306
-0.84121632576 -0.53675866127 0.056354369968
-0.71209210157 -0.67455309629 0.19345214963
-0.84460508823 -0.46474093199 0.26560398936
0.84511506557 -0.47639927268 -0.242560938
0.69193434715 -0.60359305143 -0.39597958326
0.69482445717 -0.69524121284 -0.18126745522
-0.76732432842 -0.6394084692 -0.031980436295
-0.85602176189 -0.50680685043 -0.1001515612
0.67145043612 -0.58280748129 0.45343235135
0.46024435759 -0.26765960455 0.8446392417
0.8609251976 -0.43091675639 0.27018687129
0.71842646599 -0.66969752312 0.18653798103
-0.92002677917 -0.37145730853 -0.12461028248
-0.90859991312 -0.41498205066 0.026338521391
-0.96128869057 -0.2723647356 0.029930688441
0.78126996756 -0.62218916416 -0.046455912292
-0.92328023911 -0.28244200349 0.25915101171
-0.0058753485791 -0.57754892111 0.81581759453
0.21089597046 -0.26744049788 0.94031298161
0.31034246087 -0.033672925085 0.94985842705
-0.22040320933 -0.44130009413 0.86985391378
0.065462753177 -0.40301531553 0.91267192364
-0.91758143902 -0.10846032202 -0.38202568889
-0.96420282125 0.041848994792 -0.26092496514
-0.96880042553 -0.14422859251 -0.19981576502
-0.94605231285 0.29225438833 -0.13966540992
-0.85477530956 0.46545889974 -0.22861689329
-0.95358097553 -0.109608531 0.27710944414
0.39140582085 0.8889760375 -0.23758842051
0.28770262003 0.86112189293 -0.41892930865
0.46107712388 0.75514435768 -0.46595540643
-0.99156397581 -0.11665246636 0.04208663851
-0.96161276102 -0.24675244093 -0.11980753392
-0.90990614891 0.21335996687 -0.35581544042
-0.99854236841 -0.027978364378 -0.049188517034
-0.98316293955 -0.17322739959 -0.056091889739
-0.98806160688 -0.08540931344 -0.12760287523

CELLS 268 1072
3 0 1 2
3 1 3 2
3 1 4 3
3 5 0 6
3 7 8 9
3 10 11 12
3 13 14 15
3 16 0 5
3 14 5 15
3 17 18 19
3 17 11 18
3 20 18 8
3 20 8 21
3 22 3 23
3 3 4 24
3 12 11 17
3 11 25 18
3 9 18 26
3 18 9 8
3 10 25 11
3 27 28 0
3 0 28 1
3 27 29 28
3 29 30 28
3 29 31 30
3 28 30 1
3 32 29 33
3 1 30 4
3 30 31 4
3 34 35 36
3 37 38 35
3 37 27 38
3 35 38 16
3 16 38 0
3 38 27 0
3 39 40 36
3 36 40 34
3 41 42 40
3 43 44 45
3 46 47 44
3 47 48 44
3 44 48 45
3 48 39 36
3 49 50 51
3 50 52 51
3 50 10 52
3 51 52 53
3 12 52 10
3 49 54 50
3 54 55 50
3 54 46 55
3 50 55 10
3 10 55 25
3 51 53 56
3 46 54 47
3 39 57 40
3 57 41 40
3 41 58 42
3 58 56 42
3 56 58 59
3 58 60 59
3 58 41 60
3 59 60 49
3 49 60 61
3 60 57 61
3 60 41 57
3 61 57 62
3 47 62 48
3 62 39 48
3 39 62 57
3 62 63 61
3 62 47 63
3 61 63 49
3 56 59 51
3 51 59 49
3 49 63 54
3 54 63 47
3 22 64 3
3 3 64 2
3 2 64 65
3 64 66 65
3 64 22 66
3 22 67 66
3 67 68 66
3 69 70 71
3 70 72 71
3 70 73 72
3 71 72 74
3 71 75 76
3 21 67 77
3 23 67 22
3 73 70 12
3 53 78 79
3 78 80 79
3 78 12 80
3 79 80 69
3 53 81 56
3 81 82 56
3 53 79 81
3 79 76 81
3 79 69 76
3 81 76 82
3 12 78 52
3 52 78 53
3 82 76 75
3 71 76 69
3 69 80 70
3 70 80 12
3 5 83 15
3 45 84 13
3 84 14 13
3 45 85 84
3 85 86 84
3 85 36 86
3 84 86 14
3 36 87 86
3 87 88 86
3 87 16 88
3 86 88 14
3 14 88 5
3 5 88 16
3 32 89 90
3 89 75 90
3 89 82 75
3 90 75 31
3 31 75 74
3 74 75 71
3 82 89 56
3 56 89 91
3 32 90 29
3 29 90 31
3 16 87 35
3 35 87 36
3 36 85 48
3 48 85 45
3 65 6 2
3 2 6 0
3 65 92 6
3 92 83 6
3 92 93 83
3 6 83 5
3 93 92 94
3 66 92 65
3 73 95 96
3 17 97 12
3 12 97 73
3 73 97 95
3 97 98 95
3 97 17 98
3 99 100 101
3 100 77 101
3 100 20 77
3 101 77 23
3 23 77 67
3 21 77 20
3 46 102 103
3 102 104 103
3 103 104 25
3 43 102 44
3 44 102 46
3 46 103 55
3 55 103 25
3 99 105 100
3 105 19 100
3 105 98 19
3 100 19 20
3 20 19 18
3 17 19 98
3 95 98 106
3 9 107 7
3 7 107 108
3 13 107 109
3 107 110 109
3 107 9 110
3 109 110 43
3 13 109 45
3 45 109 43
3 95 111 96
3 95 106 111
3 106 112 111
3 106 99 112
3 111 112 113
3 104 26 25
3 25 26 18
3 104 114 26
3 114 110 26
3 114 43 110
3 26 110 9
3 43 114 102
3 102 114 104
3 113 112 115
3 101 112 99
3 99 106 105
3 105 106 98
3 7 116 8
3 8 116 21
3 93 117 118
3 117 108 118
3 117 7 108
3 118 108 15
3 15 108 13
3 13 108 107
3 21 119 67
3 67 119 68
3 68 94 66
3 66 94 92
3 93 94 117
3 94 120 117
3 94 68 120
3 117 120 7
3 7 120 116
3 120 119 116
3 120 68 119
3 116 119 21
3 93 118 83
3 83 118 15
3 96 121 73
3 73 121 72
3 72 121 122
3 122 121 123
3 4 124 24
3 24 124 122
3 74 125 31
3 31 125 4
3 24 126 3
3 3 126 23
3 34 127 35
3 127 37 35
3 37 33 27
3 27 33 29
3 32 33 128
3 33 127 128
3 33 37 127
3 128 127 34
3 42 129 40
3 40 129 34
3 34 129 128
3 129 91 128
3 129 42 91
3 128 91 32
3 32 91 89
3 56 91 42
3 24 130 126
3 130 115 126
3 130 113 115
3 126 115 23
3 23 115 101
3 101 115 112
3 113 131 111
3 111 131 96
3 122 132 72
3 72 132 74
3 74 132 125
3 132 124 125
3 132 122 124
3 125 124 4
3 24 133 130
3 133 134 130
3 133 135 134
3 130 134 113
3 113 134 131
3 134 123 131
3 134 135 123
3 131 123 96
3 96 123 121
3 122 123 135
3 135 133 122
3 122 133 24

CELL_TYPES 268
5
5
5
5
5
5
5
5
5
5
5
5
5
5
5
5
5
5
5
5
5
5
5
5
5
5
5
5
5
5
5
5
5
5
5
5
5
5
5
5
5
5
5
5
5
5
5
5
5
5
5
5
5
5
5
5
5
5
5
5
5
5
5
5
5
5
5
5
5
5
5
5
5
5
5
5
5
5
5
5
5
5
5
5
5
5
5
5
5
5
5
5
5
5
5
5
5
5
5
5
5
5
5
5
5
5
5
5
5
5
5
5
5
5
5
5
5
5
5
5
5
5
5
5
5
5
5
5
5
5
5
5
5
5
5
5
5
5
5
5
5
5
5
5
5
5
5
5
5
5
5
5
5
5
5
5
5
5
5
5
5
5
5
5
5
5
5
5
5
5
5
5
5
5
5
5
5
5
5
5
5
5
5
5
5
5
5
5
5
5
5
5
5
5
5
5
5
5
5
5
5
5
5
5
5
5
5
5
5
5
5
5
5
5
5
5
5
5
5
5
5
5
5
5
5
5
5
5
5
5
5
5
5
5
5
5
5
5
5
5
5
5
5
5
5
5
5
5
5
5
5
5
5
5
5
5
5
5
5
5
5
5
5
5
5
5
5
5

CELL_DATA 268
SCALARS cell_data_0 double
LOOKUP_TABLE default
1.71396319074e-05
1.70183441136e-05
3.20478285719e-05
4.73043358938e-05
3.25928618063e-05
2.55560891832e-05
3.42355836477e-05
3.14578168737e-05
5.12497583206e-05
7.33198392725e-06
1.48264859744e-05
8.96747718721e-06
2.47997719415e-05
3.30564853075e-06
4.51079205909e-05
2.30778111903e-05
1.03714404851e-05
5.53333619007e-06
8.5775597636e-06
1.78372592917e-05
7.59197928241e-06
1.51219432073e-05
2.39118554434e-06
3.4260841185e-06
3.92312924961e-06
6.85377920725e-06
2.68261100382e-05
4.05605618271e-06
7.79923075077e-06
7.6192999567e-05
3.13115450472e-06
3.01643744445e-06
6.03677069607e-06
1.26831779592e-05
7.10569652414e-06
2.28037347853e-05
6.74707206337e-05
6.94379303788e-07
6.83342175437e-07
1.96740300509e-06
2.58954090613e-06
1.04779921039e-06
1.88091710963e-05
2.40145223081e-05
1.75038696312e-07
8.11904505906e-07
1.79153165826e-06
1.9685971135e-06
2.25776949221e-05
6.03425012948e-07
1.01905865136e-06
2.93442987064e-07
1.47242394962e-06
1.28993046042e-05
1.34069323159e-06
5.35429608494e-06
5.2435485688e-07
6.1391986944e-07
3.28390433074e-06
3.57562699184e-06
1.16193205152e-07
3.0473467995e-07
1.48924591655e-05
1.3934300948e-05
3.10807565206e-07
4.75304030838e-07
1.42147304275e-05
2.14467642338e-05
3.49426491153e-05
2.61365740253e-05
4.99810374019e-05
6.48742929806e-05
5.47832459953e-05
5.64703953467e-06
2.05621744675e-05
6.93554253449e-05
3.0818770302e-05
8.15361971368e-05
8.87006551475e-05
1.06176436574e-05
7.36108610844e-06
2.83097774605e-05
3.80553982628e-05
5.92382958661e-05
3.84222107025e-05
4.36580473701e-07
2.41562675045e-07
2.25008841801e-07
2.4715096949e-06
2.38624232926e-05
3.44753596803e-05
1.95057622337e-07
1.99981131362e-06
2.41768632708e-07
7.62797053061e-07
3.13150519185e-05
2.56337087308e-05
2.28920101421e-05
7.92514600351e-06
4.52554617672e-06
3.29871184368e-05
6.25297926206e-06
8.99125025584e-07
2.31060755898e-06
3.74526390443e-06
3.66547180789e-05
3.40223358174e-05
2.72074966924e-07
5.14193423153e-05
8.47651051871e-06
1.66444159143e-05
2.34704479338e-06
4.2603967076e-06
1.58652139861e-06
7.4146531448e-06
5.7584774841e-05
3.11693978951e-05
3.50004321385e-05
9.2135079421e-06
2.33365270284e-05
1.62650154247e-05
3.02627890799e-05
8.93675458705e-06
6.52588578588e-06
1.34755395236e-05
1.14481392278e-05
3.99233274446e-06
1.34832764659e-05
1.21915799523e-05
3.54198655521e-05
9.60664449659e-06
4.89276333497e-05
8.44697053364e-05
4.1007812033e-07
2.69699469962e-07
3.607516276e-05
4.36003130078e-05
3.70322486967e-05
2.20167511509e-05
1.58643445039e-05
3.33707226198e-05
2.72591386878e-05
4.89138316008e-05
1.00608123453e-06
0.00017996084135
0.000165852091563
6.51506996734e-05
0.000166262225219
0.000216105625838
2.74732939362e-06
5.09791559922e-06
6.86748394621e-06
8.20460460988e-06
2.15886681928e-05
1.82494640438e-05
1.35034011475e-06
1.45258435581e-06
3.98394199524e-07
2.04009656599e-06
1.15331898924e-06
4.41112269744e-07
1.55689636794e-07
1.0815898041e-06
1.08030340503e-06
4.44266357134e-05
3.3452111662e-06
9.82571801416e-06
8.44930396878e-05
4.96435295126e-05
2.26850566217e-05
2.8046954702e-05
7.86980536999e-06
5.00641175185e-06
5.81162029307e-06
3.31142830062e-06
4.6752365724e-06
4.76062494873e-07
7.30160278652e-07
8.31684206861e-07
8.98490792481e-06
7.12892987866e-06
3.73707067392e-05
1.2902932666e-07
6.0149523321e-06
8.29055824121e-07
3.40388754679e-07
1.14682808407e-06
9.86244752271e-07
3.4096398663e-08
5.79627697574e-07
5.3799540855e-05
5.73861836181e-06
7.46037482274e-07
3.902468509e-05
3.00521140157e-05
2.64212419523e-05
1.9783915841e-05
1.96103131516e-05
2.09897940203e-05
1.96630008652e-05
2.88808472633e-05
2.58667581837e-05
1.42309182788e-05
1.31475228384e-05
4.19050763379e-05
7.25168125916e-05
3.07394755977e-05
3.3308118373e-05
3.30767347243e-05
2.82110957343e-05
2.26285761678e-05
2.09743720578e-05
2.78995540677e-05
1.29353937948e-05
1.95019909059e-05
2.17468632537e-05
2.25812573975e-05
2.81984780633e-05
6.22272010416e-05
5.40255265189e-05
1.68119162424e-07
4.35709204933e-05
3.64211451066e-06
6.81681959047e-06
1.33140581265e-05
3.16611669929e-06
2.00251916384e-05
6.30977634869e-07
8.84776174581e-07
3.23370883295e-07
1.39075475732e-05
1.1266768001e-06
4.50593736369e-07
1.70252559408e-05
2.30278711756e-07
2.00339116865e-05
1.78513706796e-05
1.25087291889e-06
2.2632713204e-07
1.38391475285e-05
2.08052002224e-05
3.94284531611e-06
1.72316439111e-06
2.06672178628e-06
2.78202673282e-05
3.47058173896e-06
4.10172916966e-06
9.85011613247e-06
1.78144642917e-05
2.65554338097e-07
3.41950696491e-05
2.78986792286e-07
2.60670672762e-07
7.87835252742e-07
2.83295158049e-05
5.30055863925e-07
3.21031022815e-07
3.27255161846e-07
3.70326215179e-06
1.2092505552e-05
1.16493685973e-05
9.0765698734e-08
3.73553476928e-06
1.61576465344e-07
8.30476843568e-06
2.40276957678e-05
2.40776221977e-05
1.56271901043e-05

