# vtk DataFile Version 3.0
File Name: Molecule/sphere_excent/sphere_excent_0-s32.vtk
ASCII
DATASET UNSTRUCTURED_GRID
FIELD FieldData 1
TIME 1 1 double
0.0
POINTS 364 double
0.30479156971 -0.6102270484 0.73109191656
0.034829709679 -0.84165775776 0.53685122728
0.39256104827 -0.83924508095 0.37599182129
0.76747614145 -0.20644412935 0.60689735413
0.77129167318 0.21814221144 0.59752655029
0.60313487053 0.011678634211 0.79736101627
-0.83028614521 0.35459083319 0.42996248603
-0.83428966999 0.54153698683 0.080871254206
-0.9629804492 0.18445794284 0.19622640312
0.45728838444 0.49713298678 -0.73736661673
0.59552514553 0.4671009779 -0.65354579687
0.53646618128 0.37060087919 -0.75819945335
0.67864620686 -0.20553198457 -0.70507228374
0.75903981924 -0.10180816054 -0.64305561781
0.76117748022 -0.26173087955 -0.59339171648
-0.23267346621 0.34057080746 0.91082847118
-0.41227251291 0.2149412632 0.88529610634
-0.21850004792 0.12133800983 0.96818327904
-0.32481059432 -0.67049467564 0.66695350409
-0.51064419746 -0.38228678703 0.76967376471
-0.58163702488 -0.56481361389 0.58513337374
-0.78383952379 -0.26171433926 0.56291520596
-0.6279566288 -0.10513137281 0.7708761096
-0.67946821451 -0.18570587039 -0.70979464054
-0.49704173207 -0.33958250284 -0.79850369692
-0.63267570734 -0.41341841221 -0.65485328436
0.92652189732 0.18578161299 0.3270804882
0.84490787983 0.38839587569 0.36756408215
0.68827074766 0.49052199721 0.53411990404
0.56409901381 0.29748725891 0.76978427172
0.98172879219 0.12193115801 -0.14574600756
0.98575222492 0.15033653378 0.075339309871
0.99698442221 -0.076736912131 0.010952090845
-0.013060828671 0.44916525483 0.89323794842
-0.29268732667 0.62151968479 0.72639322281
-0.020493436605 0.21202893555 0.97701728344
0.19350913167 0.264118433 0.94476693869
0.1613355875 0.0039712423459 0.98674750328
-0.40125370026 -0.82402396202 0.39810585976
-0.81943780184 -0.55089730024 0.15765956044
-0.77133923769 -0.63525491953 0.03742178902
-0.64028847218 -0.7391602993 0.20792469382
0.58644372225 -0.54193562269 0.60174924135
0.52278125286 -0.30451259017 0.79618364573
0.63354349136 -0.75070184469 -0.18720205128
0.77071017027 -0.63660562038 -0.025835702196
0.5170584321 -0.85465437174 0.022351611406
0.68470603228 -0.70657646656 0.17868080735
0.8709872961 -0.47515913844 0.1241806075
0.89572286606 -0.44130200148 -0.053848005831
0.84333235025 -0.50204360485 -0.19073787332
-0.96271127462 -0.25780630112 0.081683084369
-0.90431255102 -0.40138408542 0.14520040154
-0.923135221 -0.2493481636 0.29241138697
-0.84277838469 -0.43813306093 0.31218320131
-0.8186660409 -0.56662172079 -0.093144692481
-0.86606794596 -0.49916368723 0.025241615251
-0.023734822869 -0.64336812496 0.76520138979
0.25643929839 -0.28388309479 0.92391335964
0.38369420171 -0.070585951209 0.92074638605
-0.22101248801 -0.48616862297 0.84542608261
0.015874965116 -0.19432966411 0.98080867529
0.033345926553 -0.43001511693 0.90222835541
-0.17577260733 -0.28294444084 0.94273680449
0.40398934484 0.15684729815 0.90116173029
-0.7256065011 0.47693178058 -0.49578621984
-0.81972718239 0.50626039505 -0.26663532853
-0.64186817408 0.72057586908 -0.25720441341
-0.91991513968 -0.011247761548 0.39183056355
-0.77972739935 0.069023258984 0.62226510048
-0.002715065144 0.89619600773 -0.44319176674
0.095347955823 0.9660063982 -0.24020092189
0.21889609098 0.87198477983 -0.43787431717
0.36729350686 0.88487690687 -0.28636866808
0.288590312 0.95095157623 -0.11032678932
0.41479110718 0.77735823393 -0.47289961576
0.63017845154 0.65740209818 -0.41312932968
0.54122501612 0.77789437771 -0.31918084621
0.23992407322 0.73900723457 -0.62947911024
0.4012774229 0.64400106668 -0.65126985312
-0.97888153791 -0.090074270964 0.1835141778
-0.95912444592 -0.26647877693 -0.095209002495
-0.9269951582 -0.37476691604 -0.013683908619
-0.91489779949 -0.36765569448 -0.16665002704
-0.92770856619 -0.26651832461 -0.26135647297
-0.84666436911 0.29767104983 -0.44074952602
-0.91345959902 0.3812045157 -0.13701917231
-0.75157666206 0.65233612061 -0.090788796544
-0.99910205603 -0.012439468876 0.037465061992
-0.98866134882 -0.14860108495 -0.019238814712
-0.99364262819 -0.047352910042 -0.10182324797
-0.97180938721 -0.16573221982 -0.1675375998
-0.98220485449 0.036703124642 -0.18379765749
-0.99276202917 0.10105375201 -0.063297450542
-0.34432324767 -0.88719117641 -0.30546358228
-0.50896638632 -0.7430883646 -0.43446409702
-0.32761949301 -0.75093483925 -0.57332390547
-0.44098600745 -0.55042511225 -0.7087739706
-0.56445294619 -0.60224825144 -0.56431943178
-0.17969085276 -0.58947277069 -0.78687274456
-0.71435320377 -0.48745167255 -0.5020942688
-0.75582480431 -0.55430400372 -0.34852164984
-0.8116594553 -0.43111521006 -0.3940666616
-0.65425300598 -0.61923873425 -0.43414628506
-0.66038262844 -0.68591368198 -0.30533418059
-0.7680284977 -0.60352540016 -0.21405267715
-0.69583815336 -0.69531428814 -0.17966422439
-0.84157907963 -0.48627722263 -0.23498646915
-0.52270704508 -0.80518692732 -0.27982842922
-0.73567801714 -0.67282289267 -0.077868379653
-0.59021270275 0.51631814241 0.61985862255
-0.70789974928 0.65501481295 0.25742098689
-0.54566979408 0.73501604795 0.40172469616
0.55962210894 0.81199634075 -0.16541641951
0.69779264927 0.68158739805 -0.22021120787
0.66822069883 0.74357944727 -0.022002201527
0.842448771 0.50337737799 -0.19140993059
0.7897002697 0.6100872159 -0.062004037201
0.75907379389 0.54937511683 -0.34928143024
-0.58148115873 0.10280606896 0.80703109503
-0.64884233475 0.29073375463 0.70309025049
-0.44664406776 0.41293337941 0.79368162155
-0.40041384101 0.0015918989666 0.91631579399
-0.77932149172 -0.32079344988 -0.5382591486
0.67308366299 0.71524810791 0.18777054548
0.53802859783 0.83735889196 0.09571608901
-0.96627992392 0.25624230504 -0.016631143168
-0.96463644505 0.18941956758 -0.18302506208
-0.91153138876 0.30084997416 -0.28020581603
-0.9239050746 0.16899029911 -0.34316405654
0.40063583851 0.38792175055 -0.83002179861
0.34944280982 0.25592029095 -0.90130662918
0.48910656571 0.26313266158 -0.83158630133
0.44317668676 0.14465939999 -0.8846437335
0.54732269049 0.14353018999 -0.82446730137
0.61333441734 0.23920376599 -0.75274753571
0.47716024518 -0.040896914899 -0.87780964375
0.63498610258 0.066077277064 -0.7696070075
0.70102006197 0.15616612136 -0.69585388899
0.6398204565 0.35059154034 -0.6839132905
0.72326219082 0.26557853818 -0.6374476552
0.70173513889 0.40418827534 -0.58668678999
0.77386701107 0.1362503767 -0.61816710234
0.81091660261 0.016639756039 -0.58488661051
0.72784030437 0.032096859068 -0.68494582176
0.85876196623 -0.11120497435 -0.50010234118
0.88093465567 0.093272872269 -0.46322366595
0.64029401541 -0.081221751869 -0.76373803616
0.32117241621 0.10137680918 -0.94156998396
0.5383194685 -0.22837457061 -0.81084662676
0.29421144724 0.5427788496 -0.78661990166
0.071443267167 0.47332519293 -0.87775278091
0.24915972352 0.38342872262 -0.8892942667
0.18234431744 0.23121979833 -0.95512712002
0.12619678676 0.11101534963 -0.9853528738
0.93118077517 0.32181334496 0.17131082714
0.94282013178 0.32994797826 -0.046666294336
0.89430910349 0.44023257494 0.079304032028
0.85407400131 0.48022156954 0.19954685867
0.7756601572 0.55484068394 0.30049356818
0.84706813097 0.40610557795 -0.34290665388
0.92451876402 0.29936558008 -0.23586539924
-0.040831260383 0.012660154141 0.99907034636
-0.18096973002 -0.080432735384 0.98009490967
0.75925296545 0.64711618423 0.067061841488
0.24572564662 -0.045732859522 -0.96816492081
0.45427441597 0.55373543501 0.69777393341
0.22179110348 0.70790147781 0.67055404186
0.20661717653 0.52395421267 0.82629936934
-1.2266915292e-05 0.66466969252 0.74708324671
-0.063238359988 0.85653233528 0.50984174013
0.38126465678 0.7624309659 0.52170395851
0.93774956465 -0.0028603740502 -0.34727045894
0.88143253326 0.25539010763 -0.39738583565
0.93263268471 0.15539599955 -0.32564520836
-0.81426501274 -0.15542022884 -0.55928063393
-0.80658119917 0.0067507196218 -0.59095823765
-0.39243620634 -0.12035730481 -0.91183131933
-0.51851952076 -0.14438720047 -0.84270524979
-0.43508303165 0.0039991107769 -0.90035659075
-0.57776844501 0.0038114548661 -0.81614047289
-0.26808348298 0.043418403715 -0.96240025759
-0.36483618617 0.119864963 -0.92326235771
-0.49639365077 0.15132558346 -0.85480433702
-0.56651347876 0.2762388885 -0.77636188269
-0.63103026152 0.13179714978 -0.76442551613
-0.92129129171 -0.084767997265 -0.37952068448
-0.88371241093 -0.18911093473 -0.42811116576
-0.94543987513 -0.1443310678 -0.29209807515
-0.87633556128 -0.054080639035 -0.47865203023
-0.88412880898 0.089087717235 -0.45848795772
-0.92592936754 0.023267162964 -0.3768812716
-0.95462214947 -0.030600331724 -0.29616168141
-0.97491365671 -0.071988143027 -0.21053412557
-0.95681655407 0.076033860445 -0.28036823869
0.33408465981 -0.18777993321 -0.92341041565
0.63810026646 -0.34979259968 -0.68589693308
0.50975453854 -0.40058156848 -0.76130461693
0.5604326725 -0.51248025894 -0.65056276321
0.3647017777 -0.35857576132 -0.85818243027
0.70415079594 -0.43475979567 -0.56138157845
0.8275141716 -0.33026486635 -0.45395475626
0.1863091588 -0.5904173851 -0.7846134901
0.39601379633 -0.57319974899 -0.71735525131
0.97328025103 -0.014162494801 0.22921851277
0.95217573643 -0.24279840291 0.18544393778
0.89477968216 0.0057093971409 0.44642797112
0.91781014204 -0.17197805643 0.35761472583
-0.86568176746 -0.31592428684 -0.38831496239
-0.88112533092 -0.37526896596 -0.28773295879
0.72970080376 -0.53660649061 -0.42360812426
0.87019199133 -0.37139520049 0.32343715429
0.28094881773 -0.75514948368 -0.59218800068
0.36034944654 -0.87007987499 -0.3332631886
0.017745023593 -0.85740202665 -0.51129448414
0.95587491989 -0.29337513447 0.014521717094
0.95716184378 -0.24229854345 -0.15831841528
0.47153520584 -0.6871727109 -0.55254942179
0.77668493986 0.42937383056 -0.4608207345
0.69918572903 0.51624405384 -0.49452880025
0.36835756898 0.36919760704 0.85316377878
0.57576906681 -0.71689391136 -0.39226821065
0.44561800361 -0.88157570362 -0.15524861217
0.61700308323 -0.5910423398 -0.51911354065
0.69527989626 -0.64540159702 -0.31559321284
[...]
CELL_DATA 724
SCALARS cell_data_0 double
LOOKUP_TABLE default
7.79904669501e-07
2.02305808055e-05
0.000107420759071
2.81912885561e-05
6.93725406867e-06
1.08822484434e-05
1.53315853363e-05
1.14775143363e-05
1.70843633551e-07
5.79583292249e-06
7.68777357068e-06
1.22885288166e-05
6.3769858362e-07
2.77786087563e-05
1.7466579317e-05
1.63881515767e-05
1.54750328145e-05
1.6329803347e-05
1.2141270486e-05
2.069535531e-06
1.7463235939e-05
1.89370262854e-05
3.78369360827e-06
3.25865645924e-06
2.22419869902e-06
1.15682631127e-06
1.22980412697e-06
1.92554074993e-06
1.81548074638e-06
8.43705428965e-07
1.57872458513e-05
1.72721867061e-05
2.14672193521e-05
2.14411854818e-05
3.15491071724e-05
2.48058223347e-05
2.24873012656e-05
1.75963557089e-05
2.23771199074e-05
2.40038224312e-05
2.20509341034e-05
1.45728784284e-05
3.16537022094e-05
2.31195688892e-05
1.6869510961e-05
1.50440277062e-05
1.52129641933e-05
1.43659524503e-05
8.90630843153e-05
7.40650296254e-05
7.18084157388e-06
4.13455515034e-06
2.5168674728e-06
1.81495156697e-06
1.64290695168e-06
2.13824633336e-05
2.29832618973e-05
8.87238063334e-07
6.4221987656e-07
2.86945061474e-05
3.21694627091e-06
2.15608057547e-06
7.17650726191e-06
5.47803368029e-06
2.34218433552e-06
9.06807020384e-07
4.05758508402e-07
4.84320538336e-05
4.94817608104e-05
2.31096521085e-05
1.22720559381e-06
2.18886693435e-06
1.39035550459e-06
8.93473830479e-07
6.61350423858e-07
2.48643125382e-06
5.33391975652e-07
2.62329490242e-06
5.17430976714e-05
2.07938159732e-07
5.4284476827e-07
1.23531397213e-07
3.53324686755e-07
5.65867611217e-07
3.05859318675e-07
3.49407091124e-07
4.65187874312e-07
7.17556261314e-07
2.98360273382e-05
3.26963632788e-07
4.68736827473e-07
7.78670891955e-06
6.95990643832e-06
1.28093119454e-05
1.01252081321e-05
1.33659113968e-05
1.19887084929e-06
1.00027155407e-06
1.84269785671e-05
1.23695883567e-08
1.38384655885e-05
7.33527202707e-06
8.3704066487e-06
1.20567740028e-05
1.08288596048e-05
7.30544172708e-06
9.6428056212e-06
1.40108477948e-05
1.97610793374e-05
1.02060230393e-05
1.21712035505e-05
1.84958929535e-05
2.86257132482e-07
2.25355660508e-05
1.61937442123e-06
5.69244851351e-06
4.00593170376e-05
2.09714518875e-05
9.55754013072e-07
3.9119014265e-06
6.70236362117e-07
1.7652447375e-05
2.01123707067e-05
3.34728266502e-05
3.48872436014e-07
9.01677370633e-08
4.89587653676e-06
2.12362987597e-05
2.48399038691e-06
2.10639107756e-07
7.54246798212e-08
2.46793799991e-07
1.35607003751e-06
1.25503481756e-06
1.77095261713e-05
3.10300035574e-07
2.64261746939e-05
2.22278238757e-05
1.02839752923e-06
1.97600576714e-05
1.07685666279e-06
3.27189452833e-05
5.17856676096e-05
4.33877976217e-05
8.72926864132e-05
3.59196492612e-05
1.64113634074e-05
9.44131752281e-06
3.64459399044e-05
1.05064589831e-05
1.05121922818e-05
1.411254928e-05
1.76605112371e-05
1.20018754049e-05
2.25395678351e-05
8.14726276916e-06
3.09048486949e-05
4.9614575121e-05
3.79591909561e-05
8.57465097422e-06
4.49997838994e-05
1.02448986095e-06
7.2886041057e-06
8.45948787649e-06
1.2316317138e-05
6.32682336064e-07
1.95881929406e-05
4.60651499477e-07
1.06549075064e-05
2.34433405789e-05
3.50295230598e-05
3.41886557901e-05
2.4429753883e-06
2.03759743487e-06
2.60485250845e-06
1.92682121679e-06
1.36164152914e-06
1.5292620512e-06
4.16169670382e-06
2.97999637229e-08
6.37892098054e-07
1.13970360325e-05
1.09140904141e-05
1.41339354555e-05
1.33498909203e-05
1.0948621854e-05
1.45309196306e-05
6.6532663905e-06
9.02244771826e-06
1.00198671444e-05
1.29983391505e-06
2.51696592702e-05
1.35128278806e-05
1.85796321426e-06
1.99147477952e-05
8.41696332586e-06
7.83778749545e-06
1.2982111432e-05
1.16790614602e-05
7.96589000829e-08
4.28593432337e-07
6.61210358855e-07
1.60284022005e-05
9.49363600661e-06
3.03714878761e-07
4.76364135173e-07
3.43803308837e-07
1.78775151457e-05
3.16611535221e-07
4.80458734477e-07
2.54047973232e-06
3.83235374942e-07
2.24167684597e-07
1.8827294248e-06
2.46777539582e-07
3.46072067086e-06
9.04009362261e-07
2.16286265341e-05
1.64427833782e-05
1.45135357976e-05
1.58835928099e-06
1.16774465133e-05
2.81369594187e-07
1.72791225008e-06
1.05592779437e-07
2.17590268083e-07
3.06962114419e-07
1.45667870205e-06
6.20907153886e-09
2.45505341233e-07
2.5357579309e-07
1.22591590119e-06
3.32579815124e-07
3.78062434517e-07
3.79398958338e-07
2.30979785124e-06
2.0789500473e-06
2.74164958557e-07
2.55784922524e-07
7.52202013152e-08
1.15126142613e-06
4.54828779109e-09
2.15208221815e-07
4.61247111757e-07
1.28148320146e-05
3.38577325454e-06
1.06329823071e-05
5.05808947362e-06
2.36830697556e-05
6.75902287511e-06
9.17722614325e-06
2.33668860908e-06
9.51420908143e-07
2.03801257229e-05
2.00122702577e-05
2.00467055215e-06
2.09868267141e-06
2.70183070614e-06
2.86146889297e-06
2.46310160731e-06
5.15618543556e-06
1.07781680249e-05
5.37422975144e-06
2.33510609652e-06
2.20616525682e-06
9.91717844586e-06
1.99242320649e-07
2.32858877123e-07
1.20331920304e-07
4.10847859849e-07
5.92654798962e-06
1.62503641182e-07
1.65625831664e-07
3.17291900158e-07
1.42595237533e-05
1.06289256057e-05
1.91338251843e-07
1.26107034174e-05
1.74831099758e-05
1.57442646668e-05
1.41667506102e-09
5.74412341337e-08
1.14586153212e-06
8.87084975234e-07
1.42157296034e-05
1.64391671518e-05
5.01908302691e-05
2.63390179279e-05
3.37369881915e-07
7.29247620932e-08
9.57380878715e-06
4.05817174926e-07
1.31316644022e-05
1.02725196071e-05
1.02600877488e-05
9.76529707968e-06
1.92061836006e-05
2.0058281997e-06
4.14634110407e-05
1.31155363882e-05
2.94466657545e-07
2.39246118979e-05
1.18238631999e-06
1.65159326879e-06
5.34605852621e-07
3.39946045458e-07
1.66727509223e-07
7.54206252743e-07
1.6148482708e-06
1.88845860395e-06
1.98331656909e-06
2.70249821937e-06
1.33110970447e-06
2.38588188806e-07
4.32379447145e-07
1.96681623642e-05
1.43210039819e-05
4.72969515567e-07
2.42870731209e-07
1.78095782555e-07
3.36088891035e-07
4.39126147935e-07
6.79021475957e-07
6.09659965917e-07
7.16912765035e-06
1.66224002755e-06
8.4498497091e-08
3.49666564929e-08
1.49858372942e-06
7.64936977064e-06
9.35100587176e-06
8.77742255864e-06
1.81864079284e-06
1.54107974096e-07
2.52691932139e-05
5.2821714845e-06
2.52642393694e-07
1.89071672681e-05
2.50717944204e-06
2.57265117146e-06
1.94276726088e-08
3.61959471001e-08
6.55722354645e-07
8.71465048585e-08
4.63872713572e-07
9.08130717239e-07
5.74302253921e-07
9.02438399901e-08
1.74438204597e-07
1.9672664312e-07
3.7589151124e-08
1.98322904898e-05
1.88324486185e-07
3.92983259314e-07
2.86445344798e-07
3.24097354387e-06
2.26897169026e-05
1.06818407192e-05
6.11755429918e-08
2.51665666629e-07
1.00114501614e-05
4.55429237457e-07
1.40823957553e-06
2.33634940396e-06
7.50453093257e-07
9.30591740475e-07
1.00745435675e-06
1.50131367595e-06
8.48447540672e-06
7.87863795259e-06
1.59330885683e-06
1.99403393192e-06
3.45232852672e-06
6.64038540173e-06
4.78079895653e-06
2.04262434629e-05
2.24804574154e-05
1.83079677382e-05
3.16901016992e-06
1.51516383081e-06
3.96727081404e-06
4.74601812539e-06
3.06436055696e-07
1.78710977678e-06
1.22095416054e-06
3.30292664756e-06
5.54295223133e-06
3.56470538292e-06
3.19142702295e-06
4.68927462862e-06
1.10011909637e-06
2.23430537533e-05
2.33596091776e-06
2.08072440664e-06
3.1370040595e-06
7.30184496356e-07
9.50174998578e-07
1.67684381725e-06
1.7806884028e-07
1.57488488591e-07
2.61936790612e-07
5.37572398853e-08
1.0642046582e-07
1.68367887784e-05
2.96315179752e-07
1.21712669916e-07
7.51924071183e-08
2.08342602244e-05
1.56942575092e-05
3.93187406679e-08
2.50876489699e-09
1.50280190104e-07
9.48204093332e-06
6.01988376268e-06
9.6917029344e-06
6.6516824654e-06
4.11412074777e-06
2.3592567979e-06
2.61375925853e-06
2.50650346012e-06
4.19373566684e-06
8.72228560916e-06
4.34578054079e-07
3.57801881421e-07
6.13110571513e-07
6.94426436489e-07
1.01825860724e-06
5.52980601777e-07
1.18136625265e-06
1.06083180835e-06
6.28779965965e-07
1.05112687348e-06
1.86184168592e-07
1.28258248389e-06
1.20409377918e-07
1.886474106e-08
3.5072624597e-08
1.80454605898e-07
6.31638873642e-08
7.43715316102e-08
1.64764759137e-07
2.40253800959e-06
2.67986834154e-06
1.64391097714e-05
1.42054071041e-07
5.59617132485e-06
6.01478693681e-06
3.91075612711e-06
2.71129889749e-06
6.35179455066e-07
1.03865054575e-07
1.16069972478e-06
1.62604899702e-07
1.96841327696e-06
2.17849229234e-06
4.58127008816e-06
5.95402097394e-06
4.54634148374e-07
5.185244438e-07
4.69795011713e-07
7.13282316856e-07
4.38231619961e-07
1.42416518513e-06
1.03052021793e-06
1.74623256822e-07
4.84423644367e-07
1.09779805673e-07
1.56555908688e-07
2.58873840547e-08
1.25533775403e-07
1.13347363066e-06
4.77708476696e-07
2.85243702028e-09
6.66626471328e-07
1.51434785127e-07
1.45918067577e-07
1.68118068916e-07
2.02234393338e-07
1.5582322385e-07
3.99202506824e-07
1.48048242442e-07
2.67771075545e-07
1.02340777497e-06
1.49547999177e-07
1.16697193185e-07
2.31442213238e-06
2.6471426418e-07
5.42277738239e-06
2.14227542151e-06
1.83666414626e-06
2.16237641389e-06
1.97632792614e-06
3.51681338821e-06
2.06759711888e-06
6.88916587466e-06
3.94799437019e-06
5.19817915523e-06
7.39929394792e-06
6.95518854159e-07
7.27018399895e-07
4.04368214658e-07
4.65181319319e-07
5.43831109292e-07
5.38064222615e-07
1.39865376228e-07
2.94196093742e-07
1.40615381185e-07
2.99392665573e-07
4.39618705554e-07
2.14941602109e-07
3.96850251935e-07
3.42604544375e-07
8.70681248899e-07
4.7614697597e-07
1.90659052019e-07
2.50494934094e-07
4.48762791486e-07
1.73715856884e-07
4.22282570081e-07
6.23485808854e-07
2.27091308823e-07
1.23543490298e-06
1.12123655098e-07
6.67147278207e-07
5.07085150295e-07
2.09861635658e-07
5.18539007836e-07
4.67962478307e-07
1.13435726535e-06
7.08304234922e-06
2.32612036837e-06
1.54470280314e-06
3.58831736195e-06
1.33372645528e-05
1.68978945653e-05
1.10009530346e-05
7.21413439057e-06
8.5161119161e-06
1.0503010881e-05
1.08473050348e-05
1.54139643397e-05
3.31207927183e-07
6.42200860625e-07
1.64683250069e-06
1.40324215896e-06
2.04487546066e-07
1.84846394712e-07
3.82909971087e-07
1.53291571515e-06
3.48478238567e-10
9.57235976822e-08
8.17975258984e-07
3.43344140422e-07
8.42268849816e-07
1.4982261119e-06
1.23516438489e-05
8.80444482167e-06
6.47653446529e-07
4.94971887619e-07
4.20648824473e-06
8.09249754803e-06
1.12731957168e-05
1.2164153544e-05
6.17883000246e-06
6.76451856555e-06
6.48641683742e-06
5.66059575397e-06
2.01074921591e-06
4.82625516695e-06
2.59811307423e-05
2.56117738269e-05
4.31258629223e-06
4.9003792832e-06
1.3420036777e-06
1.03805246661e-06
1.18230308995e-06
5.92929457099e-06
7.95266477135e-06
2.2271735389e-06
3.12851325588e-06
1.08007359369e-07
7.15523727959e-06
2.04781561894e-06
8.12657519162e-06
5.24518401859e-07
2.63920256356e-06
5.89984491209e-06
3.29048486655e-06
3.94575035758e-06
2.04938672595e-06
6.49584898085e-07
9.39261225891e-06
9.77713288237e-06
6.63444034275e-06
4.44033383401e-07
1.23011497891e-07
7.72758117304e-06
2.60021925133e-08
4.03921945718e-05
3.27296907086e-07
1.04208082456e-06
6.1022974883e-07
5.26326609839e-05
8.01288948496e-07
7.36618552238e-06
2.09791134232e-07
3.1231622021e-06
3.45498527415e-06
2.13442963875e-06
3.14992412953e-07
8.0589510261e-06
8.99603748408e-06
1.44661470648e-05
8.6537819442e-06
4.58085369735e-06
4.20427807572e-06
2.00103064212e-06
1.82913712452e-06
1.50520859828e-06
2.11815473348e-06
1.82044073851e-06
3.46751397531e-06
2.50745284949e-06
4.93135669602e-06
1.31119270181e-06
7.8177595753e-07
1.94905117633e-07
4.25302817025e-07
5.34277232739e-07
5.48386821351e-07
6.52487049897e-06
5.69840815067e-05
3.27279016783e-05
7.7362167952e-07
1.33710537802e-05
1.91800333433e-06
6.27947677422e-06
1.40567612197e-06
1.27997973303e-06
1.44196865368e-06
1.46809165781e-06
1.1923024231e-05
2.87528956499e-07
2.87808697046e-09
1.23455753568e-07
1.62068490178e-06
2.48619422256e-07
5.57021978965e-08
7.54599335283e-06
9.67217774606e-08
1.31953104512e-06
3.49053478553e-08
8.5801807556e-07
5.71663754993e-07
1.90358899807e-06
1.08608012945e-05
1.00449554888e-05
1.6448941818e-05
1.17214148659e-05
1.08951788967e-07
1.64408279174e-06
1.85452351143e-06
1.049879205e-06
1.16309301804e-06
2.11318288434e-05
2.15465665375e-06
1.06648750526e-05
2.98295079268e-06
3.79200548435e-06
8.77957511224e-07
2.81011726948e-06
1.60791061071e-06
2.18439354566e-06
1.99418860714e-06
3.25793685443e-06
1.34131434993e-06
2.87072681672e-06
1.14480711391e-06
1.47677457874e-08
1.90341231499e-06
5.81514744264e-08
4.54594803031e-07
3.26069554608e-06
5.52041937026e-07
8.45330267906e-07
1.96273830293e-07
8.81003019224e-07
1.24351965038e-06
1.40834048132e-06
1.06190078123e-06
1.03654238447e-05
3.86758557818e-05
1.26703358105e-06
1.48757891688e-06
9.28852595025e-07
4.6135255817e-08
8.12058892467e-07
3.06553144325e-06
6.50553427712e-06
1.23509006781e-05
5.97131375201e-06
1.53995285678e-06
7.05137448836e-07
1.99089069418e-07
8.00083069272e-07
2.22515419567e-06
1.56141960559e-06
9.61054344819e-07
1.32602170012e-06
9.01910922805e-07
9.59964998771e-08
4.03898270245e-07
1.8672294736e-07
5.28375028408e-08
1.08903671183e-07
1.90983768745e-06
2.34593389694e-06
1.63848020949e-07
6.10769843627e-06
2.49480302097e-06
3.85053033796e-07
2.10301837374e-07
7.89991243945e-07
1.44466846559e-07

