# vtk DataFile Version 3.0
File Name: Molecule/sphere_excent/sphere_excent_0-s34.vtk
ASCII
DATASET UNSTRUCTURED_GRID
FIELD FieldData 1
TIME 1 1 double
0.0
POINTS 409 double
0.3041151762 -0.61926060915 0.72296357155
0.045820023865 -0.83475255966 0.54743760824
0.39159166813 -0.83807295561 0.37961134315
0.76528561115 -0.20676024258 0.60949766636
0.77217411995 0.2115457058 0.59883725643
0.60584622622 0.0098781483248 0.79541516304
0.45518520474 0.49992734194 -0.73678010702
0.59418290854 0.46938219666 -0.65312469006
0.53385084867 0.3740156889 -0.7583322525
0.67653483152 -0.20747868717 -0.70651894808
0.75864809752 -0.10539662838 -0.6429631114
0.7603943944 -0.26222580671 -0.5941644907
-0.23537863791 0.3443159759 0.9087408185
-0.41534796357 0.21559636295 0.88370990753
-0.22143383324 0.1236179024 0.96728628874
-0.32079467177 -0.67539399862 0.66393119097
-0.51148217916 -0.38652911782 0.76712727547
-0.57584005594 -0.56582200527 0.58994448185
-0.78165394068 -0.26380071044 0.56500023603
-0.63116407394 -0.1103303954 0.76759386063
-0.67833697796 -0.18985851109 -0.70978999138
-0.4986641705 -0.34216657281 -0.79641634226
-0.62987357378 -0.41573759913 -0.6560908556
0.92631703615 0.18418906629 0.32854050398
0.84333312511 0.38421756029 0.37554776669
0.68630057573 0.483276546 0.5433562398
0.569853127 0.30020841956 0.7646741271
0.982424438 0.12166360021 -0.14126101136
0.98593115807 0.14727327228 0.079008378088
0.99699413776 -0.076612427831 0.011497073807
-0.014642043971 0.45149156451 0.89204806089
-0.29351076484 0.6240875721 0.72394412756
-0.021866049618 0.2159973532 0.97614383698
0.19270272553 0.27230527997 0.94260710478
0.17176398635 0.02118281275 0.98380917311
-0.41002497077 -0.8147726655 0.40905246139
-0.81858289242 -0.55031388998 0.16414168477
-0.77126014233 -0.6352083087 0.039771094918
-0.63214665651 -0.74638867378 0.20747031271
0.57808071375 -0.54020553827 0.61111193895
0.29932707548 -0.45085865259 0.83965849876
0.63039046526 -0.75496166945 -0.18098761141
0.76840227842 -0.63942575455 -0.024786822498
0.52409237623 -0.85058373213 0.031374532729
0.68108588457 -0.70981240273 0.17943200469
0.86978441477 -0.47730907798 0.12431918085
0.89563363791 -0.44163066149 -0.052599161863
0.84123849869 -0.50737518072 -0.18614926934
-0.9623721242 -0.25604403019 0.090429469943
-0.90397578478 -0.40007480979 0.15082556009
-0.92230063677 -0.24523289502 0.29850739241
-0.8434497118 -0.43364179134 0.31664681435
-0.8172275424 -0.56869930029 -0.093149922788
-0.86439502239 -0.50189882517 0.028934299946
-0.023423625156 -0.6441745162 0.7645072937
0.27062994242 -0.28212806582 0.91981220245
0.5234849453 -0.30087378621 0.79702669382
0.39050105214 -0.076158761978 0.91752588749
-0.22157168388 -0.48975297809 0.84323388338
0.017587926239 -0.44235271215 0.89554136992
-0.1680008173 -0.28815099597 0.94261556864
0.40318414569 0.15491807461 0.9018778801
0.0040711606853 0.89849305153 -0.43869948387
0.095425710082 0.96594637632 -0.24039272964
0.21683494747 0.87203294039 -0.43875068426
0.36566749215 0.88430410624 -0.29021960497
0.28444245458 0.95156764984 -0.11585572362
0.40627917647 0.78054112196 -0.47454038262
0.53932017088 0.77795386314 -0.32226234674
0.51530879736 0.66551244259 -0.53922212124
0.23856317997 0.73882806301 -0.63018923998
0.39901414514 0.6453127861 -0.65136402845
-0.97771567106 -0.085179559886 0.19175043702
-0.91382688284 -0.029537584633 0.40307307243
-0.95933282375 -0.26723402739 -0.090903960168
-0.92671859264 -0.37559705973 -0.0089949527755
-0.91440695524 -0.36868909001 -0.16708272696
-0.92735809088 -0.26713341475 -0.26194727421
-0.83300900459 0.49229192734 -0.25137457252
-0.91047793627 0.39586320519 -0.11585309356
-0.76043760777 0.64155209064 -0.098574586213
-0.97000277042 0.17610749602 0.16363629699
-0.99900233746 -0.0062528224662 0.042226560414
-0.98898559809 -0.14683616161 -0.012997782789
-0.99436128139 -0.044224079698 -0.096211105585
-0.97250622511 -0.16524215043 -0.16394761205
-0.98272389174 0.041122619063 -0.18008938432
-0.99267876148 0.10671050102 -0.056358635426
-0.43872448802 -0.54956668615 -0.71088522673
-0.33503773808 -0.73130983114 -0.59313035011
-0.55963790417 -0.60279786587 -0.56853681803
-0.19298267365 -0.59168320894 -0.78244638443
-0.71084135771 -0.48904293776 -0.50552898645
-0.75288444757 -0.55690300465 -0.35074186325
-0.80922573805 -0.43335917592 -0.39661335945
-0.65060544014 -0.62073504925 -0.43740624189
-0.65486973524 -0.68968462944 -0.30859947205
-0.76580792665 -0.60587322712 -0.21536685526
-0.69302523136 -0.69799226522 -0.18012115359
-0.83997917175 -0.48881205916 -0.23546072841
-0.50695496798 -0.74305725098 -0.43689504266
-0.51774168015 -0.8086438179 -0.27916550636
-0.36669036746 -0.87973642349 -0.30134281516
-0.73409664631 -0.67467802763 -0.076717428863
-0.80929833651 0.36609345675 0.45766991377
-0.59365063906 0.52233356237 0.6118272543
-0.71529662609 0.63961493969 0.27804890275
-0.54104840755 0.72898292542 0.41779881716
-0.77953392267 0.068056792021 0.62261533737
0.56253528595 0.80939006805 -0.1682742238
0.69802719355 0.6810914278 -0.22104424238
0.66521555185 0.74625313282 -0.023357234895
0.84548354149 0.49676778913 -0.19557096064
0.78679180145 0.61341154575 -0.067480839789
0.62948918343 0.65814292431 -0.41299855709
0.7588378191 0.54991137981 -0.34895324707
-0.58541345596 0.10096872598 0.80437779427
-0.64864766598 0.29400634766 0.70198559761
-0.44857320189 0.4150416851 0.79148620367
-0.40420302749 0.0040906812064 0.91463571787
-0.77641135454 -0.32235667109 -0.54154109955
0.67061907053 0.71711063385 0.18954098225
0.53986960649 0.83645170927 0.093734972179
-0.83746618032 0.54140907526 0.074210457504
-0.92109811306 0.36581590772 0.1316216588
-0.96645581722 0.25665962696 -0.011038910598
-0.96401655674 0.19579906762 -0.17924179137
-0.84510970116 0.29788550735 -0.44383990765
-0.90509176254 0.31854996085 -0.28097507358
-0.78842961788 0.47749900818 -0.38652300835
-0.92248141766 0.17559199035 -0.34362980723
0.39811727405 0.39068105817 -0.8299716115
0.3476922214 0.25715661049 -0.90165454149
0.48630931973 0.26458871365 -0.83277642727
0.43653684855 0.14525173604 -0.88787120581
0.52477473021 0.14558404684 -0.83859223127
0.47409453988 -0.036649860442 -0.87964183092
0.60610061884 0.27045813203 -0.74802529812
0.63928210735 0.35532167554 -0.68193972111
0.72363781929 0.26542687416 -0.63710319996
0.701135993 0.40627008677 -0.58598709106
0.71225035191 0.15290810168 -0.68504005671
0.77196550369 0.12635958195 -0.62303227186
0.81281113625 0.011237102561 -0.58242607117
0.72747576237 0.026682099327 -0.68559509516
0.85950964689 -0.11441955715 -0.49809220433
0.88745206594 0.082626767457 -0.45332095027
0.636916399 -0.089668594301 -0.76567137241
0.63735425472 0.033845856786 -0.7696210146
0.31409722567 0.10316614062 -0.94380545616
0.52992331982 -0.22947147489 -0.81617599726
0.29272180796 0.54436230659 -0.78607994318
0.076634153724 0.48019218445 -0.87371718884
0.24788877368 0.38592043519 -0.8885653019
0.19653458893 0.23526395857 -0.9517133832
0.13470761478 0.12536463141 -0.98233425617
0.93182337284 0.31818369031 0.17457681894
0.94474595785 0.32466089725 -0.045040458441
0.89685070515 0.43525409698 0.078506246209
0.85565888882 0.47529739141 0.20465420187
0.77504301071 0.5505040288 0.31013193727
0.8478000164 0.40653550625 -0.34055578709
0.92483925819 0.29976332188 -0.2341170162
-0.039807666093 0.014462104067 0.99909693003
0.0023028049618 -0.18726828694 0.98129367828
-0.18272824585 -0.080322340131 0.97982674837
0.75554537773 0.65171563625 0.065528362989
0.26087367535 -0.043191038072 -0.96319186687
0.45256099105 0.55524218082 0.69776147604
0.21783705056 0.70583385229 0.67403036356
0.20646467805 0.5241574049 0.82621741295
-0.0017089975299 0.66373896599 0.74795007706
-0.05747628957 0.84621489048 0.52873206139
0.37867230177 0.75434595346 0.53562927246
0.93956673145 -0.0060313008726 -0.34229385853
0.88334435225 0.25561782718 -0.39298972487
0.9347705245 0.15439817309 -0.31996235251
-0.8125538826 -0.15757258236 -0.56117248535
-0.80511432886 0.005553772673 -0.59299403429
-0.3966833353 -0.1217797175 -0.90982615948
-0.52158457041 -0.14904697239 -0.84002894163
-0.43859386444 0.0019355090335 -0.89866894484
-0.57808631659 0.00075163936708 -0.81593674421
-0.26845526695 0.04211550951 -0.96235150099
-0.3667755723 0.11744867265 -0.92282187939
-0.49692368507 0.15188957751 -0.85439634323
-0.56529039145 0.2781701982 -0.77655363083
-0.62995535135 0.13360071182 -0.76501947641
-0.92127871513 -0.083089753985 -0.37992185354
-0.88330078125 -0.189021945 -0.42898857594
-0.94587051868 -0.14349967241 -0.29111561179
-0.87547874451 -0.053497411311 -0.48027679324
-0.88226723671 0.092898748815 -0.46132791042
-0.92555588484 0.026900598779 -0.37756255269
-0.95510458946 -0.027901675552 -0.29486998916
-0.97572571039 -0.06999001652 -0.20741848648
-0.95680516958 0.080827839673 -0.27907985449
0.34121602774 -0.19002896547 -0.92051011324
0.63665044308 -0.35025182366 -0.6870046854
0.50714027882 -0.40473693609 -0.76085329056
0.56804484129 -0.4971857965 -0.65510237217
0.35732144117 -0.3769530952 -0.85412204266
0.70391482115 -0.43372866511 -0.56249207258
0.82849258184 -0.3265453279 -0.45484799147
0.19905538857 -0.595515728 -0.77807348967
0.38217449188 -0.5672582984 -0.72838497162
0.97274416685 -0.016197547317 0.23138643801
0.95255804062 -0.23943439126 0.18786308169
0.89340877533 0.0071393898688 0.44912567735
0.91635137796 -0.17046527565 0.36207690835
-0.8641808629 -0.31737342477 -0.3904748857
-0.87980973721 -0.37719774246 -0.28923800588
0.73782277107 -0.52399790287 -0.42481085658
0.86970919371 -0.36934867501 0.32710543275
0.27527573705 -0.75480777025 -0.59527564049
0.34215685725 -0.86901175976 -0.3541444242
0.035868082196 -0.85977452993 -0.50885260105
0.95577478409 -0.29361781478 0.016141897067
0.95803898573 -0.24095535278 -0.15511995554
0.46143072844 -0.70007705688 -0.54284632206
0.77637076378 0.43230858445 -0.45860204101
0.69772881269 0.51906591654 -0.4936799109
0.37100327015 0.37095507979 0.85126823187
0.56186926365 -0.73274207115 -0.38259083033
0.44258669019 -0.88252407312 -0.1584148556
[...]
CELL_DATA 814
SCALARS cell_data_0 double
LOOKUP_TABLE default
8.44889974233e-06
2.08987871099e-05
1.71890536262e-05
1.42696434805e-05
1.09661687855e-05
1.42945382516e-05
5.01580109178e-06
6.79119714925e-08
2.59526061246e-05
2.18912878823e-05
6.69758718196e-06
1.96111600359e-05
1.50961073956e-05
1.22681123463e-05
1.3864025609e-05
2.11804882982e-05
1.32293214199e-05
1.03035672788e-05
2.18118665564e-06
1.21579612222e-05
1.47688481606e-05
1.57611395766e-06
2.55225646401e-06
1.77550403462e-06
1.81544404663e-06
1.01682566787e-06
4.33126685004e-08
2.30668428813e-07
1.81074294233e-07
8.61796090784e-06
1.28357261537e-05
1.5798896073e-05
2.33693254501e-05
2.17512258001e-05
1.58927364764e-05
2.07238758921e-05
1.883770663e-05
2.08265942039e-05
1.69265389776e-05
2.21047799817e-05
3.00366488924e-06
1.29525517181e-06
9.27288610456e-07
6.8398983004e-07
4.91481176221e-06
6.41335152941e-06
2.07412032714e-07
1.67027031424e-06
3.04196904254e-06
2.18995347181e-06
3.73753022546e-06
2.66219447167e-06
3.95273192725e-07
9.85479240153e-07
2.24957201112e-07
2.47456504273e-06
1.33307812513e-06
1.31263845356e-06
5.90643474709e-06
1.5279188075e-06
9.76139839854e-07
6.9609274457e-07
6.27144151427e-06
6.64565113989e-07
1.39664501874e-05
3.41054120065e-11
1.06747632089e-05
5.69997110033e-08
3.72361691388e-07
5.7946032713e-07
4.19856189762e-07
5.08130476893e-07
4.83530263999e-07
7.06954066061e-07
3.03140782494e-07
1.60804887907e-07
4.2497121876e-07
9.58852919715e-06
1.42177765963e-05
1.6741113534e-06
3.18059543434e-06
3.06918582108e-06
1.15623150988e-06
4.5350528043e-07
5.24063321633e-06
5.31463873267e-07
1.35148231331e-05
7.29525588051e-06
9.03651328175e-06
8.90712390099e-06
8.14591433397e-06
7.44234432624e-06
9.8113600338e-06
9.49287177362e-06
1.15269140355e-05
1.00096885579e-05
9.68779971014e-06
1.84787099566e-05
4.11812126503e-08
2.93921019055e-05
1.28767759226e-06
1.20370518664e-06
8.32358358038e-07
9.5735430249e-07
8.7359701686e-07
2.62143699088e-06
4.87437685837e-06
2.31942833363e-07
1.64542805917e-06
2.0326222066e-07
3.68111303474e-07
3.16461068253e-07
9.48803423142e-07
6.68834784274e-06
6.94541926722e-09
2.72107369407e-07
1.10729880266e-07
8.34073135609e-07
7.2526523784e-07
2.3450298994e-05
8.38945569864e-08
1.51183134809e-05
1.48846074623e-05
1.33892684487e-06
1.04324151733e-06
2.07820673168e-05
3.86768086855e-05
8.03847181156e-05
6.72280257514e-05
3.23625035307e-05
1.74586442948e-05
1.16781615623e-05
7.4152031027e-06
7.86434220229e-06
2.35721516037e-06
4.49049626894e-06
4.86704428517e-06
1.04587499541e-05
1.47902292471e-05
8.73214308495e-06
1.47803942481e-06
1.10609235394e-05
2.49373801172e-05
3.3575969808e-05
6.55362840215e-06
2.66885698036e-05
7.46716136623e-06
2.61127952406e-05
1.84138848365e-05
2.54982309443e-05
3.22412687782e-05
7.25310530044e-06
1.89974550504e-06
2.74845103284e-06
1.43515556692e-06
1.29981295979e-06
1.2402638859e-06
4.19535113004e-06
1.85908275552e-05
5.38705577408e-07
1.57592540168e-05
1.09440080155e-05
1.1048429422e-05
2.22114828171e-05
9.93493628734e-06
6.83737061047e-06
2.05549645406e-05
8.82334777485e-06
1.2554061155e-06
1.41696441856e-05
8.73486957555e-07
2.14537033965e-05
1.35402201401e-05
1.1322716328e-05
7.0612636472e-06
1.21334912393e-05
8.95571672412e-06
9.04479975252e-06
9.6560744617e-07
1.43564292385e-06
1.57676253772e-07
2.3174431913e-07
4.18881712553e-07
1.72821543351e-05
4.57912286517e-07
2.36575425588e-05
1.91740655775e-06
2.18751351647e-07
1.37879307366e-07
6.17049947373e-07
4.42000670225e-07
2.4883274288e-07
1.09347060949e-09
2.34251874709e-08
4.8599983509e-07
1.18418419625e-05
1.62590025116e-05
1.36114131252e-05
1.90783765983e-07
1.81697008101e-05
1.32570948046e-07
1.96384143501e-07
9.16764433325e-07
6.36260071116e-07
3.31233735956e-07
2.66187048009e-07
3.91917472803e-07
1.84971503582e-06
2.90562053283e-07
2.36039780639e-07
3.68464639544e-07
4.86795904206e-07
4.03585311667e-07
1.0569863886e-05
4.64158251729e-06
2.20914740527e-06
2.42649735845e-07
3.45950690833e-07
2.22030121404e-07
6.46977468205e-07
5.36712516076e-07
2.66543531928e-06
2.90774260893e-05
7.18619350325e-07
1.49770126923e-05
7.5554681129e-07
9.92330983924e-06
1.07601889442e-05
1.43350472334e-05
2.66650417137e-06
2.35080381477e-05
1.2470474603e-05
1.32064285257e-05
2.13395807595e-05
1.28011039026e-06
1.6819032682e-05
2.74464323131e-06
2.79671546052e-06
5.80805210198e-06
1.71904707869e-05
2.06580026438e-05
9.4870655326e-07
1.92615694432e-05
1.74038750138e-05
2.95796976593e-07
3.82588521586e-07
1.20271070147e-07
2.21084229439e-05
5.5823692168e-06
2.03131390551e-08
1.78229293593e-08
4.47928371103e-07
1.95465949766e-05
1.93312584775e-05
4.05181895398e-07
1.36805191019e-05
5.97187460545e-06
9.22805213656e-06
2.00523763383e-05
5.43739175323e-07
1.62211391904e-05
1.51286123703e-07
7.32182473691e-07
1.11704882216e-07
1.72193589452e-05
6.77684298841e-06
1.90307932471e-05
1.09657093122e-05
2.68848438998e-05
1.24107731556e-05
1.06738861068e-05
1.22269289239e-05
2.00807090653e-05
6.36182616499e-07
4.99383998983e-07
3.23737237561e-07
1.10723087983e-06
1.45721495896e-06
2.9308861966e-07
6.63195784369e-08
1.33182271464e-07
5.27498956515e-07
1.57038295965e-06
1.18177435551e-05
1.70089425964e-06
1.09306184296e-06
1.20444013203e-06
2.60327139604e-07
4.39684525992e-07
2.01159884041e-05
2.02222919698e-05
3.39624031079e-07
2.21337672376e-07
1.34350957002e-07
2.25112678918e-07
3.53749800913e-07
6.12258206594e-07
6.63495769781e-07
2.63012390717e-05
1.01738579558e-05
1.02853777404e-05
1.00404676946e-07
1.17595214414e-07
6.30345754003e-06
1.12949409267e-05
1.21700148377e-05
1.79333093767e-07
1.18727614372e-05
1.19888763957e-05
1.37604585539e-06
1.60429233767e-06
1.83634837786e-06
1.9692085177e-05
1.58219709798e-07
3.8092243517e-07
3.49734782989e-07
1.56234579452e-07
1.43815952535e-05
1.39872534278e-05
4.71206938855e-08
2.47278972387e-07
1.93894060474e-07
9.55969932336e-08
1.07796148064e-06
2.18439772169e-07
4.45979608574e-07
8.0341048655e-07
1.8724227349e-06
3.00569478906e-08
1.304882759e-07
6.79777965463e-07
1.4886539522e-06
4.76533493904e-07
6.64566278491e-07
2.25142605176e-07
9.31937255919e-07
5.51502087642e-07
1.64573808048e-05
1.41581400311e-05
1.40383511846e-06
1.86293329139e-06
3.76427402145e-06
7.51893870467e-06
4.92382519677e-06
1.89117845103e-06
1.51462557551e-06
8.99683621324e-06
3.90834215394e-07
7.7062109427e-07
2.70815822505e-08
1.90715991076e-06
3.34747246002e-07
5.43594136635e-06
1.0991560268e-06
1.80633268335e-06
3.71872476015e-06
5.32921553863e-06
2.57506369959e-06
1.36973979777e-06
1.62450089634e-06
1.55320667462e-05
3.95594932306e-06
2.11376455028e-06
3.42572044207e-06
8.63102076564e-06
8.55281744214e-06
4.34355803286e-06
1.40961246706e-06
2.30096387802e-06
1.42434168855e-06
1.71410040417e-08
1.06057120332e-05
1.86617775569e-07
4.79553684009e-08
1.78586502153e-07
7.69867639849e-07
6.56121249672e-07
1.02408510416e-07
6.59382362815e-08
1.37785877659e-07
9.67030224427e-06
6.45342984121e-06
4.84908716202e-06
2.65760146695e-06
1.59689271999e-06
2.42833531558e-06
2.3489363862e-06
9.31669080823e-06
5.30746214098e-08
1.35729254114e-07
1.84482187347e-07
7.27792723078e-07
1.4283582319e-07
3.32350691483e-07
3.32452974529e-08
1.07483806516e-06
3.97954876085e-07
2.4869370574e-07
4.12449283579e-07
1.9990554608e-06
2.95591876388e-08
9.14220771828e-08
8.6648073291e-08
1.33494030495e-07
3.06579248836e-07
2.41499686956e-07
3.17569273092e-07
1.63521146806e-06
3.48469773568e-07
6.30670069643e-07
2.29020216241e-07
1.87607399759e-05
4.0227448452e-06
1.93981742197e-06
4.31894247822e-06
2.21844273123e-06
1.27582723918e-06
1.00603460557e-05
5.95439440666e-07
2.28366532798e-06
1.56245476093e-05
1.06409695636e-05
9.62155327813e-06
4.54056802439e-07
4.67431770555e-07
5.12201773495e-07
6.82946946457e-07
4.63654213181e-07
8.2632975403e-07
7.23618534816e-07
5.43545610215e-08
7.24892073967e-06
4.8301510338e-07
9.04604241991e-08
6.19125055633e-08
5.6945711484e-07
1.52318922563e-06
6.90606815978e-07
4.24716870096e-08
1.28941442345e-06
3.54831079537e-07
4.47193693757e-08
5.52088456373e-08
2.51839126266e-07
3.67821331113e-07
6.18014849636e-07
2.69360756899e-07
2.62314103617e-07
2.02916491558e-07
7.89584565671e-07
1.47709372402e-06
2.88388198214e-07
2.3122652353e-06
1.92669202665e-06
2.344428114e-06
2.11060599885e-06
3.89734251164e-06
2.19111036752e-06
6.53471071158e-06
4.2132011903e-06
9.90782749486e-07
2.71230999313e-06
4.38566225412e-07
2.99172899416e-08
1.29111812398e-07
3.91177445846e-07
3.50429771532e-07
9.04004936195e-06
1.84346952523e-07
4.90450192538e-07
7.37181448462e-07
2.74099622548e-07
4.05350048023e-07
2.01195219133e-07
8.73677089901e-07
8.53429808176e-07
1.07351442037e-07
3.36998606072e-07
6.61983166199e-07
8.35615111791e-08
4.49218292855e-07
7.90053147584e-07
1.47895930904e-07
1.16523163465e-05
2.23861701105e-07
3.17731322656e-08
3.46031225177e-07
1.31461303358e-05
4.5829877765e-07
8.95870091335e-07
1.1040590167e-07
8.59504316713e-07
6.94243249173e-07
2.34362801368e-06
2.4061737703e-06
1.82200814629e-06
3.93367800785e-06
1.54845144331e-05
1.74217202459e-05
7.18132051764e-06
5.89123756102e-06
7.45879746933e-06
7.58339070531e-06
9.18077845454e-06
1.01248468236e-05
6.89537362319e-07
6.38975248469e-07
1.66377187842e-07
8.63555840139e-07
5.07750387653e-08
2.70200002774e-09
1.32853259756e-07
8.25809936736e-07
4.78120062181e-07
9.66141495315e-08
1.2747859371e-06
6.88852749982e-07
6.77291916905e-07
1.48891945984e-06
8.7670679374e-06
7.84084502347e-06
7.21646907127e-07
6.15812842651e-07
5.03275344765e-06
7.87979738936e-06
4.93873197295e-07
1.37281803997e-06
5.20164087396e-07
8.38998115341e-07
6.87222112073e-07
6.12256610186e-07
2.41348719212e-06
3.20082122624e-06
5.61857417942e-06
4.36069279468e-06
1.81139045848e-06
2.53245781021e-06
1.52740952426e-06
1.58550832781e-07
4.3897879137e-07
1.89958568072e-07
9.57386227266e-07
1.29159316873e-05
8.11049309598e-06
2.06924995402e-07
5.26001504579e-08
6.71788819445e-07
3.55782145864e-06
2.56006556724e-05
3.0158977577e-06
2.90352782406e-06
1.9593218564e-06
2.27154453495e-06
1.41714904517e-05
3.7849462392e-07
1.73874349101e-06
1.68208476783e-06
1.178245982e-06
4.70077328284e-07
3.81891437474e-06
9.73100419044e-07
8.76433238932e-06
6.47914361152e-06
4.02459403632e-06
3.83096203709e-06
2.4623656949e-06
2.16179910361e-06
6.87933183206e-06
4.70013144672e-06
1.38505363754e-05
9.86461138844e-07
7.79822212168e-06
1.21659323539e-05
2.42442427296e-05
1.07404521193e-05
1.41768509542e-06
8.78207270081e-06
9.2683491219e-06
2.48075864098e-06
3.70735457515e-06
2.89907435931e-06
1.62598239855e-06
1.72841804922e-06
4.08537197549e-06
8.31808770797e-06
2.36121623765e-07
7.61329949891e-07
5.12090687661e-06
6.41217448266e-06
1.04938368822e-05
1.81025870266e-05
1.33107635679e-05
2.54193351664e-06
9.71122919609e-06
2.97931650501e-06
5.47833266969e-07
1.50710171579e-07
5.45112404184e-06
1.41794838084e-05
5.10644967739e-06
5.42393796307e-08
3.96578575217e-06
1.87708935222e-07
8.33506653489e-06
1.08047679719e-05
8.16366807895e-06
2.38510790276e-06
6.98358836515e-06
1.66849644141e-07
2.00950585087e-06
1.45696845045e-05
1.49266223849e-05
1.2370761844e-05
1.31981567922e-05
9.96884868457e-06
1.24739716427e-05
9.84334726998e-06
4.09808739169e-06
5.90838027932e-07
5.05308572859e-06
4.09189397831e-06
2.78251929553e-06
2.59916081914e-06
1.62711404653e-06
1.65247472791e-07
1.84584302959e-06
6.09944437379e-08
1.52298130462e-06
2.43602380921e-06
3.8333375809e-06
1.39892079366e-06
1.21888297057e-06
8.71820977155e-08
2.69665458098e-07
1.38838816905e-06
3.71723263056e-07
1.20351738379e-06
2.72545180742e-06
3.62907819492e-07
1.0539892391e-05
1.21683017158e-05
3.67903807008e-07
2.33957358676e-07
8.89784548174e-08
1.19382436887e-07
2.48197394015e-06
2.51532595986e-06
2.79413824534e-08
9.58940749964e-08
2.79148829512e-06
1.62849195152e-06
1.74396633915e-06
1.77054534667e-06
2.29249191537e-06
2.86102288417e-06
5.23890757012e-06
2.96657728349e-06
3.28186374604e-07
2.54106048276e-07
3.2752722596e-07
8.48120161311e-07
3.86312534656e-07
1.1157164333e-06
1.44107436984e-07
8.9306538419e-07
3.28270900161e-07
1.78243165694e-06
1.00168061565e-06
2.28060402385e-06
1.82576483655e-06
7.91883537376e-06
2.61825630953e-06
1.11134298646e-06
1.26846806187e-06
4.25989695019e-07
2.28016836471e-05
1.45018727954e-06
1.08012521872e-06
9.47989229612e-07
1.09179228962e-06
1.935245478e-06
2.11018615101e-06
2.77301182227e-06
5.59435026414e-06
5.16800259025e-06
2.34585148221e-06
1.505929992e-06
1.00261697911e-06
3.81150915796e-07
4.38678501832e-07
4.78448815822e-09
5.85630402459e-07
8.01865389192e-07
1.62641816884e-05
1.04523615726e-06
1.17157629339e-06
1.28689706805e-06
9.79318437246e-07
6.2639346018e-07
1.76860543062e-07
5.66980300257e-07
3.1660532884e-07
1.16857817363e-08
9.77294636781e-06
2.81454290481e-08
9.13645956782e-06
3.30565041136e-05
1.72365904679e-06
1.64819317495e-06
2.38397901615e-07
2.08763040881e-07
5.19346048097e-07
2.19451163605e-07
3.87291386343e-07
1.28714247527e-07
3.84261704132e-07
9.4414157808e-08
5.86631975351e-07
2.52905759628e-07
2.75049887441e-07
7.51029129428e-08
4.96377569162e-09
4.29655436627e-06
6.85050397273e-07
2.659738717e-06
4.12864743378e-06
1.12579623327e-06
2.15374132842e-06
1.22395374417e-05
8.86513638398e-06
1.0869056936e-05
1.53708662471e-05
6.89575568738e-06
1.24286292215e-05
1.3618690706e-05
1.20284181015e-05
2.77506499221e-06
6.73809822904e-06
1.25427207517e-06
7.17609385733e-06
1.5797073445e-05
1.73371023409e-05
1.28972804346e-05
2.18173981386e-06
3.99855968218e-06
2.87450794067e-06
6.75520925605e-07
8.4743980835e-06
1.41291664063e-05
9.11702919058e-06
1.31980603685e-05
1.18292027634e-05
1.35181803562e-05
1.01534702784e-05
9.2288015637e-06
5.42781834354e-06
3.11762658514e-06
9.82841206344e-08
8.21063776732e-08
8.62821639191e-08
1.92057876448e-07
1.81162904389e-07
1.66176807234e-05
7.31861207725e-06
9.32652710683e-07
8.00592537251e-06
9.13819862721e-08
1.7699609943e-07
1.24290626328e-07
1.08932133225e-07
6.39132421676e-08
1.16635411355e-05
1.03277326715e-06
1.05158824834e-07
9.96728379302e-08
6.66342444103e-08
8.15176695539e-07
1.15384369853e-05
1.01241369626e-05
9.83837403361e-08
6.43090149482e-07
1.37206818484e-07
1.96713289754e-07
1.48889530756e-06
1.39819582277e-05
3.42721821867e-07
9.31055206571e-08
1.65367075024e-06
3.59772252775e-07
2.23454204222e-07
4.67201593949e-06
2.42938821514e-06
5.13123663609e-06
9.1111226347e-06
1.40422127377e-05
1.90723803189e-06
4.04131996882e-07
1.05662476373e-05
4.99235378451e-06
6.09530006891e-08
1.07346108011e-08
4.09659543787e-06
7.44891520926e-06
1.03444712687e-08
2.97404042387e-07
5.43440231225e-06
3.83819654158e-06
5.48944688145e-08
2.01961036856e-07
4.69483655347e-06
9.27680170715e-06
5.80326242172e-07
2.93622500349e-07
1.75924542348e-05

