# vtk DataFile Version 3.0
File Name: Molecule/sphere_excent/sphere_excent_0-s36.vtk
ASCII
DATASET UNSTRUCTURED_GRID
FIELD FieldData 1
TIME 1 1 double
0.0
POINTS 447 double
0.76360493898 -0.20687073469 0.61158257723
0.77257144451 0.2056966424 0.60042464733
0.60792195797 0.0090707428753 0.79387420416
0.68900376558 -0.22061419487 -0.69016551971
0.75823491812 -0.10950264335 -0.64275306463
0.76180237532 -0.26413115859 -0.5914362669
-0.23793438077 0.34777995944 0.90677052736
-0.41869994998 0.21675392985 0.88185280561
-0.22381344438 0.12581640482 0.96646106243
-0.31686422229 -0.67925494909 0.66175574064
-0.51123356819 -0.38913953304 0.76602500677
-0.57141083479 -0.56753903627 0.59262192249
-0.77902817726 -0.26636555791 0.56739830971
-0.63365906477 -0.11438159645 0.7649923563
0.92608225346 0.18221865594 0.33028119802
0.84210973978 0.37986814976 0.38270384073
0.68472254276 0.47758612037 0.55042469501
0.57381367683 0.30149579048 0.761315763
0.98312050104 0.12087509781 -0.13706673682
0.98607033491 0.14450852573 0.082333005965
0.99696719646 -0.076752461493 0.012966569513
-0.016185751185 0.45358434319 0.89096593857
-0.29447799921 0.62533992529 0.72251242399
-0.022466517985 0.22036927938 0.97515439987
0.19254224002 0.28064402938 0.94022643566
0.18067625165 0.042790442705 0.98214167356
-0.41505670547 -0.80867743492 0.41659903526
-0.81765842438 -0.55005127192 0.16957162321
-0.7706079483 -0.63585209846 0.04193469882
-0.62648689747 -0.75087314844 0.2086340189
0.6273240447 -0.75840318203 -0.17685054243
0.76626908779 -0.64199179411 -0.022961363196
0.52681678534 -0.8489009738 0.038358479738
0.6792293787 -0.71077352762 0.18236011267
0.86860901117 -0.47910219431 0.12558212876
0.40739393234 -0.83117175102 0.37468346953
0.89549255371 -0.44209030271 -0.051061272621
0.83926832676 -0.51191419363 -0.18274901807
-0.96209979057 -0.25432085991 0.098081350327
-0.90351444483 -0.39913868904 0.15599015355
-0.92125916481 -0.242962569 0.30357086658
-0.84302127361 -0.43072026968 0.32176581025
-0.81588983536 -0.57067745924 -0.092785514891
-0.8632170558 -0.50373494625 0.032307289541
0.040618557483 -0.82603418827 0.55955046415
-0.025326088071 -0.64498633146 0.76369976997
0.28889936209 -0.27704355121 0.91616028547
0.52620714903 -0.29637625813 0.79698842764
0.39585822821 -0.077362008393 0.91507089138
0.5770176053 -0.52619296312 0.62232458591
-0.22356696427 -0.49321135879 0.84067088366
-0.0024053333327 -0.45446300507 0.89043653011
-0.16361476481 -0.29229640961 0.94217717648
0.40358895063 0.15480796993 0.90174722672
0.0078107593581 0.89985924959 -0.43597990274
0.095770694315 0.96571034193 -0.24120678008
0.21467244625 0.87221199274 -0.43945869803
0.36435237527 0.88363587856 -0.29393282533
0.2827129662 0.95153105259 -0.120642066
0.39713689685 0.78463536501 -0.47581496835
0.53610873222 0.77488911152 -0.33450007439
0.51580995321 0.67622607946 -0.5257461071
0.23716452718 0.74066478014 -0.62863051891
0.40161243081 0.66336011887 -0.63083362579
-0.97682189941 -0.081104338169 0.1980676651
-0.90974748135 -0.040554523468 0.41215249896
-0.95962512493 -0.26755693555 -0.086779162288
-0.92641741037 -0.37643036246 -0.0044222697616
-0.914067626 -0.36964794993 -0.16682781279
-0.92719012499 -0.26734906435 -0.26230120659
-0.83714133501 0.49013486505 -0.24241298437
-0.90877056122 0.40433990955 -0.10151835531
-0.76625913382 0.63449120522 -0.10043737292
-0.97377955914 0.17070443928 0.14918754995
-0.99892574549 -0.0014306714293 0.04519860819
-0.98934990168 -0.14485730231 -0.0070843202993
-0.99496155977 -0.041051261127 -0.09136299789
-0.97321784496 -0.16427403688 -0.1606670469
-0.98319172859 0.04552109912 -0.17647892237
-0.99256330729 0.1105376929 -0.051070328802
-0.43784677982 -0.54833704233 -0.71240788698
-0.33962905407 -0.72082650661 -0.60387694836
-0.55426263809 -0.60407531261 -0.57247436047
-0.20055924356 -0.59325039387 -0.77950632572
-0.70747220516 -0.49034523964 -0.50895988941
-0.74997866154 -0.55944383144 -0.35291621089
-0.80835467577 -0.43463405967 -0.39701735973
-0.64696788788 -0.62233042717 -0.44054836035
-0.65054249763 -0.69257849455 -0.31138002872
-0.76357859373 -0.60829013586 -0.21647208929
-0.69011008739 -0.7007394433 -0.1806628257
-0.83851420879 -0.49107778072 -0.23598212004
-0.50631976128 -0.74207490683 -0.43929854035
-0.51670944691 -0.80949193239 -0.27869442105
-0.37484586239 -0.87578672171 -0.30365487933
-0.73240852356 -0.67657989264 -0.076094426215
-0.79907542467 0.37129467726 0.47235545516
-0.59541499615 0.52574849129 0.60735374689
-0.71816813946 0.6297736764 0.29409119487
-0.53660529852 0.72597843409 0.42915982008
-0.77847957611 0.06743721664 0.6240003109
0.56410521269 0.80732882023 -0.17274992168
0.69792479277 0.68059068918 -0.22290804982
0.6629806757 0.74820125103 -0.0248835776
0.84763044119 0.49223333597 -0.19780598581
0.78531038761 0.6149982214 -0.070757269859
0.63658893108 0.65282386541 -0.41043117642
0.75955528021 0.54938113689 -0.34821119905
-0.58892446756 0.099673189223 0.80199426413
-0.64748954773 0.29685810208 0.70189267397
-0.45035889745 0.41726824641 0.78930425644
-0.40750789642 0.0048314686865 0.9131590724
-0.60974496603 -0.44095432758 -0.6579464674
-0.49909693003 -0.34441328049 -0.79517430067
0.66849660873 0.71844470501 0.19200885296
0.53982669115 0.8366342783 0.092540696263
-0.83667761087 0.54230797291 0.076533563435
-0.92258542776 0.36455613375 0.12557594478
-0.96624010801 0.25751614571 -0.0091973952949
-0.9630061388 0.20275464654 -0.1770119369
-0.84650814533 0.29283872247 -0.44458970428
-0.90091961622 0.32996356487 -0.28172051907
-0.79427874088 0.46833446622 -0.38668569922
-0.92110437155 0.18222986162 -0.3439271152
0.47287854552 0.48652723432 -0.73450225592
0.51104897261 0.37869265676 -0.77131575346
0.39508754015 0.39084100723 -0.83138006926
0.37121981382 0.24815934896 -0.89460414648
0.48640322685 0.26629269123 -0.83214539289
0.43032339215 0.1442643553 -0.89108294249
0.51781129837 0.1451099813 -0.84308409691
0.47205916047 -0.034941546619 -0.88083434105
0.71390509605 0.15034875274 -0.68390268087
0.74026250839 0.25112682581 -0.62330538034
0.77369791269 0.1187325865 -0.622389853
0.81446069479 0.0059226546437 -0.58019012213
0.72742712498 0.022456413135 -0.68582183123
0.86031663418 -0.11748354882 -0.49600499868
0.89021807909 0.076364085078 -0.44903239608
0.64609479904 -0.071224078536 -0.75982153416
0.63601589203 0.024332981557 -0.77121901512
0.30956655741 0.10525490344 -0.94507217407
0.18186636269 0.22838309407 -0.95646548271
0.13254217803 0.13519175351 -0.98188626766
0.9324169755 0.3146879971 0.17771543562
0.94638633728 0.32013595104 -0.043138820678
0.89857876301 0.4317125082 0.078459121287
0.85654950142 0.47186052799 0.20889644325
0.77466201782 0.54656308889 0.31804841757
0.84863704443 0.40636309981 -0.33868137002
0.92544215918 0.29932552576 -0.2322936058
-0.038264401257 0.017321377993 0.99910676479
-0.017094712704 -0.17777080834 0.98361265659
-0.18491345644 -0.077920824289 0.97963047028
0.75332099199 0.65440911055 0.064761668444
0.28125029802 -0.04269008711 -0.95814174414
0.45114424825 0.5551238656 0.698800385
0.21415089071 0.70358896255 0.67755866051
0.20616889 0.52395409346 0.82642567158
-0.0028459085152 0.66232442856 0.74921506643
-0.054325148463 0.83917671442 0.5406550169
0.37644320726 0.74812358618 0.54605460167
0.94122606516 -0.0084236478433 -0.3376570344
0.88525366783 0.25543758273 -0.38878196478
0.9366620779 0.15279391408 -0.31517207623
-0.67248123884 -0.168488428 -0.72032779455
-0.8110049963 -0.15881231427 -0.56308615208
-0.8032784462 0.0052240518853 -0.59547823668
-0.39965099096 -0.12352731824 -0.90826487541
-0.52622586489 -0.15383900702 -0.83606553078
-0.44106912613 3.5905104596e-05 -0.8974364996
-0.57860964537 -0.0016713100486 -0.81558835506
-0.26861056685 0.040710035712 -0.96236938238
-0.36824947596 0.11567468941 -0.92246949673
-0.49697887897 0.15192297101 -0.85435378551
-0.56324249506 0.27749717236 -0.77828091383
-0.62919688225 0.13486625254 -0.76543194056
-0.6468693018 -0.30863556266 -0.69607818127
-0.92132902145 -0.081472679973 -0.38014954329
-0.88331997395 -0.18992595375 -0.42850029469
-0.94632852077 -0.14248780906 -0.29012039304
-0.78978180885 -0.32284542918 -0.52088212967
-0.87471956015 -0.052700378001 -0.48173776269
-0.88087755442 0.096378147602 -0.46330410242
-0.92529076338 0.030429337174 -0.37795779109
-0.95557463169 -0.025082610548 -0.29359605908
-0.97651427984 -0.067661620677 -0.20445996523
-0.95675617456 0.085819490254 -0.27777028084
0.50207555294 -0.23955371976 -0.8299716115
0.34306696057 -0.19300290942 -0.91929751635
0.6408880353 -0.35148331523 -0.68238568306
0.50633955002 -0.40268683434 -0.7625181675
0.60531765223 -0.24288846552 -0.75726610422
0.57735139132 -0.48105531931 -0.65956217051
0.35059854388 -0.38640755415 -0.85287338495
0.70503431559 -0.43279975653 -0.56175172329
0.82975333929 -0.32429853082 -0.45416802168
0.1994368881 -0.59871679544 -0.77576684952
0.36940816045 -0.55949491262 -0.7417575717
0.97217667103 -0.017613502219 0.23367537558
0.95259559155 -0.23726661503 0.19039703906
0.89213579893 0.0077448859811 0.45162987709
0.91499364376 -0.16946411133 0.36598140001
-0.86372494698 -0.31858062744 -0.39050745964
-0.87883257866 -0.37882843614 -0.29006755352
0.74534112215 -0.51466459036 -0.42330262065
0.86877244711 -0.36825105548 0.33085253835
0.27065306902 -0.75418692827 -0.59817576408
0.32910513878 -0.86984956264 -0.36586403847
0.04594540596 -0.85955452919 -0.50864070654
0.95571982861 -0.29369089007 0.017947459593
0.95847600698 -0.24064333737 -0.15290443599
0.44950503111 -0.71833729744 -0.53012216091
0.77543449402 0.4363732338 -0.45635864139
0.69747495651 0.53345990181 -0.47841528058
0.37314197421 0.37254530191 0.849650383
0.55162811279 -0.74549943209 -0.37338966131
0.43979266286 -0.88338720798 -0.1616525799
0.64833331108 -0.5966501236 -0.47232332826
0.68672794104 -0.64874136448 -0.32779034972
-0.65954762697 -0.75066328049 0.038043636829
-0.497543782 -0.86699515581 0.026092598215
-0.62944287062 -0.77225095034 -0.085787467659
-0.60795521736 -0.76829612255 -0.20026087761
[...]
CELL_DATA 890
SCALARS cell_data_0 double
LOOKUP_TABLE default
1.84210326602e-05
1.10491524854e-06
1.29461426167e-05
1.67256551003e-05
1.57878320878e-05
6.16362930958e-06
7.54992175525e-06
8.52387520013e-06
3.48767749512e-05
3.31270468039e-05
1.59487234878e-05
1.57461931518e-05
4.07064639397e-05
1.47290325409e-05
4.16855556283e-05
4.98062997866e-06
3.14895060245e-05
2.33339628737e-05
7.48031972669e-06
5.0002486083e-06
1.6756499639e-05
2.4354298768e-06
1.67441000611e-05
8.38816275315e-07
9.0646930039e-05
1.43055593118e-05
1.61355949109e-05
1.88990924057e-05
1.72521437203e-05
9.61377052881e-06
1.66710123266e-05
1.4371582587e-05
3.16469638829e-05
3.72303834514e-05
9.09319729277e-06
1.47573099866e-06
1.86852380474e-05
9.23648179376e-07
6.80180690492e-07
4.91480420428e-07
8.95378177011e-07
1.05732258736e-05
3.03880742477e-06
2.25092288161e-06
6.34993117028e-06
4.05369890144e-06
5.0620533108e-06
1.02342992925e-06
5.3882969148e-07
4.99154007457e-07
1.48660641363e-06
1.3787140239e-06
6.95809713472e-07
1.59677749948e-06
1.0173854606e-06
7.00621180234e-07
5.98287895516e-07
5.80039234551e-07
1.36336769644e-05
6.2539468526e-06
6.52682153857e-07
5.84818138188e-06
4.08540962742e-07
6.70125854418e-07
4.6739334653e-07
4.76459035329e-07
3.97003909469e-07
7.42644927444e-07
4.91996592274e-07
4.85860636577e-07
5.3925544252e-07
8.18063027872e-06
4.59384588225e-06
1.31705775555e-05
9.9675967143e-06
1.92242899064e-06
8.180250657e-07
3.05399828213e-05
2.35263395358e-05
1.78224931149e-05
1.1387500045e-05
1.11892307093e-05
1.23108401518e-05
9.56478128221e-06
9.60474901713e-06
8.386786142e-06
1.13294566458e-05
1.34192107247e-05
2.18552450488e-05
1.19976807276e-05
1.27011584875e-05
1.30948682452e-05
4.61065904588e-05
4.71032519467e-06
4.78743911843e-06
6.71667558522e-05
5.46812332713e-05
2.60873198914e-05
1.77802209521e-05
9.91274071046e-07
6.41155923177e-06
3.81820514557e-06
2.80455960397e-06
3.63466729147e-06
5.20583039671e-06
2.27704831879e-05
1.35611171905e-05
4.24129951408e-06
6.01289100068e-06
5.31523637326e-05
7.99405760485e-05
1.59182240006e-05
6.38396400281e-06
6.59646318944e-09
6.545759061e-06
8.33492571873e-06
1.8291127894e-05
9.60729753331e-08
1.98034729768e-07
6.57205565798e-07
9.58851057998e-08
1.75740719514e-05
1.84951491713e-05
5.71340113131e-08
8.24419739041e-07
9.140880448e-06
1.81011252158e-05
1.00983635691e-08
2.53706772645e-06
2.9899179686e-06
2.04696427184e-06
1.3516834339e-06
2.07932054187e-06
4.16853686232e-06
2.39928642848e-05
1.36268463776e-05
3.91078718179e-05
1.19782571976e-05
1.45800210553e-05
1.11936456678e-05
1.19707212998e-05
9.00952757061e-06
9.99427057124e-06
1.14862666178e-05
1.0419968088e-06
4.1678199468e-06
3.47308653481e-06
1.51186693357e-05
1.73641583269e-06
6.52702658272e-06
9.11481494692e-06
1.16738081617e-05
1.16289030181e-05
1.99905265703e-05
1.42404393011e-05
2.59269645371e-05
2.10010991133e-05
7.32960202553e-08
5.04658016775e-07
3.32285069885e-07
1.21949744047e-05
1.16391513582e-06
7.40179515964e-08
1.35021073414e-05
2.78497265019e-07
5.03111793864e-08
1.36925755234e-05
6.8486891927e-08
1.77077130874e-05
7.97653545714e-08
2.30105703653e-05
1.36314029988e-06
1.50946080184e-05
3.68129989411e-07
3.83595072896e-07
2.94847949823e-07
2.02504280167e-07
1.95028534526e-07
1.22365586307e-07
1.12939968513e-07
1.46400797765e-07
1.79336824876e-08
1.05424789036e-06
1.56360807786e-06
6.54035778621e-07
9.72949456789e-07
2.74997911891e-07
5.8700839654e-07
6.19623399794e-07
3.1456225129e-07
2.15428610597e-07
5.04660120749e-07
4.71309836122e-08
4.93920991911e-07
5.83922271903e-07
2.46125174642e-07
5.5558186953e-08
2.00340957866e-05
9.54604084772e-07
1.34597820259e-06
1.95399885329e-06
5.90974922442e-08
2.08093732567e-08
2.7637230885e-06
2.99302136705e-07
1.73727360468e-06
2.91966346744e-05
2.35069235023e-05
4.11425241174e-06
3.13208947389e-06
3.55368192552e-06
5.83611479198e-06
1.13758199839e-05
6.1356984355e-06
3.12833177389e-06
3.61158393973e-06
2.6139604899e-07
2.29163804477e-07
2.61984124922e-07
1.97499014785e-07
9.01092313552e-06
5.91692577043e-06
2.68415240259e-07
2.92110386002e-07
3.76728239981e-07
9.27734770842e-06
3.42880940174e-07
2.20471037875e-07
2.95830638252e-05
1.62317098974e-05
1.78025099189e-06
2.33536449236e-05
2.8362607548e-05
2.72386757967e-05
1.72134061279e-05
1.83803749612e-06
2.71982976822e-06
1.22765131836e-06
4.72209208461e-07
1.2225485399e-05
9.55913177566e-06
1.80305926866e-05
1.26453169591e-05
2.35273766867e-05
2.81515373215e-06
3.74303035116e-07
2.79869919214e-06
1.20070264332e-06
1.52675769331e-06
7.1427232807e-07
6.68590510035e-07
4.42988117824e-07
9.71147678822e-07
1.27852112568e-05
4.33496064411e-06
2.06477551127e-06
2.84844049119e-06
8.33336416555e-07
4.35404429157e-07
6.07925794855e-07
1.16807888083e-05
3.63394526369e-05
5.3884309088e-07
3.63016937499e-07
3.61895918883e-07
4.76386972398e-07
5.26341284849e-07
7.63474549369e-07
6.13457963325e-07
1.33507501595e-07
6.37267016873e-07
3.68370520926e-08
1.043137486e-07
7.90174863278e-08
1.20659065346e-05
1.20147295241e-05
2.26942269128e-07
2.0403571541e-07
2.04915825708e-06
2.61693708501e-06
2.36071464927e-06
2.42656695846e-06
3.14744243607e-05
1.66370346776e-05
6.32746368808e-07
1.26870926679e-05
1.03607883188e-05
2.53479499361e-05
3.037003755e-05
1.52428243901e-07
1.53040934893e-07
1.31002989362e-07
7.89340772454e-08
5.51572098747e-07
1.5074083966e-07
2.06152988896e-07
3.76358562616e-07
6.56342078009e-07
1.21265291053e-05
7.3697801923e-08
9.65834452947e-06
2.7297877259e-07
2.55278690801e-07
2.00085823351e-06
4.81982408936e-08
7.34225289715e-06
9.95013389656e-06
2.54098584922e-06
1.70165495223e-06
1.67626799257e-06
3.58673407157e-06
1.30893332361e-05
3.03507700306e-05
3.19128403355e-06
3.10846537747e-06
6.45179423978e-06
1.89296361112e-06
2.23479398461e-06
4.51270720602e-07
5.87471009988e-07
1.49362121283e-05
1.88768210668e-05
7.91497609352e-06
6.27138567386e-07
6.69663032278e-06
6.24571109368e-06
3.93616446957e-07
4.87559211266e-07
2.15549371986e-07
2.0787291599e-07
2.1261054634e-06
3.47011337593e-06
1.01814115123e-05
7.66938521575e-06
3.33246418989e-08
1.47017905342e-07
8.12715628464e-08
2.12026115145e-07
7.04526781514e-06
2.50374063749e-07
6.65418555185e-09
3.00876771911e-07
4.29102326209e-07
3.4459757562e-07
5.71360360929e-09
2.98623640384e-07
5.0899735852e-08
1.00943502472e-05
6.90301458561e-06
5.20602220379e-06
2.71493560479e-06
2.89889972649e-06
2.81394884584e-06
5.46197025587e-06
5.13940254956e-07
4.82134892181e-07
6.58678658531e-07
7.46115065475e-07
2.13319535122e-06
6.39981175371e-07
9.59322993678e-06
2.35396432503e-06
7.2071284085e-07
2.57963131312e-06
2.6315550976e-07
1.45583647792e-06
1.01490570595e-06
1.29759697492e-06
1.70382731796e-06
2.37871632274e-07
1.97325427698e-06
1.19116155439e-06
2.68564265968e-07
2.62569492471e-06
2.89063169556e-06
3.08760102801e-07
2.09981502134e-08
3.87541428758e-06
4.24371755834e-06
2.98250046072e-06
2.14546145826e-06
2.87148961583e-07
2.27756751789e-07
2.3414293517e-07
9.80645859707e-08
1.66797906861e-06
7.13544610097e-07
3.15218507081e-06
2.51384921592e-06
1.31789331004e-06
5.0520469773e-08
5.39328838756e-07
2.47132667545e-07
1.25553834997e-06
6.92773754143e-06
6.64364237103e-06
3.42774586941e-07
4.79634636202e-07
8.15789380307e-08
1.59262872984e-07
1.01649569052e-07
2.73816552983e-07
7.58571989932e-07
1.39055331109e-07
7.09674248852e-08
5.62180651853e-07
2.71710277328e-07
6.65337215175e-08
8.35823993852e-08
1.82860943488e-07
1.76318657496e-06
4.53001948146e-07
2.05271826404e-09
2.72717136141e-07
1.01214332866e-05
1.77083796788e-07
9.55358701532e-07
1.59232567139e-05
3.11156804485e-06
4.45944873584e-06
2.3339173148e-06
2.17899805291e-06
3.7270047681e-06
2.01745663597e-06
4.34295424598e-06
3.91260780871e-06
4.40101689392e-06
6.95551759261e-06
2.43783976429e-06
1.4932480696e-05
6.60390740561e-06
4.78789790817e-07
1.82361334724e-07
1.24417021071e-06
1.09176993761e-05
6.91045846402e-07
1.1854060716e-06
5.12275668594e-07
6.11480482184e-07
1.19344339886e-07
1.20816608002e-06
6.44001472588e-06
6.89176254937e-06
9.09707531937e-07
2.85446213148e-07
9.89764364967e-06
3.7379867161e-07
1.24847727292e-06
8.85224107263e-06
1.46282290649e-06
1.34405174637e-05
1.26039428095e-05
1.35425158289e-07
6.87600618102e-06
2.08798389635e-07
1.6939010372e-06
9.55531027876e-07
2.01039263158e-06
1.31111348703e-06
1.94421919068e-06
2.4901481284e-06
1.08277939796e-06
3.86309165756e-06
9.92652072127e-06
1.06313965173e-05
9.27069550011e-06
7.57620519826e-06
9.32701969258e-06
9.5606487958e-06
1.17907116661e-05
1.26099870288e-05
2.25595147419e-05
4.52798696441e-07
2.19945226835e-05
1.6950352712e-06
5.20795624374e-07
4.65428484058e-07
7.4302051566e-07
1.91406733758e-06
3.32739401102e-07
3.87557606811e-07
1.01435729279e-06
4.56380743029e-07
8.29594697911e-07
1.73759280105e-06
1.07738520109e-05
1.01204136257e-05
2.22393646479e-07
1.58808854371e-06
4.34251866143e-06
7.71828719041e-06
1.26568558213e-05
1.07079177709e-05
1.09031540001e-05
1.15648816215e-05
1.72703184899e-05
7.59128661883e-06
4.61812090826e-06
6.50902595831e-06
1.50210548152e-05
1.06223140844e-05
3.99878378021e-06
4.50971983279e-06
1.0616340669e-06
1.48616495609e-06
1.41233103239e-06
7.23989111266e-06
1.72006261512e-05
4.94904981952e-07
4.95406310433e-07
6.97183707257e-07
1.03479487214e-06
5.64765944944e-07
1.31518144972e-05
1.39010295999e-06
1.11211379104e-05
1.64590523027e-06
9.8599644319e-08
1.58466869079e-06
1.48190630929e-06
1.23728917312e-07
4.58209966189e-09
4.668639703e-07
7.38107600423e-08
7.30187112804e-07
7.72145500808e-07
8.04768299473e-09
6.55078565742e-07
7.03753781924e-07
4.60237206939e-06
3.78047708085e-06
2.40608624638e-06
2.60537285925e-05
3.95866649218e-05
2.30523889123e-06
1.22822263508e-06
1.84562231966e-05
9.7944539693e-07
1.01746785837e-06
4.67004339509e-07
1.38585842916e-06
1.43300569719e-06
2.77751831439e-06
3.1057657145e-06
9.10896758359e-07
2.51834833525e-07
1.02128103031e-06
8.02194958373e-07
3.02510499416e-07
5.55569920954e-07
6.42944365779e-06
3.80653912746e-06
1.73127359056e-06
2.22249741012e-06
2.05123138639e-06
2.33026278628e-06
1.00502274125e-06
5.23194910647e-06
6.95873095039e-08
2.68216579765e-07
2.63678615643e-08
1.60385438295e-07
1.71659748959e-06
4.88880301357e-08
4.52205978337e-08
1.80097157557e-07
2.44695310516e-06
4.9321889405e-06
2.28650344789e-06
1.58515232557e-07
1.60320364193e-06
1.27889417724e-06
8.71956329523e-08
2.60452349507e-07
3.8141798168e-06
1.40122376996e-06
4.50596890915e-06
5.36843759446e-07
6.76065945511e-06
4.38570562445e-06
3.06384784575e-06
1.83261651014e-06
3.34505863547e-06
2.84161322404e-06
1.10303638057e-06
3.43329525111e-06
2.67112008986e-06
3.31347965379e-06
1.36845140994e-06
1.09754526005e-06
5.73882784553e-06
9.61263407355e-06
1.99049097896e-06
2.22331231758e-06
1.00736484801e-06
4.87224786079e-06
1.24457869188e-06
5.2121884815e-06
1.98432989202e-08
1.03225069418e-09
1.69346282819e-07
1.369257815e-07
1.21893558363e-08
4.1469756505e-07
5.02697662514e-08
4.76512541022e-07
7.48562568604e-08
2.24532853751e-07
2.92136509519e-06
1.7256044372e-06
1.77261993953e-06
1.89040370843e-06
2.13952758358e-06
2.4554463409e-06
1.00974681882e-06
7.53286719128e-07
1.4382355163e-06
2.51427343711e-06
2.84188344367e-06
1.50252245758e-06
1.52639425733e-06
1.17797226812e-06
1.01204388548e-06
1.29613791275e-06
6.93659175832e-08
1.46447244632e-07
2.6094384e-06
1.16521645379e-06
2.40195706067e-06
5.40909991773e-07
1.00985408249e-06
1.14072447858e-06
3.44282307105e-06
1.93348078681e-07
1.10745748213e-06
4.01959882429e-07
3.76980977488e-07
8.84724999199e-08
1.3440369719e-06
1.8378646396e-06
2.22515586229e-06
8.64746925287e-07
1.14577398265e-06
5.1272997812e-06
2.56960933266e-06
1.73760244319e-06
5.55600841455e-06
4.42498976183e-07
1.34799664026e-06
1.35942187792e-06
2.82480765985e-05
2.6377153404e-05
2.34865460985e-06
4.27385398524e-06
1.24760959867e-05
8.98345583797e-06
8.02770827801e-07
3.58058583137e-09
3.899981559e-08
2.82307243431e-08
2.55475872972e-08
4.59893579605e-08
5.21834269954e-08
4.34062430461e-08
1.01392922588e-07
3.43956563904e-08
1.59274205358e-07
1.78901085367e-07
3.32750512971e-07
4.19767249183e-07
1.01834770147e-07
3.73264693045e-07
1.65171601534e-07
2.26119100172e-07
9.53352139223e-07
6.00055893665e-07
2.71947439138e-08
7.41206473261e-07
5.0327710287e-08
5.55359242246e-07
7.55410855422e-07
2.73460918286e-07
1.67648739191e-07
2.13444534286e-07
2.55826489418e-05
6.91479325908e-06
1.18708445139e-05
9.85743831196e-06
1.72943122261e-05
1.32515621114e-05
1.57406221327e-05
1.41004708468e-05
1.27201723877e-05
7.13998315727e-06
1.14232390897e-05
1.3225134352e-05
1.57254184695e-05
1.55112716974e-05
1.11182156224e-05
7.24817444893e-06
7.60282243742e-06
4.12605901527e-06
1.76308807572e-07
7.26553241781e-06
7.83168927081e-06
2.4486428025e-05
2.23906341768e-05
2.03432169564e-05
3.1218522627e-05
3.54092864796e-05
2.09206134877e-05
2.5020500184e-05
1.42837634719e-05
1.71221653347e-05
8.00315399515e-06
1.27299090923e-05
4.80685220545e-06
3.74803518072e-06
1.50003527285e-05
1.81440663922e-05
6.19188143855e-06
6.39816626613e-06
2.99294035755e-06
2.83490358788e-06
1.62554257697e-06
1.17427616636e-06
1.85311778495e-06
9.35554496801e-08
8.89773337802e-08
4.75461007375e-08
1.0010041837e-07
1.04179885031e-07
9.87005452066e-08
1.39079531004e-07
1.76521025245e-07
8.72733503513e-08
8.00479875616e-08
2.96004097714e-08
1.63783772341e-07
7.80561352067e-08
9.50443279462e-07
1.52976448235e-07
6.78683608946e-07
1.35104856824e-06
4.57780891509e-07
4.83010691924e-07
3.05551357296e-07
4.57890948589e-07
3.50459555541e-07
1.80023131029e-07
6.72672839091e-07
8.39002850888e-07
7.35603591742e-07
6.74740845849e-07
1.51709818119e-07
1.78239366635e-07
3.83505912216e-07
3.54899882463e-07
1.80286763537e-06
1.90338180372e-06
2.77723951959e-07
4.36991125881e-07
3.42887262889e-07
1.26677668271e-07
1.70642265536e-07
8.44429679882e-08
8.57304639825e-08
2.71348966193e-08
1.71713455405e-07
1.17689053756e-07
1.24793849689e-06
2.88025641281e-08
2.82754936335e-05
1.13114098164e-07
4.94719301532e-08
2.27803729389e-07
1.52581239992e-05
9.00137028513e-08
6.87439201619e-06
3.53165974648e-05
1.97825595673e-06
1.84720996625e-06
2.76129488859e-08
2.46101240021e-08
1.67247943008e-09
2.53709794765e-09
1.07626760145e-08
2.97356224126e-08
3.82929839504e-08
5.09169428436e-09
2.07510194514e-08
4.93334905302e-08
3.85065137855e-08
6.55909411587e-08
4.25157832209e-08
4.78890688438e-08
1.70342681423e-08
6.72522245575e-07
6.54977282564e-07
4.65835839922e-08
6.4034274561e-09
5.08136593395e-08
8.97137661093e-06
1.05585158079e-05
7.57302148986e-07
6.0727441086e-07
2.41163435818e-08
5.7514564734e-08
7.98413699702e-08
4.18091107464e-06
7.0067396688e-06
3.83253002952e-07
1.11696785624e-06
7.06090434391e-08
8.00154095209e-08
6.06967335214e-08
1.13634315898e-07
9.56731141837e-08
6.09310594029e-08
2.77007222413e-09
2.68180322098e-08
8.73869127619e-08
7.13889540272e-08
2.17960030509e-08
4.63774768045e-08
3.97058843573e-08
8.25095133299e-10
5.03301917117e-08
3.87914960302e-08
1.89792842133e-07
5.48331423191e-09
6.1303601574e-08
1.62518863043e-08
5.77655031942e-08
1.10042866592e-06
3.81609782977e-08
1.59735145787e-08
1.19977683686e-07
7.16589586848e-07
9.34079406393e-08
5.51804707754e-08
7.69638403677e-08
9.48379969592e-08
4.95608505191e-08
2.00189576812e-07
4.91382665031e-06
1.5307656562e-07
1.61218754357e-06
5.11003169875e-08
1.00629186405e-06
6.44910278141e-08
6.14033041728e-08
1.31785773682e-06
6.64142056861e-08
4.8077867696e-09
3.88748442157e-08
5.02021042748e-08
7.81819057615e-08
8.05848660919e-08
4.42395507064e-08
5.03002601294e-08
1.91906573788e-08
5.04139287489e-06
4.28157873797e-06
2.84210126484e-06
3.12381537412e-06
3.09887342631e-06
3.86986893997e-06
3.91120631504e-06
5.00903808468e-06
7.49211293701e-06
1.58617398844e-05
1.5541583952e-06
1.9564124916e-05
5.07399324594e-06
3.65658896441e-06
2.42727591048e-06
1.42009253631e-06
1.13788730486e-06
3.69066001342e-07
7.04624963674e-07
6.43094463491e-07
1.03373798261e-06
2.01668692208e-07
7.16312605622e-07
9.28731163746e-07
1.04190383436e-06
6.16674811749e-07
4.33528198486e-06
3.5072553944e-06

