# vtk DataFile Version 3.0
File Name: Molecule/sphere_excent/sphere_excent_0-s26.vtk
ASCII
DATASET UNSTRUCTURED_GRID
FIELD FieldData 1
TIME 1 1 double
0.0
POINTS 285 double
-0.028590265661 0.86765998602 0.49576115608
-0.54487788677 0.73624831438 0.40063431859
-0.29437458515 0.60827773809 0.73660200834
-0.82798802853 0.55615258217 0.071759276092
-0.835488379 0.33807614446 0.43277734518
0.32115447521 -0.59876322746 0.73363953829
0.0078096580692 -0.85960561037 0.51085412502
0.40561392903 -0.83726656437 0.36661821604
0.17504361272 -0.59585082531 -0.78293281794
-0.008143777959 -0.86221086979 -0.50621795654
-0.18581619859 -0.5583794117 -0.80699568987
0.77992922068 -0.20489151776 0.59114772081
0.76365125179 0.24391710758 0.59771567583
0.58944010735 0.025758268312 0.80675578117
-0.33892467618 -0.89391601086 -0.29301476479
0.011732497253 -0.99982053041 0.013391559944
-0.50034254789 -0.86426383257 0.04148606956
-0.38933375478 -0.84395468235 0.36898601055
-0.33634755015 -0.65378642082 0.67774409056
-0.97194254398 0.16395479441 0.16723094881
0.38925784826 -0.85755956173 -0.33555054665
0.53719842434 -0.84315407276 0.014785311185
-0.032690625638 0.99857032299 -0.0024379976094
-0.27894407511 0.94179528952 0.18686978519
0.089797347784 0.98126548529 0.16187940538
-0.26647508144 0.94485706091 -0.18994019926
-0.55077040195 0.83436268568 0.025436220691
-0.61836010218 0.73478794098 -0.27745005488
-0.033086806536 0.88585370779 -0.46111649275
0.10368841887 0.96384143829 -0.24523116648
0.50453740358 0.85787343979 0.097538672388
0.28778451681 0.92494398355 0.24474963546
0.56716507673 0.75757998228 0.3192320466
0.41631430387 0.79541903734 0.43935286999
0.49362015724 -0.040862731636 -0.8686439991
0.37468886375 -0.29609885812 -0.87828993797
0.25440248847 -0.052018184215 -0.9654827714
0.10070136189 -0.3100015223 -0.94507092237
0.016403596848 0.012639110908 -0.99920254946
0.46380928159 0.48223474622 -0.74304509163
0.59861159325 0.46628457308 -0.65130031109
0.54412454367 0.35926651955 -0.75815111399
0.68106406927 -0.20152896643 -0.7039449811
0.75927275419 -0.085865199566 -0.64498710632
0.76246017218 -0.26311033964 -0.59102290869
-0.22276946902 0.32518410683 0.91888302565
-0.41050499678 0.2222481221 0.88414257765
-0.20121739805 0.1111459434 0.97287690639
-0.61561983824 -0.082727208734 0.78324204683
-0.49382719398 -0.34207302332 0.79932004213
-0.38104885817 -0.027733843774 0.92377090454
-0.21759893 -0.26164159179 0.94014114141
-0.69771796465 0.20488265157 -0.68539834023
-0.58576989174 0.018567258492 -0.8095381856
-0.80266624689 0.035489663482 -0.59477436543
-0.68673163652 -0.16693006456 -0.70738518238
-0.73647642136 0.44687649608 -0.50712996721
-0.85173517466 0.2551894784 -0.45684280992
-0.62911462784 -0.5741469264 0.52393972874
-0.79084253311 -0.2535020113 0.55696678162
-0.1088411808 0.25759682059 -0.95907711983
0.1489456296 0.22377043962 -0.96315318346
-0.4661256969 -0.32713928819 -0.82100433111
-0.64510750771 -0.40907073021 -0.64520221949
0.92816877365 0.18430586159 0.3230805397
0.85055196285 0.39711302519 0.34438303113
0.6924521327 0.52748984098 0.49120149016
0.45770984888 0.53277808428 0.71097236872
-0.28410583735 0.8401170373 -0.46117934585
0.97898495197 0.11782250553 -0.16542850435
0.98377269506 0.16642290354 0.062805190682
0.99615299702 -0.081001162529 0.024073874578
-0.0054862434044 0.44369629025 0.89607912302
-0.012506755069 0.19968697429 0.97972983122
0.20438632369 0.23964133859 0.94892722368
0.13883595169 -0.0058050970547 0.99021297693
-0.82348066568 -0.5546746254 0.11945229769
-0.67643773556 -0.69592958689 0.24113401771
-0.8168836236 -0.48036366701 0.31935104728
0.89626163244 -0.44055256248 -0.049278438091
0.84632992744 -0.4802685976 -0.22791981697
0.94469171762 -0.26276409626 -0.19478885829
0.83476096392 -0.34883323312 -0.42565155029
-0.76597160101 -0.64216989279 0.024389436468
0.62236052752 -0.55157107115 0.55259412527
0.52062785625 -0.29807305336 0.80001932383
0.66428846121 -0.71894997358 -0.20233437419
0.77599042654 -0.63032585382 -0.021995984018
0.70437127352 -0.68130797148 0.19766123593
0.87582486868 -0.46428096294 0.13060645759
-0.96313506365 -0.26452291012 0.045426674187
-0.90548199415 -0.40825754404 0.11279331148
-0.92468500137 -0.26906022429 0.26886022091
-0.82989275455 -0.55169743299 -0.079236507416
-0.020359398797 -0.63148099184 0.77511352301
0.2482124418 -0.27129745483 0.92992782593
0.3556971252 -0.048905026168 0.93332093954
-0.21695077419 -0.47423666716 0.85322469473
0.0053735119291 -0.18865159154 0.98201388121
0.032896496356 -0.4171397686 0.90824478865
-0.8300331831 0.4927328229 -0.26096874475
-0.92821127176 -0.027646856382 0.37035396695
-0.77780973911 0.075308993459 0.6239027977
0.3726952374 0.88647699356 -0.27399599552
0.31924158335 0.94327169657 -0.087546102703
0.53076100349 0.83749949932 -0.12977489829
0.23450042307 0.86932021379 -0.43468180299
0.43006852269 0.76975625753 -0.47156041861
0.63696891069 0.64582300186 -0.42074739933
0.54724353552 0.77745240927 -0.30988308787
0.23053784668 0.74017471075 -0.63125348091
0.41239091754 0.63947230577 -0.64857405424
-0.98304444551 -0.10386842489 0.15050925314
-0.95978957415 -0.25693586469 -0.11237745732
-0.92416983843 -0.38093078136 -0.020954348147
-0.91717863083 -0.36875793338 -0.14835958183
-0.92982161045 -0.25914153457 -0.26132276654
-0.9224140048 0.35486710072 -0.15165503323
-0.99947088957 -0.024931831285 0.0105010923
-0.98771876097 -0.15102209151 -0.038915786892
-0.99128711224 -0.054246008396 -0.11973976344
-0.96968561411 -0.16223366559 -0.18239346147
-0.98044997454 0.025214394554 -0.19479867816
-0.99290645123 0.082256682217 -0.08423640579
-0.34792655706 -0.74534285069 -0.56866794825
-0.52310597897 -0.74064725637 -0.42184236646
-0.46273604035 -0.54561853409 -0.69830083847
-0.5794377923 -0.60049897432 -0.55081987381
-0.72733235359 -0.48435497284 -0.48610028625
-0.76266986132 -0.54803282022 -0.34351736307
-0.81997835636 -0.42081817985 -0.38783374429
-0.66468185186 -0.61621969938 -0.42244929075
-0.67172950506 -0.67807990313 -0.29820513725
-0.77508252859 -0.59649884701 -0.20830316842
-0.69899773598 -0.69254338741 -0.17831934988
-0.8458596468 -0.47571441531 -0.24064534903
-0.55426418781 -0.78439456224 -0.27806788683
-0.73708832264 -0.67025691271 -0.085923440754
-0.58905309439 0.5014667511 0.63356143236
0.69032132626 0.6872292161 -0.22606739402
0.68080234528 0.73207896948 -0.022548310459
0.83505773544 0.53061294556 -0.14513367414
0.76098954678 0.53878617287 -0.36095908284
-0.56742107868 0.11329199374 0.8154912591
-0.6441706419 0.28551244736 0.70950007439
-0.44220516086 0.41046014428 0.79752248526
-0.79094737768 -0.31957739592 -0.52166134119
0.67952460051 0.70644080639 0.19669754803
-0.97293376923 0.22657519579 -0.037104088813
-0.96726006269 0.16832445562 -0.19000543654
-0.9194765687 0.27589645982 -0.27991455793
-0.92895048857 0.14961521327 -0.3384513855
0.41175290942 0.37466305494 -0.8306043148
0.36814931035 0.25464642048 -0.8940936327
0.49843406677 0.25744146109 -0.8277939558
0.4576895535 0.14410112798 -0.87736147642
0.55617004633 0.14883802831 -0.81756043434
0.61889028549 0.23887859285 -0.74827545881
0.6407353878 0.080133020878 -0.76346057653
0.70086485147 0.1647529155 -0.69401192665
0.64344972372 0.34846326709 -0.68158692122
0.7208070159 0.26787671447 -0.63927918673
0.703297019 0.39950996637 -0.58799910545
0.77652931213 0.15561850369 -0.61052507162
0.80811405182 0.24025154114 -0.53764551878
0.86643093824 0.11545897275 -0.4854645133
0.80653017759 0.035539571196 -0.58993446827
0.72816568613 0.049774236977 -0.68345624208
0.85969883204 -0.098918236792 -0.50096106529
0.64935696125 -0.065716341138 -0.75760984421
0.34138989449 0.10583297163 -0.93392699957
0.55964750051 -0.22779037058 -0.79673552513
0.066605709493 0.47526136041 -0.87646913528
0.30014652014 0.53612214327 -0.7888635993
0.26235172153 0.38052636385 -0.88672977686
0.93174177408 0.32433617115 0.1629050523
0.93579500914 0.34836241603 -0.053111251444
0.87535786629 0.47445809841 0.092428579926
0.78569149971 0.61401307583 0.075251214206
0.78920179605 0.5599938035 0.2519299686
0.84586971998 0.39395129681 -0.3589861095
0.92443948984 0.28834494948 -0.24857233465
-0.039413623512 0.0068177226931 0.99917185307
-0.17017811537 -0.077486947179 0.98225206137
0.2281242013 0.70999056101 0.66615241766
0.20539316535 0.52036827803 0.82891476154
0.0085234008729 0.66429746151 0.7473962903
0.93578314781 0.0040446394123 -0.35252344608
0.87406945229 0.25248137116 -0.41496703029
0.92455708981 0.15340527892 -0.34842759371
-0.82184892893 -0.14761182666 -0.5501935482
-0.36369717121 -0.12612123787 -0.92238497734
-0.50428020954 -0.12738882005 -0.8539327383
-0.42095023394 0.011459986679 -0.90695351362
-0.24575714767 0.03296816349 -0.967923522
-0.35566046834 0.13733369112 -0.92414355278
-0.48511734605 0.15033808351 -0.8614025116
-0.56477016211 0.26572912931 -0.7812178731
-0.92160660028 -0.091074064374 -0.37726759911
-0.88556450605 -0.19129800797 -0.42333188653
-0.94408965111 -0.14505632222 -0.29606994987
-0.88038492203 -0.05551122129 -0.47095364332
-0.89134585857 0.076365090907 -0.44644793868
-0.92803615332 0.010454847477 -0.37221580744
-0.95314109325 -0.038279566914 -0.30001825094
-0.97245287895 -0.07487551868 -0.22068527341
-0.95709097385 0.061509497464 -0.28300824761
0.63634741306 -0.34996566176 -0.68741118908
0.51427137852 -0.39261513948 -0.76248782873
0.56044095755 -0.50957792997 -0.65280497074
0.70384883881 -0.43496572971 -0.56152677536
0.40349379182 -0.57340180874 -0.71297365427
0.9748262167 0.0010139481165 0.22262206674
0.9477840662 -0.26340138912 0.17906549573
0.8994396925 -0.0065112882294 0.43671181798
0.92405664921 -0.17567397654 0.33861964941
-0.87045109272 -0.31060957909 -0.38190090656
-0.88583320379 -0.36768195033 -0.28296548128
0.71139740944 -0.56675243378 -0.41373020411
0.86122691631 -0.39599519968 0.31635406613
0.52715951204 0.28019705415 0.80166405439
0.30735847354 -0.74900591373 -0.58681285381
0.95746546984 -0.28792625666 0.015637043864
0.48469609022 -0.6834692955 -0.54585659504
0.77595371008 0.41905722022 -0.47134372592
[...]
CELL_DATA 566
SCALARS cell_data_0 double
LOOKUP_TABLE default
2.64815837716e-05
1.42254514733e-05
2.36649671354e-05
1.09658243985e-05
2.54313889613e-05
3.80014276662e-06
4.06075167037e-06
1.62980156257e-05
1.92855534866e-05
9.30742380249e-06
4.51132976149e-06
1.21553524168e-05
1.47692454022e-05
3.52289516254e-06
1.27204796748e-05
4.34137345344e-06
5.33777965196e-06
3.93868056298e-06
7.28033276177e-06
1.46230306311e-05
8.42022279623e-06
4.93845712455e-06
9.19115722267e-05
6.83259101911e-05
3.94271577247e-06
3.17145516361e-07
1.09171151365e-06
2.33534817982e-06
6.16788893002e-06
5.85610907274e-06
8.83640768715e-07
1.86734057365e-05
2.83721825937e-05
2.41574384569e-05
0.000133420832676
7.90526498839e-05
2.95722844009e-05
1.83967120066e-05
2.2099512604e-05
4.50865263613e-06
3.30044174917e-06
6.49371722267e-06
5.73092752125e-06
1.35440790575e-05
1.38455250433e-05
9.64752583722e-06
3.26752472752e-05
2.89554422133e-05
2.08361759342e-05
2.04227039627e-05
5.81795894958e-05
0.000142807271478
6.89426273606e-05
5.38197173664e-05
1.73169940303e-05
6.32039628436e-06
8.18109911503e-05
0.000110778144371
1.59032779327e-05
5.19643465813e-05
4.38896668156e-06
1.78748018504e-05
2.07185440916e-05
6.91603517593e-05
8.198940187e-06
4.53963075337e-05
3.00209757604e-06
2.37959806019e-06
6.17614591705e-06
2.72813648047e-05
1.36037791058e-06
1.17659482388e-05
4.46372174553e-07
2.42103174821e-05
2.19237495359e-05
1.99174244254e-05
2.11385153976e-05
2.75130485858e-05
2.60118552384e-05
2.4341895455e-05
1.86936295032e-05
1.81271332859e-05
1.84418682649e-05
2.16011507484e-05
1.77984060633e-05
1.77308796711e-05
2.62561039353e-05
1.8169874691e-05
1.26961752845e-05
1.66827347664e-05
1.36431764038e-05
2.06230607878e-05
1.28010353901e-06
2.87412379438e-06
7.51084769469e-06
5.69776175141e-06
3.25897949177e-05
7.17369353082e-06
1.0433910628e-05
1.14531222923e-06
1.77426219959e-05
8.36456846888e-07
9.86267748297e-06
1.48962968892e-07
6.40904873694e-07
2.70646481548e-05
3.8535425243e-06
3.15761494117e-06
1.54192974426e-06
6.91820970839e-06
1.48596271732e-05
1.50888072299e-05
4.79639199738e-07
1.96131317312e-07
0.000109051931527
5.95688312819e-07
1.48271837118e-06
2.04296917474e-06
7.86855547837e-07
2.80630081023e-07
5.19890094606e-07
1.64087471418e-07
3.37081273402e-07
1.995029803e-07
7.5794044935e-08
2.11400441751e-07
4.84140757564e-07
8.31876500643e-06
3.31212119901e-07
6.0221774112e-06
1.5944094471e-05
3.33674843017e-07
4.90241613892e-06
1.38286537482e-07
1.20349397657e-07
1.6473793064e-07
6.9962713785e-06
2.13250068636e-07
4.57822922356e-07
1.49467530333e-07
6.33475368362e-08
2.09073197345e-07
8.17280828037e-06
9.0928232587e-06
8.99570027279e-06
8.14655225737e-06
9.33017758788e-06
4.51186361585e-05
9.15827158206e-07
8.21613482581e-06
7.09985904485e-06
9.45969356244e-06
1.17469154739e-05
1.17034172911e-05
1.02190198618e-05
7.0097508573e-06
1.01695481688e-05
1.34620575556e-05
1.25625711863e-05
2.27256629897e-05
1.78838771663e-05
1.53821826294e-05
1.79600493144e-05
1.00228577016e-05
4.9964293637e-06
2.40023012114e-05
2.25989305792e-06
4.36458438932e-06
1.53240547591e-06
7.68944359416e-07
9.09290831756e-07
4.36546912828e-07
9.77022907617e-05
8.50791007867e-06
6.57278752128e-07
4.91147684178e-07
4.92449073389e-07
5.66003743394e-07
6.184778054e-07
1.66010369406e-06
4.75586319983e-07
6.57154086439e-06
1.09402168429e-07
4.94751637615e-06
4.07917161846e-07
4.8677484765e-06
1.85966442834e-06
4.4849415611e-06
2.20675806455e-07
9.530001885e-08
2.83805770752e-08
5.17221370741e-08
1.23162102232e-06
1.39532987374e-06
4.03780913488e-08
1.06171531646e-07
6.78008420628e-08
8.63684370053e-08
4.07203190151e-08
1.38059775029e-06
5.48819775991e-08
7.48639385671e-06
4.64439535303e-06
6.55890189152e-08
1.18055818805e-07
4.21755792258e-07
5.51314957436e-07
1.15349338167e-07
5.77318038221e-07
1.13386474457e-07
7.5735690031e-07
6.54823554357e-07
8.51437607116e-08
1.58721266336e-07
6.0114655115e-07
1.34211159742e-06
2.7213211349e-06
1.98151622204e-06
7.76164345247e-07
4.55035502303e-06
1.54753808665e-06
1.87728003676e-05
2.62454937667e-05
6.30942000755e-07
2.53349142023e-07
3.06985646342e-07
1.72707933616e-07
8.7055172931e-07
8.10075698593e-07
2.18478610622e-07
1.23210740543e-06
2.11699150357e-06
2.77159510927e-06
8.72516398967e-07
4.47735179456e-07
7.8420508168e-07
1.89911316902e-06
5.21923890631e-07
7.18540291622e-07
1.02827586586e-06
2.379089129e-06
2.85276281686e-06
9.76190075197e-07
1.25586294629e-06
1.3923018241e-05
1.23373710561e-05
3.20128739221e-05
3.00686152988e-05
3.13725178979e-05
3.20155381693e-05
2.23825778237e-05
2.04318554383e-05
2.69556970935e-05
3.12367459662e-05
2.63084107851e-07
5.01704392643e-08
1.50258827183e-07
1.4596111735e-07
4.36022003621e-06
4.70536225348e-07
7.70294340322e-06
1.27983718126e-06
3.51582525301e-07
1.42192007573e-05
3.31391835256e-06
9.51820123276e-06
7.64882423045e-07
8.89927545359e-07
1.00170196851e-06
5.36251138699e-07
2.47971492644e-07
2.05505532025e-07
7.04014240904e-07
3.28395699643e-06
3.87808629571e-05
1.89174890471e-07
2.2524489507e-06
2.31770140066e-05
1.73325553598e-07
2.13284371565e-06
2.2975327435e-06
4.60467266206e-06
2.04167972531e-06
2.39950141048e-05
1.43740277748e-05
3.05626200502e-05
1.43439215772e-07
1.06001874306e-06
3.19048129964e-07
1.66905854979e-07
1.93737755073e-05
1.88919472289e-05
1.66301916346e-07
8.88633365447e-08
2.26817877246e-07
7.29947095725e-08
1.524042235e-07
5.34599490279e-08
1.82778399743e-07
7.47581558682e-09
1.12219665288e-07
4.43766889423e-08
1.35090602182e-07
3.96861322774e-08
1.02664205067e-07
2.22490189896e-07
2.73499777762e-08
2.9803779948e-05
2.90452510705e-07
4.01861252192e-07
2.14788205033e-07
5.11105305842e-07
2.89023186184e-08
3.16655864039e-06
3.51119811116e-07
5.05354427653e-07
2.6753826266e-06
4.65578910729e-07
7.66387418271e-08
1.24448571923e-07
3.18571073192e-06
2.40214263087e-06
4.34738109444e-06
3.9166755228e-06
8.75856246234e-07
6.74763435386e-06
2.95019700619e-06
3.26823980289e-06
5.13159223799e-06
1.24774447929e-05
7.21627790158e-06
2.90582365994e-06
6.64418990442e-06
2.8041880021e-06
1.71089347744e-06
1.71792655078e-06
1.45177640119e-06
4.17640413302e-06
6.49605569668e-06
8.57018847643e-07
7.84551251404e-07
7.73259741022e-07
2.16368718433e-06
1.62138412612e-06
4.21849125472e-07
1.78829723025e-05
1.83786958587e-05
2.79369523539e-06
5.25468479401e-07
6.83226692609e-07
1.07237910195e-06
4.88419446017e-05
2.94610565577e-05
3.19256956075e-06
1.53555728131e-05
2.12755289861e-05
1.31318829411e-05
1.58092106789e-07
8.86047737124e-08
1.62500151517e-06
6.74842369406e-06
1.05403760928e-05
1.11873753003e-05
8.55501760336e-06
9.86785156618e-06
1.33696551312e-05
4.29255900739e-05
3.06788076717e-05
2.25721499927e-05
8.80197698443e-06
1.02828213227e-05
4.11680837525e-05
6.79870482496e-05
6.96449944256e-06
4.97840459878e-06
3.11720886874e-07
1.29214392909e-05
1.824852022e-06
6.01818222701e-06
1.29449698339e-06
1.74704747256e-06
1.62225141963e-06
1.51001304483e-07
4.73249077675e-07
1.66223774416e-05
1.43278488171e-05
2.79050808592e-08
5.67697399369e-08
1.84192516376e-07
2.30923458756e-07
1.42627134204e-07
1.38810140155e-06
3.04162051747e-06
7.41361047736e-07
1.12275494196e-06
9.96619710577e-08
1.13078872743e-07
1.02112470525e-07
1.00636985162e-07
9.77647774938e-07
2.06136944489e-05
1.54337405165e-05
1.20032418794e-07
8.49359679439e-08
5.18182264958e-06
2.39887403161e-06
8.45496902218e-06
1.35182979039e-05
2.42277476224e-06
2.59435568029e-06
3.83866738272e-06
3.98884399655e-05
2.20831750306e-07
3.2195266446e-07
7.33866623168e-07
1.78814211132e-05
5.17017443626e-05
7.75824273629e-06
8.50654648312e-06
6.73767448131e-06
2.77923025409e-07
1.99746408423e-07
1.60015992933e-07
8.99241414362e-06
2.17372444128e-07
4.51245982812e-07
6.44800435141e-08
6.21381951239e-07
1.33529410941e-06
2.30440938348e-07
8.81025287017e-07
1.78670687822e-06
5.51294506825e-07
7.45385545209e-07
4.45279748361e-05
6.19876371795e-05
7.49439770843e-06
1.17713743327e-06
2.84618330556e-06
2.07101980889e-05
5.30827118468e-05
6.87376459449e-06
4.59998588878e-06
5.32943258947e-08
1.10205365166e-05
3.79626816366e-06
1.30719277104e-05
5.52192807905e-06
1.2733836826e-06
1.1104008372e-06
1.65179876701e-06
3.49696412594e-07
4.33888452128e-06
5.74662856514e-06
8.84546703281e-06
3.54476634357e-07
4.36267081279e-07
2.68045948545e-07
7.00849121587e-06
2.62596561432e-07
2.78369698753e-05
1.36225936607e-05
3.57184594061e-06
1.34700631841e-05
6.45386767124e-06
1.67832444761e-05
4.22898554944e-07
6.66447727614e-06
4.92617617978e-06
2.08196439985e-07
2.41186402121e-07
5.79204451052e-06
4.78231446008e-07
3.66405925757e-07
1.22662328006e-06
7.91648125166e-07
5.47891857236e-06
4.92453331202e-06
5.75845071971e-06
6.0490044625e-06
1.36551323167e-05
1.69692634672e-07
2.0806246845e-07
8.15289128509e-07
3.00929418803e-06
7.02110149609e-07
7.65296666034e-07
1.63489799998e-07
6.72563771996e-07
2.16128032837e-07
1.92373667805e-07
1.63035909898e-07
6.82183134493e-07
1.38880358872e-07
6.60787125583e-08
2.22186165472e-05
7.83559930726e-06
5.3913556418e-06
1.90401887433e-06
1.09294208514e-07
6.23563339069e-07
7.86948450274e-07
4.13616133234e-06
6.74591439555e-06
1.65679915102e-07
9.61164068848e-08
2.23066260958e-07
2.87339212827e-07
5.18497346438e-07
3.55182824793e-07
7.98483330375e-07
7.39866182354e-07
5.63195078844e-07
6.09268940821e-07
1.94718731557e-05
2.15456418787e-05
1.13786204155e-07
1.28253693063e-07
5.43150516231e-07
5.56817000408e-07
5.8893179861e-07
1.30415282085e-07
3.09474949997e-05
8.64808689277e-07
1.09197143753e-06
1.08130622079e-06
2.31515786822e-07
1.63725757082e-07
4.06211948166e-07
1.33422500947e-07
1.22861254631e-05
1.723787133e-05
1.72841805593e-05
1.9619312396e-07
8.10727500666e-07
4.01573675559e-07
2.42235186395e-06
9.11105495283e-07
2.01162468781e-06
3.73177907915e-05
3.30546580854e-05
1.22537451484e-06
2.12772951504e-05
3.05703386912e-06
7.33119883789e-06
1.23834154459e-07
1.25419977346e-05
7.72207675322e-08
2.29645649947e-05
1.31280568352e-05
6.38552927525e-06
7.82723398292e-06
2.57009561117e-07
1.22502380544e-07
1.0844830958e-07
1.10318341375e-05
9.53580325184e-06
8.89280143347e-08
8.65780217503e-08
1.19862438586e-05
1.7140226979e-05
1.10474402406e-07
1.38430857258e-07
3.1558542514e-07
1.67269731276e-07
1.86549751874e-05

