# vtk DataFile Version 3.0
File Name: Molecule/sphere_excent/sphere_excent_0-s8.vtk
ASCII
DATASET UNSTRUCTURED_GRID
FIELD FieldData 1
TIME 1 1 double
0.0
POINTS 74 double
-8.4658749984e-05 0.85128772259 0.52466320992
-0.52241909504 0.7645150423 0.37613967061
-0.30672702193 0.51059633493 0.79999727011
-0.81008690596 0.30422741175 0.5010355711
-0.84948700666 0.52748250961 1.5552632249e-05
0.30702856183 0.49725416303 0.81140947342
0.020777516067 -0.00024667027174 0.99882632494
0.52560549974 -0.00021436609677 0.85072112083
-0.30853834748 -0.51613181829 0.79710513353
3.2480625123e-06 -0.85065251589 0.52572858334
0.30867856741 -0.49993395805 0.80912613869
0.80776768923 -0.30980744958 0.5013833046
0.50000756979 -0.80892378092 0.30893719196
0.85137552023 -0.52457803488 7.9994439147e-05
0.27979278564 -0.54380482435 -0.7906678319
-0.00097012420883 -0.85138142109 -0.52469778061
-0.30887123942 -0.49939125776 -0.80935078859
-0.044406302273 0.025073390454 -0.997394979
-0.50821894407 0.00077616190538 -0.85860216618
0.99841672182 0.0018676337786 0.054983720183
0.80884081125 0.30613806844 0.50215262175
0.8504948616 0.52600979805 -0.00054819905199
0.52188283205 0.76906520128 0.3681974709
-0.8074285984 -0.32515180111 -0.48985552788
-0.85064971447 -0.52573305368 -9.5287589374e-07
-0.99998670816 4.4707543566e-05 -0.00029414420715
-0.80821275711 0.32017597556 -0.49028655887
5.9960744693e-05 0.85087496042 -0.52532988787
-0.31140825152 0.49650630355 -0.81028413773
-0.5220516324 0.76507711411 -0.37539771199
-0.49983745813 -0.80913615227 -0.30879291892
-0.49992331862 -0.80912530422 0.30868253112
7.0017572398e-06 -0.99989748001 3.4181062802e-05
-0.80875146389 -0.30920156837 0.50006753206
-0.53848826885 -0.0001484870736 0.84069633484
0.49934476614 -0.80950599909 -0.30885103345
0.80608326197 -0.35340535641 -0.47330087423
0.24191023409 0.48618206382 -0.83744305372
0.0056893378496 0.9998229146 9.3629845651e-05
-0.2711430788 0.94759887457 0.16902334988
-0.27102264762 0.94770938158 -0.16860724986
-0.53256493807 0.84632104635 0.00012565431825
0.50330543518 0.80404424667 -0.31619957089
0.52867543697 0.84874892235 0.0081750042737
0.27361366153 0.94879901409 -0.15810187161
0.2772090435 0.94601017237 0.16793698072
0.82015752792 0.31032577157 -0.47871792316
0.68776994944 0.5811599493 -0.43501344323
0.58343040943 0.45032051206 -0.6753205061
0.42386862636 0.67942118645 -0.5987559557
0.95228809118 -0.16347144544 -0.25791341066
0.86110574007 -0.034805890173 -0.50635832548
0.95480978489 0.15190693736 -0.25585007668
0.53544658422 0.011680305004 -0.84450674057
0.4349232614 -0.25660723448 -0.86311930418
0.27613529563 0.0029983122367 -0.96094191074
0.15320825577 -0.26747611165 -0.95108324289
0.68455672264 -0.18604944646 -0.70482188463
0.57984250784 -0.44072136283 -0.68503594398
0.71039736271 0.35608735681 -0.6068636775
0.43889945745 0.45490247011 -0.77471262217
0.42457008362 0.25299200416 -0.86923122406
0.5759729147 0.24572634697 -0.77935445309
0.70311069489 0.1682882309 -0.69079846144
0.83797836304 0.14621727169 -0.52557039261
0.72279292345 0.0035632294603 -0.69082540274
-0.43365243077 0.25567817688 0.86399382353
-0.15924060345 0.26273536682 0.95153039694
-0.27560970187 -0.00027265169774 0.96127128601
-0.43469506502 -0.2577675581 0.86285144091
-0.16012857854 -0.26465347409 0.95083856583
-0.69226002693 -0.15885643661 -0.70381444693
-0.69246858358 0.15647660196 -0.70425230265
-0.85188210011 -0.0019629977178 -0.52344071865

CELLS 144 576
3 0 1 2
3 1 3 2
3 1 4 3
3 0 2 5
3 5 6 7
3 8 9 10
3 6 10 7
3 7 10 11
3 10 12 11
3 10 9 12
3 11 12 13
3 14 15 16
3 17 16 18
3 13 19 11
3 19 20 11
3 19 21 20
3 11 20 7
3 21 22 20
3 22 5 20
3 22 0 5
3 20 5 7
3 23 24 25
3 26 25 4
3 27 28 29
3 28 26 29
3 29 26 4
3 24 30 31
3 30 32 31
3 30 15 32
3 31 32 9
3 24 31 33
3 31 8 33
3 31 9 8
3 34 3 33
3 3 25 33
3 3 4 25
3 33 25 24
3 16 30 23
3 16 15 30
3 23 30 24
3 15 35 32
3 35 12 32
3 35 13 12
3 32 12 9
3 36 13 35
3 14 35 15
3 17 28 37
3 17 18 28
3 37 28 27
3 38 39 0
3 0 39 1
3 38 40 39
3 40 41 39
3 40 29 41
3 39 41 1
3 29 40 27
3 27 40 38
3 1 41 4
3 41 29 4
3 42 43 21
3 21 43 22
3 42 44 43
3 44 45 43
3 44 38 45
3 43 45 22
3 38 44 27
3 27 44 42
3 22 45 0
3 45 38 0
3 46 47 21
3 21 47 42
3 48 49 47
3 47 49 42
3 42 49 27
3 49 37 27
3 36 50 13
3 13 50 19
3 36 51 50
3 51 52 50
3 50 52 19
3 19 52 21
3 52 46 21
3 53 54 55
3 54 56 55
3 54 14 56
3 55 56 17
3 17 56 16
3 16 56 14
3 53 57 54
3 57 58 54
3 57 36 58
3 54 58 14
3 14 58 35
3 35 58 36
3 55 17 37
3 36 57 51
3 46 59 47
3 59 48 47
3 48 60 49
3 60 37 49
3 37 60 61
3 60 62 61
3 60 48 62
3 61 62 53
3 53 62 63
3 62 59 63
3 62 48 59
3 63 59 64
3 51 64 52
3 64 46 52
3 46 64 59
3 64 65 63
3 64 51 65
3 63 65 53
3 37 61 55
3 55 61 53
3 53 65 57
3 57 65 51
3 34 66 3
3 3 66 2
3 2 67 5
3 67 6 5
3 2 66 67
3 66 68 67
3 66 34 68
3 67 68 6
3 34 69 68
3 69 70 68
3 69 8 70
3 68 70 6
3 6 70 10
3 10 70 8
3 18 71 72
3 71 73 72
3 71 23 73
3 72 73 26
3 26 73 25
3 25 73 23
3 18 72 28
3 28 72 26
3 8 69 33
3 33 69 34
3 23 71 16
3 16 71 18

CELL_TYPES 144
5
5
5
5
5
5
5
5
5
5
5
5
5
5
5
5
5
5
5
5
5
5
5
5
5
5
5
5
5
5
5
5
5
5
5
5
5
5
5
5
5
5
5
5
5
5
5
5
5
5
5
5
5
5
5
5
5
5
5
5
5
5
5
5
5
5
5
5
5
5
5
5
5
5
5
5
5
5
5
5
5
5
5
5
5
5
5
5
5
5
5
5
5
5
5
5
5
5
5
5
5
5
5
5
5
5
5
5
5
5
5
5
5
5
5
5
5
5
5
5
5
5
5
5
5
5
5
5
5
5
5
5
5
5
5
5
5
5
5
5
5
5
5
5

CELL_DATA 144
SCALARS cell_data_0 double
LOOKUP_TABLE default
3.9016685117e-05
4.38563112766e-05
7.45951426843e-07
6.43932636819e-05
8.64979105995e-05
6.68467214783e-05
8.68272978384e-05
5.59603632889e-05
4.30014090909e-05
4.22572913645e-05
1.79920255245e-05
4.21737581025e-05
0.00049863908093
6.83056925077e-06
2.95230982867e-05
4.96287769151e-05
4.89546223866e-05
1.88975942696e-05
4.28954957296e-05
3.98770970347e-05
6.25866282944e-05
0.00012490632216
0.000129103708928
0.000138318659516
0.00015946661536
0.000183503892783
6.36576477317e-05
1.17881583533e-05
1.8978390968e-05
6.39980144058e-06
3.93179731777e-05
4.85095903913e-05
3.74845150403e-05
2.45045352641e-05
2.72639690989e-05
4.41256101798e-06
4.78537794181e-05
3.94155096964e-05
3.56083023493e-05
0.00012226383911
2.90438377047e-05
1.14959949274e-05
1.71555996866e-06
1.25147748169e-05
2.96407209776e-05
2.60515097763e-05
1.52096221566e-06
0.000423809353716
9.11203079607e-05
8.62024397977e-06
1.1958763439e-05
3.22382231483e-06
2.378562924e-06
7.77891140995e-06
5.2476660157e-06
9.01536441042e-05
4.33663537184e-05
2.12596992189e-06
2.34379792556e-05
4.19376781092e-05
2.93291520337e-05
9.38255386579e-07
2.4701465754e-06
3.68694126961e-06
5.45851432916e-06
3.64024797134e-05
4.25027840713e-05
1.35750346889e-05
8.63531338034e-06
3.49016283542e-05
3.58337221927e-05
5.55716865569e-07
8.27572507824e-07
4.89844282248e-05
5.78503461619e-05
1.33503598583e-05
5.28673855674e-06
2.42215097755e-06
1.5717513558e-06
2.25370126316e-06
3.76279907026e-05
3.1889578609e-05
3.3080679819e-05
7.09627256423e-07
1.04035909746e-07
4.12076250339e-07
9.58494787563e-06
8.04617655305e-06
3.199233663e-05
6.76150941018e-07
2.23260258953e-06
9.73725931909e-08
9.78915889048e-07
6.31406892001e-06
1.54354420854e-07
2.77092075957e-06
7.27597615754e-07
5.36609258534e-07
1.40636797203e-07
1.12061117096e-07
2.89245605443e-07
3.44111135898e-07
3.20355972622e-07
1.84830853608e-05
1.84089324488e-05
3.12186134682e-07
3.07175518198e-07
4.30192478214e-07
7.54333407603e-07
9.47521614084e-07
3.51124913525e-07
3.1954575869e-07
2.00118796958e-07
1.74582936137e-05
7.48402697175e-07
3.06170440713e-05
2.02907752439e-05
2.39528766944e-07
2.98807433218e-06
3.14119606179e-05
9.48572081341e-05
0.000138654356634
1.64737895613e-05
4.94185353754e-06
4.46050326939e-06
5.54749805994e-05
4.36411820398e-06
5.0156714722e-06
1.59993710638e-05
5.57695795522e-05
0.000140190193709
9.48624052492e-05
0.000122915377676
7.41518762694e-07
5.82109892624e-06
2.96238175944e-05
6.00104464023e-05
9.76986982707e-06
0.000241244366248
5.92756745648e-05
3.60195065404e-05
9.60888060159e-06
2.21832926096e-05
0.000276884734002

