# vtk DataFile Version 3.0
File Name: Molecule/sphere_excent/sphere_excent_0-s29.vtk
ASCII
DATASET UNSTRUCTURED_GRID
FIELD FieldData 1
TIME 1 1 double
0.0
POINTS 324 double
-0.052547030151 0.86737197638 0.49377867579
-0.54537808895 0.7375150919 0.3976252079
-0.29255959392 0.6158721447 0.7310795784
-0.82564914227 0.55884712934 0.076996617019
-0.83273148537 0.34759658575 0.43049696088
0.31399932504 -0.60606491566 0.73067557812
0.0084312753752 -0.86142712831 0.50778210163
0.39947387576 -0.8382537961 0.3710193634
0.1606862098 -0.59302550554 -0.78864622116
-0.0065109957941 -0.86316567659 -0.50454837084
-0.16006806493 -0.58307021856 -0.79618793726
0.77216142416 -0.20565609634 0.60118365288
0.76859229803 0.22973905504 0.59649038315
0.59774363041 0.016425490379 0.80120182037
-0.32531177998 -0.90035897493 -0.28887093067
0.014641208574 -0.99977535009 0.015823466703
-0.47622349858 -0.87801086903 0.043308902532
-0.37932398915 -0.84740608931 0.37175545096
-0.33167505264 -0.66192173958 0.67225211859
-0.96702378988 0.17525145411 0.18413954973
0.37546741962 -0.86765474081 -0.32565960288
0.52178168297 -0.85283720493 0.015328953974
-0.26806131005 0.93954485655 0.20349957049
-0.56219834089 0.82428693771 0.03452911973
-0.62830495834 0.7346907258 -0.25552713871
0.48292714357 -0.044393938035 -0.87449747324
0.36249750853 -0.30688381195 -0.8798456192
0.25235059857 -0.067126937211 -0.96517723799
0.092373996973 -0.31399768591 -0.94472426176
0.04548753798 0.018883090466 -0.99879109859
0.46068713069 0.49142503738 -0.73904812336
0.59754419327 0.4645549655 -0.65352892876
0.54014134407 0.36595642567 -0.75783312321
0.68062734604 -0.20304135978 -0.70392608643
0.75937944651 -0.095200747252 -0.64361125231
0.76251548529 -0.26200908422 -0.59154140949
-0.2280587405 0.33382225037 0.91451507807
-0.40922683477 0.2159063518 0.88644146919
-0.21213917434 0.11691554636 0.9700679183
-0.5044247508 -0.36813634634 0.77992099524
-0.596583426 -0.56668788195 0.56759810448
-0.78714001179 -0.25764858723 0.56017667055
-0.62215471268 -0.094762809575 0.77675771713
-0.084845229983 0.25110056996 -0.96402078867
0.14934003353 0.22026312351 -0.9639095068
-0.68215948343 -0.17765462399 -0.70923256874
-0.489046067 -0.33520188928 -0.80510497093
-0.6377697587 -0.41024470329 -0.6518599987
0.92692399025 0.18679770827 0.3253723681
0.84810096025 0.3934712708 0.35448974371
0.69162482023 0.50532495975 0.51512807608
0.55042552948 0.29013833404 0.78181743622
0.98060554266 0.12105950713 -0.15358236432
0.98530477285 0.1560408622 0.06908287853
0.9968522191 -0.077557705343 0.013319065794
-0.010105688125 0.4455473423 0.89510691166
-0.017057672143 0.20605133474 0.97835230827
0.19777101278 0.24909749627 0.94778287411
0.14702354372 -0.0024489411153 0.98887425661
-0.82092869282 -0.55245381594 0.14290982485
-0.76974862814 -0.63739490509 0.032358586788
-0.65745985508 -0.72148877382 0.21490937471
0.60039144754 -0.54535698891 0.58411425352
0.52243930101 -0.30202537775 0.79733014107
0.64507305622 -0.73900991678 -0.19372333586
0.77403879166 -0.6325956583 -0.024381138384
0.69338309765 -0.69695770741 0.18303984404
0.87293642759 -0.4710226059 0.12617021799
0.895860672 -0.44093552232 -0.054252147675
0.84640020132 -0.49192214012 -0.20223048329
-0.96309071779 -0.26078388095 0.065443657339
-0.90468513966 -0.40422019362 0.1343408376
-0.92394852638 -0.25879773498 0.28129538894
-0.83743900061 -0.45006385446 0.30919128656
-0.82157975435 -0.56266564131 -0.09105116874
-0.8706638813 -0.49119219184 0.018547646701
-0.02290507406 -0.6396920681 0.76837450266
0.25342303514 -0.27776417136 0.9266050458
0.36870127916 -0.057175442576 0.92758095264
-0.21928103268 -0.48086190224 0.84894698858
0.0097075644881 -0.19257859886 0.98123902082
0.032033402473 -0.42392089963 0.90513443947
-0.19592246413 -0.27255693078 0.94141572714
0.40794950724 0.16130873561 0.89851152897
-0.73014122248 0.46219712496 -0.50281137228
-0.82499957085 0.50044256449 -0.26245629787
-0.92356741428 -0.019002860412 0.38268259168
-0.77992784977 0.071195572615 0.62174683809
-0.027534635738 0.89089560509 -0.45331653953
0.098203599453 0.96570855379 -0.24033255875
0.22437903285 0.87144291401 -0.43614301085
0.37000754476 0.88565737009 -0.28039562702
0.29936128855 0.94861394167 -0.10000403225
0.42191258073 0.77374523878 -0.47249358892
0.63222759962 0.65443432331 -0.41467991471
0.54391348362 0.77831417322 -0.31353449821
0.23933640122 0.73944103718 -0.62914973497
0.40506762266 0.64207184315 -0.65080654621
-0.98087060452 -0.096788130701 0.16873157024
-0.9590754509 -0.26396551728 -0.10236313939
-0.92696899176 -0.37458002567 -0.019923090935
-0.91595166922 -0.36655846238 -0.16304014623
-0.92860120535 -0.26427936554 -0.26051726937
-0.85088688135 0.27977436781 -0.44409063458
-0.91935038567 0.36415407062 -0.14824827015
-0.99936962128 -0.018998745829 0.024984572083
-0.98816233873 -0.15022853017 -0.02937274985
-0.99251037836 -0.051161199808 -0.11061725765
-0.97079282999 -0.16509580612 -0.17388963699
-0.98142415285 0.030624199659 -0.1890334636
-0.99298983812 0.091287054121 -0.073471419513
-0.3358232975 -0.74925917387 -0.5708348155
-0.51396638155 -0.74214684963 -0.43035069108
-0.45071816444 -0.54747897387 -0.70481580496
-0.57168525457 -0.60103458166 -0.55832642317
-0.72022002935 -0.48563060164 -0.49540132284
-0.75985604525 -0.55066245794 -0.34551569819
-0.81561499834 -0.42700108886 -0.3903401792
-0.65973389149 -0.61744499207 -0.42837631702
-0.66737943888 -0.68107938766 -0.3010981977
-0.77132982016 -0.60019564629 -0.21152538061
-0.69869679213 -0.69259035587 -0.17919397354
-0.84412568808 -0.48167842627 -0.23528602719
-0.54602324963 -0.78814375401 -0.28382310271
-0.73746478558 -0.67046993971 -0.081158041954
-0.58806145191 0.50821304321 0.62903475761
0.55103671551 0.81928557158 -0.15706001222
0.6946952343 0.68363755941 -0.22331689298
0.67482113838 0.73753637075 -0.021304985508
0.83484470844 0.5207477808 -0.17437827587
0.79974353313 0.59741503 -0.046791821718
0.7596847415 0.54708659649 -0.3515393734
-0.57460927963 0.10668133944 0.81140065193
-0.64693331718 0.28789192438 0.7060392499
-0.44458672404 0.41104084253 0.79588896036
-0.3929695189 -0.010581186973 0.91936004162
-0.78457283974 -0.31920784712 -0.53146880865
0.67737966776 0.71121120453 0.18749845028
0.52677428722 0.84335649014 0.10199449956
-0.96981066465 0.24129740894 -0.026062687859
-0.96589803696 0.17902155221 -0.18717990816
-0.91522836685 0.28815677762 -0.28168639541
-0.92612612247 0.15936586261 -0.34176018834
0.405713588 0.38258177042 -0.83002829552
0.35697218776 0.25564697385 -0.89839684963
0.49391058087 0.26087251306 -0.82944363356
0.44980242848 0.14455343783 -0.88136035204
0.55174571276 0.14606685936 -0.82105529308
0.61568343639 0.23964557052 -0.7506736517
0.63820749521 0.072029188275 -0.76638281345
0.70096677542 0.16059117019 -0.69488674402
0.64122003317 0.34943577647 -0.68318665028
0.72202390432 0.26720887423 -0.63817751408
0.70199513435 0.40166038275 -0.58809500933
0.77947747707 0.14756062627 -0.60878539085
0.81366640329 0.23476390541 -0.53175425529
0.87180960178 0.10627896339 -0.47809544206
0.80875778198 0.02459009178 -0.5875235796
0.72845798731 0.039960972965 -0.68384104967
0.85817366838 -0.10589185357 -0.50222879648
0.64473164082 -0.075259894133 -0.76068717241
0.33615905046 0.099098958075 -0.93657255173
0.55602061749 -0.2272862941 -0.79944878817
0.06546036154 0.45950362086 -0.88548606634
0.29651358724 0.54062217474 -0.78723376989
0.25388169289 0.38184344769 -0.88866847754
0.93087601662 0.3251503706 0.16647909582
0.93944948912 0.33909219503 -0.048786152154
0.8867559433 0.45403838158 0.082962013781
0.84781694412 0.49504581094 0.188113451
0.77905762196 0.56046026945 0.27921050787
0.84631156921 0.40260225534 -0.3487406671
0.92466831207 0.29589492083 -0.23933462799
-0.041043512523 0.010180748999 0.99908924103
-0.17649711668 -0.078747063875 0.98100918531
0.77016663551 0.63303256035 0.070826277137
0.45778524876 0.54628801346 0.70105355978
0.22727407515 0.71037834883 0.66609239578
0.2062804848 0.52272897959 0.82713657618
0.004855746869 0.6644692421 0.74724698067
0.38927093148 0.77898329496 0.48822200298
0.93622398376 0.00087160419207 -0.35139879584
0.87831944227 0.2540845871 -0.40495431423
0.92917734385 0.15543180704 -0.3352240324
-0.81740450859 -0.15122328699 -0.55581575632
-0.80816859007 0.012475481257 -0.58857876062
-0.38246703148 -0.1203231141 -0.9159643054
-0.51243412495 -0.13574996591 -0.84778243303
-0.42803242803 0.0072103156708 -0.90368753672
-0.57813596725 0.010232458822 -0.81576555967
-0.26382836699 0.04303394258 -0.96353000402
-0.36094677448 0.12565821409 -0.92396473885
-0.49370488524 0.1501763314 -0.85654556751
-0.5674161315 0.27069303393 -0.77766054869
-0.63508653641 0.12737178802 -0.76167964935
-0.92142426968 -0.087573267519 -0.37855771184
-0.88454592228 -0.18957722187 -0.42620578408
-0.94481915236 -0.14498759806 -0.29377025366
-0.87792402506 -0.054565288126 -0.47568243742
-0.88726067543 0.083252847195 -0.45346224308
-0.92671620846 0.017370356247 -0.37523519993
-0.95387166739 -0.034516748041 -0.29814478755
-0.97368627787 -0.0740615502 -0.21545080841
-0.95694923401 0.068738430738 -0.28180673718
0.63910442591 -0.34887313843 -0.68543612957
0.51262396574 -0.39440369606 -0.76265019178
0.56144738197 -0.51074326038 -0.65105694532
0.70441496372 -0.43567600846 -0.5603402257
0.82729351521 -0.33936268091 -0.44737482071
0.39710626006 -0.57275700569 -0.71707373857
0.97403901815 -0.0087770661339 0.22611963749
0.95068633556 -0.25089076161 0.18208789825
0.89706176519 0.0014790028799 0.44186457992
0.92037248611 -0.17485184968 0.34940284491
-0.86809569597 -0.31352436543 -0.38485369086
-0.88347381353 -0.37175497413 -0.28506082296
0.72302359343 -0.54614025354 -0.42221662402
0.86900758743 -0.37809816003 0.3185557127
0.29308018088 -0.75321650505 -0.58883053064
0.9562882185 -0.29207774997 0.013003365137
0.95395165682 -0.24783170223 -0.16800917685
0.47758418322 -0.68488389254 -0.55034446716
0.77661371231 0.4248265028 -0.46511143446
0.7013694644 0.51074725389 -0.49712470174
0.36311632395 0.36657971144 0.85651534796
[...]
CELL_DATA 644
SCALARS cell_data_0 double
LOOKUP_TABLE default
2.42783860256e-05
1.23774456815e-05
2.4280783788e-05
9.99715806223e-07
2.1680314878e-05
0.000128335447142
0.000166582482653
0.000228087018272
4.08279190594e-05
8.06339267174e-06
9.20652933698e-05
1.5357587029e-05
2.10413095242e-05
1.5972872974e-05
8.28724483367e-06
4.92141756642e-06
5.04215715083e-05
0.000155108092893
8.85448864655e-05
0.000137197294053
9.31859273965e-05
5.13698732136e-06
1.69023286406e-05
1.46184764802e-05
1.26890644264e-05
1.7000852002e-05
3.60278596689e-05
1.52702562435e-05
8.00287195311e-05
7.82912856488e-06
1.14017643648e-05
4.83570976942e-05
2.22949713045e-05
1.68548690257e-05
3.24621471385e-05
3.62494055652e-05
1.81499544898e-05
1.14229312025e-05
1.80757092265e-06
4.59967034747e-05
0.000177201483422
1.46186020881e-05
1.50100362768e-05
8.51649782975e-06
6.43946228729e-05
3.35241901223e-07
1.8367763731e-06
1.77021622925e-06
6.02448302265e-06
3.1663175211e-06
1.49952272699e-06
1.8564659342e-06
7.05169756416e-07
2.29972599052e-05
2.03982609278e-05
1.4727733914e-05
1.435599137e-05
1.90456587824e-05
2.26702755985e-05
2.11495432981e-05
1.40335262075e-05
1.48300101835e-05
1.69593154805e-05
1.4382441761e-05
1.55128670737e-05
1.91508276855e-05
1.52195842849e-05
1.16945199111e-05
1.47438551665e-05
1.1076215728e-05
4.1191404817e-05
1.08535200107e-06
2.88101361415e-06
7.01834139421e-06
1.06051934749e-05
2.36862592246e-05
6.5480234268e-06
3.88555703612e-06
5.03412827464e-07
2.16778778972e-06
7.81975298889e-07
1.11474007482e-06
4.78992492916e-06
3.89044051292e-06
3.06670942491e-06
1.71682951143e-06
5.03896874436e-06
4.13535982771e-06
2.28428857051e-06
6.80772301957e-07
2.10790655553e-07
1.42650526456e-05
1.59075355553e-06
2.06407408801e-06
9.43347863999e-06
6.91767586886e-06
4.39120412191e-06
3.40574409224e-06
1.47947638517e-05
1.49538501373e-05
8.08860630774e-06
4.2560715884e-07
5.13498983923e-05
1.42263038485e-06
3.11464463319e-05
7.55315618235e-07
1.39318077988e-06
1.21329470366e-06
1.1145014901e-07
5.21252525387e-08
2.24043340236e-07
9.78254454888e-08
5.61870520999e-07
4.87312669126e-07
1.89683272046e-05
3.05886792146e-07
2.78454539272e-07
1.34174799088e-05
1.58781711501e-05
1.17767745292e-05
1.06131443863e-05
6.30209034877e-07
1.41357944651e-06
7.97240485446e-06
1.00529221405e-06
1.79565009384e-06
1.36090125107e-05
7.37097592922e-06
9.61335858131e-06
1.12340328929e-05
1.04837390556e-05
6.69741478851e-06
1.09194142161e-05
1.01753104139e-05
1.62656879939e-05
1.24657568185e-05
1.18176601192e-05
1.7447073116e-05
1.39368091319e-05
5.31115415291e-07
9.93847171908e-06
2.22971199262e-06
4.39738060669e-06
1.63761699396e-06
8.1272062904e-07
8.84871973948e-07
5.45935911639e-07
1.33895767839e-07
1.00862116682e-05
3.93818702616e-07
5.41975116646e-06
4.74757736133e-07
5.2083592649e-07
1.93185448738e-06
1.63077258455e-06
4.68511762675e-07
7.10937178961e-07
5.50343141637e-07
4.73594899258e-07
2.92837122812e-07
4.72684480542e-07
3.47151892933e-08
2.82259238433e-05
6.40031320983e-07
5.47991867711e-08
1.10892336776e-07
1.10133423816e-06
1.18004826321e-06
1.9015107289e-07
1.91607728991e-06
4.44566923582e-06
1.49085753926e-06
2.17818137577e-07
1.42901143521e-07
3.9806823297e-06
1.09262357954e-06
2.88998564032e-06
4.53900567529e-06
4.73852944432e-07
8.30579500072e-07
1.04684826835e-06
1.43624354715e-06
1.28033581261e-06
6.16530778136e-06
1.01002553388e-06
7.64260093097e-07
4.98489256251e-06
1.34906247301e-06
2.32702134944e-06
3.29770542118e-06
2.43069782981e-06
3.95770588654e-06
1.92436596714e-05
4.52457893548e-05
2.92354508511e-05
4.14492549787e-06
4.94569390165e-06
4.86107982459e-05
8.5346830597e-05
2.81085270342e-05
6.93227583824e-05
5.15894992732e-05
2.76387379085e-06
4.13381074135e-05
2.75483313134e-05
8.77505230289e-05
8.8418022723e-05
4.15954332138e-05
2.21801088406e-05
2.5776553489e-05
1.81876913212e-05
9.83599756741e-07
3.48131635421e-05
1.20715560322e-05
1.15458023264e-05
1.43771394709e-05
1.49218472332e-05
1.23345182663e-05
1.18968532739e-05
8.44695160885e-06
9.28795592979e-06
1.09249041527e-05
1.69853880483e-05
2.23791522433e-05
2.43425661975e-05
3.19633142457e-05
1.23840881397e-06
1.09621103767e-05
7.89009989761e-06
1.30032612303e-05
9.60246139027e-06
1.0988598522e-05
3.95176389659e-06
2.69278302045e-06
1.09045127441e-08
3.39224479324e-07
5.95071564821e-07
5.5785723716e-07
6.08476767011e-07
2.17392695963e-07
2.01877456022e-06
1.53460521961e-07
2.13127366425e-06
2.78096145816e-07
1.92309005065e-09
2.40915581947e-06
1.65741611173e-07
4.68535338863e-06
1.3489017689e-05
1.57044975151e-05
1.83719509565e-05
3.16353212739e-05
3.59830726749e-08
4.05090002955e-07
1.89721431545e-07
8.61267321942e-09
5.76595540023e-07
7.39827562185e-07
9.84687303099e-08
2.59676650741e-08
2.09613714991e-07
1.86027710828e-07
1.05965314644e-07
4.59494018315e-08
5.42979352422e-06
7.57293021245e-06
1.54118015328e-07
2.26608338031e-07
5.22075597334e-06
1.73744104149e-07
1.1565060532e-07
1.77108312915e-07
7.35533677421e-08
5.92515739556e-06
3.33838920043e-07
3.25491242263e-07
6.63437175657e-08
1.96256843411e-05
4.19964866928e-06
1.68403505225e-05
1.83429157302e-07
2.5411094433e-05
5.89440088227e-07
1.57409999852e-05
2.03984034031e-07
3.21017501748e-06
2.84692820464e-05
2.41905785237e-06
4.27337992435e-06
5.34240994495e-07
4.95225661958e-06
2.72502996626e-06
2.27242307694e-05
5.79903870609e-06
1.12896039404e-05
2.39665431134e-05
6.82230410029e-05
3.52960008883e-05
2.01292360667e-06
1.40109240546e-06
6.36694767435e-07
3.64681887301e-07
4.42031449377e-06
6.0834096562e-06
1.00499641164e-07
1.82661535914e-07
1.18104054327e-06
9.33194037179e-07
5.3714460057e-07
5.53481790984e-07
1.35533136068e-05
1.65360406999e-05
1.00436880231e-06
1.2401178153e-05
3.83732101943e-07
1.70974835248e-07
2.15042068387e-05
1.09965508296e-05
6.15969092349e-07
1.08882143364e-06
4.42101738618e-05
6.10873163658e-06
5.54191919723e-07
4.4515637313e-07
2.28899684333e-07
2.03496561542e-06
1.53813846814e-06
1.03861410995e-05
1.56241915977e-05
2.10345572969e-05
1.84148529708e-05
6.38685727505e-06
2.93047217775e-05
1.07553746455e-08
4.90564040477e-08
4.96675203638e-06
9.51139388773e-07
1.60435781428e-06
2.96062012053e-07
2.32010479843e-07
2.69426512118e-07
6.87825977027e-07
2.50999475514e-06
4.83218853561e-06
1.83349311928e-06
2.31695998067e-06
1.22309718201e-06
2.33837584332e-07
2.18067312258e-07
2.42556814665e-05
3.11692105039e-05
2.19298543454e-07
2.23751008683e-07
2.81136043012e-07
3.09565519245e-07
2.91781602868e-07
7.25585443593e-07
1.8866581498e-05
1.40599706009e-05
2.70419007669e-07
1.12639222727e-07
1.64998365842e-07
7.24287575803e-08
8.88487251116e-08
3.10961330662e-07
2.26276251987e-05
1.0732484281e-05
8.85796268443e-08
2.55332376972e-07
3.5413148785e-05
1.78478480872e-06
1.28704554134e-07
2.70775598205e-05
2.10879806038e-06
2.45187116524e-06
4.087989218e-06
3.12066204949e-07
6.13507239682e-07
4.49303099185e-07
5.33199330985e-06
2.23208385305e-05
9.65850117538e-06
5.94528853359e-08
2.53891500488e-07
3.88470836086e-06
9.22722058572e-07
1.7248269483e-05
1.03456390102e-06
3.69526329558e-07
3.52524651048e-06
4.18589637994e-07
9.79025730525e-07
5.24948975806e-06
6.40050631002e-07
4.46063850245e-07
3.65171726033e-07
7.92824772253e-07
1.13491142062e-06
2.81971523584e-06
1.47936218137e-05
1.74852408999e-06
9.41350015954e-07
2.51821049987e-06
1.81687617013e-06
3.07537178542e-06
1.87528981511e-06
4.05899578614e-06
1.85917544388e-06
2.96520825664e-06
7.04405982557e-06
7.72178347824e-06
2.16853496123e-05
2.33503510132e-05
5.49795943182e-06
6.3293908397e-06
4.39509597312e-06
5.51205481352e-06
1.0348904754e-05
2.07260843753e-06
1.80809477528e-06
3.20080916619e-06
4.02458906131e-07
7.10152148283e-06
4.47087638317e-06
1.04421440695e-06
2.35654613079e-06
1.63708367539e-06
4.03192007884e-06
3.37998144738e-06
9.15977897232e-06
2.6915728887e-06
1.48337835226e-06
1.3848654533e-06
5.24922852825e-06
1.29032215405e-07
6.61271464609e-07
1.66405467333e-07
3.33435340974e-06
1.29630617635e-05
3.40131015669e-05
3.24181182391e-06
2.15717322516e-05
5.31227649593e-08
1.3379389162e-05
1.54170470855e-05
1.1567510305e-05
7.3450400019e-08
1.27464741886e-05
2.85957705681e-06
4.73276832692e-06
6.21206547087e-07
7.61597169449e-06
5.87988408871e-06
3.4745179848e-06
2.00145229122e-06
2.34391314085e-06
2.18434399993e-06
5.56437433723e-06
7.42907637646e-06
4.7166012317e-07
3.66349723857e-07
5.21307727572e-07
5.93967198105e-07
8.41813725135e-07
4.21622454095e-07
1.06392799753e-06
1.00863385819e-06
4.0828642839e-07
8.5575393383e-07
1.60960106659e-06
2.60163421435e-06
2.09573456925e-06
2.78793454342e-06
1.38899760949e-05
2.29257749117e-05
1.58188279801e-05
9.61025616992e-07
1.48541040861e-05
2.09094089199e-06
2.30600274886e-06
1.31087603007e-05
3.35139396864e-06
1.86812843989e-06
1.17855185035e-06
1.14238138652e-06
6.73452344531e-07
1.47221805966e-07
2.15517518521e-07
2.78827039995e-07
6.1657404388e-06
2.836426588e-05
3.02609916008e-05
5.78274349076e-05
4.33299720409e-05
4.90474248945e-05
5.44298184772e-05
6.18541272392e-07
4.00136994194e-07
4.19248633507e-07
3.08128953765e-07
2.71830235506e-07
3.1764902091e-07
6.04457716613e-07
1.08380711477e-05
6.94560594043e-07
4.75412945646e-06
1.20785408844e-07
9.92157521122e-08
1.464568359e-07
1.46404507403e-07
1.91255408112e-08
1.17209089332e-08
3.36929721103e-07
4.43739484766e-07
1.02326281461e-08
1.17685535387e-07
5.43848688897e-06
1.93711027132e-07
9.16265782863e-08
9.05697181817e-07
2.87576610295e-07
2.07260876259e-06
1.02844354484e-06
2.71387169704e-06
4.74063088993e-06
5.20730560401e-07
7.99839161215e-06
1.91185877143e-06
1.7320388896e-06
1.77662376508e-06
1.57964932562e-06
2.57974663448e-06
1.75574358059e-06
1.51793465275e-05
2.19001087147e-05
4.72756833254e-06
7.22985391607e-06
1.41674590611e-06
9.18333685442e-06
4.42261072684e-06
8.60908210212e-07
3.81688379183e-07
4.72779013233e-06
5.22495230941e-07
5.66777019272e-07
9.38838469607e-07
3.42820149395e-08
5.37433455012e-06
6.25118994949e-07
9.43851533777e-07
1.11793179761e-06
6.63393033563e-07
2.24922100612e-07
6.76839011883e-08
1.16913411897e-07
5.82251370288e-06
7.69318328836e-07
6.49850387358e-06
3.51289139674e-06
6.97563546055e-07
2.4921827582e-06
7.77456489368e-07
6.28572042495e-06
3.6601135171e-07
9.51459291947e-07
7.86988702027e-07
1.15137924018e-06
1.00053599289e-06
1.7423854202e-06
1.55625514157e-06
1.48931229363e-06
1.90924213931e-06
1.42704334441e-05
1.60327217119e-05
8.51865433254e-06
8.13911398323e-06
9.50160795333e-06
9.480160269e-06
1.15375788097e-05
1.15532903393e-05
3.51858271956e-06
1.13829792747e-05
6.17395582898e-06
1.39541773907e-05
1.78400460465e-05
1.03193259239e-05
1.59626951771e-05
1.26578905611e-05
6.87726391926e-06
8.94461701683e-06
2.57873093048e-05
2.74508587273e-05
8.50251054954e-06
1.3439199531e-05
1.04991855998e-05
1.00870997446e-05
1.16513641331e-05
8.56804268961e-06
5.37835961043e-06
7.39172977169e-06
1.99135269628e-07
3.83086724794e-07
8.22846823164e-07
6.53558158723e-07
1.31451679685e-06
7.99041139163e-07
1.78208485016e-06
2.03965163665e-06
1.78712137808e-06
2.09075453426e-06
1.08012803815e-06
9.80029594733e-07
1.09312596222e-06
1.19652344068e-06
5.97027362484e-06
4.78690894164e-06
2.31373136791e-07
5.18638571663e-07
3.30629200983e-06
5.82025493491e-06
4.48975397744e-06
8.37531973747e-07
2.75097381379e-07
4.69089907988e-06
5.86012325466e-07
3.61194245836e-07
1.11861513152e-06
5.40067256589e-06
1.84211581235e-06
8.64395081871e-07
8.14304861375e-06
3.15960097333e-06
1.85686178049e-05
8.85473532007e-06
5.11616222355e-06
2.45295710764e-07
1.29083607667e-06
3.53695646998e-07
2.82708689728e-07
1.59698760647e-05
1.34210252213e-06
1.8946883134e-08
5.28462419809e-07
1.09682770388e-06

