# vtk DataFile Version 3.0
File Name: Molecule/sphere_excent/sphere_excent_0-s19.vtk
ASCII
DATASET UNSTRUCTURED_GRID
FIELD FieldData 1
TIME 1 1 double
0.0
POINTS 184 double
0.0022615180351 0.84255391359 0.53845775127
-0.54025894403 0.73816293478 0.40303480625
-0.31311386824 0.58168774843 0.74997866154
-0.83573716879 0.54683840275 0.050417166203
-0.82884538174 0.30993399024 0.46335229278
0.39504390955 0.518250525 0.75802272558
0.030669188127 0.4652236402 0.88439583778
0.3251093924 -0.5682258606 0.75581336021
0.0067000659183 -0.8556522131 0.51747947931
0.43114045262 -0.83187437057 0.34846383333
0.234629035 -0.60775977373 -0.75866538286
-0.0095727397129 -0.86037242413 -0.50950825214
-0.2598515451 -0.53818035126 -0.8002358079
0.8140578866 -0.21351537108 0.53834450245
0.7691462636 0.25064015388 0.58799314499
0.55458396673 0.047879446298 0.82993990183
0.46218347549 0.78255033493 0.41680046916
-0.38718783855 -0.86908555031 -0.30592820048
0.0041743936017 -0.99984997511 0.0080962479115
-0.56671857834 -0.82254296541 0.027573455125
-0.41966214776 -0.83350658417 0.35926002264
-0.33467724919 -0.62584966421 0.70404064655
-0.9866155982 0.11709275842 0.094034329057
0.42561098933 -0.82912582159 -0.36120781302
0.57488185167 -0.81650424004 0.025660462677
0.0030669826083 0.99966853857 0.017122628167
-0.28500056267 0.94078099728 0.18349735439
-0.26539948583 0.94513332844 -0.18958742917
-0.54863584042 0.83593243361 0.01186879538
-0.58728677034 0.73681432009 -0.33400890231
-0.0017553735524 0.86764401197 -0.49654835463
0.12805764377 0.95145714283 -0.27736574411
0.28443604708 0.95465952158 -0.084342762828
0.27656829357 0.94100761414 0.1938470155
0.5191988945 0.85207021236 0.059323377907
0.84459638596 0.36441218853 -0.39059537649
0.68288689852 0.58732575178 -0.43439528346
0.84123378992 0.52714824677 -0.10049213469
0.58427971601 0.48566535115 -0.65015929937
0.43044987321 0.64239382744 -0.6335234046
0.89817255735 -0.43884435296 0.0086983870715
0.95238488913 -0.19456402957 -0.23446410894
0.99234467745 -0.096578046679 0.074778988957
0.8045373559 -0.35433489084 -0.47650715709
0.87366312742 -0.084897011518 -0.47904151678
0.96154791117 0.13763214648 -0.23703554273
0.91898679733 0.38781794906 -0.029438942671
0.53244411945 -0.024191018194 -0.84616887569
0.42849045992 -0.27340325713 -0.86135143042
0.27930134535 -0.0015823151916 -0.95989060402
0.12451282144 -0.29392030835 -0.94745606184
-0.014234540984 0.025063769892 -0.99947619438
0.68134248257 -0.22068148851 -0.69800823927
0.56708425283 -0.48804581165 -0.66343152523
0.72446066141 0.37466686964 -0.57676661015
0.45083475113 0.44848844409 -0.77065724134
0.56286537647 0.31645947695 -0.76323109865
0.85409384966 0.15222713351 -0.49574512243
0.74839884043 -0.027773234993 -0.66189485788
-0.43064182997 0.24967899919 0.86697638035
-0.31849759817 0.0002683364437 0.94648897648
-0.21383617818 0.29916858673 0.92991679907
-0.59928655624 -0.04073177278 0.7985009551
-0.48347070813 -0.30297988653 0.82096606493
-0.19125798345 -0.26296782494 0.94517862797
-0.52438127995 0.010653414764 -0.85142141581
-0.68576151133 -0.16217283905 -0.70934998989
-0.68585813046 0.18847282231 -0.70270913839
-0.84278672934 0.0085754226893 -0.53815597296
-0.81583052874 -0.31342867017 -0.48464810848
-0.77360975742 0.39535322785 -0.49405500293
-0.88551056385 0.24095799029 -0.3935045898
-0.49663692713 0.58274269104 -0.64279592037
-0.43215346336 0.26707795262 -0.86127942801
-0.64796584845 -0.57708317041 0.496329844
-0.80390095711 -0.25150606036 0.53876167536
-0.17887111008 -0.22163508832 -0.95858991146
-0.29356980324 0.02103028819 -0.95569580793
-0.43456977606 -0.25185152888 -0.86390823126
-0.16460093856 0.27356150746 -0.94684875011
0.20100697875 0.24322704971 -0.94712585211
-0.26816096902 0.49702760577 -0.82502245903
0.13348653913 0.49101999402 -0.86067581177
-0.67222779989 -0.42976740003 -0.60109478235
0.2279034853 0.23498336971 0.94474381208
0.93829882145 0.13326406479 0.31889501214
0.96749889851 0.2378820926 0.051671363413
0.86094647646 0.41761690378 0.28652843833
0.70057457685 0.67771404982 0.21811844409
0.67896163464 0.55771189928 0.47754821181
-0.13667850196 0.70790857077 -0.69263285398
-0.30073425174 0.82213711739 -0.48302263021
0.20491530001 0.76190251112 -0.61203795671
-0.025990054011 0.16115108132 0.98585635424
0.12033883482 -0.014017792419 0.99254775047
-0.85092741251 -0.4423673749 -0.28296267986
-0.92262840271 -0.26641750336 -0.27824735641
-0.83148694038 -0.54938143492 0.080652318895
-0.7030185461 -0.67854779959 0.21272023022
-0.83130741119 -0.47667345405 0.28531500697
0.84290057421 -0.48050090671 -0.24211062491
0.69153296947 -0.59668636322 -0.40698266029
0.686234653 -0.69950258732 -0.19821836054
-0.75665789843 -0.65333271027 -0.017100537196
-0.6954228282 -0.6992790103 -0.16432777047
0.65776902437 -0.570566535 0.48984253407
0.49501398206 -0.28172039986 0.82128995657
0.86118340492 -0.42524635792 0.27781239152
0.72142249346 -0.66189545393 0.20314772427
-0.91891759634 -0.37442177534 -0.12381587923
-0.8539776206 -0.51206505299 -0.092506505549
-0.90818375349 -0.41358473897 0.062090791762
-0.96184694767 -0.272167027 0.027162751183
0.77687972784 -0.62854725122 -0.035580247641
-0.92705184221 -0.28062647581 0.2485152185
-0.78141123056 -0.58682352304 -0.21192552149
-0.013431455009 -0.60189676285 0.79820626974
0.22691126168 -0.25925406814 0.93876963854
0.32571363449 -0.043404851109 0.94434410334
-0.21316425502 -0.45482215285 0.86470592022
-0.022164186463 -0.15772256255 0.98651307821
0.044637221843 -0.40327107906 0.91394871473
-0.92071670294 -0.1083972007 -0.37480118871
-0.93708199263 0.10125226527 -0.33335468173
-0.97118598223 0.012446135283 -0.23770147562
-0.96543997526 -0.1428103894 -0.21810159087
-0.84616607428 0.47386306524 -0.24356481433
-0.94506770372 -0.065266676247 0.31559452415
-0.75047701597 0.10896543413 0.65016317368
0.38005810976 0.88893711567 -0.2552921176
0.54008156061 0.82969707251 -0.14033675194
0.27423804998 0.86424249411 -0.42093172669
0.45121669769 0.76137703657 -0.46558025479
0.541190207 0.78459590673 -0.30184736848
0.30486831069 0.48301291466 -0.81938177347
-0.98816287518 -0.11868619919 0.093922436237
-0.96024489403 -0.24706962705 -0.12989598513
-0.93379491568 0.32183071971 -0.15350303054
-0.99869549274 -0.033945307136 -0.029853899032
-0.98611062765 -0.15701906383 -0.053366642445
-0.98880666494 -0.062176894397 -0.13511022925
-0.99162906408 0.06652751565 -0.10960837454
-0.37522312999 -0.73371118307 -0.56653922796
-0.54373192787 -0.73435777426 -0.4062513113
-0.49402308464 -0.56575137377 -0.65834677219
-0.59541004896 -0.60254597664 -0.53128790855
-0.75854092836 -0.55409502983 -0.34276816249
-0.74469017982 -0.48225855827 -0.46130442619
-0.67118173838 -0.61122822762 -0.41935446858
-0.67880225182 -0.66883403063 -0.30292761326
-0.57885855436 -0.7763197422 -0.2491106838
-0.59212589264 0.47439977527 0.65099072456
0.68988579512 0.69526767731 -0.20127916336
0.6938329339 0.7196406126 -0.023014804348
-0.54575175047 0.13220608234 0.82733285427
-0.64201104641 0.28198608756 0.71297436953
-0.42406022549 0.41236075759 0.80623966455
-0.97879290581 0.19379398227 -0.061594169587
-0.96787399054 0.15997096896 -0.19372750819
-0.93100202084 0.25556096435 -0.25977605581
0.42072224617 0.35132360458 -0.83638995886
0.40880975127 0.2445127964 -0.87931323051
0.4985614717 0.25534245372 -0.82852768898
0.47865724564 0.13166724145 -0.86811172962
0.56449109316 0.15915715694 -0.80990409851
0.63555562496 0.096846997738 -0.76602965593
0.63844412565 0.22631748021 -0.73561418056
0.70153468847 0.16925355792 -0.69223761559
0.65324866772 0.33003723621 -0.68134438992
0.71870774031 0.25799944997 -0.64566272497
0.77120870352 0.167114079 -0.61426687241
0.78879070282 0.25900754333 -0.55707073212
0.80006045103 0.068157508969 -0.59573817253
0.7233889699 0.078342452645 -0.68597960472
0.65657216311 -0.007169900462 -0.75412660837
0.34931632876 0.12741535902 -0.92820417881
0.28551274538 0.36555659771 -0.88587093353
0.92460137606 0.34570920467 0.15981027484
0.86901521683 0.48530086875 0.09619718045
0.79061120749 0.6082880497 0.070891998708
0.79637420177 0.55480736494 0.24078582227
-0.038260638714 0.00038204190787 0.99936878681
-0.16626752913 0.076758623123 0.98321408033
-0.16304686666 -0.073877260089 0.9840066433

CELLS 364 1456
3 0 1 2
3 1 3 4
3 5 0 6
3 7 8 9
3 10 11 12
3 13 14 15
3 16 0 5
3 14 5 15
3 17 18 19
3 17 11 18
3 20 18 8
3 20 8 21
3 4 3 22
3 11 23 18
3 9 18 24
3 18 9 8
3 10 23 11
3 25 26 0
3 0 26 1
3 25 27 26
3 27 28 26
3 27 29 28
3 26 28 1
3 30 27 31
3 1 28 3
3 28 29 3
3 32 33 34
3 32 25 33
3 34 33 16
3 16 33 0
3 33 25 0
3 35 36 37
3 38 39 36
3 40 41 42
3 43 44 41
3 44 45 41
3 41 45 42
3 45 35 46
3 47 48 49
3 48 50 49
3 48 10 50
3 49 50 51
3 12 50 10
3 47 52 48
3 52 53 48
3 52 43 53
3 48 53 10
3 10 53 23
3 43 52 44
3 35 54 36
3 54 38 36
3 38 55 39
3 55 38 56
3 44 57 45
3 57 35 45
3 52 58 44
3 59 60 61
3 62 63 60
3 63 64 60
3 65 66 67
3 66 68 67
3 66 69 68
3 70 67 71
3 67 72 73
3 21 63 74
3 75 63 62
3 51 76 77
3 76 78 77
3 76 12 78
3 77 78 65
3 51 79 80
3 79 81 82
3 51 77 79
3 77 73 79
3 77 65 73
3 79 73 81
3 12 76 50
3 50 76 51
3 81 73 72
3 67 73 65
3 65 78 66
3 66 78 83
3 5 84 15
3 42 85 13
3 85 14 13
3 42 86 85
3 85 87 14
3 88 16 89
3 87 89 14
3 14 89 5
3 5 89 16
3 30 90 91
3 90 72 91
3 90 81 72
3 91 72 29
3 29 72 70
3 70 72 67
3 81 90 82
3 82 90 92
3 30 91 27
3 27 91 29
3 16 88 34
3 45 86 42
3 61 6 2
3 2 6 0
3 61 93 6
3 93 84 6
3 93 94 84
3 6 84 5
3 69 95 96
3 97 98 99
3 98 74 99
3 98 20 74
3 99 74 75
3 75 74 63
3 21 74 20
3 43 100 101
3 100 102 101
3 101 102 23
3 40 100 41
3 41 100 43
3 43 101 53
3 53 101 23
3 97 103 98
3 103 19 98
3 103 104 19
3 98 19 20
3 20 19 18
3 9 105 7
3 7 105 106
3 13 105 107
3 105 108 107
3 105 9 108
3 107 108 40
3 13 107 42
3 42 107 40
3 95 109 96
3 95 110 109
3 110 111 109
3 110 97 111
3 109 111 112
3 102 24 23
3 23 24 18
3 102 113 24
3 113 108 24
3 113 40 108
3 24 108 9
3 40 113 100
3 100 113 102
3 112 111 114
3 99 111 97
3 97 110 103
3 104 103 115
3 7 116 8
3 8 116 21
3 94 117 118
3 117 106 118
3 117 7 106
3 118 106 15
3 15 106 13
3 13 106 105
3 21 119 63
3 63 119 64
3 94 120 117
3 120 121 117
3 120 64 121
3 117 121 7
3 7 121 116
3 121 119 116
3 121 64 119
3 116 119 21
3 94 118 84
3 84 118 15
3 96 122 69
3 69 122 68
3 68 122 123
3 124 122 125
3 70 126 29
3 29 126 3
3 22 127 4
3 4 127 128
3 129 32 130
3 32 31 25
3 25 31 27
3 30 31 131
3 31 129 131
3 31 32 129
3 131 129 132
3 39 132 36
3 36 132 133
3 133 132 129
3 132 92 131
3 132 39 92
3 131 92 30
3 30 92 90
3 82 92 134
3 22 135 127
3 135 114 127
3 135 112 114
3 127 114 75
3 75 114 99
3 99 114 111
3 112 136 109
3 109 136 96
3 68 71 67
3 70 71 126
3 126 137 3
3 22 138 135
3 138 139 135
3 138 140 139
3 135 139 112
3 112 139 136
3 139 125 136
3 139 140 125
3 136 125 96
3 96 125 122
3 124 125 140
3 124 140 141
3 17 142 11
3 11 142 12
3 17 143 142
3 144 142 145
3 142 144 12
3 12 144 78
3 146 95 147
3 148 149 146
3 149 115 146
3 149 104 115
3 146 115 95
3 148 143 149
3 143 150 149
3 143 17 150
3 149 150 104
3 104 150 19
3 19 150 17
3 95 115 110
3 110 115 103
3 4 151 1
3 1 151 2
3 62 128 75
3 75 128 127
3 133 130 152
3 130 153 152
3 130 34 153
3 152 153 37
3 133 152 36
3 36 152 37
3 62 154 128
3 154 155 128
3 154 59 155
3 128 155 4
3 4 155 151
3 155 156 151
3 155 59 156
3 151 156 2
3 2 156 61
3 156 59 61
3 59 154 60
3 154 62 60
3 144 83 78
3 66 83 69
3 88 153 34
3 137 157 3
3 3 157 22
3 22 157 141
3 157 158 141
3 157 137 158
3 141 158 124
3 34 130 32
3 129 130 133
3 124 123 122
3 123 71 68
3 71 159 126
3 159 137 126
3 71 123 159
3 123 158 159
3 123 124 158
3 159 158 137
3 22 141 138
3 138 141 140
3 148 145 143
3 143 145 142
3 144 145 83
3 145 147 83
3 145 148 147
3 83 147 69
3 69 147 95
3 146 147 148
3 55 56 160
3 161 162 163
3 162 164 163
3 162 56 164
3 163 164 47
3 47 164 165
3 164 166 165
3 164 56 166
3 165 166 167
3 56 168 166
3 168 169 166
3 168 54 169
3 166 169 167
3 54 168 38
3 38 168 56
3 167 169 170
3 169 171 170
3 169 54 171
3 170 171 57
3 57 171 35
3 35 171 54
3 57 172 170
3 172 173 170
3 172 58 173
3 170 173 167
3 58 172 44
3 44 172 57
3 167 173 165
3 173 174 165
3 173 58 174
3 165 174 47
3 163 47 175
3 47 174 52
3 174 58 52
3 82 80 79
3 51 80 49
3 55 134 39
3 39 134 92
3 82 134 176
3 134 160 176
3 134 55 160
3 176 160 161
3 82 176 80
3 175 80 161
3 176 161 80
3 80 175 49
3 86 177 85
3 177 87 85
3 86 46 177
3 46 178 177
3 46 37 178
3 177 178 87
3 37 179 178
3 179 180 178
3 179 88 180
3 178 180 87
3 87 180 89
3 89 180 88
3 37 46 35
3 46 86 45
3 93 181 94
3 94 181 120
3 60 182 61
3 182 93 61
3 120 183 64
3 64 183 60
3 60 183 182
3 183 181 182
3 183 120 181
3 182 181 93
3 88 179 153
3 153 179 37
3 161 160 162
3 162 160 56
3 49 175 47
3 163 175 161

CELL_TYPES 364
5
5
5
5
5
5
5
5
5
5
5
5
5
5
5
5
5
5
5
5
5
5
5
5
5
5
5
5
5
5
5
5
5
5
5
5
5
5
5
5
5
5
5
5
5
5
5
5
5
5
5
5
5
5
5
5
5
5
5
5
5
5
5
5
5
5
5
5
5
5
5
5
5
5
5
5
5
5
5
5
5
5
5
5
5
5
5
5
5
5
5
5
5
5
5
5
5
5
5
5
5
5
5
5
5
5
5
5
5
5
5
5
5
5
5
5
5
5
5
5
5
5
5
5
5
5
5
5
5
5
5
5
5
5
5
5
5
5
5
5
5
5
5
5
5
5
5
5
5
5
5
5
5
5
5
5
5
5
5
5
5
5
5
5
5
5
5
5
5
5
5
5
5
5
5
5
5
5
5
5
5
5
5
5
5
5
5
5
5
5
5
5
5
5
5
5
5
5
5
5
5
5
5
5
5
5
5
5
5
5
5
5
5
5
5
5
5
5
5
5
5
5
5
5
5
5
5
5
5
5
5
5
5
5
5
5
5
5
5
5
5
5
5
5
5
5
5
5
5
5
5
5
5
5
5
5
5
5
5
5
5
5
5
5
5
5
5
5
5
5
5
5
5
5
5
5
5
5
5
5
5
5
5
5
5
5
5
5
5
5
5
5
5
5
5
5
5
5
5
5
5
5
5
5
5
5
5
5
5
5
5
5
5
5
5
5
5
5
5
5
5
5
5
5
5
5
5
5
5
5
5
5
5
5
5
5
5
5
5
5
5
5
5
5
5
5
5
5
5
5
5
5
5
5
5
5
5
5
5
5
5
5
5
5

CELL_DATA 364
SCALARS cell_data_0 double
LOOKUP_TABLE default
1.91383870056e-05
1.19360943882e-05
4.98662899219e-05
2.46884652259e-05
5.95581626343e-06
3.24620984515e-05
3.24961138542e-05
4.32548568873e-05
6.6995007734e-06
9.84447285186e-07
1.49564218041e-05
2.11925630976e-05
7.22045518174e-06
2.21044057143e-06
1.06941237062e-05
1.0994739055e-05
4.27578452761e-06
4.31710125503e-06
1.31162742124e-05
2.04194915827e-06
3.72360334744e-06
6.84243090882e-07
6.16186561542e-06
1.98528916475e-05
4.96812592903e-06
6.6465054224e-06
3.06569694078e-06
2.63147251267e-06
6.02636773995e-06
1.30467141632e-05
8.23268581908e-06
1.67202255522e-05
1.14569032417e-06
9.1397256603e-07
1.85803531558e-06
2.44187225768e-06
1.712449179e-06
8.41103897702e-06
1.83232821945e-05
1.6441966804e-07
5.33963196193e-07
1.04968705417e-07
1.53531999618e-06
1.83086783391e-05
2.55434984311e-07
8.44446772372e-07
2.18680568032e-07
1.68422822022e-07
1.04820774961e-06
3.20104349387e-05
1.57788892904e-05
2.81104763684e-05
4.21667122608e-05
4.14533907814e-05
5.86144347228e-05
5.79980123911e-07
1.3553868714e-05
3.63858137283e-05
2.07226600897e-05
3.91765947394e-05
6.21370703022e-07
1.23550004803e-06
5.37848200335e-07
3.26312191291e-06
2.43988090905e-05
2.63843136467e-05
1.75076279414e-05
1.58433399682e-05
7.89823575601e-06
5.08647486202e-05
3.39091962525e-08
6.06749401794e-06
7.41166422601e-06
6.34944110315e-06
4.90479373949e-05
1.6429836401e-07
1.07454319365e-05
8.02353075469e-06
3.3012944017e-06
3.52406245036e-05
3.57762117562e-05
1.15242530069e-05
4.71476272465e-05
9.21819495616e-06
1.5995017392e-05
2.55794790766e-06
8.41626912168e-06
2.39142938906e-05
2.01614644229e-05
4.47093491782e-06
1.24189755515e-05
2.77281020853e-05
1.2229801634e-05
9.05152139247e-06
1.30982165959e-05
1.55308234171e-05
6.22309812422e-06
1.42563396548e-05
4.35835977471e-05
2.26150278663e-05
5.03721413992e-06
6.29748249994e-06
4.97005057382e-07
4.00659373732e-05
4.25019579226e-05
2.71508525673e-05
3.06524871476e-05
2.32157858732e-05
2.89797228684e-05
6.7186118756e-08
2.75139616429e-06
5.22233549803e-06
8.40952689813e-06
9.38444304832e-06
2.37532622611e-05
1.56137567434e-05
1.16305567802e-06
2.8638661214e-06
1.45754583908e-06
1.02752746223e-06
2.50786170839e-07
7.68089043065e-07
4.30751167175e-07
1.72523144741e-06
2.39301087725e-06
3.26367529212e-05
5.28518636947e-06
1.21481436959e-05
1.97267376512e-05
2.70469978676e-05
1.03185884687e-05
3.44242325997e-06
4.64528013273e-06
1.36970280343e-06
5.96289521427e-06
1.19492544857e-07
7.24002313217e-06
8.44315665517e-06
9.71050115505e-06
6.64613007643e-08
6.59704999717e-06
7.30710451274e-07
7.98334476323e-06
9.17621838704e-08
1.07612059755e-06
2.18051605171e-07
5.50733790621e-07
5.76019720787e-08
2.16558870336e-06
1.19755433441e-06
1.49886152056e-06
5.74176798093e-07
2.10575351223e-05
2.66486586092e-05
2.42337693314e-05
1.75010949634e-05
2.11632511734e-05
2.70828469936e-05
2.78745297799e-05
3.45659046496e-05
2.61925615238e-05
1.71403962877e-05
1.40950345792e-05
3.34720135105e-05
3.72303476976e-05
3.59079982346e-05
3.6378019905e-05
2.38192918107e-05
2.24874576442e-05
3.02049001457e-05
1.47849759792e-05
1.76295697856e-05
2.912491946e-05
4.35471064489e-05
5.67304229477e-05
5.89521374022e-05
5.70455849189e-05
5.62972877652e-06
7.35592932682e-06
8.78180769712e-06
1.24558369977e-05
7.19004115197e-07
1.88777983402e-07
1.54650907507e-06
1.2856253272e-05
1.51488547722e-07
2.34009070068e-07
1.5717803839e-06
8.58010620786e-07
2.13454268878e-05
1.69000279676e-05
1.06297034406e-05
1.03266502902e-05
2.77829475263e-05
4.62587671319e-05
1.63004805135e-05
2.91165361422e-06
2.6502108454e-06
1.77017717701e-06
5.54458982421e-06
5.56047349088e-06
2.04580230365e-06
4.29211503264e-06
4.85895893828e-06
1.15978003144e-06
2.2319873022e-07
3.25556340785e-05
1.20172859094e-06
6.74086980798e-07
3.15629188585e-06
8.9095398715e-07
6.43533685411e-07
3.42748293538e-07
4.61544884025e-06
1.75082576831e-07
2.22918934793e-05
2.05635257993e-05
2.0390217762e-05
3.62319242556e-06
4.4021358356e-06
8.51724435632e-07
1.31992452083e-06
1.98376991278e-06
1.2551833542e-06
5.32986017481e-08
1.65677482901e-05
1.39615543851e-07
1.84391394349e-05
1.27391915142e-07
2.27752817565e-05
1.28334991339e-07
7.74367109001e-08
1.82598802883e-05
3.44878217651e-05
1.03793168603e-06
1.77510029789e-07
7.92080170473e-08
1.54221623343e-05
1.65571150658e-05
1.69687221963e-05
1.35110597701e-05
9.39162872578e-06
1.05918934712e-06
1.45668392295e-06
1.45014510763e-06
1.50699511521e-05
2.57767991918e-06
1.19209162383e-05
6.8806347319e-06
6.34382877953e-06
8.18930412643e-06
9.05093579049e-06
7.34283230538e-06
7.58529803989e-06
1.12293565257e-05
1.85463167036e-05
7.38125713797e-06
9.3677457096e-06
2.08123445342e-05
1.27382608752e-05
1.14923359621e-05
2.7634422774e-06
2.75160985524e-05
9.69180488998e-07
5.53077681445e-07
3.81266034845e-06
2.08101035495e-05
2.01379311599e-05
1.50616797276e-06
9.65120537693e-06
7.33112003498e-05
5.18239263178e-06
7.01194720306e-06
2.39443463187e-05
1.07889972903e-05
1.9663816918e-05
3.19104258093e-05
2.56825124201e-05
7.08718989314e-07
4.09271937748e-06
2.50913671981e-05
9.31582173339e-07
6.26399641914e-06
5.15486682202e-06
2.28793362062e-05
5.84894478973e-06
5.31482678862e-07
1.81279235967e-05
2.74812298755e-05
8.66751511076e-06
6.62708123974e-09
3.84352148358e-06
4.19529053998e-06
4.21676862658e-06
1.37397160703e-07
3.82384156332e-06
3.55225541318e-06
3.16911645587e-06
1.45944745961e-07
4.73362741782e-06
2.98484632739e-06
8.09643515429e-06
5.20875787677e-06
3.00969825094e-06
1.39311649451e-07
5.05938248883e-06
9.63906216293e-06
2.77838112396e-05
1.65216451548e-05
9.41685260341e-06
1.25593883124e-07
1.36103444286e-07
3.07461837905e-06
3.78779662909e-07
1.9258300812e-05
3.41086415936e-06
8.83696372366e-08
1.10957763494e-07
3.97707089351e-06
5.3037887502e-06
8.62793101819e-06
1.60895072868e-07
5.32772597596e-06
2.71248844452e-07
2.88529277535e-05
8.9442391527e-06
1.50932882857e-06
7.08955329914e-08
1.48587242302e-05
1.08062747034e-05
2.08458794425e-06
1.72640929677e-05
1.85174426467e-05
5.57740253027e-08
2.34984370073e-06
2.69777997527e-06
1.05709976399e-06
7.21677893384e-07
2.232224674e-06
1.41786160839e-06
1.7713025695e-06
2.06158360487e-07
9.28232516597e-07
1.18833560311e-06
1.59933057627e-05
1.72612603968e-05
1.3533639108e-05
1.52289250732e-06
2.25802726044e-05
2.15848229133e-05
3.14561931401e-05
2.82483074573e-05
2.30691068932e-05
2.58400174252e-05
1.57626042706e-05
1.50231325841e-06
7.75245192229e-06
1.25196586572e-05
1.38033617551e-06
1.39397892001e-06
7.68966937042e-06
4.0860585271e-06
9.11545124635e-06
1.05812527198e-05

