# vtk DataFile Version 3.0
File Name: Molecule/sphere_excent/sphere_excent_0-s17.vtk
ASCII
DATASET UNSTRUCTURED_GRID
FIELD FieldData 1
TIME 1 1 double
0.0
POINTS 159 double
0.0022796913981 0.84377288818 0.53653001785
-0.53762191534 0.74102258682 0.40112784505
-0.32372775674 0.57104569674 0.75301516056
-0.83956754208 0.54134452343 0.039520960301
-0.81893622875 0.29936254025 0.48639017344
0.38683587313 0.51693630219 0.76317316294
0.033107198775 0.455363065 0.88918489218
0.32388997078 -0.55230379105 0.76773959398
0.0060331490822 -0.85479211807 0.51890867949
0.44382870197 -0.82881814241 0.33888104558
0.2408490181 -0.60154742002 -0.76161712408
-0.0083377026021 -0.85929143429 -0.51140826941
-0.29443004727 -0.53289979696 -0.79037904739
0.81244379282 -0.23227055371 0.53222954273
0.77180767059 0.25333210826 0.58301723003
0.54897749424 0.036224901676 0.83391970396
0.46780145168 0.78207606077 0.41125485301
-0.4092348814 -0.85611152649 -0.31200277805
0.0021885640454 -0.99982559681 0.0064864344895
-0.57961541414 -0.8130865097 0.032096818089
-0.43184316158 -0.82968711853 0.35350307822
-0.3294224143 -0.61282062531 0.7173768878
-0.99008178711 0.092298619449 0.057123154402
0.43769645691 -0.82674670219 -0.35143491626
0.58821743727 -0.80623161793 0.034287393093
0.0032719559968 0.99970787764 0.010641541332
-0.28344380856 0.941667974 0.18138185143
-0.26897579432 0.94434428215 -0.1876489073
-0.54733169079 0.83679455519 0.0090227518231
-0.58141285181 0.73956757784 -0.33781975508
0.011600210331 0.86561435461 -0.50023281574
0.14065568149 0.94418680668 -0.29366514087
0.27791109681 0.95432215929 -0.10120908916
0.27842086554 0.94202166796 0.18627806008
0.52701354027 0.84824508429 0.032852586359
0.84131801128 0.3568739295 -0.40512788296
0.68388426304 0.5853946209 -0.43536767364
0.83876311779 0.53759413958 -0.078118756413
0.58348459005 0.48629757762 -0.65040332079
0.4259583056 0.65179657936 -0.62616312504
0.89065045118 -0.45319479704 0.010275315493
0.95277953148 -0.18874442577 -0.23726648092
0.99335950613 -0.087291933596 0.070424415171
0.80540454388 -0.35558322072 -0.474180758
0.87233716249 -0.080893568695 -0.48203805089
0.96003401279 0.14369021356 -0.24003943801
0.54531341791 0.0095202336088 -0.83814239502
0.43092229962 -0.26725634933 -0.86195534468
0.27852520347 0.0067157619633 -0.96037906408
0.12976019084 -0.2888007164 -0.94831562042
-0.016989674419 0.027584601194 -0.9993596673
0.68170011044 -0.21593675017 -0.69900530577
0.57092118263 -0.4803571403 -0.66552698612
0.15462593734 0.48070427775 -0.86263549328
0.72467845678 0.34723070264 -0.59514456987
0.43564897776 0.44996467233 -0.77951711416
0.41869014502 0.23897501826 -0.87609839439
0.57621347904 0.28939574957 -0.76440161467
0.70113021135 0.16970705986 -0.69253414869
0.83677786589 0.15482228994 -0.52507215738
0.7424519062 -0.0035289558582 -0.66987413168
-0.44334468246 0.25328880548 0.85937702656
-0.29587253928 -0.00097815855406 0.95511060953
-0.20857083797 0.29372105002 0.93269115686
-0.59898507595 -0.018040416762 0.79852771759
-0.47785100341 -0.29034003615 0.82843387127
-0.18010336161 -0.2663629055 0.94626289606
-0.52297830582 0.0097618699074 -0.85230839252
-0.68141400814 -0.16729383171 -0.71235138178
-0.68655019999 0.18390291929 -0.70323497057
-0.84723591805 0.010670611635 -0.53138488531
-0.8074644804 -0.33335873485 -0.48484611511
-0.78784400225 0.38718903065 -0.47783833742
-0.49331474304 0.58835041523 -0.63994687796
-0.43225389719 0.26290526986 -0.86248487234
-0.65525746346 -0.57928693295 0.48360133171
-0.81052660942 -0.25501862168 0.52671575546
-0.18025971949 -0.22218425572 -0.95826411247
-0.2930341959 0.020156092942 -0.95589220524
-0.42314732075 -0.2345803231 -0.87332338095
-0.17579589784 0.27393093705 -0.94552510977
-0.27542483807 0.49725049734 -0.82225430012
-0.67399412394 -0.4517878592 -0.58058816195
0.21971024573 0.2350820452 0.94656020403
0.93940275908 0.13792601228 0.31299391389
0.96402603388 0.26081934571 0.051484048367
0.86353951693 0.42858085036 0.2659137845
0.7136310339 0.66776543856 0.21191987395
0.68146878481 0.55800253153 0.47346246243
-0.14392925799 0.70717507601 -0.69161081314
-0.2944701314 0.82531046867 -0.48143664002
0.21375872195 0.77377837896 -0.59399205446
-0.035851344466 0.14953246713 0.98803812265
0.10943160951 -0.019282951951 0.99352616072
-0.031796623021 -0.148520872 0.98815780878
-0.8501534462 -0.44824019074 -0.27528312802
-0.92841887474 -0.2526320219 -0.27004745603
-0.83586215973 -0.54407662153 0.069763049483
-0.70887184143 -0.67531102896 0.20352962613
-0.83725696802 -0.47228240967 0.27502125502
0.84372550249 -0.47872954607 -0.24276152253
0.69242978096 -0.59934961796 -0.40149259567
0.69055229425 -0.69708281755 -0.19122707844
-0.76155441999 -0.64730489254 -0.024680884555
-0.69722759724 -0.69515490532 -0.17356052995
0.66341990232 -0.57692378759 0.47365513444
0.48002541065 -0.2749556601 0.83194154501
0.86090278625 -0.42862981558 0.27354580164
0.72122901678 -0.66438347101 0.19528456032
-0.91914582253 -0.37356796861 -0.12474112213
-0.85461467505 -0.50990653038 -0.09819367528
-0.9085726738 -0.41422659159 0.048132240772
-0.9615111351 -0.27334231138 0.027532445267
0.7787297368 -0.62599980831 -0.039247855544
-0.925547719 -0.28374508023 0.25059464574
-0.78043454885 -0.5851328969 -0.21979357302
-0.01037420705 -0.59024745226 0.8067778945
0.21941362321 -0.26101794839 0.94010972977
0.31677061319 -0.040097601712 0.94740301371
-0.21496497095 -0.44839641452 0.86754906178
0.053026262671 -0.40249118209 0.91384297609
-0.91940134764 -0.11054665595 -0.37725239992
-0.93972617388 0.1176340282 -0.31811848283
-0.96738612652 0.027756286785 -0.24791868031
-0.96659225225 -0.14130945504 -0.21377627552
-0.85095220804 0.46876126528 -0.23670881987
-0.94989186525 -0.086892753839 0.29177391529
-0.73425084352 0.1343280673 0.66202056408
0.38359719515 0.89071965218 -0.24344189465
0.54037684202 0.82944405079 -0.14218407869
0.28744742274 0.86197263002 -0.41735911369
0.45613002777 0.75813150406 -0.46611228585
0.52815085649 0.79337006807 -0.30195322633
-0.98978096247 -0.11880151927 0.071119569242
-0.96075749397 -0.2472692579 -0.12549518049
-0.89916950464 0.23113647103 -0.3687415719
-0.94063198566 0.30258011818 -0.14833636582
-0.9983060956 -0.033195663244 -0.042000085115
-0.98498016596 -0.16317267716 -0.054878614843
-0.98815089464 -0.07382992655 -0.13203439116
-0.99146580696 0.063926629722 -0.11297767609
-0.38327506185 -0.72789472342 -0.56834030151
-0.54753553867 -0.73415893316 -0.4001685977
-0.5091701746 -0.57511359453 -0.63747507334
-0.59725034237 -0.60156035423 -0.53030765057
-0.76148170233 -0.54787814617 -0.34604465961
-0.74355077744 -0.48244893551 -0.46298643947
-0.66972863674 -0.60906499624 -0.42470309138
-0.68179613352 -0.66386556625 -0.307002455
-0.58053314686 -0.77353936434 -0.25407028198
-0.59562379122 0.46183416247 0.65656673908
0.69404989481 0.69267773628 -0.19601094723
0.69937878847 0.71427947283 -0.025498405099
-0.53781497478 0.13121573627 0.83280092478
-0.64824587107 0.28403884172 0.70650100708
-0.40877711773 0.41419330239 0.81261825562
-0.98043578863 0.18736389279 -0.060521323234
-0.96630221605 0.16534742713 -0.19669501483
-0.93345963955 0.25518921018 -0.25186821818

CELLS 314 1256
3 0 1 2
3 1 3 4
3 5 0 6
3 7 8 9
3 10 11 12
3 13 14 15
3 16 0 5
3 14 5 15
3 17 18 19
3 17 11 18
3 20 18 8
3 20 8 21
3 4 3 22
3 11 23 18
3 9 18 24
3 18 9 8
3 10 23 11
3 25 26 0
3 0 26 1
3 25 27 26
3 27 28 26
3 27 29 28
3 26 28 1
3 30 27 31
3 1 28 3
3 28 29 3
3 32 33 34
3 32 25 33
3 34 33 16
3 16 33 0
3 33 25 0
3 35 36 37
3 38 39 36
3 40 41 42
3 43 44 41
3 44 45 41
3 41 45 42
3 45 35 37
3 46 47 48
3 47 49 48
3 47 10 49
3 48 49 50
3 12 49 10
3 46 51 47
3 51 52 47
3 51 43 52
3 47 52 10
3 10 52 23
3 48 50 53
3 43 51 44
3 35 54 36
3 54 38 36
3 38 55 39
3 55 53 39
3 53 55 56
3 55 57 56
3 55 38 57
3 56 57 46
3 46 57 58
3 57 54 58
3 57 38 54
3 58 54 59
3 44 59 45
3 59 35 45
3 35 59 54
3 59 60 58
3 59 44 60
3 58 60 46
3 53 56 48
3 48 56 46
3 46 60 51
3 51 60 44
3 61 62 63
3 64 65 62
3 65 66 62
3 67 68 69
3 68 70 69
3 68 71 70
3 69 70 72
3 69 73 74
3 21 65 75
3 76 65 64
3 50 77 78
3 77 79 78
3 77 12 79
3 78 79 67
3 50 80 53
3 80 81 53
3 50 78 80
3 78 74 80
3 78 67 74
3 80 74 81
3 12 77 49
3 49 77 50
3 81 74 73
3 69 74 67
3 67 79 68
3 68 79 82
3 5 83 15
3 42 84 13
3 84 14 13
3 42 85 84
3 85 86 84
3 85 37 86
3 84 86 14
3 37 87 86
3 87 88 86
3 87 16 88
3 86 88 14
3 14 88 5
3 5 88 16
3 30 89 90
3 89 73 90
3 89 81 73
3 90 73 29
3 29 73 72
3 72 73 69
3 81 89 53
3 53 89 91
3 30 90 27
3 27 90 29
3 16 87 34
3 37 85 45
3 45 85 42
3 63 6 2
3 2 6 0
3 63 92 6
3 92 83 6
3 92 93 83
3 6 83 5
3 93 92 94
3 62 92 63
3 71 95 96
3 97 98 99
3 98 75 99
3 98 20 75
3 99 75 76
3 76 75 65
3 21 75 20
3 43 100 101
3 100 102 101
3 101 102 23
3 40 100 41
3 41 100 43
3 43 101 52
3 52 101 23
3 97 103 98
3 103 19 98
3 103 104 19
3 98 19 20
3 20 19 18
3 9 105 7
3 7 105 106
3 13 105 107
3 105 108 107
3 105 9 108
3 107 108 40
3 13 107 42
3 42 107 40
3 95 109 96
3 95 110 109
3 110 111 109
3 110 97 111
3 109 111 112
3 102 24 23
3 23 24 18
3 102 113 24
3 113 108 24
3 113 40 108
3 24 108 9
3 40 113 100
3 100 113 102
3 112 111 114
3 99 111 97
3 97 110 103
3 104 103 115
3 7 116 8
3 8 116 21
3 93 117 118
3 117 106 118
3 117 7 106
3 118 106 15
3 15 106 13
3 13 106 105
3 21 119 65
3 65 119 66
3 66 94 62
3 62 94 92
3 93 94 117
3 94 120 117
3 94 66 120
3 117 120 7
3 7 120 116
3 120 119 116
3 120 66 119
3 116 119 21
3 93 118 83
3 83 118 15
3 96 121 71
3 71 121 70
3 70 121 122
3 123 121 124
3 72 125 29
3 29 125 3
3 22 126 4
3 4 126 127
3 128 32 129
3 32 31 25
3 25 31 27
3 30 31 130
3 31 128 130
3 31 32 128
3 130 128 131
3 39 131 36
3 36 131 132
3 132 131 128
3 131 91 130
3 131 39 91
3 130 91 30
3 30 91 89
3 53 91 39
3 22 133 126
3 133 114 126
3 133 112 114
3 126 114 76
3 76 114 99
3 99 114 111
3 112 134 109
3 109 134 96
3 70 135 72
3 72 135 125
3 125 136 3
3 22 137 133
3 137 138 133
3 137 139 138
3 133 138 112
3 112 138 134
3 138 124 134
3 138 139 124
3 134 124 96
3 96 124 121
3 123 124 139
3 123 139 140
3 17 141 11
3 11 141 12
3 17 142 141
3 143 141 144
3 141 143 12
3 12 143 79
3 145 95 146
3 147 148 145
3 148 115 145
3 148 104 115
3 145 115 95
3 147 142 148
3 142 149 148
3 142 17 149
3 148 149 104
3 104 149 19
3 19 149 17
3 95 115 110
3 110 115 103
3 4 150 1
3 1 150 2
3 64 127 76
3 76 127 126
3 132 129 151
3 129 152 151
3 129 34 152
3 151 152 37
3 132 151 36
3 36 151 37
3 64 153 127
3 153 154 127
3 153 61 154
3 127 154 4
3 4 154 150
3 154 155 150
3 154 61 155
3 150 155 2
3 2 155 63
3 155 61 63
3 61 153 62
3 153 64 62
3 143 82 79
3 68 82 71
3 37 152 87
3 87 152 34
3 136 156 3
3 3 156 22
3 22 156 140
3 156 157 140
3 156 136 157
3 140 157 123
3 34 129 32
3 128 129 132
3 123 122 121
3 122 135 70
3 135 158 125
3 158 136 125
3 135 122 158
3 122 157 158
3 122 123 157
3 158 157 136
3 22 140 137
3 137 140 139
3 147 144 142
3 142 144 141
3 143 144 82
3 144 146 82
3 144 147 146
3 82 146 71
3 71 146 95
3 145 146 147

CELL_TYPES 314
5
5
5
5
5
5
5
5
5
5
5
5
5
5
5
5
5
5
5
5
5
5
5
5
5
5
5
5
5
5
5
5
5
5
5
5
5
5
5
5
5
5
5
5
5
5
5
5
5
5
5
5
5
5
5
5
5
5
5
5
5
5
5
5
5
5
5
5
5
5
5
5
5
5
5
5
5
5
5
5
5
5
5
5
5
5
5
5
5
5
5
5
5
5
5
5
5
5
5
5
5
5
5
5
5
5
5
5
5
5
5
5
5
5
5
5
5
5
5
5
5
5
5
5
5
5
5
5
5
5
5
5
5
5
5
5
5
5
5
5
5
5
5
5
5
5
5
5
5
5
5
5
5
5
5
5
5
5
5
5
5
5
5
5
5
5
5
5
5
5
5
5
5
5
5
5
5
5
5
5
5
5
5
5
5
5
5
5
5
5
5
5
5
5
5
5
5
5
5
5
5
5
5
5
5
5
5
5
5
5
5
5
5
5
5
5
5
5
5
5
5
5
5
5
5
5
5
5
5
5
5
5
5
5
5
5
5
5
5
5
5
5
5
5
5
5
5
5
5
5
5
5
5
5
5
5
5
5
5
5
5
5
5
5
5
5
5
5
5
5
5
5
5
5
5
5
5
5
5
5
5
5
5
5
5
5
5
5
5
5
5
5
5
5
5
5
5
5
5
5
5
5
5
5
5
5
5
5
5
5
5
5
5
5

CELL_DATA 314
SCALARS cell_data_0 double
LOOKUP_TABLE default
1.88279353612e-05
1.39633240979e-05
4.88913354979e-05
2.76076182437e-05
6.0106718895e-06
3.55523637946e-05
3.33705337816e-05
4.71083226582e-05
6.94610720365e-06
8.31316367305e-07
1.54584228418e-05
2.33387139966e-05
9.30031313193e-06
2.39057760242e-06
1.04556791367e-05
1.14112033982e-05
4.18980768743e-06
4.2473313674e-06
1.27943936912e-05
1.97175662322e-06
3.62943607451e-06
6.2360109493e-07
6.08539804775e-06
2.07814453293e-05
5.05754867932e-06
6.47358453645e-06
3.67782589437e-06
3.4230767714e-06
6.33529930413e-06
1.30895277467e-05
8.11644271992e-06
1.81535755465e-05
1.2293224886e-06
1.40144124326e-06
1.67865101469e-06
2.36196409925e-06
1.86583415353e-06
1.89350575204e-05
2.19123518074e-05
3.77754395962e-07
3.07671302256e-07
2.90007218962e-08
1.01977369898e-06
2.04102107704e-05
5.86171529822e-07
1.10192052855e-06
1.31557455304e-07
3.76022505473e-07
8.61620493656e-06
1.24636634765e-06
4.67474879911e-06
8.77073724281e-07
5.73945418094e-07
3.35046301559e-06
3.8448428048e-05
6.83301704062e-05
3.15996783271e-05
0.000134698129791
0.000149810587937
7.60092576013e-05
3.38764445467e-05
5.0013541165e-05
1.58955799429e-05
2.83988447993e-05
2.20820548863e-05
8.14219798568e-05
4.13581067053e-05
9.79362851479e-05
5.56056673015e-05
6.25453908137e-05
4.71758671031e-05
1.75709380533e-05
4.53325965345e-05
4.02829539773e-05
1.89088983224e-05
4.0657866096e-05
2.83230206238e-07
1.49793334439e-06
8.3691251212e-07
2.85191078012e-06
2.60883121464e-05
3.00940946092e-05
5.78849244966e-06
1.40152227256e-05
8.80913018522e-06
6.58065669987e-05
6.91310235545e-06
6.23622684778e-06
5.72835246364e-06
4.41927996891e-06
4.59952849468e-05
2.50086605329e-07
4.45261969825e-08
8.68712878046e-08
2.49404570135e-06
3.63250357775e-05
5.38865550827e-05
1.02052935421e-05
4.97594845538e-05
9.33040728756e-06
1.64700483234e-05
2.49129071016e-06
4.74855445064e-06
1.18384256096e-06
8.67057637508e-06
6.16730777412e-05
3.27092924714e-05
3.53398606029e-05
9.66485879091e-06
2.23245750109e-05
1.721736479e-05
2.75749621558e-05
9.78760599723e-06
5.21230888681e-06
1.45024879339e-05
1.44924464617e-05
6.32622405307e-06
1.07143764084e-05
1.29937068782e-05
2.7188580779e-05
6.97192489694e-06
4.4145734022e-05
8.38341607681e-07
1.89153469954e-07
4.02247986327e-05
4.12603422347e-05
2.10033451644e-05
2.48288601667e-05
1.6787532298e-05
2.91783325884e-05
2.95499138975e-05
1.37098772286e-05
9.2469379384e-08
2.72737902376e-06
5.0584901245e-06
7.92370467476e-06
8.969814493e-06
2.49735360832e-05
1.66153402373e-05
1.10415191827e-06
2.64796443604e-06
1.28648627773e-06
8.29381801334e-07
4.21480419061e-08
8.0363411861e-07
5.31701534445e-07
1.6647125834e-06
2.19636126207e-06
3.43104507708e-05
4.8317975673e-06
1.20565256595e-05
2.03523799013e-05
2.80943201175e-05
9.37211585101e-06
3.27437430394e-06
4.11208955886e-06
1.4392515247e-06
5.88154069023e-06
2.67134271592e-07
8.25412237891e-06
8.63833421028e-06
9.43741029892e-06
5.66760250488e-08
4.18263444179e-05
5.16044111944e-07
8.35853589775e-06
6.54301225417e-10
7.84257281318e-07
7.58055055469e-08
5.73709727456e-07
6.23238234279e-09
1.89774258579e-06
2.69054078886e-05
1.40117856851e-06
5.21144699224e-07
2.03920046348e-05
2.80570360112e-05
2.55000470838e-05
1.79080846547e-05
2.06394296664e-05
2.49976828129e-05
2.69795623665e-05
3.50630229956e-05
2.70494609805e-05
1.57527441873e-05
1.29093700977e-05
3.28791281209e-05
5.1280605095e-05
3.28031383128e-05
3.72089872343e-05
3.52786233741e-05
3.26533528948e-05
2.28192526102e-05
2.23796360342e-05
2.94863608623e-05
1.40883118261e-05
1.80124705511e-05
2.94733636825e-05
2.52472698006e-05
3.33643088273e-05
4.71915943492e-05
4.41238918226e-05
5.45020142785e-06
7.1637848257e-06
1.01234221923e-05
1.31470323266e-05
9.99389195769e-07
1.40727219198e-06
1.62319473221e-06
1.62460589082e-05
1.22265478884e-06
8.77544591213e-07
8.7944595485e-06
6.08180866415e-06
3.18066377559e-05
2.27159176059e-05
1.00042694499e-05
6.76294378972e-06
1.65095242022e-05
2.10463675736e-05
4.95802492944e-06
2.36905996089e-06
2.4618839707e-06
2.65194504225e-05
4.739277894e-06
4.99720681773e-06
2.19723222981e-06
3.15681079222e-05
4.8558973768e-06
3.68569208442e-07
4.18206308094e-07
4.24760254474e-07
6.1203187843e-07
2.39474935731e-07
3.88546108432e-06
1.51462124908e-05
1.27957960684e-05
3.47670101558e-07
4.07005932319e-06
4.0982137052e-07
9.92849612196e-06
2.18207049047e-05
3.82684695966e-05
3.55985606268e-06
3.8225976095e-06
1.02416222825e-06
7.5005348073e-07
1.61704210169e-06
1.17605034816e-05
6.93618977231e-08
1.70610000107e-05
1.21731780802e-07
1.6793806993e-05
2.74013962057e-07
2.29942538634e-05
1.91555225496e-08
2.23641284838e-07
1.88231318989e-05
3.69233626182e-05
6.98609132457e-07
3.62111134274e-08
2.37518435162e-07
1.5568646565e-05
1.73981907251e-05
1.7613732987e-05
1.57050143595e-05
1.03662859102e-05
1.00453478945e-06
1.16621509128e-06
1.2581211421e-06
1.69588882294e-05
2.15943271339e-06
1.03061481942e-05
5.93991775344e-06
9.15614051637e-06
5.76790024862e-06
6.94622275655e-06
9.90677805009e-06
5.58393452895e-06
9.83445011631e-06
1.78244689367e-05
1.60010592622e-05
2.38459175216e-05
2.03265169685e-05
1.10539006379e-05
1.8949359772e-06
4.2145863157e-05
2.85215857738e-05
3.28297951248e-07
4.16555833444e-07
4.07526284936e-06
8.07940478251e-06
2.25422090996e-06
2.84191709043e-05
1.7729392723e-06
9.57499096021e-06
5.57958546872e-05
7.92193337847e-06
1.21885324345e-07
2.49554546692e-07
4.0560149907e-06
7.5353356063e-06
2.47433125369e-05
1.67061939418e-06
3.97590793976e-06
9.59589634615e-06
2.40850570168e-05
7.63997249223e-07
6.64207686483e-07
2.96077072583e-07
2.07538754802e-05
7.95376254097e-07
5.42225652321e-07
1.7957537391e-05

