# vtk DataFile Version 3.0
File Name: Molecule/sphere_excent/sphere_excent_0-s16.vtk
ASCII
DATASET UNSTRUCTURED_GRID
FIELD FieldData 1
TIME 1 1 double
0.0
POINTS 143 double
0.0023772185668 0.84464275837 0.53517431021
-0.53644216061 0.74278849363 0.39988058805
-0.33044025302 0.56524682045 0.75530290604
-0.81164544821 0.30056557059 0.50082743168
-0.84157860279 0.53794026375 0.03132615611
0.38145509362 0.51588243246 0.76648890972
0.035101599991 0.4497359097 0.89194113016
0.32246848941 -0.54222011566 0.77518701553
0.0055046277121 -0.854401052 0.51955664158
0.45176026225 -0.82673281431 0.33275184035
0.24450802803 -0.59766000509 -0.7633215785
-0.0075743887573 -0.85865139961 -0.5124964118
-0.31561917067 -0.52976375818 -0.78486007452
0.81099361181 -0.24409140646 0.5283664465
0.77380156517 0.25575089455 0.57916539907
0.5451965332 0.028885204345 0.83638417721
0.47107774019 0.78137814999 0.40840813518
-0.42191365361 -0.84763199091 -0.31566944718
0.0013447599486 -0.9998010993 0.005696461536
-0.58610165119 -0.80809146166 0.035554341972
-0.43906757236 -0.82752263546 0.34951195121
-0.32534655929 -0.60472196341 0.72566097975
-0.60068482161 -0.002014271915 0.79895675182
-0.81488841772 -0.25772973895 0.51826310158
-0.99444067478 0.076885566115 0.034472968429
0.44473436475 -0.82529294491 -0.34550285339
0.59504622221 -0.80068218708 0.040001828223
0.0032470836304 0.99976974726 0.0073561444879
-0.28258949518 0.9421979785 0.18033967912
-0.27164012194 0.94385451078 -0.18556372821
-0.54661035538 0.83738088608 0.0076174205169
-0.57807844877 0.74128657579 -0.34021508694
0.019875278696 0.86468309164 -0.50151729584
0.14803473651 0.93899947405 -0.30429840088
0.52366143465 0.79576450586 -0.29989984632
0.53784161806 0.84273016453 0.023126004264
0.83354651928 0.54612261057 -0.074764423072
0.27388480306 0.95374196768 -0.11304732412
0.27904003859 0.94257760048 0.18292240798
0.84027445316 0.35375478864 -0.40996176004
0.68443036079 0.58442002535 -0.43591716886
0.58330261707 0.48612454534 -0.65071201324
0.42325660586 0.6581441164 -0.62052339315
0.88564831018 -0.46232107282 0.011475807987
0.95302128792 -0.18545302749 -0.23882059753
0.99395400286 -0.080896914005 0.068535111845
0.80585068464 -0.35706233978 -0.4722878933
0.87170708179 -0.078732222319 -0.48353219032
0.95949923992 0.14518329501 -0.24133245647
0.54435420036 0.0099190399051 -0.83875584602
0.4314891696 -0.26546314359 -0.86222362518
0.27857089043 0.0069607947953 -0.9603523612
0.13272187114 -0.28615796566 -0.94860196114
-0.017841443419 0.027007842436 -0.99934899807
0.68223744631 -0.21361903846 -0.69918268919
0.5725620985 -0.47613602877 -0.66710537672
0.1599907577 0.48264411092 -0.86052006483
0.7234954834 0.34663760662 -0.59699648619
0.43586748838 0.4509216249 -0.7788438201
0.41974851489 0.23976907134 -0.87537330389
0.57631999254 0.28708699346 -0.76519781351
0.70087939501 0.1697525382 -0.69277364016
0.8358412385 0.15394034982 -0.52682775259
0.74113208055 -0.0025008975063 -0.67133510113
-0.45287290215 0.25402474403 0.85424780846
-0.20574449003 0.29102766514 0.93430650234
-0.29238545895 -0.0011803871021 0.95631355047
-0.47363510728 -0.2842977941 0.83261054754
-0.17373463511 -0.26870569587 0.94679456949
-0.52231931686 0.0087445545942 -0.85261827707
-0.68051791191 -0.16524532437 -0.71222501993
-0.68749815226 0.18142805994 -0.70288127661
-0.84949505329 0.0083478828892 -0.52789568901
-0.80172300339 -0.34137663245 -0.49058353901
-0.79428553581 0.38288536668 -0.46864664555
-0.49043884873 0.59221440554 -0.63839811087
-0.43200990558 0.2605933249 -0.86329704523
-0.65946161747 -0.58053690195 0.47615662217
-0.51915496588 -0.578160882 -0.62486827374
-0.18138797581 -0.22340370715 -0.95772367716
-0.29276028275 0.019214354455 -0.95597451925
-0.41734594107 -0.22501195967 -0.87979859114
-0.17616288364 0.27407297492 -0.94540727139
-0.27918282151 0.49765151739 -0.82067590952
0.21531029046 0.23573677242 0.94739001989
0.94000798464 0.14071770012 0.30982354283
0.9635425806 0.26289057732 0.050377253443
0.8633852005 0.42945948243 0.26488009095
0.71417248249 0.66757851839 0.21082496643
0.68278968334 0.55824053288 0.47107589245
-0.14871706069 0.70648598671 -0.69114506245
-0.29127019644 0.82697844505 -0.48051133752
0.22002653778 0.77777916193 -0.58589828014
-0.036554839462 0.1500209868 0.9878680706
0.10241828114 -0.022694919258 0.99406480789
-0.032707620412 -0.15090620518 0.98771101236
-0.84855389595 -0.45416164398 -0.26941460371
-0.93221199512 -0.23971427977 -0.26442140341
-0.83843493462 -0.54073309898 0.063481211662
-0.71099287271 -0.67457568645 0.19862927496
-0.84088397026 -0.46881696582 0.27018421888
0.84430366755 -0.47768056393 -0.24283702672
0.69241899252 -0.6012532115 -0.39865711331
0.69267678261 -0.69609457254 -0.18672598898
-0.76435863972 -0.64377349615 -0.028437612578
-0.69734185934 -0.69304567575 -0.17987985909
0.66706085205 -0.58001214266 0.46409881115
0.47084873915 -0.27131435275 0.83802127838
0.86085885763 -0.42997309566 0.2717000246
0.72025108337 -0.66659903526 0.19102270901
-0.9194868803 -0.37269848585 -0.12492102385
-0.85520488024 -0.5085452795 -0.099869698286
-0.90864127874 -0.4146989882 0.038624536246
-0.96150004864 -0.27328416705 0.02838467434
0.77987849712 -0.62432235479 -0.042275778949
-0.92435985804 -0.2841270864 0.2538408637
-0.77888005972 -0.58488565683 -0.22520297766
-0.0083685591817 -0.58398556709 0.81127262115
0.21530592442 -0.26348471642 0.94040840864
0.31297656894 -0.037426684052 0.94880366325
-0.21713238955 -0.44487693906 0.86884891987
0.058714393526 -0.40260654688 0.9133939743
-0.91819387674 -0.1117349565 -0.37956601381
-0.96494805813 0.044605452567 -0.25789541006
-0.96757698059 -0.14166580141 -0.20881144702
-0.94632267952 0.28966009617 -0.14345754683
-0.85291802883 0.46667477489 -0.23306630552
-0.95361143351 -0.10192620754 0.28025469184
0.38779789209 0.89049434662 -0.23756328225
0.28849455714 0.86158716679 -0.41743794084
0.45886725187 0.75590968132 -0.46682605147
-0.99108928442 -0.11764584482 0.058173753321
-0.96117317677 -0.24706059694 -0.12256620824
-0.91009092331 0.21741256118 -0.35309401155
-0.99844247103 -0.030870683491 -0.048115160316
-0.98420202732 -0.16785848141 -0.055354129523
-0.98784470558 -0.084888219833 -0.12952813506
-0.38841369748 -0.72371804714 -0.5704356432
-0.5535184741 -0.73500496149 -0.38933449984
-0.66600996256 -0.60817188025 -0.43018838763
-0.7646971941 -0.54248523712 -0.34737443924
-0.68430960178 -0.66064369678 -0.30847406387
-0.5788962841 -0.7739918232 -0.25655654073

CELLS 282 1128
3 0 1 2
3 1 3 2
3 1 4 3
3 5 0 6
3 7 8 9
3 10 11 12
3 13 14 15
3 16 0 5
3 14 5 15
3 17 18 19
3 17 11 18
3 20 18 8
3 20 8 21
3 22 3 23
3 3 4 24
3 11 25 18
3 9 18 26
3 18 9 8
3 10 25 11
3 27 28 0
3 0 28 1
3 27 29 28
3 29 30 28
3 29 31 30
3 28 30 1
3 32 29 33
3 1 30 4
3 30 31 4
3 34 35 36
3 37 38 35
3 37 27 38
3 35 38 16
3 16 38 0
3 38 27 0
3 39 40 36
3 36 40 34
3 41 42 40
3 43 44 45
3 46 47 44
3 47 48 44
3 44 48 45
3 48 39 36
3 49 50 51
3 50 52 51
3 50 10 52
3 51 52 53
3 12 52 10
3 49 54 50
3 54 55 50
3 54 46 55
3 50 55 10
3 10 55 25
3 51 53 56
3 46 54 47
3 39 57 40
3 57 41 40
3 41 58 42
3 58 56 42
3 56 58 59
3 58 60 59
3 58 41 60
3 59 60 49
3 49 60 61
3 60 57 61
3 60 41 57
3 61 57 62
3 47 62 48
3 62 39 48
3 39 62 57
3 62 63 61
3 62 47 63
3 61 63 49
3 56 59 51
3 51 59 49
3 49 63 54
3 54 63 47
3 22 64 3
3 3 64 2
3 2 64 65
3 64 66 65
3 64 22 66
3 22 67 66
3 67 68 66
3 69 70 71
3 70 72 71
3 70 73 72
3 71 72 74
3 71 75 76
3 21 67 77
3 23 67 22
3 73 70 78
3 53 79 80
3 79 81 80
3 79 12 81
3 80 81 69
3 53 82 56
3 82 83 56
3 53 80 82
3 80 76 82
3 80 69 76
3 82 76 83
3 12 79 52
3 52 79 53
3 83 76 75
3 71 76 69
3 69 81 70
3 70 81 78
3 5 84 15
3 45 85 13
3 85 14 13
3 45 86 85
3 86 87 85
3 86 36 87
3 85 87 14
3 36 88 87
3 88 89 87
3 88 16 89
3 87 89 14
3 14 89 5
3 5 89 16
3 32 90 91
3 90 75 91
3 90 83 75
3 91 75 31
3 31 75 74
3 74 75 71
3 83 90 56
3 56 90 92
3 32 91 29
3 29 91 31
3 16 88 35
3 35 88 36
3 36 86 48
3 48 86 45
3 65 6 2
3 2 6 0
3 65 93 6
3 93 84 6
3 93 94 84
3 6 84 5
3 94 93 95
3 66 93 65
3 73 96 97
3 98 99 100
3 99 77 100
3 99 20 77
3 100 77 23
3 23 77 67
3 21 77 20
3 46 101 102
3 101 103 102
3 102 103 25
3 43 101 44
3 44 101 46
3 46 102 55
3 55 102 25
3 98 104 99
3 104 19 99
3 104 105 19
3 99 19 20
3 20 19 18
3 9 106 7
3 7 106 107
3 13 106 108
3 106 109 108
3 106 9 109
3 108 109 43
3 13 108 45
3 45 108 43
3 96 110 97
3 96 111 110
3 111 112 110
3 111 98 112
3 110 112 113
3 103 26 25
3 25 26 18
3 103 114 26
3 114 109 26
3 114 43 109
3 26 109 9
3 43 114 101
3 101 114 103
3 113 112 115
3 100 112 98
3 98 111 104
3 105 104 116
3 7 117 8
3 8 117 21
3 94 118 119
3 118 107 119
3 118 7 107
3 119 107 15
3 15 107 13
3 13 107 106
3 21 120 67
3 67 120 68
3 68 95 66
3 66 95 93
3 94 95 118
3 95 121 118
3 95 68 121
3 118 121 7
3 7 121 117
3 121 120 117
3 121 68 120
3 117 120 21
3 94 119 84
3 84 119 15
3 97 122 73
3 73 122 72
3 72 122 123
3 123 122 124
3 4 125 24
3 24 125 123
3 74 126 31
3 31 126 4
3 24 127 3
3 3 127 23
3 34 128 35
3 128 37 35
3 37 33 27
3 27 33 29
3 32 33 129
3 33 128 129
3 33 37 128
3 129 128 34
3 42 130 40
3 40 130 34
3 34 130 129
3 130 92 129
3 130 42 92
3 129 92 32
3 32 92 90
3 56 92 42
3 24 131 127
3 131 115 127
3 131 113 115
3 127 115 23
3 23 115 100
3 100 115 112
3 113 132 110
3 110 132 97
3 123 133 72
3 72 133 74
3 74 133 126
3 133 125 126
3 133 123 125
3 126 125 4
3 24 134 131
3 134 135 131
3 134 136 135
3 131 135 113
3 113 135 132
3 135 124 132
3 135 136 124
3 132 124 97
3 97 124 122
3 123 124 136
3 136 134 123
3 123 134 24
3 17 137 11
3 11 137 12
3 17 138 137
3 138 78 137
3 138 139 78
3 137 78 12
3 12 78 81
3 78 139 73
3 139 140 73
3 73 140 96
3 139 141 140
3 141 116 140
3 141 105 116
3 140 116 96
3 139 138 141
3 138 142 141
3 138 17 142
3 141 142 105
3 105 142 19
3 19 142 17
3 96 116 111
3 111 116 104

CELL_TYPES 282
5
5
5
5
5
5
5
5
5
5
5
5
5
5
5
5
5
5
5
5
5
5
5
5
5
5
5
5
5
5
5
5
5
5
5
5
5
5
5
5
5
5
5
5
5
5
5
5
5
5
5
5
5
5
5
5
5
5
5
5
5
5
5
5
5
5
5
5
5
5
5
5
5
5
5
5
5
5
5
5
5
5
5
5
5
5
5
5
5
5
5
5
5
5
5
5
5
5
5
5
5
5
5
5
5
5
5
5
5
5
5
5
5
5
5
5
5
5
5
5
5
5
5
5
5
5
5
5
5
5
5
5
5
5
5
5
5
5
5
5
5
5
5
5
5
5
5
5
5
5
5
5
5
5
5
5
5
5
5
5
5
5
5
5
5
5
5
5
5
5
5
5
5
5
5
5
5
5
5
5
5
5
5
5
5
5
5
5
5
5
5
5
5
5
5
5
5
5
5
5
5
5
5
5
5
5
5
5
5
5
5
5
5
5
5
5
5
5
5
5
5
5
5
5
5
5
5
5
5
5
5
5
5
5
5
5
5
5
5
5
5
5
5
5
5
5
5
5
5
5
5
5
5
5
5
5
5
5
5
5
5
5
5
5
5
5
5
5
5
5
5
5
5
5
5
5
5
5
5
5
5
5

CELL_DATA 282
SCALARS cell_data_0 double
LOOKUP_TABLE default
1.77376703847e-05
1.4253732606e-05
2.99551615778e-05
5.03325955812e-05
3.00559507144e-05
2.53074549266e-05
3.20276034086e-05
3.08227376517e-05
4.8519789106e-05
7.55935145287e-06
1.41810770296e-05
8.64183434476e-06
2.31460267642e-05
1.82172684316e-06
4.23203686171e-05
1.02785821357e-05
6.68597811063e-06
8.23831061084e-06
1.74120908642e-05
7.70579399153e-06
1.53834106079e-05
2.48874504289e-06
3.52912684522e-06
4.00047484213e-06
6.94188812372e-06
2.71966976451e-05
4.00545958369e-06
7.89266901826e-06
7.19572562314e-05
3.051333158e-06
2.90833358857e-06
6.07231148812e-06
1.25771841114e-05
7.14406221561e-06
2.24346398961e-05
6.32295593107e-05
6.44162300594e-07
8.01495118188e-07
1.96062647763e-06
2.61825981742e-06
1.07662065118e-06
1.86553598882e-05
2.29376829436e-05
1.94956290789e-07
7.95591438996e-07
1.78239135449e-06
1.94101565751e-06
2.1450070634e-05
6.16495684036e-07
1.03401901743e-06
2.7755090465e-07
1.41909679255e-06
1.29220691521e-05
1.32556042782e-06
5.45651240612e-06
5.28466204532e-07
5.69055851672e-07
3.31180682962e-06
3.71176547936e-06
1.07271380019e-07
2.97791311258e-07
1.4364133454e-05
1.33643986389e-05
3.13291473191e-07
4.78343491383e-07
1.42080707493e-05
2.14594466929e-05
3.53742368304e-05
2.65051478856e-05
5.01864461743e-05
6.49782736834e-05
5.37647447081e-05
5.73527598383e-06
1.94893537129e-05
6.81859214275e-05
3.07339878076e-05
7.9904703442e-05
8.59591610365e-05
9.74869177082e-06
7.08908857427e-06
2.85443863245e-05
3.84099992862e-05
5.84926662816e-05
3.88928843504e-05
4.85408196361e-07
3.53531584967e-07
2.15880364999e-07
3.87906831038e-06
2.35476253755e-05
3.33284965933e-05
4.27801673057e-07
1.95698176549e-06
2.10040762232e-07
6.51586487558e-07
3.16921200412e-05
2.58935317299e-05
2.27718230941e-05
8.16679170717e-06
5.48318929331e-06
3.41428484899e-05
7.23617400995e-06
8.06202527536e-07
2.23026128539e-06
4.93920181059e-06
3.77377381149e-05
3.44305376975e-05
1.17291259603e-06
5.05761093112e-05
8.5928163359e-06
1.63665132812e-05
2.49370971074e-06
4.39875463628e-06
1.74323854829e-06
7.66054764193e-06
2.48354207914e-06
2.08470446475e-05
2.38569129961e-05
1.84202306364e-05
2.00748621047e-05
3.33889389548e-05
3.05216280796e-05
1.08213485127e-05
1.00904311789e-05
1.17216402501e-05
1.19915130457e-05
4.32954679425e-06
1.80854376057e-05
1.84331998825e-05
3.02374488901e-05
7.36387454691e-06
6.28163467858e-06
1.79200116817e-06
5.05398098723e-07
1.56059538894e-07
4.03015694738e-05
4.75789764136e-05
3.78227864593e-05
2.7427068414e-05
2.18408263627e-05
3.42399629594e-05
1.78989520854e-05
4.16433089442e-05
9.58168747801e-07
3.04052984118e-05
3.88866328027e-05
5.82552473239e-05
8.71830665564e-06
2.17960199411e-05
1.75650949098e-05
2.45245964449e-06
3.50748491581e-06
1.98340005269e-06
1.57964283498e-06
7.40894383774e-07
1.04905170147e-06
9.59030345022e-07
2.4890003488e-05
3.91799562872e-05
3.50525460823e-05
5.91479958863e-05
1.03819093366e-05
2.12964641278e-05
2.71100215705e-05
8.34010294176e-06
5.0562416192e-06
6.14307515215e-06
3.46432063668e-06
4.00229042951e-06
3.03285275498e-07
7.08332684385e-07
9.66150942247e-06
1.11655302465e-05
6.37826504893e-06
9.695880582e-07
2.26964435578e-07
7.02182814686e-06
3.17348787081e-07
1.13592512581e-06
1.90968049429e-06
2.05135638666e-06
3.75536902334e-07
8.72215156581e-07
1.27817989835e-06
1.22397112258e-06
5.38913056583e-06
2.18257899105e-05
2.94587703962e-05
2.59879236967e-05
1.8823798886e-05
1.98264459482e-05
2.26708522878e-05
2.06584548717e-05
2.90131135875e-05
2.52804980003e-05
1.52662155276e-05
1.37075969012e-05
4.24683696394e-05
6.64857396211e-05
1.74361129646e-05
3.15757050667e-05
2.79218587179e-05
2.99819106212e-05
2.48479637626e-05
2.09484789469e-05
2.49360274749e-05
1.35104835209e-05
1.83520860615e-05
2.18246670524e-05
1.65232594129e-05
2.15706792443e-05
5.6354005723e-05
4.40612795829e-05
4.68160131924e-05
0.000105230764765
3.29010361152e-06
6.57244427756e-06
1.20687257812e-05
4.53249163516e-06
2.02862347759e-05
8.27340877372e-07
7.76981478575e-07
6.04200940423e-07
1.23389772713e-05
2.75658887561e-08
5.12230994965e-07
1.40368694655e-05
1.39763740681e-06
2.47948102984e-05
1.83147305293e-05
1.68058602066e-06
1.27756549014e-06
1.23653089668e-05
2.55253147324e-05
4.81409515391e-06
1.90657771501e-06
2.34238500767e-06
1.88272593902e-06
4.1215359195e-06
4.58493866099e-06
2.06501247142e-06
5.55340825467e-07
8.42508863563e-07
3.48637646033e-05
6.71263647782e-08
1.07210422063e-07
2.33955126013e-05
7.06166058716e-05
3.19950690206e-05
5.39851895085e-07
4.4919288165e-07
6.2780677149e-06
5.6711649807e-07
2.63152678469e-07
3.0683340453e-08
7.02990559147e-06
3.3073053471e-08
7.06438985298e-06
3.19713601329e-05
2.95716068358e-05
1.66594918222e-05
1.26682550952e-05
1.39735079208e-05
2.07467403451e-07
3.46600322795e-08
4.21952588709e-05
9.31029049325e-07
1.31740743706e-07
7.79148994687e-05
3.60867401844e-05
4.60352349775e-07
1.69629362239e-05
2.33986727321e-07
1.58456960949e-05
3.26276521272e-07
2.04241867536e-05
3.00437287893e-07
1.4429888792e-07
1.83602145821e-05
3.72616992803e-05
8.07754164245e-07
6.38195948779e-06
7.77573427739e-06

