# vtk DataFile Version 3.0
File Name: Molecule/sphere_excent/sphere_excent_0-s11.vtk
ASCII
DATASET UNSTRUCTURED_GRID
FIELD FieldData 1
TIME 1 1 double
0.0
POINTS 95 double
0.0012221935904 0.84991854429 0.5265917182
-0.52814662457 0.75397282839 0.38962432742
-0.31187355518 0.54122155905 0.7797306776
-0.81107479334 0.30138725042 0.50102365017
-0.84912508726 0.52802103758 0.002290694043
0.33615702391 0.50467669964 0.7927634716
0.057378962636 0.41251432896 0.90710693598
-0.30850863457 -0.5529280901 0.77261412144
0.0010018878384 -0.85189473629 0.52378195524
0.30825340748 -0.50055617094 0.80897790194
0.061428237706 -0.022001814097 0.99685126543
0.52688372135 -0.00064703845419 0.8499533534
0.80664741993 -0.3108047545 0.50273698568
0.5000128746 -0.80892086029 0.30894139409
0.85162842274 -0.52421784401 0.0026477645151
0.26286184788 -0.57043659687 -0.77774745226
-0.0038754788693 -0.85391259193 -0.52055907249
-0.31230393052 -0.51891481876 -0.79449206591
0.99658226967 -0.028959408402 0.064887359738
0.79374235868 0.28436595201 0.53463423252
0.50111860037 0.77204227448 0.3869728148
-0.81037318707 0.35449203849 -0.46484881639
-0.99776005745 0.012277647853 0.0035665985197
-0.54635077715 0.75370049477 -0.36279985309
-0.48125487566 -0.81982010603 -0.30636271834
0.00039027901948 -0.99994069338 0.00038127478911
-0.49969014525 -0.81018996239 0.30616644025
-0.84520530701 -0.52975523472 0.015711821616
-0.80858385563 -0.3101105988 0.49961477518
-0.56931865215 0.00020676832355 0.821154356
0.49820700288 -0.81082993746 -0.3073887825
0.80804163218 -0.37833806872 -0.4509678185
0.0027754947077 0.99983525276 0.00062718259869
-0.27586737275 0.94540417194 0.17366054654
-0.27545043826 0.94549947977 -0.17367395759
-0.53869563341 0.84247094393 0.0013250994962
0.023412395269 0.85565030575 -0.51472091675
0.50328397751 0.80468511581 -0.31455072761
0.53251165152 0.846159935 0.0148656331
0.84388434887 0.53204637766 -0.030407659709
0.27485305071 0.94892513752 -0.15512520075
0.27894696593 0.94441705942 0.17337098718
0.83080786467 0.33042922616 -0.44515115023
0.68685114384 0.58147507906 -0.43606522679
0.58323210478 0.47171726823 -0.66119408607
0.4182484448 0.67951697111 -0.60241115093
0.2039386332 0.48610544205 -0.84821158648
0.95391029119 -0.16875062883 -0.24835683405
0.86746448278 -0.058858722448 -0.49383452535
0.95667606592 0.14998286963 -0.24991987646
0.5383361578 0.011017165147 -0.84260445833
0.43384292722 -0.25840312243 -0.86318951845
0.2776503861 0.0057878331281 -0.96056509018
0.14438731968 -0.27338704467 -0.95060998201
-0.028017945588 0.024465721101 -0.99907648563
0.68369400501 -0.19943121076 -0.70198202133
0.57686567307 -0.45378750563 -0.67891353369
0.71558606625 0.34720918536 -0.60612243414
0.43926200271 0.45050010085 -0.77716815472
0.42455235124 0.24575893581 -0.87141388655
0.57674270868 0.26707696915 -0.77199614048
0.70155715942 0.16995516419 -0.69200348854
0.83380240202 0.148617208 -0.5317248702
0.73192965984 0.0026537775993 -0.68128210306
-0.43773645163 0.25301891565 0.8626884222
-0.17757762969 0.27400264144 0.94456917048
-0.28067496419 -0.00059604929993 0.95984268188
-0.43809914589 -0.25688132644 0.86133122444
-0.15235665441 -0.27262067795 0.94991004467
-0.51723456383 0.0012752732728 -0.85582125187
-0.68776023388 -0.15863625705 -0.7082490325
-0.68810194731 0.16325524449 -0.70653772354
-0.85700756311 -0.001862230245 -0.5150386095
-0.80578994751 -0.34885948896 -0.47761741281
-0.45681920648 0.62913507223 -0.62431257963
-0.42890304327 0.2498305589 -0.86793494225
-0.18609303236 -0.23500916362 -0.95406717062
-0.29026708007 0.013331042603 -0.95680189133
-0.41820409894 -0.23596557975 -0.87732714415
-0.18024006486 0.27402943373 -0.94457167387
-0.30635380745 0.50126498938 -0.80801784992
0.19143928587 0.24756377935 0.94941616058
0.94195097685 0.15614613891 0.29684337974
0.96193444729 0.27084740996 0.042129516602
0.86315101385 0.43196207285 0.26150637865
0.71582895517 0.66855335236 0.20225788653
0.69086414576 0.55875945091 0.45859441161
-0.1632437259 0.70482796431 -0.690297544
-0.27721601725 0.83494621515 -0.47532042861
-0.047369591892 0.14583089948 0.98811900616
-0.85712766647 -0.45485684276 -0.24160431325
-0.94891774654 -0.19091780484 -0.25072568655
-0.96085971594 -0.276727736 0.00055079691811
-0.70250636339 -0.69402986765 -0.15693677962
-0.68049561977 -0.60763776302 -0.40906745195

CELLS 186 744
3 0 1 2
3 1 3 2
3 1 4 3
3 5 0 6
3 7 8 9
3 10 9 11
3 11 9 12
3 9 13 12
3 9 8 13
3 12 13 14
3 15 16 17
3 14 18 12
3 12 19 11
3 20 0 5
3 19 5 11
3 21 22 4
3 23 21 4
3 24 25 26
3 24 16 25
3 26 25 8
3 27 26 28
3 26 7 28
3 26 8 7
3 29 3 28
3 3 22 28
3 3 4 22
3 17 16 24
3 16 30 25
3 30 13 25
3 30 14 13
3 25 13 8
3 31 14 30
3 15 30 16
3 32 33 0
3 0 33 1
3 32 34 33
3 34 35 33
3 34 23 35
3 33 35 1
3 36 34 32
3 1 35 4
3 35 23 4
3 37 38 39
3 37 40 38
3 40 41 38
3 40 32 41
3 38 41 20
3 32 40 36
3 36 40 37
3 20 41 0
3 41 32 0
3 42 43 39
3 39 43 37
3 44 45 43
3 43 45 37
3 37 45 36
3 45 46 36
3 31 47 14
3 14 47 18
3 31 48 47
3 48 49 47
3 47 49 18
3 49 42 39
3 50 51 52
3 51 53 52
3 51 15 53
3 52 53 54
3 17 53 15
3 50 55 51
3 55 56 51
3 55 31 56
3 51 56 15
3 15 56 30
3 30 56 31
3 52 54 46
3 31 55 48
3 42 57 43
3 57 44 43
3 44 58 45
3 58 46 45
3 46 58 59
3 58 60 59
3 58 44 60
3 59 60 50
3 50 60 61
3 60 57 61
3 60 44 57
3 61 57 62
3 48 62 49
3 62 42 49
3 42 62 57
3 62 63 61
3 62 48 63
3 61 63 50
3 46 59 52
3 52 59 50
3 50 63 55
3 55 63 48
3 29 64 3
3 3 64 2
3 2 64 65
3 64 66 65
3 64 29 66
3 29 67 66
3 67 68 66
3 67 7 68
3 66 68 10
3 10 68 9
3 9 68 7
3 69 70 71
3 70 72 71
3 70 73 72
3 71 72 21
3 21 72 22
3 71 74 75
3 7 67 28
3 28 67 29
3 73 70 17
3 54 76 77
3 76 78 77
3 76 17 78
3 77 78 69
3 54 79 46
3 79 80 46
3 54 77 79
3 77 75 79
3 77 69 75
3 79 75 80
3 17 76 53
3 53 76 54
3 80 75 74
3 71 75 69
3 69 78 70
3 70 78 17
3 5 81 11
3 81 10 11
3 18 82 12
3 82 19 12
3 18 83 82
3 83 84 82
3 83 39 84
3 82 84 19
3 39 85 84
3 85 86 84
3 85 20 86
3 84 86 19
3 19 86 5
3 5 86 20
3 36 87 88
3 87 74 88
3 87 80 74
3 88 74 23
3 23 74 21
3 21 74 71
3 80 87 46
3 46 87 36
3 36 88 34
3 34 88 23
3 20 85 38
3 38 85 39
3 39 83 49
3 49 83 18
3 65 6 2
3 2 6 0
3 65 89 6
3 89 81 6
3 89 10 81
3 6 81 5
3 10 89 66
3 66 89 65
3 73 90 91
3 90 92 91
3 90 27 92
3 91 92 22
3 27 93 26
3 93 24 26
3 22 92 28
3 28 92 27
3 24 94 17
3 17 94 73
3 73 94 90
3 94 93 90
3 94 24 93
3 90 93 27
3 73 91 72
3 72 91 22

CELL_TYPES 186
5
5
5
5
5
5
5
5
5
5
5
5
5
5
5
5
5
5
5
5
5
5
5
5
5
5
5
5
5
5
5
5
5
5
5
5
5
5
5
5
5
5
5
5
5
5
5
5
5
5
5
5
5
5
5
5
5
5
5
5
5
5
5
5
5
5
5
5
5
5
5
5
5
5
5
5
5
5
5
5
5
5
5
5
5
5
5
5
5
5
5
5
5
5
5
5
5
5
5
5
5
5
5
5
5
5
5
5
5
5
5
5
5
5
5
5
5
5
5
5
5
5
5
5
5
5
5
5
5
5
5
5
5
5
5
5
5
5
5
5
5
5
5
5
5
5
5
5
5
5
5
5
5
5
5
5
5
5
5
5
5
5
5
5
5
5
5
5
5
5
5
5
5
5
5
5
5
5
5
5
5
5
5
5
5
5

CELL_DATA 186
SCALARS cell_data_0 double
LOOKUP_TABLE default
3.24873964407e-05
4.02133135093e-05
7.04208579573e-05
3.91017539799e-05
6.43468590182e-05
8.93343123881e-05
6.65445191267e-05
4.70829365285e-05
2.6245106687e-05
9.49366490228e-05
0.000127721090133
8.10170271012e-05
4.56227638708e-05
3.88698213256e-05
5.47964800056e-05
8.23839656687e-05
9.8438503687e-05
1.11907449108e-05
2.03928433342e-05
8.64800698638e-06
0.000242259176967
4.6322118152e-05
3.25277053531e-05
3.4234144349e-05
2.99366809429e-05
5.86849033846e-05
2.16513361232e-05
3.10003863359e-05
1.65635750786e-05
0.000150470287765
9.41009997337e-06
0.000151774191892
0.000142400817175
6.47227570782e-06
6.17497387625e-06
2.89803033693e-06
4.11806985136e-06
5.81061227255e-07
2.8567622179e-06
3.8937130428e-05
5.57209156849e-05
5.90575150157e-05
1.25316862163e-06
3.14716258632e-06
3.89680863439e-06
2.88239737672e-06
6.28405680133e-06
3.38954497496e-05
2.84101524725e-05
1.32573806289e-05
5.65488583112e-06
8.60337416045e-06
4.09378512452e-06
4.21677707568e-07
1.61652853332e-06
3.24870584397e-05
4.3795211791e-05
7.31402203787e-05
5.81612787339e-05
3.12512491032e-06
2.37217658564e-06
1.55170928722e-06
6.16597011527e-06
2.30642231414e-05
3.82809498628e-07
3.35916332104e-05
9.03125341374e-07
6.67131423658e-05
2.20411490743e-05
7.69048456442e-07
5.39148342541e-06
3.08780642355e-05
6.63399224268e-05
1.52956531841e-05
1.03770645946e-06
4.96099209338e-06
8.28783315022e-08
2.85946123176e-07
1.78624068071e-07
4.96839333511e-07
8.69347865387e-08
1.36390182978e-07
8.7320216792e-08
1.42392240596e-05
1.37800707463e-05
3.00362245839e-07
7.21957490208e-08
1.43379369268e-05
1.98976690504e-05
2.2058071398e-05
1.60769579915e-05
5.14534849836e-05
6.48729346405e-05
5.7450327465e-05
1.70002805692e-07
2.13066548589e-05
7.09213501259e-05
3.25086329937e-05
1.94989414077e-05
2.90247257682e-05
2.08670998933e-05
9.77407054218e-06
3.05768956878e-05
3.19702373913e-05
5.46235970792e-05
2.06702938523e-05
7.9941876251e-05
5.98439056643e-05
6.06368814238e-05
4.28069409757e-05
4.23146147941e-07
1.52842138181e-06
4.03341276243e-07
1.22345857631e-06
1.70974340484e-06
3.279911928e-05
3.87303442152e-05
2.47528380979e-06
6.52078806981e-07
2.69659511287e-07
1.09082764386e-07
3.47091737827e-05
6.17207541468e-07
2.92449659048e-07
3.22869894518e-07
5.47140810491e-07
3.53145887738e-05
1.95116867335e-07
2.38429361615e-07
1.10083984526e-06
4.45696782449e-07
4.09676582331e-05
3.94247239992e-05
6.20206748383e-07
3.39100087197e-05
3.59879008042e-05
1.03022979349e-05
1.8002510883e-05
3.8725065737e-05
3.32595011688e-05
6.08711761776e-05
6.08441493918e-06
3.78620564412e-06
2.38431096125e-06
5.19740643018e-06
5.44824632603e-06
2.3893063462e-05
1.92779124592e-05
3.67279664563e-05
6.43275507202e-06
2.06017926579e-06
8.32628124895e-06
5.64889847352e-06
6.66923857554e-07
4.21264878648e-06
4.96074528064e-05
3.55348269026e-05
8.77665129105e-06
5.54821579716e-06
1.22251673756e-06
6.47450212016e-05
5.440972522e-05
4.21796657006e-05
4.64585371856e-05
3.03187039414e-05
3.97852887333e-05
4.41854752585e-05
1.23694315793e-05
4.48573830022e-05
6.90371681569e-06
1.01702860602e-06
8.40336917386e-07
8.90136831199e-05
5.7978776567e-07
0.000162819135785
3.94484851172e-06
7.4140284148e-06
0.000146138973421
1.01598014266e-06
2.56769436237e-06
1.14319779043e-06
7.09133330069e-07
3.87852205419e-07
8.6522880415e-05
1.48601307487e-06
1.01316058124e-06

