# vtk DataFile Version 3.0
File Name: Molecule/sphere_excent/sphere_excent_0-s18.vtk
ASCII
DATASET UNSTRUCTURED_GRID
FIELD FieldData 1
TIME 1 1 double
0.0
POINTS 171 double
0.0022470259573 0.84308588505 0.53761816025
-0.53902626038 0.73947310448 0.40223798156
-0.31802898645 0.57674962282 0.75132036209
-0.83756554127 0.54439365864 0.045554514974
-0.82443195581 0.30479925871 0.47344154119
0.39139258862 0.51775240898 0.76035958529
0.031706128269 0.46050959826 0.88666415215
0.32471191883 -0.56087774038 0.76134002209
0.0064177345484 -0.85520637035 0.51822072268
0.43701413274 -0.83050090075 0.34406238794
0.23755846918 -0.60485607386 -0.7600569129
-0.0089941015467 -0.85985916853 -0.51039636135
-0.27606573701 -0.53586602211 -0.79579526186
0.81351435184 -0.22209659219 0.53549742699
0.77024775743 0.25165975094 0.58587533236
0.55201560259 0.042480967939 0.83182412386
0.46480220556 0.78235322237 0.41401460767
-0.39762949944 -0.86309474707 -0.30874532461
0.0031421012245 -0.99984151125 0.0072888890281
-0.57314729691 -0.81790411472 0.029486067593
-0.42542424798 -0.83166617155 0.35670277476
-0.33245918155 -0.61978715658 0.71024137735
-0.98854851723 0.10567627847 0.076909705997
0.43135297298 -0.82801151276 -0.35663703084
0.5814755559 -0.81150585413 0.029571378604
0.0032312269323 0.99971389771 0.013879412785
-0.2842490077 0.94121718407 0.18243923783
-0.26692405343 0.94476646185 -0.18891219795
-0.54802036285 0.83634227514 0.01045123022
-0.58453559875 0.73811340332 -0.33578941226
0.004292040132 0.8664675355 -0.49851951003
0.13402850926 0.94819641113 -0.284802109
0.28149732947 0.95468854904 -0.091901034117
0.27757897973 0.94151109457 0.18997083604
0.5223069191 0.85046887398 0.047316547483
0.84251105785 0.35948908329 -0.40065801144
0.68352240324 0.58615118265 -0.43497636914
0.84308427572 0.53070020676 -0.080423638225
0.58385193348 0.48590126634 -0.65037465096
0.42693454027 0.64782631397 -0.63006144762
0.89475780725 -0.44545719028 0.0093553559855
0.95261859894 -0.1917206645 -0.23588122427
0.99280631542 -0.092439517379 0.07248968631
0.80492728949 -0.35475385189 -0.47549057007
0.87296175957 -0.082733802497 -0.48073172569
0.96060138941 0.1421161294 -0.23888887465
0.53740358353 -0.0097940051928 -0.84308153391
0.42987656593 -0.26992058754 -0.86176097393
0.2783818841 0.0062820310704 -0.96044057608
0.12718142569 -0.29111921787 -0.94809442759
-0.016410673037 0.028132842854 -0.99935889244
0.68158978224 -0.2179607749 -0.69854807854
0.56914925575 -0.48427915573 -0.66442018747
0.14998109639 0.47860112786 -0.86477303505
0.72417145967 0.36230430007 -0.58444881439
0.43543466926 0.44886389375 -0.78026169538
0.40662121773 0.24560666084 -0.8781222105
0.57062000036 0.30535110831 -0.76181316376
0.84633302689 0.153344661 -0.50815725327
0.74530565739 -0.017861330882 -0.66520726681
-0.4360819459 0.25178197026 0.86365091801
-0.29944047332 -0.0005009083543 0.95401120186
-0.21140560508 0.2964194715 0.93121474981
-0.59889292717 -0.030542377383 0.79884928465
-0.48089939356 -0.29664459825 0.82453900576
-0.18581861258 -0.26458397508 0.94577467442
-0.52361410856 0.010331524536 -0.85190171003
-0.68395364285 -0.16466701031 -0.71044611931
-0.68515044451 0.18603862822 -0.70397675037
-0.84410864115 0.012116717175 -0.53592723608
-0.81218093634 -0.32252004743 -0.48425346613
-0.78033226728 0.39134541154 -0.48632952571
-0.49534022808 0.58523964882 -0.64139533043
-0.43239811063 0.26506847143 -0.86176371574
-0.65147614479 -0.57813733816 0.49027886987
-0.80694127083 -0.25294592977 0.533395648
-0.17944435775 -0.22158904374 -0.95852333307
-0.29333135486 0.020759481937 -0.95577758551
-0.42942389846 -0.24397948384 -0.86840963364
-0.1755168736 0.27375617623 -0.94563448429
-0.27195495367 0.49694597721 -0.82364565134
-0.67368203402 -0.43946501613 -0.59157520533
0.2238945812 0.23486277461 0.9456589222
0.93878120184 0.1354304105 0.31604367495
0.96457195282 0.25855690241 0.05261907354
0.86373078823 0.42753851414 0.26699468493
0.71316230297 0.6678802371 0.21312373877
0.68019706011 0.5577070713 0.47564789653
-0.13984893262 0.70765042305 -0.69208878279
-0.2976437211 0.82368981838 -0.4822717607
0.2080027163 0.77031576633 -0.60093051195
-0.035229936242 0.14938597381 0.98809045553
0.11531062424 -0.016407299787 0.99299257994
-0.031050371006 -0.14654929936 0.98850858212
-0.85082393885 -0.44455805421 -0.27961075306
-0.9251100421 -0.26100620627 -0.27457219362
-0.83356082439 -0.54692333937 0.075383275747
-0.70615059137 -0.67670327425 0.20822265744
-0.83410453796 -0.47484993935 0.28012731671
0.843280375 -0.47964540124 -0.24249188602
0.69210034609 -0.5978448987 -0.40429523587
0.68841207027 -0.69821983576 -0.19500270486
-0.75902235508 -0.65044653416 -0.020874032751
-0.69653606415 -0.69715023041 -0.16848480701
0.66036266088 -0.57372939587 0.48220869899
0.48800697923 -0.27844038606 0.82638692856
0.86101746559 -0.42702320218 0.27561044693
0.72156876326 -0.66286319494 0.19932700694
-0.91897261143 -0.37412258983 -0.12433414906
-0.85423630476 -0.51104897261 -0.095609664917
-0.90842068195 -0.41382849216 0.055779080838
-0.96163976192 -0.27292010188 0.027115760371
0.77775007486 -0.6273714304 -0.0370914042
-0.926425457 -0.28239825368 0.24886961281
-0.78117406368 -0.58580756187 -0.21548886597
-0.012035229243 -0.5962266922 0.80241644382
0.22324174643 -0.25970101357 0.93953239918
0.32118859887 -0.04201990366 0.94581967592
-0.21371077001 -0.45175358653 0.86609679461
0.048214122653 -0.40262937546 0.91408205032
-0.92023164034 -0.10930192471 -0.37563470006
-0.93845486641 0.10797543824 -0.32664275169
-0.97008788586 0.018128614873 -0.24105240405
-0.96592390537 -0.1419659555 -0.21648740768
-0.84864145517 0.47122168541 -0.24006456137
-0.94768059254 -0.074991613626 0.30395707488
-0.74284505844 0.12000003457 0.65623384714
0.38153654337 0.88964265585 -0.25030478835
0.5407114625 0.82912707329 -0.14185294509
0.28089389205 0.86300879717 -0.41903021932
0.45361658931 0.75993138552 -0.46563664079
0.53566944599 0.78839594126 -0.30139362812
-0.98896449804 -0.11916223913 0.083056993783
-0.96044683456 -0.24725131691 -0.12798410654
-0.89305311441 0.24072185159 -0.37897357345
-0.93686455488 0.3132660687 -0.15162451565
-0.99850106239 -0.03402069211 -0.035956524312
-0.98563665152 -0.15956799686 -0.054234925658
-0.98854625225 -0.066773109138 -0.13425903022
-0.99149942398 0.065402746201 -0.11157879978
-0.37945246696 -0.73095881939 -0.56726026535
-0.54602754116 -0.73396492004 -0.4038104713
-0.50088047981 -0.57063758373 -0.64846676588
-0.59647107124 -0.60252904892 -0.53011071682
-0.75963497162 -0.55155283213 -0.34437975287
-0.74419301748 -0.48277959228 -0.46157985926
-0.67092382908 -0.61006504297 -0.421441257
-0.68011927605 -0.66652655602 -0.30501458049
-0.58030563593 -0.77447718382 -0.25157672167
-0.59349411726 0.46851411462 0.65389162302
0.69171828032 0.69427520037 -0.19864472747
0.69685858488 0.71680051088 -0.024327594787
-0.54182392359 0.1326200217 0.82995468378
-0.64445310831 0.28254804015 0.7105718255
-0.41749444604 0.41315305233 0.80895900726
-0.97958827019 0.19023278356 -0.062256537378
-0.96731638908 0.16242274642 -0.19440592825
-0.93239289522 0.2553640604 -0.25549197197
0.50056648254 0.26193124056 -0.82517421246
0.48049965501 0.12472788244 -0.86783313751
0.56520801783 0.15633039176 -0.80996549129
0.6328792572 0.094790391624 -0.76836341619
0.63977837563 0.22700323164 -0.73421794176
0.70140421391 0.16961611807 -0.69228160381
0.65428578854 0.3250426352 -0.68274581432
0.71805018187 0.25796607137 -0.6464150548
0.77170729637 0.1658782661 -0.61397725344
0.78724390268 0.25582876801 -0.56094837189
0.79731678963 0.072081997991 -0.59896165133
0.7232375741 0.081306427717 -0.68579870462
0.65387129784 -0.0016760157887 -0.75630253553

CELLS 338 1352
3 0 1 2
3 1 3 4
3 5 0 6
3 7 8 9
3 10 11 12
3 13 14 15
3 16 0 5
3 14 5 15
3 17 18 19
3 17 11 18
3 20 18 8
3 20 8 21
3 4 3 22
3 11 23 18
3 9 18 24
3 18 9 8
3 10 23 11
3 25 26 0
3 0 26 1
3 25 27 26
3 27 28 26
3 27 29 28
3 26 28 1
3 30 27 31
3 1 28 3
3 28 29 3
3 32 33 34
3 32 25 33
3 34 33 16
3 16 33 0
3 33 25 0
3 35 36 37
3 38 39 36
3 40 41 42
3 43 44 41
3 44 45 41
3 41 45 42
3 45 35 37
3 46 47 48
3 47 49 48
3 47 10 49
3 48 49 50
3 12 49 10
3 46 51 47
3 51 52 47
3 51 43 52
3 47 52 10
3 10 52 23
3 48 50 53
3 43 51 44
3 35 54 36
3 54 38 36
3 38 55 39
3 55 53 39
3 53 55 56
3 55 38 57
3 44 58 45
3 58 35 45
3 53 56 48
3 51 59 44
3 60 61 62
3 63 64 61
3 64 65 61
3 66 67 68
3 67 69 68
3 67 70 69
3 68 69 71
3 68 72 73
3 21 64 74
3 75 64 63
3 50 76 77
3 76 78 77
3 76 12 78
3 77 78 66
3 50 79 53
3 79 80 53
3 50 77 79
3 77 73 79
3 77 66 73
3 79 73 80
3 12 76 49
3 49 76 50
3 80 73 72
3 68 73 66
3 66 78 67
3 67 78 81
3 5 82 15
3 42 83 13
3 83 14 13
3 42 84 83
3 84 85 83
3 84 37 85
3 83 85 14
3 37 86 85
3 86 87 85
3 86 16 87
3 85 87 14
3 14 87 5
3 5 87 16
3 30 88 89
3 88 72 89
3 88 80 72
3 89 72 29
3 29 72 71
3 71 72 68
3 80 88 53
3 53 88 90
3 30 89 27
3 27 89 29
3 16 86 34
3 37 84 45
3 45 84 42
3 62 6 2
3 2 6 0
3 62 91 6
3 91 82 6
3 91 92 82
3 6 82 5
3 92 91 93
3 61 91 62
3 70 94 95
3 96 97 98
3 97 74 98
3 97 20 74
3 98 74 75
3 75 74 64
3 21 74 20
3 43 99 100
3 99 101 100
3 100 101 23
3 40 99 41
3 41 99 43
3 43 100 52
3 52 100 23
3 96 102 97
3 102 19 97
3 102 103 19
3 97 19 20
3 20 19 18
3 9 104 7
3 7 104 105
3 13 104 106
3 104 107 106
3 104 9 107
3 106 107 40
3 13 106 42
3 42 106 40
3 94 108 95
3 94 109 108
3 109 110 108
3 109 96 110
3 108 110 111
3 101 24 23
3 23 24 18
3 101 112 24
3 112 107 24
3 112 40 107
3 24 107 9
3 40 112 99
3 99 112 101
3 111 110 113
3 98 110 96
3 96 109 102
3 103 102 114
3 7 115 8
3 8 115 21
3 92 116 117
3 116 105 117
3 116 7 105
3 117 105 15
3 15 105 13
3 13 105 104
3 21 118 64
3 64 118 65
3 65 93 61
3 61 93 91
3 92 93 116
3 93 119 116
3 93 65 119
3 116 119 7
3 7 119 115
3 119 118 115
3 119 65 118
3 115 118 21
3 92 117 82
3 82 117 15
3 95 120 70
3 70 120 69
3 69 120 121
3 122 120 123
3 71 124 29
3 29 124 3
3 22 125 4
3 4 125 126
3 127 32 128
3 32 31 25
3 25 31 27
3 30 31 129
3 31 127 129
3 31 32 127
3 129 127 130
3 39 130 36
3 36 130 131
3 131 130 127
3 130 90 129
3 130 39 90
3 129 90 30
3 30 90 88
3 53 90 39
3 22 132 125
3 132 113 125
3 132 111 113
3 125 113 75
3 75 113 98
3 98 113 110
3 111 133 108
3 108 133 95
3 69 134 71
3 71 134 124
3 124 135 3
3 22 136 132
3 136 137 132
3 136 138 137
3 132 137 111
3 111 137 133
3 137 123 133
3 137 138 123
3 133 123 95
3 95 123 120
3 122 123 138
3 122 138 139
3 17 140 11
3 11 140 12
3 17 141 140
3 142 140 143
3 140 142 12
3 12 142 78
3 144 94 145
3 146 147 144
3 147 114 144
3 147 103 114
3 144 114 94
3 146 141 147
3 141 148 147
3 141 17 148
3 147 148 103
3 103 148 19
3 19 148 17
3 94 114 109
3 109 114 102
3 4 149 1
3 1 149 2
3 63 126 75
3 75 126 125
3 131 128 150
3 128 151 150
3 128 34 151
3 150 151 37
3 131 150 36
3 36 150 37
3 63 152 126
3 152 153 126
3 152 60 153
3 126 153 4
3 4 153 149
3 153 154 149
3 153 60 154
3 149 154 2
3 2 154 62
3 154 60 62
3 60 152 61
3 152 63 61
3 142 81 78
3 67 81 70
3 37 151 86
3 86 151 34
3 135 155 3
3 3 155 22
3 22 155 139
3 155 156 139
3 155 135 156
3 139 156 122
3 34 128 32
3 127 128 131
3 122 121 120
3 121 134 69
3 134 157 124
3 157 135 124
3 134 121 157
3 121 156 157
3 121 122 156
3 157 156 135
3 22 139 136
3 136 139 138
3 146 143 141
3 141 143 140
3 142 143 81
3 143 145 81
3 143 146 145
3 81 145 70
3 70 145 94
3 144 145 146
3 57 158 55
3 55 158 56
3 56 158 159
3 158 160 159
3 158 57 160
3 159 160 46
3 46 160 161
3 160 162 161
3 160 57 162
3 161 162 163
3 57 164 162
3 164 165 162
3 164 54 165
3 162 165 163
3 54 164 38
3 38 164 57
3 163 165 166
3 165 167 166
3 165 54 167
3 166 167 58
3 58 167 35
3 35 167 54
3 58 168 166
3 168 169 166
3 168 59 169
3 166 169 163
3 59 168 44
3 44 168 58
3 163 169 161
3 169 170 161
3 169 59 170
3 161 170 46
3 56 159 48
3 48 159 46
3 46 170 51
3 170 59 51

CELL_TYPES 338
5
5
5
5
5
5
5
5
5
5
5
5
5
5
5
5
5
5
5
5
5
5
5
5
5
5
5
5
5
5
5
5
5
5
5
5
5
5
5
5
5
5
5
5
5
5
5
5
5
5
5
5
5
5
5
5
5
5
5
5
5
5
5
5
5
5
5
5
5
5
5
5
5
5
5
5
5
5
5
5
5
5
5
5
5
5
5
5
5
5
5
5
5
5
5
5
5
5
5
5
5
5
5
5
5
5
5
5
5
5
5
5
5
5
5
5
5
5
5
5
5
5
5
5
5
5
5
5
5
5
5
5
5
5
5
5
5
5
5
5
5
5
5
5
5
5
5
5
5
5
5
5
5
5
5
5
5
5
5
5
5
5
5
5
5
5
5
5
5
5
5
5
5
5
5
5
5
5
5
5
5
5
5
5
5
5
5
5
5
5
5
5
5
5
5
5
5
5
5
5
5
5
5
5
5
5
5
5
5
5
5
5
5
5
5
5
5
5
5
5
5
5
5
5
5
5
5
5
5
5
5
5
5
5
5
5
5
5
5
5
5
5
5
5
5
5
5
5
5
5
5
5
5
5
5
5
5
5
5
5
5
5
5
5
5
5
5
5
5
5
5
5
5
5
5
5
5
5
5
5
5
5
5
5
5
5
5
5
5
5
5
5
5
5
5
5
5
5
5
5
5
5
5
5
5
5
5
5
5
5
5
5
5
5
5
5
5
5
5
5
5
5
5
5
5
5
5
5
5
5
5
5
5
5
5
5
5
5

CELL_DATA 338
SCALARS cell_data_0 double
LOOKUP_TABLE default
1.9000651514e-05
1.28482193089e-05
4.54077611776e-05
2.60108817249e-05
5.95639661222e-06
3.38373066782e-05
3.29425072701e-05
4.50117148943e-05
5.89394271332e-06
7.77726647494e-07
1.53007985522e-05
2.22592900765e-05
8.13899408335e-06
2.2948049382e-06
1.05864019396e-05
1.12159615466e-05
4.21686081838e-06
4.2870372221e-06
1.29710705914e-05
2.01062470347e-06
3.68529708724e-06
6.62449861048e-07
6.13778464243e-06
2.78280561465e-05
5.01784263126e-06
6.57200034339e-06
3.60282622006e-06
3.46203865225e-06
6.13965577545e-06
1.30510118397e-05
8.16456125034e-06
1.78609995318e-05
1.2160258642e-06
1.45816963405e-06
1.67849925816e-06
2.37970549521e-06
1.89293580557e-06
1.85213039355e-05
1.98526083048e-05
3.53575271228e-07
3.45872847412e-07
1.38766312626e-08
1.13054878026e-06
1.86016598405e-05
3.80771079164e-07
9.43032756723e-07
5.15897085467e-07
2.22766690628e-07
8.7119635944e-06
1.24470126588e-06
4.18838794375e-06
9.14615724803e-07
1.52215316496e-05
3.9651825982e-05
0.000138127721126
5.03501330338e-05
1.8996198292e-05
3.1986091219e-05
0.00010146375094
3.30202462612e-05
1.31197142378e-05
3.94041320997e-05
2.0042047896e-05
3.9023902415e-05
7.34102243793e-07
1.10748754217e-06
2.02621691459e-07
6.08030568703e-06
2.55790375864e-05
2.79173288222e-05
1.69715494896e-05
1.47947379238e-05
7.46733325313e-06
4.92794841089e-05
7.0434925501e-06
6.30915563444e-06
7.21794647262e-06
5.94533656445e-06
4.86547079223e-05
1.49901997313e-07
1.01918751907e-05
7.62676059337e-06
5.38592627981e-06
3.51958684898e-05
3.53304249147e-05
4.28717016934e-07
4.79720271622e-05
9.00443425755e-06
1.61809395802e-05
2.12445367428e-06
2.82862069212e-05
6.32552519736e-05
2.68203092727e-05
7.77370409685e-05
3.82779185163e-05
5.90568419034e-06
2.98055438785e-05
2.09115265374e-05
1.62391997468e-05
2.95101464562e-05
1.65396877678e-05
1.06841148055e-05
1.90675348494e-05
1.9976915707e-05
9.61525166723e-06
1.3710877642e-05
1.73485763999e-05
2.58535975361e-05
6.70698145162e-06
4.95649309129e-06
1.30787106886e-06
6.8217652237e-07
3.80682786539e-05
4.79653573749e-05
1.46475324889e-05
1.6366076838e-05
1.66133877152e-05
2.05497402936e-05
3.87029636968e-05
1.5261494787e-05
4.62867130113e-05
2.50104353266e-06
4.39655928344e-06
7.93757935842e-06
8.36905378798e-06
2.45185396272e-05
1.60247080483e-05
7.84499406413e-07
9.66324691468e-07
1.62974493671e-06
2.32359143694e-06
1.66728893667e-06
8.71262180764e-07
6.24192864944e-07
1.58168629395e-06
1.91814992188e-06
3.69974761312e-05
5.02829243308e-06
1.22618288718e-05
1.99062308768e-05
2.58215407195e-05
8.46886778943e-06
1.56687111165e-05
9.83465515321e-06
1.92061086256e-05
1.81192515628e-06
6.29221657603e-06
3.20633774568e-05
6.40856333357e-07
6.46885904545e-07
5.96649584357e-07
2.47803722827e-05
1.51623790853e-06
8.03554692616e-06
9.32554097782e-07
1.43908759217e-05
1.15546355094e-05
1.58243860933e-05
9.5259883312e-07
1.17840877709e-06
2.40119079338e-05
1.50176911995e-06
5.74974844829e-07
2.18229995417e-05
2.73714299312e-05
2.48944492928e-05
1.84186446572e-05
1.98148574513e-05
2.32251735928e-05
2.76480355654e-05
3.43741363954e-05
2.48876044299e-05
2.56160214318e-05
2.70283624711e-05
4.39736144485e-05
6.89171055679e-05
4.06334762513e-05
3.4246916946e-05
3.32419428404e-05
3.40553066576e-05
2.30373117558e-05
1.34170227301e-05
2.5672237279e-05
1.90202095511e-05
1.97107515926e-05
3.10954446235e-05
4.69849422772e-05
5.1470027421e-07
2.76263450635e-07
9.05856568013e-06
6.07169869667e-06
7.91340482244e-06
9.23541322919e-06
1.29069913712e-05
1.16846091125e-06
5.29085416858e-07
1.92154995303e-06
3.23252977202e-05
8.31065877738e-06
2.21895535525e-07
5.75462173492e-06
9.27880384124e-07
1.68832741554e-05
1.30138779853e-05
7.41537065219e-06
8.42565840578e-08
2.73026797595e-05
2.44393875972e-05
5.71248146517e-06
2.70765827446e-06
2.67333158015e-06
2.44052403072e-05
5.24358532002e-06
5.17165330802e-06
2.34068097008e-06
1.99168306489e-05
2.08860117183e-05
1.09246653986e-06
1.55188705832e-06
6.90775831381e-07
1.02969298675e-06
5.57814824834e-07
5.19438898123e-06
1.45916070302e-05
1.30569726762e-05
3.29959379324e-07
6.33399350435e-06
1.65402327286e-05
2.16627637246e-05
1.80444330188e-05
2.66856167222e-05
4.25370486024e-06
4.74559243156e-06
1.40680762474e-06
8.34556844297e-07
1.83249193065e-06
8.72123223948e-07
3.13214542434e-07
8.60775187595e-08
2.43639993718e-07
1.71204168266e-05
2.80320465651e-07
2.47285730674e-08
2.84288960717e-07
8.06993450928e-08
1.77763955535e-05
3.76848579191e-05
6.67226885076e-07
1.96475631868e-07
2.18438186312e-07
1.55034519676e-05
1.69449513379e-05
1.66869277629e-05
1.47116744108e-05
9.63263326191e-06
9.84430406987e-07
1.269646372e-06
1.58661249927e-06
1.57587894871e-05
2.33881315003e-06
1.06560619035e-05
9.0337874605e-06
9.30167737334e-06
7.33142876386e-06
8.56177320924e-06
1.02085582219e-05
1.17997131272e-05
1.12051007163e-05
1.79153992641e-05
7.6634934705e-06
8.7792047968e-06
2.09695150822e-05
1.03630243597e-06
2.38577552317e-06
3.72814227343e-06
1.12860599579e-06
1.32834648257e-05
1.50608653765e-05
9.63747549319e-06
1.55956830675e-05
1.19742140729e-05
2.02145524139e-05
1.98335618243e-06
9.47232971374e-06
9.1473989129e-06
3.53664160555e-07
2.28975176046e-07
2.80025426502e-07
3.6308284077e-07
4.14664596933e-06
1.42716696147e-05
2.99655164309e-06
2.0875420262e-06
9.81032749449e-06
2.62441643813e-07
9.42324903591e-07
7.93507448169e-07
1.08376304292e-07
1.17438645937e-07
7.10193832824e-07
4.11510130278e-08
9.63093617315e-08
2.87002991847e-05
3.76251879856e-05
1.19051327534e-05
1.05886961239e-07
8.00741278772e-06
3.91633131144e-06
3.89377185697e-06
9.12734345215e-08
8.55539984303e-06
3.08025951708e-06
6.77526417765e-06
8.89107650186e-08
1.11508534063e-07
2.46581388145e-06
2.80120852535e-07
1.25441027453e-05
2.55179121242e-06
9.34969070405e-08
1.23723029313e-07
4.0411589576e-06
1.42428682072e-05
2.24627118343e-06
3.85560750201e-06
9.32261098041e-08
7.59110883371e-06
2.45757509818e-06
1.72469578017e-05
8.57823340231e-06
2.81544527384e-06
9.73708713905e-08
8.46362504601e-06
3.50835227881e-06
2.99905017157e-05
9.39127602899e-06
7.71803903457e-06
1.84881976069e-05

