# vtk DataFile Version 3.0
File Name: Molecule/sphere_excent/sphere_excent_0-s9.vtk
ASCII
DATASET UNSTRUCTURED_GRID
FIELD FieldData 1
TIME 1 1 double
0.0
POINTS 79 double
0.00013719938579 0.85127359629 0.52465569973
-0.52437835932 0.7606139183 0.381601125
-0.30689054728 0.5233964324 0.79231870174
-0.81034761667 0.30326011777 0.50116938353
-0.84937471151 0.52763694525 0.00037704358692
0.30630007386 0.49650037289 0.81213116646
0.038456879556 -0.00022857400472 0.99874985218
0.52599585056 -0.0003219624632 0.85052919388
-0.30873581767 -0.53072339296 0.78794443607
0.00017948467575 -0.85090368986 0.52537089586
0.30842188001 -0.49996697903 0.80920791626
0.80726361275 -0.31016474962 0.50197297335
0.5000103116 -0.8089222908 0.30893623829
0.8515714407 -0.52429151535 0.0007636823575
0.27329900861 -0.55411982536 -0.78590452671
-0.0018048066413 -0.85204017162 -0.52365863323
-0.30977553129 -0.50605100393 -0.803617239
0.99785286188 0.002130318433 0.065237946808
0.80861115456 0.30544680357 0.50296866894
0.85068655014 0.5257177949 -0.00014380781795
0.52433973551 0.76445198059 0.3744264245
-0.80729603767 -0.33991137147 -0.48106342554
-0.85052341223 -0.52593833208 0.00032819525222
-0.99997961521 1.0800635209e-05 -0.00055408163462
-0.80859869719 0.33371523023 -0.48195055127
-0.00017862365348 0.8506770134 -0.52562189102
-0.31567624211 0.50389093161 -0.80220466852
-0.52391880751 0.76091581583 -0.38149446249
-0.49956467748 -0.80960190296 -0.30822905898
-0.49986359477 -0.80941665173 0.30810549855
1.6135600163e-05 -0.99989765882 9.4200004241e-05
-0.80866342783 -0.30938479304 0.50007539988
-0.55080294609 -0.00012241471268 0.83310759068
0.49904152751 -0.80984514952 -0.30851319432
0.80710208416 -0.36236941814 -0.46508318186
0.22910812497 0.4856544733 -0.84110248089
0.0045496439561 0.99982511997 0.00026129436446
-0.2727380693 0.94682466984 0.17079095542
-0.27263239026 0.94693571329 -0.17034099996
-0.53462380171 0.84502476454 0.00014483195264
0.50323158503 0.80433613062 -0.31554454565
0.52973967791 0.84805136919 0.010386971757
0.27371585369 0.94892036915 -0.15720139444
0.27807056904 0.94537258148 0.17004577816
0.82362496853 0.31700894237 -0.4670689702
0.68756258488 0.58114099503 -0.43537294865
0.58312380314 0.4591525197 -0.66986435652
0.42209941149 0.67919737101 -0.60013461113
0.95292901993 -0.16475898027 -0.25471588969
0.86375010014 -0.04426009208 -0.5014283061
0.95536547899 0.15125437081 -0.25414907932
0.53612279892 0.01127880346 -0.84404087067
0.43466922641 -0.25687214732 -0.86319696903
0.27661809325 0.0041773635894 -0.96085238457
0.1500415951 -0.26928785443 -0.95099288225
-0.03747561574 0.024372098967 -0.99860316515
0.68398094177 -0.19101163745 -0.70404684544
0.57889664173 -0.44484856725 -0.68310749531
0.71193289757 0.35191270709 -0.60762518644
0.43939745426 0.45252177119 -0.77586746216
0.42509269714 0.2500962317 -0.86987155676
0.57638913393 0.25394517183 -0.77653342485
0.70262402296 0.16924241185 -0.69107323885
0.83571946621 0.14680986106 -0.52913057804
0.72632426023 0.0036335478071 -0.6871753931
-0.43465566635 0.25419566035 0.86391800642
-0.15660385787 0.26464778185 0.95141345263
-0.27759718895 -0.00023684743792 0.96070587635
-0.43576049805 -0.25674197078 0.86260265112
-0.15740174055 -0.2667402029 0.95068013668
-0.51285368204 0.00081541528925 -0.8584523797
-0.69066858292 -0.15853589773 -0.7052795887
-0.69065076113 0.15600386262 -0.70593076944
-0.85355639458 -0.0019735065289 -0.52102351189
-0.18644151092 -0.24352373183 -0.95164591074
-0.28747910261 0.012974043377 -0.95765930414
-0.42176857591 -0.2495739311 -0.871342659
-0.18401284516 0.27341729403 -0.9440689683
-0.42208144069 0.24857981503 -0.87163639069

CELLS 154 616
3 0 1 2
3 1 3 2
3 1 4 3
3 0 2 5
3 5 6 7
3 8 9 10
3 6 10 7
3 7 10 11
3 10 12 11
3 10 9 12
3 11 12 13
3 14 15 16
3 13 17 11
3 17 18 11
3 17 19 18
3 11 18 7
3 19 20 18
3 20 5 18
3 20 0 5
3 18 5 7
3 21 22 23
3 24 23 4
3 25 26 27
3 26 24 27
3 27 24 4
3 22 28 29
3 28 30 29
3 28 15 30
3 29 30 9
3 22 29 31
3 29 8 31
3 29 9 8
3 32 3 31
3 3 23 31
3 3 4 23
3 31 23 22
3 16 28 21
3 16 15 28
3 21 28 22
3 15 33 30
3 33 12 30
3 33 13 12
3 30 12 9
3 34 13 33
3 14 33 15
3 35 26 25
3 36 37 0
3 0 37 1
3 36 38 37
3 38 39 37
3 38 27 39
3 37 39 1
3 27 38 25
3 25 38 36
3 1 39 4
3 39 27 4
3 40 41 19
3 19 41 20
3 40 42 41
3 42 43 41
3 42 36 43
3 41 43 20
3 36 42 25
3 25 42 40
3 20 43 0
3 43 36 0
3 44 45 19
3 19 45 40
3 46 47 45
3 45 47 40
3 40 47 25
3 47 35 25
3 34 48 13
3 13 48 17
3 34 49 48
3 49 50 48
3 48 50 17
3 17 50 19
3 50 44 19
3 51 52 53
3 52 54 53
3 52 14 54
3 53 54 55
3 16 54 14
3 51 56 52
3 56 57 52
3 56 34 57
3 52 57 14
3 14 57 33
3 33 57 34
3 53 55 35
3 34 56 49
3 44 58 45
3 58 46 45
3 46 59 47
3 59 35 47
3 35 59 60
3 59 61 60
3 59 46 61
3 60 61 51
3 51 61 62
3 61 58 62
3 61 46 58
3 62 58 63
3 49 63 50
3 63 44 50
3 44 63 58
3 63 64 62
3 63 49 64
3 62 64 51
3 35 60 53
3 53 60 51
3 51 64 56
3 56 64 49
3 32 65 3
3 3 65 2
3 2 66 5
3 66 6 5
3 2 65 66
3 65 67 66
3 65 32 67
3 66 67 6
3 32 68 67
3 68 69 67
3 68 8 69
3 67 69 6
3 6 69 10
3 10 69 8
3 70 71 72
3 71 73 72
3 71 21 73
3 72 73 24
3 24 73 23
3 23 73 21
3 26 72 24
3 8 68 31
3 31 68 32
3 21 71 16
3 55 74 75
3 74 76 75
3 74 16 76
3 75 76 70
3 55 77 35
3 77 26 35
3 55 75 77
3 75 78 77
3 75 70 78
3 77 78 26
3 16 74 54
3 54 74 55
3 26 78 72
3 72 78 70
3 70 76 71
3 71 76 16

CELL_TYPES 154
5
5
5
5
5
5
5
5
5
5
5
5
5
5
5
5
5
5
5
5
5
5
5
5
5
5
5
5
5
5
5
5
5
5
5
5
5
5
5
5
5
5
5
5
5
5
5
5
5
5
5
5
5
5
5
5
5
5
5
5
5
5
5
5
5
5
5
5
5
5
5
5
5
5
5
5
5
5
5
5
5
5
5
5
5
5
5
5
5
5
5
5
5
5
5
5
5
5
5
5
5
5
5
5
5
5
5
5
5
5
5
5
5
5
5
5
5
5
5
5
5
5
5
5
5
5
5
5
5
5
5
5
5
5
5
5
5
5
5
5
5
5
5
5
5
5
5
5
5
5
5
5
5
5

CELL_DATA 154
SCALARS cell_data_0 double
LOOKUP_TABLE default
3.75830351805e-05
4.17933530131e-05
9.41238706125e-06
6.21808170745e-05
8.43041821631e-05
6.29599272484e-05
7.32647532695e-05
5.49140853196e-05
4.50023690609e-05
4.25144324243e-05
1.50449130781e-05
7.99808914213e-05
5.91351487969e-06
1.9089829723e-05
0.00016341659238
4.41095406443e-05
0.00014200396454
2.29833855664e-05
4.10007809199e-05
7.95365585955e-05
6.92093139591e-05
3.94317909978e-06
0.000124650222547
1.44822977844e-05
2.56096153228e-05
8.08075681201e-05
7.70377924336e-06
2.93606007962e-05
1.07848874497e-05
3.26793641222e-05
4.38474346108e-05
3.7045013449e-05
3.31737766826e-05
3.12701287731e-05
7.49810946454e-06
3.74012740923e-05
3.81748682632e-05
7.25008715431e-05
9.83554021118e-05
2.49648660807e-05
1.09277151341e-05
5.93764822165e-06
1.16716817758e-05
2.94978494711e-05
4.30646889475e-05
9.52465715103e-05
1.86746184795e-06
1.19784716395e-05
5.22257999966e-06
2.04456545239e-06
4.35188577715e-06
5.89182399033e-06
8.09547654847e-05
7.55860657924e-05
4.15671232068e-07
1.41899152017e-05
3.0570305694e-05
2.94103366047e-05
2.55841783869e-06
3.78486061441e-06
1.77177823371e-07
5.53925987045e-06
5.95816825084e-05
3.84387808737e-05
1.24251320134e-05
5.01084897924e-07
3.47939956223e-05
3.67334557969e-05
1.65769498472e-07
2.22732228839e-07
4.67510381799e-05
5.59481250115e-05
1.16716117487e-05
3.86314837918e-06
6.87795232822e-07
2.31822103887e-06
2.81719572404e-06
3.46762928166e-05
2.83542659832e-05
3.27779318062e-05
5.85323206421e-07
3.72966883999e-06
1.89381781706e-06
3.03098911015e-05
3.18746057806e-05
6.43686304065e-07
2.40681117504e-06
3.36492585599e-06
8.99442910885e-06
6.74086197812e-06
2.26741039239e-06
1.66067748597e-06
5.82868870931e-07
2.89210702769e-07
6.56171077314e-08
1.53674053258e-07
2.95236131677e-07
2.87626152352e-07
2.51937265856e-07
1.93410321855e-05
1.9480683879e-05
2.7968082454e-07
3.04528145222e-07
4.88207064653e-07
1.32573157928e-06
1.12813956856e-06
5.16852440405e-07
1.22671603074e-05
1.38689148192e-05
4.70016021522e-05
6.70157867331e-07
3.05373521083e-05
5.51777828432e-05
1.59248354787e-05
2.81330002917e-05
2.6597783651e-05
9.21890181851e-05
0.000132998860527
9.49380077618e-06
5.54952473046e-06
1.00802033016e-05
6.79622199667e-05
1.03083198786e-05
4.3673038799e-05
4.11469922657e-05
5.62722528089e-05
4.15264665561e-05
3.70334203655e-05
0.000115581456307
7.33521996588e-07
1.5302294287e-07
4.94490368674e-07
4.75291869945e-06
4.30197489263e-06
9.53085035269e-07
3.06681576812e-05
2.13941543971e-05
1.40934275966e-05
1.07804688332e-06
6.05332705335e-07
5.66770890814e-06
9.89612797239e-05
2.12439032259e-06
1.28586106521e-06
1.16067360884e-06
5.69044326164e-07
9.46715270486e-05
7.71540161022e-07
8.67461190737e-06
1.82564862853e-06
6.13295970966e-07
0.000112013247163
0.000113546284294
6.55116109594e-06

