# vtk DataFile Version 3.0
File Name: Molecule/sphere_excent/sphere_excent_0-s14.vtk
ASCII
DATASET UNSTRUCTURED_GRID
FIELD FieldData 1
TIME 1 1 double
0.0
POINTS 121 double
0.0022745449096 0.84646296501 0.53223872185
-0.5337434411 0.74623131752 0.39716407657
-0.32411384583 0.55761635303 0.76352381706
-0.811850667 0.30027851462 0.50050961971
-0.8480926156 0.5296086669 0.0085291322321
0.36785149574 0.51290804148 0.77476841211
0.04108093679 0.43681877851 0.89791226387
0.31708294153 -0.51632893085 0.79401624203
0.0037789852358 -0.85358774662 0.52085649967
0.47181412578 -0.82085055113 0.31677407026
0.25107547641 -0.58851200342 -0.76835125685
-0.0060234102421 -0.85697346926 -0.51532053947
-0.31570750475 -0.53457885981 -0.78306865692
0.80639183521 -0.27401199937 0.51814556122
0.7795830369 0.26354208589 0.56712198257
0.53415077925 0.010051012039 0.84285598993
0.47994086146 0.77899682522 0.40171551704
-0.99625635147 0.042661380023 0.026241037995
-0.96073132753 0.03739759326 -0.26364123821
-0.56867468357 0.74511790276 -0.34681466222
-0.81515049934 0.37278473377 -0.44250610471
-0.44568818808 -0.83682483435 -0.31693044305
0.00013917338219 -0.99963915348 0.004012725316
-0.59965747595 -0.79723060131 0.04619590193
-0.45662400126 -0.82220774889 0.33781993389
-0.31326934695 -0.58414560556 0.74611246586
-0.5898771286 -0.001010244363 0.80731546879
-0.82270681858 -0.26819044352 0.49882808328
0.46197444201 -0.82170158625 -0.33073237538
0.60862094164 -0.78880816698 0.055488102138
0.00092255551135 0.99983656406 0.0013111445587
-0.28030613065 0.94329804182 0.17792829871
-0.27930119634 0.94363480806 -0.17764516175
-0.54432058334 0.83877491951 0.0047547351569
0.047460362315 0.862457335 -0.50279730558
0.50357109308 0.80487239361 -0.31360992789
0.53626674414 0.84368699789 0.020395096391
0.83744710684 0.5414865613 -0.061764542013
0.27770009637 0.9486938715 -0.15148431063
0.27897405624 0.94356662035 0.17794430256
0.83766150475 0.34595251083 -0.42129719257
0.68552780151 0.58274573088 -0.4364464581
0.5834748745 0.48257374763 -0.65320909023
0.41225060821 0.68108671904 -0.60481023788
0.1727886647 0.48595237732 -0.85589379072
0.87236571312 -0.48534265161 0.01441589836
0.95354223251 -0.17836721241 -0.2419859916
0.9950080514 -0.06375901401 0.065458714962
0.80672484636 -0.36231946945 -0.46662762761
0.87029236555 -0.07308357954 -0.48689845204
0.95842272043 0.14748349786 -0.24422363937
0.54213899374 0.01053301245 -0.84017151594
0.43242543936 -0.26217076182 -0.86275655031
0.2784653008 0.0069732139818 -0.96035903692
0.13737814128 -0.28058680892 -0.9495511651
-0.020390210673 0.025859929621 -0.99931108952
0.68311417103 -0.20858244598 -0.69981986284
0.57482677698 -0.46727964282 -0.67129451036
0.72075814009 0.34569618106 -0.60085457563
0.43670469522 0.45155254006 -0.77795171738
0.42182600498 0.24159637094 -0.87387025356
0.57657217979 0.28078508377 -0.76732319593
0.70074272156 0.16988496482 -0.69286990166
0.83429813385 0.15192328393 -0.52988117933
0.7380515337 -0.00036350631854 -0.67471116781
-0.44626775384 0.25315234065 0.85812932253
-0.19735857844 0.28501746058 0.93788421154
-0.28542292118 -0.00093172141351 0.95838528872
-0.46143099666 -0.27280861139 0.84275197983
-0.15808722377 -0.27525556087 0.94732826948
-0.5209209919 0.004977947101 -0.85352301598
-0.68342751265 -0.15705889463 -0.71286422014
-0.68860578537 0.1752038002 -0.70331156254
-0.85554975271 0.0031512272544 -0.51686245203
-0.80305081606 -0.34258133173 -0.48711392283
-0.48140108585 0.60244983435 -0.63436180353
-0.43127298355 0.25577446818 -0.86508327723
-0.66925603151 -0.58330339193 0.458227247
-0.18360722065 -0.22724595666 -0.9564563036
-0.29221731424 0.016583096236 -0.95614248514
-0.41578266025 -0.22306928039 -0.88182777166
-0.17724171281 0.27426025271 -0.94513845444
-0.2878113091 0.49914222956 -0.81666994095
0.20617629588 0.23857429624 0.94862890244
0.94108432531 0.14694990218 0.30343610048
0.96280443668 0.26605013013 0.048038266599
0.86333590746 0.43065744638 0.26307860017
0.71504414082 0.66744714975 0.20829257369
0.68593007326 0.55886518955 0.46569669247
-0.16125155985 0.70477485657 -0.69077324867
-0.28489243984 0.83049070835 -0.47859457135
-0.038407664746 0.15234273672 0.98736232519
0.081993177533 -0.031672220677 0.99611419439
-0.034918621182 -0.15725114942 0.98649066687
-0.84589225054 -0.46470922232 -0.26043134928
-0.94191890955 -0.21525657177 -0.2499948889
-0.96139842272 -0.27228352427 0.015541037545
-0.67285215855 -0.61085152626 -0.41659128666
-0.69575077295 -0.69333720207 -0.18645572662
-0.84440910816 -0.53220117092 0.04787697643
-0.71208560467 -0.67623031139 0.18763360381
-0.84881687164 -0.459703058 0.26182353497
0.84630781412 -0.47474685311 -0.24166867137
0.69078999758 -0.6064016819 -0.39372414351
0.69711440802 -0.69444817305 -0.17447024584
-0.77180564404 -0.63308948278 -0.04152277112
-0.85879468918 -0.50154918432 -0.10169054568
0.67680567503 -0.58505219221 0.4415205121
0.44792202115 -0.26420173049 0.85179483891
0.86114269495 -0.43128141761 0.26917847991
0.71544766426 -0.67394685745 0.18179325759
-0.9206482172 -0.37071096897 -0.1225650236
-0.90990567207 -0.41456341743 0.010482992977
0.78297293186 -0.61941921711 -0.052128531039
-0.0026689928491 -0.57107561827 0.82030767202
0.2062304914 -0.27326142788 0.93966108561
0.30964946747 -0.028398836032 0.95030069351
-0.22521801293 -0.43756839633 0.87048393488
0.073415122926 -0.4037308991 0.91162782907
-0.98819744587 -0.086066544056 -0.12611415982
-0.91670912504 -0.1050073579 -0.38511520624

CELLS 238 952
3 0 1 2
3 1 3 2
3 1 4 3
3 5 0 6
3 7 8 9
3 10 11 12
3 13 14 15
3 16 0 5
3 14 5 15
3 17 4 18
3 19 20 4
3 21 22 23
3 21 11 22
3 24 22 8
3 24 8 25
3 26 3 27
3 3 17 27
3 3 4 17
3 12 11 21
3 11 28 22
3 9 22 29
3 22 9 8
3 10 28 11
3 30 31 0
3 0 31 1
3 30 32 31
3 32 33 31
3 32 19 33
3 31 33 1
3 34 32 30
3 1 33 4
3 33 19 4
3 35 36 37
3 35 38 36
3 38 39 36
3 38 30 39
3 36 39 16
3 30 38 34
3 34 38 35
3 16 39 0
3 39 30 0
3 40 41 37
3 37 41 35
3 42 43 41
3 41 43 35
3 35 43 34
3 43 44 34
3 45 46 47
3 48 49 46
3 49 50 46
3 46 50 47
3 50 40 37
3 51 52 53
3 52 54 53
3 52 10 54
3 53 54 55
3 12 54 10
3 51 56 52
3 56 57 52
3 56 48 57
3 52 57 10
3 10 57 28
3 53 55 44
3 48 56 49
3 40 58 41
3 58 42 41
3 42 59 43
3 59 44 43
3 44 59 60
3 59 61 60
3 59 42 61
3 60 61 51
3 51 61 62
3 61 58 62
3 61 42 58
3 62 58 63
3 49 63 50
3 63 40 50
3 40 63 58
3 63 64 62
3 63 49 64
3 62 64 51
3 44 60 53
3 53 60 51
3 51 64 56
3 56 64 49
3 26 65 3
3 3 65 2
3 2 65 66
3 65 67 66
3 65 26 67
3 26 68 67
3 68 69 67
3 70 71 72
3 71 73 72
3 71 74 73
3 72 73 20
3 72 75 76
3 25 68 77
3 27 68 26
3 74 71 12
3 55 78 79
3 78 80 79
3 78 12 80
3 79 80 70
3 55 81 44
3 81 82 44
3 55 79 81
3 79 76 81
3 79 70 76
3 81 76 82
3 12 78 54
3 54 78 55
3 82 76 75
3 72 76 70
3 70 80 71
3 71 80 12
3 5 83 15
3 47 84 13
3 84 14 13
3 47 85 84
3 85 86 84
3 85 37 86
3 84 86 14
3 37 87 86
3 87 88 86
3 87 16 88
3 86 88 14
3 14 88 5
3 5 88 16
3 34 89 90
3 89 75 90
3 89 82 75
3 90 75 19
3 19 75 20
3 20 75 72
3 82 89 44
3 44 89 34
3 34 90 32
3 32 90 19
3 16 87 36
3 36 87 37
3 37 85 50
3 50 85 47
3 66 6 2
3 2 6 0
3 66 91 6
3 91 83 6
3 91 92 83
3 6 83 5
3 92 91 93
3 67 91 66
3 74 94 95
3 17 96 27
3 21 97 12
3 12 97 74
3 74 97 94
3 97 98 94
3 97 21 98
3 99 100 101
3 100 77 101
3 100 24 77
3 101 77 27
3 27 77 68
3 25 77 24
3 48 102 103
3 102 104 103
3 103 104 28
3 45 102 46
3 46 102 48
3 48 103 57
3 57 103 28
3 99 105 100
3 105 23 100
3 105 98 23
3 100 23 24
3 24 23 22
3 21 23 98
3 96 101 27
3 94 98 106
3 9 107 7
3 7 107 108
3 13 107 109
3 107 110 109
3 107 9 110
3 109 110 45
3 13 109 47
3 47 109 45
3 94 111 95
3 111 96 95
3 94 106 111
3 106 112 111
3 106 99 112
3 111 112 96
3 104 29 28
3 28 29 22
3 104 113 29
3 113 110 29
3 113 45 110
3 29 110 9
3 45 113 102
3 102 113 104
3 96 112 101
3 101 112 99
3 99 106 105
3 105 106 98
3 7 114 8
3 8 114 25
3 92 115 116
3 115 108 116
3 115 7 108
3 116 108 15
3 15 108 13
3 13 108 107
3 25 117 68
3 68 117 69
3 69 93 67
3 67 93 91
3 92 93 115
3 93 118 115
3 93 69 118
3 115 118 7
3 7 118 114
3 118 117 114
3 118 69 117
3 114 117 25
3 73 18 20
3 20 18 4
3 92 116 83
3 83 116 15
3 17 119 96
3 96 119 95
3 95 120 74
3 74 120 73
3 73 120 18
3 119 18 95
3 120 95 18
3 18 119 17

CELL_TYPES 238
5
5
5
5
5
5
5
5
5
5
5
5
5
5
5
5
5
5
5
5
5
5
5
5
5
5
5
5
5
5
5
5
5
5
5
5
5
5
5
5
5
5
5
5
5
5
5
5
5
5
5
5
5
5
5
5
5
5
5
5
5
5
5
5
5
5
5
5
5
5
5
5
5
5
5
5
5
5
5
5
5
5
5
5
5
5
5
5
5
5
5
5
5
5
5
5
5
5
5
5
5
5
5
5
5
5
5
5
5
5
5
5
5
5
5
5
5
5
5
5
5
5
5
5
5
5
5
5
5
5
5
5
5
5
5
5
5
5
5
5
5
5
5
5
5
5
5
5
5
5
5
5
5
5
5
5
5
5
5
5
5
5
5
5
5
5
5
5
5
5
5
5
5
5
5
5
5
5
5
5
5
5
5
5
5
5
5
5
5
5
5
5
5
5
5
5
5
5
5
5
5
5
5
5
5
5
5
5
5
5
5
5
5
5
5
5
5
5
5
5
5
5
5
5
5
5
5
5
5
5
5
5
5
5
5
5
5
5

CELL_DATA 238
SCALARS cell_data_0 double
LOOKUP_TABLE default
3.28564882371e-05
3.56903581262e-05
1.78352098865e-05
4.74173602201e-05
1.01137897477e-05
4.12890180003e-05
4.22815198037e-05
3.45163993905e-05
4.9245930909e-05
7.32639589339e-05
1.68869530956e-06
2.54409836693e-06
2.7007717244e-05
6.96065040265e-06
7.33483158346e-06
3.16866958324e-05
2.81834693166e-05
1.01419424475e-05
3.5358952017e-05
2.15864335371e-05
4.85675688783e-06
8.06041343096e-06
2.48393395113e-05
8.86617626899e-06
1.59177205459e-05
4.22458536661e-06
4.6952923201e-06
3.76709008297e-06
7.61590201585e-06
3.03261535381e-05
8.08727988447e-06
1.86453025205e-06
8.04817852597e-05
3.60475375016e-05
1.46284787974e-06
2.11831685768e-06
3.95160303505e-06
2.987157389e-05
0.000116532410943
9.59164213894e-06
6.01446948938e-06
2.14509832933e-05
6.9862991614e-05
3.11192358223e-08
3.8712220662e-05
0.000127977405064
6.77424301044e-05
7.56534444719e-07
1.90643782513e-06
2.46200051286e-06
1.24705997131e-06
1.90857267343e-05
2.34121490842e-05
6.19466897756e-07
2.08539699712e-06
1.51364220804e-06
1.08308279491e-05
2.29739912463e-05
6.48525814672e-07
9.09898947277e-07
1.71860078329e-06
1.84971026453e-06
1.18687643808e-05
1.38297254727e-06
4.68747887018e-06
4.84259744183e-07
4.0104710504e-08
4.83509975248e-06
3.17745948015e-06
2.81374784583e-07
2.50116037885e-07
1.50149684032e-05
1.46980633402e-05
2.84338549946e-07
3.3551278523e-07
4.59661228195e-07
1.70244420219e-06
3.91649891327e-06
3.40369092602e-06
1.35787582842e-05
1.67945046044e-05
4.29664085634e-05
4.70185868473e-06
2.06900475851e-05
5.31960154836e-05
1.89745103628e-05
9.60911116733e-06
3.20325276296e-05
5.90416295578e-06
4.29884434817e-06
2.35979927085e-06
2.53057692327e-06
5.3953447916e-05
3.83392720722e-05
7.85000280486e-07
4.00473640227e-07
9.56280695972e-07
2.1208650598e-06
1.35956598892e-05
8.99358906829e-06
5.5106517982e-06
2.0178359146e-06
2.00353302442e-07
2.59367614045e-06
3.2013533248e-05
2.5249442867e-05
2.31562657178e-05
7.60646969832e-06
4.20686969775e-06
3.34801563137e-05
6.17254833636e-06
3.81288619393e-06
2.45856167043e-06
3.91951281105e-06
3.66342188419e-05
3.48499561968e-05
1.89208955399e-06
4.11578897724e-05
1.44951973771e-06
1.80282682859e-05
2.2258495227e-06
4.18334456472e-06
1.50912548252e-06
7.43808672017e-06
5.63227360698e-05
3.10899433624e-05
3.86209684375e-05
8.77840628228e-06
2.41517323363e-05
1.82156489604e-05
3.22092528144e-05
8.45787970128e-06
6.51633090454e-06
5.97505280555e-06
2.5219380267e-06
2.87719783465e-06
1.39053653989e-05
6.26035259759e-05
3.15451598297e-05
7.25854122907e-07
5.28209209056e-05
8.2663892776e-05
4.81379743127e-07
2.32027302553e-07
4.0680741342e-05
4.73916670883e-05
3.9963555361e-05
2.0009653939e-05
1.87891956924e-05
2.65201118598e-05
3.22065928779e-05
4.65306915293e-05
6.42504331162e-05
0.000104006087766
6.23248094841e-06
6.34436744476e-06
3.17206741922e-07
5.72726286097e-05
7.51441984107e-05
2.6414794122e-06
4.86461945388e-06
6.76845867853e-06
7.48288066844e-06
4.66762621282e-06
1.4227606059e-05
1.32499857627e-06
1.43116188258e-06
6.70341717601e-07
2.00340790965e-06
1.05728914863e-06
6.83299014682e-07
8.9808618861e-07
1.08407020815e-06
1.04371265125e-06
4.11894337162e-05
3.51666962123e-06
8.64361103007e-06
8.04941478025e-05
6.39409652256e-05
4.55040609044e-05
1.54909207938e-05
1.62802810996e-05
6.01271984556e-06
4.75758885346e-06
5.79384401095e-06
3.24033105396e-06
2.99277778809e-06
5.86749841762e-07
3.36598566257e-05
9.52149416235e-05
6.80752921248e-07
7.90785572527e-06
6.72940304239e-06
3.51218901265e-05
1.70884905424e-07
9.12444250787e-08
7.20809483443e-07
2.56339927154e-07
1.07575568209e-06
1.8918474177e-06
3.70439696045e-08
5.18860914106e-07
6.28499122072e-05
7.07730376825e-06
6.16704585523e-07
3.41701838536e-05
2.43264108099e-05
2.30586206211e-05
2.13706122645e-05
3.10481674009e-05
2.47134740357e-05
2.84019029419e-05
3.20922971314e-05
1.65808368926e-05
2.98987816147e-05
1.72694662066e-05
4.04768347937e-05
7.1474214494e-05
3.45648073806e-05
2.87831423626e-05
3.0671718741e-05
2.05619806521e-05
1.65012252587e-05
1.32337393746e-05
2.49720430839e-05
8.13970928247e-06
4.75799208e-05
0.0001026636977
2.18929433267e-05
1.84274932102e-05
4.14845797471e-05
0.000114332119704
4.92084245395e-05
1.27062957077e-07
1.64361878178e-05
6.77118046755e-05
6.68332851456e-05
1.61695050802e-05

