# vtk DataFile Version 3.0
File Name: Molecule/sphere_excent/sphere_excent_0-s6.vtk
ASCII
DATASET UNSTRUCTURED_GRID
FIELD FieldData 1
TIME 1 1 double
0.0
POINTS 59 double
-0.00019004807109 0.85142928362 0.52441906929
-0.5181171298 0.77431201935 0.36239790916
-0.30774486065 0.49797847867 0.81073474884
-0.80967730284 0.30618327856 0.50060379505
-0.8496543169 0.52722048759 9.102547665e-06
-0.52568948269 -0.00013755497639 0.85067665577
0.3081510663 0.4986307323 0.8101682663
1.7594762539e-05 -0.00017540395493 0.99989837408
0.52570420504 -6.7731154559e-05 0.85066765547
-0.30898061395 -0.49995678663 0.8089236021
0.30898556113 -0.49995201826 0.80892568827
5.7882789406e-07 -0.85065114498 0.52573055029
0.80857086182 -0.30926945806 0.50045013428
0.49997842312 -0.80892658234 0.30895885825
0.85091811419 -0.52523422241 -0.00041506573325
0.29741150141 -0.51662224531 -0.80167108774
-6.9872162385e-06 -0.85065209866 -0.52573013306
-0.30878609419 -0.49985283613 -0.80913472176
-0.018290106207 0.0094973631203 -0.9981893301
-0.52571386099 -0.00015235244064 -0.85065972805
0.99860268831 0.0011124787852 0.031097643077
0.8091468811 0.30739462376 0.50084072351
0.85023462772 0.52637344599 -0.00079838495003
0.51622998714 0.77991276979 0.35333278775
-0.80890411139 -0.30904811621 -0.49995738268
-0.80969828367 0.30619335175 -0.50056558847
-0.99989771843 6.836783723e-05 3.4219219742e-06
-0.85065150261 -0.52573001385 -6.3291281549e-08
0.00021941101295 0.85118126869 -0.52485591173
-0.3092110157 0.497859478 -0.81031531096
-0.51774245501 0.77467894554 -0.3619697392
-0.49994122982 -0.80893313885 -0.30899044871
-0.49994459748 -0.8089299798 0.30898267031
4.6376935643e-06 -0.99989557266 -6.8284607551e-06
-0.80888879299 -0.30909180641 0.49995195866
0.49973201752 -0.80915004015 -0.3090429008
0.80208992958 -0.33306634426 -0.49252745509
0.27346125245 0.48628386855 -0.82929241657
0.0082833040506 0.99981528521 -9.4351053121e-05
-0.26802152395 0.94909596443 0.16561412811
-0.26794332266 0.94916164875 -0.16543152928
-0.5288001895 0.84868967533 4.8942940339e-05
0.50350868702 0.80319875479 -0.31781938672
0.52684479952 0.84994733334 0.0040242699906
0.27332001925 0.94861185551 -0.15972471237
0.27526396513 0.94724017382 0.16427874565
0.81500184536 0.29891583323 -0.4960539937
0.68838560581 0.5812920928 -0.43394419551
0.5861210227 0.42581123114 -0.68929064274
0.42660701275 0.68019038439 -0.59608459473
0.53460031748 0.013853155077 -0.8418931365
0.95131003857 -0.16227443516 -0.26212441921
0.85383468866 -0.0087676951662 -0.52056455612
0.95381820202 0.15335807204 -0.25853562355
0.43465140462 -0.25770387053 -0.86282587051
0.27488747239 0.00020215827681 -0.961327672
0.15954294801 -0.26445421576 -0.95097374916
0.68718028069 -0.17381666601 -0.70548897982
0.58134436607 -0.43372824788 -0.68821144104

CELLS 114 456
3 0 1 2
3 1 3 2
3 1 4 3
3 2 3 5
3 0 2 6
3 2 7 6
3 2 5 7
3 6 7 8
3 5 9 7
3 9 10 7
3 9 11 10
3 7 10 8
3 8 10 12
3 10 13 12
3 10 11 13
3 12 13 14
3 15 16 17
3 18 17 19
3 14 20 12
3 20 21 12
3 20 22 21
3 12 21 8
3 22 23 21
3 23 6 21
3 23 0 6
3 21 6 8
3 19 24 25
3 24 26 25
3 24 27 26
3 25 26 4
3 28 29 30
3 29 25 30
3 29 19 25
3 30 25 4
3 27 31 32
3 31 33 32
3 31 16 33
3 32 33 11
3 27 32 34
3 32 9 34
3 32 11 9
3 34 9 5
3 5 3 34
3 3 26 34
3 3 4 26
3 34 26 27
3 19 17 24
3 17 31 24
3 17 16 31
3 24 31 27
3 16 35 33
3 35 13 33
3 35 14 13
3 33 13 11
3 36 14 35
3 15 35 16
3 18 29 37
3 18 19 29
3 37 29 28
3 38 39 0
3 0 39 1
3 38 40 39
3 40 41 39
3 40 30 41
3 39 41 1
3 30 40 28
3 28 40 38
3 1 41 4
3 41 30 4
3 42 43 22
3 22 43 23
3 42 44 43
3 44 45 43
3 44 38 45
3 43 45 23
3 38 44 28
3 28 44 42
3 23 45 0
3 45 38 0
3 46 47 22
3 22 47 42
3 46 48 47
3 48 49 47
3 48 37 49
3 47 49 42
3 37 48 50
3 50 48 46
3 42 49 28
3 49 37 28
3 36 51 14
3 14 51 20
3 36 52 51
3 52 53 51
3 52 46 53
3 51 53 20
3 46 52 50
3 20 53 22
3 53 46 22
3 50 54 55
3 54 56 55
3 54 15 56
3 55 56 18
3 18 56 17
3 17 56 15
3 50 57 54
3 57 58 54
3 57 36 58
3 54 58 15
3 15 58 35
3 35 58 36
3 50 55 37
3 55 18 37
3 36 57 52
3 52 57 50

CELL_TYPES 114
5
5
5
5
5
5
5
5
5
5
5
5
5
5
5
5
5
5
5
5
5
5
5
5
5
5
5
5
5
5
5
5
5
5
5
5
5
5
5
5
5
5
5
5
5
5
5
5
5
5
5
5
5
5
5
5
5
5
5
5
5
5
5
5
5
5
5
5
5
5
5
5
5
5
5
5
5
5
5
5
5
5
5
5
5
5
5
5
5
5
5
5
5
5
5
5
5
5
5
5
5
5
5
5
5
5
5
5
5
5
5
5
5
5

CELL_DATA 114
SCALARS cell_data_0 double
LOOKUP_TABLE default
3.98341896806e-05
4.75518023016e-05
2.5171090957e-05
5.71000328671e-05
6.82876733512e-05
0.00014655963073
0.000176545488936
9.91829271311e-05
0.000170642883241
9.69258206861e-05
6.80608549754e-05
9.05447747782e-05
6.24202210197e-05
4.9135499186e-05
4.14770781775e-05
1.28650624519e-05
2.27163557092e-05
0.00011661378295
5.83658800866e-06
1.94866600059e-05
9.52765733307e-05
4.83142441898e-05
4.68649289684e-05
4.52969126185e-05
3.94953132957e-05
6.68728044242e-05
0.000172397208615
2.6322095563e-05
8.78855940895e-05
0.000122312706994
0.000107222783292
2.95245614965e-05
0.000158921916505
0.000139707844749
6.05917414786e-05
1.15824436677e-05
1.8174168395e-05
6.6689628949e-06
3.69986567254e-05
4.70909490425e-05
4.13407642932e-05
7.47344802975e-05
3.10342434274e-05
3.04742333655e-05
5.07705717466e-05
4.51752039358e-05
0.000125878168639
1.48143545932e-06
1.93306774165e-05
8.68020948534e-05
2.81073573866e-05
1.01784892799e-05
3.66446516907e-06
1.13164017439e-05
4.5739824908e-05
2.2348914083e-05
1.85790487327e-06
0.000110548487988
0.000100667862185
8.87588631366e-06
1.32236757587e-05
3.23693695782e-06
2.33379617058e-06
9.18148757384e-07
5.86826454699e-06
6.72853362581e-05
4.3945583968e-05
2.78813582152e-05
5.29351636076e-05
4.95233842587e-05
4.00485198011e-05
1.30808493797e-06
2.42679765664e-06
3.6392225681e-06
4.89430898734e-06
3.70753281091e-05
4.22396121461e-05
1.26699434539e-05
8.7331027472e-06
5.48497119119e-05
4.27939495652e-05
3.8492581949e-07
1.2072698134e-06
4.4923341742e-07
1.63700352229e-06
0.000285966804094
0.000277517073315
4.39387479225e-05
5.44573300772e-05
2.26275296238e-05
1.10290410267e-05
6.20931135319e-06
9.28583488859e-07
6.78269143133e-07
1.1734418974e-06
0.000270025091491
5.94831518019e-05
5.60176384021e-05
0.00013981750557
7.03244720235e-07
5.66974204624e-07
2.50351356958e-07
1.50352213363e-06
3.65509136162e-07
0.000133810529653
7.11908775142e-07
5.12017594623e-06
5.629055666e-07
4.12874865513e-07
1.34270488544e-05
0.000264312696054
4.42103732585e-07
5.45867003558e-06
0.000146314450413

