# vtk DataFile Version 3.0
File Name: Molecule/sphere_excent/sphere_excent_0-s3.vtk
ASCII
DATASET UNSTRUCTURED_GRID
FIELD FieldData 1
TIME 1 1 double
0.0
POINTS 48 double
0.85065078735 -0.52573108673 -1.6231224365e-08
0.80892956257 -0.3089825809 -0.49994668365
0.99989539385 1.6984584363e-05 1.1338150898e-06
0.80893456936 0.30900061131 -0.49994382262
0.52573090792 4.6205306603e-07 -0.85065084696
0.85048997402 0.52598780394 2.5730894748e-08
0.5040987134 0.79969674349 -0.32237073779
0.30887687206 0.49983409047 -0.80908793211
-0.0002330209245 0.85102111101 -0.52504682541
-0.00023296657309 0.85102128983 0.52504652739
-0.50862652063 0.79238063097 0.33424007893
-0.3087221384 0.49951043725 0.80937254429
-0.80912280083 0.30834874511 0.50011885166
-0.85026544333 0.52630800009 5.5141867961e-07
-0.52572876215 -8.4120065367e-06 0.85065227747
0.30888286233 0.49983075261 0.8090877533
3.0240537399e-06 -1.8563012418e-05 0.99989366531
0.52573102713 3.2244125237e-07 0.85065084696
-0.30898433924 -0.49994656444 0.80892843008
0.30898547173 -0.49994665384 0.80892789364
1.7823476028e-08 -0.85065084696 0.52573102713
0.80892968178 -0.30898231268 0.49994662404
0.49994504452 -0.80893033743 0.30898153782
0.30898249149 -0.49994528294 -0.8089299202
-1.1329647123e-06 -5.475697435e-06 -0.99989318848
-0.30898535252 -0.49994668365 -0.80892789364
-1.8160267956e-08 -0.85065078735 -0.52573108673
-0.52572894096 -8.2541992015e-06 -0.85065215826
0.80900448561 0.30877423286 0.50001418591
0.50411456823 0.79969781637 0.32234933972
-0.80892896652 -0.30898469687 -0.49994710088
-0.80912435055 0.30835205317 -0.50011390448
-0.99989598989 2.9566461308e-05 1.2585072682e-06
-0.85065096617 -0.52573084831 2.4176159741e-08
-0.30872938037 0.49950623512 -0.80937284231
-0.50865226984 0.79238051176 -0.3342011869
-0.49994507432 -0.80893027782 -0.30898153782
-0.49994572997 -0.80892914534 0.30898350477
1.1649224234e-06 -0.99989134073 1.1180310011e-08
-0.80892449617 -0.30899631977 0.49994793534
0.49994564056 -0.80892902613 -0.30898356438
0.013907816261 0.99968999624 3.7814976395e-07
-0.26407778263 0.9508150816 0.16210363805
-0.26408839226 0.95081084967 -0.16211295128
-0.52531760931 0.85090446472 2.1534538064e-06
0.52553194761 0.85078650713 -3.4855594322e-07
0.27214759588 0.94861519337 -0.1617154628
0.2721567452 0.94861000776 0.16173097491

CELLS 92 368
3 0 1 2
3 1 3 2
3 1 4 3
3 2 3 5
3 5 3 6
3 3 7 6
3 3 4 7
3 6 7 8
3 9 10 11
3 10 12 11
3 10 13 12
3 11 12 14
3 9 11 15
3 11 16 15
3 11 14 16
3 15 16 17
3 14 18 16
3 18 19 16
3 18 20 19
3 16 19 17
3 17 19 21
3 19 22 21
3 19 20 22
3 21 22 0
3 4 23 24
3 23 25 24
3 23 26 25
3 24 25 27
3 0 2 21
3 2 28 21
3 2 5 28
3 21 28 17
3 5 29 28
3 29 15 28
3 29 9 15
3 28 15 17
3 27 30 31
3 30 32 31
3 30 33 32
3 31 32 13
3 8 34 35
3 34 31 35
3 34 27 31
3 35 31 13
3 33 36 37
3 36 38 37
3 36 26 38
3 37 38 20
3 33 37 39
3 37 18 39
3 37 20 18
3 39 18 14
3 14 12 39
3 12 32 39
3 12 13 32
3 39 32 33
3 27 25 30
3 25 36 30
3 25 26 36
3 30 36 33
3 26 40 38
3 40 22 38
3 40 0 22
3 38 22 20
3 4 1 23
3 1 40 23
3 1 0 40
3 23 40 26
3 4 24 7
3 24 34 7
3 24 27 34
3 7 34 8
3 41 42 9
3 9 42 10
3 41 43 42
3 43 44 42
3 43 35 44
3 42 44 10
3 35 43 8
3 8 43 41
3 10 44 13
3 44 35 13
3 6 45 5
3 5 45 29
3 6 46 45
3 46 47 45
3 46 41 47
3 45 47 29
3 41 46 8
3 8 46 6
3 29 47 9
3 47 41 9

CELL_TYPES 92
5
5
5
5
5
5
5
5
5
5
5
5
5
5
5
5
5
5
5
5
5
5
5
5
5
5
5
5
5
5
5
5
5
5
5
5
5
5
5
5
5
5
5
5
5
5
5
5
5
5
5
5
5
5
5
5
5
5
5
5
5
5
5
5
5
5
5
5
5
5
5
5
5
5
5
5
5
5
5
5
5
5
5
5
5
5
5
5
5
5
5
5

CELL_DATA 92
SCALARS cell_data_0 double
LOOKUP_TABLE default
0.000133160145916
0.000192378624134
0.000162878420302
9.44712783326e-05
0.000253189649481
0.00135508556471
0.000826675612882
0.000814202007991
6.52251069669e-06
1.41941104996e-05
8.36137630995e-05
7.08510171578e-05
6.59485922702e-05
0.000123069166438
0.000112609934481
5.43766092823e-05
7.200580983e-05
6.81125926158e-05
4.93357624232e-05
5.4315848813e-05
3.90021962058e-05
5.02297060824e-05
4.04712814815e-05
5.45304214898e-05
1.24335132075e-05
1.6169108516e-05
1.17507882968e-05
3.71829328179e-06
4.25774496956e-05
3.05449542602e-05
1.55156871918e-05
3.94701239442e-05
4.09922747345e-05
2.52632113626e-05
2.6517356659e-05
4.97569564025e-05
2.65297925672e-06
4.50809004536e-06
4.81638188067e-06
6.19828255198e-06
2.83363493408e-05
1.978817176e-05
1.25105947811e-06
3.52019161694e-05
9.70546027246e-06
2.25445252001e-05
2.69519294824e-05
8.35275549005e-06
1.64269434329e-05
4.85543708606e-05
4.05396530738e-05
5.44712298347e-05
4.82393990462e-05
2.92051632482e-05
2.50341978782e-06
1.2816880778e-05
6.20584010975e-06
1.54974212519e-05
8.44600167694e-06
2.16100365399e-05
1.7459723132e-05
3.6330301967e-05
0.000112967951578
7.46660973691e-06
3.95620552124e-05
5.33273685786e-05
0.000142366810619
1.41248008586e-05
0.000527293687007
0.000646399694716
5.29129066524e-06
0.000560673410358
2.50812140527e-05
1.71940883648e-05
2.77025295945e-05
8.24720431873e-07
6.30424615557e-06
2.44976418162e-05
1.36365315916e-05
5.11892818538e-05
5.6168158589e-05
2.27320968232e-05
4.21737400029e-05
3.66207307434e-05
2.95018609144e-05
8.33854691911e-07
2.57740284792e-05
2.67591731928e-05
4.91162386518e-05
5.55740808371e-05
2.19718875581e-05
2.40523336024e-05

