# vtk DataFile Version 3.0
File Name: Molecule/sphere_excent/sphere_excent_0-s5.vtk
ASCII
DATASET UNSTRUCTURED_GRID
FIELD FieldData 1
TIME 1 1 double
0.0
POINTS 54 double
-0.00023036048515 0.85137379169 0.52449369431
-0.51534354687 0.77981239557 0.35412743688
-0.30813184381 0.49858826399 0.81020146608
-0.80945897102 0.30703634024 0.50042265654
-0.84982550144 0.52696323395 5.0816142902e-06
-0.52570915222 -7.2700466262e-05 0.85066449642
0.3084615767 0.4991479516 0.80971604586
1.1883423213e-05 -9.9697739643e-05 0.99989652634
0.52572226524 -2.7986348869e-05 0.85065639019
-0.30898290873 -0.49995112419 0.80892628431
0.30898800492 -0.49994906783 0.80892628431
8.3499735126e-08 -0.85065096617 0.52573084831
0.808817029 -0.3090865314 0.5001257062
0.499958992 -0.80892968178 0.30897390842
0.85077875853 -0.52552103996 -0.00017806520918
0.52612286806 0.00062751432415 -0.85035735369
0.30879071355 -0.49997422099 -0.80903410912
-0.00034253054764 -0.00057128258049 -0.99995100498
-0.3089966476 -0.49995839596 -0.80891907215
2.4024146228e-07 -0.85065066814 -0.52573132515
-0.52571606636 -7.6753407484e-05 -0.8506603837
0.99864929914 0.00060499529354 0.016365215182
0.80918586254 0.30792459846 0.50038051605
0.85018920898 0.52642256021 -0.00063626852352
0.51279324293 0.78603672981 0.34428831935
-0.80891853571 -0.30901449919 -0.49994829297
-0.80946987867 0.30704632401 -0.50039821863
-0.99989718199 6.1119615566e-05 2.4835262593e-06
-0.85065150261 -0.52573001385 -1.4081518174e-08
0.00016116470215 0.85123574734 -0.52475559711
-0.30878889561 0.49846571684 -0.810082376
-0.51513695717 0.7800886631 -0.35378995538
-0.49994444847 -0.80893152952 -0.3089799583
-0.49994534254 -0.80892962217 0.30898317695
2.697769105e-06 -0.99989193678 -1.1522943169e-06
-0.80890548229 -0.30904713273 0.49995055795
0.49979293346 -0.80908882618 -0.30891144276
0.7994017601 -0.32189321518 -0.50487285852
0.28356733918 0.49039110541 -0.82347470522
0.0098292836919 0.99980348349 -0.00010250475316
-0.26656281948 0.94976770878 0.16413246095
-0.26650986075 0.9498115778 -0.1640394479
-0.52725744247 0.84966421127 2.8205422495e-05
0.50373911858 0.80255538225 -0.31905767322
0.52616578341 0.85038888454 0.0022572404705
0.27307394147 0.94855922461 -0.16046431661
0.27421501279 0.94779205322 0.1629229188
0.815962255 0.29748430848 -0.49520769715
0.68876260519 0.5813344121 -0.43329358101
0.58703923225 0.42556318641 -0.68870443106
0.42717677355 0.68080472946 -0.59510022402
0.95106762648 -0.16222774982 -0.2630110383
0.85363823175 -0.0076979580335 -0.52089709044
0.95351976156 0.15412400663 -0.25922426581

CELLS 104 416
3 0 1 2
3 1 3 2
3 1 4 3
3 2 3 5
3 0 2 6
3 2 7 6
3 2 5 7
3 6 7 8
3 5 9 7
3 9 10 7
3 9 11 10
3 7 10 8
3 8 10 12
3 10 13 12
3 10 11 13
3 12 13 14
3 15 16 17
3 16 18 17
3 16 19 18
3 17 18 20
3 14 21 12
3 21 22 12
3 21 23 22
3 12 22 8
3 23 24 22
3 24 6 22
3 24 0 6
3 22 6 8
3 20 25 26
3 25 27 26
3 25 28 27
3 26 27 4
3 29 30 31
3 30 26 31
3 30 20 26
3 31 26 4
3 28 32 33
3 32 34 33
3 32 19 34
3 33 34 11
3 28 33 35
3 33 9 35
3 33 11 9
3 35 9 5
3 5 3 35
3 3 27 35
3 3 4 27
3 35 27 28
3 20 18 25
3 18 32 25
3 18 19 32
3 25 32 28
3 19 36 34
3 36 13 34
3 36 14 13
3 34 13 11
3 15 37 16
3 37 36 16
3 37 14 36
3 16 36 19
3 15 17 38
3 17 30 38
3 17 20 30
3 38 30 29
3 39 40 0
3 0 40 1
3 39 41 40
3 41 42 40
3 41 31 42
3 40 42 1
3 31 41 29
3 29 41 39
3 1 42 4
3 42 31 4
3 43 44 23
3 23 44 24
3 43 45 44
3 45 46 44
3 45 39 46
3 44 46 24
3 39 45 29
3 29 45 43
3 24 46 0
3 46 39 0
3 47 48 23
3 23 48 43
3 47 49 48
3 49 50 48
3 49 38 50
3 48 50 43
3 38 49 15
3 15 49 47
3 43 50 29
3 50 38 29
3 37 51 14
3 14 51 21
3 37 52 51
3 52 53 51
3 52 47 53
3 51 53 21
3 47 52 15
3 15 52 37
3 21 53 23
3 53 47 23

CELL_TYPES 104
5
5
5
5
5
5
5
5
5
5
5
5
5
5
5
5
5
5
5
5
5
5
5
5
5
5
5
5
5
5
5
5
5
5
5
5
5
5
5
5
5
5
5
5
5
5
5
5
5
5
5
5
5
5
5
5
5
5
5
5
5
5
5
5
5
5
5
5
5
5
5
5
5
5
5
5
5
5
5
5
5
5
5
5
5
5
5
5
5
5
5
5
5
5
5
5
5
5
5
5
5
5
5
5

CELL_DATA 104
SCALARS cell_data_0 double
LOOKUP_TABLE default
3.90337708663e-05
4.65855747224e-05
5.44657427473e-05
5.61209211755e-05
6.58825796295e-05
0.000128997968824
0.000168465128819
0.000107312291817
0.000170049172341
0.000108125650417
6.55190129429e-05
9.88109107387e-05
5.93506907625e-05
4.86119651167e-05
4.05666908921e-05
8.02254761274e-06
0.000526901367968
8.68892314941e-07
2.58707870796e-05
0.000110345341629
6.43241741014e-06
2.66968181043e-05
7.30719577427e-05
4.72862679669e-05
2.78714337647e-05
4.40050776801e-05
4.06215096244e-05
6.14030340137e-05
0.000147141665973
4.50857167452e-05
0.000150324390535
0.000134720871854
9.15393734573e-05
1.81679142763e-06
0.000125315442291
8.39544624086e-05
5.08435780516e-05
1.61359519434e-05
1.73549054852e-05
1.50505304471e-05
3.27439584671e-05
4.68991814816e-05
4.18734147183e-05
7.14712393417e-05
4.98035872755e-06
8.64663337188e-07
0.000127610973799
9.53360647826e-05
0.000138962396575
1.00697411357e-05
2.1508291047e-05
0.000105277931514
2.06791967968e-05
9.78995529399e-06
7.2107733298e-06
8.95413796598e-06
0.000616225226176
2.4811293706e-05
4.34379664138e-05
2.28805366156e-05
0.000505337571926
1.30433356997e-08
0.000111378046186
0.000102211232534
7.64354954989e-06
1.15327278235e-05
3.03251029345e-06
1.85979916869e-06
1.85425074758e-06
4.60504097913e-06
4.88549519356e-05
4.08680684554e-05
3.23495251556e-05
4.34023667176e-05
4.29524120808e-05
3.2375528857e-05
7.26714858829e-07
1.95276097837e-06
2.60413622439e-06
5.34816922831e-06
4.70289631658e-05
5.11837062441e-05
1.27894744255e-05
8.75040127903e-06
5.70720238695e-05
4.40778064996e-05
6.20802448646e-07
8.61032429699e-07
6.16037565425e-07
1.22832784319e-06
0.000282690076423
0.000287060142581
4.42111199776e-05
5.23311225425e-05
2.30932964701e-05
1.08207793583e-05
6.27324928189e-06
9.53018761844e-07
6.1658847651e-07
1.19323174246e-06
0.000275178396382
0.000325127870107
5.76910393899e-05
5.53497853706e-05

