# vtk DataFile Version 3.0
File Name: Molecule/sphere_excent/sphere_excent_0-s12.vtk
ASCII
DATASET UNSTRUCTURED_GRID
FIELD FieldData 1
TIME 1 1 double
0.0
POINTS 103 double
0.0017365273088 0.84868514538 0.52862113714
-0.53002506495 0.7511305213 0.39268103242
-0.31635144353 0.54748165607 0.77375799417
-0.8114682436 0.30060711503 0.500854671
-0.84885370731 0.52839946747 0.0040639331564
0.34844866395 0.50810188055 0.78586435318
0.050506681204 0.42120102048 0.90376037359
-0.30899730325 -0.56152701378 0.76638865471
0.0014444085537 -0.85248458385 0.52274799347
0.30828225613 -0.50103843212 0.80864799023
0.07100430131 -0.031447742134 0.99626106024
0.52721577883 -0.0012646089308 0.84974092245
0.80612957478 -0.31099805236 0.50341773033
0.50023776293 -0.80879473686 0.30877625942
0.85418558121 -0.51567810774 0.016549803317
0.25860849023 -0.5768840909 -0.7744435668
-0.0046145385131 -0.85492914915 -0.51873159409
-0.31333902478 -0.52402770519 -0.79062747955
0.99604713917 -0.041623342782 0.065126679838
0.78846877813 0.27643722296 0.54738122225
0.49277353287 0.77505970001 0.39251875877
-0.81207025051 0.36185988784 -0.4565101862
-0.99799793959 0.024194112048 0.0072714975104
-0.55517584085 0.7505645752 -0.35653230548
-0.4661989212 -0.82895320654 -0.30620515347
-0.00087719521252 -0.99969744682 0.0013027058449
-0.6128962636 -0.78483760357 0.063910499215
-0.48125952482 -0.81585079432 0.31921815872
-0.57687574625 -0.00014086891315 0.81592208147
-0.81236171722 -0.29398450255 0.49870789051
0.48402613401 -0.8156414628 -0.31036791205
0.0020838938653 0.99983590841 0.00083841290325
-0.27738901973 0.94468903542 0.17510935664
-0.27679902315 0.94483172894 -0.1751653105
-0.54072445631 0.84117472172 0.0023019593209
0.032763380557 0.8582354188 -0.51041167974
0.50336313248 0.80477792025 -0.31418421865
0.53388035297 0.84525746107 0.016937745735
0.84172284603 0.53549164534 -0.042640704662
0.27570939064 0.94886815548 -0.15396898985
0.27907633781 0.94409114122 0.17494784296
0.83359378576 0.33616954088 -0.43614286184
0.68643373251 0.58181202412 -0.43627247214
0.58335417509 0.47615018487 -0.65796035528
0.41622680426 0.67993199825 -0.60335111618
0.19202160835 0.48621666431 -0.85124158859
0.95406836271 -0.17140896618 -0.24557952583
0.80730557442 -0.37140697241 -0.45747089386
0.86848044395 -0.06455463171 -0.49115750194
0.95731991529 0.14921820164 -0.24776029587
0.53962016106 0.010899757966 -0.84178179502
0.43336111307 -0.25947061181 -0.8630977273
0.27803781629 0.0063468483277 -0.96046334505
0.14189362526 -0.2755907774 -0.95033288002
-0.024796552956 0.024836126715 -0.99918842316
0.68359744549 -0.20274883509 -0.70101809502
0.57602143288 -0.45815223455 -0.6765383482
0.71742331982 0.34613567591 -0.60457271338
0.43863990903 0.45047485828 -0.77751523256
0.42377087474 0.24407444894 -0.87225359678
0.57674086094 0.27231794596 -0.77020484209
0.70114892721 0.17000578344 -0.69241416454
0.83361285925 0.14970676601 -0.53165996075
0.73421961069 0.0017379965866 -0.67884874344
-0.4401397109 0.25287228823 0.8614653945
-0.18543818593 0.27798834443 0.94205802679
-0.28158101439 -0.00047612815979 0.95953053236
-0.44642221928 -0.26087975502 0.85382723808
-0.15042234957 -0.27592796087 0.94927668571
-0.51875072718 0.002159923315 -0.85488456488
-0.68624305725 -0.1582043916 -0.70983535051
-0.68801939487 0.16718284786 -0.70573890209
-0.85880190134 -0.0013869022951 -0.5120087266
-0.80500465631 -0.34636113048 -0.48117241263
-0.46609857678 0.61898058653 -0.62861520052
-0.43011510372 0.25144562125 -0.86690866947
-0.67988669872 -0.58699631691 0.43615075946
-0.18543951213 -0.23191191256 -0.95497173071
-0.29115667939 0.014195864089 -0.95651137829
-0.41710743308 -0.2309500277 -0.87919330597
-0.17898337543 0.27417084575 -0.94479906559
-0.29924702644 0.50060796738 -0.81132078171
0.19657954574 0.24365033209 0.94945675135
0.94188678265 0.15335030854 0.29832094908
0.96223568916 0.26913425326 0.044740557671
0.86322188377 0.43162220716 0.26185259223
0.71568226814 0.66791307926 0.20475149155
0.68924880028 0.55904400349 0.46059909463
-0.16259612143 0.70489597321 -0.69035923481
-0.27971467376 0.83336776495 -0.47663843632
-0.042915776372 0.150314942 0.98771393299
-0.85712015629 -0.45574760437 -0.23943801224
-0.94779491425 -0.19479191303 -0.25184625387
-0.96003037691 -0.27935892344 0.0022076913156
-0.85297054052 -0.52141553164 0.022829484195
-0.67853450775 -0.608492136 -0.41098430753
-0.69860476255 -0.69431477785 -0.1699013859
-0.70587521791 -0.68587064743 0.17452774942
-0.85470950603 -0.44662949443 0.26454332471
0.70335781574 -0.69361227751 -0.15529476106
0.85087168217 -0.469609797 -0.23584038019
0.68512582779 -0.61383646727 -0.39234408736
-0.77958452702 -0.62254846096 -0.061459306628

CELLS 202 808
3 0 1 2
3 1 3 2
3 1 4 3
3 5 0 6
3 7 8 9
3 10 9 11
3 11 9 12
3 9 13 12
3 9 8 13
3 12 13 14
3 15 16 17
3 14 18 12
3 12 19 11
3 20 0 5
3 19 5 11
3 21 22 4
3 23 21 4
3 24 25 26
3 24 16 25
3 27 25 8
3 27 8 7
3 28 3 29
3 3 22 29
3 3 4 22
3 17 16 24
3 16 30 25
3 30 13 25
3 25 13 8
3 15 30 16
3 31 32 0
3 0 32 1
3 31 33 32
3 33 34 32
3 33 23 34
3 32 34 1
3 35 33 31
3 1 34 4
3 34 23 4
3 36 37 38
3 36 39 37
3 39 40 37
3 39 31 40
3 37 40 20
3 31 39 35
3 35 39 36
3 20 40 0
3 40 31 0
3 41 42 38
3 38 42 36
3 43 44 42
3 42 44 36
3 36 44 35
3 44 45 35
3 14 46 18
3 47 48 46
3 48 49 46
3 46 49 18
3 49 41 38
3 50 51 52
3 51 53 52
3 51 15 53
3 52 53 54
3 17 53 15
3 50 55 51
3 55 56 51
3 55 47 56
3 51 56 15
3 15 56 30
3 52 54 45
3 47 55 48
3 41 57 42
3 57 43 42
3 43 58 44
3 58 45 44
3 45 58 59
3 58 60 59
3 58 43 60
3 59 60 50
3 50 60 61
3 60 57 61
3 60 43 57
3 61 57 62
3 48 62 49
3 62 41 49
3 41 62 57
3 62 63 61
3 62 48 63
3 61 63 50
3 45 59 52
3 52 59 50
3 50 63 55
3 55 63 48
3 28 64 3
3 3 64 2
3 2 64 65
3 64 66 65
3 64 28 66
3 28 67 66
3 67 68 66
3 67 7 68
3 66 68 10
3 10 68 9
3 9 68 7
3 69 70 71
3 70 72 71
3 70 73 72
3 71 72 21
3 21 72 22
3 71 74 75
3 7 67 76
3 29 67 28
3 73 70 17
3 54 77 78
3 77 79 78
3 77 17 79
3 78 79 69
3 54 80 45
3 80 81 45
3 54 78 80
3 78 75 80
3 78 69 75
3 80 75 81
3 17 77 53
3 53 77 54
3 81 75 74
3 71 75 69
3 69 79 70
3 70 79 17
3 5 82 11
3 82 10 11
3 18 83 12
3 83 19 12
3 18 84 83
3 84 85 83
3 84 38 85
3 83 85 19
3 38 86 85
3 86 87 85
3 86 20 87
3 85 87 19
3 19 87 5
3 5 87 20
3 35 88 89
3 88 74 89
3 88 81 74
3 89 74 23
3 23 74 21
3 21 74 71
3 81 88 45
3 45 88 35
3 35 89 33
3 33 89 23
3 20 86 37
3 37 86 38
3 38 84 49
3 49 84 18
3 65 6 2
3 2 6 0
3 65 90 6
3 90 82 6
3 90 10 82
3 6 82 5
3 10 90 66
3 66 90 65
3 73 91 92
3 91 93 92
3 91 94 93
3 92 93 22
3 22 93 29
3 24 95 17
3 17 95 73
3 73 95 91
3 95 96 91
3 95 24 96
3 73 92 72
3 72 92 22
3 94 97 98
3 97 76 98
3 97 27 76
3 98 76 29
3 29 76 67
3 7 76 27
3 30 99 13
3 99 14 13
3 47 100 101
3 100 99 101
3 100 14 99
3 101 99 30
3 14 100 46
3 46 100 47
3 47 101 56
3 56 101 30
3 94 102 97
3 102 26 97
3 102 96 26
3 97 26 27
3 27 26 25
3 24 26 96
3 94 98 93
3 93 98 29
3 96 102 91
3 91 102 94

CELL_TYPES 202
5
5
5
5
5
5
5
5
5
5
5
5
5
5
5
5
5
5
5
5
5
5
5
5
5
5
5
5
5
5
5
5
5
5
5
5
5
5
5
5
5
5
5
5
5
5
5
5
5
5
5
5
5
5
5
5
5
5
5
5
5
5
5
5
5
5
5
5
5
5
5
5
5
5
5
5
5
5
5
5
5
5
5
5
5
5
5
5
5
5
5
5
5
5
5
5
5
5
5
5
5
5
5
5
5
5
5
5
5
5
5
5
5
5
5
5
5
5
5
5
5
5
5
5
5
5
5
5
5
5
5
5
5
5
5
5
5
5
5
5
5
5
5
5
5
5
5
5
5
5
5
5
5
5
5
5
5
5
5
5
5
5
5
5
5
5
5
5
5
5
5
5
5
5
5
5
5
5
5
5
5
5
5
5
5
5
5
5
5
5
5
5
5
5
5
5
5
5
5
5
5
5

CELL_DATA 202
SCALARS cell_data_0 double
LOOKUP_TABLE default
3.12726611266e-05
3.87176473453e-05
7.10418756572e-05
4.07862058918e-05
6.51307650772e-05
8.11937375252e-05
6.9138342364e-05
1.96838534078e-05
9.94965321728e-07
0.000187971702762
6.34416526154e-05
8.95956162778e-05
4.53587569817e-05
3.73837712448e-05
5.29819034353e-05
7.39016292279e-05
9.9248468413e-05
4.88335768946e-06
2.13389406184e-05
1.05048463716e-05
3.14704970869e-05
2.82084585303e-05
2.98821732167e-05
4.74118376822e-05
3.34837836009e-05
1.54311615744e-05
5.59899979884e-05
5.59803045951e-05
4.87489760201e-05
6.50699949588e-06
5.98065770394e-06
3.26685737432e-06
4.26672395872e-06
2.21592347071e-07
2.51675963622e-06
3.58089730458e-05
5.71141367508e-05
5.86447203329e-05
9.88060997798e-07
2.85393921121e-06
3.9367457862e-06
2.49376021848e-06
6.82293743009e-06
3.63693353832e-05
3.0574468539e-05
1.38782687841e-05
6.68839981606e-06
8.89513866196e-06
4.40123444267e-06
3.98342881955e-07
1.63393086185e-06
3.08056077195e-05
4.22659521265e-05
5.52591316486e-05
2.98632656404e-06
2.40653129169e-06
1.58529481072e-06
6.56283503409e-06
2.16434346993e-05
3.6637277041e-07
9.13587478321e-06
9.72802092184e-07
2.38935738421e-05
2.0623197331e-05
7.80313954567e-07
5.21786918028e-06
7.84441700182e-06
1.25314444711e-05
1.1364486418e-06
4.76417220536e-06
1.41419192981e-07
2.81168390038e-07
1.73021056686e-07
5.33668938477e-07
1.03781211818e-07
1.32592652539e-07
1.00547815593e-07
1.35874233576e-05
1.30388462811e-05
2.9845692423e-07
5.78091008306e-08
1.42965179417e-05
2.06362143302e-05
2.29990432441e-05
1.70045489906e-05
5.09861948879e-05
6.52372862371e-05
5.55926428259e-05
1.53886530353e-07
1.97985458357e-05
6.9217752854e-05
3.21510699519e-05
1.98674021054e-05
2.81501228024e-05
1.98068851953e-05
1.10033847636e-05
3.14078585948e-05
3.30650003767e-05
5.79237651533e-05
2.2098073513e-05
8.26569845362e-05
5.42223275495e-05
5.87381226834e-05
4.16620573511e-05
4.4927055212e-07
3.90508393178e-08
1.00288550283e-06
2.75311974668e-06
5.71909559722e-06
3.27530125555e-05
3.65751013495e-05
2.33028682298e-06
6.7003857414e-07
3.42729971244e-06
7.05621416178e-06
4.51257820314e-05
6.19945446369e-07
2.07057403376e-07
3.16874110463e-07
5.95521757033e-07
3.44221408646e-05
2.20540827857e-08
2.04670374635e-06
1.13599065813e-06
4.36481756631e-06
3.97815448821e-05
5.11014573302e-05
7.7044717099e-06
3.42394365775e-05
3.49312667882e-05
8.81379803932e-06
1.79129394303e-05
3.32784611593e-06
2.3680488874e-05
5.07228592496e-05
2.60046423595e-05
6.16095447533e-05
3.39882457288e-05
5.35193543194e-06
2.89116166055e-05
2.25503006483e-05
1.77361953491e-05
3.37415817952e-05
1.22686157366e-05
8.60655668397e-06
1.49405228996e-05
1.93818234463e-05
1.02788360109e-05
5.18799067414e-06
4.94453601362e-05
2.99312628533e-05
5.66367918352e-06
5.63780490084e-06
3.40264465681e-06
4.00049510464e-07
2.30321853552e-06
4.38636193636e-05
4.55150564096e-05
3.07336388251e-05
1.10652623438e-05
1.26814178556e-05
1.37037369232e-05
5.45808947638e-05
3.96567163726e-05
5.90213784485e-05
5.33312641168e-05
0.000192109080078
2.01165877102e-06
9.27450366045e-06
7.32823409222e-06
5.78006682822e-06
6.50956905247e-05
6.03116810791e-05
2.10855406267e-06
7.78876484063e-09
2.3686405294e-06
6.26457604135e-05
4.39983231446e-06
5.08403737469e-06
5.38700544281e-06
2.66604642388e-05
2.07917526874e-05
3.80724671731e-05
0.000128270702777
4.54716925552e-06
9.32333167701e-07
2.92296767511e-05
9.34994097314e-07
2.68695221881e-05
3.65394536913e-06
5.70669190168e-06
1.12438984211e-06
3.9659114821e-05
1.60610409626e-06
6.9222587402e-07
2.22257079952e-06
8.27969553352e-06
2.12488667147e-07
6.97402531314e-05
4.85539624143e-06
3.03873232519e-05
0.000106119613668

