# vtk DataFile Version 3.0
File Name: Molecule/sphere_excent/sphere_excent_0-s7.vtk
ASCII
DATASET UNSTRUCTURED_GRID
FIELD FieldData 1
TIME 1 1 double
0.0
POINTS 66 double
-0.00013725861209 0.85140097141 0.52448099852
-0.52058285475 0.76927655935 0.3697540462
-0.30731144547 0.49728682637 0.81133174896
-0.80992418528 0.30522575974 0.50079661608
-0.84953397512 0.52739870548 1.289431475e-05
-0.52566230297 -0.00022847559012 0.85069340467
0.3077827096 0.49801412225 0.81069946289
2.3335147489e-05 -0.00027859778493 0.99990028143
0.52566725016 -0.00013033625146 0.85069054365
-0.30897688866 -0.49996590614 0.80891931057
0.30897572637 -0.49995797873 0.80892652273
1.6569333638e-06 -0.85065168142 0.52572971582
0.80821323395 -0.30952054262 0.50089716911
0.49999684095 -0.80892241001 0.30894073844
0.85114836693 -0.52490818501 -0.00031728547765
0.28763139248 -0.53155821562 -0.79595786333
-0.00034798873821 -0.85092765093 -0.52537888288
-0.30868902802 -0.49972289801 -0.80925780535
-0.033817097545 0.017958588898 -0.99838244915
-0.52614802122 -0.00014873781765 -0.85042160749
0.99884796143 0.0015427515609 0.043716158718
0.80902945995 0.30679935217 0.50145816803
0.8503357172 0.52622914314 -0.00076848949539
0.51924687624 0.77427482605 0.3614936769
-0.80888622999 -0.30909904838 -0.49995625019
-0.80996692181 0.30524331331 -0.50072395802
-0.9998986125 6.384520384e-05 4.8689003052e-06
-0.85065096617 -0.52573090792 -5.2592326938e-07
0.00018899045244 0.8510441184 -0.52507185936
-0.3101220727 0.49728304148 -0.81038868427
-0.52006870508 0.76974904537 -0.36927080154
-0.49994778633 -0.80892699957 -0.30899468064
-0.4999435544 -0.8089312315 0.30898159742
5.2663363022e-06 -0.99989563227 5.74160822e-07
-0.80886667967 -0.30915123224 0.49995315075
0.49957555532 -0.8092725873 -0.30902442336
0.80458593369 -0.34367319942 -0.48250350356
0.25576260686 0.48605775833 -0.83335649967
0.0069191418588 0.99982100725 -2.6793153665e-05
-0.26955214143 0.94837039709 0.16726124287
-0.26944866776 0.94845533371 -0.16696156561
-0.53058546782 0.84756320715 7.3533497925e-05
0.50341182947 0.80369400978 -0.3169580102
0.52769905329 0.84938848019 0.0060360957868
0.27348953485 0.94869625568 -0.15893821418
0.27627187967 0.94663774967 0.16597706079
0.81721574068 0.30476456881 -0.4868901968
0.68801319599 0.58124613762 -0.43450132012
0.58394050598 0.43919864297 -0.68139243126
0.42539551854 0.67974859476 -0.59731847048
0.95172989368 -0.16259714961 -0.26048195362
0.85718947649 -0.02351780422 -0.51197659969
0.95430380106 0.15260350704 -0.25731569529
0.53532981873 0.012491429225 -0.84464740753
0.4349603951 -0.25680813193 -0.86297422647
0.27590280771 0.0014481794788 -0.96099919081
0.1563450098 -0.26592898369 -0.95114606619
0.68556547165 -0.18035887182 -0.70530533791
0.58072978258 -0.43694260716 -0.68673944473
0.70913761854 0.36231014132 -0.60468888283
0.43796464801 0.45839339495 -0.77311807871
0.42307204008 0.25637596846 -0.86894029379
0.57538175583 0.2363075316 -0.78255778551
0.70318746567 0.16655090451 -0.69077962637
0.84156644344 0.14555492997 -0.51997637749
0.71857750416 0.0031302804127 -0.69511693716

CELLS 128 512
3 0 1 2
3 1 3 2
3 1 4 3
3 2 3 5
3 0 2 6
3 2 7 6
3 2 5 7
3 6 7 8
3 5 9 7
3 9 10 7
3 9 11 10
3 7 10 8
3 8 10 12
3 10 13 12
3 10 11 13
3 12 13 14
3 15 16 17
3 18 17 19
3 14 20 12
3 20 21 12
3 20 22 21
3 12 21 8
3 22 23 21
3 23 6 21
3 23 0 6
3 21 6 8
3 19 24 25
3 24 26 25
3 24 27 26
3 25 26 4
3 28 29 30
3 29 25 30
3 29 19 25
3 30 25 4
3 27 31 32
3 31 33 32
3 31 16 33
3 32 33 11
3 27 32 34
3 32 9 34
3 32 11 9
3 34 9 5
3 5 3 34
3 3 26 34
3 3 4 26
3 34 26 27
3 19 17 24
3 17 31 24
3 17 16 31
3 24 31 27
3 16 35 33
3 35 13 33
3 35 14 13
3 33 13 11
3 36 14 35
3 15 35 16
3 18 29 37
3 18 19 29
3 37 29 28
3 38 39 0
3 0 39 1
3 38 40 39
3 40 41 39
3 40 30 41
3 39 41 1
3 30 40 28
3 28 40 38
3 1 41 4
3 41 30 4
3 42 43 22
3 22 43 23
3 42 44 43
3 44 45 43
3 44 38 45
3 43 45 23
3 38 44 28
3 28 44 42
3 23 45 0
3 45 38 0
3 46 47 22
3 22 47 42
3 48 49 47
3 47 49 42
3 42 49 28
3 49 37 28
3 36 50 14
3 14 50 20
3 36 51 50
3 51 52 50
3 50 52 20
3 20 52 22
3 52 46 22
3 53 54 55
3 54 56 55
3 54 15 56
3 55 56 18
3 18 56 17
3 17 56 15
3 53 57 54
3 57 58 54
3 57 36 58
3 54 58 15
3 15 58 35
3 35 58 36
3 55 18 37
3 36 57 51
3 46 59 47
3 59 48 47
3 48 60 49
3 60 37 49
3 37 60 61
3 60 62 61
3 60 48 62
3 61 62 53
3 53 62 63
3 62 59 63
3 62 48 59
3 63 59 46
3 51 64 52
3 64 46 52
3 46 64 63
3 64 65 63
3 64 51 65
3 63 65 53
3 37 61 55
3 55 61 53
3 53 65 57
3 57 65 51

CELL_TYPES 128
5
5
5
5
5
5
5
5
5
5
5
5
5
5
5
5
5
5
5
5
5
5
5
5
5
5
5
5
5
5
5
5
5
5
5
5
5
5
5
5
5
5
5
5
5
5
5
5
5
5
5
5
5
5
5
5
5
5
5
5
5
5
5
5
5
5
5
5
5
5
5
5
5
5
5
5
5
5
5
5
5
5
5
5
5
5
5
5
5
5
5
5
5
5
5
5
5
5
5
5
5
5
5
5
5
5
5
5
5
5
5
5
5
5
5
5
5
5
5
5
5
5
5
5
5
5
5
5

CELL_DATA 128
SCALARS cell_data_0 double
LOOKUP_TABLE default
3.99169262017e-05
4.71394886313e-05
2.47843830172e-05
5.72954094221e-05
6.84749276326e-05
0.000146631887865
0.000176358804775
9.95796948023e-05
0.000170649857469
9.69143743343e-05
6.82178010696e-05
9.05452237258e-05
6.24149380752e-05
4.90818761193e-05
4.15156061418e-05
1.28989545082e-05
2.20147352811e-05
0.00011440277541
5.59915391067e-06
1.91983430124e-05
9.41652315773e-05
4.83110100111e-05
4.62818650408e-05
4.4698030557e-05
3.9548995732e-05
6.70191133333e-05
0.000172308889262
2.62920950293e-05
8.78982076168e-05
0.000122390756917
0.000107406072736
2.943113916e-05
0.000158778637134
0.000139728186174
6.05911108186e-05
1.16489320088e-05
1.82601293132e-05
6.58869821893e-06
3.69784929445e-05
4.7172669691e-05
4.13736077271e-05
7.48839193833e-05
3.10779359752e-05
3.05449302078e-05
5.08064726443e-05
4.51669385357e-05
0.000126113048964
1.52410153209e-06
1.93680026479e-05
8.69119865855e-05
2.81341723658e-05
1.01372698252e-05
3.62590308159e-06
1.12512894992e-05
4.45495619074e-05
2.16714533833e-05
1.79567734498e-06
0.000107099358397
9.85456239508e-05
8.83289853275e-06
1.35358456861e-05
3.26713974249e-06
2.35245236563e-06
1.02982353937e-06
6.10058437441e-06
6.88305478004e-05
4.42158020914e-05
2.81289711033e-05
5.4107561187e-05
4.96830935459e-05
4.05465801721e-05
1.30617551574e-06
2.44396016451e-06
3.69378767026e-06
5.11677897525e-06
3.73476807022e-05
4.24092793002e-05
1.30802295535e-05
8.78095065299e-06
5.38965324169e-05
4.31525457967e-05
5.82191127849e-07
1.07691477981e-06
4.86503932547e-05
6.05581793892e-05
2.07790664862e-05
9.7399420075e-06
6.01163342782e-06
1.5899271625e-06
5.32770181611e-07
5.50265431646e-05
5.00020617784e-05
0.000138475062897
7.00198405773e-07
6.24320544639e-07
2.53202554228e-07
1.52061363978e-06
3.69110121938e-07
0.000133679986283
6.86350478484e-07
5.27886853247e-06
6.22627425532e-07
4.43545677363e-07
1.35309159539e-05
2.88223003702e-07
6.22059103676e-06
1.22346622939e-07
5.14707811085e-07
1.44971188417e-07
6.78497738447e-08
1.55480557459e-07
3.55936479546e-07
3.23254430482e-07
7.48767860454e-05
7.35170189001e-05
3.3946595368e-07
3.03458638445e-07
1.9302663712e-07
6.67798287621e-07
1.50709849065e-07
2.02835831304e-07
3.41664305437e-07
1.86348501562e-07
7.05293813779e-05
5.24744495151e-07
0.000129691871438
7.98788367972e-05
2.18328413162e-07

