# vtk DataFile Version 3.0
File Name: Molecule/sphere_excent/sphere_excent_0-s23.vtk
ASCII
DATASET UNSTRUCTURED_GRID
FIELD FieldData 1
TIME 1 1 double
0.0
POINTS 244 double
-0.017810352147 0.86123269796 0.50705033541
-0.54363775253 0.73591387272 0.4028609395
-0.29884403944 0.59823668003 0.74274897575
-0.83052909374 0.55322277546 0.064652651548
-0.83601623774 0.32710272074 0.43975958228
0.3241673708 -0.58898442984 0.74030464888
0.0073606264777 -0.8577863574 0.51391774416
0.41394081712 -0.83551853895 0.3608430922
0.20512472093 -0.60212695599 -0.76974087954
-0.0098873814568 -0.86166059971 -0.50723052025
-0.21347545087 -0.54494071007 -0.8104159236
0.79337006807 -0.20472547412 0.57258152962
0.76574349403 0.24718146026 0.5937166214
0.57470023632 0.041270710528 0.81616926193
-0.35532853007 -0.88589286804 -0.29755273461
0.0086185168475 -0.99988341331 0.011150673032
-0.52932941914 -0.84650403261 0.034062441438
-0.40106961131 -0.83997958899 0.3655115068
-0.337603122 -0.64402109385 0.68634730577
-0.97780501842 0.14894540608 0.14351958036
0.40461468697 -0.84313541651 -0.35202607512
0.55191069841 -0.83326858282 0.016497505829
0.0016785275657 0.99942189455 0.030825354159
-0.28777292371 0.93963098526 0.18520104885
-0.26286399364 0.94597864151 -0.18951697648
-0.55053812265 0.83466291428 0.017760504037
-0.60076147318 0.73375409842 -0.31194400787
-0.016008604318 0.87109899521 -0.49053245783
0.10996967554 0.95998418331 -0.25641450286
0.2908962667 0.95453220606 -0.064571753144
0.26920202374 0.94022870064 0.20740044117
0.50928175449 0.85578095913 0.088589154184
0.45194101334 0.78248602152 0.42805957794
0.59045654535 0.48904055357 -0.64186656475
0.43743151426 0.63307869434 -0.63860756159
0.64391934872 0.62173420191 -0.44346061349
0.50754052401 -0.03841002658 -0.86060255766
0.39245650172 -0.28279608488 -0.87487918139
0.26392716169 -0.035147108138 -0.96373957396
0.11162280291 -0.30490785837 -0.94558131695
-0.0070011215284 0.013490023091 -0.99987876415
0.46422478557 0.46894231439 -0.75117719173
0.54826134443 0.34836575389 -0.76017898321
0.68127864599 -0.20442022383 -0.70286726952
0.75786572695 -0.070953316987 -0.64814543724
0.75802272558 -0.26864096522 -0.59401363134
-0.21811495721 0.31384515762 0.92384523153
-0.41831043363 0.23289966583 0.87739872932
-0.18426048756 0.10057762265 0.97706568241
-0.60726428032 -0.067561030388 0.79096770287
-0.49054941535 -0.32736718655 0.80730742216
-0.36354503036 -0.013131197542 0.93078106642
-0.20881479979 -0.25967893004 0.94260537624
-0.56205713749 0.010696541518 -0.8264195323
-0.68934553862 -0.15739350021 -0.70705896616
-0.68577665091 0.20114578307 -0.69935816526
-0.82061803341 0.032017491758 -0.56989103556
-0.74917584658 0.42928144336 -0.50348228216
-0.86576807499 0.24808178842 -0.43290165067
-0.50046640635 0.56514167786 -0.65312826633
-0.43149647117 0.31825190783 -0.84379673004
-0.63638776541 -0.57450515032 0.51461577415
-0.79525238276 -0.25079393387 0.55189418793
-0.17841866612 -0.22896836698 -0.95679962635
-0.24485586584 0.018565764651 -0.96931993961
-0.45206537843 -0.30913588405 -0.83638375998
-0.14356376231 0.27414283156 -0.95080769062
0.16139262915 0.23101370037 -0.95916122198
-0.25507855415 0.49837082624 -0.8284971118
0.077098183334 0.50898176432 -0.85712444782
-0.6563924551 -0.41239902377 -0.63116949797
0.93067282438 0.17135515809 0.32143062353
0.85410279036 0.40079161525 0.3304258585
0.67343515158 0.70134341717 0.23192903399
0.67647010088 0.55710989237 0.48168191314
0.44061249495 0.51871621609 0.73068273067
-0.11798837036 0.70510911942 -0.69742375612
0.19598972797 0.74352604151 -0.63880932331
-0.30058756471 0.82462364435 -0.47694498301
0.97473019361 0.10611338168 -0.19091504812
0.98046541214 0.18464334309 0.056476950645
0.99427443743 -0.091579414904 0.046787820756
0.0030608251691 0.44565272331 0.89494174719
-0.010416561738 0.19053551555 0.98151755333
0.21750065684 0.23639325798 0.94661122561
0.13283225894 -0.0079289469868 0.99099522829
-0.82515484095 -0.55559742451 0.10110708326
-0.68851959705 -0.68786841631 0.2292008549
-0.82247853279 -0.47983199358 0.30521157384
0.82407152653 -0.35208162665 -0.44265443087
0.84018170834 -0.48660060763 -0.23937746882
0.70640927553 -0.5824509263 -0.400467664
0.6772711277 -0.70580941439 -0.20709300041
0.89664316177 -0.43985766172 -0.026070712134
0.94775462151 -0.22649428248 -0.21483787894
-0.76481151581 -0.64352422953 0.0057079950348
0.64937895536 -0.5602158308 0.5133972168
0.5146407485 -0.29189932346 0.80612689257
0.85089600086 -0.42289379239 0.3092662394
0.7160050869 -0.66300070286 0.21848891675
-0.8458597064 -0.4667480886 -0.25630480051
-0.85033416748 -0.52041429281 -0.077494487166
-0.91851860285 -0.37652626634 -0.12031380832
-0.90674257278 -0.4140445888 0.080019108951
-0.96278870106 -0.26825499535 0.03252120316
0.77636343241 -0.62973868847 -0.025780074298
0.88191920519 -0.44947195053 0.13790088892
-0.92696303129 -0.2736159265 0.25638717413
-0.017776092514 -0.62077188492 0.78370165825
0.24023938179 -0.26474517584 0.93388271332
0.34340006113 -0.046375274658 0.93798172474
-0.21456079185 -0.46619006991 0.85824322701
-0.0011911015026 -0.18160974979 0.98328840733
0.036080509424 -0.41013759375 0.91130357981
-0.83632719517 0.48454490304 -0.25616890192
-0.93442857265 -0.039489168674 0.35255366564
-0.77102541924 0.083831399679 0.63092464209
0.37479072809 0.88825935125 -0.26542454958
0.53416448832 0.8348980546 -0.13218839467
0.24873162806 0.86747521162 -0.43004623055
0.43958553672 0.76649755239 -0.46800208092
0.54999399185 0.77681088448 -0.30650210381
0.30664789677 0.52344340086 -0.79449903965
-0.98522305489 -0.11133766919 0.12928345799
-0.96076536179 -0.24729651213 -0.12559768558
-0.92896974087 -0.25675520301 -0.2664295733
-0.92613953352 0.34382203221 -0.15418505669
-0.99935054779 -0.029946973547 -0.0059358710423
-0.98713135719 -0.15270666778 -0.046620942652
-0.9900444746 -0.056592963636 -0.12867388129
-0.96824550629 -0.15916858613 -0.19251514971
-0.97885388136 0.020501449704 -0.20298716426
-0.99249559641 0.074293933809 -0.095596216619
-0.3591273129 -0.74150812626 -0.56668245792
-0.53273767233 -0.73892349005 -0.4126663506
-0.474822402 -0.54926419258 -0.68706613779
-0.58727753162 -0.60079497099 -0.54220229387
-0.73589468002 -0.48298981786 -0.47431400418
-0.7626901269 -0.54900276661 -0.34196951985
-0.82613939047 -0.4084520936 -0.38763529062
-0.66847789288 -0.61495518684 -0.41826841235
-0.67501562834 -0.67518979311 -0.29736179113
-0.77811324596 -0.59294766188 -0.20715726912
-0.69636267424 -0.69689637423 -0.17106835544
-0.56367123127 -0.78202176094 -0.26478222013
-0.73092633486 -0.67615926266 -0.090539082885
-0.58991599083 0.49216765165 0.63990712166
0.68942093849 0.69020301104 -0.21841494739
0.68498951197 0.72835570574 -0.019540918991
0.83572608232 0.53106278181 -0.13861595094
0.76262390614 0.51979643106 -0.38267681003
-0.55921852589 0.12258975208 0.81975382566
-0.64133614302 0.28328347206 0.71293878555
-0.43797564507 0.41111850739 0.79954463243
-0.79912507534 -0.32178145647 -0.50725394487
-0.97570621967 0.21170210838 -0.049092356116
-0.96823376417 0.15974600613 -0.1923686564
-0.92507493496 0.26373815536 -0.27287468314
-0.93227535486 0.13875846565 -0.33373242617
0.41683119535 0.36466374993 -0.8325548172
0.38184919953 0.25161531568 -0.889092803
0.50101727247 0.25326320529 -0.8275180459
0.46648409963 0.14215439558 -0.87304127216
0.56012970209 0.15219408274 -0.81422591209
0.62401276827 0.23529428244 -0.74511790276
0.64128828049 0.090554639697 -0.76188284159
0.7008946538 0.16756469011 -0.69330406189
0.64738422632 0.34588703513 -0.67912423611
0.71969997883 0.26486748457 -0.64175862074
0.71017289162 0.39713144302 -0.58102011681
0.77361577749 0.16450722516 -0.61188101768
0.79990875721 0.2510279417 -0.54461979866
0.8562656045 0.13366818428 -0.49770590663
0.80417734385 0.049559935927 -0.59202563763
0.72686743736 0.062615141273 -0.68371534348
0.86944079399 -0.089423902333 -0.48512595892
0.65497601032 -0.048994712532 -0.75390535593
0.34752896428 0.11493886262 -0.93054622412
0.56161934137 -0.23387725651 -0.79343032837
0.27617552876 0.3751937151 -0.88473534584
0.92901617289 0.33310526609 0.16057774425
0.93043345213 0.36165854335 -0.055000867695
0.87353044748 0.47745630145 0.093655414879
0.78777265549 0.61128395796 0.076208762825
0.79252058268 0.55775970221 0.2464786917
0.84298539162 0.38798823953 -0.37197336555
0.92212086916 0.27892455459 -0.26607626677
-0.038700707257 0.002297161147 0.99922513962
-0.16344891489 -0.076190948486 0.98352241516
0.22262640297 0.7077537775 0.67018246651
0.20606032014 0.51621186733 0.83151239157
0.011563597247 0.66628098488 0.74558377266
0.93762564659 0.0042786668055 -0.34727150202
0.86882430315 0.25234147906 -0.42587211728
0.91832488775 0.14808520675 -0.36628720164
-0.8292606473 -0.14955078065 -0.53828507662
-0.35664772987 -0.12513652444 -0.92580145597
-0.41775918007 0.013052947819 -0.90846824646
-0.49517253041 -0.12353208661 -0.85971993208
-0.35305967927 0.15397106111 -0.92272025347
-0.4909248054 0.14379893243 -0.85904854536
-0.92121332884 -0.094933845103 -0.3772547245
-0.88552856445 -0.19596497715 -0.42118695378
-0.94325304031 -0.14510753751 -0.2986575067
-0.88343906403 -0.057315006852 -0.46506682038
-0.89738154411 0.065197303891 -0.43611159921
-0.92984312773 0.0034298652317 -0.3678342104
-0.95251107216 -0.041521374136 -0.30159050226
-0.97136706114 -0.073946923018 -0.22574242949
-0.95694386959 0.055309437215 -0.28482508659
0.63108175993 -0.35499626398 -0.68966561556
0.51034557819 -0.39241954684 -0.76521456242
0.55711317062 -0.50914853811 -0.65600657463
0.69995748997 -0.43127006292 -0.56910562515
0.40605518222 -0.57284802198 -0.71207928658
0.97594249249 0.013831891119 0.21796000004
0.93208539486 -0.16550286114 0.32203027606
0.90008676052 -0.018424157053 0.43462848663
-0.87244397402 -0.30641078949 -0.38078671694
-0.88741981983 -0.36224967241 -0.28490561247
0.51301604509 0.28403282166 0.80946189165
0.32324320078 -0.745051682 -0.5832092762
0.96002775431 -0.27785569429 0.027103170753
0.49304294586 -0.68439722061 -0.536857903
0.77672535181 0.4100241363 -0.47781249881
0.70633202791 0.49583441019 -0.50508457422
0.34621798992 0.37008193135 0.86200338602
0.40728148818 0.15803793073 0.89951550961
0.57295525074 -0.71584814787 -0.39890664816
0.62247896194 -0.57248950005 -0.53353983164
-0.66547185183 -0.74611032009 0.018676893786
-0.63575965166 -0.76821696758 -0.075862318277
0.94429528713 -0.27703911066 0.17779220641
-0.63141036034 -0.75100028515 -0.19328652322
-0.56666320562 -0.81405717134 -0.12497285753
0.76577562094 0.33051791787 -0.55169761181
0.81716495752 0.32947257161 -0.47296369076
0.92375552654 -0.14857786894 -0.35295388103
0.97395467758 -0.057524248958 -0.21838346124
-0.2244464606 0.77021831274 -0.59704393148
-0.31733867526 0.65634554625 -0.68444424868
-0.4085919559 0.71254235506 -0.57055848837
-0.45536786318 0.7876252532 -0.4152290225
-0.55528503656 0.66626173258 -0.49765437841

CELLS 484 1936
3 0 1 2
3 1 3 4
3 5 6 7
3 8 9 10
3 11 12 13
3 14 15 16
3 14 9 15
3 17 15 6
3 17 6 18
3 4 3 19
3 9 20 15
3 7 15 21
3 15 7 6
3 22 23 0
3 0 23 1
3 22 24 23
3 24 25 23
3 24 26 25
3 23 25 1
3 27 24 28
3 1 25 3
3 25 26 3
3 29 30 31
3 29 22 30
3 31 30 32
3 32 30 0
3 30 22 0
3 33 34 35
3 36 37 38
3 37 39 38
3 37 8 39
3 38 39 40
3 10 39 8
3 33 41 34
3 41 33 42
3 43 44 45
3 46 47 48
3 49 50 51
3 50 52 51
3 53 54 55
3 54 56 55
3 57 55 58
3 55 59 60
3 18 50 61
3 62 50 49
3 40 63 64
3 63 10 65
3 40 66 67
3 66 68 69
3 40 64 66
3 66 60 68
3 10 63 39
3 39 63 40
3 68 60 59
3 54 65 70
3 71 72 12
3 73 32 74
3 72 74 12
3 12 74 75
3 75 74 32
3 57 59 55
3 68 76 69
3 69 76 77
3 27 78 24
3 32 73 31
3 79 80 81
3 46 82 2
3 46 83 82
3 83 84 82
3 83 85 84
3 86 87 88
3 87 61 88
3 87 17 61
3 88 61 62
3 62 61 50
3 18 61 17
3 89 90 91
3 90 92 91
3 93 90 94
3 94 90 89
3 86 95 87
3 87 16 17
3 17 16 15
3 7 96 5
3 5 96 97
3 11 96 98
3 96 99 98
3 96 7 99
3 100 101 102
3 101 103 102
3 101 86 103
3 102 103 104
3 92 21 20
3 20 21 15
3 92 105 21
3 105 99 21
3 99 105 106
3 21 99 7
3 93 105 90
3 90 105 92
3 104 103 107
3 88 103 86
3 86 101 95
3 5 108 6
3 6 108 18
3 85 109 110
3 109 97 110
3 109 5 97
3 110 97 13
3 13 97 11
3 11 97 96
3 18 111 50
3 50 111 52
3 85 112 109
3 112 113 109
3 112 52 113
3 109 113 5
3 5 113 108
3 113 111 108
3 113 52 111
3 108 111 18
3 85 110 84
3 57 114 26
3 26 114 3
3 19 115 4
3 4 115 116
3 117 29 118
3 29 28 22
3 22 28 24
3 27 28 119
3 28 117 119
3 28 29 117
3 119 117 120
3 34 120 35
3 35 120 121
3 121 120 117
3 120 77 119
3 120 34 77
3 119 77 27
3 27 77 76
3 69 77 122
3 19 123 115
3 123 107 115
3 123 104 107
3 115 107 62
3 62 107 88
3 88 107 103
3 104 124 102
3 102 124 125
3 56 58 55
3 57 58 114
3 114 126 3
3 19 127 123
3 127 128 123
3 127 129 128
3 123 128 104
3 104 128 124
3 128 130 124
3 128 129 130
3 124 130 125
3 131 129 132
3 14 133 9
3 9 133 10
3 14 134 133
3 135 133 136
3 133 135 10
3 10 135 65
3 137 138 139
3 140 141 138
3 141 142 138
3 141 143 142
3 138 142 100
3 140 134 141
3 134 144 141
3 134 14 144
3 100 142 101
3 95 101 145
3 4 146 1
3 1 146 2
3 49 116 62
3 62 116 115
3 121 118 147
3 118 148 147
3 118 31 148
3 147 148 149
3 121 147 35
3 35 147 150
3 49 151 116
3 151 152 116
3 151 47 152
3 116 152 4
3 4 152 146
3 152 153 146
3 152 47 153
3 146 153 2
3 2 153 46
3 153 47 46
3 47 151 51
3 151 49 51
3 135 70 65
3 54 70 154
3 73 148 31
3 126 155 3
3 3 155 19
3 19 155 132
3 155 156 132
3 155 126 156
3 132 156 131
3 31 118 29
3 117 118 121
3 58 157 114
3 157 126 114
3 58 158 157
3 158 156 157
3 157 156 126
3 19 132 127
3 127 132 129
3 140 136 134
3 134 136 133
3 135 136 70
3 136 137 70
3 136 140 137
3 70 137 154
3 138 137 140
3 41 42 159
3 160 161 162
3 161 163 162
3 163 161 164
3 162 163 36
3 36 163 165
3 163 164 165
3 42 164 161
3 165 164 166
3 42 167 164
3 167 168 164
3 167 169 168
3 164 168 166
3 169 167 33
3 33 167 42
3 166 168 170
3 168 171 170
3 170 171 172
3 172 173 170
3 173 174 170
3 173 44 174
3 170 174 166
3 44 173 175
3 175 173 172
3 166 174 165
3 174 176 165
3 174 44 176
3 165 176 36
3 162 36 177
3 36 176 178
3 176 44 43
3 69 67 66
3 40 67 38
3 41 122 34
3 34 122 77
3 69 122 179
3 122 159 179
3 122 41 159
3 179 159 160
3 69 179 67
3 177 67 160
3 179 160 67
3 67 177 38
3 80 180 71
3 180 72 71
3 80 181 180
3 181 182 180
3 181 149 182
3 180 182 72
3 149 183 182
3 183 184 182
3 183 73 184
3 182 184 72
3 72 184 74
3 74 184 73
3 185 149 186
3 181 80 79
3 83 187 85
3 85 187 112
3 51 48 47
3 48 83 46
3 112 188 52
3 52 188 51
3 51 188 48
3 188 187 48
3 188 112 187
3 48 187 83
3 73 183 148
3 148 183 149
3 160 159 161
3 161 159 42
3 38 177 36
3 162 177 160
3 75 189 190
3 189 191 190
3 189 0 191
3 190 191 82
3 0 189 32
3 32 189 75
3 79 186 181
3 181 186 149
3 175 172 192
3 172 193 194
3 193 186 194
3 193 185 186
3 194 186 79
3 154 195 54
3 54 195 56
3 65 196 63
3 63 196 64
3 64 196 197
3 196 198 197
3 196 65 198
3 197 198 53
3 64 199 66
3 199 60 66
3 64 197 199
3 197 200 199
3 197 53 200
3 199 200 60
3 60 200 55
3 55 200 53
3 53 198 54
3 198 65 54
3 82 191 2
3 2 191 0
3 84 190 82
3 201 202 203
3 154 202 195
3 202 204 195
3 202 201 204
3 195 204 56
3 56 204 205
3 204 206 205
3 204 201 206
3 205 206 158
3 131 207 208
3 207 203 208
3 207 201 203
3 208 203 130
3 130 203 125
3 125 203 202
3 131 208 129
3 208 130 129
3 131 209 207
3 209 206 207
3 209 158 206
3 207 206 201
3 56 205 58
3 58 205 158
3 158 209 156
3 209 131 156
3 171 193 172
3 43 178 176
3 36 178 37
3 43 210 178
3 210 211 178
3 210 212 211
3 178 211 37
3 43 45 210
3 45 213 210
3 45 89 213
3 210 213 212
3 8 37 214
3 89 45 175
3 175 45 44
3 81 215 216
3 215 217 216
3 215 71 217
3 216 217 11
3 11 217 12
3 12 217 71
3 71 215 80
3 80 215 81
3 154 139 218
3 139 219 218
3 139 100 219
3 218 219 125
3 91 213 89
3 98 216 11
3 125 219 102
3 102 219 100
3 100 139 138
3 137 139 154
3 154 218 202
3 202 218 125
3 75 220 12
3 12 220 13
3 8 221 9
3 221 20 9
3 185 150 149
3 149 150 147
3 81 222 94
3 94 222 93
3 8 214 221
3 214 223 221
3 214 212 223
3 221 223 20
3 185 224 150
3 224 225 150
3 224 169 225
3 150 225 35
3 35 225 33
3 33 225 169
3 75 226 220
3 226 227 220
3 226 84 227
3 220 227 13
3 20 228 92
3 92 228 91
3 212 229 223
3 229 228 223
3 229 91 228
3 223 228 20
3 95 230 87
3 230 16 87
3 95 145 230
3 145 231 230
3 145 143 231
3 230 231 16
3 93 106 105
3 99 106 98
3 81 232 222
3 232 106 222
3 232 98 106
3 222 106 93
3 143 145 142
3 142 145 101
3 13 227 110
3 110 227 84
3 144 233 141
3 141 233 143
3 143 233 231
3 233 234 231
3 233 144 234
3 231 234 16
3 16 234 14
3 234 144 14
3 169 235 168
3 168 235 171
3 185 236 224
3 236 235 224
3 236 171 235
3 224 235 169
3 84 226 190
3 190 226 75
3 171 236 193
3 193 236 185
3 212 214 211
3 211 214 37
3 91 229 213
3 213 229 212
3 98 232 216
3 216 232 81
3 175 237 89
3 89 237 94
3 175 192 237
3 192 238 237
3 192 79 238
3 237 238 94
3 94 238 81
3 238 79 81
3 76 239 27
3 27 239 78
3 76 240 239
3 240 241 239
3 240 59 241
3 239 241 78
3 59 240 68
3 68 240 76
3 78 241 242
3 241 243 242
3 241 59 243
3 242 243 26
3 26 243 57
3 243 59 57
3 78 242 24
3 24 242 26
3 79 192 194
3 194 192 172

CELL_TYPES 484
5
5
5
5
5
5
5
5
5
5
5
5
5
5
5
5
5
5
5
5
5
5
5
5
5
5
5
5
5
5
5
5
5
5
5
5
5
5
5
5
5
5
5
5
5
5
5
5
5
5
5
5
5
5
5
5
5
5
5
5
5
5
5
5
5
5
5
5
5
5
5
5
5
5
5
5
5
5
5
5
5
5
5
5
5
5
5
5
5
5
5
5
5
5
5
5
5
5
5
5
5
5
5
5
5
5
5
5
5
5
5
5
5
5
5
5
5
5
5
5
5
5
5
5
5
5
5
5
5
5
5
5
5
5
5
5
5
5
5
5
5
5
5
5
5
5
5
5
5
5
5
5
5
5
5
5
5
5
5
5
5
5
5
5
5
5
5
5
5
5
5
5
5
5
5
5
5
5
5
5
5
5
5
5
5
5
5
5
5
5
5
5
5
5
5
5
5
5
5
5
5
5
5
5
5
5
5
5
5
5
5
5
5
5
5
5
5
5
5
5
5
5
5
5
5
5
5
5
5
5
5
5
5
5
5
5
5
5
5
5
5
5
5
5
5
5
5
5
5
5
5
5
5
5
5
5
5
5
5
5
5
5
5
5
5
5
5
5
5
5
5
5
5
5
5
5
5
5
5
5
5
5
5
5
5
5
5
5
5
5
5
5
5
5
5
5
5
5
5
5
5
5
5
5
5
5
5
5
5
5
5
5
5
5
5
5
5
5
5
5
5
5
5
5
5
5
5
5
5
5
5
5
5
5
5
5
5
5
5
5
5
5
5
5
5
5
5
5
5
5
5
5
5
5
5
5
5
5
5
5
5
5
5
5
5
5
5
5
5
5
5
5
5
5
5
5
5
5
5
5
5
5
5
5
5
5
5
5
5
5
5
5
5
5
5
5
5
5
5
5
5
5
5
5
5
5
5
5
5
5
5
5
5
5
5
5
5
5
5
5
5
5
5
5
5
5
5
5
5
5
5
5
5
5
5
5
5
5
5
5
5
5
5
5
5
5
5
5
5
5
5
5
5
5
5
5
5
5
5
5
5
5
5
5
5
5
5
5
5
5
5
5
5
5
5
5
5
5
5
5
5
5
5
5

CELL_DATA 484
SCALARS cell_data_0 double
LOOKUP_TABLE default
2.81050090912e-05
1.49385522737e-05
2.62089882578e-05
1.10899961216e-05
2.82515190668e-05
7.9414725643e-06
4.43032776568e-06
1.69154987402e-05
1.98592441441e-05
9.75066544419e-06
5.08497402345e-06
6.89289730754e-05
1.4635330136e-05
7.58202776154e-06
1.36909777729e-05
4.89998507095e-06
5.22566035954e-06
4.17848532968e-06
7.29819526315e-06
1.78547277266e-05
8.83363818178e-06
5.40574372896e-06
7.03792266587e-05
0.000124637790297
2.23442534671e-05
3.93277423704e-05
7.83505644218e-05
0.000123287928849
3.68159943577e-06
9.80919040025e-08
1.42671371112e-06
3.15996845928e-06
5.91622438861e-06
2.42707958306e-05
1.08776958747e-05
6.36464398729e-08
1.20981257514e-05
3.00308166404e-05
1.73919117927e-05
1.6420212489e-05
1.08384049953e-05
2.94525491676e-06
8.96968296973e-06
2.33656089633e-05
2.48871488934e-05
3.04424527082e-05
1.10645173437e-05
3.01032209479e-06
1.68068413452e-06
2.0386055649e-05
3.1539452811e-08
1.2856036559e-05
1.22529825763e-05
2.0766652964e-06
2.89394334891e-05
1.97721751345e-05
0.000138828415704
9.19066990446e-05
2.38692873612e-05
3.00095494195e-05
7.41995242699e-06
9.6015765839e-05
0.000115769649753
2.01787175419e-05
5.16569387223e-05
1.46278819149e-05
2.49144940379e-05
1.77651058944e-05
2.108089921e-05
1.66210401965e-05
1.09898939532e-06
1.32081180288e-05
2.64463407039e-06
4.25547608595e-06
2.39966661677e-05
7.99790424521e-06
8.05617393695e-06
2.90001323204e-06
5.46278061875e-05
6.35789899874e-05
1.42048439343e-06
5.93252013988e-06
1.21247930175e-05
2.0037431168e-05
2.39799997787e-05
1.14973862566e-05
5.94234664467e-06
9.25623372557e-06
7.29745366593e-07
8.28553829469e-06
5.05693495773e-06
5.99793317335e-06
5.96590917413e-05
8.8827745659e-05
0.000107265875208
0.000108381130189
3.09449751391e-05
4.29480933146e-05
4.32496152692e-05
4.18173469693e-05
4.48291537198e-06
6.97510516874e-06
4.42175119534e-07
1.50966011972e-05
7.85912539586e-06
3.29926460259e-05
1.90165338303e-05
3.75609649249e-05
3.41836839086e-05
2.72870862893e-05
2.09752077477e-05
2.01513252683e-05
1.80000998857e-05
4.52518603243e-05
3.67508169555e-05
2.38355757908e-05
4.36078846216e-05
2.97097332147e-05
2.19789586442e-05
1.73127182344e-05
1.66413359788e-05
4.16030102493e-05
1.94256453207e-06
3.86302566271e-06
7.23007879809e-06
1.10991593386e-05
2.60040189239e-05
6.08547326727e-05
9.57623664043e-06
1.36233613559e-05
1.67849475793e-08
2.97544136177e-05
7.13381936915e-07
8.85046861156e-05
4.20032479548e-05
1.08016859022e-06
1.56248507317e-06
2.15851699592e-05
1.66338805758e-05
0.000132930270983
2.86740223025e-06
3.10866837458e-06
2.5933255799e-06
1.69325588413e-06
6.83444969566e-06
5.57427450059e-06
1.01897632467e-05
1.99198289433e-07
5.9266955359e-08
6.32469857934e-06
7.57993696455e-07
1.99049910919e-06
1.75276332731e-06
7.84799267721e-07
4.92908234694e-07
8.61997660157e-07
4.80167647837e-07
3.87726424653e-07
4.73028381678e-07
3.13741313771e-07
2.43989843893e-06
9.46145345677e-08
5.18842433874e-06
1.04764420441e-06
1.20898991287e-07
1.74116680674e-06
1.97920855722e-06
2.43418253662e-07
1.27806093598e-07
3.13299583751e-07
1.56472942216e-07
2.17418292947e-07
1.88565210188e-07
2.82699576028e-07
6.27939590893e-07
1.90891215903e-07
7.27896008746e-08
1.41368137628e-05
1.68386255715e-05
1.68818272259e-05
1.15378371834e-05
4.57473395405e-06
3.80575383097e-06
1.42788547179e-06
2.97164355733e-06
5.05788460838e-05
5.47949477881e-05
1.26395356559e-05
9.38801921044e-06
8.17238796558e-06
1.05625258832e-05
1.05690413737e-05
8.53437569969e-06
9.14720528895e-06
1.04100078671e-05
1.39572326676e-05
7.712747136e-06
9.74903313195e-06
1.86872738614e-05
1.8722678811e-05
1.98567868381e-05
3.54799893741e-05
4.89394410258e-06
4.45072805305e-06
1.19367059313e-05
7.75720053109e-06
2.84488226877e-06
2.89706280806e-06
2.59736164885e-05
4.52647488356e-07
4.19189848929e-07
5.33085687189e-07
2.83614246961e-07
9.00091122138e-08
3.54917878557e-07
4.08250282044e-06
2.36532112208e-06
3.5099114205e-08
2.25972277854e-07
1.21066336984e-05
1.05293196347e-05
1.33398359557e-07
8.56449412683e-06
2.89758239775e-08
1.70760163146e-06
1.17063591866e-06
1.01492597396e-07
1.415308135e-07
9.40643173332e-07
9.8490634306e-07
1.47470122659e-07
1.41818245972e-06
1.7323592836e-07
1.31578007386e-06
1.67405663988e-07
1.63476859326e-07
1.67493041468e-07
4.60746377313e-06
9.24054591395e-06
1.48273563315e-07
1.61100067703e-07
2.47434103094e-07
2.39885475192e-07
1.24908220819e-07
1.53916627577e-07
1.28603494934e-07
1.67498453116e-05
1.63391677166e-05
1.25332590757e-07
1.08068147301e-07
1.48129266493e-07
1.20727527307e-06
1.4537448361e-06
2.03273727977e-06
1.30535962549e-07
2.35720890621e-06
2.68067571604e-06
1.04855832147e-05
2.09864364678e-05
1.12034798537e-06
2.34088754702e-08
8.7218924874e-08
1.66321973846e-06
1.33430051459e-06
3.22131357703e-06
3.0587584199e-06
2.54311267846e-07
2.13006697879e-06
1.00038235013e-05
1.64195165952e-06
1.55703792074e-06
1.74815733459e-06
7.0565200317e-06
1.66239397015e-06
1.33072998288e-06
1.98329498315e-05
9.87481986411e-06
5.59898508091e-05
8.24837294386e-05
4.03215085787e-05
1.94546543922e-06
1.09125170943e-05
1.70195101437e-05
1.36832366487e-05
1.18702017397e-05
1.75628082258e-05
1.13969219525e-05
1.15924637969e-05
9.25128743173e-06
1.41545273758e-05
1.06360651933e-05
2.37143621854e-05
1.77419469162e-06
1.28059316022e-06
1.53792416426e-06
2.61560313027e-06
1.56964038655e-06
1.26492224833e-05
1.05091268224e-05
1.12375572676e-05
1.33423074947e-05
1.13163236972e-05
1.4715137379e-05
3.38054517632e-05
3.64374514134e-05
2.30313824708e-05
1.95648047719e-05
6.47963681722e-05
3.15107958432e-05
6.90048271187e-05
1.5736154527e-05
2.08225908406e-05
1.73712438834e-05
3.2854365348e-05
1.63160012946e-05
5.09003358193e-06
6.43190685333e-06
2.64722551096e-06
1.10533743767e-05
4.09391837746e-07
6.95216529932e-06
2.86777290707e-07
2.49541045539e-06
2.87187425938e-07
2.4231779569e-06
6.78407937365e-06
6.47975400866e-06
2.19392270265e-06
2.13017254143e-05
1.87324897235e-05
1.95135712257e-05
2.11761476959e-07
5.91823135607e-06
4.07948910384e-06
2.5005393828e-07
7.02112714742e-06
1.16915773546e-07
2.70029201607e-07
2.15110242353e-07
1.77730388512e-07
1.5530853081e-07
1.82180761105e-07
1.75160562089e-07
2.06928560274e-07
2.71998168576e-07
3.50123329123e-07
1.57454378639e-07
2.43958102248e-07
1.4297487852e-07
1.76843540528e-07
9.41728416838e-08
1.76808710185e-07
7.02221091956e-07
3.76403674315e-08
1.05876045409e-07
1.76279319159e-07
1.79100482279e-06
1.79396408737e-08
2.43776628237e-06
7.65138296335e-08
1.52670348847e-07
1.40452377842e-07
1.62541054341e-07
1.002362227e-07
2.1606162549e-07
3.92392272983e-06
1.64506171484e-07
1.25033098663e-06
4.45747182268e-05
2.69069831729e-05
4.94441230779e-06
2.76452695073e-06
3.01250460668e-06
4.12892953148e-06
1.13027934145e-05
6.79805102947e-06
2.06185480002e-06
9.47217846053e-06
2.72543508851e-07
2.58467572016e-07
2.76412950879e-07
2.59245927144e-07
5.41753122022e-06
7.05998235828e-06
1.84196896249e-07
1.02791698177e-07
2.77977191373e-07
2.72409339192e-07
3.38399620686e-07
3.38422399398e-07
1.82495968777e-05
1.93257598248e-05
8.50517181963e-06
4.47641361327e-06
1.07560755659e-06
8.33995426554e-06
5.10111510741e-05
3.41420781637e-05
3.32712887052e-06
1.56421307397e-05
1.10190217026e-05
1.58830630633e-05
7.61401533773e-07
9.45826135496e-07
3.85768706789e-08
2.26021564714e-05
4.42836471695e-05
5.75282009421e-06
9.61295951045e-06
8.21346709141e-06
8.8951721038e-06
1.21434243502e-05
3.68625502741e-07
9.0560586967e-07
2.31136942229e-05
2.28022844027e-05
9.68808993941e-06
8.48254594518e-06
1.07087546575e-05
1.23625658455e-05
5.01846703874e-06
4.17446676962e-06
2.55167273446e-07
5.5143916034e-06
2.83720686835e-05
2.14468678183e-06
5.45788822541e-06
1.0318263181e-06
1.30664096654e-06
1.23349215005e-06
1.73981593247e-07
9.82808799389e-08
2.2259650703e-05
2.84264600137e-05
9.57516632923e-08
1.36915224389e-07
1.46920098552e-08
6.42316380292e-08
1.03426502808e-07
3.90639803018e-07
1.10874082687e-06
6.35083583813e-07
3.8608167245e-08
5.05358046448e-08
1.02995119494e-07
3.68036242276e-08
3.48792329513e-08
3.66503467474e-08
9.50870513856e-06
9.00541528936e-06
1.33551669779e-06
1.6234475966e-06
3.12361754361e-07
2.93276364648e-07
9.84721789634e-06
9.0610563152e-06
2.47833435776e-06
5.65023148017e-06
3.67477672234e-05
3.49554637657e-05
1.50287597118e-05
2.51257707583e-07
4.63373276915e-07
1.42944375652e-05
5.27547953579e-05
9.60406517308e-06
6.64480125598e-05
1.0031588019e-05
2.74053645422e-05
2.38583147455e-07
6.43281763006e-07
2.46981780164e-07
9.65118678928e-07
4.65554770289e-05
2.59826562707e-07
2.54922988458e-07
6.72758073998e-07
2.19779281218e-07
8.32262062227e-07
1.09088511298e-06
1.47136871378e-07
1.31546805378e-06
1.94932962631e-05
1.68424942439e-05

