# vtk DataFile Version 3.0
File Name: Molecule/sphere_excent/sphere_excent_0-s39.vtk
ASCII
DATASET UNSTRUCTURED_GRID
FIELD FieldData 1
TIME 1 1 double
0.0
POINTS 508 double
0.76231569052 -0.20637589693 0.61336553097
0.77258360386 0.19825363159 0.60297828913
0.61050754786 0.0086804153398 0.79192727804
0.69316059351 -0.23076677322 -0.68282729387
0.75783413649 -0.1145015955 -0.64233726263
0.76492422819 -0.26689234376 -0.58614271879
-0.2426083982 0.3530844748 0.90352678299
-0.4238742888 0.21879950166 0.87885397673
-0.23178175092 0.12840603292 0.96416050196
-0.76620709896 -0.29689234495 0.56869924068
-0.51957952976 -0.38726386428 0.76147681475
-0.63604027033 -0.11905917525 0.76230114698
0.92564314604 0.17895981669 0.33326497674
0.84074032307 0.37356847525 0.39186295867
0.68296611309 0.47109499574 0.55820918083
0.57763195038 0.30149319768 0.75853890181
0.98413866758 0.11904904246 -0.13125441968
0.98622095585 0.14073731005 0.086920984089
0.99686855078 -0.077424161136 0.016152571887
-0.018160764128 0.4554207623 0.89004921913
-0.28827410936 0.61208456755 0.73422187567
-0.061161793768 0.22961215675 0.97115790844
-0.59124046564 -0.54678761959 0.59209650755
-0.81605422497 -0.55022156239 0.176625669
-0.7689883709 -0.63759702444 0.045220244676
-0.62100481987 -0.75476974249 0.21100407839
0.62293082476 -0.76323151588 -0.17157362401
0.76332992315 -0.64560699463 -0.019445212558
0.5275490284 -0.84817236662 0.045929722488
0.6783451438 -0.7100045085 0.188597247
0.86684972048 -0.48135298491 0.12904274464
0.43862241507 -0.8219050765 0.36247137189
0.89515012503 -0.44307339191 -0.048402745277
0.83681672812 -0.51743507385 -0.17853720486
-0.96161586046 -0.252307266 0.10725542158
-0.90254813433 -0.39840143919 0.16309547424
-0.91950887442 -0.24113230407 0.31020858884
-0.84059745073 -0.4296028018 0.32958623767
-0.81400483847 -0.57351082563 -0.09190429002
-0.86181390285 -0.50581604242 0.0370391123
0.30509227514 -0.27435198426 0.91187679768
0.53001087904 -0.29473790526 0.79507619143
0.40495440364 -0.078722380102 0.91093331575
0.59677690268 -0.50652080774 0.62120515108
-0.29696786404 -0.67390787601 0.67630952597
-0.23704375327 -0.50301200151 0.83098775148
-0.44363862276 -0.60485804081 0.66039043665
-0.014719250612 -0.45930489898 0.88797062635
-0.011976059526 -0.6217648387 0.78300637007
-0.16282168031 -0.29754149914 0.94063872099
0.010598927736 0.90071606636 -0.43423947692
0.096114307642 0.96515506506 -0.24325203896
0.21094037592 0.87276774645 -0.44014337659
0.36058869958 0.88310015202 -0.29985541105
0.28336852789 0.95050507784 -0.12714615464
0.38516044617 0.78909480572 -0.47837299109
0.50829559565 0.77920228243 -0.36553609371
0.51554554701 0.6872626543 -0.51168757677
0.23304106295 0.74592417479 -0.62392127514
0.40014126897 0.67719119787 -0.61729621887
-0.9758220315 -0.077683664858 0.20427447557
-0.91688376665 -0.044266913086 0.39569222927
-0.96015489101 -0.26749882102 -0.080898791552
-0.92598700523 -0.37751981616 0.0018944045296
-0.91387450695 -0.37075924873 -0.16542108357
-0.92748987675 -0.26704949141 -0.26151043177
-0.83978337049 0.48954179883 -0.23453372717
-0.90601885319 0.41357082129 -0.089829787612
-0.77170449495 0.62815696001 -0.099169000983
-0.97192305326 0.16125717759 0.17085196078
-0.99859529734 0.0023011201993 0.052021063864
-0.98975270987 -0.1422983557 0.00096140534151
-0.99548149109 -0.038989670575 -0.086574949324
-0.97421497107 -0.16249787807 -0.15639431775
-0.98349756002 0.050446309149 -0.1735830605
-0.99537533522 0.080919362605 -0.050991207361
-0.34160006046 -0.71256238222 -0.61269444227
-0.3980768919 -0.56115806103 -0.72525006533
-0.20419602096 -0.59358471632 -0.77842324972
-0.72359007597 -0.48253399134 -0.49342104793
-0.75056678057 -0.55019420385 -0.36510956287
-0.8107984066 -0.43398582935 -0.39277470112
-0.83684098721 -0.49386113882 -0.23610301316
-0.76956224442 -0.60462856293 -0.20329874754
-0.72932553291 -0.68004620075 -0.074882209301
-0.79099494219 0.37424054742 0.48384794593
-0.60943537951 0.51165610552 0.60342919827
-0.71810489893 0.62133949995 0.31227236986
-0.59220534563 0.099506355822 0.79961693287
-0.76607948542 0.088162273169 0.6360014677
-0.64409953356 0.30020973086 0.70357608795
-0.45255589485 0.42031869292 0.7864163518
-0.41191262007 0.0045476332307 0.91114127636
0.66601783037 0.71949362755 0.19675551355
0.65313231945 0.75652372837 -0.0011972673237
0.53778648376 0.83806151152 0.0917827636
-0.8362082243 0.54230642319 0.081327691674
-0.92188447714 0.36662307382 0.12557971478
-0.84776639938 0.2879178226 -0.44541677833
-0.89733988047 0.34063449502 -0.28041735291
-0.79883915186 0.46316537261 -0.38374090195
-0.91832900047 0.18767045438 -0.348385185
-0.95429730415 0.20503495634 -0.21634849906
-0.96148461103 0.25148111582 -0.10123492777
-0.64347153902 -0.6241800189 -0.44308298826
-0.54463368654 -0.63342505693 -0.54944187403
-0.49921920896 -0.73662149906 -0.45434892178
0.47669291496 0.48705688119 -0.73179727793
0.50044614077 0.38117322326 -0.77729660273
0.39158546925 0.38934212923 -0.83372598886
0.38016808033 0.24659743905 -0.89142036438
0.48680534959 0.26718792319 -0.83163708448
0.42448857427 0.14175477624 -0.8942553401
0.51203495264 0.14264810085 -0.84700220823
0.46899199486 -0.033520795405 -0.88246333599
0.71737152338 0.14532841742 -0.68133962154
0.75042468309 0.24279430509 -0.61469697952
0.77731734514 0.11053975672 -0.61938929558
0.81645274162 -0.00074786413461 -0.57741731405
0.7280728817 0.01810122095 -0.68526554108
0.86170107126 -0.12154737115 -0.49260723591
0.89288491011 0.069755859673 -0.44480332732
0.65909177065 -0.070231862366 -0.74816399813
0.62735724449 0.012397953309 -0.77791512012
0.57480078936 -0.14071111381 -0.80586308241
0.30319815874 0.10802903026 -0.94678324461
0.17584626377 0.23256258667 -0.95657551289
0.12924082577 0.13820026815 -0.9819393754
0.93309986591 0.31004440784 0.18220420182
0.94851917028 0.31411874294 -0.039862856269
0.90043002367 0.42769560218 0.079430647194
0.85733348131 0.46789640188 0.2145267576
0.77406352758 0.54153311253 0.32799497247
0.85057270527 0.40538057685 -0.33497810364
0.86296653748 0.46529754996 -0.19465741515
0.92723572254 0.29629793763 -0.2289416641
-0.029795428738 -0.17019096017 0.98488551378
-0.19036465883 -0.074105791748 0.97884267569
-0.049593627453 0.022085212171 0.99844127893
0.75046354532 0.65761482716 0.065327271819
0.29702427983 -0.042830780149 -0.9538244009
0.44946557283 0.55354446173 0.70112770796
0.20936311781 0.70022660494 0.68249547482
0.20615586638 0.52626168728 0.82492792606
-0.0096207074821 0.66035616398 0.75053113699
-0.052768714726 0.83231079578 0.55154293776
0.37318021059 0.74114507437 0.55785775185
0.94336748123 -0.011171165854 -0.3315423131
0.88787478209 0.25457549095 -0.38330161572
0.93911147118 0.14986979961 -0.30921769142
-0.68127697706 -0.14680796862 -0.71693092585
-0.80957877636 -0.15888135135 -0.56510061026
-0.79994910955 0.0050317584537 -0.59999996424
-0.40340325236 -0.12638796866 -0.90622264147
-0.53536617756 -0.16133020818 -0.82897973061
-0.44434222579 -0.0023025078699 -0.89582639933
-0.57996606827 -0.0035553700291 -0.81463170052
-0.26943713427 0.038952816278 -0.96221017838
-0.36988052726 0.11373955011 -0.92206639051
-0.49651259184 0.15108542144 -0.85476851463
-0.55996543169 0.27614229918 -0.78112536669
-0.62777388096 0.13621123135 -0.7663654089
-0.63203382492 -0.29863917828 -0.71466875076
-0.28857114911 0.73353010416 0.61293524504
0.21682451665 0.32648086548 0.91976732016
-0.92156553268 -0.079235240817 -0.38004532456
-0.88385492563 -0.19080664217 -0.42701148987
-0.94709163904 -0.14073911309 -0.2884811461
-0.79713493586 -0.3216637671 -0.51088005304
-0.8737385273 -0.051264185458 -0.48367041349
-0.87958180904 0.099449910223 -0.46514260769
-0.92497897148 0.034999832511 -0.37834739685
-0.95625185966 -0.020747259259 -0.29168885946
-0.97750097513 -0.064365170896 -0.20075380802
-0.95542180538 0.092818111181 -0.28032919765
0.48149582744 -0.24486944079 -0.84137552977
0.33806139231 -0.19712631404 -0.92025667429
0.64509057999 -0.35333645344 -0.67749977112
0.50345611572 -0.40104985237 -0.7652759552
0.59663337469 -0.25786057115 -0.75974076986
0.5834748745 -0.47326385975 -0.66001230478
0.3418211937 -0.39328792691 -0.85338878632
0.70856833458 -0.43131291866 -0.55845618248
0.8323816061 -0.32238814235 -0.4507060051
0.19442950189 -0.60265642405 -0.77402538061
0.35829606652 -0.5360699296 -0.76296836138
0.97126865387 -0.019300799817 0.23729893565
0.95219266415 -0.2356287837 0.19437716901
0.89038056135 0.0075380667113 0.45507055521
0.91307669878 -0.1687695682 0.37107148767
-0.86459887028 -0.31905558705 -0.38813877106
-0.87828618288 -0.38052856922 -0.28944903612
0.75368577242 -0.50435721874 -0.42120280862
0.86700320244 -0.36743494868 0.33639389277
0.26334914565 -0.75347214937 -0.60240131617
0.3142478168 -0.87223249674 -0.37418502569
0.05555363372 -0.8586961627 -0.5091727376
0.95561087132 -0.29384246469 0.0209457241
0.95874834061 -0.24127829075 -0.15015543997
0.36979684234 -0.61106860638 -0.69795179367
0.43468761444 -0.74085128307 -0.51103562117
0.77418750525 0.43979457021 -0.4551872015
0.76381009817 0.53161036968 -0.36509165168
0.69667452574 0.5421552062 -0.46981370449
0.38029119372 0.37727081776 0.84438842535
0.40566146374 0.15650038421 0.90054613352
0.54052507877 -0.75956767797 -0.36165362597
0.43678477407 -0.88417601585 -0.16562107205
0.65668362379 -0.59809803963 -0.4594014585
0.68285942078 -0.65497153997 -0.32352140546
-0.65652257204 -0.75334119797 0.037739578635
-0.49766764045 -0.86693906784 0.026967905462
-0.62588858604 -0.77511674166 -0.086115337908
-0.68866974115 -0.70460915565 -0.16867083311
0.21669836342 0.025438887998 0.97546505928
-0.60218858719 -0.77519285679 -0.18905584514
-0.52284109592 -0.84289449453 -0.1271815598
-0.50626200438 -0.81790071726 -0.27013978362
-0.37309032679 -0.91914963722 -0.12639482319
0.77516937256 0.34006381035 -0.53245979548
0.81822860241 0.26363572478 -0.51088261604
0.82780194283 0.34366881847 -0.44343483448
0.71838593483 0.39831244946 -0.5702252388
0.92728304863 -0.16825436056 -0.33428928256
[...]
CELL_DATA 1012
SCALARS cell_data_0 double
LOOKUP_TABLE default
1.66536174005e-05
2.2132762687e-07
1.22901065494e-05
1.14224527005e-05
6.17348632916e-06
7.71028308985e-06
1.06526106131e-05
2.46221239597e-07
1.48769249553e-05
2.75661118815e-05
5.64270596915e-07
4.97828586962e-06
2.59555503011e-06
2.97388598541e-06
3.03372124294e-06
4.77868710155e-06
4.4726405649e-06
1.00443297634e-05
2.22505863915e-06
8.16609365288e-07
8.90983341848e-06
1.11615602715e-05
1.47795758781e-05
1.39341039207e-05
8.65235295151e-06
7.27972276985e-06
1.11023815762e-05
8.13840063684e-06
1.52069037114e-06
2.81954139823e-06
9.26435424222e-07
4.13368723675e-06
4.69107690103e-06
2.9050316268e-08
4.37527566397e-07
2.67272724053e-06
1.31084417288e-05
1.29020889263e-05
2.1373777715e-06
9.55835937824e-06
4.78531175585e-06
1.80516108743e-07
1.28175909998e-06
1.03824434316e-06
6.77452171636e-07
1.15122601688e-05
1.0988614017e-05
5.43627379706e-08
5.45945955387e-07
5.10091999097e-06
5.1849419774e-07
0.000127180683873
1.47814616956e-07
5.71665003996e-06
6.86160102444e-07
5.15156337817e-06
1.24387641915e-05
1.08686456792e-05
9.81916494235e-06
4.86271655865e-06
3.96703957367e-07
1.06198276745e-05
9.86660026473e-06
1.95538881681e-05
1.07307929689e-05
1.03686894316e-05
1.10149302698e-05
6.03987913098e-06
1.66329563728e-06
6.97862413312e-07
8.83881285099e-07
1.38170548846e-07
6.32800133086e-07
7.28328276385e-07
6.3601136079e-07
1.89314511023e-05
7.88433974056e-05
2.67980146175e-07
9.24635636635e-07
7.45380835982e-07
8.60139134967e-08
7.79574460819e-06
2.13614703259e-07
1.73146980874e-08
6.23549202216e-08
1.97877412767e-07
2.68973476977e-08
1.37683652183e-08
1.17806215605e-09
1.22087243008e-07
1.16158196457e-05
1.0969493711e-05
1.14441122418e-07
2.53568751194e-06
3.13054750848e-06
2.06092902995e-06
1.43663120255e-06
5.278125139e-06
4.35364397482e-06
2.68662261859e-05
1.64124015139e-06
1.16201524687e-05
1.9516000534e-05
1.01397874814e-05
1.2249822435e-05
8.20155332105e-06
7.02646485486e-06
1.82283657938e-05
1.23933135322e-06
1.1912869554e-06
2.66787724297e-07
1.30756133411e-05
8.63155775132e-07
1.04151709359e-05
9.47405733045e-06
1.14599238246e-05
1.89093499521e-05
8.42113256451e-06
4.51374897734e-07
2.51843242345e-05
2.28550192926e-07
2.82721917349e-06
3.24956968771e-06
4.66584415242e-06
2.19679960713e-06
8.53725672846e-07
1.44375355714e-06
1.81554539864e-05
4.68246203106e-07
2.37289400827e-07
1.44593512154e-05
2.62276911619e-07
2.20251023411e-05
2.03332390384e-06
3.90744739376e-06
2.99027789766e-07
2.16757624312e-05
2.01313945436e-07
1.36957805091e-09
1.70872522993e-07
3.76374999949e-08
4.86616964213e-07
6.54490868816e-07
1.46669325577e-07
3.11254950581e-08
2.54811224915e-07
3.11771697193e-07
2.2944562697e-07
1.94512770456e-07
2.30480891567e-07
3.57602569319e-06
4.36692111431e-06
4.04298411844e-07
3.55096538096e-07
3.18466999157e-07
2.37065192042e-07
3.47511170291e-07
2.11450437132e-07
6.676681955e-07
4.06240898118e-07
4.44134688212e-07
4.19852253464e-05
1.13947724278e-05
1.05974420163e-05
1.27801176281e-05
9.16940521632e-06
1.34080190683e-05
1.30707150488e-06
1.0162499165e-05
1.45515836429e-06
1.4188169476e-06
2.8340566401e-07
1.76983372473e-06
2.96544943488e-06
3.45866976446e-06
5.78645953028e-06
1.10681883864e-05
5.99703230343e-06
3.00531948178e-06
1.10771251367e-06
2.88928041663e-07
1.23538018297e-05
2.28330018103e-05
2.07933056385e-05
1.00726888355e-06
6.02249015323e-06
2.04717347148e-05
2.00047043949e-05
4.16846699218e-06
1.31961636255e-08
7.22466912522e-08
4.72329118781e-06
1.25740736202e-05
1.29195963315e-05
1.69577951886e-05
4.18429893726e-07
5.29630879109e-06
5.20086340522e-06
1.22928820131e-05
1.45989917617e-06
1.25187198514e-07
1.12641329566e-05
1.10489569359e-05
9.92854884656e-06
1.3999229555e-05
1.55774031383e-05
6.67149576153e-07
9.50073788879e-06
1.24455206951e-06
1.40849087014e-06
7.99475500128e-07
6.9591298573e-07
2.36893626713e-07
9.82067571449e-07
3.97446537433e-06
7.88125801036e-07
2.24568875614e-06
3.17205094965e-06
4.13362400586e-06
1.45782680175e-06
1.13689247805e-05
1.33619978239e-05
3.70717477711e-07
7.20124908182e-07
3.15313792285e-06
6.56658421048e-08
1.25646731974e-06
5.01348306317e-08
9.26034109627e-08
4.92030586157e-08
7.66827695815e-06
1.10268674003e-05
6.5800055859e-07
2.57658435243e-06
4.9116720211e-07
2.34257310758e-07
2.60853388474e-06
2.51217290039e-06
1.10004553903e-06
2.50070138254e-08
2.51852774416e-07
1.20356799322e-07
1.00705517453e-07
1.05086582286e-06
1.03756894496e-06
4.0081903743e-06
1.11155719775e-06
1.69842929464e-06
3.82355777391e-06
4.9919653977e-06
2.5367140713e-06
5.23798145863e-07
4.99462021183e-06
1.75924022433e-07
1.6792844117e-06
1.65781049854e-06
2.50002940112e-06
6.37612650668e-07
1.2648075161e-06
1.17907111786e-05
8.70426499825e-07
1.31853039726e-06
3.25269452392e-06
1.57026662361e-05
1.91786065568e-06
2.09540765241e-06
3.97099143815e-06
7.40286433776e-06
6.21867738917e-06
4.05510246996e-06
1.22805876325e-06
3.69762134931e-07
1.30034885053e-07
1.98221915565e-06
6.78772724973e-07
8.91708200526e-08
4.02499066224e-06
4.06947374797e-07
2.11497957625e-07
6.41097029375e-06
6.66255406202e-06
2.48883380995e-07
4.15895108653e-07
1.86405587665e-06
5.29560028074e-08
2.5432958832e-06
3.64165497192e-06
2.985183942e-06
8.04287085594e-06
3.21774033371e-06
9.32172906855e-08
1.67392526977e-07
1.51274504233e-07
2.93670558158e-07
1.93354669859e-07
2.39621625711e-07
2.17580231833e-07
9.47240984587e-07
6.91908378965e-07
2.25378647599e-07
2.07885542681e-07
7.30026476918e-07
8.50825597566e-06
6.52363521704e-06
4.9612671407e-06
1.79860352689e-06
6.99308187422e-07
2.71139555376e-06
3.28916631375e-06
2.90886047831e-06
3.20101444533e-06
1.28466417769e-07
2.62277003903e-07
1.09648981963e-06
2.8566746133e-07
2.28750832207e-06
2.84962612686e-06
4.39286021217e-07
6.7297889712e-06
2.48535880739e-07
1.88445507697e-07
6.86213306954e-08
1.59107962413e-07
1.50558098082e-07
1.44567728291e-07
1.08219184985e-08
5.77414895038e-08
1.32652706074e-08
2.07898709371e-06
2.15137155682e-06
1.37240244464e-06
1.2805876365e-06
5.02458917836e-07
2.42796577172e-07
9.45238617467e-08
1.95480163186e-07
1.02379535826e-07
2.11960534135e-07
1.40337251707e-06
2.11542061906e-07
1.72718989621e-07
4.36714902076e-07
4.09447842361e-07
3.30324133053e-07
4.77754686194e-07
4.77707162111e-07
5.41081168747e-07
7.6958771191e-07
4.83685579937e-07
1.1426226217e-06
9.27480894247e-07
3.73649854426e-05
1.33444582075e-07
7.15410789555e-09
1.64328576143e-07
3.54347788202e-07
3.33305201706e-07
1.74737849212e-07
3.30123409861e-07
3.48383382458e-07
6.35759500091e-07
3.17076504103e-07
8.94184022633e-07
8.87450671334e-07
4.18095159532e-07
8.92382621117e-07
2.39077196866e-07
7.75343168503e-08
1.07486654346e-05
9.72564365065e-08
4.73905017461e-07
1.41318479542e-05
2.83760137963e-06
1.76997177301e-06
2.55440409806e-06
2.27290985387e-06
3.94962116566e-06
2.03576543765e-06
4.15822511001e-06
1.06943103332e-05
7.26180203848e-06
5.59669979683e-06
7.45360602655e-06
2.3087017193e-06
3.33938621897e-06
1.88676321408e-06
4.29984336499e-06
2.35061613581e-06
1.65214770782e-06
5.50106979674e-08
1.68156458868e-07
5.77740946918e-07
7.32685324631e-08
4.819536039e-06
4.79552699269e-06
3.51359080951e-07
9.64430501809e-07
1.81851710883e-06
1.10316633231e-06
3.36691577679e-07
1.13031810891e-06
2.67764091271e-06
1.56398616628e-06
1.41039922798e-05
3.49207940195e-07
2.56203462179e-06
3.91273531681e-07
2.50628983257e-06
1.06611617553e-06
4.16795711384e-06
1.37912479525e-06
3.13386120811e-06
2.5001602116e-06
5.42914086884e-06
3.16341289031e-06
1.15086692248e-05
1.18381052867e-05
1.08933417587e-05
8.58237076078e-06
1.07885745056e-05
1.08798079392e-05
1.21350445348e-05
1.33362935225e-05
2.28245340233e-05
4.01779656494e-07
2.70325897575e-06
8.85231777225e-07
4.84466605797e-07
4.43583986504e-06
1.72214011454e-05
1.40233091418e-05
6.09538130282e-06
4.1176063259e-06
3.90122484849e-06
3.85472312969e-06
3.96867284844e-06
1.17685021606e-05
1.1918206611e-05
4.83023644803e-06
7.58558792745e-06
6.09340740513e-06
5.24710286299e-06
1.84287616756e-05
3.51720026217e-06
3.07477707354e-05
1.22795520366e-05
1.19939216943e-05
2.3300114239e-06
2.91730326843e-06
2.41741168376e-06
1.55345526769e-06
1.60578028184e-06
4.39090554669e-06
3.49387302643e-06
1.45251573621e-06
5.62650248874e-07
4.83122277965e-06
1.84532666052e-06
1.09561161928e-05
3.41705048884e-06
4.0743642325e-07
1.72919545628e-05
8.48593762719e-06
1.42580731142e-07
7.73132432392e-06
3.5242657099e-07
3.30966225965e-06
3.46202420279e-06
2.80020747169e-06
4.11434055005e-06
8.35823707052e-07
3.23730105869e-06
2.9407210467e-06
7.23274539165e-07
5.57270088096e-07
1.98850576629e-07
6.58220492765e-07
5.21634544868e-07
4.83916493982e-06
3.47750593615e-06
2.39716433913e-06
1.86587662507e-05
1.5269599842e-05
1.6170806369e-05
1.33510440804e-06
1.04278512752e-06
5.1859117366e-07
1.66059077082e-06
1.06544024791e-06
2.44835917301e-06
3.01422924722e-06
8.90737839458e-07
2.41315481351e-07
1.47568374045e-06
8.14274981397e-07
6.01379305065e-06
5.49257136164e-07
6.03867648166e-06
3.70940184443e-06
1.84684833428e-06
3.97026574233e-06
3.66759684449e-06
2.25629048104e-06
1.04836585814e-06
4.84079082e-06
2.05346420531e-07
1.79264958113e-07
2.59874607349e-07
5.23515827856e-05
2.01335111326e-07
9.72199223305e-08
2.16184684252e-07
1.23692148708e-07
2.83104357179e-06
5.09118079831e-06
1.96829105339e-07
1.03505224618e-07
6.54784812278e-08
5.24803182544e-07
3.36878671489e-08
1.46403964804e-06
4.15727601326e-06
1.45627658365e-06
4.39568427366e-06
2.67145368854e-06
5.60581362213e-06
9.96414285712e-06
3.50995047258e-07
5.88616549682e-06
2.24270897844e-06
6.0992130468e-06
4.8608845605e-06
1.24613832994e-05
7.89182786218e-06
9.1588611212e-07
1.87956205273e-07
1.7086995595e-05
1.41796908163e-07
1.73338649636e-06
1.18298094207e-06
4.81137388635e-06
1.9676007354e-07
1.86334320262e-07
2.28301823057e-07
2.62101531613e-07
2.06692498235e-07
2.41598918678e-07
8.78129138966e-08
1.76803193863e-07
9.34284609862e-07
6.64108209899e-07
2.78452736074e-06
1.92089202327e-06
1.30588693084e-06
5.86114317385e-06
9.69499104459e-07
1.4069188373e-06
6.76353103407e-06
8.33235293704e-07
1.61545050566e-07
2.91977386784e-06
2.67761098214e-06
1.8177260364e-07
4.29804610657e-07
5.53502882018e-06
4.36899267952e-06
3.61337744681e-07
8.82102534506e-06
1.1378163756e-05
5.37286514471e-06
6.23419339254e-07
1.67856859446e-05
5.91330816537e-07
9.23203686173e-07
3.1593407518e-07
2.42230812004e-06
6.90532070989e-07
1.23022356283e-06
1.66572476044e-06
3.26985937717e-07
7.3063795987e-06
1.32641654269e-06
2.21447236373e-06
2.30413103382e-06
1.94180832594e-06
5.23456631747e-08
2.28518910693e-06
1.61718808347e-06
5.4159254982e-07
2.69869284773e-05
8.14366949504e-05
1.57427867278e-05
8.85485721831e-07
1.76398331658e-06
3.59832940516e-07
1.09257427512e-05
1.15149987367e-05
1.03474678284e-06
8.60458785657e-07
3.63123119091e-09
6.06424220166e-07
4.74605527695e-07
2.68205556109e-08
1.27892967095e-07
6.93231767361e-09
1.96825284941e-07
6.48814160044e-06
1.06348850805e-06
4.1759236811e-07
5.0040840921e-07
2.79233826929e-07
1.28550443821e-07
2.27942346093e-08
8.10797129942e-08
2.14705406021e-07
2.63009225278e-05
3.3260482403e-07
4.88039262722e-08
4.45097684087e-07
4.80572737521e-08
3.16737696522e-05
3.21964796269e-07
1.81307113309e-06
1.05472304518e-05
1.49110147826e-06
7.78697648261e-06
5.72803667753e-06
7.77569059337e-06
8.54904604192e-06
6.06878212042e-06
4.23260512986e-06
5.08394352247e-06
4.42873596569e-06
5.07067586341e-06
5.0272455411e-06
5.56129892835e-06
5.49833727724e-06
7.65398629784e-06
7.69116040417e-06
6.01260060425e-06
6.05888271254e-06
6.28939000469e-06
5.9691020338e-06
5.4717010719e-06
5.70164551766e-06
5.66230409e-06
8.94976658718e-06
1.19685594907e-05
3.41212321935e-05
3.62452465535e-05
1.70668109534e-05
1.62467604691e-05
5.32869406854e-06
1.99534069288e-05
1.78839409411e-05
1.67332872983e-05
1.29004881076e-05
2.26007349653e-05
2.88147724171e-05
2.52818473975e-05
1.48652298695e-05
2.64748946855e-06
5.18517835008e-06
1.33397931535e-05
1.24381304998e-05
5.6891146144e-06
9.01084331409e-06
2.13801634616e-05
1.69232759063e-05
1.58294493693e-06
1.15505093597e-05
1.58019275582e-09
6.54077196101e-08
1.90458462727e-05
2.04853447936e-05
2.87846309653e-07
1.15953752377e-06
5.00095809241e-07
6.78251322201e-07
2.65697889604e-07
6.03727591389e-07
3.44396431505e-07
2.11323014602e-06
5.45218676158e-07
8.02040452583e-07
6.92199871284e-07
4.88884685795e-07
7.89397963276e-08
5.99955360961e-08
1.83395807374e-07
4.70624157496e-07
4.98731162369e-07
1.59334238047e-07
7.62759667372e-08
4.45970283862e-07
3.95308607653e-07
5.29220921178e-08
6.27957221577e-08
9.03089632525e-08
4.19650838855e-08
1.78155429548e-08
9.20764891371e-06
9.58491577763e-06
7.38883056477e-06
4.44329740861e-07
1.38837462282e-06
5.66629734608e-07
4.77409941695e-09
1.82721771248e-07
1.22200263081e-07
2.64417205566e-07
2.69767892246e-08
8.2095418468e-07
2.91088512334e-10
6.8288183301e-08
2.17277533413e-06
4.56804162814e-07
2.17321101782e-06
2.46427544029e-06
4.98855613401e-08
4.82000619124e-07
2.45744308529e-06
5.65954824634e-08
4.62581181764e-08
5.62073349411e-08
5.56286025664e-08
5.5286192772e-08
2.36167546278e-06
4.41435350354e-06
4.45774190622e-06
5.47190448381e-08
2.35006062177e-06
2.89668321987e-08
2.96070851656e-08
2.72658253765e-05
2.34732807285e-08
5.0006353857e-08
2.93922348339e-07
1.01497657307e-07
2.08081777788e-08
8.24287510354e-08
5.57736100456e-07
6.85188530241e-07
1.65312966566e-07
6.75725696252e-09
5.31831486424e-08
1.04859110888e-07
2.34650332471e-07
7.8809130103e-08
4.85807438694e-08
6.56873000826e-07
9.78966518898e-07
2.20589098058e-07
5.14491100779e-08
8.68394968305e-07
8.00573630121e-08
6.68331313308e-10
5.54381913065e-07
4.97376453429e-08
6.95639328618e-07
3.63330679934e-07
6.23831360033e-08
9.27399838103e-08
5.67821648931e-06
2.86599365703e-08
8.25352408632e-06
7.64140875756e-06
1.07425838148e-07
1.34984345539e-07
4.72219930808e-06
8.87791206358e-08
1.20504472219e-07
8.21100449983e-08
6.5795590367e-09
2.28616659827e-08
1.65038186751e-06
1.06247189071e-06
6.95760260739e-08
2.15023200193e-07
1.78574565125e-07
6.01239821668e-06
8.31471308023e-08
5.14844577791e-08
2.01299600163e-07
1.18899542621e-08
1.02407815518e-06
2.07100667407e-07
6.42633150406e-08
8.35180373217e-08
7.50788598189e-08
4.92005149829e-08
3.16232822245e-08
5.10206745583e-08
4.28292657414e-06
3.6006381242e-06
5.23157878931e-06
4.35372404758e-06
3.78178673716e-06
3.67875662671e-06
4.77158516911e-06
4.32704866247e-06
5.18478522997e-06
9.04808938591e-06
7.01796746554e-06
5.15101670119e-06
3.68869750853e-06
3.52984274332e-06
3.20294625939e-06
2.99110417097e-06
2.40212161991e-06
1.3151974181e-06
2.77942472121e-06
1.75336702401e-06
4.80323536774e-06
2.6519695473e-06
1.63752659047e-06
5.25017714123e-07
1.2830511291e-06
1.53003571535e-06
1.28159552376e-06
7.15003030999e-06
1.68444160374e-05
1.98722935783e-05
1.91283992482e-05
1.24818601336e-05
8.47770353718e-06
8.61185272161e-06
7.98184309913e-06
3.67557649353e-06
8.85905870212e-06
8.02574215784e-06
8.05741474607e-06
1.10308934379e-05
6.76101108017e-06
7.25801725223e-07
3.35083151855e-06
7.27822005141e-06
8.25428212936e-06
1.07472193671e-05
1.14560580285e-05
3.14113277918e-05
8.35244931845e-05
2.85855184644e-05
4.02001704869e-06
1.19436919365e-06
2.39854013909e-06
4.82273117145e-07
3.56766678834e-07
4.03100945696e-07
3.84268091043e-07
3.05615154662e-07
1.16784106995e-07
8.99759807684e-08
2.9149325842e-07
4.65063142321e-07
4.41203522592e-07
3.0779067381e-07
3.20831052199e-07
6.91143095387e-07
5.74075352428e-07
2.61368875076e-05
3.81249390041e-06
1.93912314544e-06
1.52073116692e-06
1.26733761459e-07
1.48871727694e-07
6.31288437788e-08
6.03151669669e-08
1.26000403614e-07
1.35339505402e-07
1.02953349394e-05
1.54770021454e-05
2.87296781761e-05
3.43006239461e-06
8.21434236846e-06
6.64872770474e-06
3.70133485038e-06
4.13488895221e-06
2.15794860629e-06
3.95481927837e-06
6.13607254897e-07
6.68907345184e-07
6.70521905883e-08
6.85694034371e-08
1.22273232878e-07
2.29380307092e-07
4.00261095727e-06
4.57506052572e-06
5.23024419121e-06
2.80250050027e-06
7.7496905528e-06
4.61011957732e-06
6.81151523148e-08
2.42874444496e-06
1.75543892367e-06
2.16652796899e-06
7.53297737947e-06
1.97488439303e-06
1.98671104355e-06
1.63219392993e-06
4.87521207096e-07
1.39527419917e-07
2.56687786513e-07
5.61069884258e-07
6.73975054856e-08
6.78540495667e-08
6.83607185633e-07
5.37416365692e-07
3.90882151156e-06
6.38842397804e-07
1.71122758482e-06
2.46716711457e-06
2.20085920024e-06
2.62356831075e-08
6.15914973369e-07
1.53279156787e-08
2.88769512265e-06
7.6761413538e-06
1.14454313177e-06
1.46344295156e-05
8.9217099669e-06
8.20602818453e-08
1.07838727959e-07
6.58387770202e-07
2.43039190047e-06
2.13296308128e-08
3.30296883574e-06
3.29229030263e-06
3.47222609277e-07
5.88084470026e-07
1.24749279574e-05
1.46754269799e-06
8.48351479591e-08
5.67678489339e-07
3.25710762829e-07
1.94700467154e-07
3.2213027725e-07
5.78663738748e-07
2.66337813708e-06
7.82731855653e-07
6.0828394619e-08
2.87803257636e-07
7.07186524822e-08
9.76220651058e-09
1.07518109621e-06
4.98459664713e-08
7.67027568963e-08
2.89947151431e-08
2.16436859705e-08
8.33377760069e-07
2.09639740009e-06
4.26918595841e-06
1.39852649346e-05
5.63486605202e-08
8.86659263559e-06
1.22977911443e-08
1.28374230642e-06
1.0013255372e-07
2.97557054512e-06
8.58480845805e-07
9.8829847175e-07
3.05941891163e-06
6.0377231658e-07
4.06166100221e-06
5.31415309056e-07
5.00099712874e-06
1.06647378808e-06
3.93545583257e-08
1.54207253351e-06
1.27512024185e-06
1.19494420684e-06
5.16322245371e-07
3.99707294438e-07
4.04126541242e-07
3.9679102431e-07
2.18640658042e-08
5.23990534476e-08
1.56960507152e-07
4.3681763009e-07
2.43507753803e-06
5.04548123475e-06
1.13660999184e-05
2.15657012445e-06
2.4864460767e-06
1.41420333684e-06
1.43210761946e-06
1.78803159565e-06
2.6203042867e-06
2.55532225488e-06
1.89249199139e-06
2.15758812947e-06
1.6869974702e-05
9.87850396623e-06
1.15167877552e-08
4.63305754739e-07
3.48133918294e-07
1.58967073265e-06
5.37622226729e-06
1.37323572995e-06
4.27506666599e-08
5.53063854696e-07
2.54448050124e-06
9.59312045667e-06
2.21756741146e-06
3.09090860087e-06
4.2108785292e-08
5.92726588795e-07
4.7262801506e-08
6.71064258976e-06
7.90255067774e-06
3.84022819251e-06
2.84521006872e-08

