# vtk DataFile Version 3.0
File Name: Molecule/sphere_excent/sphere_excent_0-s31.vtk
ASCII
DATASET UNSTRUCTURED_GRID
FIELD FieldData 1
TIME 1 1 double
0.0
POINTS 346 double
-0.067524217069 0.86479377747 0.49711897969
-0.54577261209 0.73832297325 0.39558368921
-0.29251518846 0.61948925257 0.72812783718
-0.82513052225 0.55912822485 0.080288812518
-0.83043038845 0.3531255126 0.43050044775
0.30779370666 -0.60919481516 0.73067229986
0.027603007853 -0.84612041712 0.52898639441
0.39476209879 -0.83889830112 0.37448695302
0.76881307364 -0.20621290803 0.60528147221
0.77061152458 0.22176241875 0.59702301025
0.60153597593 0.012913921848 0.7985188961
-0.9641944766 0.1815854758 0.19281315804
0.048171494156 -0.99700069427 0.014377681538
0.51166939735 -0.85873997211 0.016351321712
-0.25824645162 0.93802392483 0.22766403854
-0.5811214447 0.81178873777 0.039779637009
-0.63610237837 0.73089486361 -0.2460232079
0.45838844776 0.49549719691 -0.73777759075
0.59618657827 0.4661026895 -0.65365725756
0.5376278758 0.36923831701 -0.75803804398
0.67957484722 -0.20466119051 -0.704441607
0.7591804266 -0.099838078022 -0.64316213131
0.76162040234 -0.26166978478 -0.59284847975
-0.23125733435 0.33860433102 0.91197550297
-0.41100135446 0.21490776539 0.8858923316
-0.21669630706 0.12001996487 0.96873635054
-0.3269534111 -0.66767656803 0.66872733831
-0.5094653964 -0.37900623679 0.77192389965
-0.58547139168 -0.56481981277 0.58119183779
-0.7848919034 -0.2605407536 0.56199008226
-0.62610733509 -0.10201740265 0.7727444768
-0.6802008152 -0.18329373002 -0.70971006155
-0.49536645412 -0.33823683858 -0.80008339882
-0.63423889875 -0.41225576401 -0.65406697989
0.92662805319 0.18634669483 0.32646521926
0.84585267305 0.3903054595 0.36331295967
0.68938475847 0.49487045407 0.52850782871
0.56032514572 0.29548278451 0.77315568924
0.98137825727 0.12181390822 -0.14813786745
0.9856389761 0.15203039348 0.073348209262
0.99696177244 -0.076906166971 0.011199143715
-0.012216088362 0.44797921181 0.89388120174
-0.019524196163 0.21007433534 0.9774569273
0.19440931082 0.25973409414 0.94575619698
0.15683996677 0.0020815178286 0.98744493723
-0.39506655931 -0.83010578156 0.39078277349
-0.81987524033 -0.55131787062 0.15369895101
-0.77108120918 -0.63563984632 0.036037832499
-0.64546251297 -0.73417592049 0.20918561518
0.5904648304 -0.54279267788 0.59686809778
0.52277332544 -0.30382439494 0.79644751549
0.63563138247 -0.74767506123 -0.19123908877
0.36544379592 -0.87370526791 -0.32091999054
0.77193307877 -0.63509362936 -0.025729661807
0.68759804964 -0.70343798399 0.17959947884
0.87161391973 -0.47389811277 0.12457643449
0.89575737715 -0.4411765039 -0.054276216775
0.84444057941 -0.49894544482 -0.19372405112
-0.96284300089 -0.25878930092 0.07669069618
-0.90444517136 -0.40219250321 0.14206494391
-0.92347294092 -0.25222247839 0.28882071376
-0.84180468321 -0.44117185473 0.31048935652
-0.81947141886 -0.56549501419 -0.092859342694
-0.86723583937 -0.49718907475 0.023203350604
-0.023595418781 -0.64262473583 0.76583391428
0.25561070442 -0.28190022707 0.92474943399
0.37936481833 -0.066752068698 0.92278116941
-0.22054614127 -0.48434367776 0.84658610821
0.013761716895 -0.19391010702 0.98092329502
0.032790686935 -0.4281001389 0.90315365791
-0.18096780777 -0.27990356088 0.94257932901
0.40488550067 0.15820989013 0.90050166845
-0.72704851627 0.47200670838 -0.49829551578
-0.82252645493 0.5048288703 -0.26182851195
-0.92105352879 -0.013922292739 0.38897094131
-0.77994155884 0.069602243602 0.6219252944
-0.0082741342485 0.89459580183 -0.44608515501
0.095858827233 0.96598356962 -0.24011877179
0.22026795149 0.87189608812 -0.43736109138
0.36817100644 0.88515549898 -0.28436800838
0.29148259759 0.9503954649 -0.10715378076
0.41701897979 0.7762567997 -0.47274297476
0.63066697121 0.6567581296 -0.4134054184
0.54215198755 0.77796643972 -0.31741884351
0.24018330872 0.73913109303 -0.62922602892
0.40244159102 0.64336019754 -0.65118199587
-0.97951495647 -0.092309117317 0.17892628908
-0.95906114578 -0.26588788629 -0.097463622689
-0.92708331347 -0.37446066737 -0.015977235511
-0.91520512104 -0.36717262864 -0.16599804163
-0.92795103788 -0.26600152254 -0.26103806496
-0.84806197882 0.29232051969 -0.44162136316
-0.91751259565 0.36989617348 -0.14540719986
-0.99920588732 -0.014740496874 0.033523060381
-0.98848628998 -0.1492793113 -0.022590227425
-0.99327725172 -0.048709526658 -0.10469523817
-0.97146946192 -0.16573382914 -0.16948825121
-0.98195749521 0.034630484879 -0.18552738428
-0.99288475513 0.097607918084 -0.066646054387
-0.34072440863 -0.89026832581 -0.30005037785
-0.51016491652 -0.74275517464 -0.43362978101
-0.32903122902 -0.75088250637 -0.57260704041
-0.44364255667 -0.54980307817 -0.70755976439
-0.56683850288 -0.6017113328 -0.56248390675
-0.16913948953 -0.58887797594 -0.78922218084
-0.71621251106 -0.48676165938 -0.50010311604
-0.7572414279 -0.55303931236 -0.34745314717
-0.81294041872 -0.42987215519 -0.39277598262
-0.6561024785 -0.61855143309 -0.43233448267
-0.66326498985 -0.68388056755 -0.30366718769
-0.76912277937 -0.60239887238 -0.21329818666
-0.69703501463 -0.69417101145 -0.17947800457
-0.8424166441 -0.48487767577 -0.23486915231
-0.52871608734 -0.80093240738 -0.28043913841
-0.73640036583 -0.67192977667 -0.078749991953
-0.58743333817 0.51170116663 0.62682515383
0.55746591091 0.81384766102 -0.16342906654
0.69724822044 0.68202275038 -0.2205311656
0.67012214661 0.74186110497 -0.021477598697
0.84044110775 0.50787848234 -0.18791484833
0.79204404354 0.60727775097 -0.057991299778
0.75923675299 0.54888349771 -0.34970268607
-0.57926416397 0.10395983607 0.80847334862
-0.64832782745 0.28959992528 0.70407432318
-0.44585117698 0.41213360429 0.79461872578
-0.39824134111 -0.00090610957704 0.91725701094
-0.78095024824 -0.32012411952 -0.53627824783
0.67445152998 0.71407437325 0.18728460371
0.53582179546 0.83854049444 0.097197182477
-0.96760803461 0.25076928735 -0.019502878189
-0.96501982212 0.18609938025 -0.18482984602
-0.91279911995 0.29618933797 -0.28129285574
-0.92460179329 0.16583816707 -0.34282916784
0.40218320489 0.38634830713 -0.82999938726
0.35130515695 0.25560244918 -0.90065670013
0.49064579606 0.2624848783 -0.83087968826
0.44553345442 0.1446454972 -0.8834657073
0.54883319139 0.14426663518 -0.82332932949
0.6140306592 0.23941747844 -0.75209838152
0.47852820158 -0.043300360441 -0.87694495916
0.63613450527 0.067698895931 -0.76851850748
0.70100581646 0.15761081874 -0.69553345442
0.64021617174 0.35019978881 -0.68373543024
0.72285592556 0.26614427567 -0.63767945766
0.70178258419 0.40336713195 -0.58718013763
0.78127217293 0.14322151244 -0.60752898455
0.81647753716 0.23243954778 -0.5284845233
0.87422132492 0.10235975683 -0.47457766533
0.81000894308 0.018883053213 -0.58604425192
0.72834873199 0.034831453115 -0.68426191807
0.85845959187 -0.10959675908 -0.50094586611
0.6419762373 -0.079547151923 -0.76251810789
0.32691571116 0.099967800081 -0.93966978788
0.54367339611 -0.22810769081 -0.80725067854
0.2949872911 0.54203498363 -0.78684258461
0.068413496017 0.46670690179 -0.88131731749
0.25045365095 0.38244584203 -0.88935989141
0.16961795092 0.22696998715 -0.95783472061
0.11587096006 0.11436016858 -0.98584294319
0.93091517687 0.32344555855 0.16965828836
0.94174844027 0.33287447691 -0.047384545207
0.89250034094 0.4436661303 0.080061554909
0.85276269913 0.48373413086 0.19643582404
0.77625590563 0.55701601505 0.29465264082
0.8467400074 0.40550172329 -0.34437397122
0.92447465658 0.29869252443 -0.23678232729
-0.041062001139 0.011914070696 0.99907004833
-0.17980819941 -0.079976283014 0.98033261299
0.76197558641 0.64367568493 0.068143576384
0.2467379719 -0.049877017736 -0.96740078926
0.45529767871 0.55207496881 0.69835597277
0.2238163203 0.70886570215 0.668879807
0.20660580695 0.52366489172 0.82647866011
0.0012780047255 0.66481864452 0.74694508314
0.38300129771 0.76736867428 0.51275253296
0.93696147203 -0.0012246177066 -0.34942764044
0.88057309389 0.25501298904 -0.39945602417
0.93147796392 0.1556019932 -0.32876494527
-0.81522744894 -0.15414401889 -0.55822426081
-0.80729264021 0.0079059731215 -0.58995056152
-0.38969960809 -0.11996227503 -0.91303569078
-0.51668798923 -0.14172236621 -0.84426128864
-0.4329405129 0.0050434311852 -0.90137606859
-0.57770323753 0.0056326566264 -0.81616520882
-0.26744768023 0.0437483266 -0.96256279945
-0.36369138956 0.12143013626 -0.92349642515
-0.49586516619 0.15096466243 -0.85517328978
-0.56691485643 0.2745206058 -0.77667868137
-0.63190901279 0.13064412773 -0.76387369633
-0.9213193059 -0.085648529232 -0.37925475836
-0.88396018744 -0.18920013309 -0.42756694555
-0.94523358345 -0.14463444054 -0.2926132679
-0.87681782246 -0.054287299514 -0.47774687409
-0.88508325815 0.08722563833 -0.45699295402
-0.92615056038 0.021390067413 -0.37644281983
-0.95437407494 -0.031923454255 -0.29682216048
-0.97450828552 -0.072805635631 -0.21212892234
-0.95684999228 0.073648236692 -0.28090211749
0.32851243019 -0.18694333732 -0.92542916536
0.63871043921 -0.34933125973 -0.68557018042
0.51114755869 -0.3982912004 -0.76157736778
0.5608124733 -0.51184719801 -0.65073621273
0.36873215437 -0.34514933825 -0.86137920618
0.70424920321 -0.43508553505 -0.56100481749
0.82720005512 -0.3326664269 -0.45274236798
0.1751075536 -0.58542406559 -0.78970736265
0.39556288719 -0.57288092375 -0.71785235405
0.97353726625 -0.012757029384 0.2281768918
0.95181882381 -0.24504081905 0.18428614736
0.89550971985 0.0046170530841 0.44497922063
0.9186000824 -0.17289990187 0.35510286689
-0.86647182703 -0.31515949965 -0.38717085123
-0.88186323643 -0.37418287992 -0.28688073158
0.72796285152 -0.53886508942 -0.42346531153
0.87014633417 -0.37298476696 0.32167732716
0.28479933739 -0.75505924225 -0.59059530497
0.004789407365 -0.8570599556 -0.51449584961
0.95596474409 -0.29311335087 0.013829747215
0.95643925667 -0.24354538321 -0.16063369811
0.47353577614 -0.68628007174 -0.55196547508
0.77671778202 0.42801034451 -0.46202859282
0.69989466667 0.5146484375 -0.49518683553
0.36680328846 0.36827376485 0.85422384739
0.58031928539 -0.71156316996 -0.39604857564
0.61600106955 -0.58804345131 -0.52416366339
[...]
CELL_DATA 688
SCALARS cell_data_0 double
LOOKUP_TABLE default
2.45635425915e-05
1.0626780413e-05
2.53804958687e-06
1.99205785178e-05
2.07519589806e-06
2.10827987117e-06
6.42004306426e-05
0.000115923923605
0.000114833654129
4.68122770609e-06
1.62169250561e-05
2.55750238284e-05
4.1935191293e-05
3.27612428723e-06
2.42117029958e-05
6.23416992569e-06
6.9923449588e-06
1.00220737862e-05
1.05280292819e-06
3.36102628036e-05
3.06073503162e-05
1.62458874481e-05
3.92648047484e-05
5.73382502443e-06
1.72063251853e-05
4.68765885673e-06
1.19034329842e-05
2.23531451813e-05
3.63202219055e-05
6.78537425324e-05
1.5698409563e-06
2.93397769595e-06
2.55211260841e-06
1.57137211636e-06
2.17834652842e-07
1.7335402471e-06
3.19283117321e-06
9.05011117132e-07
1.88897666499e-05
1.40681304573e-05
3.81093167157e-05
1.76183320074e-05
3.54097729946e-05
2.30876313472e-05
2.12447397841e-05
1.90340619575e-05
4.52461083318e-05
4.42167911709e-05
1.72423811899e-05
3.46132890578e-05
3.5777665908e-05
2.62834672418e-05
1.92964318947e-05
2.66518980612e-05
1.55330585138e-06
3.95524618893e-05
2.31299152438e-05
3.69427719498e-05
1.57026029418e-06
9.00841172166e-06
4.75886524375e-05
5.21718292787e-05
5.16183002888e-05
1.19316518596e-05
2.66787935294e-06
1.24849688325e-05
2.08457355274e-06
1.66648036014e-05
5.39013315475e-06
1.22035123525e-06
1.70479015013e-06
2.31296351991e-06
5.37285310323e-06
2.17896879129e-06
7.36647414777e-07
3.9926429893e-07
1.89271870335e-05
2.41549592262e-05
1.23585448622e-06
1.12639802663e-06
6.84782300178e-07
1.18158711109e-06
7.5241000515e-07
6.0228478121e-07
5.91485917298e-07
4.90746770183e-07
3.28561057027e-07
1.05360830464e-05
8.82194867998e-07
9.91011320704e-07
4.10006153785e-07
2.85814062726e-07
6.22377154789e-07
2.92248719495e-07
4.67688963568e-07
3.37700104096e-07
7.53678825942e-07
6.01827299878e-06
4.75348380841e-07
5.52514470603e-07
1.13841315235e-05
1.2362156582e-05
1.39376870834e-05
8.6130925888e-06
4.40997362549e-07
1.18919792892e-06
3.99567244198e-06
8.28174979991e-07
7.97736551084e-07
1.32626962381e-05
7.89260701788e-06
1.57344639633e-05
9.90612954737e-06
8.99789717692e-06
7.45525473917e-06
1.75481432505e-05
9.32136891952e-06
2.4073406485e-05
1.42974175741e-05
5.31222454428e-06
8.74753564233e-06
3.02716903391e-07
2.14651998358e-05
8.00368440456e-07
1.50668381733e-06
4.14477593245e-06
1.14022995166e-06
9.25661336002e-07
1.06589377181e-06
5.24077420129e-07
7.37069587951e-06
8.55118546362e-06
6.11620239199e-06
5.22340447566e-07
6.43083252573e-07
7.25479152119e-07
1.29421364142e-06
7.49252269223e-07
2.57741774368e-07
9.54024481451e-07
6.22568275851e-07
6.86874927232e-07
2.36528666446e-07
5.50144915888e-07
2.77598007982e-07
3.76124980228e-06
2.30611692836e-06
1.31887454202e-06
2.13216741977e-06
2.98712494803e-06
4.07141252755e-06
2.23386479185e-06
2.03039770006e-06
2.08729509764e-06
1.09626026843e-06
9.38006768273e-07
5.50053826776e-07
1.27705985905e-06
2.53923211191e-06
2.38223216665e-06
1.65340745534e-05
4.56260529045e-05
6.78250757673e-05
3.35098308304e-05
1.69001107329e-05
1.11043458143e-05
1.57654824923e-05
1.53820499638e-05
6.95978125935e-06
6.45309974602e-07
4.24278356657e-06
2.23411543822e-05
1.14990897948e-05
2.73235027399e-06
1.0773997647e-05
2.22695981377e-05
2.99531580387e-05
3.55998426424e-05
3.06458143164e-05
2.96033755849e-05
1.70799386973e-05
1.1814248063e-05
8.20130117756e-06
1.8577580827e-05
4.41495407595e-06
2.47238062433e-06
2.92739741996e-06
1.85059662176e-06
1.26225446322e-06
1.70899792652e-06
3.94221659957e-06
3.81064884478e-06
1.31802886374e-06
3.06236396018e-05
3.13070686157e-05
2.05079169052e-05
2.87691989006e-05
3.16623528291e-05
3.51044634585e-05
6.60976443029e-06
8.83306652892e-06
9.37469646483e-06
1.28172020094e-06
4.85680309468e-06
3.20990662828e-06
4.5563601026e-06
1.64633265514e-06
1.48770379947e-05
6.9743818335e-06
1.29576458724e-05
1.05253998338e-05
6.18329421184e-06
8.91638322194e-07
2.45741368289e-06
7.00411990646e-06
3.93863899084e-06
4.91623338128e-07
1.24008127748e-07
6.58209368936e-07
1.69036147053e-05
1.78223971023e-05
2.7758105346e-07
2.86395776437e-06
2.82951275891e-06
3.19447970355e-07
3.00352180026e-06
2.20526685115e-09
2.69102202356e-05
2.28421554413e-05
1.45390355699e-05
1.71418046322e-05
1.52289383559e-05
5.99384053961e-08
1.00083529222e-07
5.76542870402e-08
1.50281099012e-07
1.05567724205e-07
1.10649969804e-07
2.29377439602e-07
1.35928676568e-08
3.74144155036e-07
2.08209509916e-07
2.87029104546e-07
1.7409731979e-07
3.51215707132e-07
4.46324132079e-07
3.45195796579e-07
1.62362937676e-07
3.32476695842e-07
1.89318072567e-07
2.39699822503e-07
3.21444218109e-07
1.25862563781e-07
5.27545919379e-07
4.87337125226e-07
3.02367968785e-07
3.06543754958e-05
4.99114050679e-06
5.22201609658e-06
1.54539679595e-07
1.09422556153e-07
2.85300390139e-07
1.00866273771e-06
8.0867110364e-07
1.61938448681e-06
2.79616989705e-06
1.2672985693e-06
1.01439187512e-05
1.91356540218e-06
2.13290201146e-05
6.88893419831e-07
1.43133467845e-06
2.55667822836e-06
4.7751795119e-07
1.00683779575e-05
6.27549047133e-06
1.59404695924e-06
1.87943051748e-07
1.98478960244e-07
3.93509420241e-07
4.82162370009e-07
2.59538024039e-07
1.40997418255e-06
7.56531901355e-07
1.90125241638e-07
2.79168875157e-07
3.36625827879e-07
3.82216427373e-07
1.58646171265e-07
1.85354392115e-07
1.14080311845e-05
1.62261445952e-05
4.99199887054e-05
4.91550289745e-06
3.60994894298e-06
6.14873954736e-07
9.9362973288e-08
5.83827779807e-06
1.34337695852e-07
6.3135404994e-07
2.82776765681e-05
6.93909618506e-07
6.83466886504e-06
6.62794503795e-06
1.18676241876e-05
1.40471457109e-05
1.51819961263e-05
8.43097409177e-06
1.02261572003e-05
1.60179397342e-05
3.08867449208e-05
1.04762605401e-06
8.34991524422e-07
7.1381747223e-07
2.71196720595e-05
1.1007140716e-06
1.64552541557e-06
5.87303647112e-07
3.43595193573e-07
1.00225463087e-07
8.96073275308e-07
5.66189256227e-07
1.40810591243e-06
1.82230107346e-06
2.75216679398e-06
4.24929476211e-07
2.0373747414e-07
4.96030642507e-07
1.70187971241e-05
3.38834930341e-05
4.74203329142e-07
1.98264049808e-07
1.11889127288e-07
2.93016845093e-07
3.97443513378e-07
7.61792316882e-07
5.6536221348e-07
5.09457960818e-07
1.29730431645e-05
1.62839277976e-07
6.36336860145e-08
9.41632779452e-06
3.406942275e-07
1.03882889775e-05
1.74777698489e-05
1.14505565114e-05
1.94318207402e-07
4.89439941352e-07
1.03876433098e-06
1.10209791985e-06
2.06859736709e-06
2.23504986631e-06
6.13484305193e-07
2.00639819941e-07
4.14611952194e-07
6.21635672561e-07
5.92505043063e-07
6.95456419262e-07
6.4610458686e-07
5.04256922949e-07
1.49947872758e-07
2.57065859674e-07
9.93785374211e-08
2.50092165452e-07
2.44659217571e-06
3.07136873284e-07
3.9329637116e-07
3.69427291331e-11
7.63982330473e-07
1.02326193331e-06
2.37209032382e-06
5.0083536246e-07
5.24407505513e-07
4.28385694982e-06
2.54341048959e-07
1.1875983838e-06
1.34708105403e-06
6.49686530339e-05
3.0519426322e-06
9.42596964198e-07
6.52940692771e-06
1.59656420588e-06
8.59446421997e-06
4.00754604956e-06
1.60830659787e-06
1.86213391509e-06
3.24582078071e-06
1.13938024307e-06
1.11907979387e-06
4.59129963139e-06
5.32066164373e-06
4.41118578667e-06
6.69591924451e-06
4.06298001481e-06
6.38707921154e-06
1.47275773683e-05
1.92185815112e-05
2.42209405724e-06
1.07979980741e-05
2.43565248568e-07
5.66600676958e-06
4.40193595145e-06
1.18222478394e-06
2.82535538266e-06
1.47958957602e-06
1.84970068613e-05
2.08656528469e-05
1.99680428547e-06
2.96118048345e-06
1.31245734639e-05
1.03166870631e-05
5.71678184809e-06
2.99065174029e-07
1.24125054492e-07
1.7122593697e-07
1.44709148267e-07
1.95143603396e-08
2.27873413585e-06
4.62701738309e-07
5.50402370126e-08
1.07569134517e-07
2.4833025336e-06
1.80065309086e-06
8.22401462369e-08
2.1080733753e-08
1.99329702219e-07
2.08473511805e-06
1.32633943706e-06
8.42177933581e-06
4.1283843206e-06
3.8671173875e-06
2.22181986593e-06
2.49704558915e-06
2.32319292823e-06
4.12119554076e-06
8.45019423326e-06
5.25513513396e-07
4.50475696984e-07
6.10858659878e-07
6.64431670684e-07
9.79866408914e-07
5.42734116727e-07
2.47425085085e-06
2.5394349273e-06
5.43294328728e-07
1.00033443401e-06
2.4821473362e-06
4.45823330943e-06
1.20082309752e-06
1.40591722138e-06
1.44295328666e-06
4.03877653553e-07
1.72693436344e-06
1.47423415237e-06
1.82568368955e-07
2.40911323351e-06
2.72305705621e-06
2.07389202341e-06
2.34534495247e-07
1.49582361543e-05
3.60407866725e-06
4.05470638339e-06
5.18395780832e-06
1.11399191921e-06
2.16423776881e-07
3.26223740951e-07
1.65061396291e-07
1.82340642093e-06
3.03784358334e-06
6.72262348653e-06
5.68311133961e-06
4.51304132903e-07
4.69829769732e-07
4.47010814971e-07
5.23013291914e-07
4.27573275467e-07
7.63629727104e-07
7.77041401402e-07
1.99549116906e-07
4.11340701052e-07
1.21189412187e-07
1.48526235994e-07
9.20632920855e-09
9.67188759004e-07
1.50757473613e-06
1.16959573634e-07
2.37290785173e-08
2.30620166991e-06
2.47265599707e-06
1.07822962702e-07
1.06440677068e-07
4.07352348609e-08
1.92214636272e-07
6.63539206211e-08
1.65022900011e-07
2.73407353279e-07
1.56335790036e-06
1.63822412071e-07
1.65288146884e-05
2.34391012855e-05
5.03511561044e-08
1.43488684586e-06
3.6844040248e-06
2.58363394254e-06
1.97170516516e-06
1.91350009803e-06
3.41131433731e-06
1.99096770832e-06
6.95984017063e-06
4.43967663492e-06
5.18788333647e-06
7.56793844335e-06
2.17883643414e-07
3.07852228862e-07
5.18741407334e-07
4.60916947606e-07
4.66489639595e-07
2.61962786309e-07
5.84517276015e-06
4.54874587604e-06
1.48485669578e-07
1.70348192249e-07
9.89685200459e-08
7.50522667107e-08
3.49557178064e-07
6.44824456689e-07
1.78166634395e-06
4.58795287401e-07
2.33245938967e-07
3.89956798079e-07
3.60913094914e-07
2.25195176292e-07
6.08400947767e-07
2.51095429021e-07
7.34696753102e-07
2.36929104253e-06
9.26391584584e-08
1.26627200916e-07
4.47955435047e-07
4.52781014698e-07
5.08010262046e-07
6.11113283279e-07
1.14675825668e-06
2.5392326353e-06
2.27512094285e-06
1.60247346324e-06
3.66614259442e-06
8.07895487683e-06
8.09892200815e-06
1.10363319492e-05
6.98085127995e-06
1.35501453604e-05
1.37767049793e-05
1.49977536065e-05
1.24198698155e-05
3.39345217988e-06
3.80493758446e-07
3.85546073346e-06
1.30612860822e-06
2.95526408888e-07
2.48786896782e-07
4.29238888558e-07
1.35366839233e-06
6.25249366193e-08
1.5762880484e-07
8.87880218659e-07
3.35352738293e-07
7.06651966356e-07
1.62942584764e-06
2.18066235322e-05
1.97604424801e-05
4.81481108163e-07
3.88380940094e-07
4.09829181188e-06
8.06998605932e-06
1.17561301997e-05
1.17401919907e-05
5.46391707632e-06
7.98542470905e-06
6.73846542758e-06
7.40257471988e-06
3.00846065954e-06
1.93309568391e-06
3.66864839644e-06
2.6773533267e-06
3.56168313519e-06
4.30749184384e-06
3.86908967528e-06
1.35906890179e-06
6.01406858691e-07
1.29850075495e-06
6.3431946873e-06
9.45033472369e-06
1.2613624045e-06
2.97063386772e-05
5.538635925e-07
1.08068446709e-07
1.73628352357e-05
2.28585077438e-05
2.20838387668e-05
5.29856061767e-07
3.91462604863e-05
2.81360641401e-05
5.75701491429e-05
5.00854444931e-07
3.84758404414e-05
4.64312497429e-05
5.03748575343e-05
3.26466774155e-05
8.65903548122e-06
1.89067799877e-06
1.05963641522e-06
2.0208712178e-05
2.15654106399e-05
1.99352233548e-05
7.91372893846e-07
3.67822658351e-08
2.0731420516e-05
6.59142599834e-07
9.18396896855e-06
9.64352023266e-08
1.09966526301e-07
1.09190127726e-06
1.10385396623e-05
7.10703362263e-08
9.56140032888e-07
2.22045140792e-07
4.13597620177e-06
3.60883042176e-06
2.30103362815e-06
4.56838938636e-06
1.58780346454e-05
2.38530476051e-05
4.8895235319e-05
5.32973452031e-05
1.02745398028e-06
5.39610730828e-07
3.11812783715e-06
6.1551106223e-06
4.48340067775e-06
4.85272099787e-06
4.07521701168e-06
3.62937976155e-06
3.24142002459e-06
1.41791819316e-05
1.75208324479e-05
2.61231461454e-06
3.67534004844e-06
3.28311701909e-06
1.98217274705e-06
2.05415800497e-06
8.58301458524e-07
6.27938441658e-07
1.11999971217e-05
6.86238536604e-06
8.3204282173e-07
5.02123022912e-06
6.41319335801e-07
2.99300902174e-07
8.69235298884e-07
7.77983701971e-07
6.95458631374e-07
3.25706143704e-07
4.44543755567e-06
3.92139051953e-06
1.16988474221e-07
6.95673703921e-08
2.36468767921e-06
6.73080070924e-07
8.50364724285e-07
4.41322787074e-08
1.18374546238e-07
2.21980536244e-06
5.18020114166e-08
8.32682885439e-06
1.13142341062e-06
9.98688509838e-06
5.18763555898e-06
4.81620582212e-07
4.40668063094e-06
1.60934734396e-07
1.71832395019e-07
1.1854890955e-06
7.60580660269e-06
3.21588051016e-07
1.91241770813e-07
7.28142109285e-06
2.3270830698e-06

