# vtk DataFile Version 3.0
File Name: Molecule/sphere_excent/sphere_excent_0-s22.vtk
ASCII
DATASET UNSTRUCTURED_GRID
FIELD FieldData 1
TIME 1 1 double
0.0
POINTS 236 double
-0.013772298582 0.85757356882 0.51307827234
-0.54298841953 0.73614686728 0.40329095721
-0.30142843723 0.59437060356 0.74469035864
-0.83161640167 0.55195665359 0.061625555158
-0.83535116911 0.32311189175 0.44373166561
0.32465603948 -0.58478999138 0.74340093136
0.0072281281464 -0.8572036624 0.51488977671
0.41751712561 -0.83477932215 0.35832768679
0.22009721398 -0.60570055246 -0.76273107529
-0.010205190629 -0.86146062613 -0.50762355328
-0.22260649502 -0.54356575012 -0.80864167213
0.79911059141 -0.20498459041 0.5640334487
0.76658582687 0.24805164337 0.5922806859
0.56723868847 0.048488989472 0.82056349516
-0.36180776358 -0.88259506226 -0.29916751385
0.0075064608827 -0.99988204241 0.010408931412
-0.54078859091 -0.83896768093 0.030162556097
-0.40529114008 -0.83850628138 0.36423373222
-0.33751818538 -0.64015269279 0.68995523453
-0.97997575998 0.14261648059 0.13343167305
0.41004753113 -0.83707255125 -0.35949498415
0.5569819212 -0.82974636555 0.017763257027
0.002281071851 0.99944353104 0.027593772858
-0.28708779812 0.9398625493 0.18509458005
-0.26310727 0.94590497017 -0.18952019513
-0.55014830828 0.83489429951 0.015893602744
-0.59360069036 0.73395687342 -0.32960984111
-0.013193326071 0.87046843767 -0.49190738797
0.11365734786 0.95839232206 -0.26051002741
0.28998237848 0.95450735092 -0.068374723196
0.27132329345 0.94026976824 0.20433761179
0.51166951656 0.85486882925 0.082647226751
0.45419326425 0.78252124786 0.42556378245
0.58922374249 0.4871212244 -0.6444414854
0.43661081791 0.63371908665 -0.63851284981
0.65779602528 0.60911107063 -0.43847379088
0.81908166409 -0.35301378369 -0.45068246126
0.87709784508 -0.090280294418 -0.47134542465
0.95179778337 -0.20340266824 -0.2295421809
0.97264373302 0.097273238003 -0.20562642813
0.99319255352 -0.097178533673 0.054791171104
0.5133062005 -0.037706043571 -0.85713553429
0.40016457438 -0.2779699564 -0.87281835079
0.26789227128 -0.028580073267 -0.96278500557
0.11522021145 -0.30266648531 -0.94585090876
-0.0088372938335 0.016459779814 -0.99982053041
0.46325549483 0.46402400732 -0.75473403931
0.55069047213 0.34236586094 -0.76106548309
0.68133705854 -0.20787973702 -0.70171737671
0.75619864464 -0.062714956701 -0.65057039261
0.75548261404 -0.27367499471 -0.59456521273
-0.21732968092 0.30912849307 0.92557233572
-0.42211666703 0.23802503943 0.87399792671
-0.17754936218 0.095032609999 0.97873574495
-0.60453689098 -0.061759971082 0.79343253374
-0.48908251524 -0.32165113091 0.81042033434
-0.35536044836 -0.0072383908555 0.93375962973
-0.20511083305 -0.25982576609 0.94333916903
-0.55574667454 0.010431140661 -0.83039158583
-0.68885093927 -0.15793849528 -0.7074110508
-0.68656665087 0.19742792845 -0.69972658157
-0.82387644053 0.028371673077 -0.56506931782
-0.75460720062 0.42196214199 -0.50166356564
-0.87045663595 0.24586929381 -0.42449772358
-0.49654224515 0.5802295208 -0.64546716213
-0.43143090606 0.30890518427 -0.84723722935
-0.63902485371 -0.57489991188 0.51085335016
-0.79703593254 -0.25035429001 0.54950928688
-0.17843456566 -0.22612699866 -0.95749348402
-0.25224679708 0.018978746608 -0.96729743481
-0.44973948598 -0.29972323775 -0.84075903893
-0.14689837396 0.27374702692 -0.95030891895
0.16916567087 0.2330199331 -0.95718675852
-0.25804978609 0.49763944745 -0.8279812336
0.086217239499 0.50672316551 -0.85763341188
-0.66069924831 -0.41476207972 -0.62486344576
0.93210083246 0.16200132668 0.32114923
0.85568875074 0.40276512504 0.32339262962
0.67853587866 0.69723802805 0.22887781262
0.67686635256 0.55693489313 0.48131504655
0.43227082491 0.51187229156 0.73959749937
-0.13205102086 0.70815318823 -0.69348233938
-0.30902537704 0.8180821538 -0.48477736115
0.19818396866 0.74663215876 -0.63426291943
0.97836071253 0.19412179291 0.054470073432
0.0076191006228 0.44800719619 0.89358735085
-0.011665804312 0.18584625423 0.98233246803
0.22539836168 0.23624254763 0.94458550215
0.13029612601 -0.0091906199232 0.99130183458
-0.82607674599 -0.55518633127 0.09535279125
-0.69249016047 -0.68538534641 0.22511775792
-0.82446861267 -0.4794267416 0.30041462183
0.84123617411 -0.48438248038 -0.2400842756
0.69931864738 -0.58769154549 -0.40480798483
0.67945146561 -0.70405602455 -0.20570220053
0.89700645208 -0.43957138062 -0.0099129732698
-0.76220321655 -0.64695078135 -0.0051770843565
0.65159350634 -0.56227898598 0.5081602931
0.51112049818 -0.28957101703 0.80914402008
0.85511660576 -0.42225801945 0.29707160592
0.71815657616 -0.66193008423 0.21448332071
-0.84575676918 -0.46163055301 -0.26462295651
-0.8518179059 -0.51741325855 -0.081031672657
-0.91874200106 -0.37557154894 -0.12164676189
-0.90716332197 -0.41385260224 0.076182320714
-0.96259516478 -0.26921069622 0.030301032588
0.77597415447 -0.63003373146 -0.029286514968
0.88552492857 -0.44040974975 0.14180086553
-0.92732834816 -0.27515932918 0.25343063474
-0.016809310764 -0.61659300327 0.78698402643
0.23711512983 -0.26279103756 0.93522524834
0.33895465732 -0.045723792166 0.93962061405
-0.21388219297 -0.46342736483 0.85991036892
-0.0047571072355 -0.17783600092 0.98390853405
0.037633772939 -0.40798428655 0.91220527887
-0.83873552084 0.48178043962 -0.25366294384
-0.93689501286 -0.044536333531 0.3448728323
-0.76729756594 0.088160209358 0.63467645645
0.37627062201 0.88812762499 -0.26377108693
0.53576099873 0.83356243372 -0.13411204517
0.25441122055 0.86686509848 -0.42813017964
0.44315457344 0.76490968466 -0.46724233031
0.54966402054 0.77771729231 -0.30483046174
0.30841177702 0.51588112116 -0.79856199026
-0.9859238863 -0.11366729438 0.12142207474
-0.96052491665 -0.24697001278 -0.128064394
-0.92774349451 -0.25792989135 -0.26931944489
-0.92767685652 0.33940503001 -0.15464840829
-0.99924790859 -0.031293138862 -0.011806024238
-0.98691308498 -0.15345266461 -0.04886040464
-0.98966401815 -0.057199988514 -0.13133645058
-0.96763020754 -0.15805210173 -0.19638162851
-0.97792959213 0.018845267594 -0.20727132261
-0.99229168892 0.071990273893 -0.099422298372
-0.36282017827 -0.7400020957 -0.56627780199
-0.53578960896 -0.73793947697 -0.41041263938
-0.47904223204 -0.55199193954 -0.68174266815
-0.58974307775 -0.601090312 -0.53917723894
-0.73890030384 -0.48247545958 -0.47011303902
-0.76173603535 -0.55065137148 -0.34142374992
-0.82914686203 -0.40173223615 -0.38794267178
-0.66938012838 -0.61437171698 -0.41766908765
-0.67590719461 -0.6739243269 -0.29818713665
-0.77899831533 -0.59194153547 -0.20662005246
-0.69458574057 -0.69991803169 -0.16533446312
-0.56782400608 -0.78149408102 -0.25639137626
-0.72781258821 -0.67957222462 -0.089300081134
-0.59026867151 0.48835968971 0.64243996143
0.68811571598 0.69314229488 -0.21252034605
0.68709540367 0.72637730837 -0.01977834478
0.83653861284 0.53047072887 -0.13203582168
0.76266628504 0.50899046659 -0.39507764578
-0.55611521006 0.12567900121 0.82138925791
-0.64071589708 0.28265032172 0.71374773979
-0.43572539091 0.41154405475 0.80057561398
-0.80282872915 -0.32212173939 -0.50094538927
-0.97654640675 0.20688413084 -0.052968394011
-0.96839755774 0.15804038942 -0.1929205358
-0.92677980661 0.26045721769 -0.27011966705
-0.93332582712 0.1333579272 -0.33282971382
0.41786360741 0.36095392704 -0.8336404562
0.38696026802 0.25023728609 -0.88721859455
0.50114834309 0.25216665864 -0.82778531313
0.46962672472 0.1408508271 -0.87157148123
0.56136614084 0.15351195633 -0.8131198287
0.62661725283 0.23330074549 -0.74352955818
0.64054715633 0.094044096768 -0.76213091612
0.70107918978 0.16804866493 -0.69299757481
0.64913165569 0.3433599174 -0.67871320248
0.71924394369 0.2628313899 -0.64309763908
0.7159730792 0.39517825842 -0.57472789288
0.77274668217 0.16654337943 -0.61246591806
0.79633623362 0.2573287487 -0.54684972763
0.85175049305 0.14436691999 -0.50352537632
0.80330955982 0.054661873728 -0.59272700548
0.726087749 0.067327216268 -0.68409973383
0.65675795078 -0.040192846209 -0.75275170803
0.34909319878 0.11839366704 -0.92951238155
0.56162911654 -0.23816350102 -0.79201686382
0.28014984727 0.37224620581 -0.88473439217
0.92788606882 0.33651939034 0.15985862911
0.92813193798 0.36736553907 -0.052862327546
0.87251144648 0.47910919785 0.094561487436
0.78864687681 0.61026394367 0.075434863567
0.79372167587 0.55703014135 0.24425171316
0.83979511261 0.38879004121 -0.37799873948
0.92075443268 0.27482044697 -0.27460244298
-0.038966014981 0.00092899455922 0.99922508001
-0.16179162264 -0.075649388134 0.98387092352
0.21936771274 0.70742690563 0.67155396938
0.20739036798 0.51390945911 0.83268892765
0.012809954584 0.66777873039 0.74421030283
0.91615176201 0.14518669248 -0.37343797088
0.86675053835 0.25290092826 -0.42978674173
-0.83183556795 -0.15031728148 -0.53402006626
-0.35902813077 -0.12281379849 -0.92518991232
-0.41692772508 0.01341135893 -0.90884679556
-0.49234431982 -0.12205702066 -0.86153811216
-0.35639944673 0.15151701868 -0.92180210352
-0.48893994093 0.14163197577 -0.86053967476
-0.92088425159 -0.096525222063 -0.37763297558
-0.88468581438 -0.19883817434 -0.42150399089
-0.94313931465 -0.14437715709 -0.29930475354
-0.88420826197 -0.057135578245 -0.46362292767
-0.89871525764 0.061448849738 -0.43393880129
-0.93045556545 0.0017837289488 -0.36629965901
-0.9523448348 -0.042481977493 -0.3019721508
-0.97109746933 -0.072744779289 -0.22728537023
-0.95680934191 0.053916845471 -0.28559574485
0.62975287437 -0.35743671656 -0.68965399265
0.50656592846 -0.39245188236 -0.7676461339
0.55660897493 -0.50931769609 -0.65634453297
0.69826316833 -0.43013271689 -0.57205891609
0.40428447723 -0.57182192802 -0.71392995119
0.97668033838 0.013409656473 0.21416948736
0.93286174536 -0.16347718239 0.32062238455
0.89947903156 -0.024107819423 0.4355262816
-0.87302058935 -0.30433222651 -0.38115251064
-0.88802486658 -0.36005440354 -0.28589174151
0.50879216194 0.28605130315 0.81155383587
0.32818362117 -0.74419331551 -0.58153647184
0.96085965633 -0.27429607511 0.032495278865
0.49618300796 -0.685754776 -0.53204840422
0.77883827686 0.40437781811 -0.47889152169
0.70791590214 0.49445778131 -0.50436586142
0.34157320857 0.37313655019 0.86247044802
0.40631774068 0.15461176634 0.90051704645
0.5683876276 -0.71992480755 -0.39791557193
0.62518662214 -0.56622982025 -0.53685826063
-0.66294658184 -0.74843776226 0.013124339283
-0.63285887241 -0.77090239525 -0.072438344359
0.94532817602 -0.27331209183 0.17776554823
-0.63342905045 -0.74869692326 -0.1955486536
-0.56925296783 -0.81319624186 -0.1189500466
0.76431375742 0.3303526938 -0.55382239819
0.8169503212 0.33035072684 -0.47275745869

CELLS 468 1872
3 0 1 2
3 1 3 4
3 5 6 7
3 8 9 10
3 11 12 13
3 14 15 16
3 14 9 15
3 17 15 6
3 17 6 18
3 4 3 19
3 9 20 15
3 7 15 21
3 15 7 6
3 22 23 0
3 0 23 1
3 22 24 23
3 24 25 23
3 24 26 25
3 23 25 1
3 27 24 28
3 1 25 3
3 25 26 3
3 29 30 31
3 29 22 30
3 31 30 32
3 32 30 0
3 30 22 0
3 33 34 35
3 36 37 38
3 37 39 38
3 38 39 40
3 41 42 43
3 42 44 43
3 42 8 44
3 43 44 45
3 10 44 8
3 33 46 34
3 46 33 47
3 48 49 50
3 51 52 53
3 54 55 56
3 55 57 56
3 58 59 60
3 59 61 60
3 62 60 63
3 60 64 65
3 18 55 66
3 67 55 54
3 45 68 69
3 68 10 70
3 45 71 72
3 71 73 74
3 45 69 71
3 71 65 73
3 10 68 44
3 44 68 45
3 73 65 64
3 59 70 75
3 76 77 12
3 78 32 79
3 77 79 12
3 12 79 80
3 80 79 32
3 27 81 82
3 81 64 82
3 81 73 64
3 82 64 26
3 26 64 62
3 62 64 60
3 73 81 74
3 74 81 83
3 27 82 24
3 24 82 26
3 32 78 31
3 39 84 40
3 51 85 2
3 51 86 85
3 86 87 85
3 86 88 87
3 89 90 91
3 90 66 91
3 90 17 66
3 91 66 67
3 67 66 55
3 18 66 17
3 36 92 93
3 92 94 93
3 95 92 38
3 38 92 36
3 89 96 90
3 90 16 17
3 17 16 15
3 7 97 5
3 5 97 98
3 11 97 99
3 97 100 99
3 97 7 100
3 101 102 103
3 102 104 103
3 102 89 104
3 103 104 105
3 94 21 20
3 20 21 15
3 94 106 21
3 106 100 21
3 100 106 107
3 21 100 7
3 95 106 92
3 92 106 94
3 105 104 108
3 91 104 89
3 89 102 96
3 5 109 6
3 6 109 18
3 88 110 111
3 110 98 111
3 110 5 98
3 111 98 13
3 13 98 11
3 11 98 97
3 18 112 55
3 55 112 57
3 88 113 110
3 113 114 110
3 113 57 114
3 110 114 5
3 5 114 109
3 114 112 109
3 114 57 112
3 109 112 18
3 88 111 87
3 62 115 26
3 26 115 3
3 19 116 4
3 4 116 117
3 118 29 119
3 29 28 22
3 22 28 24
3 27 28 120
3 28 118 120
3 28 29 118
3 120 118 121
3 34 121 35
3 35 121 122
3 122 121 118
3 121 83 120
3 121 34 83
3 120 83 27
3 27 83 81
3 74 83 123
3 19 124 116
3 124 108 116
3 124 105 108
3 116 108 67
3 67 108 91
3 91 108 104
3 105 125 103
3 103 125 126
3 61 63 60
3 62 63 115
3 115 127 3
3 19 128 124
3 128 129 124
3 128 130 129
3 124 129 105
3 105 129 125
3 129 131 125
3 129 130 131
3 125 131 126
3 132 130 133
3 14 134 9
3 9 134 10
3 14 135 134
3 136 134 137
3 134 136 10
3 10 136 70
3 138 139 140
3 141 142 139
3 142 143 139
3 142 144 143
3 139 143 101
3 141 135 142
3 135 145 142
3 135 14 145
3 101 143 102
3 96 102 146
3 4 147 1
3 1 147 2
3 54 117 67
3 67 117 116
3 122 119 148
3 119 149 148
3 119 31 149
3 148 149 150
3 122 148 35
3 35 148 151
3 54 152 117
3 152 153 117
3 152 52 153
3 117 153 4
3 4 153 147
3 153 154 147
3 153 52 154
3 147 154 2
3 2 154 51
3 154 52 51
3 52 152 56
3 152 54 56
3 136 75 70
3 59 75 155
3 78 149 31
3 127 156 3
3 3 156 19
3 19 156 133
3 156 157 133
3 156 127 157
3 133 157 132
3 31 119 29
3 118 119 122
3 63 158 115
3 158 127 115
3 63 159 158
3 159 157 158
3 158 157 127
3 19 133 128
3 128 133 130
3 141 137 135
3 135 137 134
3 136 137 75
3 137 138 75
3 137 141 138
3 75 138 155
3 139 138 141
3 46 47 160
3 161 162 163
3 162 164 163
3 164 162 165
3 163 164 41
3 41 164 166
3 164 165 166
3 47 165 162
3 166 165 167
3 47 168 165
3 168 169 165
3 168 170 169
3 165 169 167
3 170 168 33
3 33 168 47
3 167 169 171
3 169 172 171
3 171 172 173
3 173 174 171
3 174 175 171
3 174 49 175
3 171 175 167
3 49 174 37
3 37 174 173
3 167 175 166
3 175 176 166
3 175 49 176
3 166 176 41
3 163 41 177
3 41 176 178
3 176 49 48
3 74 72 71
3 45 72 43
3 46 123 34
3 34 123 83
3 74 123 179
3 123 160 179
3 123 46 160
3 179 160 161
3 74 179 72
3 177 72 161
3 179 161 72
3 72 177 43
3 84 180 76
3 180 77 76
3 84 181 180
3 181 182 180
3 181 150 182
3 180 182 77
3 150 183 182
3 183 184 182
3 183 78 184
3 182 184 77
3 77 184 79
3 79 184 78
3 185 150 186
3 181 84 39
3 86 187 88
3 88 187 113
3 56 53 52
3 53 86 51
3 113 188 57
3 57 188 56
3 56 188 53
3 188 187 53
3 188 113 187
3 53 187 86
3 78 183 149
3 149 183 150
3 161 160 162
3 162 160 47
3 43 177 41
3 163 177 161
3 80 189 190
3 189 191 190
3 189 0 191
3 190 191 85
3 0 189 32
3 32 189 80
3 39 186 181
3 181 186 150
3 173 192 37
3 37 192 39
3 173 193 192
3 193 186 192
3 193 185 186
3 192 186 39
3 155 194 59
3 59 194 61
3 70 195 68
3 68 195 69
3 69 195 196
3 195 197 196
3 195 70 197
3 196 197 58
3 69 198 71
3 198 65 71
3 69 196 198
3 196 199 198
3 196 58 199
3 198 199 65
3 65 199 60
3 60 199 58
3 58 197 59
3 197 70 59
3 85 191 2
3 2 191 0
3 87 190 85
3 200 201 202
3 155 201 194
3 201 203 194
3 201 200 203
3 194 203 61
3 61 203 204
3 203 205 204
3 203 200 205
3 204 205 159
3 132 206 207
3 206 202 207
3 206 200 202
3 207 202 131
3 131 202 126
3 126 202 201
3 132 207 130
3 207 131 130
3 132 208 206
3 208 205 206
3 208 159 205
3 206 205 200
3 61 204 63
3 63 204 159
3 159 208 157
3 208 132 157
3 172 193 173
3 48 178 176
3 41 178 42
3 48 209 178
3 209 210 178
3 209 211 210
3 178 210 42
3 48 50 209
3 50 212 209
3 50 36 212
3 209 212 211
3 8 42 213
3 36 50 37
3 37 50 49
3 40 214 215
3 214 216 215
3 214 76 216
3 215 216 11
3 11 216 12
3 12 216 76
3 76 214 84
3 84 214 40
3 155 140 217
3 140 218 217
3 140 101 218
3 217 218 126
3 93 212 36
3 99 215 11
3 126 218 103
3 103 218 101
3 101 140 139
3 138 140 155
3 155 217 201
3 201 217 126
3 80 219 12
3 12 219 13
3 8 220 9
3 220 20 9
3 185 151 150
3 150 151 148
3 40 221 38
3 38 221 95
3 8 213 220
3 213 222 220
3 213 211 222
3 220 222 20
3 185 223 151
3 223 224 151
3 223 170 224
3 151 224 35
3 35 224 33
3 33 224 170
3 80 225 219
3 225 226 219
3 225 87 226
3 219 226 13
3 20 227 94
3 94 227 93
3 211 228 222
3 228 227 222
3 228 93 227
3 222 227 20
3 96 229 90
3 229 16 90
3 96 146 229
3 146 230 229
3 146 144 230
3 229 230 16
3 95 107 106
3 100 107 99
3 40 231 221
3 231 107 221
3 231 99 107
3 221 107 95
3 144 146 143
3 143 146 102
3 13 226 111
3 111 226 87
3 145 232 142
3 142 232 144
3 144 232 230
3 232 233 230
3 232 145 233
3 230 233 16
3 16 233 14
3 233 145 14
3 170 234 169
3 169 234 172
3 185 235 223
3 235 234 223
3 235 172 234
3 223 234 170
3 87 225 190
3 190 225 80
3 172 235 193
3 193 235 185
3 211 213 210
3 210 213 42
3 93 228 212
3 212 228 211
3 99 231 215
3 215 231 40

CELL_TYPES 468
5
5
5
5
5
5
5
5
5
5
5
5
5
5
5
5
5
5
5
5
5
5
5
5
5
5
5
5
5
5
5
5
5
5
5
5
5
5
5
5
5
5
5
5
5
5
5
5
5
5
5
5
5
5
5
5
5
5
5
5
5
5
5
5
5
5
5
5
5
5
5
5
5
5
5
5
5
5
5
5
5
5
5
5
5
5
5
5
5
5
5
5
5
5
5
5
5
5
5
5
5
5
5
5
5
5
5
5
5
5
5
5
5
5
5
5
5
5
5
5
5
5
5
5
5
5
5
5
5
5
5
5
5
5
5
5
5
5
5
5
5
5
5
5
5
5
5
5
5
5
5
5
5
5
5
5
5
5
5
5
5
5
5
5
5
5
5
5
5
5
5
5
5
5
5
5
5
5
5
5
5
5
5
5
5
5
5
5
5
5
5
5
5
5
5
5
5
5
5
5
5
5
5
5
5
5
5
5
5
5
5
5
5
5
5
5
5
5
5
5
5
5
5
5
5
5
5
5
5
5
5
5
5
5
5
5
5
5
5
5
5
5
5
5
5
5
5
5
5
5
5
5
5
5
5
5
5
5
5
5
5
5
5
5
5
5
5
5
5
5
5
5
5
5
5
5
5
5
5
5
5
5
5
5
5
5
5
5
5
5
5
5
5
5
5
5
5
5
5
5
5
5
5
5
5
5
5
5
5
5
5
5
5
5
5
5
5
5
5
5
5
5
5
5
5
5
5
5
5
5
5
5
5
5
5
5
5
5
5
5
5
5
5
5
5
5
5
5
5
5
5
5
5
5
5
5
5
5
5
5
5
5
5
5
5
5
5
5
5
5
5
5
5
5
5
5
5
5
5
5
5
5
5
5
5
5
5
5
5
5
5
5
5
5
5
5
5
5
5
5
5
5
5
5
5
5
5
5
5
5
5
5
5
5
5
5
5
5
5
5
5
5
5
5
5
5
5
5
5
5
5
5
5
5
5
5
5
5
5
5
5
5
5
5
5
5
5
5
5
5
5
5
5
5
5
5
5
5
5
5
5
5
5
5
5
5
5
5

CELL_DATA 468
SCALARS cell_data_0 double
LOOKUP_TABLE default
2.86808338318e-05
1.53702239499e-05
2.68992124983e-05
1.13593510224e-05
2.95136347365e-05
5.84795950224e-06
8.15116123653e-07
1.1880291134e-05
1.91207713376e-05
1.019202127e-05
2.6845915198e-06
2.1328400506e-05
1.17647185492e-05
7.42390507652e-06
1.43955106683e-05
4.23839610221e-06
5.32671351237e-06
4.58069945085e-06
7.5608226381e-06
1.82549398137e-05
9.17052560804e-06
5.84589670676e-06
3.49885413576e-06
3.03056977975e-06
5.40293421848e-06
9.66057281516e-06
7.17186041564e-06
7.33124956896e-07
0.000122186980014
0.000256245827777
0.000240736789345
6.99309006801e-05
0.000182334639144
0.000148130798802
0.000138845119186
0.000130045080166
2.20965246868e-07
1.04117450493e-07
1.82113502296e-05
2.36039945926e-05
3.07310826868e-05
1.58404009881e-05
4.62450321258e-06
1.19044307518e-06
6.62868755557e-07
9.19606345852e-05
2.40560943856e-05
2.47485277655e-05
2.12749420355e-06
7.0938850376e-06
7.86421301808e-06
7.92163859093e-06
6.60650457373e-06
7.24089173815e-06
8.58069845701e-05
7.281548476e-05
7.07539958666e-05
2.84159903695e-06
2.35667932588e-06
6.32348439886e-06
8.42725214806e-06
1.88488399998e-05
1.43001994286e-05
0.000212709902778
0.000387198801614
0.000156186514878
0.000245192110439
8.04335433768e-05
7.10790151428e-05
5.4498175138e-05
6.65205843322e-05
0.00013302665451
8.74717806013e-05
5.18636080055e-06
0.000100697279195
2.62095995243e-05
3.63290047818e-05
4.28646298623e-05
2.468474504e-05
2.67294058885e-06
2.88096091253e-06
6.15250423654e-06
7.56526704624e-06
2.38540147261e-05
1.40415403279e-05
1.21040706747e-05
2.21647117891e-05
6.13741325455e-05
6.6429204327e-05
1.58898271582e-06
5.11211369205e-06
1.08751314674e-05
1.9615760376e-05
2.0273419488e-05
1.14697604957e-05
6.04838675955e-06
9.32781809208e-06
9.28659425872e-07
6.10033080396e-07
3.37488445974e-07
1.15163151094e-07
5.68901627853e-05
3.27252811188e-05
0.000103782116001
6.91617814899e-05
3.15826563936e-05
1.20361612479e-05
4.66033237445e-05
6.91967479077e-05
9.3762508347e-07
1.39903371864e-06
7.13518210375e-07
7.5666632722e-07
8.47802058734e-06
3.42245839815e-05
1.76870771138e-05
2.3977199485e-05
7.7094970069e-06
2.23126814733e-05
1.12742173666e-05
1.62500249434e-05
1.25583014613e-05
3.71848671297e-05
3.34912210804e-05
2.60455870793e-05
3.95243254821e-05
2.1320099517e-05
1.887815622e-05
2.16585798722e-05
1.59318516504e-05
4.4070366953e-05
1.29348591198e-06
3.24931288466e-06
8.1938111672e-06
1.14474110571e-05
7.26764213117e-07
7.13459554057e-06
9.97873517356e-06
1.39243721568e-05
6.92805279619e-07
4.12337902003e-07
7.98548068383e-07
4.51545490676e-07
2.75165833203e-07
1.30763402892e-06
9.99195936806e-07
8.08678784142e-07
1.64837738426e-05
8.27791451623e-05
2.91600657729e-06
3.55319927012e-06
2.9610528607e-06
1.55738122888e-06
6.64709242249e-06
5.93645504721e-06
1.75546976945e-06
3.68974924777e-07
5.02610164865e-07
7.94863657541e-07
4.73593724836e-07
1.77522448745e-06
1.35699394085e-06
6.09128921653e-07
3.33522766468e-07
8.38881818503e-07
5.21320105158e-07
3.71446902741e-07
3.81841615216e-07
1.88171388489e-07
1.70400304506e-06
3.72625832474e-07
4.64483718097e-06
9.00956970365e-07
2.64755612203e-08
1.1731257515e-06
6.44241931681e-06
1.81125039899e-07
1.12693251316e-07
3.25622483034e-07
3.89092014369e-07
1.35685371552e-07
2.16074818071e-07
3.56736492563e-07
5.63540274832e-07
5.19774517682e-07
3.18749281436e-07
1.42983847891e-05
1.69249268458e-05
1.5225092444e-05
1.22622841315e-05
1.95789805395e-07
3.58048705098e-06
1.78287963926e-06
3.28815731784e-06
1.48237327116e-07
4.06807612381e-07
1.26077975894e-05
9.0647872517e-06
1.00451187808e-05
1.02026233805e-05
1.02442567885e-05
8.87788697773e-06
1.24033432791e-05
1.05463213472e-05
1.98561753155e-05
1.54698857879e-05
1.41053588055e-05
1.89309881397e-05
3.18672507304e-06
5.76531983322e-07
1.96572636397e-07
9.05330709109e-06
1.05735255083e-05
1.24518991811e-05
1.71026156247e-05
1.44140457312e-05
6.95775966991e-06
2.43389112541e-06
6.65681617091e-07
5.31095209751e-08
2.63474506532e-07
2.42293130929e-08
3.91768971436e-06
4.09451387906e-06
2.84652624089e-06
1.97402966929e-06
2.74023910724e-08
2.79818143531e-07
2.68730073102e-07
2.75169939484e-07
2.00246446829e-07
8.68749619189e-08
1.78658492719e-09
1.14608927586e-08
5.48182235877e-08
1.29767440025e-08
5.92662379652e-08
9.14061630926e-07
9.31434912419e-07
1.48665467441e-07
1.23625340088e-08
9.01461861918e-08
1.20270217786e-07
1.75106405725e-07
1.90807051268e-07
8.83154392642e-08
2.44557192115e-07
1.41468036797e-07
8.03249179916e-08
1.64957329918e-07
2.01182390992e-07
1.89711698597e-07
1.47927418148e-07
1.6945694212e-07
6.73402423187e-08
1.05139741277e-05
1.05613991049e-05
5.20909759662e-08
1.01698422161e-07
1.41972770023e-07
1.17184677659e-06
1.29350896685e-06
2.14133492078e-06
1.61661088675e-05
7.58544437589e-06
3.05676981059e-05
1.30750340378e-07
6.33479544641e-07
1.10836311052e-06
6.78345563746e-08
2.43405398861e-08
8.15336106872e-08
1.34065576373e-06
5.48922685474e-08
1.5450753523e-07
1.27540951211e-05
1.75706334716e-06
8.18940662301e-07
1.72348578659e-06
1.51812402122e-06
1.64482577046e-06
1.89450534907e-06
1.58687341611e-06
1.27572832122e-06
1.66118515993e-06
1.98993011237e-06
3.50210091945e-06
3.30825021404e-06
4.18754806345e-05
3.63981439808e-05
1.19766623744e-05
1.28140205704e-05
2.07867657764e-05
1.93429959867e-05
1.30092535992e-05
1.06076815325e-05
1.06878329319e-05
8.58898621993e-06
1.07008624313e-05
1.10622651344e-05
2.88334739883e-07
1.13009038976e-06
1.04386244061e-07
1.04589474215e-07
1.93649190297e-05
1.27964030351e-08
1.22451157055e-05
1.02528000242e-05
1.05734735936e-05
1.53692401148e-05
1.12659548301e-05
1.54542387303e-05
0.000110319551386
3.66575832955e-05
5.79830513712e-05
0.000175079406648
1.94613172998e-05
6.34169595312e-05
3.08936350909e-05
0.000134848952733
1.10228927261e-05
1.10261361646e-05
1.38734574812e-05
8.04903018597e-06
5.56697134822e-06
4.73862583555e-06
8.69504072492e-06
2.47913391238e-06
2.30717083475e-06
4.90266048435e-06
2.22577367376e-07
5.33223797055e-08
2.06061109551e-06
8.46529775823e-07
9.89419202641e-07
2.91031077092e-06
3.31448356084e-06
1.90784831129e-06
1.71789619118e-05
1.84807894416e-05
2.86790678849e-05
1.83109377837e-07
5.5780559739e-06
3.99209783515e-06
2.40051061573e-07
4.86515323235e-06
3.44474930814e-07
2.54106058367e-07
2.003777365e-07
2.68966987295e-07
1.2610373583e-07
1.19625433231e-07
9.8554851667e-08
1.57604486902e-07
1.83935059856e-07
1.91872520177e-07
1.2695076664e-07
1.61458031992e-07
1.32872402402e-07
1.49456873059e-07
2.02875380738e-07
1.32491650523e-07
4.07541759378e-07
2.81723931e-07
2.52302818316e-06
2.37252344955e-06
1.86014219302e-06
2.02216288227e-05
1.68278072894e-05
1.70965503292e-05
2.62484578254e-07
6.51271161624e-08
8.59939522391e-06
1.70559374564e-05
2.67715303838e-07
3.6179315185e-06
1.43415659754e-08
5.51275977391e-05
3.01198252041e-05
1.86041332282e-05
4.15181435799e-06
2.69320789811e-06
2.02341831113e-07
3.86867535055e-06
1.07558674049e-05
1.19568371638e-07
1.66614664569e-06
6.44605052438e-06
2.53097540593e-07
2.79676543847e-08
4.97646582943e-07
5.34495495948e-07
6.99258286595e-06
6.76918841492e-06
1.13173784701e-06
9.1900899852e-07
1.53979360371e-07
2.12582982051e-07
3.29278976408e-07
7.15543452576e-08
1.77783035107e-05
1.90248167886e-05
1.04557161491e-05
6.08972476164e-06
7.53928921587e-07
1.09814447435e-06
5.15599970931e-05
3.51027981201e-05
2.07516203205e-05
1.63366470046e-05
9.81405468351e-06
1.5028772453e-06
1.43566578337e-07
6.76963860752e-08
3.75105160517e-08
2.09267170019e-07
3.57498461123e-07
2.25431658724e-07
9.23006412294e-06
8.59374778948e-06
1.16359381049e-05
1.16751163821e-05
3.36341661691e-05
3.65931495132e-05
1.11371730843e-05
2.92264141162e-05
3.40846627585e-05
9.35904760132e-06
1.23355542246e-06
1.23260900906e-06
4.43489163682e-07
3.21555488589e-07
2.38324455478e-07
2.7903339657e-07
2.54067570094e-05
1.91580752588e-06
6.31609501499e-06
7.74386908462e-07
9.09778346634e-07
9.88218494009e-07
3.32192517724e-07
4.0916328442e-07
1.99687583712e-05
2.71694019254e-05
1.48263589751e-07
1.70298322894e-07
1.25855290907e-07
6.95525018588e-08
1.12482159146e-07
1.19823614728e-07
6.75897083284e-07
4.75984739512e-07
1.16184845111e-07
1.11961164579e-07
8.36562398369e-08
4.37635796446e-08
8.07478293381e-08
3.22208758087e-08
1.15629545228e-05
8.14712194076e-06
1.32082832161e-06
1.56066104898e-06
8.63206922024e-06
3.04366198374e-05
1.32736883853e-05
1.02375221609e-05
2.20093772262e-06
6.66261436911e-06

