# vtk DataFile Version 3.0
File Name: Molecule/sphere_excent/sphere_excent_0-s30.vtk
ASCII
DATASET UNSTRUCTURED_GRID
FIELD FieldData 1
TIME 1 1 double
0.0
POINTS 336 double
-0.060621742159 0.86627298594 0.49517288804
-0.54556274414 0.73795121908 0.39656472206
-0.29242280126 0.61781358719 0.72954416275
-0.8252543807 0.55920606852 0.078630797565
-0.83161830902 0.35041904449 0.43039122224
0.31090280414 -0.60780727863 0.73048198223
0.018922332674 -0.85183238983 0.51884049177
0.39716717601 -0.8385899663 0.37267580628
0.15808330476 -0.59238237143 -0.78977113962
-0.0016768858768 -0.85539197922 -0.51445287466
-0.15476226807 -0.58944624662 -0.79232573509
0.77035647631 -0.2059469372 0.6034039855
0.76972484589 0.22562293708 0.59666490555
0.59975409508 0.014468829148 0.79979103804
-0.96556657553 0.17851707339 0.18869736791
0.032697755843 -0.99702686071 0.015008671209
0.51654517651 -0.85577124357 0.015834443271
-0.2624695003 0.93887013197 0.2171318531
-0.57262295485 0.81753104925 0.037457063794
-0.63238835335 0.73254394531 -0.25033521652
0.072554454207 -0.32568407059 -0.93988221884
0.45951959491 0.49362418056 -0.73832380772
0.59686982632 0.46521708369 -0.65366846323
0.53885710239 0.36769586802 -0.75791096687
0.68028247356 -0.20380449295 -0.7040258646
0.75930428505 -0.097634285688 -0.64334744215
0.76207625866 -0.26176002622 -0.59222042561
-0.2297051549 0.33629226685 0.91321057081
-0.4099508822 0.21517141163 0.88630479574
-0.21460293233 0.11854472011 0.96936035156
-0.32919809222 -0.66472172737 0.67057257891
-0.50748199224 -0.37445580959 0.77518492937
-0.59028917551 -0.56535035372 0.57556855679
-0.78598767519 -0.2591792047 0.56108385324
-0.62416052818 -0.098545335233 0.77471715212
0.050441600382 0.019695136696 -0.99853861332
-0.080080367625 0.25055679679 -0.96462279558
0.15042673051 0.21958869696 -0.96389842033
-0.68108618259 -0.18061996996 -0.70953279734
-0.49279117584 -0.33681818843 -0.80223089457
-0.63593703508 -0.41116377711 -0.65308624506
0.92675447464 0.18669962883 0.32590949535
0.84691303968 0.39202034473 0.35894060135
0.69053399563 0.49978125095 0.52217340469
0.55581027269 0.29302182794 0.77715170383
0.98100876808 0.12152693421 -0.15072265267
0.98549687862 0.15389804542 0.071253374219
0.99692124128 -0.07716589421 0.011932442896
-0.011224925518 0.44671827555 0.89451867342
-0.018378509209 0.2080720216 0.97790420055
0.19578567147 0.25475645065 0.94676887989
0.1520318836 -3.9943261072e-05 0.98816114664
-0.3875797987 -0.83723002672 0.38180243969
-0.82035505772 -0.55182993412 0.14891555905
-0.77056664228 -0.63633745909 0.034387335181
-0.65129208565 -0.7282230258 0.21144884825
0.59509664774 -0.54394501448 0.59105539322
0.52266925573 -0.30300483108 0.79682028294
0.64017158747 -0.74349707365 -0.19223539531
0.37030228972 -0.8707703948 -0.32299256325
0.77305352688 -0.63375997543 -0.025118941441
0.69038540125 -0.70034998655 0.18089681864
0.87225174904 -0.47254908085 0.12522400916
0.89579695463 -0.44106182456 -0.054466854781
0.84547775984 -0.49559310079 -0.19747230411
-0.96297162771 -0.25978022814 0.071289733052
-0.90456193686 -0.40313386917 0.13852965832
-0.92374485731 -0.25536671281 0.28512588143
-0.84013879299 -0.44503298402 0.30939811468
-0.8204023838 -0.56422877312 -0.092230290174
-0.86873495579 -0.49459767342 0.020985350013
-0.02334032394 -0.64145189524 0.76682442427
0.25462016463 -0.27985283732 0.92564481497
0.37440210581 -0.062320783734 0.92505264282
-0.2199563235 -0.48255819082 0.84775090218
0.011674862355 -0.19334433973 0.98106330633
0.032333619893 -0.42606535554 0.90412557125
-0.18755213916 -0.27646768093 0.94217556715
0.40618643165 0.15970933437 0.89962607622
-0.728505373 0.4672743082 -0.50056028366
-0.82367038727 0.50275039673 -0.26222866774
-0.92225897312 -0.016415080056 0.38597977161
-0.78003621101 0.070307455957 0.6217212081
-0.016167875379 0.89260756969 -0.44936877489
0.096749931574 0.96589201689 -0.24016273022
0.222044155 0.87173080444 -0.43678382039
0.36908200383 0.88541734219 -0.2823625505
0.29502677917 0.94963663816 -0.10369969159
0.4193944335 0.77504712343 -0.47261601686
0.63132470846 0.65581262112 -0.41389450431
0.54304546118 0.77811682224 -0.31551384926
0.24005204439 0.73928266764 -0.62908518314
0.40367338061 0.64272487164 -0.65104132891
-0.98018050194 -0.094522081316 0.17401058972
-0.95903921127 -0.26508226991 -0.099827133119
-0.92709577084 -0.37434196472 -0.018108701333
-0.91555666924 -0.36677774787 -0.16487279534
-0.92824661732 -0.2652797699 -0.26074135303
-0.84952920675 0.28636968136 -0.44260761142
-0.91840285063 0.36708703637 -0.14688791335
-0.99929583073 -0.016895640641 0.029362449422
-0.98832035065 -0.14981646836 -0.025980552658
-0.9928997159 -0.049978587776 -0.10762944072
-0.97113192081 -0.16553255916 -0.17159104347
-0.98169785738 0.03259370476 -0.18726871908
-0.99295163155 0.094433821738 -0.070024758577
-0.33175003529 -0.75038409233 -0.57157045603
-0.33520394564 -0.89383292198 -0.2942532897
-0.51180058718 -0.74235904217 -0.43236798048
-0.44703027606 -0.54880303144 -0.70609897375
-0.56930875778 -0.60125362873 -0.56046336889
-0.71816658974 -0.48614960909 -0.49787929654
-0.75858712196 -0.55182605982 -0.34644398093
-0.81425988674 -0.42851391435 -0.39151793718
-0.65792918205 -0.61796498299 -0.43038967252
-0.66577005386 -0.68210363388 -0.30227267742
-0.77021515369 -0.60129618645 -0.21246448159
-0.69801104069 -0.69324505329 -0.1793063432
-0.84327238798 -0.48335412145 -0.23492671549
-0.5363675952 -0.79524302483 -0.28145286441
-0.73703426123 -0.67110240459 -0.07986023277
-0.58774203062 0.51002216339 0.62788665295
0.55467355251 0.8162176013 -0.16079166532
0.69625449181 0.68267196417 -0.22155717015
0.67232888937 0.73984283209 -0.021190160885
0.83796548843 0.51354587078 -0.18262973428
0.79528111219 0.60324108601 -0.052905537188
0.75944018364 0.5481570363 -0.35040220618
-0.57695692778 0.10523532331 0.80994129181
-0.64768332243 0.28873512149 0.70501446724
-0.44522884488 0.41152256727 0.79528212547
-0.39579740167 -0.0047576627694 0.91827517748
-0.78269964457 -0.31958010793 -0.53402739763
0.6758993268 0.71272397041 0.18715623021
0.53225529194 0.84045964479 0.099203914404
-0.9687127471 0.24609795213 -0.022705640644
-0.96545517445 0.18258479238 -0.18603880703
-0.91399085522 0.29220014811 -0.28156924248
-0.92534130812 0.16261979938 -0.34236443043
0.4038721323 0.38459935784 -0.83000797033
0.35400217772 0.25567010045 -0.89957886934
0.49227494001 0.26175001264 -0.83014291525
0.44745010138 0.14453168213 -0.88255381584
0.55026721954 0.14512017369 -0.82221728563
0.61482030153 0.23957268894 -0.75140368938
0.47992372513 -0.045749604702 -0.87603241205
0.63721948862 0.069666199386 -0.7674447298
0.70099049807 0.15910080075 -0.69520789385
0.64068424702 0.34980708361 -0.68349856138
0.72244238853 0.26669543982 -0.63791787624
0.7018660903 0.40250861645 -0.58766889572
0.78039848804 0.14528825879 -0.60815674067
0.81514459848 0.2335036993 -0.53005850315
0.87309259176 0.10417272896 -0.47624051571
0.80940681696 0.021595757455 -0.58676618338
0.72843044996 0.037271335721 -0.6840364337
0.85824924707 -0.10782554001 -0.50168836117
0.64345383644 -0.077585078776 -0.76149338484
0.33474427462 0.09825938195 -0.93719178438
0.54964530468 -0.22782096267 -0.80333101749
0.065404847264 0.45599770546 -0.88736087084
0.24969115853 -0.056812547147 -0.96602660418
0.29577052593 0.54132419825 -0.78703820705
0.25216710567 0.38182994723 -0.88916552067
0.93077600002 0.32467722893 0.16803090274
0.94061565399 0.33594924212 -0.048064626753
0.89009279013 0.44811326265 0.081185884774
0.85081684589 0.48845341802 0.19272692502
0.77727818489 0.55899494886 0.28773996234
0.84648442268 0.40437805653 -0.34629929066
0.92453342676 0.29756379128 -0.23789939284
-0.041143227369 0.011095490307 0.99907588959
-0.17831531167 -0.079409621656 0.9806368351
0.7655261755 0.63911664486 0.069412298501
0.45644286275 0.54965859652 0.69942122698
0.22568325698 0.7097375989 0.66732233763
0.20649330318 0.52326029539 0.82675540447
0.0031338941772 0.66465634108 0.74708509445
0.38550567627 0.77287948132 0.50183677673
0.93657261133 -0.00021705409745 -0.35047101974
0.87950515747 0.2546107769 -0.40205124021
0.93039625883 0.15560778975 -0.33178368211
-0.81626969576 -0.15273422003 -0.55707937479
-0.80787986517 0.0096954824403 -0.58908730745
-0.38642281294 -0.11990299076 -0.91440463066
-0.51465821266 -0.1388296932 -0.84595745802
-0.4305665791 0.0061029233038 -0.90249764919
-0.57778465748 0.0077319303527 -0.81607294083
-0.26618152857 0.043679751456 -0.96288388968
-0.36241462827 0.12333483249 -0.92373037338
-0.49502164125 0.15056893229 -0.85572689772
-0.56723612547 0.27266699076 -0.77709823847
-0.6331936121 0.12922880054 -0.76301062107
-0.92136365175 -0.086577177048 -0.37893560529
-0.88423788548 -0.18934513628 -0.42693692446
-0.94502830505 -0.14485421777 -0.29316478968
-0.87734276056 -0.05444188416 -0.47676673532
-0.88612473011 0.085284471512 -0.45532238483
-0.92641031742 0.019429048523 -0.3759008646
-0.95412319899 -0.033229049295 -0.29748511314
-0.97409874201 -0.073500901461 -0.21376793087
-0.95689696074 0.071195617318 -0.28137344122
0.3208783567 -0.18674746156 -0.92769628763
0.63905584812 -0.34902387857 -0.68541181087
0.51221126318 -0.39614647627 -0.76201456785
0.56118959188 -0.511238873 -0.65089136362
0.3729069829 -0.32798963785 -0.86517798901
0.70433968306 -0.43541496992 -0.56063610315
0.82706350088 -0.3356512785 -0.45072567463
0.39572116733 -0.57287740707 -0.71775197983
0.97378915548 -0.010989040136 0.22715063393
0.95132815838 -0.24772271514 0.18316760659
0.89627063274 0.0032219891436 0.44345903397
0.91944676638 -0.17388483882 0.35237571597
-0.86727964878 -0.31436234713 -0.38600760698
-0.88265019655 -0.37301015854 -0.28597959876
0.72573459148 -0.54207867384 -0.42303708196
0.8697977066 -0.37514206767 0.32002839446
0.28894749284 -0.75418365002 -0.58960330486
0.95609736443 -0.29270038009 0.013289512135
0.95541679859 -0.24532932043 -0.16374050081
0.47549089789 -0.68553549051 -0.55128020048
0.77669847012 0.4264934659 -0.463452667
0.70062357187 0.51282376051 -0.49604457617
[...]
CELL_DATA 668
SCALARS cell_data_0 double
LOOKUP_TABLE default
2.55417069428e-05
1.49170344291e-05
7.32358135738e-06
0.000194930325576
1.16179551454e-05
8.81738678846e-06
3.24215869728e-05
8.32735920985e-06
9.93796671578e-06
1.25477737855e-05
0.000191645902006
2.37702450299e-05
7.0074239107e-06
1.49501413493e-05
1.30609750576e-05
2.04005952124e-05
0.000166468875396
5.21738814108e-05
3.58493418722e-07
2.03632965595e-06
1.40681088981e-05
1.66603110275e-05
2.05986543703e-05
1.71912599342e-05
1.36162664281e-05
1.3860723336e-05
1.46055718179e-05
1.13552964371e-05
1.64966584754e-06
6.94637836338e-06
1.64576287183e-05
3.30001427812e-07
4.26072812584e-06
2.5678843562e-06
3.00485351183e-06
2.47104672081e-06
2.16610558745e-05
2.19483096715e-06
2.70117891737e-06
1.79675702218e-06
7.43230399103e-07
2.19320422489e-05
1.96674845932e-05
1.43775592789e-05
1.56506023841e-05
2.067866698e-05
2.27931819085e-05
1.52481053355e-05
1.15875958024e-05
1.59925103398e-05
1.65237482159e-05
1.60782742166e-05
1.58645099273e-05
2.11200487226e-05
1.66527369668e-05
1.29585487422e-05
1.52108244642e-05
1.19433794786e-05
3.65478487667e-05
1.55635070385e-05
3.50338762747e-06
7.33445723216e-06
9.97023096913e-06
1.19154799177e-05
7.2867223226e-07
4.8538205664e-07
6.59468219064e-07
1.89520673584e-05
7.60851470997e-07
1.4412211157e-05
5.50952369444e-05
1.66973737957e-08
1.25465531061e-05
1.09898643776e-05
1.13975175091e-06
5.03995416728e-08
2.73050146223e-06
7.17681532991e-06
7.61682900763e-06
1.2841427023e-05
4.25989879059e-06
2.66287384124e-06
3.55445639557e-06
4.40814722923e-08
2.33957598041e-06
8.98143957752e-06
8.85608031825e-06
2.84142403806e-08
8.36151678384e-06
3.60981591136e-07
3.77711232248e-05
5.99675562011e-07
9.11851823512e-08
2.34738427197e-05
5.21488939663e-07
3.47760341297e-07
6.36830286579e-07
2.42141983537e-07
4.90954844009e-07
2.11042541851e-07
6.34064588946e-07
8.75118696431e-07
4.83428923695e-07
1.97433420913e-07
1.23626378159e-05
1.34177692577e-05
1.52027575145e-05
9.67111355082e-06
6.04535941527e-07
1.38033997784e-06
1.82715623832e-07
1.56954210455e-05
1.71154923495e-05
1.34451163923e-05
7.66600507032e-06
9.70107960797e-06
9.67543452906e-06
8.89265682276e-06
7.12882610165e-06
1.11975304846e-05
8.72032352623e-06
1.53166760404e-05
1.30734048194e-05
1.2872118698e-05
1.76241995548e-05
2.59451670663e-05
1.99561395352e-05
1.90501615383e-06
2.10194638954e-06
4.48615695929e-06
1.69315214895e-06
7.75257058853e-07
1.52753414679e-06
4.97144636908e-07
4.74179235476e-08
5.3541313618e-07
2.82250282107e-06
4.45730841455e-07
5.14127590335e-07
1.56830517449e-06
1.52426983026e-06
3.05669612534e-07
3.35659593574e-09
4.98861692874e-08
2.23693846383e-07
5.81929840551e-07
2.41897459931e-07
2.54043129802e-06
3.11981009224e-07
5.91032318265e-06
4.36313500377e-07
1.28174645812e-07
1.78326290833e-07
1.09949833542e-06
1.24550124554e-06
1.92162675364e-07
2.85189420946e-07
5.77542652458e-08
8.61343928225e-07
6.0912350733e-07
7.73509676219e-07
3.48452137987e-07
1.5673246671e-05
1.83781294183e-05
7.66407894876e-07
1.13962786112e-06
1.04170040846e-06
1.36116474556e-06
1.08709134714e-06
1.18869378163e-06
5.7505838254e-07
3.19269740656e-06
2.90466888125e-06
1.90557777471e-07
1.37243163665e-07
7.31569195212e-07
2.00012468735e-06
6.92744688149e-06
2.33635146318e-06
7.3688462485e-06
0.000149742091841
8.8521870319e-05
7.48249727602e-05
0.000130043840704
4.54737915205e-05
4.6236157414e-05
4.03464170446e-05
7.21099425004e-06
5.4046101586e-05
5.87988345341e-05
4.32083736514e-05
7.14477350659e-05
9.56898799522e-06
1.10575622687e-05
2.50851758189e-05
1.89168806196e-05
3.0384932182e-05
2.60421078115e-06
4.04326682466e-07
1.16425519466e-05
1.04835283259e-05
1.11116141389e-05
1.54992337353e-05
1.52181817194e-05
1.225505632e-05
1.38934519426e-05
8.0712723124e-06
9.52157064212e-06
1.01968838179e-05
1.31626255656e-06
5.1685223033e-06
4.4912085146e-06
1.43128515518e-05
4.15649652101e-06
8.21983318407e-06
7.04758462429e-06
1.30766444901e-05
9.14941524069e-06
9.28616477022e-06
6.23896966861e-06
4.54245537036e-06
1.4288395968e-06
3.77450511369e-07
6.15370757465e-07
1.88906284137e-07
5.28065903177e-07
1.43830527816e-05
3.66488053317e-05
1.38616632679e-08
2.6475168037e-06
1.78780368337e-05
1.85760519324e-07
2.73088756247e-06
5.47773999265e-08
1.59500736286e-05
4.77174679208e-05
1.29273411527e-05
1.743265826e-05
1.30176012465e-05
1.54502042856e-07
1.98426855656e-06
2.42229417953e-07
1.3576567069e-08
1.07837300865e-05
1.15398035835e-05
7.65557160161e-08
2.28894025712e-08
1.77427130682e-07
1.09316756272e-07
1.77419413433e-07
9.54126834134e-08
1.68849002258e-07
2.99578861505e-07
4.75152261207e-07
1.84980754659e-07
1.13246700229e-07
1.72712324268e-07
1.22673638869e-07
2.4949782645e-07
3.52451895752e-08
3.83946812031e-07
4.43672091471e-07
3.63210172715e-07
3.22783764359e-07
6.97931216286e-06
6.61856444152e-06
6.71215383389e-06
2.27810754066e-07
1.218006722e-08
3.82026154051e-07
6.03166842783e-06
1.70263586418e-07
3.13258570441e-06
6.75577137246e-08
7.33716888323e-05
6.74351807213e-06
2.22463280548e-06
5.93602344889e-06
2.74414634793e-06
3.35175357971e-06
1.28216421313e-05
1.98755639737e-05
4.41845513668e-06
2.21590232977e-06
9.71012769001e-06
5.76013500807e-06
1.43239311243e-06
7.30816476493e-07
2.32912357286e-07
4.50001693868e-06
1.30512535362e-05
3.55864646273e-07
3.33351390848e-07
6.62259273192e-07
4.33104773834e-06
3.50141080075e-06
3.44351136619e-07
1.25546108905e-05
1.7905385442e-05
8.59446973235e-05
5.61104866151e-06
1.18177878809e-06
9.74828874967e-08
5.61059706978e-05
3.66561556036e-05
5.49538166902e-05
1.11169011764e-06
1.28112941007e-06
2.62195765019e-06
1.19261238862e-06
4.48383448838e-07
6.79786839535e-08
1.50000509238e-05
1.85437408712e-05
9.2609289231e-06
1.63621988468e-05
2.13512170586e-05
1.9499980831e-05
9.66569434797e-07
2.8752194177e-07
2.09053449021e-08
1.22897292479e-07
2.02105604246e-06
6.24197900795e-07
1.11473484187e-06
1.03975861816e-07
4.98949731823e-08
2.15489145031e-07
4.52326753249e-07
1.60092086971e-06
5.73237350628e-06
1.79405937837e-06
2.35484949981e-06
1.17866683765e-06
3.72258436342e-09
3.68419269022e-07
2.40608741932e-05
3.13591997729e-05
4.08133627505e-07
1.44567477831e-08
1.45749937394e-07
2.11699969467e-07
3.59682053257e-07
6.20676063824e-07
4.67544366956e-07
1.98357508567e-07
5.42543176574e-07
2.12359448828e-07
6.97927990913e-08
2.46684430637e-07
4.91626649923e-08
9.69561607862e-06
8.51747969851e-06
1.46903275751e-07
1.09679698243e-07
6.15860504541e-07
1.43691733376e-06
1.93701394754e-07
5.509746834e-08
1.95153373836e-06
2.26371066326e-06
7.84375619482e-06
1.10408446278e-06
5.11132605357e-07
4.50301362409e-07
2.78217533742e-05
5.56506985912e-05
9.62383334615e-06
6.66717608759e-08
2.23916275493e-07
1.21641164367e-07
1.76550929744e-07
1.38056490627e-07
2.39672446045e-07
4.87863828488e-07
9.33756074221e-08
1.03221527614e-06
1.18132292958e-05
1.18552302396e-05
3.41773745622e-07
4.12900691908e-07
4.13912072801e-07
5.81321102666e-07
1.45887993223e-06
1.07899181891e-06
2.36816902723e-06
1.45160507505e-05
4.75945395744e-07
1.41494981805e-05
1.11642591927e-05
1.59521344358e-05
1.74845238105e-05
1.39705735948e-06
1.87650837832e-06
3.32185220038e-06
6.53833118133e-06
7.04133584183e-06
8.85085812864e-08
1.7063332205e-07
7.66978888476e-07
1.20206670595e-06
1.33574047714e-06
1.21990072487e-05
6.68714113749e-07
4.89755163688e-07
1.63311039754e-05
2.20056846723e-05
1.42126745472e-05
1.10594684749e-05
1.21192667778e-05
5.13909071796e-06
1.48246822978e-05
3.58583078893e-06
4.20591381335e-05
6.43135486309e-05
1.90103780333e-06
3.06499867444e-06
1.78299911477e-05
1.05406373877e-05
9.28359298114e-06
1.66052664973e-06
1.3223256062e-05
2.89528253474e-07
2.90992504939e-08
1.00429618389e-05
3.54359743524e-05
8.09920914756e-07
2.3209751143e-05
1.93901835492e-08
1.12776775133e-05
1.46454794763e-07
6.5992402707e-08
3.10699190637e-08
1.05702093753e-05
2.04183013136e-07
1.15088716101e-05
8.99515640241e-06
1.173043498e-06
6.30034302233e-06
3.9375626431e-06
2.17355245025e-06
2.40169944071e-06
2.36212025823e-06
1.12133265347e-05
4.18814965799e-06
5.01782224283e-07
4.87409549179e-07
5.83978917363e-07
6.38975960152e-07
9.56598238958e-07
5.53481444563e-07
1.12866544993e-06
9.9422241068e-07
6.53571337217e-06
1.09388841294e-06
1.59984103409e-05
2.3338831342e-05
5.93992512287e-08
2.25218705991e-08
9.08430480627e-06
1.89301782591e-05
1.06559781776e-05
2.0460742066e-07
1.2119286806e-05
2.25111487546e-06
2.45887412507e-06
1.01068215195e-07
2.83953429646e-07
1.32007073788e-05
5.33460628579e-06
1.47401507669e-05
2.7007597737e-05
9.3916584455e-06
8.97771017156e-08
1.09715326436e-05
1.45190470075e-05
5.50412200206e-05
2.83322737592e-05
3.40118526783e-05
2.86716859568e-05
3.42181155883e-05
8.82225333244e-06
2.04313219877e-07
4.14799794012e-07
4.34915961024e-07
6.044071973e-07
2.51980405603e-07
1.08125323015e-06
8.3948891721e-07
2.03487491484e-05
1.25754774384e-05
1.12401255045e-05
1.41794163064e-07
9.16519829997e-08
6.78116745679e-06
8.78058484036e-06
4.49073507991e-07
7.11557316024e-08
1.54519587004e-05
1.68636885594e-05
7.32512626928e-08
1.36836951708e-08
1.31741949478e-05
1.68920810781e-07
5.91892307697e-07
9.94876147503e-06
1.34634795859e-07
1.87152684531e-06
1.09261398052e-05
3.78776539772e-05
1.46009314436e-05
1.50481877192e-05
8.12532313012e-06
1.87530729066e-06
1.7219800088e-06
1.82361442063e-06
1.81262694267e-06
3.10365618823e-06
1.92840530724e-06
6.92407332756e-06
4.77025167577e-06
5.01154932092e-06
6.63807353574e-06
1.24511810126e-06
3.04943019307e-05
1.48363052213e-05
4.35036399485e-07
3.79564127413e-07
1.35826019129e-06
1.50175469173e-07
6.88930020547e-07
1.15625229189e-05
4.68821882319e-07
6.82292124698e-07
1.11874761189e-05
3.23204948565e-07
2.22172277158e-07
1.05610494645e-06
7.10574116882e-07
1.52120435419e-07
3.37281133483e-07
5.5841932059e-07
1.34583871348e-05
2.27181793832e-05
2.16648585562e-06
4.44020603049e-07
2.31584019566e-06
1.08544022466e-05
3.47811388402e-06
3.49752358427e-07
8.90270546662e-07
8.32782048654e-07
1.06397398531e-06
9.55871650245e-07
2.5350017455e-06
2.26892258694e-06
1.71379068332e-06
3.07395481975e-06
1.43791340844e-05
1.6122134107e-05
8.44815033223e-06
7.38909892971e-06
8.80101881794e-06
9.92249500874e-06
1.08843705175e-05
1.15060678302e-05
4.82123394778e-06
6.28766361511e-06
6.42792946233e-07
1.76521365484e-06
8.37307060364e-07
1.7236591095e-06
4.14983957329e-07
5.93682953083e-06
3.84898383847e-06
7.05441356147e-06
9.73548721673e-07
5.40395496365e-07
1.72227157811e-05
8.27400316349e-06
1.13550567156e-05
9.49528275829e-06
2.77708490903e-07
3.71105591101e-07
5.17580835287e-06
7.90486810309e-06
1.38919940035e-05
1.18610505163e-05
3.83913678991e-06
6.05896745018e-06
6.88697946722e-06
6.8570134744e-06
2.95839000191e-06
2.03368473566e-06
1.8522309645e-06
2.39394018531e-06
1.83191906746e-06
1.34815832976e-06
1.06112162287e-06
1.36040083695e-06
1.20750134287e-06
1.16446696539e-06
8.16474973921e-06
9.87485968247e-06
6.96225525379e-07
6.43603071035e-07
2.10125552004e-07
4.05114287609e-07
2.42918409536e-06
4.78975312943e-07
2.74245472799e-06
1.36297409175e-06
1.00913395981e-05
1.70879642564e-06
1.09836922993e-05
1.08149268732e-06
1.04739591201e-06
1.08446734027e-05
1.03449258332e-05
1.05030938131e-06
5.99926958206e-06
7.15498168252e-07
3.70981544462e-07
2.36249229985e-06
2.80918058443e-06
3.40585535101e-07
1.14019259175e-07
2.09230084939e-06
2.5694151495e-06
1.16176592434e-07
5.98446851743e-07
5.61773768335e-07
1.7489032944e-06
7.78197818175e-07
7.20940551351e-07
2.95579336135e-07
1.69800646487e-06
9.39374798143e-07
4.06008531258e-06
3.47138388135e-06
2.75271021744e-06
3.18492935292e-06
7.16187375785e-06
1.03760325592e-05
9.54387006807e-07
7.36624178806e-06
3.07117847286e-05
2.40357277038e-05
3.20845960742e-06
7.93326393629e-06
3.8880556966e-06
2.67032334221e-06
4.24098103115e-06
2.55425513496e-06
6.904630272e-05
5.55374628459e-05
8.13173075323e-06
1.17946202676e-05
1.35626709188e-06
3.13339679178e-06
3.01442930554e-06
1.91377706627e-06
1.2128015458e-06
2.57981881638e-06
1.79234562293e-06
3.79478727937e-07
8.31912747676e-07
4.26611202466e-07

