# vtk DataFile Version 3.0
File Name: Molecule/sphere_excent/sphere_excent_0-s25.vtk
ASCII
DATASET UNSTRUCTURED_GRID
FIELD FieldData 1
TIME 1 1 double
0.0
POINTS 273 double
-0.025165125728 0.86622899771 0.49836999178
-0.54457336664 0.73599976301 0.4015019238
-0.29544660449 0.60520064831 0.73862659931
-0.82877868414 0.55523538589 0.069664418697
-0.83599811792 0.3345682919 0.43443486094
0.32268932462 -0.59590834379 0.7353220582
0.0076393960044 -0.85899204016 0.51188886166
0.40803739429 -0.83682668209 0.36494630575
0.18311044574 -0.59745711088 -0.77988666296
-0.008805484511 -0.86202394962 -0.50656110048
-0.20010459423 -0.5473703742 -0.81243759394
0.78357750177 -0.20464578271 0.58626276255
0.76423710585 0.24531182647 0.59639745951
0.58550703526 0.030065758154 0.80927932262
-0.34400647879 -0.89146107435 -0.29452472925
0.010724348016 -0.99983155727 0.012635417283
-0.50924128294 -0.85899740458 0.03952357173
-0.393099159 -0.8426887393 0.36790329218
-0.33695837855 -0.65079629421 0.68030083179
-0.97379565239 0.15947695076 0.16024678946
0.39410218596 -0.85327380896 -0.34021556377
0.54221731424 -0.83981209993 0.015104816295
-0.024059835821 0.99825823307 0.0048343073577
-0.28106859326 0.94106775522 0.18698640168
0.10131538659 0.98063272238 0.15127635002
-0.26469549537 0.94536137581 -0.18992088735
-0.55079334974 0.83441656828 0.022722803056
-0.61364370584 0.7348549962 -0.28690803051
-0.028542874381 0.88152378798 -0.46899583936
0.10529983789 0.96286380291 -0.24828177691
0.50495582819 0.85731077194 0.098090432584
0.28206825256 0.92884141207 0.23586507142
0.42544022202 0.79254353046 0.43518915772
0.49790716171 -0.039913892746 -0.86621683836
0.3795209229 -0.29204180837 -0.8777140975
0.25629281998 -0.046843204647 -0.96539789438
0.1046307385 -0.30876022577 -0.94517606497
-0.0039048190229 0.0072732516564 -0.9999704957
0.46438327432 0.47813472152 -0.74528080225
0.59782677889 0.46980759501 -0.64937567711
0.54542958736 0.35634106398 -0.75856977701
0.68112611771 -0.20170482993 -0.70383441448
0.75910419226 -0.08186147362 -0.64566510916
0.76130050421 -0.26388901472 -0.59214270115
-0.22102105618 0.32177194953 0.92048162222
-0.41236576438 0.22520546615 0.88245582581
-0.19620473683 0.10844200104 0.97411864996
-0.61289149523 -0.077987596393 0.78579926491
-0.49290379882 -0.33756434917 0.80176210403
-0.37604552507 -0.023274764419 0.92586499453
-0.21501764655 -0.26065263152 0.94099211693
-0.68987232447 0.20325647295 -0.69445431232
-0.57684588432 0.013656497933 -0.81532615423
-0.80776911974 0.035299617797 -0.5875441432
-0.68831956387 -0.16275562346 -0.70662945509
-0.73994606733 0.44166606665 -0.50648981333
-0.85630023479 0.25268957019 -0.44938227534
-0.63145321608 -0.57413291931 0.52112048864
-0.79218900204 -0.25243869424 0.55553746223
-0.17829380929 -0.23509126902 -0.95539623499
-0.23533646762 0.017619684339 -0.97174239159
-0.45282822847 -0.32283002138 -0.83086717129
-0.12349254638 0.26298758388 -0.95549231768
0.15100187063 0.22596740723 -0.96223783493
-0.64852845669 -0.40959587693 -0.64139729738
0.92887479067 0.18165077269 0.32245510817
0.85144156218 0.39823168516 0.34074291587
0.68826580048 0.53465640545 0.48878362775
0.45299196243 0.52853387594 0.71660071611
-0.28833773732 0.83595913649 -0.46573835611
0.97811049223 0.1153948307 -0.17151504755
0.98296761513 0.17141167819 0.060664735734
0.99551421404 -0.083951607347 0.030995089561
-0.0032604786102 0.44375658035 0.89602726698
-0.011240693741 0.19714607298 0.98024970293
0.20747672021 0.23827715218 0.94856452942
0.13702048361 -0.0062916171737 0.99045693874
-0.82392567396 -0.55525147915 0.1134281233
-0.68051874638 -0.6932696104 0.23725581169
-0.81877982616 -0.48026129603 0.3145917058
0.83198362589 -0.34951671958 -0.43033385277
0.83804666996 -0.49146854877 -0.23688265681
0.71612936258 -0.57449829578 -0.39551708102
0.67296797037 -0.70967930555 -0.20809048414
0.89669495821 -0.4401307106 -0.044153548777
0.94596916437 -0.2544465065 -0.19870112836
-0.7665618062 -0.64156281948 0.019571328536
0.63261592388 -0.55407714844 0.53669178486
0.51933068037 -0.29627373815 0.80149513483
0.77627551556 -0.62999969721 -0.021824451163
0.70869398117 -0.67360657454 0.20744115114
0.87736618519 -0.46082180738 0.13260388374
-0.9630677104 -0.26654583216 0.038357038051
-0.90565514565 -0.41031116247 0.10044404864
-0.92561107874 -0.27067509294 0.264038831
-0.83653044701 -0.54076963663 -0.077756457031
-0.019531438127 -0.62820708752 0.77777397633
0.24584122002 -0.26906442642 0.93120092154
0.35188364983 -0.047927163541 0.93479716778
-0.21613927186 -0.47159656882 0.85488885641
0.0037326968741 -0.18680438399 0.98236298561
0.033759724349 -0.4147733748 0.90929597616
-0.83200454712 0.49005845189 -0.25967866182
-0.93008434772 -0.03115561977 0.36518004537
-0.77617877722 0.077560052276 0.62560081482
0.37335717678 0.88716477156 -0.27084591985
0.31245097518 0.94590777159 -0.082452178001
0.53161370754 0.83684939146 -0.1301831454
0.23874676228 0.86868458986 -0.43355047703
0.43306747079 0.76856589317 -0.47070834041
0.63906091452 0.64056771994 -0.42537719011
0.54845541716 0.77681481838 -0.3092879951
0.22344358265 0.74067300558 -0.63282841444
0.4174696207 0.6379199028 -0.64662694931
-0.98376691341 -0.10638453811 0.14373144507
-0.96027451754 -0.25269344449 -0.1172112748
-0.92118269205 -0.38768750429 -0.019161993638
-0.91717869043 -0.37169128656 -0.13686355948
-0.92994296551 -0.25737270713 -0.26257026196
-0.92354667187 0.35147130489 -0.15261983871
-0.99945801497 -0.026746278629 0.0052344538271
-0.98755794764 -0.15137952566 -0.04165899381
-0.99086821079 -0.055136039853 -0.12277349085
-0.96925115585 -0.16094277799 -0.18576857448
-0.98002839088 0.023598432541 -0.19708442688
-0.99280649424 0.079448774457 -0.087969847023
-0.35180291533 -0.74409723282 -0.56790745258
-0.52627509832 -0.74019318819 -0.41868513823
-0.46684581041 -0.54625874758 -0.69510871172
-0.58204239607 -0.60051727295 -0.54814827442
-0.73006880283 -0.48395210505 -0.48233950138
-0.76306951046 -0.54778593779 -0.34304207563
-0.82168269157 -0.41773250699 -0.38749349117
-0.66611337662 -0.61584568024 -0.42073565722
-0.67294031382 -0.67716872692 -0.29755488038
-0.77635264397 -0.59503895044 -0.20775605738
-0.69843000174 -0.69339764118 -0.17718809843
-0.84583038092 -0.47350728512 -0.24464724958
-0.55714005232 -0.78342032433 -0.27494046092
-0.73588049412 -0.67126435041 -0.088047496974
-0.58934295177 0.49867850542 0.6354624033
0.69038319588 0.68755608797 -0.22471761703
0.68196976185 0.73104196787 -0.021182779223
0.83494001627 0.53095626831 -0.14446510375
0.76160436869 0.53396368027 -0.36649000645
-0.56483262777 0.11632506549 0.8168426156
-0.64315623045 0.28475448489 0.71071690321
-0.44109708071 0.41054135561 0.79810029268
-0.79341650009 -0.32028770447 -0.51739084721
0.67848020792 0.70482486486 0.20507742465
-0.97390139103 0.22159846127 -0.041057217866
-0.96765631437 0.16504664719 -0.190837726
-0.92139494419 0.27161124349 -0.27771490812
-0.93009394407 0.14650997519 -0.33663508296
0.41370472312 0.37144804001 -0.83105528355
0.37253499031 0.25387942791 -0.89246141911
0.49960026145 0.25606587529 -0.82751351595
0.46053907275 0.14369043708 -0.87593686581
0.55755484104 0.14987000823 -0.81642657518
0.62028694153 0.23808515072 -0.74736732244
0.64125704765 0.083400115371 -0.76267969608
0.7008357048 0.16589485109 -0.69376844168
0.6445106864 0.34804961085 -0.68079590797
0.72043514252 0.2674511075 -0.63987773657
0.70449829102 0.39894163609 -0.5869255662
0.77553260326 0.15864898264 -0.61100530624
0.80575627089 0.24295756221 -0.53990095854
0.86381310225 0.11999341846 -0.48885029554
0.80575591326 0.039851419628 -0.59068483114
0.72788333893 0.053720340133 -0.68343502283
0.86139839888 -0.096226237714 -0.49855133891
0.65115272999 -0.061286564916 -0.75641912222
0.34350273013 0.10856447369 -0.93281924725
0.56055623293 -0.22897014022 -0.79573076963
0.067079953849 0.4829891026 -0.87204110622
0.3020645082 0.53320789337 -0.79004567862
0.26657944918 0.37932053208 -0.88594269753
0.93094652891 0.32695421576 0.1621375829
0.93422824144 0.35220867395 -0.054581679404
0.87492352724 0.47521880269 0.092570662498
0.78619229794 0.61330682039 0.075905568898
0.79017281532 0.55935937166 0.25024455786
0.8453785181 0.39136785269 -0.36291438341
0.92392331362 0.28557512164 -0.25337761641
-0.038948096335 0.0053848233074 0.99919873476
-0.16780136526 -0.077076904476 0.98269498348
0.22681808472 0.7091357708 0.66737782955
0.20526590943 0.5192502141 0.82967585325
0.0094462223351 0.6646130085 0.74710869789
0.93603301048 0.0046735741198 -0.35177323222
0.87245219946 0.25220561028 -0.41850951314
0.92268502712 0.15207235515 -0.35381704569
-0.82428514957 -0.14800624549 -0.54638266563
-0.35361993313 -0.1295799911 -0.92637634277
-0.4190800488 0.012979964726 -0.9078323245
-0.50062662363 -0.12627802789 -0.85620683432
-0.3532948494 0.14470417798 -0.9236010313
-0.48820987344 0.14862625301 -0.85993254185
-0.56410843134 0.26762038469 -0.78103226423
-0.92156749964 -0.092317514122 -0.37705773115
-0.88581454754 -0.19240660965 -0.42229917645
-0.94379281998 -0.14512141049 -0.29698055983
-0.88152819872 -0.056347511709 -0.46871000528
-0.89355051517 0.07284385711 -0.44257378578
-0.92866057158 0.0078460900113 -0.37071847916
-0.95291697979 -0.039463855326 -0.30057805777
-0.97206091881 -0.074826858938 -0.22242559493
-0.95709234476 0.059250008315 -0.28349041939
0.63467884064 -0.35112136602 -0.68834835291
0.51383244991 -0.39236658812 -0.7629185915
0.5593573451 -0.50924730301 -0.65398615599
0.70301759243 -0.43405398726 -0.56323623657
0.40513008833 -0.57349354029 -0.7119923234
0.97513526678 0.0052004493773 0.22112302482
0.94654965401 -0.26822897792 0.17823676765
0.89999216795 -0.0097599625587 0.43550992012
0.92584753036 -0.17408759892 0.33411544561
-0.87115186453 -0.30942499638 -0.38127419353
-0.88641530275 -0.36624920368 -0.28295066953
0.85513228178 -0.40718272328 0.31705772877
0.52250087261 0.28124555945 0.80429875851
0.31267628074 -0.74756914377 -0.58580887318
0.9582477212 -0.28498587012 0.018593527377
0.48721277714 -0.68340444565 -0.54355579615
0.77578532696 0.4167355895 -0.47363761067
0.70458543301 0.50030392408 -0.50310480595
0.35290566087 0.3667639792 0.86072176695
0.409727633 0.1621991396 0.89768338203
0.57880485058 -0.71062982082 -0.39998546243
0.62040805817 -0.58059239388 -0.52728223801
-0.66736900806 -0.74411141872 0.029417579994
-0.63920915127 -0.76502048969 -0.078968048096
-0.62839728594 -0.75345766544 -0.19341032207
-0.55808180571 -0.81867569685 -0.13309265673
0.76682907343 0.3308635354 -0.5500099659
0.81857812405 0.32880190015 -0.47092589736
0.92388093472 -0.15328775346 -0.35039126873
0.97500991821 -0.063985787332 -0.21204045415
-0.22573649883 0.76924479008 -0.59775298834
-0.13265477121 0.7000349164 -0.70140367746
-0.31514805555 0.65457445383 -0.68719726801
-0.40682592988 0.71618247032 -0.56711566448
-0.50871992111 0.55628377199 -0.65684705973
-0.24498607218 0.51863402128 -0.81716072559
-0.45285913348 0.78920775652 -0.41458708048
-0.55853271484 0.66258764267 -0.49891728163
0.28206318617 0.95651727915 0.073902137578
0.1527094692 0.98799628019 -0.021718900651
0.52365040779 0.56254249811 -0.63977253437
0.61534768343 0.5625243783 -0.55215555429
0.53702360392 0.64145034552 -0.54749387503
0.5748243928 0.74951428175 0.32825779915
0.67681658268 0.64412873983 0.35639935732
0.57292222977 0.67349261045 0.46665009856
-0.032562289387 0.6130643487 -0.78869819641
-0.18405388296 0.40180748701 -0.89577716589
0.13459847867 0.63318407536 -0.76213312149
0.039830651134 0.7295011878 -0.68266910315
0.090786837041 0.8160867095 -0.57076096535
-0.059627201408 0.7928314805 -0.6066146493
-0.60858529806 0.38801726699 -0.69202709198
-0.47712853551 0.43975496292 -0.76075953245
-0.43640750647 0.32519966364 -0.83898609877
-0.28867676854 0.31026044488 -0.90562683344
-0.34309569001 0.41927197576 -0.84046989679
-0.38263636827 0.53134077787 -0.75584322214
0.75801044703 -0.49438589811 0.424759835
0.68720126152 -0.62191200256 0.37499776483
0.78922116756 -0.54677975178 0.27954539657
-0.88618689775 -0.4530993104 -0.09663618356
-0.8808478117 -0.47323384881 0.0066678700969
-0.2536855042 0.2125351131 -0.94354683161
-0.38602265716 0.23936350644 -0.89071124792

CELLS 542 2168
3 0 1 2
3 1 3 4
3 5 6 7
3 8 9 10
3 11 12 13
3 14 15 16
3 14 9 15
3 17 15 6
3 17 6 18
3 4 3 19
3 9 20 15
3 7 15 21
3 15 7 6
3 22 23 24
3 0 23 1
3 22 25 23
3 25 26 23
3 25 27 26
3 23 26 1
3 28 25 29
3 1 26 3
3 26 27 3
3 30 31 32
3 32 31 0
3 33 34 35
3 34 36 35
3 34 8 36
3 35 36 37
3 10 36 8
3 38 39 40
3 41 42 43
3 44 45 46
3 47 48 49
3 48 50 49
3 51 52 53
3 54 53 52
3 55 51 56
3 18 48 57
3 58 48 47
3 37 59 60
3 59 10 61
3 37 62 63
3 37 60 62
3 10 59 36
3 36 59 37
3 54 61 64
3 65 66 12
3 66 67 12
3 12 67 68
3 28 69 25
3 70 71 72
3 44 73 2
3 44 74 73
3 74 75 73
3 74 76 75
3 77 78 79
3 78 57 79
3 78 17 57
3 79 57 58
3 58 57 48
3 18 57 17
3 80 81 82
3 81 83 82
3 84 81 85
3 85 81 80
3 77 86 78
3 78 16 17
3 17 16 15
3 7 87 5
3 5 87 88
3 83 21 20
3 20 21 15
3 83 89 21
3 89 90 21
3 90 89 91
3 21 90 7
3 84 89 81
3 81 89 83
3 92 93 94
3 79 93 77
3 77 95 86
3 5 96 6
3 6 96 18
3 76 97 98
3 97 88 98
3 97 5 88
3 98 88 13
3 13 88 11
3 11 88 87
3 18 99 48
3 48 99 50
3 76 100 97
3 100 101 97
3 100 50 101
3 97 101 5
3 5 101 96
3 101 99 96
3 101 50 99
3 96 99 18
3 76 98 75
3 55 102 27
3 27 102 3
3 19 103 4
3 4 103 104
3 105 106 107
3 22 29 25
3 28 29 108
3 29 105 108
3 29 106 105
3 108 105 109
3 110 109 111
3 111 109 105
3 109 112 108
3 109 113 112
3 19 114 103
3 114 94 103
3 114 92 94
3 103 94 58
3 58 94 79
3 79 94 93
3 92 115 116
3 117 115 118
3 53 56 51
3 55 56 102
3 102 119 3
3 19 120 114
3 120 121 114
3 120 122 121
3 114 121 92
3 92 121 115
3 121 123 115
3 121 122 123
3 115 123 118
3 124 122 125
3 14 126 9
3 9 126 10
3 14 127 126
3 128 126 129
3 126 128 10
3 10 128 61
3 130 131 132
3 133 134 131
3 134 135 131
3 134 136 135
3 131 135 137
3 133 127 134
3 127 138 134
3 127 14 138
3 137 135 95
3 86 95 139
3 4 140 1
3 1 140 2
3 47 104 58
3 58 104 103
3 111 107 141
3 107 142 141
3 107 30 142
3 141 142 143
3 111 141 110
3 110 141 144
3 47 145 104
3 145 146 104
3 145 45 146
3 104 146 4
3 4 146 140
3 146 147 140
3 146 45 147
3 140 147 2
3 2 147 44
3 147 45 44
3 45 145 49
3 145 47 49
3 128 64 61
3 54 64 148
3 149 142 30
3 119 150 3
3 3 150 19
3 19 150 125
3 150 151 125
3 150 119 151
3 125 151 124
3 30 107 106
3 105 107 111
3 56 152 102
3 152 119 102
3 56 153 152
3 153 151 152
3 152 151 119
3 19 125 120
3 120 125 122
3 133 129 127
3 127 129 126
3 128 129 64
3 129 130 64
3 129 133 130
3 64 130 148
3 131 130 133
3 38 40 154
3 155 156 157
3 156 158 157
3 158 156 159
3 157 158 33
3 33 158 160
3 158 159 160
3 40 159 156
3 160 159 161
3 40 162 159
3 162 163 159
3 162 164 163
3 159 163 161
3 164 162 39
3 39 162 40
3 161 163 165
3 163 166 165
3 165 166 167
3 167 168 165
3 168 169 165
3 168 42 169
3 165 169 161
3 42 168 170
3 170 168 167
3 161 169 160
3 169 171 160
3 169 42 171
3 160 171 33
3 157 33 172
3 33 171 173
3 171 42 41
3 174 63 62
3 37 63 35
3 38 175 113
3 113 175 112
3 174 175 176
3 175 154 176
3 175 38 154
3 176 154 155
3 174 176 63
3 172 63 155
3 176 155 63
3 63 172 35
3 71 177 65
3 177 66 65
3 71 178 177
3 178 179 177
3 178 143 179
3 177 179 66
3 143 180 179
3 180 181 179
3 180 149 181
3 179 181 66
3 66 181 67
3 182 143 183
3 178 71 70
3 74 184 76
3 76 184 100
3 49 46 45
3 46 74 44
3 100 185 50
3 50 185 49
3 49 185 46
3 185 184 46
3 185 100 184
3 46 184 74
3 149 180 142
3 142 180 143
3 155 154 156
3 156 154 40
3 35 172 33
3 157 172 155
3 68 186 187
3 186 188 187
3 186 0 188
3 187 188 73
3 0 186 32
3 32 186 68
3 70 183 178
3 178 183 143
3 170 167 189
3 167 190 191
3 190 183 191
3 190 182 183
3 191 183 70
3 148 192 54
3 54 192 53
3 61 193 59
3 59 193 60
3 60 193 194
3 193 195 194
3 193 61 195
3 194 195 52
3 60 194 196
3 194 197 196
3 194 52 197
3 197 52 198
3 52 195 54
3 195 61 54
3 73 188 2
3 2 188 0
3 75 187 73
3 199 200 201
3 148 200 192
3 200 202 192
3 200 199 202
3 192 202 53
3 53 202 203
3 202 204 203
3 202 199 204
3 203 204 153
3 124 205 206
3 205 201 206
3 205 199 201
3 206 201 123
3 123 201 118
3 118 201 200
3 124 206 122
3 206 123 122
3 124 207 205
3 207 204 205
3 207 153 204
3 205 204 199
3 53 203 56
3 56 203 153
3 153 207 151
3 207 124 151
3 166 190 167
3 41 173 171
3 33 173 34
3 41 208 173
3 208 209 173
3 208 210 209
3 173 209 34
3 41 43 208
3 43 211 208
3 43 80 211
3 208 211 210
3 8 34 212
3 80 43 170
3 170 43 42
3 72 213 214
3 213 215 216
3 213 65 215
3 216 215 11
3 11 215 12
3 12 215 65
3 65 213 71
3 71 213 72
3 148 132 217
3 132 218 217
3 132 137 218
3 217 218 118
3 82 211 80
3 219 216 11
3 118 218 117
3 117 218 137
3 137 132 131
3 130 132 148
3 148 217 200
3 200 217 118
3 68 220 12
3 12 220 13
3 8 221 9
3 221 20 9
3 182 144 143
3 143 144 141
3 72 222 85
3 85 222 84
3 8 212 221
3 212 223 221
3 212 210 223
3 221 223 20
3 182 224 144
3 224 225 144
3 224 164 225
3 144 225 110
3 39 225 164
3 68 226 220
3 226 227 220
3 226 75 227
3 220 227 13
3 20 228 83
3 83 228 82
3 210 229 223
3 229 228 223
3 229 82 228
3 223 228 20
3 86 230 78
3 230 16 78
3 86 139 230
3 139 231 230
3 139 136 231
3 230 231 16
3 84 91 89
3 72 214 222
3 214 91 222
3 214 219 91
3 222 91 84
3 136 139 135
3 135 139 95
3 13 227 98
3 98 227 75
3 138 232 134
3 134 232 136
3 136 232 231
3 232 233 231
3 232 138 233
3 231 233 16
3 16 233 14
3 233 138 14
3 164 234 163
3 163 234 166
3 182 235 224
3 235 234 224
3 235 166 234
3 224 234 164
3 75 226 187
3 187 226 68
3 166 235 190
3 190 235 182
3 210 212 209
3 209 212 34
3 82 229 211
3 211 229 210
3 219 214 216
3 216 214 213
3 170 236 80
3 80 236 85
3 170 189 236
3 189 237 236
3 189 70 237
3 236 237 85
3 85 237 72
3 237 70 72
3 28 238 69
3 239 240 238
3 240 241 238
3 240 242 241
3 238 241 69
3 243 240 239
3 69 241 244
3 241 245 244
3 241 242 245
3 244 245 27
3 27 245 55
3 245 242 55
3 69 244 25
3 25 244 27
3 70 189 191
3 191 189 167
3 106 246 30
3 246 31 30
3 106 247 246
3 247 24 246
3 247 22 24
3 246 24 31
3 31 24 0
3 0 24 23
3 39 248 249
3 248 250 249
3 248 113 250
3 249 250 110
3 113 248 38
3 38 248 39
3 149 251 252
3 251 253 252
3 251 32 253
3 252 253 67
3 67 253 68
3 68 253 32
3 239 254 243
3 243 254 255
3 174 254 256
3 254 257 256
3 254 239 257
3 256 257 112
3 32 251 30
3 251 149 30
3 22 247 29
3 29 247 106
3 110 250 109
3 109 250 113
3 112 258 108
3 108 258 28
3 28 258 259
3 258 257 259
3 258 112 257
3 259 257 239
3 174 256 175
3 256 112 175
3 149 252 181
3 181 252 67
3 39 249 225
3 225 249 110
3 28 259 238
3 238 259 239
3 51 260 198
3 260 261 198
3 260 242 261
3 198 261 262
3 62 255 174
3 174 255 254
3 62 263 255
3 263 264 255
3 263 262 264
3 255 264 243
3 243 264 265
3 264 261 265
3 264 262 261
3 265 261 242
3 242 260 55
3 55 260 51
3 87 266 11
3 11 266 219
3 87 267 266
3 267 268 266
3 267 90 268
3 266 268 219
3 90 267 7
3 7 267 87
3 95 269 137
3 137 269 117
3 95 270 269
3 270 116 269
3 270 93 116
3 269 116 117
3 93 270 77
3 77 270 95
3 117 116 115
3 116 93 92
3 196 271 60
3 60 271 62
3 196 272 271
3 272 263 271
3 272 262 263
3 271 263 62
3 262 272 197
3 197 272 196
3 51 198 52
3 197 198 262
3 219 268 91
3 91 268 90
3 243 265 240
3 240 265 242

CELL_TYPES 542
5
5
5
5
5
5
5
5
5
5
5
5
5
5
5
5
5
5
5
5
5
5
5
5
5
5
5
5
5
5
5
5
5
5
5
5
5
5
5
5
5
5
5
5
5
5
5
5
5
5
5
5
5
5
5
5
5
5
5
5
5
5
5
5
5
5
5
5
5
5
5
5
5
5
5
5
5
5
5
5
5
5
5
5
5
5
5
5
5
5
5
5
5
5
5
5
5
5
5
5
5
5
5
5
5
5
5
5
5
5
5
5
5
5
5
5
5
5
5
5
5
5
5
5
5
5
5
5
5
5
5
5
5
5
5
5
5
5
5
5
5
5
5
5
5
5
5
5
5
5
5
5
5
5
5
5
5
5
5
5
5
5
5
5
5
5
5
5
5
5
5
5
5
5
5
5
5
5
5
5
5
5
5
5
5
5
5
5
5
5
5
5
5
5
5
5
5
5
5
5
5
5
5
5
5
5
5
5
5
5
5
5
5
5
5
5
5
5
5
5
5
5
5
5
5
5
5
5
5
5
5
5
5
5
5
5
5
5
5
5
5
5
5
5
5
5
5
5
5
5
5
5
5
5
5
5
5
5
5
5
5
5
5
5
5
5
5
5
5
5
5
5
5
5
5
5
5
5
5
5
5
5
5
5
5
5
5
5
5
5
5
5
5
5
5
5
5
5
5
5
5
5
5
5
5
5
5
5
5
5
5
5
5
5
5
5
5
5
5
5
5
5
5
5
5
5
5
5
5
5
5
5
5
5
5
5
5
5
5
5
5
5
5
5
5
5
5
5
5
5
5
5
5
5
5
5
5
5
5
5
5
5
5
5
5
5
5
5
5
5
5
5
5
5
5
5
5
5
5
5
5
5
5
5
5
5
5
5
5
5
5
5
5
5
5
5
5
5
5
5
5
5
5
5
5
5
5
5
5
5
5
5
5
5
5
5
5
5
5
5
5
5
5
5
5
5
5
5
5
5
5
5
5
5
5
5
5
5
5
5
5
5
5
5
5
5
5
5
5
5
5
5
5
5
5
5
5
5
5
5
5
5
5
5
5
5
5
5
5
5
5
5
5
5
5
5
5
5
5
5
5
5
5
5
5
5
5
5
5
5
5
5
5
5
5
5
5
5
5
5
5
5
5
5
5
5
5
5
5
5
5
5
5
5
5
5
5
5
5
5
5
5
5
5
5
5
5
5
5
5
5
5
5
5
5
5
5
5
5
5
5
5

CELL_DATA 542
SCALARS cell_data_0 double
LOOKUP_TABLE default
2.69904125797e-05
1.44753382857e-05
2.41869803535e-05
1.12609475035e-05
2.62809548307e-05
7.7074654514e-06
4.01679126964e-06
1.57048281107e-05
1.93666075396e-05
9.53139995487e-06
4.18195494882e-06
1.24479535881e-05
1.47147290654e-05
3.5138492633e-06
1.2777772565e-05
4.87771268307e-06
4.04659170071e-05
5.31311696905e-05
4.06608870691e-05
1.75749025501e-05
5.50024794415e-05
5.40340970668e-05
5.23075129903e-05
1.6458648105e-05
4.13071913458e-06
5.4075311528e-07
9.98300365094e-07
3.04002980863e-06
6.48460615653e-06
1.29974735113e-05
3.81471201459e-06
1.89439046412e-05
3.06846032438e-05
3.91499194996e-05
4.87880996135e-05
5.12801608126e-05
3.20915294354e-07
1.15518791742e-05
2.28852228401e-05
0.000160095798497
0.000302997348555
4.12818239906e-06
6.15040290869e-05
0.000113713620943
9.33274939994e-05
8.40141683273e-05
6.37555256388e-06
7.72895361336e-06
1.62283745648e-05
1.67252673076e-05
1.08300983601e-05
3.35611055355e-05
3.14888185287e-05
3.28886104395e-05
2.19534759343e-05
3.3592171715e-06
4.89909137389e-05
2.32265829203e-05
4.26596201402e-05
9.80631466907e-06
8.673629478e-06
0.00010383371024
0.000158700816932
2.29253099512e-05
3.04077115253e-05
1.03931847171e-05
6.14065711435e-06
1.15204410163e-05
1.93725524633e-05
2.43439170027e-05
4.79320308286e-05
8.5663937728e-06
3.09378186669e-05
3.27089011732e-06
2.48079955325e-06
6.62085165428e-06
2.15476992031e-05
6.67607169223e-05
1.684665169e-06
2.35065570958e-06
8.05652153325e-06
2.45588801934e-05
2.22837866435e-05
1.56015024006e-05
1.79968929775e-05
2.57656719322e-05
2.64039414978e-05
2.56846817863e-05
2.15945908705e-05
1.72268528993e-05
1.62783460915e-05
1.9064072656e-05
1.61023875741e-05
1.75371280912e-05
2.35007949172e-05
1.96472569344e-05
1.39297093922e-05
1.62123436302e-05
1.43221181619e-05
2.21332659333e-05
1.14645476184e-06
2.71718665786e-06
7.69856538024e-06
1.09620818871e-05
5.87748637249e-05
9.31348574843e-06
1.23694580336e-05
3.19251087576e-07
4.18956910792e-05
3.98857853683e-07
1.23522985234e-05
3.16769886846e-07
6.20925892109e-07
3.17726535513e-05
3.84799152908e-06
3.22932106245e-06
1.97317090893e-06
6.90847557148e-06
1.33471840574e-06
2.79491627189e-06
3.178801556e-07
5.01143564765e-08
3.33941648138e-05
6.06806983943e-07
1.09307849605e-06
2.05236540081e-06
9.05113742768e-07
4.15443361964e-07
9.31924747515e-07
3.94126593109e-07
3.27725997989e-07
2.82115817706e-07
2.18490063623e-09
2.45718330645e-07
7.1611280284e-07
8.82150746812e-06
4.97278212263e-07
6.96060849366e-08
3.87493326608e-06
9.38824895589e-05
2.47545921321e-07
3.40565642987e-06
2.50701858017e-06
2.03664050373e-06
4.17892587063e-07
4.32973232336e-06
3.18057573403e-06
2.86005890318e-07
2.21178905413e-07
7.37892764592e-06
1.40317526268e-05
1.66656045121e-05
1.61011283662e-05
1.04633172953e-05
2.03199092321e-05
4.18866726658e-05
6.26155332853e-05
1.98288527067e-05
2.20673282909e-05
1.97584097683e-05
1.3220979413e-05
9.74396039091e-06
1.07468947053e-05
1.15225421536e-05
1.12524230603e-05
9.7424498829e-06
1.32655227939e-05
1.15684211256e-05
1.97065063854e-05
1.50523226997e-05
1.95662416228e-05
1.93015564534e-05
6.59110559896e-05
8.50051807673e-07
3.46218891697e-05
1.72958427678e-06
4.20122471236e-06
1.31971842492e-06
5.91543289456e-07
6.34031692271e-07
4.18277096835e-07
0.000127040725304
1.03445834521e-05
6.56835594488e-07
3.11052239687e-07
5.09172551303e-07
5.53837725682e-07
5.35054335495e-07
1.54569307006e-06
4.44551926186e-07
5.65183468533e-07
9.30028267599e-08
1.04636080548e-07
3.71496368401e-07
2.096777517e-07
3.18210862023e-07
4.98326566422e-07
2.37256888011e-07
9.39989945002e-08
6.28996899048e-08
7.93473813331e-08
1.11340605333e-06
1.20610493083e-06
8.42459436551e-08
1.39454185449e-07
1.40460041638e-07
1.17155143814e-07
8.55469910511e-08
1.55954244916e-07
1.35473794614e-07
9.19675715996e-06
1.03120974002e-05
1.2074330037e-07
8.96922240054e-08
1.5044038819e-07
1.70957475166e-07
1.12968888135e-07
5.14967983636e-07
1.32177857428e-07
5.95299287895e-07
3.83606327421e-07
1.31835388053e-07
7.29881284991e-08
7.79240174157e-07
1.52183405564e-06
1.35799578663e-06
2.33625379753e-06
3.35091363042e-06
4.00630064057e-06
2.07440677068e-06
2.13202279539e-05
3.05511169675e-05
5.75989396705e-07
2.59070654741e-07
3.11987234298e-07
1.38013122726e-07
9.14509192242e-07
1.52042316393e-07
1.65352992221e-07
4.71511697897e-08
2.49925408074e-06
2.89217836824e-06
1.3639134064e-06
1.06830184231e-06
8.20535718004e-07
2.18736527826e-06
1.04995809884e-06
7.03449414728e-07
1.1188324934e-06
2.10334094186e-06
3.7665884088e-06
1.06688340362e-05
1.00972612021e-06
1.48124353745e-05
1.43597917482e-05
2.72299013404e-05
1.80414059939e-05
1.22704442763e-05
2.31046224881e-05
2.1015960119e-05
9.76911717356e-06
1.12201754394e-05
1.28491132131e-05
5.75356634203e-06
7.57741228646e-06
1.25001327659e-07
1.68512439643e-07
2.52909362557e-06
7.53185758062e-08
5.69820847596e-05
6.34162033557e-05
4.04381687193e-05
1.09131627394e-05
6.16400965511e-05
3.37449498195e-05
1.14763690069e-05
1.24704423046e-05
4.68658167644e-07
3.06204799879e-06
1.30882192258e-05
6.936991032e-06
1.73705473853e-05
3.28150508946e-07
2.28836463585e-05
0.000146284826654
0.00010201683695
2.38341262933e-05
8.03082451644e-08
3.58540517279e-05
2.32906814258e-06
2.02862678136e-05
8.84772883056e-08
2.30791548188e-06
2.28273975932e-06
4.5695388108e-06
5.69900159892e-05
2.18032897417e-05
1.65229098027e-05
1.86300841425e-05
1.03318681657e-07
4.20962423921e-07
3.04358577036e-07
1.31387536431e-07
1.02543646362e-05
9.12317935798e-06
2.23598855921e-07
3.92187931468e-08
2.75565039624e-07
1.36789083451e-07
1.44024611175e-07
3.55688241025e-08
1.42585434362e-07
3.32299707292e-08
1.04316537899e-07
1.3021600262e-07
1.21102451647e-07
1.57681236902e-07
1.22117143261e-07
2.21707054555e-07
4.47471191007e-10
1.48402932123e-05
4.3355233583e-07
4.02784862245e-07
3.13871790641e-07
1.7143231866e-07
2.31583444495e-06
2.83630563122e-06
2.40681657862e-06
4.26825224418e-07
2.94027535658e-06
4.14600265237e-07
2.35982047423e-06
5.39747666161e-08
3.7237934259e-06
2.66742745387e-06
4.07953333835e-06
4.4679083306e-06
1.13596041975e-06
6.57268335563e-06
2.86473162493e-06
3.11088498942e-06
4.96079612438e-06
1.23773943597e-05
7.12241925284e-06
2.88515682025e-06
6.46280387557e-06
8.04866155842e-08
4.8131508674e-07
4.75466125968e-07
9.97793755211e-07
5.28298798598e-05
5.28573081994e-06
6.57158105762e-07
7.63994972238e-07
2.71940556051e-07
4.84718364096e-07
3.76577739617e-08
4.96958616473e-07
1.80317516268e-05
1.83298896263e-05
7.84715926563e-06
4.881965066e-06
7.53053244901e-07
5.20362706047e-06
8.36879652831e-06
1.68809058496e-06
6.2908904039e-06
1.96950486124e-05
2.22465698781e-05
1.74757978209e-05
1.90715089435e-07
4.44778949333e-08
2.53045445092e-08
7.55132236253e-06
1.23006680972e-05
1.12165775367e-05
9.02873627175e-06
1.14467341646e-05
1.34249570707e-05
2.82186604608e-05
8.1219025841e-05
3.19364580751e-05
2.25658653072e-05
4.72628206536e-05
9.87492020155e-06
3.33922516324e-05
1.27370307221e-05
1.77825938826e-05
4.75897105464e-06
2.2164496148e-07
6.82357076172e-06
1.97510497863e-06
6.07880197561e-06
1.14758953604e-06
1.02772794516e-06
1.68148849265e-06
8.1805441409e-08
4.1458154065e-07
1.55637305439e-05
1.51830869305e-05
1.87573729901e-06
1.48202178123e-06
9.87209198224e-08
2.18632540125e-07
3.15368047929e-09
5.46501540714e-07
1.36735723925e-06
4.58614586999e-07
1.47306600143e-07
8.84140483798e-08
1.0594308634e-07
9.62713110157e-08
7.01126409926e-08
1.64649036502e-07
2.04535451105e-05
1.06595213073e-05
7.93439163449e-08
8.08057700828e-08
5.79373047365e-06
2.3861995132e-06
4.69235922726e-05
1.42288869105e-05
6.7444024061e-07
2.55636388804e-06
3.64760616381e-06
3.53524426304e-06
2.6057683473e-07
3.14920632022e-07
6.1977208122e-07
6.94966201481e-07
8.80195585572e-06
8.53791926776e-06
9.51296534588e-06
1.74725702567e-09
2.70874734284e-07
2.66243330992e-06
9.94638789187e-08
3.69347523954e-08
4.0650363306e-08
4.43664200222e-07
2.40387619073e-06
5.72343459673e-07
1.31185774783e-06
3.43459676523e-06
4.53962988004e-07
1.67186928014e-06
4.54565045537e-06
3.94130111096e-06
5.57500400981e-05
2.49003589385e-05
1.53226725631e-05
1.05523919152e-06
2.58061350958e-06
3.92227872655e-06
1.21301876879e-05
7.23093624645e-06
9.45756179619e-06
4.37686479035e-08
1.16858010065e-05
4.34554953123e-06
1.42692878414e-05
1.14670722679e-05
1.29867880299e-06
1.25808023153e-06
1.72633946653e-06
1.61454735095e-06
6.98775772604e-06
6.44287494926e-06
2.34748317344e-06
1.74846060056e-06
2.70873008482e-06
1.09676044537e-06
1.60364105128e-06
3.27974712173e-07
1.20050353734e-05
8.38635825179e-06
4.2806945282e-06
2.95035994138e-05
7.94646284365e-06
1.9157038381e-05
4.79399114722e-07
6.6571061382e-06
4.50570537068e-06
2.67585791691e-07
3.33482688222e-07
4.89585078642e-08
4.91903965513e-07
4.48560913678e-07
1.10309892307e-06
1.88288021371e-06
1.09439654067e-05
5.56729890206e-06
5.32638260687e-06
1.83357346775e-08
4.20852789766e-07
1.15333133581e-07
2.15750151453e-06
6.66042724568e-07
2.38480120087e-06
4.4296286869e-06
4.79159113957e-07
1.39342926624e-07
4.67115761592e-07
1.83530837088e-07
2.06587125854e-07
1.73386132851e-07
4.76571852631e-07
1.59780867326e-06
3.48135556416e-06
2.82183369697e-07
7.3050773957e-06
4.77269537537e-06
1.82302045066e-06
9.809278588e-07
3.21195544217e-07
5.61938781935e-08
3.90050994659e-06
4.72168481865e-06
6.01101706045e-07
6.42891438883e-07
6.76607096178e-08
8.70271751702e-08
3.00682432156e-07
1.70860726158e-07
7.54906816884e-07
6.14632191905e-07
2.06088789333e-07
4.29885865151e-07
1.66834669344e-05
2.41431508151e-05
1.05187784529e-07
1.02354520105e-07
3.80054579793e-07
3.12993962691e-07
4.09993137584e-07
1.18867775828e-07
5.09324543875e-06
6.93659926587e-07
1.82806043252e-06
8.52676535705e-07
2.49572209772e-07
2.03475487775e-06

