# vtk DataFile Version 3.0
File Name: Molecule/sphere_excent/sphere_excent_0-s40.vtk
ASCII
DATASET UNSTRUCTURED_GRID
FIELD FieldData 1
TIME 1 1 double
0.0
POINTS 524 double
0.76213747263 -0.20607440174 0.61368966103
0.77251297235 0.19608266652 0.60379546881
0.61134964228 0.008609155193 0.791277349
0.6934902668 -0.23329107463 -0.68163824081
0.75806885958 -0.1160088107 -0.64177811146
0.76591897011 -0.2675909996 -0.58452683687
-0.24428121746 0.3548617959 0.90239411592
-0.42554292083 0.21955442429 0.8778643012
-0.2348202616 0.12921380997 0.96332138777
-0.76249980927 -0.30626890063 0.56918281317
-0.52179694176 -0.38676440716 0.76023805141
-0.63643604517 -0.1206959635 0.76171302795
0.92547363043 0.17784915864 0.33432498574
0.84037160873 0.37159237266 0.39453583956
0.68250238895 0.46932530403 0.56027370691
0.57869452238 0.3011456728 0.75787395239
0.98447567225 0.11826675385 -0.12942551076
0.98625904322 0.13954941928 0.088390015066
0.99682152271 -0.077761031687 0.017371650785
-0.019074127078 0.45570626855 0.88988494873
-0.28226613998 0.60198676586 0.7451402545
-0.067413657904 0.23171453178 0.97033709288
-0.59499174356 -0.54289221764 0.59217900038
-0.81545227766 -0.5504322052 0.17872714996
-0.76835650206 -0.63827723265 0.046324070543
-0.61964094639 -0.75568044186 0.21176281571
0.62158340216 -0.7647279501 -0.16979818046
0.76239103079 -0.64675593376 -0.018146596849
0.52793622017 -0.84783643484 0.047852270305
0.67825603485 -0.70956265926 0.19060471654
0.86627101898 -0.48201671243 0.13044013083
0.44478142262 -0.81983923912 0.35996100307
0.89500337839 -0.44347497821 -0.047408156097
0.83615368605 -0.51897388697 -0.1772005856
-0.96145761013 -0.25181528926 0.10987462103
-0.9021846652 -0.39829072356 0.16537640989
-0.91889983416 -0.24112574756 0.31202420592
-0.83947145939 -0.43005242944 0.33191746473
-0.81403946877 -0.57395899296 -0.089265480638
-0.86142641306 -0.50635319948 0.038680844009
0.30879926682 -0.27404588461 0.91074192524
0.53115665913 -0.29413023591 0.79453855753
0.40791234374 -0.07917483896 0.90957969427
0.60065424442 -0.50144809484 0.62178999186
-0.29352176189 -0.67396730185 0.67776679993
-0.24018545449 -0.50552868843 0.82860380411
-0.44258660078 -0.60035657883 0.66548413038
-0.017359167337 -0.45974731445 0.88773185015
-0.010557110421 -0.61866515875 0.78552633524
-0.163345173 -0.29907947779 0.94006466866
0.011065073311 0.90081292391 -0.4340416491
0.09626327455 0.96498304605 -0.2438826263
0.2094772011 0.87302088737 -0.4403347075
0.35802176595 0.88359814882 -0.30145058036
0.28425848484 0.94996386766 -0.12924093008
0.38096544147 0.79041671753 -0.47957661748
0.501529634 0.7811986208 -0.3712156713
0.51425647736 0.69002950191 -0.5092908144
0.23139484227 0.7474412322 -0.62271291018
0.39897567034 0.68040633202 -0.6145593524
-0.97560507059 -0.07701434195 0.20556245744
-0.91938340664 -0.044757448137 0.39023587108
-0.96034348011 -0.26738387346 -0.079022236168
-0.92585843801 -0.37782251835 0.0038619518746
-0.91389799118 -0.37103146315 -0.16468983889
-0.92771601677 -0.26683679223 -0.26091516018
-0.84028065205 0.48978877068 -0.2322461158
-0.9036692977 0.41927984357 -0.085369870067
-0.77301245928 0.6267041564 -0.098260201514
-0.97169244289 0.15948012471 0.17386509478
-0.99847304821 0.0023997810204 0.054491709918
-0.98984056711 -0.14170898497 0.0034053691197
-0.9955663681 -0.039415612817 -0.085497818887
-0.97449117899 -0.16198481619 -0.15520882607
-0.98342192173 0.05137771368 -0.17385651171
-0.99566531181 0.0777162835 -0.050932381302
-0.72575139999 -0.47994858027 -0.49281960726
-0.75241076946 -0.54397684336 -0.37116965652
-0.81219053268 -0.43216219544 -0.39193207026
-0.83666968346 -0.49420055747 -0.23602798581
-0.77429902554 -0.60167050362 -0.19544656575
-0.72866660357 -0.68088114262 -0.073764309287
-0.78994524479 0.37387257814 0.48587924242
-0.61852353811 0.50275981426 0.60319060087
-0.71732288599 0.61986517906 0.31714522839
-0.59264016151 0.099899299443 0.79925358295
-0.76290613413 0.095121853054 0.6390864253
-0.64268738031 0.30041998625 0.70477777719
-0.45319032669 0.420684129 0.78586500883
-0.41338300705 0.0042132404633 0.91047728062
0.66546946764 0.71941554546 0.19891709089
0.65098410845 0.75862646103 0.0063014235348
0.53623390198 0.83902007341 0.092198431492
-0.83600628376 0.5423116684 0.08306273073
-0.92130118608 0.36765038967 0.12689439952
-0.84789478779 0.2872120142 -0.4456166327
-0.89819073677 0.34088125825 -0.2774451673
-0.79988276958 0.46231043339 -0.38263314962
-0.91746771336 0.18857049942 -0.35018989444
-0.95418959856 0.20140846074 -0.22096459568
-0.9585865736 0.26077383757 -0.10897842795
-0.64338833094 -0.62424403429 -0.44310846925
0.47634717822 0.48860347271 -0.73098999262
0.49877655506 0.38176700473 -0.77809369564
0.39064577222 0.3892095983 -0.83422535658
0.38102063537 0.24679847062 -0.89100152254
0.48659768701 0.267180264 -0.83175963163
0.42340481281 0.14176033437 -0.89478033781
0.51071065664 0.14159937203 -0.84799605608
0.47064819932 -0.019742948934 -0.88149482012
0.71838414669 0.14349097013 -0.68066883087
0.75237810612 0.24090720713 -0.61302036047
0.77851372957 0.10835957527 -0.61826735735
0.81705600023 -0.0026951408945 -0.57655715942
0.72882854939 0.016142420471 -0.68451976776
0.8622033 -0.12276276201 -0.49142429233
0.89368247986 0.06785120815 -0.44349503517
0.66488242149 -0.071102164686 -0.74335283041
0.62258005142 0.0052470862865 -0.78215748072
0.57548654079 -0.1374694109 -0.80605494976
0.30160915852 0.10902845114 -0.94717925787
0.17457649112 0.23403458297 -0.95644760132
0.1284698844 0.13874827325 -0.98196041584
0.93328094482 0.3086386025 0.18365037441
0.94925069809 0.31204533577 -0.038739159703
0.90098410845 0.42642584443 0.079970948398
0.85753560066 0.46670332551 0.21631076932
0.77384215593 0.54006433487 0.33093190193
0.85142552853 0.40479949117 -0.33350819349
0.86918455362 0.45446640253 -0.19227650762
0.92822897434 0.29422441125 -0.22756655514
-0.031960938126 -0.16835312545 0.98515766859
-0.1924738735 -0.073044754565 0.97850728035
-0.053316272795 0.023805338889 0.99822551012
0.74960500002 0.658454597 0.066659256816
0.30017781258 -0.042485095561 -0.95285785198
0.44906163216 0.55296468735 0.70183318853
0.20756876469 0.69922524691 0.68405991793
0.20588925481 0.52725470066 0.82435023785
-0.014435546473 0.66052478552 0.75039231777
-0.051145687699 0.83212590218 0.55213236809
0.37210860848 0.7392667532 0.56109011173
0.94401788712 -0.012020067312 -0.32965451479
0.88873887062 0.25409156084 -0.38161385059
0.93986058235 0.14877900481 -0.30746111274
-0.68315726519 -0.14284795523 -0.71601331234
-0.80937862396 -0.15852212906 -0.56548261642
-0.79898792505 0.0049971644767 -0.60128748417
-0.40451899171 -0.12714625895 -0.90562224388
-0.53723227978 -0.1629807055 -0.82748281956
-0.44534912705 -0.0029566246085 -0.89532661438
-0.58061087132 -0.0038577676751 -0.81417304277
-0.26986557245 0.038406610489 -0.96211159229
-0.37034219503 0.11321579665 -0.92194736004
-0.49629741907 0.15071366727 -0.85495829582
-0.55894261599 0.27585473657 -0.78196012974
-0.62727731466 0.13659234345 -0.76670509577
-0.62914937735 -0.29538288713 -0.7186858058
-0.27585378289 0.73699307442 0.61540555954
0.21928073466 0.33366090059 0.91673022509
-0.92167383432 -0.078493878245 -0.37993633747
-0.88408184052 -0.19080884755 -0.4265461266
-0.94735223055 -0.14013043046 -0.28792211413
-0.79830312729 -0.32102420926 -0.50949680805
-0.87347298861 -0.05075597018 -0.48420399427
-0.87921184301 0.099968738854 -0.46573415399
-0.92480570078 0.036192338914 -0.37866589427
-0.95645397902 -0.019475365058 -0.29113343358
-0.97774463892 -0.063519626856 -0.19985826313
-0.95500415564 0.093721665442 -0.28143915534
0.64617365599 -0.35344228148 -0.67642307281
0.50291657448 -0.40271607041 -0.76477330923
0.59573400021 -0.26046660542 -0.75967645645
0.58587020636 -0.47031882405 -0.65997111797
0.48760575056 -0.25640365481 -0.83389818668
0.34333077073 -0.38777494431 -0.85523098707
0.70963966846 -0.43088978529 -0.55742025375
0.83332365751 -0.32194340229 -0.44928506017
0.34932225943 -0.5263236165 -0.77402812243
0.13235943019 -0.46527221799 -0.87496256828
0.97095412016 -0.019837288186 0.23853874207
0.95197832584 -0.23537684977 0.19571985304
0.88984149694 0.0072605623864 0.45612582564
0.91247987747 -0.16867370903 0.37258675694
-0.86511725187 -0.31878167391 -0.3871973753
-0.87840342522 -0.38067942858 -0.28889867663
0.7556630969 -0.50189834833 -0.42064499855
0.86648857594 -0.36715012789 0.33803895116
0.26263895631 -0.75509828329 -0.6006462574
0.30998152494 -0.87336426973 -0.37530523539
0.057466477156 -0.85845595598 -0.50956368446
0.95555281639 -0.29394993186 0.022024996579
0.95879197121 -0.24166473746 -0.1492433995
0.19530881941 -0.60324597359 -0.7732180357
0.35412466526 -0.61565202475 -0.70321965218
0.4300737679 -0.74915146828 -0.50326651335
0.774091959 0.43961203098 -0.45553424954
0.76550984383 0.52710670233 -0.36852273345
0.69644999504 0.54324382544 -0.46887975931
0.3827303946 0.37874472141 0.84263533354
0.40702882409 0.15720790625 0.8998118639
0.53778862953 -0.76330852509 -0.35791954398
0.43587490916 -0.8844717145 -0.16649244726
0.65801864862 -0.59826564789 -0.45725315809
0.68170171976 -0.6572535634 -0.32134065032
-0.65552216768 -0.75420969725 0.037826742977
-0.49741095304 -0.86708146334 0.027223328128
-0.62427860498 -0.7765173912 -0.085225023329
-0.68866658211 -0.70674484968 -0.16064856946
0.22529964149 0.024466028437 0.97369354963
-0.59993880987 -0.77904379368 -0.1811735332
-0.52107310295 -0.8440207839 -0.12693890929
-0.49865582585 -0.82499092817 -0.2640196681
-0.37230619788 -0.91953772306 -0.12590017915
0.77632415295 0.34012961388 -0.53073096275
0.81949692965 0.26327675581 -0.50903010368
0.8285421133 0.34393209219 -0.44184702635
0.71968966722 0.39899888635 -0.5681117177
0.92766499519 -0.16887666285 -0.33291086555
0.98051136732 -0.072277925909 -0.18247377872
-0.1443451494 0.69669044018 -0.70268410444
-0.3157055974 0.65937131643 -0.6823091507
-0.23938167095 0.77241635323 -0.58825528622
-0.41977894306 0.72144466639 -0.5506914258
-0.47298556566 0.58109408617 -0.66226136684
[...]
CELL_DATA 1044
SCALARS cell_data_0 double
LOOKUP_TABLE default
1.63821054233e-05
2.86236076214e-07
1.65444891995e-05
1.12097352774e-05
5.23477084125e-06
6.32085818826e-06
1.16506649854e-05
2.78327565673e-07
1.51194615828e-05
2.74306443446e-05
3.34681601207e-06
3.16871192977e-06
2.57926367076e-06
2.96840121353e-06
3.00286300256e-06
4.66481040514e-06
4.85886435503e-06
1.87139887261e-06
1.37894484905e-06
1.00058688357e-06
1.01542907684e-05
1.18281826389e-05
1.48822475762e-05
1.24907149279e-05
3.45241616355e-06
7.61889376707e-06
1.16464198015e-05
1.50683545768e-05
2.31717807908e-06
6.85778095108e-06
3.14595257961e-06
6.94832228643e-06
9.37238277821e-06
3.13526922748e-06
1.38841991172e-06
2.37957598313e-06
1.8681487364e-06
8.63596876909e-06
2.41116272113e-06
1.66853327619e-05
1.62124053541e-05
1.19947866793e-06
2.82293564428e-05
2.23674183382e-05
1.54443542878e-05
7.79322978531e-07
1.96220738501e-05
1.42887765668e-05
6.15239472572e-07
1.60506915129e-05
5.45412035249e-07
6.87918116689e-06
1.11620424682e-06
7.16221312192e-07
4.91098479461e-06
7.89207898424e-06
6.92970554707e-06
8.43729099863e-06
1.04537599212e-05
7.94417107016e-06
6.93673723761e-06
8.77025644379e-06
1.94024425595e-05
1.04431657649e-05
9.79276296837e-06
1.04216589524e-05
1.04677774098e-05
8.2862918591e-08
2.48741605225e-05
9.94481065841e-07
1.88629454016e-05
6.09674591055e-07
1.15048328804e-06
1.11062750321e-05
9.94553989018e-06
6.83204601121e-07
1.12169367267e-05
8.1626208085e-06
7.91974774948e-06
1.98517494276e-07
1.80869784798e-07
2.96018721852e-07
2.72433604605e-07
1.93493324812e-07
1.87319698554e-07
1.06041780102e-07
1.19815534817e-07
1.16600661954e-05
1.0802523839e-05
9.7117249839e-08
2.34118034774e-06
2.18615075197e-06
1.83463898533e-06
1.41911014701e-06
1.2127621548e-06
1.64595901191e-06
2.69824501888e-05
1.30405689847e-06
1.57034290163e-05
2.68830010318e-05
1.35216015423e-05
1.96154985945e-05
1.6965330801e-05
1.26341853315e-05
2.86529159012e-05
3.46902339102e-08
1.3392121009e-05
9.68529049746e-06
1.29774379138e-05
1.03410028778e-06
1.11278424138e-05
8.6484572074e-06
1.14718796766e-05
1.88535345948e-05
8.42926559927e-06
1.51127550356e-07
2.56850746629e-05
2.25993879066e-07
1.84369826206e-07
3.87452536528e-07
3.32553441194e-06
3.33362790084e-07
7.49011247591e-07
6.94275313833e-07
1.47097363503e-05
6.1351332109e-07
2.85500185609e-07
1.46859598972e-05
8.70408220648e-08
1.68996055618e-05
1.55074603896e-07
4.30379393747e-06
3.77090663938e-06
2.10548997354e-05
2.10235502586e-07
2.42198246682e-08
1.28687478479e-07
2.22477016073e-07
1.08038840286e-07
6.53939729791e-08
5.14300293475e-06
3.85715555983e-06
4.75163561544e-06
4.84320887711e-06
5.2949409572e-06
5.14398964394e-06
2.8591044665e-07
2.03690785191e-07
7.21028841607e-08
4.29062333329e-07
4.42489226111e-07
5.26299610545e-06
1.18534102717e-05
3.91715817944e-06
1.12230791625e-05
1.86404175492e-05
3.77553804293e-07
4.52248964933e-07
7.17180822614e-07
7.42510510289e-07
1.2442310894e-06
5.03551174514e-07
9.69741460632e-07
1.77085116769e-06
4.42547685179e-07
7.78878375303e-07
1.53651349522e-06
3.71436732267e-07
3.27607295551e-05
1.70920553773e-05
1.94897292864e-05
5.81831240149e-06
1.07061141459e-05
5.82918406267e-06
2.59941142612e-05
3.4387114783e-05
1.92457880049e-07
5.19412867752e-08
1.60034160309e-07
3.64507645669e-08
1.71983978687e-06
6.14787013247e-06
2.73389387901e-07
1.59916690429e-07
5.10079341501e-06
2.85298503107e-06
1.24569576013e-07
1.61039460007e-07
1.3671820991e-05
1.26989761147e-05
1.48717539853e-05
1.22244048258e-07
4.81997236785e-06
1.2995776923e-06
1.01990670974e-05
1.07381721967e-06
2.42818159365e-07
1.08576679206e-05
9.64424990429e-06
9.22533050267e-06
1.25854835173e-05
1.32877202725e-05
3.80852943709e-07
9.0747210753e-06
1.47047097445e-06
1.7882694567e-06
7.69657084244e-07
5.79827254703e-07
1.83745678294e-07
9.55377476289e-07
4.97826388989e-06
6.61119095235e-07
2.08324713193e-06
3.21095096003e-06
4.26764420123e-06
4.07777610862e-07
1.06087945859e-05
1.22996695162e-05
3.31558771087e-08
5.55642511773e-07
2.52115267128e-07
3.10384416022e-07
1.30087778894e-06
3.34532691477e-07
3.84645876872e-07
1.28902363529e-07
8.29439279762e-06
1.12296498351e-05
1.29997988649e-07
1.62571021308e-06
1.39345334459e-06
7.1904680602e-08
2.68196924053e-06
1.82837328674e-05
7.91906041933e-07
5.09421049802e-07
6.21903967321e-07
8.41253531811e-07
7.36005169712e-07
2.35499243171e-07
1.44732476466e-07
9.69396819285e-06
3.27461321675e-06
1.13119499941e-05
5.58005792037e-06
1.35607027965e-05
1.09321310409e-05
4.05301283072e-06
9.58218220622e-06
3.64906582426e-06
7.32964724986e-07
2.85939885135e-07
7.70164610799e-07
1.49143797167e-06
1.15759974664e-06
8.60120933815e-06
1.79450861573e-07
1.63090762213e-07
3.51151341687e-06
1.16234183537e-05
1.33874777825e-06
2.19310175567e-06
4.3329123885e-06
7.75827564113e-06
6.20186994717e-06
9.86242714442e-06
4.2106984829e-06
2.32070645136e-07
2.19704976688e-07
7.09292335245e-06
1.43626470186e-07
4.16020943593e-07
3.05766514505e-06
8.4204930574e-07
5.95870797594e-07
8.81696486847e-06
5.86567761267e-06
4.01780560978e-07
2.46276156468e-07
6.37296071885e-06
1.34112641697e-07
5.48513850967e-07
3.43798035812e-06
3.02395628882e-06
8.75267349081e-06
6.45363448029e-06
1.44230407081e-08
2.4474773767e-07
6.66531725493e-08
2.79398194056e-06
5.60321543239e-06
6.81285241331e-06
3.33000940456e-06
6.52066339718e-06
2.8530072598e-06
1.24712929941e-06
1.05173355737e-06
4.35160650128e-06
7.63406106365e-06
6.42213122775e-06
4.05145671851e-06
2.60885934695e-06
2.64581512488e-06
2.60993578671e-06
4.71853584918e-06
4.43942648909e-07
3.81192783552e-07
7.1990958628e-07
8.03304291277e-07
1.15313877659e-06
7.2551948635e-07
1.30407539817e-06
1.80738279936e-06
1.27512329945e-05
1.20231386468e-06
2.05415067285e-07
2.18435629231e-07
8.89833433215e-08
9.42023026678e-07
1.22417078854e-06
1.50733335637e-06
5.22506659606e-08
2.88017155796e-08
3.61983063795e-08
2.76005293013e-06
2.91560986017e-06
3.07240775692e-06
6.52333757992e-06
6.22030076371e-07
1.24636673063e-07
2.03803360562e-07
2.97481068352e-07
1.35041695572e-07
2.05270431152e-07
1.31729749344e-06
1.88080926431e-07
1.83436481895e-08
4.88782346685e-07
4.53923608762e-07
6.67407439774e-09
3.03028098074e-08
2.30084496166e-07
1.62361011973e-07
3.52766193075e-07
4.74085134831e-08
9.56741702846e-07
7.43312171949e-07
9.67398869925e-08
1.54705149065e-07
1.51391704823e-07
7.8486077843e-08
1.36621563337e-07
1.03982040378e-07
1.54993276238e-07
1.99371018458e-07
5.54469133209e-07
4.74868210533e-07
2.13752226212e-07
8.23224970147e-08
7.32979662297e-08
4.35072245397e-07
9.16074530887e-08
6.48906187103e-07
1.29399973434e-05
9.84124416339e-07
2.17434737089e-06
1.78158582577e-05
5.38978976649e-06
3.97864619758e-06
7.48481433291e-07
1.05974188237e-06
3.90502887614e-06
1.79144405144e-06
3.48271722508e-06
5.41415832727e-06
1.75264522102e-06
3.66170504103e-06
4.7367327793e-06
2.13813605949e-07
8.82507601044e-08
2.20053074984e-07
8.79009409689e-07
2.96172903591e-06
2.34618379831e-07
2.02416026144e-08
6.81573639159e-07
2.05890753338e-05
1.2270432436e-06
4.48513802834e-06
5.30654116139e-06
3.12021731676e-07
4.16689365188e-07
1.85366786447e-06
1.85138463668e-05
4.21683170414e-09
3.46690995487e-07
7.06421974361e-07
1.60102076897e-06
1.26220619742e-05
9.70410008129e-08
1.17722638566e-06
1.60727821226e-07
4.27476572362e-06
5.84682164516e-07
5.61482086929e-06
1.12436229721e-06
2.69539209046e-06
1.23513629839e-06
8.19849247982e-06
8.8951906578e-07
1.27881638007e-05
1.39392895353e-05
1.18118917134e-05
1.02444058492e-05
1.47769099229e-05
1.5308425646e-05
1.2634081928e-05
1.37600603187e-05
4.09062891565e-05
5.86190535576e-06
1.91632775289e-05
6.60117626027e-06
4.4474477287e-06
6.85996496649e-07
6.19988439926e-07
7.72171405391e-07
8.27730611552e-07
9.31930011894e-07
1.45227861816e-07
1.2326473675e-06
2.9749353312e-07
2.00874463494e-05
2.0110998007e-05
5.0449942914e-06
6.66271322974e-06
3.92273036514e-07
3.00311834624e-07
5.60260224508e-06
4.45018319982e-06
6.39424803882e-06
1.26444023725e-06
8.89077848771e-06
2.40488604254e-06
2.918416508e-06
2.15552427055e-06
1.06536494285e-06
1.50185160907e-06
6.53825230734e-06
9.48483733441e-06
8.91018524436e-08
4.40040756434e-07
5.75714653906e-06
1.28358521395e-06
1.20302808054e-05
2.41726231202e-06
3.95947867512e-07
1.25657771116e-05
1.17899304581e-05
5.18579028945e-07
9.61454156542e-06
1.63809038375e-06
5.2795888243e-06
4.36719365394e-06
2.42016406862e-06
4.24669258089e-06
3.70513518612e-07
3.3609603077e-06
7.94448158292e-06
6.82547565405e-07
5.96750808087e-07
1.45777438174e-06
6.0236281314e-07
3.46965559017e-07
4.8432887953e-06
3.34902723822e-06
1.98460649185e-06
1.880744118e-05
4.57042689577e-06
3.07602886614e-06
1.05181074651e-06
1.67950088484e-06
2.55207628865e-06
3.6757158614e-06
3.53381165028e-06
2.33106894944e-06
2.05761074874e-06
2.3273311356e-06
3.61000618513e-07
4.38840954931e-07
6.85955142228e-07
2.15129472856e-06
7.94737215943e-07
7.23799080492e-07
1.99870217912e-06
1.30781354548e-07
3.67779042575e-07
9.86748494377e-07
8.8324434728e-08
3.13194241263e-08
7.64584471788e-08
9.05121134457e-08
1.23303251617e-07
1.06958815229e-07
1.56046664724e-08
7.53840098306e-07
2.56227030164e-06
2.17724910194e-06
1.93566167016e-06
8.50562836661e-08
5.32894720079e-07
3.00850975111e-07
1.83629530831e-06
1.41240044456e-06
1.49632899999e-06
3.0398982868e-06
2.24434142862e-06
1.51996927989e-05
1.43188700322e-05
1.16867667435e-07
3.02441863757e-06
3.58708740232e-06
3.02972188456e-06
6.21579867316e-08
7.66395335853e-06
2.41527127578e-06
1.55351356889e-06
7.08397390058e-07
1.38318657036e-05
2.10201007438e-06
2.36052694706e-07
2.53119937299e-06
1.33339568222e-06
1.75613246488e-08
2.08596707626e-08
3.40642166365e-08
6.24108978982e-08
3.50228830847e-08
2.6642269278e-08
4.06782567391e-08
9.12711762184e-08
5.23390150935e-08
5.75780490637e-08
3.4868680963e-07
2.80601517506e-07
1.24746582878e-06
1.21082105697e-05
1.29455070537e-06
8.11040525054e-07
1.06718806321e-05
3.63260207432e-08
1.8586775076e-07
2.64619896504e-06
2.89316283558e-06
6.91831426536e-08
4.18332406583e-08
5.28909487561e-06
9.80367437305e-06
2.13789913898e-06
1.31117405335e-05
1.40669349948e-05
2.94183041954e-06
8.11254611364e-08
1.6543162414e-05
6.56550812046e-07
8.61113158649e-07
9.5835495793e-07
9.92395117469e-07
1.14938767924e-06
3.16494837353e-07
6.00085384799e-07
1.19544007742e-07
5.99624782997e-06
3.02528831005e-07
1.33682121734e-06
1.72047411711e-06
1.89057629683e-06
6.57464192093e-06
9.23015417356e-07
4.32990605152e-07
6.62539919204e-07
2.03438875218e-05
1.15155470948e-06
5.02307169846e-06
6.01003290309e-06
7.33875664918e-06
8.08839411905e-06
1.4215900475e-08
5.42364212742e-08
4.38522011935e-08
3.71908672091e-09
6.11694969432e-08
4.54776992928e-08
4.85131381779e-08
8.37526155134e-08
1.85779761816e-07
4.75767404411e-06
1.57312312569e-07
5.71054161314e-07
9.74772234742e-08
3.59822861666e-07
2.02228897552e-09
2.79029039329e-07
2.05462217079e-07
5.43486176157e-07
1.48886432724e-08
4.2171154256e-08
6.14457443289e-07
1.77453895663e-07
3.43648232295e-06
1.33398523306e-06
7.98640887939e-06
1.62623051814e-07
8.32943889985e-06
7.03880942485e-06
8.91836466516e-06
1.06098446244e-05
1.75585767014e-05
1.60273810933e-05
2.05328783586e-05
1.30710009388e-05
1.51845119139e-05
6.80719326609e-06
1.3161932743e-05
1.44012787975e-05
1.30547736531e-05
1.34673288196e-05
1.61403124085e-05
3.79099835085e-06
9.46229210236e-07
7.87541282489e-06
4.52544103302e-06
1.20325793501e-05
2.33984113549e-05
2.24455803355e-05
1.96553551897e-06
1.0896636995e-05
6.28471446204e-06
2.94530216082e-06
2.73565420999e-06
8.44762175985e-06
3.75567318328e-06
3.58204991078e-06
3.52202114959e-05
2.24475784936e-05
1.25608427825e-05
1.02567903368e-05
2.34729165356e-05
1.03677837746e-07
1.36452337198e-07
3.34924350221e-06
2.78253310818e-06
8.66952448441e-08
1.22734827546e-07
1.34258577224e-07
1.16673039388e-07
1.34152932635e-07
1.23389653376e-07
5.81843619675e-07
9.37812612866e-07
3.94324329649e-08
1.46506258993e-07
2.07746199729e-05
1.08913667746e-06
1.41791079116e-06
4.99827209087e-07
7.13507119556e-07
4.57955714063e-07
2.69582709104e-07
9.44551831146e-08
1.40493898586e-06
3.22004833948e-07
2.65135889606e-07
1.36047084474e-06
1.49518227305e-06
8.95976930658e-08
2.07161861206e-07
2.13364811851e-07
6.83690579396e-07
8.3560420152e-07
1.80549679865e-07
5.73526462953e-08
3.24198968361e-07
2.99281920357e-07
3.99731951414e-08
6.96997925266e-08
1.73601353233e-08
1.59137428408e-08
9.96541929578e-08
2.08776035552e-07
1.93006209546e-07
7.12828133056e-06
3.72552745203e-07
2.22861230977e-07
5.85708811553e-09
2.69369361756e-07
2.5384219982e-07
1.22278739461e-07
2.46708482678e-06
5.78074829759e-06
4.40836367808e-06
6.42653576243e-08
2.04353679957e-08
1.36310584835e-08
8.41314966928e-09
2.17634155445e-08
3.43631554743e-08
3.19655233796e-08
3.09052400242e-08
3.96581748725e-08
5.88182105117e-08
5.888598928e-08
6.02805603733e-08
6.77805684613e-08
5.91964911296e-08
3.17323811341e-08
4.58686245444e-06
4.45287248342e-06
5.0243328582e-08
1.92010994692e-08
3.18115406665e-08
3.22362126765e-08
3.98209786754e-08
8.93417966378e-09
3.46736523297e-07
7.2734293884e-08
7.54489880904e-08
6.73501724202e-08
2.61503075278e-09
8.14037650362e-08
1.22379744731e-07
5.92076036379e-08
5.33754093617e-08
3.28703663956e-08
5.93422788417e-08
7.46746288921e-08
4.25938817437e-08
4.50500843167e-07
6.40486392413e-07
6.24067254369e-08
7.93517047822e-08
7.90455511386e-07
3.78920297313e-08
5.95977938338e-08
4.47819949531e-07
5.30129756921e-08
1.17744415307e-07
1.02158021471e-07
6.66737167616e-08
9.37502240479e-08
2.02497731264e-08
4.99916968796e-08
4.0490271525e-07
1.70329029865e-07
1.49622615508e-07
1.8490356096e-07
4.72991365531e-06
1.07138341592e-07
1.4061103313e-07
9.96412404813e-08
1.72851514908e-07
9.7263428134e-08
3.1625235736e-07
7.88915405689e-08
8.95913605213e-08
1.52995458437e-07
1.63042677121e-07
6.15519938151e-06
4.03251406287e-08
7.28524622772e-08
1.0365901283e-07
7.95997343417e-08
3.52935756353e-08
5.89485743467e-08
5.9348375807e-08
1.22195804526e-07
4.27540918261e-08
3.83701091479e-08
4.03230783565e-08
4.20636908081e-08
5.44473172319e-06
3.83738289141e-06
3.74428831813e-06
1.46432612513e-06
9.01190235132e-07
1.39815387149e-06
5.16264450667e-06
4.91542467987e-06
6.97869418182e-06
1.36294805055e-05
8.89829485303e-06
5.40755913552e-06
3.48736021737e-06
2.41617768193e-06
1.67571327948e-06
5.99190873268e-07
7.12663031139e-08
2.51258159962e-07
1.47527635279e-06
1.2254732778e-06
1.82268921965e-07
3.23932156571e-07
1.29342917422e-06
1.73953787603e-06
3.72584447537e-07
2.74847837182e-06
1.95703816273e-07
3.38062931262e-07
1.07301399688e-05
8.64531718235e-06
1.98475791927e-05
1.40404379482e-05
1.32701853515e-05
1.15873313765e-05
1.39644661715e-05
8.68555935775e-06
1.69795392115e-05
7.59833487786e-06
3.72108282415e-07
2.06410401694e-06
4.21202975165e-06
5.17727444667e-06
3.57289923893e-06
5.91562027346e-06
5.50002426097e-06
1.33144043768e-05
1.32315359864e-05
4.59505640304e-06
3.87573699107e-07
7.77050871515e-08
6.24941996617e-07
2.33145185611e-07
2.71252268978e-07
3.83561424694e-07
3.77390227373e-07
4.58259808302e-07
3.62609752145e-07
4.08693640685e-07
3.76754914682e-07
6.85530968444e-07
7.19383385916e-07
4.31622478147e-07
4.78580957003e-07
1.53238876584e-05
1.01221280959e-05
8.62505942481e-08
1.09358048727e-07
1.13805254092e-07
5.39537998788e-07
2.4329442758e-06
5.69275811581e-07
2.21478853569e-06
9.11565923244e-08
2.22047492493e-05
2.32453917325e-05
5.7757084398e-06
3.1453929987e-07
9.35965250703e-07
2.4415809234e-06
3.8673490265e-06
2.77989208285e-06
4.63111241813e-06
4.17863879257e-06
6.69085294957e-07
7.15136180606e-07
2.12061432577e-07
5.83766227366e-08
5.69783217575e-07
2.91569779146e-06
6.13141388951e-06
2.44443710026e-06
1.19431513866e-05
1.13736264518e-06
7.57981158699e-06
4.47882205546e-08
9.78234901611e-06
1.40579070816e-06
3.53712935153e-06
1.40526945741e-06
3.04269795295e-06
3.43695460716e-08
1.70456992769e-07
1.22857818738e-07
1.47919206155e-07
7.97814954896e-08
3.02813280675e-07
1.58938525883e-07
3.95077609641e-08
9.91907536959e-08
1.37343168551e-07
5.67966006848e-06
2.3585731937e-06
6.7015185617e-08
1.49826677643e-07
2.35455324316e-06
2.11870858823e-06
7.25665878016e-08
1.54447595482e-07
1.12223505281e-07
3.63992422055e-07
5.20263953597e-06
1.23222878761e-06
1.59986771597e-05
9.80490947861e-06
3.55825186583e-09
7.44740336265e-08
1.34437326426e-07
2.2569297486e-06
1.46661058037e-07
3.22670693938e-06
3.24043625692e-06
3.61656320214e-07
2.01072760914e-07
2.23506550244e-05
1.62898424386e-05
4.66870114597e-06
6.20643328182e-07
3.84546642661e-07
1.7230106249e-07
4.72686907034e-06
1.8734361318e-07
2.81938448888e-06
3.53713399175e-06
1.25418977859e-06
2.96292090222e-06
4.97351316483e-07
5.24259735364e-08
5.00906616963e-07
1.54298985342e-06
4.40785982095e-07
4.22206523347e-08
5.8431790763e-09
4.15720281614e-07
3.10678631394e-06
1.19833825234e-06
1.06449591107e-06
1.40665390305e-06
1.29745932911e-06
1.20213757977e-07
1.43031151091e-07
5.24718168985e-07
3.50064027725e-07
5.69604055592e-07
1.66279354758e-06
2.77446593129e-06
3.51772077371e-06
6.8489972292e-08
5.8951159316e-06
5.14957052155e-06
5.32847543426e-07
5.9893690997e-08
3.2514057827e-07
7.22363583641e-07
8.47221235054e-07
9.63890086833e-07
9.0543172991e-07
8.59948857845e-07
9.51780790308e-07
5.76521315049e-07
8.90026807332e-07
7.02340498515e-07
6.72260733344e-07
7.33367369066e-07
3.386224396e-06
9.29081433503e-06
2.55313516372e-06
2.79931249836e-06
2.59954419095e-06
6.07280901669e-06
4.73259743108e-06
6.75129303501e-06
5.81818466656e-06
2.18410017039e-06
1.06413073994e-06
1.23862092616e-05
9.37229449013e-06
3.35641413857e-08
1.32677689859e-07
1.49949410105e-08
2.93209041604e-06
4.72955724715e-06
2.77600522867e-06
4.89107293401e-08
1.22582140355e-06
2.67324950407e-06
4.4288305282e-06
3.71428193333e-06
3.44123825605e-06
1.38176371875e-08
1.19271161446e-06
2.78980557004e-08
1.23711160297e-06
3.83419067417e-06
6.79626144612e-06
4.52103117353e-07
1.77489948043e-06
5.03841362397e-08
3.10017407443e-06
5.95039476133e-07
4.52914828701e-08
8.3276719049e-08
1.03159422644e-06
1.16379637813e-07
1.21413785869e-07
1.48774723333e-06
4.68078790595e-06
4.06280145211e-08
3.42007503835e-08
6.55066729068e-07
7.54606600593e-07
4.19523264574e-06
1.65534955865e-06
2.65393448462e-07
7.59584048962e-06
1.22647538501e-06
1.56195547659e-07
9.8775700872e-07
6.24677393467e-07
1.27997472909e-07
1.32387021134e-07
1.95367030625e-06
1.44703800214e-06
1.34358107367e-07
2.16985574361e-09
1.00204392851e-06
1.12573219908e-06
4.04773517615e-07
7.64582346471e-08
1.90195157955e-07
1.85508292083e-06
1.0371912394e-07
6.91351260531e-08
6.54189144749e-06
6.48821999443e-08
5.28820460369e-08
6.46424490862e-08
1.32936892308e-06
1.24637324336e-06
4.39544251407e-08
5.42109291057e-08
2.10549074829e-06
2.56353881044e-06
6.53187146585e-08
5.91805653395e-08
7.58953186222e-08

