# vtk DataFile Version 3.0
File Name: Molecule/sphere_excent/sphere_excent_0-s20.vtk
ASCII
DATASET UNSTRUCTURED_GRID
FIELD FieldData 1
TIME 1 1 double
0.0
POINTS 204 double
-0.0038643842563 0.84786337614 0.52829146385
-0.54132503271 0.73725116253 0.4034447372
-0.30854436755 0.58611291647 0.74830776453
-0.83416891098 0.5488294363 0.054642450064
-0.83196210861 0.31458806992 0.45522242785
0.32518166304 -0.57453727722 0.75106489658
0.006912891753 -0.85613393784 0.51667785645
0.42605647445 -0.83300882578 0.35222318769
0.23202952743 -0.61030805111 -0.75741863251
-0.010018656962 -0.86081856489 -0.50873488188
-0.24545581639 -0.54024726152 -0.80395007133
0.81453806162 -0.20596063137 0.54089701176
0.76808476448 0.24984847009 0.58968764544
0.55671596527 0.052641138434 0.82826119661
0.40999975801 0.50956493616 0.75360256433
-0.37774583697 -0.87427526712 -0.30346336961
0.0052586081438 -0.99985229969 0.0088994437829
-0.56036025286 -0.82701784372 0.026206137612
-0.41443586349 -0.83524221182 0.36130076647
-0.33616232872 -0.63117420673 0.69869267941
-0.98444592953 0.12687730789 0.10896109045
0.42041784525 -0.83011752367 -0.36521166563
0.56847977638 -0.82122683525 0.022405995056
0.0029416705947 0.99957752228 0.020675323904
-0.28570616245 0.94042354822 0.1842969507
-0.26429784298 0.94544494152 -0.18983477354
-0.54918843508 0.83556091785 0.013263502158
-0.58977329731 0.73562860489 -0.33250361681
-0.0062247640453 0.86874067783 -0.49503344297
0.12273387611 0.95416998863 -0.27089577913
0.286803931 0.95460629463 -0.078029721975
0.27507501841 0.94059175253 0.19754941761
0.51654106379 0.85295397043 0.068210087717
0.45930537581 0.78260928392 0.41982018948
0.8384898901 0.38316354156 -0.38309875131
0.68118518591 0.58963859081 -0.43391093612
0.83801621199 0.5316259861 -0.11245250702
0.58561706543 0.48558562994 -0.64895087481
0.43322518468 0.63812619448 -0.63629728556
0.90098804235 -0.43326458335 0.0082627870142
0.95221966505 -0.19727008045 -0.23305945098
0.99170202017 -0.10079243034 0.077366121113
0.80417454243 -0.35426142812 -0.4772170186
0.8744726181 -0.087093770504 -0.47720143199
0.96512889862 0.12152644247 -0.224955827
0.52579969168 -0.030783228576 -0.85014551878
0.42702057958 -0.27724608779 -0.86086863279
0.27564620972 -0.012090560049 -0.96088773012
0.12207212299 -0.29695475101 -0.94681829214
-0.012685437687 0.022250087932 -0.99966454506
0.68087089062 -0.22386798263 -0.697514534
0.56487542391 -0.49168604612 -0.66264271736
0.72525662184 0.38487556577 -0.5697171092
0.45746776462 0.45409861207 -0.76413649321
0.55829048157 0.32434397936 -0.76349294186
0.75081294775 -0.035021148622 -0.65907031298
-0.4275739193 0.24716414511 0.86927479506
-0.333696872 0.00018214029842 0.94183629751
-0.21561786532 0.30169993639 0.92865806818
-0.60044044256 -0.048762485385 0.79746621847
-0.48557379842 -0.30907383561 0.81751728058
-0.19626843929 -0.26158121228 0.94460535049
-0.53672790527 0.010401730426 -0.8417801857
-0.68724620342 -0.16032077372 -0.70838868618
-0.68676441908 0.19086791575 -0.70135360956
-0.83349132538 0.017652414739 -0.54963731766
-0.76622998714 0.40528082848 -0.49709203839
-0.88029390574 0.24193243682 -0.40494510531
-0.49709025025 0.58127295971 -0.64389771223
-0.43156439066 0.28410771489 -0.85505253077
-0.64472520351 -0.57614898682 0.50175631046
-0.80130171776 -0.25064131618 0.54308575392
-0.17849270999 -0.22222402692 -0.95848691463
-0.27533826232 0.020053992048 -0.96028381586
-0.44069412351 -0.2716164887 -0.85355973244
-0.15713638067 0.27353453636 -0.94846212864
0.18900461495 0.23888127506 -0.95159238577
-0.26465955377 0.49689376354 -0.82627886534
0.11326023936 0.49813318253 -0.85870605707
-0.66921120882 -0.42293745279 -0.60958760977
0.23210690916 0.23579911888 0.94350796938
0.93767648935 0.13124647737 0.32153892517
0.97198683023 0.22099123895 0.051969561726
0.85952502489 0.41013672948 0.3028742373
0.69181782007 0.6856996417 0.22194075584
0.67805182934 0.55738794804 0.47914770246
-0.13448087871 0.70800232887 -0.69306254387
-0.30369195342 0.82066577673 -0.48370844126
0.20259597898 0.75562864542 -0.62126082182
0.021452736109 0.45757734776 0.88743585348
-0.019618719816 0.17142395675 0.98436319828
0.12401472032 -0.012341685593 0.99207925797
-0.81445467472 -0.32016789913 -0.48381558061
-0.85056847334 -0.44149246812 -0.2854282856
-0.92068195343 -0.27031332254 -0.28122121096
-0.82958167791 -0.55154049397 0.085674740374
-0.69961756468 -0.68068867922 0.21703319252
-0.8288025856 -0.47793418169 0.29047882557
0.84254252911 -0.48134663701 -0.24166698754
0.69079440832 -0.59583860636 -0.40948784351
0.68401128054 -0.70091897249 -0.20099654794
-0.75439476967 -0.65604901314 -0.0134020634
-0.69394999743 -0.70156341791 -0.16082458198
0.65554255247 -0.56751811504 0.49664619565
0.50117826462 -0.28477066755 0.81662428379
0.8613512516 -0.42340990901 0.28009128571
0.72090238333 -0.66137051582 0.20674619079
-0.91893464327 -0.37458088994 -0.12324532866
-0.85373914242 -0.51306736469 -0.089128389955
-0.90787380934 -0.41350331903 0.067467398942
-0.9620937109 -0.27122250199 0.027698969468
0.77606630325 -0.62961363792 -0.034535571933
-0.92740041018 -0.27872666717 0.24930898845
-0.78126317263 -0.58813643456 -0.20884416997
-0.014661648311 -0.60717976093 0.79422807693
0.23037917912 -0.25984436274 0.93773370981
0.33016738296 -0.044317133725 0.94281589985
-0.2130869627 -0.4577485621 0.8631644845
-0.014985820279 -0.16632266343 0.9855208993
0.041805688292 -0.40444138646 0.91358798742
-0.84365922213 0.47653952241 -0.24706320465
-0.94229948521 -0.057189840823 0.32637929916
-0.75708979368 0.10037311912 0.64439362288
0.37881362438 0.88845574856 -0.25892791152
0.53887444735 0.83077532053 -0.13834315538
0.26743736863 0.86522561312 -0.42331543565
0.44882386923 0.76252126694 -0.4659781158
0.54515641928 0.78161031008 -0.30265417695
0.30849903822 0.49594739079 -0.81039977074
-0.987380445 -0.1175070852 0.10387235135
-0.96012228727 -0.2467879355 -0.1312597841
-0.93147647381 0.3286960125 -0.15453408659
-0.99895912409 -0.033371850848 -0.023851694539
-0.98645377159 -0.15527653694 -0.052261184901
-0.98906618357 -0.059283420444 -0.13486562669
-0.96598410606 -0.15195155144 -0.20774011314
-0.97415286303 0.014720479026 -0.22265046835
-0.99184584618 0.068070940673 -0.10665695369
-0.37086048722 -0.73621070385 -0.56618160009
-0.54114377499 -0.73529785872 -0.40803313255
-0.48841673136 -0.56033986807 -0.66755986214
-0.59393364191 -0.60209596157 -0.53345751762
-0.75780981779 -0.55597490072 -0.34135824442
-0.74429410696 -0.48236832023 -0.46186348796
-0.67085289955 -0.61242741346 -0.41812190413
-0.67760491371 -0.67095637321 -0.30092898011
-0.57660573721 -0.77873510122 -0.24672292173
-0.5912771225 0.47949761152 0.64802235365
0.68849807978 0.69610613585 -0.20335178077
0.6915178895 0.72205507755 -0.021699819714
-0.54937326908 0.13066962361 0.82515633106
-0.64076018333 0.28194057941 0.71405625343
-0.42895156145 0.41207957268 0.80398112535
-0.97809880972 0.19782963395 -0.059548437595
-0.96833854914 0.15782339871 -0.19327354431
-0.92972868681 0.25628897548 -0.26364174485
-0.93529349566 0.11568281054 -0.33273848891
0.41927823424 0.35395115614 -0.83595305681
0.3993242979 0.24640913308 -0.88230144978
0.49989679456 0.25240007043 -0.82852417231
0.47604992986 0.13607636094 -0.86888921261
0.56355267763 0.15689511597 -0.81094956398
0.63384062052 0.22840213776 -0.73877567053
0.63764810562 0.097279809415 -0.76423346996
0.70164269209 0.16871626675 -0.69226437807
0.65208470821 0.33508461714 -0.68000227213
0.71894800663 0.25909170508 -0.64495283365
0.77140069008 0.16722977161 -0.6139754653
0.79000854492 0.26329135895 -0.5534838438
0.8531999588 0.14877477288 -0.49944621325
0.80163222551 0.064208321273 -0.59411346912
0.72414255142 0.075276523829 -0.68552654982
0.65830004215 -0.012864590622 -0.75255221128
0.35034260154 0.12524576485 -0.92813193798
0.28547784686 0.36724406481 -0.88521754742
0.92564737797 0.34312829375 0.15907099843
0.92324632406 0.37907668948 -0.040693424642
0.87014615536 0.48315656185 0.096159569919
0.79018300772 0.60862004757 0.072999328375
0.7957444787 0.55560851097 0.24097569287
0.9155074954 0.2626324892 -0.29808482528
-0.039670608938 -1.9077502657e-05 0.99924528599
-0.16482318938 0.079218454659 0.9831444025
-0.16115258634 -0.074530303478 0.98418390751
0.21147371829 0.70757138729 0.67382532358
0.21289241314 0.5070220232 0.83555787802
0.015619100071 0.67283159494 0.73960626125
0.91558456421 0.14783847332 -0.37402230501
0.86099100113 0.25547641516 -0.43962788582
-0.83755081892 -0.15238557756 -0.52415031195
-0.36547341943 -0.11841055006 -0.92323982716
-0.41430100799 0.014898414724 -0.91001850367
-0.4867028892 -0.12048773468 -0.86504000425
-0.36371147633 0.14714989066 -0.9196498394
-0.48475965858 0.13929064572 -0.86336165667
-0.9200746417 -0.10204129666 -0.37783312798
-0.87998384237 -0.20812264085 -0.42605316639
-0.94394922256 -0.13716292381 -0.29934221506
-0.88601505756 -0.053942345083 -0.460570544
-0.89934259653 0.055517788976 -0.43377420306
-0.93216454983 -0.00081581249833 -0.36171546578
-0.95164352655 -0.045274470001 -0.30356252193
-0.97093325853 -0.068216554821 -0.22934241593
-0.95653164387 0.054119031876 -0.28666821122

CELLS 404 1616
3 0 1 2
3 1 3 4
3 5 6 7
3 8 9 10
3 11 12 13
3 12 14 13
3 15 16 17
3 15 9 16
3 18 16 6
3 18 6 19
3 4 3 20
3 9 21 16
3 7 16 22
3 16 7 6
3 8 21 9
3 23 24 0
3 0 24 1
3 23 25 24
3 25 26 24
3 25 27 26
3 24 26 1
3 28 25 29
3 1 26 3
3 26 27 3
3 30 31 32
3 30 23 31
3 32 31 33
3 33 31 0
3 31 23 0
3 34 35 36
3 37 38 35
3 39 40 41
3 42 43 40
3 43 44 40
3 40 44 41
3 45 46 47
3 46 48 47
3 46 8 48
3 47 48 49
3 10 48 8
3 45 50 46
3 50 51 46
3 50 42 51
3 46 51 8
3 8 51 21
3 42 50 43
3 34 52 35
3 52 37 35
3 37 53 38
3 53 37 54
3 50 55 43
3 56 57 58
3 59 60 57
3 60 61 57
3 62 63 64
3 63 65 64
3 66 64 67
3 64 68 69
3 19 60 70
3 71 60 59
3 49 72 73
3 72 10 74
3 49 75 76
3 75 77 78
3 49 73 75
3 75 69 77
3 10 72 48
3 48 72 49
3 77 69 68
3 63 74 79
3 14 80 13
3 41 81 11
3 81 12 11
3 41 82 81
3 81 83 12
3 84 33 85
3 83 85 12
3 12 85 14
3 14 85 33
3 28 86 87
3 86 68 87
3 86 77 68
3 87 68 27
3 27 68 66
3 66 68 64
3 77 86 78
3 78 86 88
3 28 87 25
3 25 87 27
3 33 84 32
3 44 82 41
3 58 89 2
3 58 90 89
3 90 80 89
3 90 91 80
3 92 93 94
3 95 96 97
3 96 70 97
3 96 18 70
3 97 70 71
3 71 70 60
3 19 70 18
3 42 98 99
3 98 100 99
3 99 100 21
3 39 98 40
3 40 98 42
3 42 99 51
3 51 99 21
3 95 101 96
3 101 17 96
3 101 102 17
3 96 17 18
3 18 17 16
3 7 103 5
3 5 103 104
3 11 103 105
3 103 106 105
3 103 7 106
3 105 106 39
3 11 105 41
3 41 105 39
3 93 107 94
3 93 108 107
3 108 109 107
3 108 95 109
3 107 109 110
3 100 22 21
3 21 22 16
3 100 111 22
3 111 106 22
3 111 39 106
3 22 106 7
3 39 111 98
3 98 111 100
3 110 109 112
3 97 109 95
3 95 108 101
3 102 101 113
3 5 114 6
3 6 114 19
3 91 115 116
3 115 104 116
3 115 5 104
3 116 104 13
3 13 104 11
3 11 104 103
3 19 117 60
3 60 117 61
3 91 118 115
3 118 119 115
3 118 61 119
3 115 119 5
3 5 119 114
3 119 117 114
3 119 61 117
3 114 117 19
3 91 116 80
3 80 116 13
3 66 120 27
3 27 120 3
3 20 121 4
3 4 121 122
3 123 30 124
3 30 29 23
3 23 29 25
3 28 29 125
3 29 123 125
3 29 30 123
3 125 123 126
3 38 126 35
3 35 126 127
3 127 126 123
3 126 88 125
3 126 38 88
3 125 88 28
3 28 88 86
3 78 88 128
3 20 129 121
3 129 112 121
3 129 110 112
3 121 112 71
3 71 112 97
3 97 112 109
3 110 130 107
3 107 130 94
3 65 67 64
3 66 67 120
3 120 131 3
3 20 132 129
3 132 133 129
3 132 134 133
3 129 133 110
3 110 133 130
3 133 135 130
3 133 134 135
3 130 135 94
3 136 134 137
3 15 138 9
3 9 138 10
3 15 139 138
3 140 138 141
3 138 140 10
3 10 140 74
3 142 93 143
3 144 145 142
3 145 113 142
3 145 102 113
3 142 113 93
3 144 139 145
3 139 146 145
3 139 15 146
3 145 146 102
3 102 146 17
3 17 146 15
3 93 113 108
3 108 113 101
3 4 147 1
3 1 147 2
3 59 122 71
3 71 122 121
3 127 124 148
3 124 149 148
3 124 32 149
3 148 149 36
3 127 148 35
3 35 148 36
3 59 150 122
3 150 151 122
3 150 56 151
3 122 151 4
3 4 151 147
3 151 152 147
3 151 56 152
3 147 152 2
3 2 152 58
3 152 56 58
3 56 150 57
3 150 59 57
3 140 79 74
3 63 79 92
3 84 149 32
3 131 153 3
3 3 153 20
3 20 153 137
3 153 154 137
3 153 131 154
3 137 154 136
3 32 124 30
3 123 124 127
3 67 155 120
3 155 131 120
3 67 156 155
3 156 154 155
3 155 154 131
3 20 137 132
3 132 137 134
3 144 141 139
3 139 141 138
3 140 141 79
3 141 143 79
3 141 144 143
3 79 143 92
3 92 143 93
3 142 143 144
3 53 54 157
3 158 159 160
3 159 161 160
3 161 159 162
3 160 161 45
3 45 161 163
3 161 162 163
3 54 162 159
3 163 162 164
3 54 165 162
3 165 166 162
3 165 52 166
3 162 166 164
3 52 165 37
3 37 165 54
3 164 166 167
3 166 168 167
3 166 52 168
3 167 168 169
3 34 168 52
3 169 170 167
3 170 171 167
3 170 55 171
3 167 171 164
3 55 170 43
3 43 170 169
3 164 171 163
3 171 172 163
3 171 55 172
3 163 172 45
3 160 45 173
3 45 172 50
3 172 55 50
3 78 76 75
3 49 76 47
3 53 128 38
3 38 128 88
3 78 128 174
3 128 157 174
3 128 53 157
3 174 157 158
3 78 174 76
3 173 76 158
3 174 158 76
3 76 173 47
3 82 175 81
3 175 83 81
3 82 176 175
3 176 177 175
3 176 36 177
3 175 177 83
3 36 178 177
3 178 179 177
3 178 84 179
3 177 179 83
3 83 179 85
3 85 179 84
3 34 36 180
3 176 82 44
3 90 181 91
3 91 181 118
3 57 182 58
3 182 90 58
3 118 183 61
3 61 183 57
3 57 183 182
3 183 181 182
3 183 118 181
3 182 181 90
3 84 178 149
3 149 178 36
3 158 157 159
3 159 157 54
3 47 173 45
3 160 173 158
3 14 184 185
3 184 186 185
3 184 0 186
3 185 186 89
3 0 184 33
3 33 184 14
3 44 180 176
3 176 180 36
3 169 187 43
3 43 187 44
3 169 188 187
3 188 180 187
3 188 34 180
3 187 180 44
3 92 189 63
3 63 189 65
3 74 190 72
3 72 190 73
3 73 190 191
3 190 192 191
3 190 74 192
3 191 192 62
3 73 193 75
3 193 69 75
3 73 191 193
3 191 194 193
3 191 62 194
3 193 194 69
3 69 194 64
3 64 194 62
3 62 192 63
3 192 74 63
3 89 186 2
3 2 186 0
3 14 185 80
3 80 185 89
3 195 196 197
3 94 196 92
3 92 196 189
3 196 198 189
3 196 195 198
3 189 198 65
3 65 198 199
3 198 200 199
3 198 195 200
3 199 200 156
3 136 201 202
3 201 197 202
3 201 195 197
3 202 197 135
3 135 197 94
3 94 197 196
3 136 202 134
3 202 135 134
3 136 203 201
3 203 200 201
3 203 156 200
3 201 200 195
3 65 199 67
3 67 199 156
3 156 203 154
3 203 136 154
3 34 188 168
3 168 188 169

CELL_TYPES 404
5
5
5
5
5
5
5
5
5
5
5
5
5
5
5
5
5
5
5
5
5
5
5
5
5
5
5
5
5
5
5
5
5
5
5
5
5
5
5
5
5
5
5
5
5
5
5
5
5
5
5
5
5
5
5
5
5
5
5
5
5
5
5
5
5
5
5
5
5
5
5
5
5
5
5
5
5
5
5
5
5
5
5
5
5
5
5
5
5
5
5
5
5
5
5
5
5
5
5
5
5
5
5
5
5
5
5
5
5
5
5
5
5
5
5
5
5
5
5
5
5
5
5
5
5
5
5
5
5
5
5
5
5
5
5
5
5
5
5
5
5
5
5
5
5
5
5
5
5
5
5
5
5
5
5
5
5
5
5
5
5
5
5
5
5
5
5
5
5
5
5
5
5
5
5
5
5
5
5
5
5
5
5
5
5
5
5
5
5
5
5
5
5
5
5
5
5
5
5
5
5
5
5
5
5
5
5
5
5
5
5
5
5
5
5
5
5
5
5
5
5
5
5
5
5
5
5
5
5
5
5
5
5
5
5
5
5
5
5
5
5
5
5
5
5
5
5
5
5
5
5
5
5
5
5
5
5
5
5
5
5
5
5
5
5
5
5
5
5
5
5
5
5
5
5
5
5
5
5
5
5
5
5
5
5
5
5
5
5
5
5
5
5
5
5
5
5
5
5
5
5
5
5
5
5
5
5
5
5
5
5
5
5
5
5
5
5
5
5
5
5
5
5
5
5
5
5
5
5
5
5
5
5
5
5
5
5
5
5
5
5
5
5
5
5
5
5
5
5
5
5
5
5
5
5
5
5
5
5
5
5
5
5
5
5
5
5
5
5
5
5
5
5
5
5
5
5
5
5
5
5
5
5
5
5
5
5
5
5
5
5
5
5
5
5
5
5
5
5
5
5
5
5
5

CELL_DATA 404
SCALARS cell_data_0 double
LOOKUP_TABLE default
2.25791757057e-05
1.877869026e-06
2.78082662136e-05
1.20095314104e-05
3.16089353966e-05
4.10034292661e-05
5.78490248478e-06
5.22719172471e-08
1.19752363699e-05
2.2163868211e-05
1.14832669142e-05
6.72293445983e-06
9.69980724936e-06
1.08795744649e-05
8.04108379264e-06
3.49563254826e-06
7.82923402053e-07
1.64146425662e-06
4.55937841094e-06
1.14577552825e-06
3.44709523269e-06
1.88665183699e-05
5.57007605404e-06
2.92085765242e-06
3.58833818384e-06
2.52459715883e-06
6.17756380587e-06
1.2628563897e-05
5.1569345016e-06
1.36788651827e-05
1.07205441101e-06
4.06632969065e-05
5.69025000483e-06
2.2310763477e-06
2.29725993949e-05
3.59115582607e-06
3.76597264509e-05
5.03126789064e-05
4.32516645029e-05
9.01910456283e-05
6.70646281209e-05
0.00016021416689
0.000193558187011
7.4801691137e-05
0.000118293964565
7.67744252246e-05
3.26068594592e-05
9.66923483607e-06
1.08317400164e-05
8.34422797934e-06
3.35632476942e-05
1.42518913992e-05
3.36515137901e-05
3.01809917479e-05
1.62632318869e-05
5.00372053016e-06
1.63532133667e-08
1.35428483609e-06
2.46285983381e-05
2.63847228659e-05
6.81713393917e-07
1.98709701329e-06
1.08023282965e-06
3.59107935605e-06
6.83899055113e-07
5.75990913503e-07
5.72082927848e-05
4.18372849945e-05
7.81195131809e-07
2.83311818085e-05
4.78885597643e-05
0.000129021866145
3.01589342311e-05
0.000110500504817
3.29603665077e-05
4.87847211236e-06
8.7308564515e-06
2.11216202399e-05
1.6633044832e-05
2.62767167444e-05
5.36612618491e-06
7.79009145427e-06
7.09844655741e-07
1.47700196314e-06
9.89124598318e-07
1.31288931112e-05
1.02350616572e-05
1.7969223916e-05
4.77640344253e-07
4.8318558362e-06
2.8235789417e-05
2.08906140986e-05
4.20692037406e-05
4.91313740606e-05
4.26947348944e-05
0.000122861768578
2.05102893358e-06
3.17542713462e-06
7.92488858951e-06
8.59447810611e-06
2.3379885569e-05
1.61152383958e-05
6.10792940099e-06
5.42867542233e-07
9.37983182422e-07
2.7503971892e-06
5.6288155893e-06
7.37674156942e-05
7.63039911576e-05
1.32178322553e-06
1.42317571605e-06
8.4501099179e-07
5.0405636791e-06
1.12993221738e-05
1.98600265159e-05
2.15787673782e-05
1.02583610653e-05
2.05234485034e-05
4.84833563501e-06
2.86444138715e-05
6.63793926364e-05
8.51736485292e-05
8.58667596747e-05
2.76354661185e-05
3.18303936936e-08
9.65891246388e-07
4.34163920633e-07
1.01859893671e-06
5.69349770024e-07
2.55036739974e-07
2.7256995043e-07
4.52348769825e-06
3.72775107717e-06
3.22668857338e-06
5.90147616835e-07
1.48108250143e-06
1.4355307809e-06
8.33422241097e-07
4.82060600677e-07
2.69101940291e-05
2.47162705004e-05
1.82422194713e-05
3.2133824989e-05
3.59815946952e-05
3.50106509821e-05
3.39028844344e-05
1.62524497615e-05
2.6235441314e-05
2.93297544449e-05
3.94841720157e-05
3.22570202889e-05
2.75881683746e-05
3.64928702355e-05
2.71276924657e-05
1.10455144931e-05
1.67573228119e-05
1.65062936688e-05
1.79592395244e-05
2.92916388309e-05
1.5048146331e-05
1.27598746871e-05
8.6455318205e-06
1.2440092618e-05
1.13785357623e-06
3.84595979247e-07
4.78866120213e-07
1.17961027701e-05
4.69514743743e-07
1.18504044175e-06
1.31919381496e-07
8.70652705052e-07
6.51549370742e-07
6.09022726845e-08
4.79038060578e-07
4.98200917738e-07
1.20357094965e-05
2.64929608969e-05
7.57729571711e-07
2.7935116575e-06
2.41575912413e-06
1.47473199682e-06
5.96706804785e-06
5.39490488536e-06
1.85999931963e-06
2.19814041976e-07
2.14177554109e-05
6.96974844802e-07
7.92875206112e-06
8.05795431638e-06
9.2223650439e-07
2.38243051316e-07
6.16452557519e-06
5.74222256484e-07
4.42174302291e-07
1.96610883313e-07
7.19401690597e-06
1.61026015282e-05
2.64092506811e-05
1.21457186607e-06
8.06987179591e-06
3.80297959917e-08
1.74544087815e-07
2.47413398109e-06
1.94126310472e-06
1.9281084718e-05
2.15155282454e-07
4.19835969299e-07
4.75978902574e-07
1.8022755262e-05
1.38389028643e-07
2.8304939919e-07
3.78457926118e-07
4.10936178164e-07
9.04997710115e-07
1.45830010374e-06
2.37557668269e-05
5.30387021151e-07
1.10703329923e-05
1.74017322725e-05
1.71204098982e-05
1.27525446748e-05
4.55775450377e-07
2.95722363732e-06
1.95756714153e-06
2.71845449488e-06
8.03638304487e-07
1.70462390193e-06
1.21590883803e-05
8.09849551173e-06
7.4007425663e-06
9.24375353008e-06
9.70201037992e-06
9.67279786698e-06
1.28789113707e-05
1.14881361103e-05
2.07502220111e-05
1.57786359825e-05
1.00213945116e-05
1.98559058949e-05
1.27302476301e-05
2.93818950022e-05
3.49382184478e-06
1.17534740523e-05
8.52178096807e-06
4.39857010418e-06
3.36325678223e-06
6.18404187284e-06
1.39143738151e-05
2.37710850044e-06
2.9410400695e-07
4.64544788145e-06
4.35226955579e-06
4.0916833477e-08
1.72088312637e-07
3.4266752526e-07
6.87382906453e-07
6.71745311987e-06
7.81182424167e-08
3.00316113821e-08
5.56908175507e-06
4.49795667616e-06
3.30473432018e-07
7.90347399808e-06
3.90751875556e-05
2.22864806734e-07
6.06263972199e-06
9.640844268e-06
9.69115131037e-08
1.37111579076e-07
8.39857778384e-07
8.8648650178e-07
1.06469499972e-07
1.41872536582e-07
1.02610726444e-07
1.28914050821e-07
1.24613431876e-07
3.59494566879e-06
9.88956544418e-08
5.47971896895e-06
2.74603423513e-07
9.47963119742e-08
1.18424583498e-07
3.75637659979e-06
1.91387281753e-07
1.92008433389e-05
1.5395890109e-07
7.34915653241e-08
3.93440670936e-08
6.53635285653e-08
2.04606128306e-07
3.58619118793e-07
5.7551825548e-08
4.62049284913e-08
2.73021515652e-08
9.31601182788e-07
2.18468299677e-06
3.42426111643e-05
2.01896019997e-05
1.76610581395e-06
1.1274081531e-06
1.16070716445e-05
8.21877674667e-07
4.7822108033e-07
1.99120941859e-07
6.52943686802e-06
1.18978694615e-05
7.06610444678e-07
2.37219852037e-05
2.10515836806e-05
9.12190417881e-07
2.72857379053e-05
2.21003627084e-05
3.23703712339e-07
3.9112059224e-07
5.98566687367e-07
9.54395563486e-07
4.53313660708e-07
5.59850804688e-07
4.23876361678e-07
1.34804080381e-06
3.05610602707e-06
2.22861983445e-06
9.53354903443e-06
2.09846402169e-07
2.33414404049e-05
2.06094400463e-05
3.47432729419e-05
2.81766177036e-05
1.64459348385e-05
2.72595247484e-05
1.81110584331e-05
1.74479172008e-06
1.70764537976e-06
4.62498701064e-06
4.62423833028e-06
3.16005498156e-06
9.02066555826e-06
1.46874213985e-07
3.87868834948e-06
1.40633729766e-05
8.24625272773e-06
4.99796404743e-07
3.7988490438e-07
1.46432584735e-05
7.3794559391e-06
1.5662895986e-05
8.38429075039e-07
1.07858488959e-06
4.94780659099e-07
8.69026204994e-07
2.07415358732e-07
2.41187090586e-07
4.46809417596e-06
3.85616780043e-07
6.82834984406e-06
2.59314869877e-06
3.1247456358e-07
2.47417817803e-07
1.50638435449e-07
1.54594317529e-07
1.81315086005e-07
1.57331599249e-06
2.79910622821e-07
2.93447593388e-07
1.39163572807e-07
2.39916039722e-08
1.82843241846e-06
5.15840637675e-09
1.64919205913e-07
3.46331079571e-06
8.48328738992e-06
3.30899148932e-06
2.58396982508e-05
1.55130695892e-05
2.26670069403e-05
2.48940406201e-05
4.95777179667e-08
2.71254600645e-05
6.58791448937e-07
1.65674433648e-07
3.01823423411e-08
2.31313441813e-07
1.38759279175e-07
8.08597990261e-08
4.17455807282e-08
1.06977946669e-07
5.74539636192e-06
7.65122113666e-08
3.89747223937e-08
7.25310606356e-08
1.22784859329e-05
1.92992028619e-05
1.52812368714e-05
4.01494783191e-06
6.50201155232e-06
8.08364285921e-08
6.95563044817e-08
6.09875743251e-08
1.36858211193e-07
4.84550878103e-08
8.68939436173e-08
9.49699165205e-06
4.17542116169e-06
2.03939492967e-07

