# vtk DataFile Version 3.0
File Name: Molecule/sphere_excent/sphere_excent_0-s30.vtk
ASCII
DATASET UNSTRUCTURED_GRID
FIELD FieldData 1
TIME 1 1 double
0.0
POINTS 1666 double
-0.93501269817 0.18725194037 -0.2999227941
-0.94850248098 0.28437259793 -0.13968229294
-0.88045173883 0.38990673423 -0.26398521662
-0.12797077 -0.6837657094 0.71838700771
-0.19815269113 -0.68257468939 0.70326822996
-0.1382778734 -0.74915719032 0.64775002003
-0.30547273159 -0.93411105871 0.18450319767
-0.46075063944 -0.8691958189 0.17853960395
-0.37333622575 -0.92585164309 0.057595293969
0.6170232892 -0.23632898927 0.75058245659
0.63818466663 -0.30849456787 0.7053489089
0.66497904062 -0.22342389822 0.71262723207
0.74759572744 0.5597345233 0.35756596923
0.66420376301 0.60829311609 0.43374681473
0.75154912472 0.51503461599 0.41112548113
-0.41698893905 -0.58555090427 0.69514220953
-0.35494056344 -0.60256910324 0.71462136507
-0.37197041512 -0.54246246815 0.75309449434
-0.39368122816 -0.3741068244 0.83967590332
-0.3268455565 -0.40247142315 0.85496497154
-0.34273275733 -0.32860386372 0.87995159626
0.64353406429 -0.75641059875 -0.11513472348
0.6077387929 -0.79331600666 0.032203160226
0.51703566313 -0.84997540712 -0.099718697369
0.68598073721 0.27534866333 0.67352509499
0.73403757811 0.18515251577 0.65334188938
0.7388561368 0.28986871243 0.60834109783
0.66660904884 0.20205122232 0.71749567986
0.059554874897 0.76401865482 0.64238661528
0.041252456605 0.83202260733 0.55318188667
-0.027284625918 0.77596455812 0.63004469872
0.848054111 0.070940077305 0.52512276173
0.79799693823 0.15288446844 0.58294141293
0.78025776148 0.090639188886 0.61882025003
0.17028874159 0.77521145344 0.60822343826
0.16351383924 0.83864116669 0.51948279142
0.26901039481 0.79064548016 0.54971063137
0.41165679693 0.75908058882 0.50382143259
0.34066000581 0.81393271685 0.47058027983
0.34549260139 0.74988365173 0.56404346228
0.35885229707 -0.2769741118 0.89127349854
0.3633082211 -0.334880054 0.86940521002
0.42636555433 -0.30024123192 0.85325527191
0.45843416452 -0.37343385816 0.80643439293
0.39713543653 -0.37942445278 0.83560675383
0.49889221787 -0.30491563678 0.81125110388
0.43541038036 -0.49139150977 0.75424814224
0.49661177397 -0.43962997198 0.7483958602
0.42059370875 -0.43594434857 0.79562431574
0.0028040576726 0.49296459556 0.86993998289
-0.017498400062 0.55804598331 0.82961815596
-0.061603330076 0.51426327229 0.85541540384
0.99093919992 -0.012896407396 -0.13187044859
0.99685287476 0.075233161449 0.024611938745
0.99448156357 -0.097045913339 0.038080088794
0.98411798477 -0.0053572794423 0.1757324934
0.46230906248 0.88571816683 -0.03845000267
0.58984059095 0.80400586128 0.072861924767
0.62228405476 0.77849584818 -0.08173327893
0.70914459229 0.70105916262 0.054983153939
0.85312640667 -0.34803980589 0.38863161206
0.87779599428 -0.24034480751 0.41436371207
0.8314833045 -0.26947918534 0.48568284512
0.63124138117 0.26952192187 0.72712677717
0.63364046812 0.3453257978 0.69224566221
-0.046398863196 -0.80635863543 0.58959573507
-0.038227062672 -0.75577133894 0.65371662378
0.42145714164 -0.8855509758 0.19500394166
0.29282164574 -0.938796103 0.17976774275
0.39179879427 -0.91606223583 0.085081994534
-0.5990204215 -0.7751672864 0.20071464777
-0.55788183212 -0.82953256369 0.022750493139
-0.72476768494 -0.67517614365 0.13711328804
-0.57933080196 0.06355445832 0.81259131432
-0.61655920744 0.0092444997281 0.78719216585
-0.56861251593 0.0060839187354 0.82256674767
-0.68679350615 -0.67220807076 0.27625182271
0.49410310388 -0.68545681238 0.53479671478
0.55930447578 -0.6166202426 0.55338734388
0.47817021608 -0.63269156218 0.6090336442
0.47649487853 -0.75448340178 0.45130357146
0.5691921711 -0.68222212791 0.45818766952
0.44813880324 -0.82957154512 0.33297762275
0.55464547873 -0.73298436403 0.39360979199
-0.62356621027 0.22281251848 0.74934864044
-0.5784034729 0.18754136562 0.79387575388
-0.54237681627 0.25704532862 0.79984492064
-0.74877303839 -0.59113883972 0.29947549105
0.49623322487 -0.51958841085 0.69549721479
0.95317864418 0.28571310639 -0.097265027463
0.8830114603 0.37703037262 -0.27919951081
0.8632209897 0.48791840672 -0.12936618924
0.29874691367 0.056849405169 0.95260959864
0.33857446909 0.098895043135 0.93572187424
0.26971831918 0.10055936128 0.95757573843
0.35364493728 0.030345775187 0.93483549356
0.39931419492 0.063586741686 0.91459292173
0.077620446682 0.43418172002 0.89731824398
0.12205890566 0.39086130261 0.91232138872
0.14420364797 0.44606894255 0.88329464197
0.18485988677 0.39007711411 0.90202468634
0.23869846761 -0.87639945745 0.41798427701
0.18612849712 -0.922529459 0.33759772778
0.31207334995 -0.901737988 0.29894265532
0.20171260834 -0.95271956921 0.22724497318
-0.56383252144 0.78996747732 -0.24086609483
-0.70124620199 0.67217874527 -0.23736155033
-0.63745599985 0.76252692938 -0.11005011946
0.53830379248 -0.23867666721 0.8081291914
0.4809049964 -0.23786737025 0.84388643503
0.52990877628 -0.18760275841 0.82704371214
0.58551359177 -0.16645102203 0.79338282347
-0.045075923204 0.12110622227 0.99160647392
0.0072562946007 0.11438172311 0.99328565598
-0.0056775980629 0.17253221571 0.98498362303
0.31007748842 0.16497798264 0.93615037203
0.37044534087 0.16479799151 0.91411471367
-0.36321353912 0.15219298005 0.91916543245
-0.36258143187 0.10106260329 0.92638707161
-0.31120294333 0.12688647211 0.94183111191
0.030986364931 -0.97606253624 0.21527166665
0.11053642631 -0.95876145363 0.2612580955
-0.0085074305534 -0.95854693651 0.28471103311
0.63034141064 -0.58137243986 -0.51241105795
0.67170584202 -0.66059488058 -0.33477425575
0.45880389214 -0.75755959749 -0.46403607726
0.80499339104 -0.51337069273 -0.29428559542
0.76593208313 -0.62564527988 -0.14747045934
0.72145825624 -0.1102552861 -0.68265706301
0.68946731091 0.1350016892 -0.71158510447
0.83193582296 0.055059924722 -0.55210375786
0.50474339724 -0.0027063041925 -0.86325901747
0.79122722149 0.25672799349 -0.55485183001
-0.83299213648 0.25841921568 0.48913550377
-0.87615174055 0.28858843446 0.38587754965
-0.88768798113 0.19649271667 0.41629588604
-0.82943964005 0.45108041167 0.32923829556
-0.74797677994 0.52988708019 0.39955940843
-0.76904022694 0.57360464334 0.28199803829
-0.67142486572 0.5623318553 0.48272919655
-0.68385124207 0.61951053143 0.38538467884
-0.6163610816 0.63780832291 0.46185874939
-0.67632704973 0.67511796951 0.2943918705
-0.59581512213 0.71226119995 0.37096869946
-0.91660797596 0.22934547067 0.32734054327
0.0073394100182 0.42038851976 0.90731346607
0.064181655645 0.38505342603 0.92064493895
-0.055546708405 0.39025449753 0.91902810335
-0.011693814769 0.36170914769 0.93217206001
-0.86973291636 0.45646011829 0.18766620755
-0.08569971472 0.33172869682 0.93945819139
-0.12382750958 0.38040333986 0.9164956212
-0.19785770774 0.40707761049 0.89170825481
-0.14110425115 0.4299017489 0.89178198576
-0.17062842846 0.47446736693 0.86357164383
0.43282935023 0.50360041857 0.74764847755
0.48069161177 0.52082258463 0.70541763306
0.40790581703 0.56800663471 0.71481692791
0.086478285491 -0.12943510711 0.98780822754
0.0483353585 -0.088539406657 0.99483120441
0.02196219191 -0.1337210387 0.99076849222
0.10422616452 -0.060829199851 0.99268400669
-0.019147586077 -0.091140925884 0.99565458298
-0.54871296883 0.42278957367 0.72119468451
-0.48538696766 0.39455449581 0.78020960093
-0.4553078115 0.47834020853 0.75090557337
-0.54673969746 0.34524387121 0.76281511784
-0.41763612628 0.41537517309 0.80810922384
0.092726841569 -0.20078110695 0.97523903847
0.12581558526 -0.16303449869 0.97847127914
0.057687167078 -0.16937719285 0.98382472992
0.68024146557 0.35865390301 0.63912010193
0.22498163581 0.64364600182 0.73150408268
0.2573106885 0.5822147131 0.77121406794
0.29980430007 0.64040893316 0.70692658424
0.31798818707 0.59148448706 0.74091142416
0.36517384648 0.53701543808 0.76032203436
0.4046177268 0.63119202852 0.66166955233
0.46701404452 0.57778531313 0.66928714514
-0.57216304541 0.7706618309 0.28057435155
-0.51379430294 0.79815286398 0.31387513876
0.42947795987 -0.22379882634 0.87476581335
0.44922611117 -0.18204380572 0.87466287613
0.39388933778 -0.19250614941 0.89875102043
0.95814627409 0.20136846602 0.20290867984
0.97304582596 0.21882921457 0.070412769914
0.93506366014 0.30672833323 0.17720137537
0.93975412846 0.33699291945 0.057178273797
-0.046454295516 0.45468661189 0.88943791389
0.49076423049 0.45303571224 0.74423187971
0.43593287468 0.45298877358 0.77767139673
0.64096051455 0.36479893327 -0.67460024357
0.51929885149 0.24480058253 -0.81876367331
-0.59388613701 -0.066671006382 0.80178046227
-0.54964691401 -0.12361446768 0.82618975639
-0.53594309092 -0.06810413301 0.84143012762
-0.5882961154 -0.1680431962 0.7907012701
-0.6168025136 -0.12777449191 0.77638757229
0.9043930769 0.17660312355 -0.38811391592
-0.71998602152 0.67054098845 0.17829559743
-0.59600973129 0.57047092915 0.56494110823
-0.6797799468 0.48758164048 0.54774367809
0.98254626989 0.12122532725 -0.13636909425
0.97786855698 0.10745711625 0.17862296104
0.88002586365 -0.41054999828 0.23860006034
0.91133642197 -0.25937375426 0.31944996119
0.071670405567 0.88588821888 0.45826748013
-0.048785921186 0.88150405884 0.46925997734
-0.34696465731 -0.72410595417 0.59572291374
-0.32146754861 -0.68207478523 0.6567799449
-0.3964767158 -0.65114724636 0.64715045691
-0.01515095029 0.27757546306 0.96052998304
-0.0280723162 0.22731052339 0.97341144085
0.030154379085 0.23158156872 0.97234320641
-0.06468039006 -0.21513690054 0.97444701195
-0.039001367986 -0.15494021773 0.9871416688
-0.095817290246 -0.16453722119 0.9816853404
-0.076568096876 -0.10593850166 0.99138861895
-0.055996257812 -0.050125885755 0.99704706669
-0.26709321141 -0.75362753868 0.60030913353
-0.31760978699 -0.7904009819 0.5237929225
-0.374630481 -0.19652426243 0.90605580807
-0.40561446548 -0.14621219039 0.90219926834
-0.44075661898 -0.19234803319 0.87671488523
-0.42548447847 -0.25303333998 0.86858689785
-0.49881994724 -0.25636065006 0.8277310729
-0.56517875195 -0.24231867492 0.78857463598
-0.53053927422 -0.3179448843 0.78576427698
[...]
CELL_DATA 3328
SCALARS cell_data_0 double
LOOKUP_TABLE default
3.15967614174e-09
5.30025726021e-09
2.57212564722e-09
1.28506975223e-09
4.08338027129e-09
2.9099262751e-09
1.77914510313e-09
3.59524249414e-09
3.30959266234e-09
1.20000161456e-09
1.71273003344e-09
1.15414805527e-10
4.69394811961e-09
1.21878183176e-09
1.3997532543e-09
9.12104564765e-10
5.82432651161e-09
3.70649381163e-09
4.10849344773e-10
6.21896840361e-09
3.64498405105e-09
1.52535264986e-09
1.9964371304e-10
4.54368386444e-09
6.83699592117e-09
6.71407518237e-09
1.59509752426e-09
2.74295025116e-10
6.10482963049e-09
1.49125841614e-10
1.08181927472e-09
2.33025598371e-09
7.33329490377e-09
2.29569354898e-09
3.74065001229e-09
3.55379253232e-10
1.91042947749e-09
7.54886517019e-09
1.91026026603e-09
5.11624916464e-09
1.75574950878e-09
6.32289466807e-09
9.52413491084e-09
7.02326851393e-11
3.16821108122e-09
1.18672205113e-08
1.0427038207e-09
1.16988795208e-09
3.53937762977e-09
3.07590332249e-09
6.84793939314e-10
5.68639347147e-09
1.57976853436e-09
8.55188563834e-09
4.54412506183e-09
1.45247160121e-08
4.16198080356e-09
1.97120141975e-09
5.94413990699e-09
6.01338893259e-09
9.19823509532e-09
8.6598695693e-09
1.09837333956e-10
5.96801499485e-09
2.40555834276e-09
8.73437749852e-10
2.75565964993e-09
2.91000287385e-09
4.67841897286e-09
3.24662851806e-10
2.57410108199e-09
1.08159587304e-09
6.12203161343e-09
3.43964124966e-09
3.23325982902e-09
1.40727978846e-09
4.7981338925e-10
4.835192196e-09
1.82115859882e-09
1.07502913992e-09
3.90923007278e-09
7.92788731469e-09
2.66519327603e-09
1.15417508951e-09
8.89385403618e-09
2.54577054e-09
4.01963993553e-09
1.86632786017e-09
1.407673615e-08
1.49535187979e-09
4.91825487977e-09
1.60503259438e-09
4.24902873546e-09
4.21349713083e-10
1.5468934646e-09
1.4090071063e-09
1.22400460982e-09
3.19448665613e-10
4.89489357226e-09
1.57513323315e-09
6.48972862887e-10
5.16029486669e-10
1.37170238537e-09
3.68891700771e-10
1.63534936116e-09
1.31967902657e-09
5.08909739098e-09
8.91237686443e-10
1.17110464784e-09
1.2783322801e-08
4.27996141793e-09
1.40201493509e-08
3.78528606245e-09
3.91856142763e-09
6.65344485995e-09
1.93874511447e-09
8.091126155e-09
1.14506528776e-09
6.02767644161e-10
3.53671889528e-09
5.80194514103e-10
1.11353518539e-10
7.86162207011e-09
1.16241292353e-09
1.15445386494e-08
3.79787625689e-09
5.7876578368e-09
1.0400188297e-08
9.82308019724e-10
3.60960397611e-09
2.69168503476e-09
3.46370221142e-09
2.14879636001e-09
6.69802078102e-09
4.82535496882e-09
4.2160819836e-09
9.90592521961e-10
2.69021993635e-09
3.21468807611e-09
2.44389780497e-10
9.54773329185e-09
3.8317481334e-09
2.45635066327e-10
3.57250276877e-11
2.44815237644e-09
4.98471756059e-10
9.69876578479e-10
6.11360272423e-10
2.93540285916e-09
6.42454033e-09
4.21450607406e-09
9.08013359166e-09
1.15219583248e-08
1.70343457031e-09
2.74502882069e-09
5.06449502084e-09
3.67567237559e-09
5.30279017529e-09
4.43500836024e-09
8.98266448296e-10
8.56179857678e-09
5.63107442711e-09
3.72933702176e-09
8.15525142012e-10
3.98443764834e-09
7.83962196478e-09
4.87666130451e-09
3.95590694698e-09
1.35240357074e-10
6.47925301936e-10
6.48874789513e-09
3.1997218581e-09
1.90881819901e-09
5.16216912913e-09
1.50860082419e-09
2.4450540777e-09
1.32225209084e-09
9.04404136841e-09
5.45577360737e-09
6.6417227339e-09
3.57238373674e-09
3.28541729649e-09
7.11850646906e-09
3.67687357948e-09
1.8007537354e-09
7.15279316481e-09
4.04621754351e-09
5.89475869725e-10
1.67419326727e-10
5.34209284016e-09
2.43335621585e-09
2.3662777738e-09
3.66932514025e-09
4.47860039597e-09
3.10735328546e-09
2.01953571631e-09
1.76601015708e-09
3.58037020594e-11
1.92515469551e-09
3.80554102543e-10
1.91383178432e-09
3.72675786903e-09
3.64142185382e-10
2.67771121531e-10
5.69012768442e-10
7.24535111967e-09
6.08968263472e-09
2.43460049534e-09
3.44879742044e-09
2.85903666605e-10
5.44514533043e-09
1.30795810223e-09
3.88887823352e-09
1.66206040616e-10
3.90967739261e-09
2.54745846931e-09
3.51230675881e-09
3.40332501369e-09
3.86735850053e-09
5.15653568813e-09
2.35871574957e-09
4.56691766652e-10
1.60744110001e-09
1.33114631257e-09
3.31118015477e-09
6.01352718914e-10
3.34382253031e-09
8.55226526514e-10
1.1143637723e-09
5.09966386259e-09
2.52858820357e-09
2.93900090418e-09
2.54591776814e-10
5.19485493234e-09
5.33852097625e-09
2.44034557935e-09
2.62241070644e-09
1.75324337743e-09
4.14125924904e-09
2.93529721776e-09
2.70600160817e-09
5.79747142222e-09
1.55633339428e-09
7.62973824771e-10
1.27369783215e-10
1.34791606786e-09
2.97176884281e-09
2.68213643405e-09
3.50906833985e-09
1.27766033355e-09
1.78895650388e-09
6.93258002874e-10
4.85168287954e-09
5.58281123336e-09
4.40528708606e-10
8.35741944105e-10
8.34788572265e-09
1.06705613344e-09
4.75828841416e-09
2.68829069713e-09
4.01531393048e-09
9.86244654802e-10
4.25452472378e-09
2.4390033653e-09
5.50843357852e-10
3.57991727637e-09
6.1545307694e-10
3.65649516465e-09
3.34031682961e-09
6.48669309958e-10
7.14677593631e-10
4.81194930829e-10
2.05126041958e-10
4.55270818515e-09
2.56077023855e-09
3.29423867054e-09
2.01335081309e-09
6.95272677168e-10
3.13628960696e-10
1.83788630438e-09
5.36406839914e-09
4.04217464769e-10
6.94023149369e-09
3.23067151989e-09
1.45304825118e-09
1.59161532596e-09
2.38516031753e-09
4.49009593915e-09
1.45171144614e-10
1.27747330637e-10
2.88614636553e-09
5.88727253298e-09
3.5560585026e-09
1.5186054149e-10
5.81318058312e-09
1.09400337022e-09
1.41739293879e-09
4.88447517277e-09
1.26865246519e-09
7.33391151127e-09
6.80501398757e-09
6.26820537459e-10
2.67557741235e-09
2.74064702387e-10
1.07255895152e-09
1.3584939892e-08
4.79160998086e-09
2.6168276719e-09
5.98427541935e-09
4.37642323751e-09
6.21067287803e-09
1.54843395163e-09
1.82452670298e-09
9.3579094216e-10
6.56025495459e-09
4.05761971423e-09
1.98983671347e-09
5.55357471945e-09
4.45963003621e-09
3.40338588477e-09
8.71721987865e-10
4.1266989027e-09
5.11361719035e-09
1.77816866027e-09
6.18447453985e-09
7.32211415911e-09
2.90934960148e-09
3.36294922979e-09
2.55850060217e-09
1.94117442906e-09
1.16164385759e-09
3.66421294169e-09
7.14118685857e-10
7.93937500851e-09
7.68528953554e-09
2.7984565239e-09
3.52324766194e-09
5.53649041839e-09
1.84687327988e-09
1.55824232867e-09
1.02549149586e-09
1.48758549585e-09
7.02055772136e-09
2.26736605008e-09
2.72873773773e-09
4.44670239662e-09
2.70421878201e-09
5.14885396481e-09
9.72140603242e-09
2.72437697109e-09
3.21335182536e-09
6.13976740343e-09
1.72096590252e-09
6.66108756234e-10
3.88284637664e-09
5.44063063873e-10
5.48546286375e-09
9.76821308753e-10
4.60006154675e-09
2.05630594705e-09
4.22355023771e-10
3.65078696482e-09
3.75124022411e-09
4.48408992335e-10
7.95362786353e-10
3.6094124244e-09
4.39633544681e-09
1.19372603664e-10
9.48783887204e-09
7.39270417654e-10
3.9093831659e-09
7.74252321227e-09
6.63427756427e-09
3.27055046604e-09
1.75377892208e-09
1.94621672507e-09
3.38231216039e-09
6.58925174434e-10
1.29390130216e-10
8.75138731406e-10
9.88212637027e-10
8.51946577471e-10
1.44726199318e-09
2.99454525703e-10
1.48476439208e-09
5.64375737342e-09
1.72239311473e-09
3.80340177347e-09
2.66440689113e-09
3.04885973561e-09
2.1382835692e-09
7.56845240356e-10
2.51712659593e-09
5.15957255771e-09
8.37184108847e-10
3.38932958249e-09
1.14911979773e-09
3.56223499801e-10
4.12288283181e-09
3.17551293715e-09
6.33954140434e-09
4.1827380885e-10
1.78942763966e-09
2.81360658731e-09
4.09208042058e-09
3.15014642479e-09
1.95970665116e-09
2.67833858514e-09
3.72289571099e-09
4.78743275012e-09
9.29474365535e-10
9.45383046547e-09
3.22356154411e-09
1.6193981825e-10
4.30207039348e-09
4.32782683639e-09
1.87500993585e-09
4.02204597439e-10
6.0376876986e-10
1.85267372767e-09
1.53115607265e-09
1.15703625743e-09
5.48565404957e-09
1.08204731263e-09
2.31606998869e-09
2.29313896099e-09
8.38685450492e-09
2.82086578464e-09
6.67382308844e-09
3.86819118354e-10
2.4877578528e-09
5.85979082866e-09
3.27867522755e-09
1.08620344618e-09
5.67563595687e-10
5.85399421476e-09
1.31694373665e-09
1.33011712599e-09
2.06315666486e-09
1.04734112609e-08
7.44506936471e-09
3.27982108882e-09
4.34663043129e-09
8.25088452268e-09
3.3272213337e-09
3.96739193291e-10
1.5047524237e-09
4.31080674749e-09
2.98572952811e-10
3.22485645675e-09
5.3469018224e-10
2.1586350723e-09
6.19136816023e-10
1.64666925139e-09
2.38510445637e-09
1.10962480917e-09
1.57685898644e-10
4.89280330147e-09
7.63036814087e-09
2.66670970774e-10
1.82423640063e-09
2.12464490848e-09
5.62505910835e-09
7.90870938029e-10
9.95989774241e-09
5.23505864175e-09
1.40696222771e-09
2.07227244006e-09
4.09074356386e-09
2.24052008182e-09
5.30618256037e-09
7.30292243315e-09
1.35302168746e-09
1.32851127253e-09
8.36906312504e-10
3.50608119102e-09
5.23044702481e-09
2.32659880276e-09
5.54905539423e-09
2.67946497361e-09
3.34337856062e-09
9.52782036205e-10
5.48684410284e-10
5.23215941235e-09
5.3345515093e-09
2.38656652949e-09
6.81562544808e-09
4.54258773848e-09
3.03951520074e-09
2.3329654434e-09
5.5017326726e-09
1.08485386946e-09
3.84743222888e-09
2.47566843017e-09
1.46832199443e-09
1.75405762375e-10
1.06529176792e-09
8.33572957513e-10
1.56331473411e-09
2.44585007408e-09
4.80367456868e-10
3.2475481756e-09
9.01190539148e-10
2.45805814065e-09
2.00433975458e-09
3.17755659518e-09
9.19112181395e-10
4.16261585549e-09
6.65122116603e-09
7.41393990811e-10
2.05221195178e-09
4.44397934141e-09
2.88230382852e-09
1.80311723676e-09
1.59753114544e-10
3.62647446412e-09
4.7144747909e-09
8.0800499391e-09
1.78531821017e-09
2.97343329562e-09
7.22210278098e-09
2.55018012252e-09
2.04182068962e-09
5.88222714345e-09
1.10796907994e-09
8.70629359622e-10
1.20488212883e-09
3.18609205378e-10
9.14693133157e-10
5.05204223288e-09
2.76933260544e-09
2.51994385511e-09
1.62208778428e-09
1.92012612356e-09
6.78610313667e-09
2.71018951513e-09
8.90971405041e-10
3.43848169161e-09
3.44077031763e-09
2.09302625066e-09
1.96405982471e-09
1.30215679676e-09
8.68503460619e-10
7.24388252434e-11
9.24824253242e-10
2.71391476012e-09
3.21467867291e-09
1.60743407837e-09
1.57340445847e-09
8.76857187052e-09
1.22437533713e-09
3.96084011829e-09
1.90448787203e-10
8.63522432638e-10
3.11226992214e-09
2.61790616597e-09
1.21598490064e-09
3.37558183076e-10
7.3629328617e-10
1.06666833001e-09
1.13908059721e-09
2.12531549782e-09
2.74571288375e-10
1.43472786638e-09
5.48483847252e-10
1.02767620199e-09
1.91343889538e-09
3.79786216241e-09
4.900798879e-10
2.21397382403e-09
2.16046874498e-09
3.36765779816e-10
2.29517612874e-09
5.78599496965e-10
1.50725088674e-09
3.64798584312e-09
4.60654015824e-09
5.5420993672e-09
3.45213741398e-10
5.05949642802e-10
3.10160946163e-09
2.99810070204e-09
2.97620735759e-09
1.50523247609e-10
4.23119632566e-09
1.05926878319e-09
5.38808634008e-10
9.45024427968e-10
1.39368233364e-09
2.50278424364e-09
1.26151697194e-09
2.37712292493e-09
2.57237399408e-09
1.31253207062e-09
1.83052441726e-09
1.8995617731e-09
3.31017011993e-10
2.73142717219e-09
1.437487551e-09
7.75216450618e-10
3.302914285e-09
1.20996051088e-09
3.49423566296e-09
3.88175999195e-09
3.0810092947e-09
2.22923076169e-09
2.91450167043e-09
2.93519877021e-09
4.88343896021e-09
4.24441622219e-09
6.75402519974e-10
1.17405223295e-09
6.41672108982e-10
1.3840041892e-09
1.6591279236e-09
1.08280148935e-09
3.31864554258e-10
3.71851063841e-09
3.92931654821e-09
9.27901419462e-10
2.63064259366e-09
1.96025813019e-09
1.02925279826e-10
1.16934875805e-09
5.23510493143e-09
2.82653909355e-09
4.23609439577e-10
3.08021597324e-09
2.46806140633e-09
2.27322639883e-09
4.95135205933e-09
2.37288595264e-09
2.48890141494e-09
1.01712297558e-09
1.82205018372e-09
3.46432847229e-09
1.04387064746e-10
5.71742943049e-10
1.08913354997e-09
8.14637092447e-10
1.53436749126e-10
3.59073473551e-10
5.98100039616e-09
6.38639846603e-10
1.48673040033e-09
2.90819348983e-09
1.03567547649e-09
4.36377745697e-09
6.98035360025e-09
6.5876125614e-09
6.57151177465e-09
7.51709158885e-10
6.63020139876e-09
1.16166036787e-09
2.02231333139e-09
8.29022044569e-10
1.22771626854e-09
7.92403777582e-10
6.76901750051e-09
1.73957810915e-09
7.12711290399e-10
1.39660287359e-09
1.92116326278e-09
7.91166384962e-11
2.7756604566e-09
4.00762006098e-09
6.71091631772e-09
4.75301503816e-09
2.83791184893e-10
2.71523312164e-09
3.12552671321e-09
1.99772075344e-09
2.17472255462e-09
3.3875640622e-09
2.635545525e-09
4.78427421534e-10
1.02570387646e-09
1.59209637625e-10
5.26814543751e-10
8.8123608477e-10
4.01128536761e-10
1.39756759739e-09
1.88454784382e-09
2.26723762498e-09
1.67425441759e-09
3.75079573642e-10
2.60388268766e-09
3.93500292845e-09
5.7042728646e-09
1.41449373847e-09
9.18378637505e-10
3.21843063376e-10
3.68353860734e-09
5.03379841651e-09
1.32461952116e-09
3.65535134679e-09
3.71244988413e-09
3.41850910247e-09
8.24469550209e-09
2.14180693422e-09
1.07537853335e-09
4.56581083916e-09
6.20792461705e-10
2.47284683979e-09
3.59133910455e-09
6.2604755699e-09
2.88413570298e-09
6.22102069581e-09
1.79296654203e-09
2.54585860022e-09
1.41288184112e-09
1.69143251959e-09
2.26049802853e-09
1.47982821503e-10
4.95674830521e-09
1.99278996958e-09
6.81552221007e-10
2.34661896031e-09
6.09468721014e-10
1.27129230877e-09
3.63512213281e-09
5.01973439742e-09
5.13545505925e-09
3.94123817252e-09
5.84127819424e-10
5.06003479674e-09
1.27179675727e-09
8.35116912391e-10
1.20961992034e-08
4.96967954902e-09
5.31054191196e-10
3.5059172501e-09
2.85281362342e-09
2.14801912424e-09
4.29783550602e-09
5.20048663387e-11
1.68621474028e-09
3.62046649755e-09
5.02105530186e-10
1.15190126021e-09
1.84224203052e-09
2.47169177892e-09
6.28064658182e-09
2.87863861166e-11
2.83327881768e-09
8.20132671492e-11
1.18253012717e-10
3.78549084947e-09
3.46636554785e-09
8.55895737503e-10
1.85644200309e-09
9.99685756422e-10
5.36107708714e-10
2.46721288319e-09
1.64837473325e-09
8.72917684467e-10
5.98925754369e-09
1.83491592409e-09
6.07953952046e-09
2.71480254889e-09
2.35845919663e-09
1.70757795187e-09
5.99123858658e-09
5.25189179194e-09
5.14974136739e-10
2.59405885197e-09
3.26849182619e-09
1.5146797734e-09
3.44794910778e-09
1.03526782446e-10
2.88888841563e-09
3.89671977534e-09
2.96665302397e-09
4.5538255344e-10
2.15924594721e-09
2.31477915796e-09
4.67846640085e-09
2.34521729865e-09
6.68699813942e-10
2.53241687458e-09
2.63898502302e-09
8.53562431244e-09
3.80701688675e-09
4.66386808789e-09
3.76849026322e-09
8.59807352645e-10
1.47642269393e-09
1.23424581335e-09
1.94181043699e-10
5.63840115244e-10
9.1163201428e-10
2.45322019662e-09
6.62476594827e-10
5.09578427881e-09
8.79496650987e-10
2.43141367472e-09
2.81417962022e-09
3.54669038832e-09
3.56913904608e-09
2.50812168364e-09
8.65960144312e-10
3.99635533376e-09
4.03569361691e-10
2.15282829865e-09
2.2646160772e-09
2.20579230931e-09
2.62120529066e-10
5.66197762027e-09
1.91795995257e-09
6.36629776699e-10
1.25621081238e-09
1.13633734348e-09
4.02541989689e-10
4.36908966699e-09
3.76501074929e-09
4.04443957098e-09
3.48073906429e-09
1.53076554542e-09
2.5229964353e-09
1.2960534069e-09
2.51812897001e-09
1.59795188255e-09
4.34978278302e-09
5.31922843695e-09
1.09985895073e-09
4.65656363952e-09
5.60329815535e-09
1.62695687568e-09
3.63182698396e-09
2.86736266334e-09
6.26915964559e-10
4.16069868677e-10
2.91127018532e-09
1.83124940953e-09
3.22434818884e-09
1.8767753648e-09
5.7944905209e-09
2.49104794717e-09
2.48657553955e-09
1.3818026047e-09
2.76925010457e-09
3.1652795313e-09
7.11346388269e-09
3.80016151211e-09
1.81512132687e-09
4.15889756605e-09
1.01842271791e-09
1.57739598144e-09
2.69069545132e-09
2.70357849079e-09
3.42151630621e-09
5.98042108297e-10
1.77200976243e-10
3.25057057181e-09
3.57596607007e-10
4.86170738502e-10
1.36918646718e-09
9.01818058886e-10
3.1305492421e-09
5.45864345831e-10
6.19170021649e-09
1.9769538773e-09
2.0443530986e-09
3.29100865924e-09
6.31755229141e-09
2.71285379774e-09
1.6879031119e-09
1.6699041459e-09
1.65874484266e-09
8.80173634489e-10
3.40911365169e-10
1.53720483074e-09
1.35620100283e-09
5.22185929582e-10
2.74676602788e-09
2.37963871107e-09
2.35491573746e-09
1.75661025523e-09
4.45384053097e-09
3.82789282939e-10
1.71655488432e-09
1.37411629481e-09
4.53486599008e-10
8.87055698213e-11
1.88699582226e-09
2.27979720039e-10
2.02506427034e-10
5.39546117375e-09
3.15112190911e-10
6.50188440927e-09
4.67255481408e-09
3.07475525505e-09
9.50818052061e-10
2.45531885035e-09
3.43415436905e-09
6.65907433395e-10
2.17539040679e-09
1.37437008845e-09
2.21272722262e-10
5.08252913636e-09
5.96598407363e-09
5.9225435042e-09
9.57827047899e-09
5.36686604197e-09
2.54940267801e-09
3.54645266994e-11
2.97712595509e-11
6.74945067745e-10
1.52413292371e-09
4.40184558463e-09
4.03421385596e-09
4.99970090351e-10
1.32829082486e-09
6.1213352712e-10
6.19440145205e-09
4.54729798954e-09
7.75926095661e-09
1.67238729777e-09
1.25708975052e-09
6.07493544494e-10
3.75447571097e-09
1.70750972939e-09
5.38796993382e-09
1.36111656257e-09
4.85036558281e-09
2.4680621737e-10
1.27349085121e-11
1.15260560856e-09
3.75031174459e-09
2.8402714954e-09
2.43004310164e-09
2.31205029139e-09
1.25500100287e-09
2.16875538539e-09
1.90511360366e-10
2.23879288218e-09
4.61448749638e-09
7.05784262422e-10
3.71052306946e-09
6.91480031915e-09
3.49780604881e-09
3.54833925338e-10
2.55068040541e-09
8.49479926505e-11
4.03393478522e-09
2.43326935828e-09
4.0950106822e-09
7.04477129208e-10
1.76302347765e-09
3.70043813076e-09
2.48353034176e-09
1.76993954572e-09
4.64282464228e-10
2.79558223154e-09
3.54853148945e-09
1.95489986252e-09
2.57425503846e-09
1.7122405076e-09
1.42522634669e-09
6.40001134351e-09
6.74059384417e-09
3.1728377537e-09
2.09112417786e-09
1.57490689991e-09
7.6424250894e-09
4.13991044145e-09
3.37083603027e-09
3.00865854047e-09
7.54355150172e-09
4.90161868111e-09
1.72301703956e-09
1.09226484187e-09
2.0774279658e-09
9.22424865932e-09
1.02694175356e-08
4.89609195126e-09
4.94748169355e-09
7.21889306309e-10
5.89997175821e-09
5.72323740968e-10
2.12758593334e-09
5.10737088228e-09
1.28580956337e-09
1.19247525369e-09
6.66272398928e-10
3.68107046598e-10
9.45465478417e-10
3.50868759613e-09
1.85568438278e-09
7.59888289016e-09
1.09248520434e-09
6.58882428343e-10
3.54737449877e-09
1.84381476915e-09
5.71764788002e-09
5.03151650228e-09
7.28945279817e-09
3.75770496249e-09
2.30948645661e-09
3.13413115382e-09
6.10237013413e-09
4.06657476996e-09
1.16841244598e-09
7.26357335709e-11
6.78990731256e-10
8.84717995468e-10
3.7846319181e-09
3.05074167571e-10
2.78117199329e-09
4.11555002114e-09
5.06241915799e-10
1.7955812809e-09
4.52411651991e-09
3.12931115676e-10
3.640295016e-10
7.90421659906e-10
3.31728480842e-09
3.3100371569e-09
7.32284988127e-11
1.99564204946e-09
4.49104441371e-10
1.39192103188e-09
1.29406922458e-09
2.79933309738e-09
2.52591535602e-09
3.11823732731e-09
3.08112536578e-09
1.5076729245e-09
3.45243628394e-09
1.97867777334e-09
5.31695779223e-10
2.38966357583e-10
1.26306180761e-09
8.63392960818e-10
1.15331223065e-10
8.1627454377e-10
7.2549143535e-10
3.29908590704e-09
6.23001163423e-09
7.38663999739e-09
5.7654116585e-09
2.86561740284e-09
4.68139087091e-09
2.28872934003e-09
5.79878419764e-09
5.07393297382e-09
7.20595994069e-10
1.15551489107e-09
1.5182714345e-09
1.45507193721e-09
2.4738354683e-09
4.10111808053e-09
3.66667470407e-10
1.18909500949e-09
1.32822651168e-09
2.19052556122e-09
3.79816599327e-09
3.55073768211e-09
1.33150983553e-09
3.78277540501e-09
3.06694251091e-09
1.85051081255e-09
2.11910210612e-09
1.40570256354e-09
2.52191037025e-09
1.36314051239e-09
3.02482124811e-09
2.62261055547e-10
2.72693814406e-09
6.31307623541e-09
1.7138379978e-09
2.83006790384e-09
2.25144829655e-09
2.79930264705e-09
3.39798477868e-09
2.56169580207e-09
5.24736901937e-10
3.65047141854e-09
1.03767950733e-09
5.24829251938e-10
2.64297207007e-10
9.20804193938e-10
3.30198981307e-11
7.36362312872e-10
1.17430568746e-09
2.83795721444e-10
4.1026633579e-09
1.1746698137e-09
1.35297434119e-09
1.90110321394e-09
1.37300982906e-09
2.14119119782e-10
4.80479604756e-10
1.81232279164e-09
1.7133067983e-09
2.374241802e-10
1.44475942798e-09
1.64609887144e-09
2.56655150242e-09
2.50600636974e-09
1.44066843746e-09
1.8965522239e-09
2.74679973324e-09
7.68071680627e-10
3.55487328958e-09
1.26463624361e-10
1.64945076087e-09
9.43767685363e-10
4.89289128857e-09
8.74858803608e-10
9.07069093469e-10
3.9394058665e-10
1.5854488453e-09
2.18115378646e-09