# vtk DataFile Version 3.0
File Name: Molecule/sphere_excent/sphere_excent_0-s18.vtk
ASCII
DATASET UNSTRUCTURED_GRID
FIELD FieldData 1
TIME 1 1 double
0.0
POINTS 296 double
0.86927855015 -0.4918178916 0.010649435222
0.81110823154 -0.30245283246 -0.49657723308
0.98822116852 -0.0077009620145 -0.14249736071
0.80811941624 0.29337090254 -0.50699579716
0.52491188049 -0.00036268227268 -0.85118794441
0.86974930763 0.48692944646 -0.075434193015
0.29337060452 -0.49172574282 -0.81769615412
-0.00031180871883 8.7159860414e-05 -0.99993675947
-0.3067137301 -0.49726825953 -0.81174063683
0.0046045440249 -0.84363949299 -0.53704243898
-0.52575469017 -0.00032171144267 -0.85062295198
-0.022916335613 0.83670699596 -0.54529595375
-0.30776265264 0.49492514133 -0.8126026988
-0.51963341236 0.76096731424 -0.38766974211
-0.79990315437 0.32077357173 -0.5034455061
-0.81031024456 0.58256173134 -0.056936003268
-0.79979509115 -0.32526284456 -0.4994584024
-0.46724751592 -0.79296910763 -0.3909958601
0.4689066112 -0.80567038059 -0.35701924562
0.089096061885 -0.98713195324 -0.10628755391
0.29441615939 0.49759164453 -0.81404709816
-0.49049624801 0.016071051359 0.87069940567
-0.46361553669 -0.13577088714 0.87537711859
-0.3467887342 -0.019533343613 0.93741238117
-0.74724763632 0.21478225291 0.6288190484
-0.85645020008 0.30811822414 0.41421285272
-0.86735445261 0.064888991416 0.49192866683
0.28075134754 -0.59227883816 0.75503671169
0.18816620111 -0.47384923697 0.86025393009
0.10034137964 -0.57592344284 0.81092602015
0.31346231699 -0.034622654319 0.94888669252
0.33743968606 -0.2189565599 0.91512089968
0.47215697169 -0.098634369671 0.87598091364
0.34408667684 -0.4412996769 0.82827413082
0.40850457549 0.079428210855 0.90874356031
0.16743282974 0.28863823414 0.94266724586
0.25273415446 0.14538829029 0.95654326677
0.30873551965 0.28312775493 0.90790975094
0.091783732176 0.42373022437 0.90101629496
0.247520715 0.42332333326 0.87148153782
0.55827462673 0.061052314937 0.8274012804
-0.74571430683 0.57994425297 0.32734429836
-0.55128788948 0.79801762104 0.24147589505
0.95102149248 -0.19226001203 0.23523016274
0.80428642035 -0.42548176646 0.41243264079
-0.09205250442 0.17960013449 0.97943925858
0.073775887489 0.15171027184 0.98564696312
0.023649755865 0.28413444757 0.95849096775
-0.71651721001 0.44121864438 0.54033213854
-0.602201581 0.62749499083 0.49357458949
-0.54457944632 0.49984306097 0.67301434278
-0.42463245988 0.68556761742 0.59063690901
0.097769141197 -0.69169205427 0.71351867914
0.34372931719 -0.70720094442 0.61300814152
0.47687369585 0.81076782942 0.33895885944
0.31680136919 0.93493968248 0.15578055382
0.27691936493 0.88355273008 0.37597456574
0.024403244257 0.96159332991 0.27334347367
-0.85132735968 -0.51965802908 -0.043026469648
-0.94060069323 -0.1592912674 -0.29928949475
-0.48051306605 -0.83004921675 0.27692559361
-0.28973218799 -0.94464981556 0.15375588834
-0.2206056267 -0.90116244555 0.37257096171
0.030406225473 -0.96369928122 0.26338475943
0.07445050776 -0.86307621002 0.49716460705
-0.96140050888 -0.17566873133 0.21163722873
-0.95932477713 -0.2813153863 -0.014857471921
-0.87151253223 -0.45717921853 0.1760814935
-0.99647724628 0.0046426011249 -0.076288074255
0.38223016262 -0.83638954163 0.38793730736
0.24108810723 -0.94290781021 0.22747167945
-0.96463620663 0.14717972279 0.21792937815
-0.18658398092 0.27053326368 0.94445359707
-0.2924502492 0.28624010086 0.91241204739
-0.25542703271 0.17630624771 0.95030945539
-0.37405663729 0.159047544 0.91251510382
0.017994485795 0.84531456232 0.53356522322
-0.19851973653 0.88667958975 0.41599458456
-0.27575716376 0.9528631568 0.12633043528
-0.0049715214409 0.99812555313 -0.055226661265
-0.27324667573 0.94384002686 -0.18519818783
-0.52892053127 0.84753000736 -0.045351546258
0.69733476639 0.70312613249 0.13201619685
0.86161243916 0.45618993044 0.22242382169
0.74577510357 0.55961453915 0.36139765382
0.84679329395 0.32189571857 0.42397791147
-0.95581102371 0.29273116589 -0.023613918573
-0.93907767534 0.1630295366 -0.30177769065
-0.69741642475 -0.69515770674 -0.17403124273
-0.7104061842 -0.68911004066 0.13648866117
-0.54959082603 -0.83531677723 0.010102935135
-0.89099550247 0.41270002723 0.18883183599
-0.18043157458 0.415928334 0.89117926359
-0.31306153536 0.53372824192 0.78442746401
-0.11381501704 0.55182600021 0.82541435957
-0.048416078091 0.40544119477 0.91273760796
0.9524616003 0.19636774063 0.22745411098
-0.18869540095 -0.82337069511 0.53505980968
-0.11385443807 -0.74881964922 0.65227651596
-0.29698488116 -0.7439866066 0.59852296114
-0.23154015839 -0.67753309011 0.69805145264
-0.43151548505 -0.6546432972 0.6205586195
-0.40174159408 -0.78329610825 0.47443801165
-0.089842073619 0.30863770843 0.94690865278
-0.11136711389 -0.64877015352 0.75266844034
-0.058430124074 -0.21790415049 0.97419518232
-0.018006782979 -0.086654402316 0.99603462219
-0.14454388618 -0.12655894458 0.98128139973
-0.62994754314 0.10688430816 0.76786088943
-0.73879283667 0.03254634887 0.67297506332
-0.62263172865 -0.0919181481 0.77633202076
-0.73860871792 -0.11392214149 0.66443306208
-0.84090232849 -0.10055048764 0.53159821033
0.49035841227 0.5633893609 0.66482937336
0.58179342747 0.64595901966 0.49440890551
0.45178967714 0.71838885546 0.52897721529
0.67472684383 0.51156014204 0.53194975853
-0.31704193354 -0.59509497881 0.73839122057
0.61956304312 -0.090120762587 0.77965915203
0.58687311411 -0.20458948612 0.78345304728
0.68883955479 -0.21473842859 0.69171857834
0.63319730759 -0.32575708628 0.70190048218
0.50789427757 -0.29109683633 0.81051659584
0.40378201008 0.44296637177 0.80007869005
0.29608955979 0.53820967674 0.78889197111
-0.058482985944 0.054108563811 0.99678474665
-0.12815055251 -0.031303863972 0.99120491743
-0.16879235208 0.058252409101 0.98365867138
0.6294400692 0.70259678364 0.33069118857
0.51753234863 0.84597820044 0.12756104767
0.60993301868 0.43276923895 0.66349369287
-0.58734327555 -0.65348482132 0.4766395092
-0.55116355419 -0.53645294905 0.63891261816
0.069431856275 -0.21968699992 0.97304236889
0.10250452906 -0.069076061249 0.99223482609
-0.33462831378 -0.19726668298 0.92138558626
-0.43003863096 0.40813177824 0.80518567562
0.44046998024 -0.8807169199 0.17389288545
0.5788820982 -0.75280785561 0.3124756515
0.55870699883 -0.67446231842 0.48122876883
0.70123380423 -0.6125446558 0.36191946268
0.67709559202 -0.7303377986 0.090547792614
-0.42891854048 -0.27086132765 0.86167234182
-0.31559804082 -0.31405997276 0.89528053999
-0.40626120567 -0.37497621775 0.83320832253
-0.37887832522 -0.46188557148 0.80191475153
-0.48707851768 -0.45101895928 0.74785971642
-0.42857021093 -0.54652673006 0.71945601702
-0.51515519619 -0.34404328465 0.78500431776
-0.60236346722 -0.41597521305 0.68124699593
-0.61669015884 -0.30956602097 0.72377312183
-0.55463987589 -0.22687748075 0.80048686266
-0.67628705502 -0.46388155222 0.57201421261
-0.71486383677 -0.33531090617 0.61354440451
-0.80227661133 -0.36626154184 0.47017171979
-0.79315263033 -0.22682879865 0.56514799595
-0.67839187384 -0.2162886709 0.70209437609
0.12210483849 -0.35501402617 0.92683917284
0.018985565752 -0.47566065192 0.87940663099
0.20012503862 -0.25235122442 0.94671553373
0.25045868754 -0.35366973281 0.90123212337
0.052268113941 0.02398699522 0.9983330965
0.167491436 0.041170842946 0.98498952389
-0.50517892838 0.24710005522 0.82665896416
-0.39557918906 0.29604822397 0.86940640211
-0.31862083077 0.40092027187 0.85888379812
-0.20890590549 -0.94907009602 -0.23289209604
-0.64742380381 0.35059821606 0.67654144764
-0.54710489511 0.35625576973 0.75747388601
-0.61584854126 0.24631252885 0.74832588434
-0.1032961756 -0.42419442534 0.89964586496
-0.0086240554228 -0.33738312125 0.94131857157
-0.18039938807 -0.20763605833 0.961407125
-0.12469506264 -0.31105357409 0.94218987226
-0.012809724547 -0.59666913748 0.80186337233
-0.0094118900597 -0.72938382626 0.68383014202
-0.20912714303 -0.59294819832 0.77761089802
-0.29417747259 -0.51731652021 0.80364274979
-0.096350565553 -0.53469860554 0.83942055702
-0.18966886401 -0.51596224308 0.83533537388
-0.2237418592 -0.44524094462 0.86700415611
-0.13221898675 -0.99112325907 0.015522487462
-0.36631706357 -0.92570614815 -0.093578360975
0.19910953939 -0.067706018686 0.97763389349
0.24615782499 -0.15132418275 0.95730650425
0.16200181842 -0.15570703149 0.97441250086
-0.23145200312 -0.28192526102 0.93107122183
-0.20646363497 -0.36666214466 0.90710312128
-0.30852028728 -0.4087909162 0.85885006189
0.49637201428 -0.86479860544 -0.075109131634
0.69965064526 -0.69427472353 -0.16855254769
0.67474251986 -0.58361804485 -0.45133882761
0.57557374239 -0.50363129377 0.6433365941
0.65782278776 -0.54235321283 0.52191144228
0.71231496334 -0.399456352 0.5770418644
0.81968349218 -0.27864336967 0.50042021275
0.72767204046 0.36421778798 0.58116966486
0.78680127859 0.22718669474 0.57376343012
0.682700634 0.28052344918 0.67428046465
0.71842867136 0.18379934132 0.67087692022
0.64504307508 0.14405332506 0.75039851665
0.53228157759 0.23792725801 0.8120881319
-0.18458543718 0.7057236433 0.68397700787
-0.097202509642 0.7864394784 0.60944634676
-0.30893966556 0.79392921925 0.52311855555
-0.38014024496 0.85785734653 0.34559962153
-0.46945521235 0.7658944726 0.43926364183
0.055687677115 0.73060512543 0.68044066429
-0.045514266938 0.67493420839 0.73637652397
0.081124812365 0.62038266659 0.77995222807
0.67405152321 0.014691404998 0.73836344481
0.75356143713 0.077695049345 0.65247708559
0.77143788338 -0.055739209056 0.63233989477
0.86628162861 0.038219898939 0.49676308036
0.75601911545 -0.25292631984 0.60260087252
0.18012537062 0.75098913908 0.6351339221
0.19572168589 0.64005404711 0.74285197258
0.31329905987 0.64526933432 0.69664543867
0.17666245997 0.53257757425 0.82772403955
0.17336440086 0.85181123018 0.49414256215
0.35268589854 0.80702066422 0.4735698998
0.29430562258 0.7612451911 0.57782286406
-0.75227659941 -0.57021409273 0.32961934805
-0.84923636913 -0.40413498878 0.33916941285
-0.88324773312 -0.21947368979 0.41414105892
-0.92576938868 -0.06991276145 0.37135469913
[...]
CELL_DATA 588
SCALARS cell_data_0 double
LOOKUP_TABLE default
2.77357314147e-08
2.86203750069e-08
1.09322555813e-07
1.71158836159e-07
5.78317496745e-09
3.63521782987e-08
4.57395869569e-08
5.50073415575e-08
2.65705942526e-08
6.78245320693e-08
6.60139043491e-08
1.76943728433e-07
1.25863310312e-08
4.49816491097e-08
8.61782272493e-08
3.78788870209e-08
1.14960347391e-09
2.75686658011e-08
5.50722836705e-08
2.77017863314e-08
1.41076311716e-07
1.35936218127e-07
4.99739757547e-08
1.54381420385e-08
4.15852827677e-08
1.71134177471e-07
4.85355415919e-08
9.7154466414e-08
1.61672557797e-07
8.09965636357e-08
6.08071074813e-08
8.12255670154e-08
1.10279881106e-07
1.51714280221e-07
6.87537145202e-08
1.18191355708e-07
6.7579292432e-08
1.3094853755e-07
8.61020592199e-08
1.42555736576e-07
1.66307792868e-07
6.1090044843e-08
7.77548910994e-08
7.3952567301e-08
1.76323960324e-07
4.44716185111e-08
1.69516051938e-08
1.02777793502e-08
2.04199916218e-09
2.03152557505e-08
1.70056727974e-07
7.35376413883e-09
9.12506122515e-08
6.96128543268e-08
2.87435885469e-07
5.85243801252e-08
9.2631511034e-08
7.46123317578e-08
8.20610600559e-08
6.13469770412e-08
1.187264453e-07
2.53901951323e-08
1.1697425926e-08
4.18556823435e-08
1.02548862332e-07
1.11633821929e-07
1.68121752904e-07
3.150878773e-08
8.2892378971e-08
4.75621993716e-08
9.11887589055e-08
1.18940800085e-07
6.89835106917e-09
1.33485476383e-08
7.91981169993e-09
1.06650334534e-07
3.57004593594e-08
9.17823339185e-08
9.75934079023e-08
5.60775056956e-08
2.09584166904e-09
2.13018650604e-08
6.34843967807e-08
1.26127467437e-07
1.80812729611e-08
9.6600108651e-08
9.50571391183e-08
8.61757805638e-08
8.69586321873e-08
5.09841840944e-08
2.9489693975e-08
1.24159235845e-08
1.818223398e-08
9.1114699594e-08
5.43134280181e-08
8.22556428209e-08
2.19307940783e-08
5.34627956954e-08
6.72813043787e-08
3.95971816576e-08
1.40629025646e-07
1.73221492368e-09
1.50135573644e-08
8.1285715197e-08
9.22453302627e-08
1.29024685464e-07
9.42969739246e-08
7.27838860728e-08
8.87410497773e-08
9.24598322594e-08
2.71587660819e-09
2.34661133042e-08
6.29143618038e-08
8.44164927716e-08
1.91080458194e-07
2.2756369566e-08
7.11517416215e-08
7.8178159086e-08
1.56411621926e-07
1.23688693513e-07
1.53080649405e-07
5.21837713641e-08
4.99153596499e-08
2.18845231317e-08
2.65142612821e-08
5.36399826909e-08
2.92153916646e-08
7.99820094833e-08
2.7407470126e-09
4.49605994862e-08
4.09911669033e-08
7.85868179453e-09
1.17131213654e-07
5.43539230204e-08
7.15151623684e-08
7.53967572949e-08
1.45367573962e-07
3.5844194818e-08
4.29377652288e-08
3.74878734172e-09
4.0509326979e-08
3.66108768363e-08
1.33480639904e-08
1.6412709788e-08
4.09333002344e-08
4.48995194197e-08
5.20407108283e-08
3.56114113995e-08
3.27184641972e-08
4.63098240602e-10
3.79584306344e-08
3.81657430797e-08
4.5870226354e-08
5.52481961504e-08
7.432960196e-08
1.54973888161e-08
1.19628886564e-08
3.44179953345e-08
3.38506618971e-08
4.31369290188e-08
3.90408007301e-08
3.83560384551e-08
2.72062012259e-08
2.29621918056e-08
2.47160339284e-08
3.88970147173e-08
5.93597804092e-08
1.19727125032e-08
1.31261945193e-08
5.49533564411e-08
3.98001386471e-08
2.04739867138e-08
2.72283299054e-08
1.37274258628e-08
4.61815714224e-10
5.56316000645e-08
1.92713547401e-07
9.78362771077e-08
3.02662418213e-08
1.04552538505e-08
3.54904690049e-08
1.05377356177e-07
1.79134506611e-08
4.52117396879e-08
1.50482420022e-08
7.2778795854e-08
3.33763327507e-08
4.21758511562e-09
3.07491621504e-09
7.01380046469e-08
3.83854495479e-08
9.5283551385e-08
6.73066829089e-09
2.75638607885e-08
1.63096273824e-08
3.01364143414e-08
7.94062846255e-09
4.15352116223e-08
6.96677963239e-08
4.69558184705e-08
7.31624991394e-08
7.04704502109e-09
3.99041746781e-08
3.71758499818e-08
8.93450855133e-08
9.36537203477e-08
3.80408094733e-09
6.85916496884e-08
7.19113464795e-09
2.35322705492e-08
6.84925466935e-08
5.63911035486e-08
2.13934091188e-08
5.47360254149e-08
2.83433988685e-08
8.88206881617e-08
3.34184057169e-08
1.09057642213e-08
1.78237941412e-08
2.11370165362e-08
7.01737723088e-08
9.98919840068e-09
2.87420262312e-08
1.40840002638e-09
1.37622998587e-08
5.94720899897e-08
3.20287730441e-08
2.8409677504e-09
8.78559356289e-09
2.86966721737e-09
1.45412041737e-07
6.85512144417e-08
6.37731108805e-08
8.21526036241e-08
3.13836437407e-08
7.50014724485e-09
1.23468824262e-08
2.9261748019e-08
2.24337369018e-08
4.23658331963e-08
3.02072724936e-08
1.78337874958e-08
3.02907013505e-08
3.99245338596e-08
6.22114102547e-08
1.17571858146e-07
3.30003979259e-08
2.91786662869e-08
1.2278627997e-07
7.10076781423e-08
1.79797231731e-08
1.520142944e-09
3.50465320608e-08
3.83020234498e-08
2.52605911913e-09
1.67128558693e-08
1.77323656122e-08
6.10976666717e-08
7.68203053904e-09
5.12747985938e-08
1.15390740661e-08
1.19746416449e-07
1.16009625966e-08
1.17022737001e-07
3.2799981666e-08
4.6116765665e-08
4.17486532512e-08
4.68918612495e-08
1.03445905954e-07
1.16970405438e-07
1.8192268751e-08
2.67524731825e-08
1.18154961619e-08
3.50694991888e-08
1.87349240086e-08
8.44313672318e-09
6.14186371184e-08
1.92603517088e-08
1.20553457258e-08
3.91863808239e-08
5.13418863737e-08
7.60697603788e-08
1.27732651196e-08
1.14597618691e-07
4.59954653374e-08
9.16050736889e-08
3.21867087552e-08
3.00630659013e-08
3.03836597561e-08
2.48974226482e-08
9.21643798675e-09
8.41248279384e-08
1.72182646628e-08
9.77778847808e-08
8.43258572507e-11
1.78917052577e-08
2.79595045012e-09
6.77783353724e-09
8.74474197038e-08
3.11907688152e-08
7.70279959872e-09
1.23669238594e-08
4.41042189281e-09
1.22201106991e-07
7.56912742585e-08
4.81270229134e-09
5.10930035082e-08
7.31531999507e-08
1.14889262477e-08
2.58939928756e-08
1.05545514213e-08
2.60454812422e-08
2.59283620124e-08
2.18805063303e-08
1.39845339812e-08
5.81809674294e-08
2.06192107012e-08
1.1883903066e-08
2.31403009161e-10
7.07729889311e-10
2.14217451397e-08
1.86526534392e-08
1.4376537393e-08
1.8623628725e-08
5.00814537365e-08
7.43730321361e-08
1.24057070917e-09
1.94601545815e-09
2.56518287003e-08
2.18799484158e-08
1.31354005524e-09
1.03147873094e-08
2.06620808588e-09
5.21845435077e-08
1.5649688235e-08
2.30051954247e-08
1.29489635254e-08
5.92574597518e-11
2.96228123623e-08
2.48611537054e-08
8.81575340836e-09
1.970595632e-08
3.09723111352e-09
5.91632575321e-09
2.16888900983e-08
8.19698058719e-08
8.55840395911e-08
1.71572112638e-08
5.02170747868e-08
2.3375327472e-08
2.41145690407e-08
1.9199756329e-08
3.72491568735e-08
4.81921623827e-09
5.46007378825e-08
6.54163124024e-08
9.74082218259e-09
2.83768281447e-08
2.85864595579e-08
2.04013816354e-08
6.61593933702e-09
1.68939122007e-08
4.26592497431e-10
3.78496560077e-08
2.0237010944e-08
9.67656997846e-08
1.77308882494e-08
3.27823887476e-08
7.53294628701e-08
1.11951016181e-07
7.2133798662e-08
2.39513395808e-08
2.90933149395e-08
1.64095541491e-08
4.31684399104e-08
6.9648165295e-08
7.61077197064e-08
7.00039009301e-08
1.07294318687e-07
3.6536007264e-09
1.78830272875e-08
2.49656034925e-08
7.00771515407e-09
1.94089188975e-08
4.65975627664e-09
2.45857420584e-08
6.29039368991e-09
5.90884742052e-09
1.31541479082e-09
7.51872546718e-09
1.48051050088e-08
2.59397028391e-08
8.02542394428e-08
5.96870255634e-08
6.3720602698e-08
4.12863644884e-08
3.31933319971e-09
9.7665365205e-09
4.82059131595e-08
5.63210694233e-08
1.12760395996e-08
1.24855088612e-07
7.39584672282e-09
4.0753890846e-08
3.01396192689e-08
2.77266738298e-09
1.43162029536e-08
7.78296136604e-09
1.74481448335e-08
1.42666254757e-08
5.50740467825e-08
4.43534523885e-08
4.18561436728e-09
4.18243449434e-08
1.50529534588e-08
1.32556709073e-08
5.66250691592e-08
6.7886451812e-09
1.87358819292e-10
2.32823995759e-08
3.36013161002e-08
2.14181355227e-08
3.14965320644e-08
1.68198436617e-09
2.5064495532e-08
4.69186223657e-08
3.0115326653e-08
2.73130813931e-08
2.44395631846e-08
6.1934842181e-08
1.93869440515e-08
3.90032014142e-09
2.28873135473e-08
2.80482981134e-08
1.48941981669e-08
5.11033420421e-08
9.94129691998e-08
4.82959319568e-09
4.54184097938e-08
5.28068903146e-08
2.72130607462e-08
1.85773793267e-08
3.06257093386e-08
2.14010499171e-08
3.53304737538e-08
9.50418796421e-09
2.65838246035e-08
2.11309795207e-08
1.09914451609e-09
4.77523054107e-09
2.31574086358e-08
1.82086119813e-08
1.5922033736e-08
1.43368015535e-08
4.5127162621e-08
1.05349169499e-07
3.58326067535e-08
1.98095827709e-08
5.46079916605e-08
8.95665928203e-09
4.39658740604e-10
1.96151737824e-08
1.7090458897e-08
1.0392617142e-08
5.72639071996e-08
3.20881807652e-08
1.21283230887e-08
8.05621009668e-08
6.00609346496e-08
3.86729261743e-09
7.54154511553e-08
2.86382644672e-08
8.73309587896e-09
3.81989812767e-08
1.63148775391e-08
4.80266047393e-08
9.53397029761e-08
4.571050756e-09
2.86539806442e-08
1.49395360739e-08
2.95277743629e-08
6.53165339371e-10
1.69843362735e-08
4.36620738245e-08
3.60685941313e-08
8.20177014583e-08
8.33233041821e-08
2.16997509938e-08
8.55966614153e-08
2.13411454655e-08
9.15155967661e-08
1.95921121725e-08
2.34962094103e-08
1.24374816805e-07
1.15917699903e-08
8.94034429723e-08
1.67727885256e-09
3.12594132383e-09
7.38177666309e-09
3.04362798237e-08
7.64432381722e-09
1.10132403441e-07
2.8188924026e-08
6.8509729383e-09
1.08486635033e-08
6.59363731321e-09
1.51952666264e-07
1.24530754939e-08
9.91649297319e-09
4.78893159887e-08
1.89024528163e-08
8.01488277252e-09
5.70924178491e-08
5.77275429694e-09
2.03820729705e-08
1.33387546089e-09
1.80653584096e-08
2.55596271394e-08
3.80623070907e-08
6.68863270419e-09
7.92732605925e-10
5.67388976156e-08
7.91131268287e-08
4.81018765444e-08
4.3910941395e-08
1.16112072932e-07
5.07275494132e-09
3.89972677181e-09
1.07606358623e-08
2.58332803333e-09
1.22974015358e-08
1.58033136084e-08
8.22347244177e-10
1.90007133515e-08
1.62925083667e-08
3.13356161109e-09
1.36846818219e-08
1.00766017916e-08
2.14523954223e-08
1.27222946362e-08
2.71843365976e-08
5.03075022915e-08
4.97434696314e-08
2.79001315912e-08
1.30965860434e-08
4.63345545346e-08
8.82240111976e-10
3.6474941549e-09
1.30724174978e-08
1.31123241106e-09
7.49378394682e-08
1.45215488294e-08
7.0144882561e-08
9.79215800699e-09
5.87615258243e-09
6.36149331136e-09
5.85153811922e-08
1.16942069894e-07
1.12313588022e-08
9.27489359555e-08
4.49789912505e-08
1.67968594377e-08
1.97325951259e-08
1.69269887477e-08
2.76675737002e-08
2.90302199109e-08
4.17903960864e-08
3.66724695576e-08
1.42173068435e-09
1.67693549474e-07
4.1979539854e-09
3.71616461954e-08
2.54773155797e-08
2.42320226481e-08
1.79526861025e-08
1.68207036167e-08
2.362113181e-08
6.85413870576e-09
1.50838839406e-08
2.59103113195e-08
1.65861901237e-08
3.12887073442e-08
1.22639289127e-08
1.74141675472e-09
5.50454939858e-09
1.58082639935e-08
1.07929475183e-09
1.06620079202e-08

