# vtk DataFile Version 3.0
File Name: Molecule/sphere/sphere_0-s2.vtk
ASCII
DATASET UNSTRUCTURED_GRID
FIELD FieldData 1
TIME 1 1 double
0.0
POINTS 31 double
0.0 0.850650808352 0.525731112119
0.0 0.850650808352 -0.525731112119
-0.850650808352 0.525731112119 0.0
-0.525731112119 0.0 -0.850650808352
-0.850650808352 -0.525731112119 0.0
0.525731112119 0.0 -0.850650808352
0.688190960236 0.26286555606 -0.425325404176
0.850650808352 -0.525731112119 0.0
0.850650808352 0.525731112119 0.0
0.425325404176 0.688190960236 -0.26286555606
0.26286555606 0.425325404176 -0.688190960236
0.26286555606 -0.425325404176 -0.688190960236
0.0 0.0 -0.850650808352
-0.26286555606 -0.425325404176 -0.688190960236
0.0 -0.850650808352 -0.525731112119
-0.26286555606 0.425325404176 -0.688190960236
-0.525731112119 0.0 0.850650808352
-0.26286555606 0.425325404176 0.688190960236
0.26286555606 0.425325404176 0.688190960236
0.0 0.0 0.850650808352
0.525731112119 0.0 0.850650808352
-0.26286555606 -0.425325404176 0.688190960236
0.26286555606 -0.425325404176 0.688190960236
0.0 -0.850650808352 0.525731112119
0.688190960236 -0.26286555606 0.425325404176
0.425325404176 -0.688190960236 0.26286555606
-0.425325404176 -0.688190960236 -0.26286555606
-0.425325404176 -0.688190960236 0.26286555606
0.0 -0.850650808352 0.0
-0.688190960236 -0.26286555606 0.425325404176
0.425325404176 -0.688190960236 -0.26286555606

CELLS 58 232
3 0 1 2
3 3 4 2
3 5 6 7
3 7 6 8
3 8 6 9
3 6 10 9
3 6 5 10
3 9 10 1
3 8 9 0
3 9 1 0
3 5 11 12
3 11 13 12
3 11 14 13
3 12 13 3
3 1 15 2
3 15 3 2
3 3 13 4
3 5 11 7
3 5 12 10
3 12 15 10
3 12 3 15
3 10 15 1
3 16 17 2
3 0 17 2
3 0 17 18
3 17 19 18
3 17 16 19
3 18 19 20
3 16 21 19
3 21 22 19
3 21 23 22
3 19 22 20
3 20 22 24
3 22 25 24
3 22 23 25
3 24 25 7
3 20 24 8
3 7 24 8
3 0 18 8
3 8 18 20
3 4 26 27
3 26 28 27
3 26 14 28
3 27 28 23
3 4 27 29
3 27 21 29
3 27 23 21
3 29 21 16
3 4 29 2
3 16 29 2
3 14 30 28
3 30 25 28
3 30 7 25
3 28 25 23
3 14 26 13
3 13 26 4
3 7 30 11
3 14 30 11

CELL_TYPES 58
5
5
5
5
5
5
5
5
5
5
5
5
5
5
5
5
5
5
5
5
5
5
5
5
5
5
5
5
5
5
5
5
5
5
5
5
5
5
5
5
5
5
5
5
5
5
5
5
5
5
5
5
5
5
5
5
5
5

CELL_DATA 58
SCALARS cell_data_0 double
LOOKUP_TABLE default
6.52734839364e-05
1.58008817579e-05
1.1858886774e-05
2.40623108193e-05
3.97951311571e-07
3.71236704242e-06
2.90973303532e-06
3.73015462557e-06
2.69011261338e-05
1.56963595429e-05
3.75863903055e-05
0.000270764072148
0.000146021450924
0.000298694628698
0.000347861138305
0.000338980735367
0.00031711162914
1.68443501577e-05
4.02976320732e-05
0.000244084898698
0.000290754097353
0.000165070509916
0.00100680043539
0.00146656558416
0.000603194528917
9.98542479929e-05
2.16481548211e-05
0.000244655928197
0.000322727200567
0.000430993629107
2.85931164061e-05
0.000225064093815
6.29950140766e-05
4.77247733112e-05
1.81915462841e-05
6.45010964998e-06
6.10691678829e-05
2.19611537127e-05
4.63241713643e-05
6.99951559407e-05
1.53060465316e-06
3.3580198357e-06
2.34553682442e-06
4.37582617696e-06
1.05504506442e-05
2.38647170193e-05
4.87412982445e-05
9.57533415277e-05
4.93220768749e-06
7.90403191392e-05
5.21996336339e-06
3.35244701498e-06
1.54469097939e-06
4.41751378996e-06
0.000159767366325
0.000144247896689
2.6959450761e-06
5.65131879956e-06

