# vtk DataFile Version 3.0
File Name: Molecule/sphere_cent/sphere_cent_0-s24.vtk
ASCII
DATASET UNSTRUCTURED_GRID
FIELD FieldData 1
TIME 1 1 double
0.0
POINTS 1313 double
0.99909907579 0.0095577109605 0.04074338451
0.9894464612 0.13291125 -0.057251375169
0.98714250326 0.13220496476 0.08973570168
-0.8495414257 -0.069842465222 -0.52285629511
-0.90966027975 -0.10314723849 -0.4021243751
-0.89848029613 0.021223219112 -0.43842944503
-0.45662775636 0.88413363695 -0.099433071911
-0.54339319468 0.83912408352 -0.017410082743
-0.41019758582 0.90890717506 0.075189806521
-0.28845000267 0.94064450264 0.17791102827
-0.39536729455 0.88080912828 0.26022511721
-0.55140423775 0.81937932968 0.15640521049
-0.51208722591 0.79343801737 0.32892486453
-0.21071712673 -0.97588634491 0.036384195089
-0.1227010265 -0.98999893665 -0.069325961173
-0.13768683374 -0.98588067293 0.089439839125
0.079200178385 -0.99402070045 -0.074750937521
-0.017390958965 -0.99958479404 0.021855896339
-0.036552835256 -0.99243766069 -0.11289212853
0.058105781674 -0.98859548569 0.1389362216
0.14662411809 -0.98720341921 0.051693249494
-0.079264342785 -0.98509037495 0.14965318143
-0.97512185574 -0.023626850918 0.21729330719
-0.9629958868 0.13958105445 0.23018604517
-0.99307566881 0.06896071136 0.091261833906
0.073034904897 0.99579060078 -0.056814499199
0.072973772883 0.97947567701 -0.18793021142
-0.099229216576 0.98746460676 -0.12288548797
-0.6278719306 0.49918940663 0.59705591202
-0.51850783825 0.54098182917 0.66179746389
-0.55317097902 0.61932343245 0.55705326796
-0.6883969903 0.71566015482 0.11203279346
-0.63722491264 0.73212605715 0.23990662396
-0.99027121067 -0.035118833184 -0.1342484653
-0.99952596426 -0.028213132173 -0.011823860928
-0.99383509159 0.090893872082 -0.063423506916
-0.018854647875 0.96139484644 -0.26999470592
0.082349680364 0.93841028214 -0.334787637
0.41576734185 0.59137618542 0.69053971767
0.54486626387 0.56209725142 0.62154173851
0.45515614748 0.6768206954 0.57858961821
0.33976227045 0.69293344021 0.63585907221
0.12709927559 0.21346347034 0.96856534481
0.24517188966 0.25674042106 0.93479037285
0.13843154907 0.32817876339 0.93423742056
-0.77909260988 -0.58863723278 -0.21563014388
-0.69358372688 -0.69160795212 -0.20157539845
-0.74004113674 -0.66854679585 -0.073515884578
-0.69604617357 0.39220279455 0.60124534369
-0.63100630045 0.36473745108 0.68460160494
-0.59660363197 -0.31322982907 0.73817592859
-0.50747793913 -0.23343288898 0.82934439182
-0.61758071184 -0.17213451862 0.76737082005
-0.53089404106 -0.066522546113 0.84480172396
-0.37910354137 -0.8919736743 0.24620442092
-0.4936799109 -0.86083644629 0.12293829024
-0.35498946905 -0.92932188511 0.1017274335
0.52895128727 0.23571336269 0.81513142586
0.42788186669 0.27251014113 0.86164945364
0.45281654596 0.16057996452 0.87670129538
-0.81293791533 -0.57455259562 -0.0884257406
-0.80122673512 -0.59687942266 0.038874659687
-0.7129317522 -0.69755703211 0.071293316782
-0.61645889282 -0.77765512466 -0.12299952656
-0.71104937792 0.2768419981 0.64514625072
-0.7805980444 0.17496582866 0.59917151928
-0.79438608885 0.27223333716 0.54283052683
-0.88998019695 -0.36361810565 0.27517658472
-0.9485296011 -0.26110693812 0.17636585236
-0.91885834932 -0.3807682693 0.10105194896
-0.70556348562 -0.56277394295 0.42980030179
-0.70288944244 -0.48299220204 0.52216631174
-0.80200380087 -0.46576467156 0.37390559912
-0.60237121582 -0.56789731979 0.56051695347
0.32611078024 -0.90975117683 -0.25666162372
0.21257212758 -0.95316982269 -0.21389837563
0.20956546068 -0.92338818312 -0.3214520216
-0.96759355068 -0.19930911064 -0.15446667373
-0.98649245501 -0.16000683606 -0.034314256161
-0.99036192894 -0.10479942709 0.088615626097
-0.96548300982 -0.25412991643 0.056507293135
-0.94291186333 -0.32928878069 -0.048536740243
-0.82594931126 -0.51305282116 0.2313580662
-0.75355988741 -0.58265268803 0.30417129397
-0.84543889761 -0.32989197969 0.41950455308
-0.58270776272 -0.66711264849 0.46333277225
-0.48540723324 -0.68825381994 0.53820890188
-0.63349848986 -0.44155135751 0.63441735506
-0.74731385708 -0.63872629404 0.18303197622
-0.66071110964 -0.68174916506 0.31251576543
-0.65606254339 -0.72890347242 0.19503058493
-0.88597035408 -0.46238261461 -0.011921489611
-0.38654115796 0.8202227354 0.42153513432
-0.093289211392 0.85952693224 0.50241482258
-0.20188958943 0.79393184185 0.57344317436
-0.088795028627 0.7645868659 0.63779777288
-0.21434772015 0.70304232836 0.67799007893
0.37039077282 -0.81262886524 -0.449660182
0.26368835568 -0.78461790085 -0.56109857559
0.42772477865 -0.72932654619 -0.53394556046
0.13610389829 -0.8556445837 -0.49937024713
0.084662340581 -0.803627491 -0.58887124062
0.24234223366 -0.86914265156 -0.4310567975
-0.015262306668 -0.87488746643 -0.48411974311
0.98350208998 0.057534966618 0.17107349634
0.95625865459 0.21399223804 0.19783693552
0.96697455645 0.24665351212 0.059577073902
-0.22618433833 0.8572794199 0.46240571141
-0.32277721167 -0.94597601891 -0.027875429019
-0.45107135177 -0.89228695631 -0.01138442941
-0.2522546351 -0.94383227825 0.20988479257
0.27791747451 -0.95241856575 0.12297484279
0.29922229052 -0.92721611261 0.22505713999
0.18555891514 -0.96197491884 0.1980997473
0.0060687111691 0.82408493757 0.56596118212
-0.42601409554 -0.14492322505 0.89302521944
-0.42861393094 -0.026521198452 0.90286695957
-0.37259715796 -0.070373483002 0.92517960072
-0.30111819506 -0.15115985274 0.94110864401
-0.36149227619 -0.25266453624 0.89747869968
0.34495890141 -0.86876523495 -0.35514685512
0.095284670591 -0.91015076637 -0.40319523215
0.098261058331 -0.94583296776 -0.30847132206
-0.039527878165 -0.93155109882 -0.36051848531
-0.13851429522 -0.88912916183 -0.43598076701
-0.12389373779 -0.95587050915 -0.26619365811
-0.14583359659 -0.92702358961 -0.34463241696
-0.048451509327 -0.95593583584 -0.28955864906
0.35891914368 -0.9212424159 0.14972026646
0.38567876816 -0.88166153431 0.27183762193
-0.33599853516 -0.37666270137 0.86324620247
-0.24354326725 -0.4402205348 0.86390405893
-0.23729330301 -0.32972565293 0.91352599859
0.011648190208 -0.89728999138 0.44125661254
-0.12724429369 -0.8862066865 0.44543784857
-0.11190606654 -0.93907743692 0.32353034616
-0.25055986643 -0.90150851011 0.35283696651
0.83468598127 0.5444098115 -0.079035148025
0.86191993952 0.4763020277 -0.17310613394
0.80681920052 0.56143844128 -0.18388688564
0.90836459398 -0.41438108683 -0.032064069062
0.87667119503 -0.44710129499 -0.17653790116
0.92716956139 -0.3354831934 -0.16655151546
0.88097602129 -0.3828215301 -0.27808988094
0.82411134243 -0.48514184356 -0.29235324264
0.9195124507 -0.26588830352 -0.28958255053
0.87976282835 -0.2275916487 -0.4161798954
0.87127590179 -0.32406398654 -0.36866444349
0.82493466139 -0.4134260416 -0.38538762927
0.82367122173 0.43203964829 -0.36727195978
0.82120853662 0.50014710426 -0.27466192842
0.87984013557 0.38593184948 -0.2773604393
0.91924107075 0.2571555078 -0.29809010029
0.86638075113 0.32046127319 -0.3829613626
0.92976099253 0.32009208202 -0.18117871881
0.14987008274 -0.76229310036 0.62952893972
0.085135646164 -0.83704805374 0.54045170546
0.20700757205 -0.81232500076 0.54521942139
0.27355653048 -0.89366549253 0.35461211205
0.30081138015 -0.82870811224 0.47191914916
0.37731993198 -0.84121710062 0.38723528385
0.95917147398 -0.20400130749 -0.19587472081
0.96397387981 -0.25832858682 -0.063539549708
0.98461353779 -0.13621877134 -0.10929882526
0.99150317907 -0.13001550734 0.0018644672818
0.96526038647 -0.25045248866 0.063372537494
0.98584097624 -0.11858327687 0.1173690185
0.93398588896 -0.15470191836 -0.32117447257
0.9815030098 -0.065935686231 -0.17971971631
0.97893244028 0.066515728831 -0.19277869165
0.99614983797 -0.010671791621 -0.086593143642
0.95112788677 0.030620984733 -0.30707615614
0.94817739725 0.12966863811 -0.29003831744
0.96246051788 0.19954125583 -0.18388813734
0.96001642942 0.27115577459 -0.068945690989
-0.32404124737 -0.48540315032 0.81197416782
0.11713446677 -0.92888122797 0.35029745102
0.16553616524 -0.87670093775 0.45157817006
-0.026363190264 -0.80108356476 -0.59777331352
0.22705958784 0.96080935001 -0.15825994313
0.17801696062 0.98195362091 -0.062642246485
0.31000888348 0.9501067996 -0.033761113882
0.18942452967 0.97949051857 0.068342246115
0.07856118679 0.99624830484 0.013609018177
-0.58576160669 0.71082550287 0.388987571
-0.48881825805 0.72961831093 0.4781666398
-0.43183231354 0.66011297703 0.61454844475
0.013713182881 -0.56124871969 0.82755863667
0.16881354153 -0.55530762672 0.81430351734
0.10888281465 -0.43337103724 0.8945761919
0.24765652418 -0.40473079681 0.88024276495
0.31044122577 -0.50625813007 0.8045784831
0.17469112575 -0.28370195627 0.94286817312
-0.87431228161 -0.20819142461 -0.43813437223
0.72140079737 0.67244255543 0.16540186107
0.71405613422 0.64031380415 0.28305193782
0.77994799614 0.57709383965 0.24202686548
0.75457853079 0.55771392584 0.34578183293
0.66329813004 0.63261735439 0.39979985356
0.83538484573 0.44925257564 0.31534701586
0.33032113314 -0.28356185555 -0.89994901419
0.39559614658 -0.38529407978 -0.83369278908
0.26851221919 -0.40283071995 -0.87495273352
0.45845925808 -0.26813921332 -0.8473046422
0.32231980562 -0.49638560414 -0.80604314804
-0.40803408623 -0.35031324625 -0.84304893017
-0.2984713316 -0.30759164691 -0.90350466967
-0.2419295311 -0.42818644643 -0.87068867683
-0.16396775842 -0.29143598676 -0.9423917532
-0.8176702857 -0.39217230678 -0.42141097784
-0.85005700588 -0.40595507622 -0.3354896307
-0.8764231801 -0.30436530709 -0.37294754386
-0.91851067543 -0.2100058198 -0.33443257213
-0.87182992697 -0.45616552234 -0.17758704722
-0.92665010691 -0.33246517181 -0.17536465824
-0.87983185053 -0.40476748347 -0.24889715016
-0.90895050764 -0.30962976813 -0.2790440917
-0.94574928284 -0.20664973557 -0.25041612983
0.80630272627 0.5889672637 0.05422392115
0.73002541065 0.68124824762 0.051344387233
0.79559260607 0.58687287569 0.14819251001
-0.039867084473 -0.82589882612 0.56236499548
-0.027834977955 -0.73893231153 0.67315632105
-0.13140757382 -0.75481164455 0.64217627048
0.19857594371 -0.67982244492 0.7059610486
[...]
CELL_DATA 2622
SCALARS cell_data_0 double
LOOKUP_TABLE default
7.30005720019e-10
2.31097343098e-09
5.4180236215e-09
6.18671969998e-10
7.64415814697e-09
3.41783261201e-09
1.89735664568e-10
4.43770650205e-09
1.29779375265e-09
2.1834010039e-09
4.12145330742e-09
3.63715230536e-09
6.92749680512e-09
9.01343373091e-11
2.60103637179e-10
4.27326926987e-09
2.5234828297e-09
1.26979663317e-09
3.69908599816e-09
6.40190933396e-10
2.68516147835e-09
8.24909233782e-10
1.33415117915e-09
2.67345579153e-09
6.36450448237e-10
5.20306689157e-09
3.038987286e-09
1.05120673597e-09
3.12509914876e-09
3.82692582802e-09
3.56871117796e-10
2.72028794233e-09
4.51715306216e-10
7.0377901482e-09
8.42104638057e-09
1.74269487414e-09
2.6837859888e-09
2.92517435599e-10
3.01853507513e-09
4.98996977144e-11
6.16900443826e-10
1.08282620008e-08
3.38898533127e-09
5.65569312923e-10
7.62867139018e-09
8.5796233111e-10
4.33693699886e-09
3.71384824205e-09
7.17795723454e-09
4.51003524816e-09
2.73020082414e-09
1.02850964103e-09
9.73003995584e-09
1.86601593009e-09
1.21977801968e-09
2.73641604841e-09
3.89977055491e-09
1.83138522464e-09
5.77022286616e-09
8.02540694304e-09
1.09368492129e-09
4.15800840604e-09
4.94370675768e-10
3.29546056469e-09
3.44163046606e-09
1.45111790185e-09
1.0475592042e-09
1.56608335649e-09
1.62685422255e-09
2.03308489099e-09
8.65448704573e-11
2.25099159797e-09
3.59300726902e-10
6.8224785615e-09
4.34942937223e-09
7.33948005097e-09
4.4800977373e-09
2.44675232125e-09
2.09384231977e-09
5.54241266781e-10
1.45017517358e-10
3.8572174533e-09
2.72765974163e-09
5.48202652464e-10
2.87998843426e-09
1.61114947161e-09
4.23352970193e-09
5.39617124314e-09
2.49349073205e-09
1.42592959786e-09
4.99767451388e-09
1.06207959577e-09
2.19762837181e-09
1.1336016173e-09
2.63960449405e-09
1.51466020185e-10
8.91000438909e-10
1.28424642158e-09
7.65467737259e-10
4.8816444862e-09
3.04521390166e-09
2.90227925392e-09
1.98842794049e-09
1.83645197164e-09
1.69012496397e-09
9.20594156072e-10
3.65575793173e-09
4.41549825444e-09
1.96674915838e-09
3.33453650255e-09
4.524205859e-09
6.41263797483e-10
6.63530282901e-09
2.94812218179e-09
8.79125543089e-09
1.75620940364e-09
8.77375856863e-10
3.8503837208e-10
1.77834150343e-09
6.6711019648e-11
4.27819396696e-11
1.99417336672e-09
4.34939040064e-09
8.49446461018e-10
2.3494872817e-09
6.63606454017e-10
3.11769109665e-09
7.15590755424e-10
2.09131850549e-09
5.19324224452e-10
6.04732967009e-10
6.99504445481e-10
2.51752970176e-11
1.92264094453e-10
3.59571524048e-11
5.46520288982e-09
6.88062706226e-09
2.40475450977e-09
7.98793292524e-09
7.54160018493e-09
3.47074071906e-09
6.67659162021e-09
3.39966719851e-09
6.03724106399e-10
3.59411734244e-09
2.93391446165e-09
7.94693948893e-09
3.49333669535e-10
4.25136857596e-10
7.89325215775e-09
8.96604686451e-11
4.26003071277e-09
2.29139524366e-09
6.5142229404e-09
4.63253673613e-09
8.72002529067e-09
1.30504392904e-09
8.33406189907e-10
2.19998645257e-09
4.80858406919e-09
5.46406683467e-09
4.83715414625e-10
7.62689273867e-10
2.4683625673e-09
2.25313066788e-09
4.51564684192e-09
1.27161929686e-09
5.509052986e-09
1.00229508881e-09
6.07599271145e-09
4.73301446589e-09
1.60779029247e-09
5.13266096877e-09
6.81165598707e-09
3.00103364705e-11
4.63690871029e-10
6.31333760032e-09
8.23803207242e-09
3.59518908653e-09
2.78821299752e-09
1.26520703391e-09
2.46522764814e-09
3.01088088434e-09
3.53886801627e-09
6.43002498301e-09
3.30587981759e-10
2.0021899452e-09
3.20231840863e-09
3.3335587194e-09
1.16635486543e-09
3.30543954734e-10
5.22863047652e-09
8.82940485135e-10
7.50090016509e-09
5.1673498974e-09
5.14961088392e-09
1.89329416659e-09
3.2417908574e-09
3.62339315073e-10
2.94820601448e-09
3.93995337243e-09
1.29728821036e-09
2.64138327957e-09
6.36613655231e-12
1.19117139609e-09
1.13990741974e-10
1.14818982456e-09
4.20008941988e-09
4.53205703111e-09
8.0269128343e-10
2.13514482491e-09
3.62986445472e-09
3.70031149693e-09
6.85114494374e-10
4.58460841978e-09
6.80271726875e-11
2.93975982131e-09
9.68538837656e-10
5.90502054336e-10
1.71974669143e-10
5.25560170313e-09
3.58941527805e-09
7.06881344581e-09
3.44890791448e-09
2.70663455585e-09
5.15458677463e-09
4.17376843142e-09
1.96939643118e-09
5.60969229829e-10
4.48395435887e-10
1.13181921478e-09
2.34135098082e-09
8.27658843681e-10
3.54525617127e-09
3.00137294293e-09
7.76543327299e-10
1.56220805958e-10
4.83891898839e-09
5.73474016048e-09
8.44391078085e-10
1.8188952633e-09
9.50230836148e-10
4.25543421343e-09
8.23037568801e-09
2.45659367272e-09
3.96066631856e-09
2.1338458163e-09
9.7524673704e-10
2.57281487715e-09
7.45916554486e-10
4.67454110196e-09
7.9427476313e-10
3.57764080323e-09
3.84172883122e-09
3.42098329927e-09
6.21595620927e-09
2.42163591015e-09
3.11597142848e-10
7.29564115603e-09
8.14469182812e-11
2.23650085206e-09
1.76015756267e-09
2.51890395488e-09
2.17842060391e-09
4.54319682327e-10
1.67282062522e-09
8.52423599299e-10
2.56506663632e-09
2.78206431042e-09
5.11585794453e-09
1.49802280888e-09
4.80473089369e-09
2.82822152374e-09
3.44031746951e-09
7.72573630861e-10
1.97729227883e-09
1.07421855601e-09
1.00622906421e-09
6.25873863275e-09
2.43319703155e-09
2.71698480358e-09
3.9980101318e-09
2.37154592532e-09
1.12710580246e-09
7.79899660394e-09
1.21647845275e-09
1.09147550701e-10
1.27967571409e-09
2.54069563691e-10
4.22184005821e-09
1.55997107862e-09
6.83389992673e-10
5.8794081817e-09
2.46553498539e-09
2.20690961014e-09
4.4586116461e-09
1.33845505155e-09
3.55136114187e-09
8.62853723272e-11
6.53428161178e-10
3.38154144533e-09
1.3278965455e-09
3.26982401768e-09
2.46290282503e-09
3.10796894399e-09
1.75688465521e-09
4.86218588029e-10
4.20402327829e-10
4.36368271253e-09
3.17148671608e-09
4.96728764131e-10
2.08700389349e-09
3.49154573321e-09
1.52356924259e-09
3.25065933279e-10
2.12323895841e-09
1.95076148093e-09
4.05230455209e-09
1.79712599607e-09
2.69612192128e-09
5.54370296793e-09
4.28345289072e-09
2.44783541911e-09
2.31958545437e-09
2.92441309712e-10
2.54720710338e-09
3.74058043862e-09
3.8374373388e-09
4.26849622457e-09
1.08349958181e-09
8.59553022747e-10
3.4106892376e-09
1.31696192559e-09
3.87242512892e-09
2.88478720191e-09
2.9624280608e-10
5.90052147765e-09
1.35819977786e-09
2.2781641751e-09
8.33780165068e-12
5.78232386789e-10
3.32591756207e-10
2.30270408569e-09
3.34016391444e-09
3.33092312151e-09
5.7917184854e-09
2.89593492696e-09
3.40735685221e-09
7.879424613e-10
4.99366371492e-09
5.18856119249e-09
2.09889590513e-09
1.12071895325e-09
4.23805969546e-09
4.08581242229e-10
5.45032878984e-09
2.37084171053e-09
6.60457030101e-09
1.20841339457e-09
4.67704806486e-09
2.32310331237e-10
5.37251524368e-09
5.13911633195e-09
1.08395339479e-08
2.18572259951e-11
7.13460386693e-09
2.16752198028e-09
1.42601597024e-10
1.1984291329e-09
4.17979117555e-09
5.29736149814e-09
4.77622646207e-09
1.90845526684e-09
1.83591293721e-09
5.89658975191e-10
7.15839962696e-09
7.52855152699e-09
4.95909898161e-09
2.54785941646e-09
2.79372869221e-09
1.6952240861e-09
5.20839303513e-09
3.42651818098e-09
1.03426535837e-09
2.91544940322e-09
3.70546159504e-09
3.6725096088e-09
1.7158916081e-09
4.64010878206e-09
3.55093584465e-09
1.59612911652e-09
2.11935143721e-09
4.65771368667e-10
3.76592163488e-09
1.59658122054e-09
2.39574271073e-09
5.15713592661e-10
6.56551931209e-09
1.81339120254e-09
1.4413909014e-10
6.57531916767e-10
1.56664840543e-09
1.69963726002e-09
2.93712401961e-09
7.21484709644e-10
6.64311999772e-10
1.68715075587e-09
3.10028689267e-09
3.52330573494e-09
4.65541976729e-10
1.00718032758e-09
1.62084027007e-09
3.97978925609e-10
1.98136485038e-09
2.07649995251e-09
1.76297511797e-09
3.52260061997e-09
3.85380309773e-10
3.64752010065e-09
7.01303289699e-09
1.06799656481e-09
9.60755667463e-10
4.08681638481e-09
2.67055002846e-09
3.08934935946e-09
9.11238700839e-10
4.66520175951e-10
1.74734570276e-09
1.93952291705e-10
1.83739214827e-09
1.2574381602e-11
6.56221278099e-10
9.69678692671e-10
1.63398962552e-09
2.86957774545e-10
3.028952488e-10
6.82948490259e-10
3.91537387521e-09
9.48086135409e-10
2.80316015431e-09
1.2799257651e-09
9.118708721e-10
3.56244343255e-09
5.4412405128e-09
2.31109578628e-09
3.64470208637e-10
1.58336176805e-09
3.23167006112e-09
4.52096749668e-09
3.40235047506e-09
4.33809836343e-09
3.25120206429e-09
2.13981978952e-09
1.1100760821e-09
5.72568056569e-10
3.0475345273e-10
4.07490711224e-10
1.425251333e-10
2.33326763926e-09
1.96024466624e-09
7.00847356253e-10
5.37554074518e-10
7.85858528798e-10
9.29423650032e-10
8.59631494511e-10
1.52827092461e-10
1.8465250999e-09
1.2616815069e-09
1.89031670055e-09
9.51033562079e-10
9.52589012911e-10
1.81750877328e-09
3.99336013232e-09
4.10975870695e-09
1.9518435784e-09
7.57356128262e-09
1.29568685498e-09
5.16394749735e-10
3.53645664434e-09
3.73261212216e-09
3.82296996934e-09
1.06157692987e-09
4.70013148285e-10
6.67954127066e-10
2.61139961795e-10
4.43080224892e-09
3.76043508201e-09
1.51307641863e-09
1.98255251284e-09
2.29532115747e-09
8.79392193237e-11
6.5381649366e-09
6.72078854638e-09
3.56948797841e-10
1.49960741525e-09
7.33571267692e-09
2.86482669287e-09
7.94568465651e-09
1.39173898188e-09
7.38246086282e-09
8.73882333674e-10
1.46233744681e-09
1.6434112538e-09
5.87581204673e-09
1.82977606886e-09
4.00588307823e-09
3.96887706568e-10
1.59535890805e-09
5.66660817108e-10
8.11003985751e-09
6.15850523876e-10
7.96915444854e-09
6.05505868737e-09
1.96920303812e-09
3.93468053988e-09
4.36126038435e-09
5.1855406499e-10
3.84290329944e-09
3.38864717793e-09
1.04973810566e-09
2.53650629065e-09
2.55796262404e-09
3.29170792349e-09
3.962444917e-09
3.81785847518e-09
3.08497002172e-09
2.2303098393e-09
2.25342665304e-09
8.65111598465e-09
3.36843104191e-09
1.98137316062e-09
2.72306214531e-09
2.53550527058e-09
7.87666426195e-10
1.76285173904e-09
2.16047080128e-09
5.48018317588e-10
4.6748279706e-09
1.19298105179e-09
1.91241204823e-09
3.00312093631e-09
4.53138732746e-10
2.88807588147e-10
1.45838039268e-10
5.0485989492e-09
1.08020137494e-09
3.24890175858e-09
1.01862997012e-09
4.89679811195e-09
7.18043924478e-10
3.54954521601e-10
8.39701325845e-10
3.10825447536e-09
8.23400496102e-10
1.42979002373e-09
1.19813763971e-09
2.60952106819e-09
4.6098349613e-11
3.40323736784e-09
5.91405011445e-09
2.78328776869e-09
6.27379736929e-10
3.35814151698e-09
5.15383191076e-09
6.80992527045e-10
6.77530676723e-10
1.21992028816e-09
2.66447943201e-09
7.09435628429e-10
4.90491211618e-09
4.22224922032e-10
2.36465824728e-10
2.09459108324e-09
3.77192933698e-10
1.50595069961e-09
3.31178029523e-09
3.67379537657e-09
6.85036688794e-10
4.10140466956e-09
1.67669167984e-09
4.74550811275e-09
2.87916717909e-09
2.33751186624e-09
3.02108398958e-09
2.28900523816e-09
3.02817384694e-09
4.82478375226e-09
2.99116729897e-10
3.38330059467e-09
5.79923647719e-09
7.89012643681e-10
4.35668554654e-09
5.08226260295e-09
3.03119526497e-09
2.71571441014e-09
9.82494290982e-10
5.29556302894e-09
1.51165563103e-09
9.65544070848e-10
4.11027028266e-10
5.29693706354e-10
4.05074470273e-09
1.3496402338e-09
1.43068304658e-09
1.08118225117e-09
4.69494851771e-09
3.09796939848e-10
4.56107169922e-10
6.45110865348e-10
1.43673980807e-09
8.6931962292e-10
2.10863994815e-09
4.61768689649e-09
3.66885967705e-09
6.67343630711e-10
6.84647767198e-09
1.8362834417e-09
1.4415523575e-09
2.78770958237e-10
3.35122837215e-09
1.237985713e-09
1.32589203751e-09
3.40217707333e-09
2.95884733348e-09
1.40663315014e-09
2.89294420222e-09
6.60715002499e-10
7.44471529158e-10
3.92626388255e-09
1.36673806278e-09
6.91766961348e-09
2.7194189279e-09
9.68735655929e-10
5.91314009316e-09
5.09814617002e-09
1.46526460661e-09
2.53349656242e-09
3.90398273638e-09
5.14755152054e-09
6.17077005173e-09
2.19805011556e-09
5.06854112229e-09
1.38220235062e-09
2.63939482083e-09
4.15039503435e-09
3.21334129021e-09
1.59705335419e-09
3.01957033806e-10
7.5871422792e-10
1.31084763237e-09
2.5084594081e-09
7.15040363885e-09
3.55039693649e-09
4.12196802914e-09
1.95901185012e-09
8.97917114905e-09
2.43944700586e-09
5.65192796131e-10
8.76159437696e-10
4.69666258004e-09
1.37431955024e-09
1.89819387596e-09
6.76622170737e-09
1.97115258136e-09
2.59021962104e-09
1.80761811739e-09
3.53590120185e-09
8.24656378806e-09
2.62872942553e-09
6.27149679143e-10
1.48955043378e-09
4.0972213554e-09
1.13715632138e-09
3.09093239163e-09
4.11897986338e-09
3.28751112434e-09
3.79766425037e-09
4.34903531961e-10
6.5457596489e-10
2.5556457546e-09
2.83810001646e-09
8.94356720371e-10
9.87863521691e-10
1.1479307176e-10
1.77793533927e-09
1.47905152247e-09
1.77853581976e-09
3.88685190861e-09
4.98911243209e-09
3.21278241066e-09
1.92092798076e-09
1.0062992998e-09
5.06103865321e-09
3.60699174236e-09
2.50774916269e-09
8.87881964994e-10
1.14435400722e-09
9.51691928184e-10
2.2711419963e-09
2.49520552829e-09
2.59770470327e-10
2.81530211618e-09
6.33804871618e-09
2.06483753072e-09
9.75430846069e-10
1.32665716121e-09
1.95550413675e-09
1.01171709965e-09
7.29708877438e-10
3.1741682498e-09
4.39420995203e-09
2.80151714703e-09
2.93701650149e-09
4.88786698651e-10
3.0412884679e-09
4.59502374802e-09
3.18882006899e-09
5.24471357023e-09
3.4357596328e-09
6.90118073069e-10
2.95626753541e-10
3.7252152978e-10
1.83249325253e-10
1.10393984571e-10
3.72234167462e-10
2.29950658113e-09
9.95024119244e-10
1.03803605003e-09
6.70429842805e-10
9.57710807826e-11
1.86169157357e-09
2.70340622501e-10
1.18601567427e-09
7.21036514871e-10
8.14010894088e-09
6.36015110966e-09
2.29694851813e-09
6.1782482286e-11
7.6823810922e-09
1.25555753502e-09
7.67451089716e-10
3.60644107534e-09
5.58213115392e-09
2.22409457557e-09
1.21220859871e-11
3.48139035985e-09
1.1010457143e-09
2.82992622966e-10
1.20135596347e-09
1.1444763177e-09
3.23131519017e-09
7.5690191573e-10
5.1735275396e-09
2.05843002659e-09
1.82873700557e-09
8.17921820602e-11
1.93619323637e-10
7.01094604808e-10
1.27258887448e-09
1.15698911052e-09
6.83676293921e-10
9.09580159024e-10
3.95701484768e-09
1.29061063557e-09
2.16444278052e-09
3.15094142994e-09
3.14218365237e-09
1.27649341901e-09
2.3309178492e-09
3.04288007996e-09
3.06111635821e-09
1.15054013061e-09
2.3014257805e-09
3.18570337117e-09
6.04351866365e-10
1.6693555245e-09
4.46507261247e-09
2.29726885549e-09
2.66054514862e-10
2.20130954578e-09
2.14007338334e-09
1.36902080011e-10
4.18762703683e-10
2.9922635813e-09
2.7360266625e-09
8.28598161748e-10
2.8364576039e-09
8.75871248928e-10
2.19147284763e-09
9.05952101156e-10
2.1145355675e-09
1.78407453205e-09
4.33551705161e-09
1.56910804987e-09
1.52561003763e-09
3.78831358959e-10
6.04053653717e-10
9.59921500469e-10
1.11848916498e-09
1.54062948766e-09
2.40728184564e-09
1.23131612122e-09
1.42060760361e-09
1.04425957283e-10
1.07056410758e-09
1.89881177259e-10
1.24153888606e-09
7.13113590885e-09
1.59173283165e-09
5.66518050489e-09
5.30207383941e-09
1.16011639084e-09
1.47514806904e-09
2.21963082987e-09
4.84784816819e-10
2.30438324594e-09
3.44739198388e-09
2.50484218502e-09
3.63358639664e-09
2.05442250817e-10
2.39698311339e-09
2.74166139377e-10
2.23156476792e-11
5.30649152808e-09
3.1477202891e-09
6.15836241039e-09
1.73512703793e-09
1.637728537e-09
2.74350414077e-13
1.19356662292e-09
6.99421666673e-10
1.8158458933e-09
4.02192470713e-09
1.8263713601e-09
8.16929224002e-10
1.87321716283e-09
8.19055481655e-09
2.3822306386e-09
1.62288960964e-09
2.27353633302e-10
2.52406203331e-09
3.31852852887e-09
3.27410741311e-09
5.56900085353e-10
5.10660851227e-09
2.76443034996e-10
5.37560630773e-09
3.71452586798e-09
2.46878992815e-09
2.79089386833e-09
6.10630679515e-09
5.88385971156e-09
3.11188944264e-09
5.81111403521e-09
7.31436115733e-09
1.48281022369e-09
4.23144309369e-09
1.94132179809e-10
5.79292233916e-09
3.21556286302e-09
3.7024751209e-10
1.5301563423e-09
3.59647154411e-10
6.43530268461e-09
6.07375535109e-09
3.78150387629e-09
3.80352907291e-09
3.15095862649e-09
1.49230707132e-09
4.31203706771e-09
2.91295675726e-09
7.92099967762e-10
1.1767302931e-09
9.17308758317e-11
6.55475498945e-10
4.74921302644e-09
3.07209419324e-09
2.37024575412e-09
5.47307148639e-10
5.97850695329e-10
4.17074858226e-09
1.89153862679e-11
2.85172746733e-10
1.69736489007e-10
1.8672924436e-09
1.1266030189e-09
5.59706992667e-12
1.20264261887e-09
2.5019273899e-09
2.7942548836e-09
2.40207948281e-11
2.5703809903e-10
1.76994174477e-09
4.30365862072e-09
3.71546468377e-09
7.81417266065e-12
2.31833169752e-10
1.9990888482e-09
3.42435101008e-09
2.57551915228e-09
2.11075796857e-09
8.65982748031e-10
3.22958341454e-09
2.85890565415e-09
2.68816029136e-09
1.89252928725e-09
1.25872778217e-09
1.80991928087e-09
4.01729856221e-09
3.0385506544e-09
3.97215512197e-10
4.50967027358e-10
9.07258752373e-10
4.02885837926e-10
7.41351257254e-10
2.61462028572e-10
3.4403216975e-09
2.24313751809e-09
2.20008757152e-09
2.05665808478e-09
3.00632816682e-09
7.44597858645e-11
3.81484291123e-10
4.55422320222e-10
1.31536252165e-09
2.61349905134e-10
5.90418433367e-10
1.1176857334e-09
8.33590519082e-10
1.28886033654e-10
7.15781804278e-10
1.83331463214e-09
3.89268000457e-10
1.11270340428e-09
1.66265632523e-11
1.09798637668e-09
1.40021819605e-09
1.80535500272e-09
1.06977914769e-09
2.03237082899e-09
1.96254847789e-09
1.88509445096e-09
1.85586935673e-10
2.94800486824e-09
3.80963014009e-10
2.3040370683e-09
6.82970793982e-09
3.80762236725e-09
6.85878096843e-10
2.74208580056e-09
6.89778724236e-09
6.81831545079e-10
7.3469385544e-10
1.65860376795e-09
4.59503563463e-10
1.14011470261e-09
1.34676055815e-09
1.10475239158e-09
1.76584018682e-09
4.64010968004e-09
1.33912175078e-09
3.61549002511e-09
3.2545370216e-10
2.33186331822e-09
7.49947613122e-10
1.52861143836e-09
2.07264478017e-09
5.19454636448e-09
2.97725169521e-09
8.29106048783e-10
1.07965078463e-09
2.20729098585e-09
1.52697144086e-10
2.31984418981e-09
3.65022602579e-09
6.67463910039e-10
1.02188765393e-09
1.42283860162e-09
2.62544055889e-09
5.73187041737e-09
1.96249605985e-09
1.27134743236e-09
1.16475131602e-10
1.59671913479e-09
7.59387440484e-10
1.17363302713e-09
4.06792075545e-09
1.93280290247e-09
2.38452534273e-09
2.03876888134e-10
3.23013471738e-09
1.4434005938e-09
2.00241197605e-09
2.63332813566e-09
7.52628161178e-10
4.57249079792e-09
2.22150018978e-09
7.76645728186e-10
3.19238794948e-10
2.70874620526e-09
1.27792341104e-09
3.06154934085e-09
1.49978927043e-09
9.00252882156e-10
4.23683721484e-09
8.23409722117e-10
8.16118088226e-10
6.67210218163e-10
4.29364824988e-09
3.61299438337e-09
8.07537083018e-10
8.54900444052e-09
5.86102778827e-09
2.12721046915e-09
4.41204866712e-11
1.58919902357e-09
8.21023433637e-10
5.20495369021e-10
5.5803851699e-10
1.58142151668e-09
3.29139145782e-09
4.14436822078e-09
2.13067378192e-09
1.31537449503e-09
2.35911352695e-09
1.85891909612e-09
1.35427061806e-09
3.04821832333e-10
1.27437499948e-09
1.69926457446e-09
2.18125003092e-10
1.49636309413e-09
1.77092959692e-09
1.39189135608e-09
1.25695717994e-09
2.91832605921e-10
5.18930810197e-10
2.09804018649e-09
4.08935480428e-09
1.21331532463e-09
2.3158875151e-09
1.56682561446e-09
5.69045661559e-10
5.75651923355e-09
3.21396556518e-09
1.59465644344e-09
4.44200585535e-09
2.87677948112e-10
3.72532615151e-09
1.29010367072e-09
1.75848312004e-09
2.75433718408e-09
4.1045788879e-09
4.39364748724e-09
2.69424696478e-09
2.48188994229e-09
3.01360414156e-09
3.57602460462e-09
3.96167847669e-09
6.5704783246e-09
7.07380399634e-10
4.88291136439e-09
5.9705731647e-10
1.98638866532e-09
2.42026581181e-09
1.93537630761e-09
3.89133528376e-09
2.58930063878e-09
5.0635182935e-10
2.87396533885e-09
1.6932904217e-11
5.67821069681e-09
3.84048518706e-09
1.74113712108e-09
2.62956355509e-09
2.37450538185e-09
1.46736167745e-10
9.19926300864e-10
2.13228568787e-09
8.62332406147e-11
2.96845865687e-09
5.37461729508e-10
2.56885638448e-09
4.29963659825e-10
1.09143662046e-09
3.37227927691e-09
2.73833962978e-11
1.23231610844e-09
9.83282460774e-10
8.73634193976e-10
3.1303427821e-09
1.34863545754e-09
1.53053150595e-09
1.18847207498e-09
9.20103501273e-10
3.12066849676e-09
1.32722870939e-09
4.08791980813e-09
7.05531474504e-10
1.81321958878e-09
2.13478523111e-09
2.58803571912e-09
8.79739381275e-10
7.49457272855e-10
2.02378328162e-09
4.83563319857e-09
1.77669622189e-09
2.15501953059e-09
2.05832389246e-09
3.34194982039e-09
5.13060621231e-09
6.08348655955e-09
3.66576869816e-09
6.93448223445e-10
5.56003223757e-09