# vtk DataFile Version 3.0
File Name: Molecule/sphere_cent/sphere_cent_0-s10.vtk
ASCII
DATASET UNSTRUCTURED_GRID
FIELD FieldData 1
TIME 1 1 double
0.0
POINTS 216 double
-0.85995960236 -0.5024228096 0.065367929637
-0.57634872198 -0.75641447306 0.30567237735
-0.80514383316 -0.31316581368 0.50358563662
-0.37460163236 -0.43164232373 0.81701403856
-0.57214224339 -0.044029135257 0.81735605001
-0.83969497681 0.20286042988 0.50318551064
-0.66918575764 0.15933784842 0.72383123636
-0.98308086395 -0.060402989388 0.15358892083
0.50822532177 0.79448282719 -0.33209687471
0.29332414269 0.94255226851 -0.15949003398
0.52174657583 0.85307341814 0.0028172093444
0.2727625668 0.94802421331 0.1622723192
0.072358906269 0.9969574213 -0.0081770671532
0.48704984784 0.80429065228 0.34016132355
-0.52275019884 0.77401256561 0.35681334138
-0.40927952528 0.69624167681 0.58950191736
-0.35630115867 0.87956571579 0.31298840046
-0.057591453195 0.85540431738 0.51395505667
-0.055726919323 0.65444111824 0.75242829323
-0.67201453447 0.61192166805 0.41670364141
-0.5391163826 0.43622121215 0.7184856534
-0.26230850816 0.53585326672 0.8021633029
-0.53240638971 -0.84642922878 -0.0074038617313
-0.78399950266 -0.61369723082 -0.068345673382
-0.50412148237 -0.80629253387 -0.30794531107
-0.30463212729 -0.93118208647 -0.19937947392
-0.31035941839 -0.92573618889 0.21483181417
0.5116430521 -0.793392241 -0.32960572839
0.52210789919 -0.85281705856 0.0012282164535
0.3063672483 -0.92674767971 -0.21720142663
0.51139724255 -0.79057222605 0.33654901385
0.30933278799 -0.92537796497 0.21931904554
0.79908239841 -0.32173645496 -0.50779950619
0.85583823919 -8.8818662334e-05 -0.51717019081
0.92598062754 -0.21960619092 -0.30727636814
0.79948377609 0.32079252601 -0.50776183605
0.92613953352 0.21846614778 -0.30762439966
-0.40271943808 -0.013484884053 0.91272735596
-0.0061519932933 -0.51662456989 0.85607999563
-0.15669807792 -0.24965541065 0.95547479391
0.16972646117 -0.26573005319 0.94896543026
0.31175285578 -0.5123822093 0.80010122061
0.057991802692 0.014640174806 0.99660128355
0.31718581915 -0.50733959675 -0.80121284723
0.044110223651 -0.51170039177 -0.85770177841
0.15675672889 -0.28750762343 -0.9447888732
-0.15512603521 -0.29439201951 -0.94279897213
-0.0041526812129 -0.069816529751 -0.99714767933
0.92565369606 -0.22258901596 0.30580630898
0.85055500269 -0.017960589379 0.52364629507
0.79823285341 -0.32723224163 0.50567245483
-0.79930520058 -0.31737190485 -0.51015645266
-0.92216849327 -0.20616526902 -0.32611098886
-0.85584419966 0.0014121831628 -0.51717621088
-0.92894673347 0.20903879404 -0.30524635315
-0.79979014397 0.32162100077 -0.50683832169
-0.20920537412 0.30927422643 -0.92766147852
-0.31915047765 0.51269578934 -0.79705733061
-0.00054273515707 0.52199804783 -0.85291343927
0.20725440979 0.30979210138 -0.92792373896
0.31734392047 0.51640504599 -0.79536515474
0.68520194292 0.15665729344 -0.71128201485
0.58939886093 0.44031602144 -0.67728996277
0.45450535417 0.27068442106 -0.84861904383
0.51210922003 0.0033548269421 -0.85891276598
0.51552116871 0.049854557961 0.85514223576
0.45859450102 -0.27299019694 0.84503865242
0.67770147324 -0.19669792056 0.70856916904
0.58650869131 -0.44825130701 0.67458838224
0.89145886898 0.45127409697 -0.0018522564787
0.71241766214 0.68272942305 0.16153340042
0.83872079849 0.46311578155 0.28651344776
0.67420041561 0.60065943003 0.42952725291
0.76377624273 0.32639631629 0.55515962839
-0.45530375838 0.26900860667 -0.84872245789
-0.58950680494 0.43892773986 -0.67809820175
-0.68497490883 0.15600462258 -0.71164625883
-0.51207220554 0.00068112352164 -0.85893672705
-0.46311667562 -0.67152869701 0.57495838404
-0.28980430961 -0.83511459827 0.46746823192
0.0039305547252 -0.88851362467 0.45699054003
-0.15508306026 -0.71202206612 0.68297350407
-0.45913720131 -0.27748113871 -0.84394735098
-0.68476569653 -0.15490539372 -0.71208292246
-0.59073764086 -0.43854802847 -0.67726457119
-0.34249418974 -0.50210428238 -0.79406875372
-0.43896868825 -0.65912383795 -0.60987597704
-0.67309039831 -0.58668881655 -0.45020702481
-0.84353637695 -0.44820451736 -0.29195168614
-0.69528526068 -0.68691968918 -0.2049228996
0.68508064747 -0.15595276654 -0.71155625582
0.45810520649 -0.27835562825 -0.84417027235
0.59035950899 -0.43976545334 -0.67681103945
0.71546876431 0.67952162027 -0.16151443124
-0.23613235354 0.035274043679 0.9693312645
0.1548307389 -0.71676439047 0.67975652218
0.29415163398 0.029256789014 0.95466601849
0.92546004057 0.21532265842 0.31106650829
-0.87015140057 -0.47342315316 -0.12240859866
-0.97113132477 -0.16290685534 -0.16305141151
0.30810141563 0.086529940367 -0.94729012251
-0.30940386653 0.086870960891 -0.94685065746
0.84055936337 0.46329900622 -0.28100636601
0.67844337225 0.58534151316 -0.44385048747
0.67899149656 -0.58584922552 0.44231572747
0.83905696869 -0.46726164222 0.27892279625
0.71437877417 -0.68108522892 0.15991772711
0.89075428247 -0.45263764262 0.0010094887111
-0.0024459483102 0.85755246878 -0.51437598467
-0.15865033865 0.71289676428 -0.68303191662
-0.26794078946 0.84563440084 -0.46164864302
-0.44072562456 0.67430233955 -0.59251064062
-0.50714677572 0.79679197073 -0.32843893766
-0.67841625214 0.58359253407 -0.44627594948
-0.71422940493 0.6751254797 -0.1844471544
-0.84912711382 0.45636045933 -0.26596695185
-0.85691046715 0.51529413462 0.009457631968
0.8398501277 -0.4654892683 -0.27952429652
0.67690426111 -0.58654385805 -0.44465637207
0.71541899443 -0.6802585125 -0.15877999365
0.44458338618 -0.6720867157 -0.59208911657
0.19353231788 -0.71137845516 -0.67572665215
0.28024089336 -0.8367421031 -0.47071716189
-0.036683041602 -0.87824034691 -0.47517055273
-0.074560202658 0.94670403004 -0.31310880184
-0.27224725485 0.93489456177 -0.22727414966
-0.56684708595 0.82263547182 -0.042210355401
-0.71127218008 0.69809889793 0.081829704344
-0.94677889347 0.30923089385 -0.088716700673
0.15591911972 0.71484661102 -0.68163156509
0.43800252676 0.67478817701 -0.59397095442
0.43759846687 -0.67454606295 0.59449917078
0.27930516005 0.83989286423 -0.46533980966
0.28333088756 -0.83662694693 0.46895641088
0.98648530245 -0.11593296379 -0.11331828684
0.98639684916 -0.11540456116 0.1142200157
0.95999139547 -0.00090294063557 -0.28002139926
0.9863601923 0.11609417945 -0.11447391659
0.99999910593 -0.00012195139425 0.00030299008358
0.98654979467 0.11479837447 0.11385148019
0.9599146843 -0.0024863099679 0.2801156044
-0.960111022 -0.0032995708752 -0.27919918299
-0.98161149025 0.12090542912 -0.14811813831
-0.10296934843 0.11564742774 -0.98793661594
0.10024490952 0.11517155915 -0.98827207088
-0.00084688287461 0.28098115325 -0.95968693495
-0.25198504329 0.95355284214 0.16493071616
-0.072474434972 0.95009797812 0.30219998956
-0.10535852611 0.98887121677 -0.10491021723
-0.086060836911 0.99075627327 0.10309201479
-0.26073250175 0.96530038118 -0.010795916431
-0.40742823482 0.90768998861 -0.099759757519
-0.40617796779 0.91016304493 0.081011652946
-0.54238343239 0.8225325346 0.1712590754
-0.28128674626 -0.95959615707 0.0034366114996
-0.11581347883 -0.98693597317 -0.10764928162
-0.11376090348 -0.98673540354 0.11277198046
0.0011694938876 -0.99999696016 0.0019764325116
0.11504984647 -0.98713314533 -0.10535561293
0.11693075299 -0.9863075614 0.11305989325
0.28238290548 -0.95930075645 0.0010780498851
0.33316463232 -0.12042521685 -0.93514502048
0.17235052586 -0.062521144748 -0.98303425312
-0.17672011256 -0.063450545073 -0.98225730658
-0.33601954579 -0.12134606391 -0.93404269218
0.25495406985 0.84514653683 0.46980619431
0.43896538019 0.68492698669 0.58000689745
0.13685914874 0.72223478556 0.67710232735
-0.94734591246 0.12755648792 0.29338404536
-0.88794958591 0.3772944212 0.26280593872
-0.95755583048 0.27060866356 0.099339433014
-0.99533933401 0.09147336334 0.021546075121
0.070982970297 0.98162275553 -0.17707782984
-0.64596694708 0.50804400444 0.56953537464
-0.78449332714 0.43257790804 0.44424504042
-0.72687870264 0.33815455437 0.59753733873
-0.78762686253 0.56690376997 0.24135017395
-0.65196979046 0.70864474773 0.26926726103
-0.14830733836 -0.54060941935 -0.82816439867
-0.19651153684 -0.69592678547 -0.69085729122
-0.016292776912 -0.70017403364 -0.71403247118
0.12727299333 0.93203008175 -0.33929976821
-0.99303996563 -0.0028971256688 -0.1180524677
-0.99734854698 -0.063289158046 -0.012286436744
0.54848086834 0.39287731051 0.73650568724
0.31683009863 0.22253961861 0.92163050175
0.10983663797 0.93390917778 0.34023186564
0.080256894231 0.98348361254 0.16168063879
-0.29179397225 -0.86094343662 -0.41709002852
0.035203143954 0.52206993103 0.85211420059
0.10033853352 0.37258329988 0.92231893539
-0.023293916136 0.31790325046 0.94779253006
0.31060624123 0.44513958693 0.83969908953
-0.14970034361 0.25265842676 0.95486342907
-0.17353832722 0.40759068727 0.89636743069
-0.37038826942 0.26646596193 0.88827764988
0.39210784435 0.5702803731 0.72115534544
0.60131001472 0.51928251982 0.60711210966
-0.45969992876 -0.75445097685 -0.46890866756
-0.26186603308 -0.79135543108 -0.55277460814
0.22925236821 0.59494906664 0.77044510841
0.29224735498 0.69658392668 0.65519827604
0.093508481979 0.20081044734 0.97441643476
0.81428533792 0.15483446419 0.55973285437
0.70352393389 0.024047121406 0.70998209715
0.66208451986 0.18936623633 0.72486579418
-0.32897421718 0.14529420435 0.93307572603
-0.47771441936 0.12157058716 0.86967229843
-0.037871815264 0.15195055306 0.98759233952
-0.41928181052 -0.56765651703 0.70807337761
-0.31694352627 -0.69402289391 0.64641022682
-0.27152866125 -0.59055656195 0.75991475582
-0.78354597092 -0.57433331013 -0.23727349937
-0.56740933657 0.20865036547 0.79660379887
-0.47624388337 0.3414529264 0.81032466888
-0.63112270832 0.37206056714 0.67881166935

CELLS 428 1712
3 0 1 2
3 2 3 4
3 5 2 6
3 2 7 0
3 8 9 10
3 9 11 10
3 9 12 11
3 10 11 13
3 14 15 16
3 17 15 18
3 14 19 15
3 15 20 21
3 22 1 23
3 24 25 22
3 22 26 1
3 27 28 29
3 28 30 31
3 32 33 34
3 33 35 36
3 4 3 37
3 3 38 39
3 38 40 39
3 38 41 40
3 39 40 42
3 43 44 45
3 44 46 45
3 45 46 47
3 48 49 50
3 51 52 53
3 53 54 55
3 56 57 58
3 59 58 60
3 35 61 62
3 61 63 62
3 61 64 63
3 62 63 60
3 65 66 67
3 66 68 67
3 66 41 68
3 67 68 50
3 69 70 71
3 70 72 71
3 70 13 72
3 71 72 73
3 57 74 75
3 74 76 75
3 74 77 76
3 75 76 55
3 1 78 2
3 1 79 78
3 79 80 81
3 77 82 83
3 82 84 83
3 82 85 84
3 83 84 51
3 85 86 84
3 86 87 84
3 84 87 51
3 51 87 88
3 87 24 89
3 64 90 91
3 90 92 91
3 90 32 92
3 91 92 43
3 13 70 10
3 10 70 93
3 22 89 24
3 80 79 26
3 26 79 1
3 64 61 90
3 33 61 35
3 32 90 33
3 33 90 61
3 42 94 39
3 38 81 95
3 41 66 40
3 40 66 96
3 45 91 43
3 85 82 46
3 69 71 97
3 97 71 73
3 49 67 50
3 77 83 76
3 53 83 51
3 55 76 53
3 53 76 83
3 51 88 52
3 98 99 88
3 60 63 59
3 59 63 100
3 77 74 101
3 56 74 57
3 69 102 93
3 102 103 93
3 102 35 103
3 93 103 8
3 50 104 105
3 104 106 105
3 104 30 106
3 105 106 107
3 108 109 110
3 109 111 110
3 109 57 111
3 110 111 112
3 112 113 114
3 113 115 114
3 113 55 115
3 114 115 116
3 32 117 118
3 117 119 118
3 117 107 119
3 118 119 27
3 43 120 121
3 120 122 121
3 120 27 122
3 121 122 123
3 69 93 70
3 10 93 8
3 108 110 124
3 125 110 112
3 112 114 126
3 126 114 127
3 123 122 29
3 29 122 27
3 107 106 119
3 28 106 30
3 27 119 28
3 28 119 106
3 107 117 34
3 34 117 32
3 35 102 36
3 36 102 69
3 43 121 44
3 50 105 48
3 48 105 107
3 116 115 128
3 54 115 55
3 57 109 58
3 58 109 129
3 8 103 130
3 62 103 35
3 30 104 131
3 68 104 50
3 112 111 113
3 75 111 57
3 55 113 75
3 75 113 111
3 27 120 118
3 92 120 43
3 32 118 92
3 92 118 120
3 8 130 132
3 130 129 132
3 130 60 129
3 132 129 108
3 41 95 131
3 95 133 131
3 95 80 133
3 131 133 30
3 8 132 9
3 30 133 31
3 31 133 80
3 34 134 107
3 107 134 135
3 36 136 33
3 33 136 34
3 34 136 134
3 136 137 134
3 136 36 137
3 134 137 138
3 138 137 139
3 137 36 69
3 80 95 81
3 38 95 41
3 138 135 134
3 135 48 107
3 138 139 135
3 139 140 135
3 139 97 140
3 135 140 48
3 48 140 49
3 49 140 97
3 97 139 69
3 69 139 137
3 52 141 53
3 141 54 53
3 52 99 141
3 141 142 54
3 47 143 144
3 143 145 144
3 143 56 145
3 144 145 59
3 59 145 58
3 58 145 56
3 108 129 109
3 58 129 60
3 60 130 62
3 62 130 103
3 41 131 68
3 68 131 104
3 146 16 147
3 17 16 15
3 12 148 149
3 148 150 149
3 148 125 150
3 149 150 146
3 125 151 150
3 151 152 150
3 151 126 152
3 150 152 146
3 126 151 112
3 112 151 125
3 146 152 16
3 152 153 16
3 152 126 153
3 16 153 14
3 25 154 22
3 154 26 22
3 25 155 154
3 155 156 154
3 155 157 156
3 154 156 26
3 157 155 158
3 155 25 123
3 26 156 80
3 80 156 159
3 29 158 123
3 123 158 155
3 31 160 28
3 28 160 29
3 29 160 158
3 160 159 158
3 160 31 159
3 158 159 157
3 157 159 156
3 159 31 80
3 64 161 100
3 161 162 100
3 161 45 162
3 100 162 144
3 46 163 47
3 47 163 143
3 45 161 91
3 91 161 64
3 77 164 82
3 82 164 46
3 144 162 47
3 47 162 45
3 64 100 63
3 59 100 144
3 143 101 56
3 56 101 74
3 77 101 164
3 101 163 164
3 101 143 163
3 164 163 46
3 13 165 166
3 165 17 167
3 5 168 2
3 168 7 2
3 5 169 168
3 169 170 168
3 169 116 170
3 7 168 171
3 9 172 12
3 12 172 148
3 11 165 13
3 19 173 15
3 173 20 15
3 19 174 173
3 174 175 173
3 174 5 175
3 5 174 169
3 174 176 169
3 174 19 176
3 169 176 116
3 116 176 127
3 176 177 127
3 176 19 177
3 127 177 153
3 44 178 46
3 178 85 46
3 85 178 179
3 178 180 179
3 178 44 180
3 179 180 123
3 13 166 72
3 85 179 86
3 123 180 121
3 121 180 44
3 108 181 132
3 132 181 9
3 99 182 141
3 182 142 141
3 99 183 182
3 183 171 182
3 183 7 171
3 182 171 142
3 7 183 0
3 183 99 0
3 142 128 54
3 54 128 115
3 142 171 128
3 171 170 128
3 170 171 168
3 128 170 116
3 148 124 125
3 125 124 110
3 108 124 181
3 124 172 181
3 124 148 172
3 181 172 9
3 153 177 14
3 14 177 19
3 116 127 114
3 126 127 153
3 65 184 185
3 17 186 147
3 186 187 147
3 186 11 187
3 147 187 149
3 24 188 25
3 25 188 123
3 18 21 189
3 190 189 191
3 189 190 192
3 193 194 195
3 195 194 21
3 192 184 196
3 184 197 196
3 184 73 197
3 196 197 166
3 86 198 87
3 198 24 87
3 24 198 188
3 198 199 188
3 198 86 199
3 188 199 123
3 149 187 12
3 12 187 11
3 17 147 16
3 146 147 149
3 192 200 189
3 18 189 167
3 200 167 189
3 194 189 21
3 21 18 15
3 18 167 17
3 167 201 165
3 165 201 166
3 166 201 196
3 201 200 196
3 201 167 200
3 196 200 192
3 11 186 165
3 165 186 17
3 166 197 72
3 72 197 73
3 123 199 179
3 179 199 86
3 42 96 202
3 96 185 202
3 96 65 185
3 202 185 190
3 65 96 66
3 40 96 42
3 73 203 97
3 97 203 49
3 49 203 204
3 203 205 204
3 203 73 205
3 204 205 65
3 195 206 193
3 206 94 193
3 195 207 206
3 207 37 206
3 207 4 37
3 206 37 94
3 42 208 94
3 94 208 193
3 78 209 2
3 209 3 2
3 81 210 79
3 79 210 78
3 78 210 209
3 210 211 209
3 210 81 211
3 209 211 3
3 89 212 87
3 87 212 88
3 88 212 98
3 212 23 98
3 212 89 23
3 98 23 0
3 4 207 213
3 214 213 195
3 207 195 213
3 213 214 215
3 20 214 21
3 214 195 21
3 0 23 1
3 23 89 22
3 94 37 39
3 39 37 3
3 3 211 38
3 211 81 38
3 49 204 67
3 67 204 65
3 52 88 99
3 99 98 0
3 175 215 173
3 173 215 20
3 20 215 214
3 215 6 213
3 215 175 6
3 213 6 4
3 4 6 2
3 5 6 175
3 65 205 184
3 184 205 73
3 193 191 194
3 194 191 189
3 190 185 192
3 192 185 184
3 42 202 208
3 202 191 208
3 202 190 191
3 208 191 193

CELL_TYPES 428
5
5
5
5
5
5
5
5
5
5
5
5
5
5
5
5
5
5
5
5
5
5
5
5
5
5
5
5
5
5
5
5
5
5
5
5
5
5
5
5
5
5
5
5
5
5
5
5
5
5
5
5
5
5
5
5
5
5
5
5
5
5
5
5
5
5
5
5
5
5
5
5
5
5
5
5
5
5
5
5
5
5
5
5
5
5
5
5
5
5
5
5
5
5
5
5
5
5
5
5
5
5
5
5
5
5
5
5
5
5
5
5
5
5
5
5
5
5
5
5
5
5
5
5
5
5
5
5
5
5
5
5
5
5
5
5
5
5
5
5
5
5
5
5
5
5
5
5
5
5
5
5
5
5
5
5
5
5
5
5
5
5
5
5
5
5
5
5
5
5
5
5
5
5
5
5
5
5
5
5
5
5
5
5
5
5
5
5
5
5
5
5
5
5
5
5
5
5
5
5
5
5
5
5
5
5
5
5
5
5
5
5
5
5
5
5
5
5
5
5
5
5
5
5
5
5
5
5
5
5
5
5
5
5
5
5
5
5
5
5
5
5
5
5
5
5
5
5
5
5
5
5
5
5
5
5
5
5
5
5
5
5
5
5
5
5
5
5
5
5
5
5
5
5
5
5
5
5
5
5
5
5
5
5
5
5
5
5
5
5
5
5
5
5
5
5
5
5
5
5
5
5
5
5
5
5
5
5
5
5
5
5
5
5
5
5
5
5
5
5
5
5
5
5
5
5
5
5
5
5
5
5
5
5
5
5
5
5
5
5
5
5
5
5
5
5
5
5
5
5
5
5
5
5
5
5
5
5
5
5
5
5
5
5
5
5
5
5
5
5
5
5
5
5
5
5
5
5
5
5
5
5
5
5
5
5
5
5
5
5
5
5
5
5
5
5
5
5
5
5
5
5
5
5
5
5
5
5
5
5
5
5
5
5
5
5
5
5
5
5
5
5
5
5
5
5
5
5

CELL_DATA 428
SCALARS cell_data_0 double
LOOKUP_TABLE default
1.32446778416e-07
2.74753963372e-07
2.3402857643e-07
2.50129585013e-08
1.14744780938e-08
3.55795895255e-08
7.12812263246e-08
2.20283001625e-08
7.60455402647e-08
1.25767195364e-07
4.23605576926e-08
2.85818022817e-08
1.4963675021e-07
2.51064855519e-08
8.40158891781e-08
2.9006995376e-08
3.68236536512e-08
3.25036678471e-08
2.93046461893e-08
7.81872378687e-08
4.99344560033e-08
3.66368501412e-08
2.84156595374e-08
3.50919414717e-08
3.02416439009e-08
1.08676290538e-08
5.04708942951e-08
1.46882679467e-08
4.71141653063e-08
3.85141174177e-08
3.64695824032e-08
4.02743901749e-08
5.95429004884e-09
4.07407102525e-09
1.81601306044e-09
8.80743030834e-09
4.57923784052e-08
6.31446521702e-08
5.32739652401e-09
1.49894334776e-08
3.9303855457e-08
5.44511153715e-08
8.44595615323e-09
5.69778110364e-08
3.2829553344e-09
9.3799346203e-10
4.42276770618e-09
1.00786578957e-08
8.3426189567e-08
1.29157340289e-07
4.18586002519e-09
1.62539005499e-08
4.47609819315e-09
4.61564899561e-08
4.82206816302e-09
1.72286942168e-09
1.5831327673e-08
5.1603243222e-09
1.17524583525e-08
4.75019217107e-08
1.71391202752e-08
4.09820308998e-09
1.90497160511e-09
4.09285511306e-08
2.13610320359e-08
3.01692172481e-08
1.14464647222e-08
1.80674038103e-08
1.69786756747e-08
7.36508590848e-09
6.39365484101e-09
6.65099075121e-09
2.30901768162e-09
6.6632937858e-08
9.43532807706e-09
5.65542696825e-08
9.40282913324e-08
4.84732610395e-08
7.06255256081e-08
1.9062211571e-08
9.21941265273e-09
3.98276317114e-08
5.34595669365e-09
1.37837591154e-10
6.98677527785e-09
1.51050863603e-10
4.19716417487e-08
8.41393876255e-08
2.25457606203e-08
4.59861551597e-09
4.04737056712e-09
3.27852100276e-08
4.52901473708e-08
8.49329443787e-09
1.2612136854e-08
1.53254642291e-08
3.38071472212e-09
2.2484043473e-09
9.60599706145e-09
4.18379722112e-08
1.17113845169e-08
9.94820201497e-09
1.08977824944e-08
1.95054782894e-08
5.13336462784e-09
1.66546784506e-08
9.31236309522e-09
2.23743627119e-08
5.67335264368e-09
5.42306567312e-09
5.18865084609e-08
6.03458578978e-10
2.1125676031e-08
4.29166146444e-08
2.611650189e-08
3.16474982663e-09
6.13160913416e-08
1.44493995933e-08
1.53626820436e-08
1.47913051166e-08
9.52242994892e-09
6.44928633016e-09
4.45196610486e-08
1.0086146323e-07
5.06966540096e-08
1.834612181e-08
1.77184834061e-08
3.33327546281e-08
1.94640557008e-08
6.7942929882e-08
6.42053214109e-08
2.31561312101e-08
2.85403673819e-08
6.41556232603e-08
2.41950555206e-08
1.19248442108e-08
2.32988494772e-08
3.58186789225e-09
1.46594327239e-08
1.94081200001e-08
1.2741662662e-08
1.46897759339e-08
2.98684519627e-08
1.93957777638e-08
1.16445482507e-08
9.57072448433e-10
1.07927198069e-08
1.57111248204e-08
3.2827099403e-08
1.36150272609e-08
1.77567148201e-08
4.26577726208e-08
4.83480684185e-09
1.13074827939e-08
1.25278714848e-08
2.5739640106e-09
2.53806804603e-09
4.92911092978e-08
8.1036893669e-09
3.79619350054e-08
6.82882813519e-08
2.05687727329e-08
8.78564197752e-08
3.97175559756e-08
1.33470940786e-08
1.38563519213e-08
8.30410900073e-08
5.25466548703e-09
8.25474195469e-08
3.49411857061e-09
4.83408177629e-08
7.92921856469e-08
1.88777046889e-08
3.11416785303e-10
4.74290424017e-08
8.58663931258e-08
2.53972037426e-09
6.88231118106e-09
9.94586575009e-08
8.5767738049e-08
1.99310302293e-08
5.26273507027e-08
9.19147499381e-08
4.0970974293e-08
2.37281300023e-08
1.05783884896e-08
6.83706554073e-08
2.1866660176e-08
1.60332301388e-08
1.60909276705e-09
1.81790050937e-08
2.08783138674e-08
6.72473857643e-09
4.37284708712e-09
1.39565525491e-09
1.18498199299e-08
7.83813609232e-09
1.00874809525e-08
1.36020953022e-08
6.34615416501e-09
4.99250726451e-09
1.06706018709e-07
6.60589156815e-09
7.66430583147e-09
4.09050326834e-09
2.99385538212e-09
1.69032598918e-08
9.60452733685e-10
1.82621775567e-08
4.13392159951e-10
1.15963870068e-08
1.06550288033e-08
2.04144092792e-08
8.30361547164e-09
1.2359457856e-09
1.68056171269e-08
2.22465835065e-08
3.68547900199e-08
9.30846081844e-08
6.32838911535e-09
2.62913369471e-09
8.50631985046e-08
6.06741619828e-08
8.07018730931e-08
9.50686936011e-08
4.63234564364e-08
1.30830297963e-07
5.89358282359e-08
2.00328654504e-08
1.68485762472e-08
1.13431935285e-07
1.49917356371e-09
7.53192529178e-08
1.14468872346e-09
3.92115321026e-08
8.23814285415e-08
5.36172694919e-09
2.99426400646e-09
1.66354741241e-08
4.12631964865e-09
2.36434312824e-08
1.32222571504e-08
1.09965667562e-08
1.48976534857e-08
2.30267283748e-08
4.14641807058e-09
1.40924739486e-08
1.44912791329e-08
1.36050591794e-09
9.03168745484e-09
9.56329633322e-09
3.19288450855e-09
4.98492760539e-09
3.01413273137e-09
1.07929457845e-08
1.7462124438e-08
3.44517957862e-08
6.42703887576e-08
8.86782946827e-08
5.91290197763e-08
1.02808109029e-07
3.040026895e-08
4.54239473097e-08
8.08532268923e-08
2.17452866298e-08
1.65910796435e-08
2.09119835211e-08
1.31352353141e-08
5.02831434582e-09
4.10068988857e-08
4.44771628838e-08
2.16837879987e-08
2.25849549432e-08
8.79134105528e-09
2.06708047406e-08
2.4392411701e-08
1.87502761185e-08
2.65769515826e-09
2.0458258315e-08
4.62743629835e-09
1.1073487633e-08
2.27233970725e-09
2.73739385495e-08
1.93422322615e-08
8.74272578338e-09
1.01447656939e-08
2.41964812871e-08
3.28986015204e-08
2.27744760508e-09
4.01287430322e-09
1.3732780867e-08
1.01981391337e-08
1.28620770335e-08
1.06078789914e-08
8.52477037138e-08
1.23568068987e-08
1.06527782075e-07
1.86247350857e-08
2.81597131496e-08
1.32242366078e-07
2.76434847011e-08
5.26233889923e-09
3.73894995722e-08
7.3976785801e-09
3.68751099067e-08
2.21208187607e-08
4.31349717457e-09
7.41197392802e-09
9.62898348658e-09
2.75816685493e-09
1.49883883726e-08
2.20120472313e-08
9.50559540009e-10
1.45549725987e-08
1.93520010209e-08
4.2380490245e-09
1.58545786224e-07
6.43329661242e-08
1.24785623051e-08
1.83756683188e-08
1.48010947676e-08
3.63226986961e-08
2.44701376241e-08
4.54790578348e-08
2.9521376993e-08
1.65517233779e-08
3.59850027132e-09
3.30521555048e-09
1.20350631037e-08
1.89906623946e-08
2.0061653165e-08
2.93345094666e-08
1.63510587662e-08
3.28234489364e-09
1.45173078785e-08
1.25691953007e-08
1.21268615241e-09
6.11059940986e-08
1.59823492679e-08
3.0721303361e-08
1.4131833123e-10
6.58617671004e-10
2.05856909761e-08
2.94293981588e-08
3.99269725974e-08
7.38820115022e-09
3.46161835707e-08
8.75302922443e-08
2.61550359065e-10
3.5997795443e-09
2.0123966533e-08
1.13512376326e-08
2.5149652106e-08
2.93983787181e-08
1.18220098408e-08
1.1573653114e-08
1.51769000438e-08
1.4749417493e-09
8.8111589553e-09
9.35394505377e-09
1.13300427434e-09
1.45696210454e-09
1.42936816385e-07
2.2247390015e-08
4.19485830976e-08
4.44000928377e-08
5.78553688732e-09
1.59335200904e-09
3.08539521071e-08
2.51773810847e-08
2.55766867247e-08
6.0534553656e-08
6.17240426028e-09
1.50020356401e-08
1.41765820502e-09
2.89235535969e-08
9.61298980801e-08
3.72465008918e-08
5.84577333773e-09
1.40382343271e-08
7.31293659096e-09
2.78695245569e-08
1.37030168664e-08
4.03879471405e-11
9.21598751326e-08
3.49984998335e-08
3.86328160123e-09
1.72226742582e-07
4.659940996e-10
5.76774123667e-10
3.33400644542e-08
3.78930223201e-08
4.42475443455e-08
1.80405202792e-07
1.82865005903e-08
2.32574730033e-08
4.67946855816e-08
5.19115592578e-08
3.00681408299e-09
3.0328844408e-08
7.46915657099e-08
2.92931670599e-08
5.73561803525e-08
6.4249212585e-08
5.9827720456e-08
1.03074025084e-08
3.41889482481e-09
4.17966495805e-10
1.66152374502e-08
5.62289839466e-10
1.56248412937e-08
3.04168736092e-08
3.58531192481e-08
7.63510670156e-09
2.09541263098e-08
1.26996245957e-07
1.24141967672e-07
1.47682435216e-07
5.84605278214e-09
3.42468874792e-10
3.15240474816e-08
3.89831056653e-08
1.42103190938e-08
1.70130330391e-09
4.22226290377e-08
1.36424397804e-08
1.52628083786e-08
5.83534924318e-09

