# vtk DataFile Version 3.0
File Name: Molecule/sphere_cent/sphere_cent_0-s4.vtk
ASCII
DATASET UNSTRUCTURED_GRID
FIELD FieldData 1
TIME 1 1 double
0.0
POINTS 103 double
0.85101646185 0.52202939987 -0.010331336409
0.80161112547 0.33210119605 -0.49374690652
0.51130825281 0.78504270315 -0.34493711591
0.31903943419 0.51505696774 -0.7926877141
0.00030253222212 0.85080498457 -0.52544426918
-0.00031735992525 0.850936234 0.52526336908
-0.27458566427 0.49951717257 0.8186557889
0.30957779288 0.49956426024 0.80914872885
0.014523226768 0.018767969683 0.99709677696
0.52253592014 0.0092311622575 0.85107326508
0.31878790259 -0.51558178663 0.79228013754
0.0099571980536 -0.85131233931 0.52178525925
0.51150399446 -0.78467041254 0.3449883163
0.80056911707 -0.33265513182 0.49407455325
0.85051858425 -0.52590507269 -4.2529656639e-05
0.49732589722 0.79461675882 0.34118333459
0.79306381941 0.31599631906 0.5155916214
-0.31849038601 0.51546090841 -0.79251205921
-0.51233911514 0.78483891487 -0.34382870793
-0.80056017637 0.33091744781 -0.49616867304
-0.85045933723 0.52600455284 0.00011094079673
-0.85118788481 -0.52243494987 0.010128406808
-0.52043306828 -0.78558295965 0.32763439417
-0.80895835161 -0.30902096629 0.50006049871
-0.33143678308 -0.49253964424 0.80176454782
-0.53220242262 -0.0053139734082 0.84528529644
-0.82974427938 0.27351680398 0.48444762826
-0.9979237318 -3.3958669519e-05 0.030651703477
0.80099213123 -0.33180993795 -0.49501743913
0.51142454147 -0.7847815752 -0.34477823973
0.31900733709 -0.51508033276 -0.79240125418
-0.00023372340365 -0.85079723597 -0.52546221018
0.5257692337 0.85048305988 -0.00037161505315
0.26694005728 0.94973123074 -0.1630936712
0.26648753881 0.95001715422 0.16279326379
0.00045401821262 0.99983853102 -5.8810797782e-05
-0.26485022902 0.95112138987 0.1592040211
-0.49999311566 0.80880880356 0.30904051661
-0.26692607999 0.94973278046 -0.16321647167
-0.52450537682 0.85132837296 -0.0040831072256
-0.42559304833 0.68566685915 0.59057307243
-0.68938183784 0.58446234465 0.42792120576
-0.58799660206 0.42484089732 0.68818026781
-0.52587288618 -0.85049188137 -0.0002116033138
-0.50464600325 -0.79639595747 -0.33231112361
-0.26660171151 -0.95002228022 -0.16241644323
-0.26677274704 -0.94985353947 0.16303746402
-0.00023834308377 -0.99984484911 1.4533083231e-05
0.26694869995 -0.9497705698 -0.16312922537
0.52591204643 -0.85041648149 3.4187083656e-05
0.26739963889 -0.94965344667 0.16293784976
0.95052284002 -0.16205583513 -0.26513630152
0.9998434186 -1.7293334167e-05 -0.00012757968216
0.85243541002 7.2588314652e-05 -0.52299463749
0.9504583478 0.16195318103 -0.26543173194
-0.16164898872 -0.26290601492 0.95116180182
-0.00023562695424 -0.52528339624 0.85090768337
0.16225723922 -0.26363167167 0.95085734129
0.51621502638 5.0765816013e-06 -0.8549644351
0.16218805313 -0.26564183831 -0.95038098097
3.6682667997e-05 -0.00011307046952 -0.99986642599
0.00021320681844 -0.52508813143 -0.85107350349
-0.16221804917 -0.26553794742 -0.95040684938
-0.31835928559 -0.50584810972 -0.80138891935
-0.51609057188 8.1704187323e-05 -0.85500437021
0.95053899288 -0.16208083928 0.26501226425
0.95050388575 0.16214524209 0.26510152221
0.85090595484 -0.00061039382126 0.52528178692
-0.80129992962 -0.32101616263 -0.50481724739
-0.95121318102 -0.161905393 -0.2626055181
-0.85220181942 0.00029945175629 -0.52328044176
-0.95125007629 0.16158020496 -0.26266628504
0.16213983297 0.26551133394 -0.95042091608
-0.16215322912 0.26556771994 -0.95040279627
3.573689537e-05 0.52515536547 -0.85100138187
0.58782362938 0.43433538079 -0.68238210678
0.6886728406 0.16564914584 -0.70571523905
0.44558593631 0.26679375768 -0.85463327169
-0.14639319479 0.26641637087 0.95246857405
-0.41419667006 0.25512325764 0.87360107899
-0.27069798112 0.016472894698 0.96234601736
0.44653704762 -0.26665833592 0.85387533903
0.68654036522 -0.17546948791 0.70538687706
0.58780783415 -0.43541896343 0.68152838945
0.70735985041 0.68355447054 0.17989355326
0.85469782352 0.44573491812 0.26638889313
0.68256777525 0.58317875862 0.43989595771
-0.58756703138 0.43427926302 -0.68263852596
-0.44557005167 0.2669057548 -0.85460335016
-0.68859517574 0.1653971076 -0.70586442947
-0.43608477712 -0.6771723628 0.59238904715
-0.26813805103 -0.85107034445 0.45155137777
-0.17456160486 -0.70557171106 0.68668502569
-0.44565308094 -0.2665489614 -0.85454750061
-0.68818825483 -0.16529889405 -0.70625913143
-0.58779084682 -0.43456500769 -0.68235260248
-0.43491271138 -0.67784744501 -0.59279537201
-0.68245846033 -0.58330726624 -0.4403270185
-0.85403841734 -0.44620105624 -0.26662501693
-0.70736604929 -0.68312126398 -0.18059937656
0.68865460157 -0.16564027965 -0.70573079586
0.44562223554 -0.26694482565 -0.85457378626
0.58795583248 -0.43457072973 -0.68210095167

CELLS 202 808
3 0 1 2
3 2 3 4
3 5 6 7
3 7 8 9
3 10 11 12
3 13 12 14
3 15 5 7
3 16 7 9
3 4 17 18
3 18 19 20
3 21 22 23
3 23 24 25
3 25 26 23
3 26 27 23
3 26 20 27
3 23 27 21
3 28 14 29
3 30 29 31
3 2 32 0
3 2 33 32
3 33 34 32
3 33 35 34
3 32 34 15
3 35 33 4
3 4 33 2
3 15 34 5
3 34 35 5
3 35 36 5
3 5 36 37
3 35 38 36
3 38 39 36
3 38 18 39
3 36 39 37
3 18 38 4
3 4 38 35
3 37 39 20
3 39 18 20
3 37 40 5
3 5 40 6
3 37 41 40
3 41 42 40
3 41 26 42
3 40 42 6
3 26 41 20
3 20 41 37
3 42 26 25
3 21 43 22
3 44 45 43
3 45 46 43
3 45 47 46
3 43 46 22
3 47 45 31
3 31 45 44
3 46 47 11
3 29 48 31
3 31 48 47
3 29 49 48
3 49 50 48
3 49 12 50
3 48 50 47
3 12 49 14
3 14 49 29
3 47 50 11
3 50 12 11
3 28 51 14
3 14 51 52
3 28 53 51
3 53 54 51
3 53 1 54
3 51 54 52
3 52 54 0
3 54 1 0
3 24 55 25
3 24 56 55
3 56 57 55
3 56 10 57
3 55 57 8
3 10 56 11
3 8 57 9
3 58 59 60
3 30 61 59
3 61 62 59
3 61 63 62
3 59 62 60
3 63 61 31
3 31 61 30
3 60 62 64
3 52 65 14
3 14 65 13
3 52 66 65
3 66 67 65
3 66 16 67
3 65 67 13
3 0 66 52
3 67 16 9
3 68 69 70
3 69 71 70
3 69 27 71
3 70 71 19
3 27 69 21
3 19 71 20
3 71 27 20
3 60 72 58
3 60 73 72
3 73 74 72
3 73 17 74
3 72 74 3
3 64 73 60
3 3 74 4
3 74 17 4
3 1 75 2
3 75 3 2
3 1 76 75
3 76 77 75
3 76 58 77
3 75 77 3
3 6 78 7
3 78 8 7
3 6 79 78
3 79 80 78
3 79 25 80
3 78 80 8
3 9 81 82
3 81 83 82
3 81 10 83
3 82 83 13
3 13 83 12
3 12 83 10
3 0 84 85
3 84 86 85
3 84 15 86
3 85 86 16
3 16 86 7
3 7 86 15
3 17 87 18
3 87 19 18
3 17 88 87
3 88 89 87
3 88 64 89
3 87 89 19
3 22 90 23
3 90 24 23
3 22 91 90
3 91 92 90
3 91 11 92
3 90 92 24
3 64 93 94
3 93 95 94
3 93 63 95
3 94 95 68
3 63 96 95
3 96 97 95
3 96 44 97
3 95 97 68
3 44 96 31
3 31 96 63
3 68 97 98
3 97 99 98
3 97 44 99
3 98 99 21
3 58 100 101
3 100 102 101
3 100 28 102
3 101 102 30
3 30 102 29
3 29 102 28
3 15 84 32
3 32 84 0
3 25 79 42
3 42 79 6
3 21 99 43
3 43 99 44
3 11 91 46
3 46 91 22
3 58 76 100
3 53 76 1
3 28 100 53
3 53 100 76
3 8 80 55
3 55 80 25
3 24 92 56
3 56 92 11
3 10 81 57
3 57 81 9
3 58 101 59
3 59 101 30
3 63 93 62
3 62 93 64
3 0 85 66
3 66 85 16
3 9 82 67
3 67 82 13
3 64 94 89
3 70 94 68
3 19 89 70
3 70 89 94
3 68 98 69
3 69 98 21
3 3 77 72
3 72 77 58
3 64 88 73
3 73 88 17

CELL_TYPES 202
5
5
5
5
5
5
5
5
5
5
5
5
5
5
5
5
5
5
5
5
5
5
5
5
5
5
5
5
5
5
5
5
5
5
5
5
5
5
5
5
5
5
5
5
5
5
5
5
5
5
5
5
5
5
5
5
5
5
5
5
5
5
5
5
5
5
5
5
5
5
5
5
5
5
5
5
5
5
5
5
5
5
5
5
5
5
5
5
5
5
5
5
5
5
5
5
5
5
5
5
5
5
5
5
5
5
5
5
5
5
5
5
5
5
5
5
5
5
5
5
5
5
5
5
5
5
5
5
5
5
5
5
5
5
5
5
5
5
5
5
5
5
5
5
5
5
5
5
5
5
5
5
5
5
5
5
5
5
5
5
5
5
5
5
5
5
5
5
5
5
5
5
5
5
5
5
5
5
5
5
5
5
5
5
5
5
5
5
5
5
5
5
5
5
5
5
5
5
5
5
5
5

CELL_DATA 202
SCALARS cell_data_0 double
LOOKUP_TABLE default
5.21627727619e-07
5.18524372253e-07
1.90386290423e-07
1.74178957844e-07
5.05252494687e-07
5.39253340817e-07
1.96424555951e-07
1.83144883977e-07
5.29285983504e-07
5.39194293142e-07
2.17371372268e-07
2.48392436134e-07
9.02325328063e-08
4.39151939363e-08
2.62220504877e-07
1.8268921877e-08
5.43783624247e-07
5.38953522513e-07
2.05286973393e-08
2.92351375264e-07
1.36716960064e-07
2.29397586443e-07
7.81576079256e-08
1.60782866692e-07
1.977373867e-07
1.30834745158e-07
1.02588797218e-07
1.06840897025e-07
8.24300648883e-08
2.46538638775e-07
1.59509136756e-07
2.43150949292e-07
2.498191735e-07
1.76455877496e-07
1.34071538174e-07
1.64733865748e-07
2.10379594319e-07
1.35234753687e-07
1.35881269512e-07
2.28503881502e-07
1.3513694258e-07
2.85981758396e-07
8.44437537341e-08
1.21231185865e-07
1.37869061767e-07
8.99185644509e-08
8.40421886263e-08
9.9802454815e-08
6.47440347677e-08
3.11338958717e-07
1.41177953833e-07
7.40450946912e-08
1.18405904982e-07
2.93966521222e-07
2.04312970626e-07
1.22111303688e-07
2.29501456409e-07
1.87967156247e-07
2.24216133215e-07
2.32921166247e-07
1.2728265203e-07
1.53492413033e-07
1.41262828589e-07
2.37580159444e-07
1.83972845031e-07
1.11840789003e-07
9.71031528166e-08
1.23429799974e-07
9.47181892715e-08
2.59983478205e-07
1.36033635029e-07
2.12792875511e-07
7.07451343038e-08
1.37381778782e-07
1.02566171317e-07
1.31265503411e-07
1.29698219739e-07
3.17663895765e-08
6.97159922221e-08
2.57811723644e-07
1.16043510236e-07
8.85830011623e-08
1.13064066259e-07
3.67319542245e-07
1.64424749829e-07
2.19374594483e-07
2.76254920311e-07
1.45162958677e-07
1.98328071962e-07
2.89918525212e-07
1.12720982074e-07
1.46553590903e-07
9.16135361297e-08
2.82254072455e-07
4.0934561587e-08
6.1788799199e-08
1.06962330349e-07
2.92106988468e-07
8.78641352627e-08
8.3487075311e-08
1.04401213211e-07
1.27745490254e-07
2.70046462142e-07
3.60028934647e-07
1.12845200727e-07
9.17099337144e-08
9.22274052621e-08
2.58188140997e-07
1.33584721937e-07
1.77039298202e-07
4.66220802369e-08
8.64421966614e-08
1.80729451413e-07
1.32264827768e-07
5.98249832891e-08
1.61666340818e-07
5.27249381118e-10
2.45119504348e-08
1.76515493635e-07
1.53158988561e-07
1.14650650746e-07
1.83070261723e-07
1.32547550506e-07
1.6243188666e-07
1.57316332565e-07
1.57082799113e-07
4.91893039955e-08
9.25450811724e-08
1.11781448581e-07
1.55238706509e-07
1.76629360376e-07
1.74916410259e-07
2.04602517395e-08
4.34554363139e-08
3.7213575606e-08
9.4219734592e-08
1.63181313014e-07
1.41978052018e-07
4.96753813596e-08
1.75357150004e-07
9.5841796629e-09
3.0311904095e-08
1.80707463853e-07
1.56183864114e-07
1.12221544191e-07
1.8061518661e-07
1.02155854614e-07
8.95133538387e-08
9.30715488619e-10
9.13046378283e-09
1.53432501583e-07
4.42892014418e-08
1.57590949354e-07
2.16184345816e-08
1.01263332515e-07
8.1346625181e-08
3.88936233286e-09
1.13776678694e-07
6.99970740234e-09
1.70935818852e-07
6.2183587861e-08
1.36006467129e-07
1.83182656626e-07
1.55115902454e-07
3.61235094227e-08
8.18418751467e-08
8.31190557269e-09
5.04317631239e-09
1.10992049128e-08
1.12891206776e-08
2.89468147452e-08
1.27700282266e-08
3.25098837498e-08
1.3016459723e-08
8.61194867264e-09
4.20150856043e-09
1.13741498351e-08
1.28714929886e-07
1.49094526586e-08
3.78151923086e-09
1.43497475946e-08
4.34566639807e-11
2.02120375182e-08
1.05871500914e-08
2.71194999507e-08
2.93023973243e-08
4.50450791952e-08
2.87943278895e-08
3.29453827956e-08
2.27320230928e-08
2.4910653317e-08
9.87682319063e-09
1.97224456567e-08
1.61828742118e-08
3.73355462373e-08
9.47638100814e-08
1.44333743142e-08
3.80319969835e-08
4.05257030072e-08
1.88656810915e-08
3.06628949568e-08
4.48744557326e-08

