# vtk DataFile Version 3.0
File Name: Molecule/sphere_cent/sphere_cent_0-s12.vtk
ASCII
DATASET UNSTRUCTURED_GRID
FIELD FieldData 1
TIME 1 1 double
0.0
POINTS 259 double
0.50940197706 0.79601186514 -0.32672700286
0.29900416732 0.94078397751 -0.15961892903
0.52295154333 0.85235434771 0.003479144536
0.28430753946 0.9450315237 0.16084988415
0.084465295076 0.99618899822 -0.0071566025726
0.49139949679 0.80547237396 0.33111959696
-0.52433693409 0.77067726851 0.36188027263
-0.40109279752 0.69856995344 0.59238564968
-0.34489101171 0.88039845228 0.32430711389
-0.06610122323 0.85192972422 0.51902610064
-0.070183448493 0.66692525148 0.74075728655
-0.6675863266 0.6174569726 0.41587334871
-0.51796346903 0.46810027957 0.71415585279
-0.27477794886 0.53541684151 0.79851418734
-0.51125085354 -0.80874562263 -0.28977882862
-0.30957955122 -0.92880105972 -0.20365069807
-0.50466114283 -0.86167782545 -0.029545836151
0.5142198205 -0.79229897261 -0.32831633091
0.52195864916 -0.85291016102 0.0012122064363
0.32001852989 -0.91968095303 -0.22452948987
0.51418405771 -0.78997462988 0.33376741409
0.3133046627 -0.92212057114 0.22752766311
0.79672574997 -0.32189548016 -0.51141941547
0.85565400124 -0.00017384393141 -0.51746726036
0.92318367958 -0.22668805718 -0.31049409509
0.7970123291 0.3210490942 -0.51150453091
0.9233699441 0.22537149489 -0.31091088057
-0.35452374816 -0.39544808865 0.8467130661
-0.0091019300744 -0.51627278328 0.85627502203
-0.15484243631 -0.24354355037 0.95740669966
0.16845671833 -0.26729175448 0.94873976707
0.31056338549 -0.51033562422 0.80187863111
0.050063479692 -0.0096783675253 0.99831306934
0.31990763545 -0.50662517548 -0.80059045553
0.053886059672 -0.51119697094 -0.85774487257
0.15902170539 -0.29048591852 -0.94354075193
-0.15465895832 -0.30232840776 -0.94044995308
-0.0025476634037 -0.079547666013 -0.99656760693
0.92269521952 -0.23048725724 0.30895209312
0.85627812147 -0.037376493216 0.51432561874
0.79567611217 -0.33025452495 0.50777626038
-0.79509055614 -0.3173173666 -0.51666015387
-0.91562587023 -0.20602457225 -0.34461206198
-0.85489290953 0.0028533991426 -0.5187215209
-0.92511969805 0.21365563571 -0.31360203028
-0.79764407873 0.32179573178 -0.51010841131
-0.21279671788 0.31351995468 -0.92543363571
-0.32019394636 0.51375293732 -0.79595828056
-0.00064202939393 0.52186733484 -0.85299026966
0.21105781198 0.31432521343 -0.92555892467
0.31833547354 0.51647084951 -0.79493278265
0.68487328291 0.1555737555 -0.71183770895
0.58925127983 0.44045773149 -0.67732584476
0.45645901561 0.27029430866 -0.84769964218
0.51522231102 0.0020567025058 -0.85705471039
0.52635103464 0.022440034896 0.84949964285
0.4547790885 -0.26514333487 0.84990906715
0.67704415321 -0.19851393998 0.70866590738
0.58513194323 -0.44887086749 0.67536389828
0.89679288864 0.44129997492 -0.0011161798611
0.7142149806 0.68184751272 0.15735034645
0.83625459671 0.46619299054 0.28877985477
0.67326712608 0.60549622774 0.42427900434
0.76260429621 0.34730252624 0.54527693987
-0.45735484362 0.26863977313 -0.84774321318
-0.58954250813 0.43913650513 -0.67793136835
-0.68473911285 0.15514449775 -0.71206462383
-0.51545226574 0.00029357962194 -0.85691660643
-0.5560221076 -0.76060861349 0.33284896612
-0.29256334901 -0.83232879639 0.47071957588
-0.46713936329 -0.68168908358 0.56246423721
0.0024549888913 -0.89475208521 0.44532820582
-0.13351339102 -0.72195279598 0.67828422785
-0.46181207895 -0.27746915817 -0.84249430895
-0.6846138835 -0.15364278853 -0.71249783039
-0.59239494801 -0.43678125739 -0.6769849062
-0.34959343076 -0.49893602729 -0.79289466143
-0.44162511826 -0.64751845598 -0.62074261904
-0.67093992233 -0.58778733015 -0.45204722881
-0.84593331814 -0.42854344845 -0.31647908688
-0.68940323591 -0.69090658426 -0.2165081203
0.68490415812 -0.15507058799 -0.71191948652
0.45969128609 -0.27863898873 -0.84321069717
0.59076291323 -0.43998152018 -0.6763188839
0.71720445156 0.67867398262 -0.15754550695
-0.65861201286 -0.75049209595 -0.043406508863
-0.31915608048 -0.92090326548 0.22299467027
-0.20939986408 0.029040055349 0.97695404291
0.15310975909 -0.71767634153 0.67928290367
0.29233068228 0.010063338093 0.95619064569
0.92082244158 0.22299903631 0.31960496306
-0.86966609955 -0.46426209807 -0.16294813156
-0.96166998148 -0.19825965166 -0.18207763135
0.31133985519 0.092596434057 -0.94571208954
-0.3127695024 0.09229786694 -0.94527989626
0.83829170465 0.46610495448 -0.28307309747
0.67606949806 0.58712750673 -0.4451405406
0.67645430565 -0.58769530058 0.44378581643
0.8366240859 -0.47020801902 0.28120830655
0.71611624956 -0.68009084463 0.15647295117
0.89648139477 -0.44196307659 0.0011527240276
-0.00087307760259 0.85559618473 -0.51763492823
-0.15688981116 0.71282190084 -0.6835283041
-0.2661164999 0.84498202801 -0.4639313221
-0.44094771147 0.67439424992 -0.59223842621
-0.50693410635 0.79723393917 -0.32775777578
-0.67760264874 0.58407986164 -0.44687470794
-0.71612787247 0.67319089174 -0.18427310884
-0.84837901592 0.45697912574 -0.26733899117
-0.85871148109 0.51232558489 0.0082722073421
0.83764004707 -0.46798852086 -0.2818954289
0.67568856478 -0.58741909266 -0.4453638196
0.71719074249 -0.67920821905 -0.15539546311
0.4471526444 -0.67072993517 -0.59174317122
0.19750089943 -0.71099942923 -0.67497014999
0.28354617953 -0.8347786665 -0.4721211493
-0.037644527853 -0.88287323713 -0.46694099903
-0.078334264457 0.94504213333 -0.31728705764
-0.27309256792 0.93263930082 -0.23560808599
-0.57278954983 0.81830722094 -0.047143947333
-0.71235370636 0.6976954937 0.075719609857
-0.94581258297 0.310200423 -0.096406906843
0.15457543731 0.7142457962 -0.68257570267
0.43971958756 0.67401152849 -0.59358531237
0.43888509274 -0.67328554392 0.59498816729
0.28067553043 0.83913701773 -0.46585085988
0.28473994136 -0.83476942778 0.47136297822
0.98554837704 -0.1233316958 -0.11441734433
0.9854491353 -0.12340155244 0.11487818509
0.95919781923 -0.00093959015794 -0.28273549676
0.98549026251 0.12297288328 -0.115446724
0.99999940395 -0.00071716296952 9.0810455731e-05
0.98557603359 0.12229470909 0.11516813934
0.95911133289 -0.0046120565385 0.28290253878
-0.95796847343 -0.0072767063975 -0.28634640574
-0.9797654748 0.12855426967 -0.15440271795
-0.10449646413 0.11631564051 -0.98769879341
0.10165775567 0.11625117064 -0.98800134659
-0.000889575982 0.28469699621 -0.95859980583
-0.24726136029 0.95472937822 0.1654022485
-0.082212634385 0.95104044676 0.29721385241
-0.10202628374 0.98883718252 -0.10851176083
-0.087533459067 0.99143970013 0.095775857568
-0.25945329666 0.96561741829 -0.013920854777
-0.41004469991 0.90597939491 -0.10465260595
-0.40632623434 0.91004067659 0.081812627614
-0.54527437687 0.820358634 0.17241188884
-0.28306597471 -0.95911043882 0.0025792263914
-0.11372660846 -0.98744314909 -0.10869967937
-0.11453290284 -0.98561388254 0.12186299264
0.00087860692292 -0.99997866154 0.0034140332136
0.10816592723 -0.98825085163 -0.10297163576
0.033591501415 -0.95696234703 -0.2847045064
0.11678172648 -0.98539358377 0.12212541699
0.28529465199 -0.95845431089 0.0013750662329
0.33649027348 -0.11844866723 -0.93420767784
0.17685502768 -0.060409229249 -0.98237669468
-0.17998126149 -0.061733335257 -0.98175513744
-0.33902949095 -0.12041068077 -0.93306833506
0.25859975815 0.84254318476 0.47248443961
0.45186308026 0.69105631113 0.56346601248
0.12391385436 0.72888839245 0.6729709506
-0.9476018548 0.1326521188 0.29059618711
-0.978964746 -0.065394215286 0.18828380108
-0.86757093668 -0.043259754777 0.4936657846
-0.85511678457 0.20793569088 0.47314679623
-0.88878965378 0.37323606014 0.26587340236
-0.9557685256 0.27611982822 0.10148814321
-0.99472856522 0.096515059471 0.03290918842
0.069530412555 0.9807664156 -0.18239383399
-0.64271295071 0.50805956125 0.57327216864
-0.78384244442 0.43626397848 0.44185715914
-0.71967226267 0.36066842079 0.59265583754
-0.78759539127 0.56665384769 0.24200493097
-0.65600818396 0.70723623037 0.2634010911
-0.14619000256 -0.54326945543 -0.82677900791
-0.21109376848 -0.68268322945 -0.69792670012
-0.02640696615 -0.70632445812 -0.70671701431
-0.25377398729 -0.7896566987 -0.55801635981
0.12525312603 0.93132865429 -0.34198281169
-0.99215096235 -0.0054671168327 -0.12444940954
-0.99758040905 -0.068074606359 -0.014660179615
0.10652715713 0.93434137106 0.34003388882
0.075240448117 0.98255974054 0.17008204758
-0.30043411255 -0.86032140255 -0.41196957231
0.033878058195 0.52317273617 0.85153526068
0.1222364679 0.36742421985 0.92174303532
-0.024018067867 0.32036072016 0.94696336985
0.30691313744 0.44066867232 0.8435356617
-0.17086203396 0.24157214165 0.95497888327
-0.17027890682 0.4024977386 0.89941328764
-0.35059282184 0.27651083469 0.89448308945
0.54942172766 0.39389279485 0.73677241802
0.40531468391 0.56620782614 0.71751177311
0.59673058987 0.5249145031 0.6069149971
-0.45697632432 -0.75522500277 -0.46997141838
0.23019562662 0.59589159489 0.76940447092
0.29538151622 0.69782918692 0.65239614248
0.10929434001 0.19360011816 0.97453838587
0.29645392299 0.23378357291 0.92584896088
0.81103610992 0.15485700965 0.56417518854
0.71019852161 0.022097440436 0.70350801945
0.66911071539 0.19404451549 0.71733695269
-0.32764691114 0.13754431903 0.93471354246
-0.47661945224 0.12356787175 0.87029385567
-0.3990059495 -0.03120293282 0.9160130024
-0.55680751801 -0.054708607495 0.82845920324
-0.043435648084 0.15180531144 0.98743480444
-0.31812691689 -0.69496721029 0.64481532574
-0.43473181129 -0.58799475431 0.68183028698
-0.24432054162 -0.61256253719 0.75090354681
-0.78565138578 -0.57079797983 -0.23842041194
-0.76425123215 -0.63961726427 -0.080655410886
-0.63747352362 0.048784926534 0.7686265111
-0.47694915533 0.34227141738 0.80956280231
-0.57816028595 0.21713061631 0.78627324104
-0.62211954594 0.36701729894 0.69137018919
-0.48612526059 -0.24072301388 0.84001410007
-0.67537760735 0.15737998486 0.71975308657
-0.70095616579 0.25746333599 0.66512423754
-0.60375875235 -0.35789626837 0.70991301537
-0.69022941589 -0.19408613443 0.69664108753
-0.44198289514 -0.47817459702 0.75727885962
-0.77494263649 0.14742322266 0.61320638657
-0.76724529266 -0.065126225352 0.63796025515
-0.81530094147 -0.31825202703 0.48354667425
-0.55969190598 -0.8155335784 0.14622195065
-0.69545149803 -0.71113008261 0.092094838619
-0.78272712231 0.27345943451 0.55908197165
0.53625833988 0.22113393247 0.81457668543
0.42142486572 0.14592704177 0.8951190114
0.4326954186 0.30596849322 0.84802085161
-0.60880583525 -0.49743783474 0.61369335651
-0.3481528461 -0.58347153664 0.73370325565
-0.32056891918 -0.51514643431 0.79474580288
-0.83004963398 -0.54864579439 -0.099891461432
-0.87407010794 -0.48437905312 -0.034077275544
-0.81613129377 -0.57680940628 0.022214313969
-0.88571697474 -0.45462933183 0.083475783467
-0.93993389606 -0.33675119281 -0.052998103201
-0.91855871677 -0.20801119506 0.33637782931
-0.87278831005 -0.39728015661 0.28293281794
-0.94997572899 -0.27124729753 0.150794819
-0.71328806877 -0.56216084957 0.41854953766
-0.72499018908 -0.41713827848 0.54574733973
-0.79714798927 -0.49315053225 0.34829303622
-0.60736864805 -0.63594841957 0.47497192025
-0.66662669182 -0.68891131878 0.28045704961
0.14977534115 -0.92441648245 -0.35093855858
0.20765945315 -0.96200799942 -0.17607279122
-0.98578947783 -0.14275027812 -0.078517757356
-0.99281650782 -0.08639960736 0.08068485558
-0.96393370628 -0.26352763176 0.035395242274
-0.82117199898 -0.54891240597 0.15097303689
-0.75098103285 -0.62800997496 0.20090286434
-0.71381616592 -0.3503139019 0.60608023405
-0.6384498477 -0.73966115713 0.21284672618
-0.62569493055 -0.42061543465 0.65733712912
-0.72799021006 -0.66694760323 0.15533664823

CELLS 514 2056
3 0 1 2
3 1 3 2
3 1 4 3
3 2 3 5
3 6 7 8
3 9 7 10
3 6 11 7
3 7 12 13
3 14 15 16
3 17 18 19
3 18 20 21
3 22 23 24
3 23 25 26
3 27 28 29
3 28 30 29
3 28 31 30
3 29 30 32
3 33 34 35
3 34 36 35
3 35 36 37
3 38 39 40
3 41 42 43
3 43 44 45
3 46 47 48
3 49 48 50
3 25 51 52
3 51 53 52
3 51 54 53
3 52 53 50
3 55 56 57
3 56 58 57
3 56 31 58
3 57 58 40
3 59 60 61
3 60 62 61
3 60 5 62
3 61 62 63
3 47 64 65
3 64 66 65
3 64 67 66
3 65 66 45
3 68 69 70
3 69 71 72
3 67 73 74
3 73 75 74
3 73 76 75
3 74 75 41
3 76 77 75
3 77 78 75
3 75 78 41
3 41 78 79
3 78 14 80
3 54 81 82
3 81 83 82
3 81 22 83
3 82 83 33
3 5 60 2
3 2 60 84
3 80 14 85
3 71 69 86
3 86 69 68
3 54 51 81
3 23 51 25
3 22 81 23
3 23 81 51
3 32 87 29
3 28 72 88
3 31 56 30
3 30 56 89
3 35 82 33
3 76 73 36
3 59 61 90
3 90 61 63
3 39 57 40
3 67 74 66
3 43 74 41
3 45 66 43
3 43 66 74
3 41 79 42
3 91 92 79
3 50 53 49
3 49 53 93
3 67 64 94
3 46 64 47
3 59 95 84
3 95 96 84
3 95 25 96
3 84 96 0
3 40 97 98
3 97 99 98
3 97 20 99
3 98 99 100
3 101 102 103
3 102 104 103
3 102 47 104
3 103 104 105
3 105 106 107
3 106 108 107
3 106 45 108
3 107 108 109
3 22 110 111
3 110 112 111
3 110 100 112
3 111 112 17
3 33 113 114
3 113 115 114
3 113 17 115
3 114 115 116
3 59 84 60
3 2 84 0
3 101 103 117
3 118 103 105
3 105 107 119
3 119 107 120
3 19 115 17
3 100 99 112
3 18 99 20
3 17 112 18
3 18 112 99
3 100 110 24
3 24 110 22
3 25 95 26
3 26 95 59
3 33 114 34
3 40 98 38
3 38 98 100
3 109 108 121
3 44 108 45
3 47 102 48
3 48 102 122
3 0 96 123
3 52 96 25
3 20 97 124
3 58 97 40
3 105 104 106
3 65 104 47
3 45 106 65
3 65 106 104
3 17 113 111
3 83 113 33
3 22 111 83
3 83 111 113
3 0 123 125
3 123 122 125
3 123 50 122
3 125 122 101
3 31 88 124
3 88 126 124
3 88 71 126
3 124 126 20
3 0 125 1
3 20 126 21
3 21 126 71
3 24 127 100
3 100 127 128
3 26 129 23
3 23 129 24
3 24 129 127
3 129 130 127
3 129 26 130
3 127 130 131
3 131 130 132
3 130 26 59
3 71 88 72
3 28 88 31
3 131 128 127
3 128 38 100
3 131 132 128
3 132 133 128
3 132 90 133
3 128 133 38
3 38 133 39
3 39 133 90
3 90 132 59
3 59 132 130
3 42 134 43
3 134 44 43
3 42 92 134
3 134 135 44
3 37 136 137
3 136 138 137
3 136 46 138
3 137 138 49
3 49 138 48
3 48 138 46
3 101 122 102
3 48 122 50
3 50 123 52
3 52 123 96
3 31 124 58
3 58 124 97
3 139 8 140
3 9 8 7
3 4 141 142
3 141 143 142
3 141 118 143
3 142 143 139
3 118 144 143
3 144 145 143
3 144 119 145
3 143 145 139
3 119 144 105
3 105 144 118
3 139 145 8
3 145 146 8
3 145 119 146
3 8 146 6
3 15 147 16
3 147 86 16
3 15 148 147
3 148 149 147
3 148 150 149
3 147 149 86
3 150 148 151
3 148 15 152
3 86 149 71
3 71 149 153
3 21 154 18
3 18 154 19
3 154 153 151
3 154 21 153
3 151 153 150
3 150 153 149
3 153 21 71
3 54 155 93
3 155 156 93
3 155 35 156
3 93 156 137
3 36 157 37
3 37 157 136
3 35 155 82
3 82 155 54
3 67 158 73
3 73 158 36
3 137 156 37
3 37 156 35
3 54 93 53
3 49 93 137
3 136 94 46
3 46 94 64
3 67 94 158
3 94 157 158
3 94 136 157
3 158 157 36
3 5 159 160
3 159 9 161
3 162 163 164
3 165 166 162
3 166 167 162
3 166 109 167
3 163 162 168
3 1 169 4
3 4 169 141
3 3 159 5
3 11 170 7
3 170 12 7
3 11 171 170
3 171 172 170
3 165 171 166
3 171 173 166
3 171 11 173
3 166 173 109
3 109 173 120
3 173 174 120
3 173 11 174
3 120 174 146
3 34 175 36
3 175 76 36
3 76 175 176
3 175 177 176
3 175 34 177
3 176 177 178
3 5 160 62
3 76 176 77
3 116 177 114
3 114 177 34
3 101 179 125
3 125 179 1
3 92 180 134
3 180 135 134
3 181 168 180
3 180 168 135
3 135 121 44
3 44 121 108
3 135 168 121
3 168 167 121
3 167 168 162
3 121 167 109
3 141 117 118
3 118 117 103
3 101 117 179
3 117 169 179
3 117 141 169
3 179 169 1
3 146 174 6
3 6 174 11
3 109 120 107
3 119 120 146
3 9 182 140
3 182 183 140
3 182 3 183
3 140 183 142
3 14 184 15
3 15 184 116
3 10 13 185
3 186 185 187
3 185 186 188
3 189 190 191
3 191 190 13
3 188 192 193
3 192 194 193
3 192 63 194
3 193 194 160
3 77 195 78
3 195 14 78
3 14 195 184
3 195 178 184
3 195 77 178
3 184 178 116
3 142 183 4
3 4 183 3
3 9 140 8
3 139 140 142
3 188 196 185
3 10 185 161
3 196 161 185
3 190 185 13
3 13 10 7
3 10 161 9
3 161 197 159
3 159 197 160
3 160 197 193
3 197 196 193
3 197 161 196
3 193 196 188
3 3 182 159
3 159 182 9
3 160 194 62
3 62 194 63
3 116 178 177
3 176 178 77
3 32 89 198
3 89 199 198
3 198 199 186
3 55 89 56
3 30 89 32
3 63 200 90
3 90 200 39
3 39 200 201
3 200 202 201
3 200 63 202
3 201 202 55
3 191 203 189
3 203 87 189
3 191 204 203
3 204 205 203
3 204 206 205
3 203 205 87
3 32 207 87
3 87 207 189
3 72 208 69
3 69 208 70
3 70 208 209
3 208 72 210
3 80 211 78
3 78 211 79
3 79 211 91
3 211 80 212
3 206 204 213
3 191 214 204
3 215 204 214
3 215 214 216
3 12 214 13
3 214 191 13
3 87 205 29
3 27 29 217
3 210 72 28
3 39 201 57
3 57 201 55
3 42 79 92
3 172 216 170
3 170 216 12
3 12 216 214
3 218 215 219
3 192 202 63
3 189 187 190
3 190 187 185
3 186 199 188
3 32 198 207
3 198 187 207
3 198 186 187
3 207 187 189
3 220 217 221
3 27 217 222
3 221 217 206
3 165 164 223
3 164 224 223
3 164 225 224
3 223 224 218
3 16 226 85
3 226 227 85
3 85 227 212
3 68 226 86
3 86 226 16
3 206 217 205
3 205 217 29
3 162 164 165
3 165 228 171
3 171 228 172
3 55 229 230
3 229 231 230
3 229 192 231
3 230 231 199
3 55 230 89
3 89 230 199
3 209 232 70
3 209 222 232
3 220 222 217
3 210 233 208
3 208 233 209
3 209 233 222
3 233 234 222
3 233 210 234
3 222 234 27
3 212 235 211
3 211 235 91
3 91 235 236
3 235 237 236
3 235 212 237
3 236 237 238
3 237 212 227
3 16 85 14
3 80 85 212
3 27 234 28
3 234 210 28
3 92 91 239
3 172 219 216
3 216 219 215
3 218 213 215
3 215 213 204
3 206 213 221
3 213 224 221
3 213 218 224
3 221 224 225
3 165 223 228
3 223 219 228
3 223 218 219
3 228 219 172
3 192 229 202
3 202 229 55
3 199 231 188
3 188 231 192
3 225 240 241
3 240 242 241
3 240 163 242
3 241 242 238
3 243 244 245
3 244 243 232
3 68 246 247
3 246 232 243
3 19 248 115
3 115 248 116
3 19 249 248
3 249 152 248
3 249 151 152
3 248 152 116
3 116 152 15
3 152 151 148
3 151 249 154
3 154 249 19
3 92 250 180
3 250 181 180
3 181 251 168
3 251 163 168
3 163 251 242
3 251 252 242
3 252 251 250
3 242 252 238
3 181 250 251
3 250 239 252
3 250 92 239
3 252 239 238
3 238 253 241
3 253 245 241
3 253 254 245
3 241 245 225
3 245 254 243
3 247 243 254
3 243 247 246
3 225 245 244
3 225 255 221
3 255 220 221
3 68 256 226
3 226 256 227
3 163 240 164
3 164 240 225
3 232 246 70
3 70 246 68
3 220 257 222
3 222 257 232
3 232 257 244
3 257 255 244
3 257 220 255
3 244 255 225
3 254 253 258
3 237 253 238
3 227 258 237
3 237 258 253
3 254 258 247
3 258 256 247
3 258 227 256
3 247 256 68
3 238 239 236
3 236 239 91

CELL_TYPES 514
5
5
5
5
5
5
5
5
5
5
5
5
5
5
5
5
5
5
5
5
5
5
5
5
5
5
5
5
5
5
5
5
5
5
5
5
5
5
5
5
5
5
5
5
5
5
5
5
5
5
5
5
5
5
5
5
5
5
5
5
5
5
5
5
5
5
5
5
5
5
5
5
5
5
5
5
5
5
5
5
5
5
5
5
5
5
5
5
5
5
5
5
5
5
5
5
5
5
5
5
5
5
5
5
5
5
5
5
5
5
5
5
5
5
5
5
5
5
5
5
5
5
5
5
5
5
5
5
5
5
5
5
5
5
5
5
5
5
5
5
5
5
5
5
5
5
5
5
5
5
5
5
5
5
5
5
5
5
5
5
5
5
5
5
5
5
5
5
5
5
5
5
5
5
5
5
5
5
5
5
5
5
5
5
5
5
5
5
5
5
5
5
5
5
5
5
5
5
5
5
5
5
5
5
5
5
5
5
5
5
5
5
5
5
5
5
5
5
5
5
5
5
5
5
5
5
5
5
5
5
5
5
5
5
5
5
5
5
5
5
5
5
5
5
5
5
5
5
5
5
5
5
5
5
5
5
5
5
5
5
5
5
5
5
5
5
5
5
5
5
5
5
5
5
5
5
5
5
5
5
5
5
5
5
5
5
5
5
5
5
5
5
5
5
5
5
5
5
5
5
5
5
5
5
5
5
5
5
5
5
5
5
5
5
5
5
5
5
5
5
5
5
5
5
5
5
5
5
5
5
5
5
5
5
5
5
5
5
5
5
5
5
5
5
5
5
5
5
5
5
5
5
5
5
5
5
5
5
5
5
5
5
5
5
5
5
5
5
5
5
5
5
5
5
5
5
5
5
5
5
5
5
5
5
5
5
5
5
5
5
5
5
5
5
5
5
5
5
5
5
5
5
5
5
5
5
5
5
5
5
5
5
5
5
5
5
5
5
5
5
5
5
5
5
5
5
5
5
5
5
5
5
5
5
5
5
5
5
5
5
5
5
5
5
5
5
5
5
5
5
5
5
5
5
5
5
5
5
5
5
5
5
5
5
5
5
5
5
5
5
5
5
5
5
5
5
5
5
5
5
5
5
5
5
5
5
5
5
5
5
5
5
5
5
5
5
5
5
5
5
5
5
5
5
5
5
5
5
5
5
5
5
5
5

CELL_DATA 514
SCALARS cell_data_0 double
LOOKUP_TABLE default
2.03593870553e-09
2.39538825115e-08
6.21546178242e-08
3.24279256689e-09
5.93905022143e-08
9.21308749115e-08
2.69066567859e-08
2.06852061754e-08
9.29042245615e-09
3.21404647662e-08
4.09946495604e-08
3.07395764916e-08
3.22163205242e-08
4.76945464936e-08
3.01480661218e-08
2.00058050196e-08
1.76493133928e-08
4.01069079072e-08
2.04957754725e-08
4.80879202413e-08
2.09492176702e-09
3.82299948077e-08
3.05585697992e-08
3.93536830556e-08
4.27430536157e-08
6.6431540664e-09
1.29325936513e-09
2.35588910981e-09
9.39341452075e-09
1.27210744656e-08
3.98017852232e-08
1.43833877649e-09
1.79762370408e-08
2.53064587581e-08
4.87658412778e-08
5.01436326187e-09
3.56133135228e-08
8.78401746503e-09
1.43544945586e-09
4.93554562217e-09
8.76291338204e-09
5.13735390463e-08
6.127298673e-09
1.17235347046e-08
9.17451171111e-09
4.50907031679e-08
1.28193675975e-08
9.89073363523e-09
1.56881823135e-08
1.12900270576e-08
1.7068817672e-08
3.73082919498e-08
2.05794075765e-08
2.07983039993e-09
6.43319875118e-09
4.26058738739e-08
2.35802277755e-08
3.99488860779e-08
2.18899027862e-09
1.34379724726e-08
2.74203367772e-09
1.05147184646e-08
1.75791776299e-09
5.19375467865e-09
4.2116850277e-09
2.38066094532e-08
6.58934698889e-09
3.54246422494e-08
4.90001263803e-08
5.29755132989e-08
6.07496822087e-08
4.05186539878e-10
1.20409133683e-08
3.86512307601e-08
9.71423442459e-09
7.90869264648e-09
1.6278679699e-09
3.21992095151e-09
4.96551574535e-08
5.94208190997e-08
2.31435304267e-08
2.28206531597e-09
5.3899505418e-09
2.87370681691e-08
4.40556703096e-08
1.37547803723e-08
1.44155593528e-08
8.50304354552e-09
9.46267511044e-10
1.6265635369e-08
8.250233871e-09
3.82745200456e-08
7.71729906005e-09
9.08510640118e-10
1.87540067532e-08
8.92056346729e-09
8.83996061336e-10
2.07305497204e-08
1.84228124873e-08
1.84048125058e-08
1.10936652961e-08
1.37539826751e-08
3.66018774546e-08
7.21253419966e-09
1.64302724839e-08
7.27435413866e-08
1.27125505632e-08
9.88115047636e-08
6.25141207737e-08
1.60082726546e-08
1.88254729252e-08
1.54559883244e-08
2.10575270174e-08
2.80351574268e-08
2.92087229434e-08
6.51367046172e-08
1.84225351023e-08
6.73722279282e-09
3.98796253544e-08
2.50551858769e-08
6.89786153089e-08
6.68099950986e-08
2.52893043939e-08
1.29865458317e-08
5.21022573141e-08
2.0940669564e-08
7.05714385596e-09
2.75169055118e-08
3.90325991052e-09
8.99295474073e-09
1.73868512603e-08
9.4021363941e-09
1.38491392755e-08
3.26241197385e-08
1.33898759572e-08
4.8304512133e-09
1.55464820051e-09
1.25119720468e-08
1.02874927311e-08
4.4071851235e-08
1.47103238387e-08
1.6699423404e-08
3.92927319831e-08
2.08342419244e-10
1.15622809911e-08
1.29159256068e-08
2.9182532708e-10
1.07987128805e-08
2.60941486982e-08
7.64764087358e-10
3.00434099803e-08
6.43782050141e-08
3.04128594782e-08
7.82015881496e-08
2.15116353582e-08
1.2070435045e-08
1.05689960716e-08
7.87202526799e-08
1.71865945269e-08
7.51453080174e-08
1.14093808483e-08
3.97537286763e-08
7.23891683008e-08
1.13723056693e-08
5.3062825301e-09
4.6823524241e-08
7.50255469074e-08
1.13220068002e-08
1.10771492115e-08
9.01638884155e-08
7.64752071425e-08
1.71841330472e-09
4.84819518972e-08
8.51806543276e-08
1.85398434235e-08
6.71258399756e-09
5.8543948458e-09
3.54131965983e-08
8.59299767875e-09
2.23797246465e-08
9.20865674917e-09
1.55183437319e-08
1.59968782359e-08
4.29150688713e-09
9.59968161169e-09
6.04726995068e-09
3.14503947253e-09
6.58016770413e-09
7.3012522942e-09
8.09115938501e-09
1.41870640818e-08
9.28146638151e-09
9.43251569866e-08
1.10679955453e-08
9.54373134337e-10
7.8709716249e-09
3.2303386208e-09
1.03522452985e-08
5.42639029086e-09
1.58021524835e-08
2.01575370965e-09
1.34072625999e-08
5.41434290891e-09
1.09119619833e-08
2.49979470784e-08
1.67062205185e-10
7.36019542075e-09
1.58713637331e-08
4.93013378772e-08
4.82906538566e-08
2.41790516583e-08
1.21352805717e-10
1.01308299694e-07
4.35639110704e-09
1.17881107823e-08
8.42914902694e-08
2.37478835607e-08
3.19126529204e-09
2.10714804488e-08
2.48804654085e-08
8.49613041648e-08
2.14003018623e-09
5.43611410451e-08
8.08596310768e-08
8.77447087734e-09
5.56990687503e-09
1.30779801049e-08
5.48689958889e-09
2.04515645272e-08
1.53134778723e-08
8.13300807186e-09
1.90336689245e-08
2.70083124474e-08
8.82664140098e-09
1.05814452413e-08
1.4794423208e-08
4.56805351609e-10
8.37257954522e-09
1.08094936573e-08
1.11556098507e-09
2.95414026402e-09
6.75362510157e-09
7.82374339535e-09
1.36873217179e-08
2.88322905154e-08
6.55482639523e-08
4.8999974503e-08
5.15448891862e-10
3.1260483709e-08
2.81132344336e-08
5.43864845728e-09
1.98041131695e-08
1.41788458395e-08
2.51076490281e-08
4.15391921798e-08
1.20535541587e-08
3.99389318522e-08
6.20907076074e-09
3.25382293038e-08
2.71323515902e-08
1.74788215749e-08
1.97526562796e-08
1.37388504594e-08
7.05215657023e-09
2.04229559134e-08
6.21613163807e-09
9.48359610408e-09
1.53708139118e-09
1.8641073702e-08
1.54387167708e-08
9.60246743796e-09
2.29352958207e-08
1.57539308823e-08
2.07301550877e-08
2.81808565622e-09
9.86830595478e-09
1.52013280305e-08
1.57240792544e-08
2.06700881778e-08
1.38023132045e-08
1.09858339742e-08
4.58818325315e-09
1.60538447345e-08
8.2640465601e-09
2.74835294839e-08
9.12405568537e-09
7.20478685704e-09
8.37211394283e-09
3.60671352742e-09
1.60814711792e-08
1.041073117e-08
6.87371958836e-09
1.06329405717e-08
1.67318838245e-08
3.49341849973e-09
2.29448684331e-08
1.03409764056e-08
8.05447436039e-09
4.58461305201e-08
2.06712940637e-09
1.67018747762e-08
1.43283170071e-08
4.62381523035e-08
4.10066070813e-08
2.06624436988e-08
1.97992191061e-08
1.67566760525e-08
4.34196477134e-09
8.23965701096e-09
3.26464010653e-08
1.98139963555e-08
1.72923285371e-10
1.72147500669e-08
1.52281734458e-08
2.39943161116e-08
1.10631408112e-08
8.38576080002e-09
4.76832402948e-09
6.19326341985e-08
1.60325685273e-08
2.41256418344e-08
5.12305534382e-09
1.96986215878e-09
1.2772641612e-08
1.96976269597e-08
3.27949427703e-08
2.05037107085e-08
2.08889289894e-08
8.9392017028e-08
1.02717792793e-08
6.46023223808e-10
1.1063598704e-08
3.86468998222e-09
2.28546821925e-08
2.97271184804e-08
1.12413859816e-08
4.8605439078e-09
1.21511599282e-08
6.07447680746e-09
4.20990684895e-08
3.23388142237e-09
6.16588319806e-09
1.43262219361e-08
4.70588547864e-09
3.93919926389e-08
3.41876452769e-08
5.20888385091e-09
2.75749874976e-08
2.83302165584e-08
1.73265749163e-09
2.862393473e-08
2.39201868886e-09
1.24398610997e-09
1.59087078979e-08
3.06080306917e-09
3.18602591511e-09
3.68723604806e-09
3.14359852784e-08
8.1704302893e-09
4.33701166958e-09
1.06905286039e-09
2.42929664721e-08
1.82503193905e-08
2.65237164453e-08
1.58253733842e-08
1.01737977166e-08
4.69658171092e-08
3.39799238931e-09
5.82769049533e-10
6.98286742753e-10
2.27696785136e-10
4.80221475364e-09
2.64110694162e-09
3.24624518784e-08
2.40412807042e-08
5.13228899274e-08
1.52092080725e-08
1.08899747257e-09
7.16971970421e-09
6.89908274758e-09
1.60225423414e-09
1.87840338247e-08
2.76882301959e-08
4.64526579046e-09
5.04897965688e-08
1.8418353991e-08
1.31860334661e-08
1.3967074423e-08
2.54707558918e-08
5.49690434437e-09
8.51395290858e-09
2.53245671526e-09
1.58112602974e-08
3.58285602549e-08
1.86555199694e-08
2.09428302244e-08
3.68291704584e-08
2.04261381857e-08
3.52722068125e-08
4.04876314717e-08
8.93980093951e-09
1.0982608781e-08
4.3124655834e-09
2.28307293877e-08
6.27342121537e-08
1.20914850116e-07
2.28689337858e-08
2.95177500326e-09
2.09617618765e-09
4.14783738438e-09
8.97926405176e-09
1.75675892844e-08
6.80951976597e-09
3.82221624497e-08
1.77991117444e-08
5.94221923794e-09
1.65107908528e-08
3.91606762404e-08
1.12842635248e-08
9.24045627137e-09
7.36457207244e-09
1.5079331098e-09
2.3536649386e-08
5.83873341488e-08
1.52063109704e-08
3.38231802945e-09
4.71328884981e-09
1.99643436605e-09
9.23249877241e-09
3.946576262e-09
2.19723090538e-08
3.13958127745e-08
1.99015548398e-08
5.23801310151e-08
8.12855490654e-09
1.99979142028e-08
3.23463271197e-09
1.72244050606e-08
2.39843653422e-08
1.45158531883e-08
1.68167967212e-08
2.44238178278e-08
7.78900220741e-09
2.87370463743e-08
2.85773835572e-08
7.47907427214e-09
1.61896463845e-08
3.13928162944e-09
2.19889774078e-08
1.36867830578e-08
1.15440573719e-08
8.21352195701e-09
1.3665263743e-08
6.17470506519e-09
1.60388219706e-08
2.31102364245e-08
1.34360378708e-08
2.31089484846e-08
4.24897267999e-09
6.11134161461e-09
8.1463663339e-09
3.99579272381e-09
6.19161058785e-10
1.08344831928e-08
8.48690104453e-09
1.03595819678e-07
1.27615201268e-07
6.1179088782e-09
2.13818730402e-09
1.70042745671e-08
8.08065565485e-09
1.12257698547e-08
2.35804066972e-09
2.10101898397e-08
8.22403914042e-09
4.15618457987e-09
2.85378355925e-08
1.43683930323e-09
6.62318548068e-09
5.93367268065e-09
1.4682570373e-08
6.8498534435e-09
4.83861102633e-10
2.08120079124e-09
1.3729819996e-08
1.4169804552e-08
1.19535125542e-09
2.36661419603e-08
4.50899334633e-09
2.37342473506e-08
1.54137382934e-08
9.49814713056e-09
1.97230747307e-08
3.59612031147e-09
2.4558257265e-08
1.58082560031e-08
5.69456886439e-09
2.37282729549e-08
1.42189628876e-09
1.53474448913e-08
1.44986231149e-08
2.20187688397e-09
9.26719881848e-09
3.09436394514e-08
1.47678201092e-08
1.6782188859e-08
2.65246131704e-09
1.07019333385e-08
9.47442796682e-09
1.07466691042e-08
4.68994815702e-10
1.39342348048e-08
1.15930859636e-08
1.3172878252e-08

