# vtk DataFile Version 3.0
File Name: Molecule/sphere_cent/sphere_cent_0-s25.vtk
ASCII
DATASET UNSTRUCTURED_GRID
FIELD FieldData 1
TIME 1 1 double
0.0
POINTS 1528 double
0.99906855822 0.0088210552931 0.041566472501
0.98960775137 0.13219544291 -0.055872473866
0.98726725578 0.1312969923 0.089673876762
-0.85230469704 -0.05892033875 -0.51909255981
-0.90913099051 -0.10096520931 -0.40400281549
-0.89970111847 0.022816998884 -0.43590763211
-0.46107640862 0.88188952208 -0.097867824137
-0.54254370928 0.83975481987 -0.013431233354
-0.40167978406 0.91314119101 0.058401405811
-0.013437947258 -0.99924254417 0.032382819802
0.05694327876 -0.9884775877 0.14024892449
-0.070989303291 -0.98611474037 0.14916029572
-0.6257686615 0.49830594659 0.60006648302
-0.52200353146 0.54397261143 0.65676438808
-0.56405079365 0.60839760303 0.55723530054
-0.99057334661 -0.037165474147 -0.13143321872
-0.99914777279 -0.022275146097 -0.021412931383
-0.99458020926 0.081058129668 -0.060722470284
-0.0069176331162 0.96368694305 -0.26531863213
0.072539702058 0.97656601667 -0.20086894929
0.080553807318 0.94295299053 -0.3223207593
0.41926920414 0.5944672823 0.6859626174
0.54091143608 0.56797915697 0.62002074718
0.45586282015 0.67766809464 0.57705062628
0.3429620862 0.69178336859 0.63543105125
0.13154527545 0.21171541512 0.96841031313
0.2439455092 0.25581532717 0.9354134202
0.14031013846 0.3244471252 0.93535137177
-0.77296304703 -0.59698677063 -0.21360079944
-0.69235557318 -0.69289571047 -0.20123718679
-0.73763936758 -0.67116206884 -0.073392637074
-0.69432908297 0.39480352402 0.60166728497
-0.63326954842 0.36571002007 0.68197250366
-0.59688621759 -0.30508109927 0.74178546667
-0.50758057833 -0.23114311695 0.82999241352
-0.61511272192 -0.17587207258 0.7685380578
-0.53343582153 -0.081184089184 0.84167909622
-0.3936073482 -0.88669425249 0.24008589983
-0.4922735095 -0.86187744141 0.12152777612
-0.36595973372 -0.92319232225 0.11418697238
0.52729052305 0.24142087996 0.81461745501
0.42889255285 0.2700688839 0.86199778318
0.45246651769 0.16673980653 0.87593156099
-0.80934709311 -0.57984167337 -0.092147275805
-0.79196035862 -0.60877513885 0.037571806461
-0.71238768101 -0.69803482294 0.072467528284
-0.61621785164 -0.77746629715 -0.12560337782
-0.70705968142 0.28758952022 0.64550155401
-0.69694304466 -0.48563537002 0.5272744298
-0.71040201187 -0.55629372597 0.43081387877
-0.61722171307 -0.56230086088 0.54928976297
0.32515373826 -0.91038632393 -0.25577288866
0.21989311278 -0.9517313838 -0.21363607049
0.21323756874 -0.92190355062 -0.32336518168
-0.96795350313 -0.20006652176 -0.15150623024
-0.98401159048 -0.17156226933 -0.043218072504
-0.94569396973 -0.31895393133 -0.058604314923
-0.96593743563 -0.25259724259 0.056103855371
-0.79864627123 -0.47148087621 0.37370616198
-0.75320035219 -0.58211678267 0.30624186993
-0.63744586706 -0.44613102078 0.62781196833
-0.8225274682 -0.52047133446 0.22831018269
-0.74803107977 -0.63762891293 0.18398110569
-0.66332805157 -0.68368083239 0.3036916554
-0.65812712908 -0.72803592682 0.19150355458
-0.51038151979 0.7953825593 0.32689419389
-0.38791304827 0.82031798363 0.42021203041
-0.38903817534 0.87986236811 0.27135172486
-0.097657769918 0.8589296937 0.5025638938
-0.20135715604 0.79404395819 0.57354331017
-0.091070152819 0.76858627796 0.63291525841
-0.21378338337 0.70687764883 0.67409312725
0.36863419414 -0.811845541 -0.45260849595
0.26343140006 -0.78443735838 -0.56146430969
0.4266102612 -0.72897952795 -0.53530657291
0.13721781969 -0.8561013341 -0.4983112812
0.085482038558 -0.80597156286 -0.58562409878
0.24282185733 -0.86798876524 -0.43312159181
-0.013007652946 -0.87403798103 -0.48566606641
0.98427647352 0.071660414338 0.16168898344
0.95709443092 0.2177130729 0.19072203338
0.96855819225 0.24184010923 0.055547114462
-0.22752775252 0.85639131069 0.46336075664
-0.44824039936 -0.89377045631 -0.0088484343141
0.28023412824 -0.95119827986 0.12847705185
0.29828372598 -0.92718559504 0.226532951
0.18383708596 -0.96414655447 0.19052436948
0.14629632235 -0.98731076717 0.058895088732
0.0025418961886 0.82614398003 0.56332707405
-0.42680591345 -0.14613373578 0.89244955778
-0.4319935143 -0.031420402229 0.90118151903
-0.37158963084 -0.07474270463 0.92532926798
-0.30894574523 -0.15350610018 0.93840551376
-0.36779513955 -0.24471527338 0.89688909054
0.34193828702 -0.86960488558 -0.356095016
0.097078546882 -0.90959960222 -0.40394797921
0.10225611925 -0.94404089451 -0.31321024895
-0.040741298348 -0.92651849985 -0.37266910076
-0.13509863615 -0.88949459791 -0.43637549877
-0.12344313413 -0.95631861687 -0.26492869854
-0.14023399353 -0.92866420746 -0.34312549233
-0.052519820631 -0.95381855965 -0.2953542769
0.35848367214 -0.92098677158 0.15234668553
0.38439184427 -0.8822312355 0.27183943987
0.00045377761126 -0.89566725492 0.44424724579
-0.12762387097 -0.88603264093 0.4456910193
-0.10793282092 -0.93730771542 0.33071503043
-0.24381166697 -0.89976751804 0.36110517383
0.83422523737 0.54428201914 -0.087088212371
0.85999554396 0.47861394286 -0.17672218382
0.80605864525 0.56209647655 -0.18521668017
0.87897121906 -0.44192090631 -0.17881666124
0.88059771061 -0.38288465142 -0.27920040488
0.92157459259 -0.34286540747 -0.17893706262
0.82497602701 -0.48353564739 -0.29251992702
0.91949170828 -0.26625561714 -0.28923478723
0.87636703253 -0.2333163172 -0.42098411918
0.87147289515 -0.32439431548 -0.36785754561
0.8285959959 -0.40904426575 -0.3821888864
0.82374441624 0.43109554052 -0.36823165417
0.82077395916 0.49995559454 -0.27631491423
0.88022518158 0.38594916463 -0.27611106634
0.91981673241 0.2560698688 -0.29725286365
0.86708575487 0.32084083557 -0.38106188178
0.93110495806 0.3156785965 -0.18241874874
0.15872573853 -0.76503163576 0.62386548519
0.085387758911 -0.83706438541 0.54038870335
0.2063101083 -0.81313347816 0.54423940182
0.28205227852 -0.89507079124 0.34426552057
0.96678352356 -0.24911762774 -0.051267173141
0.99170428514 -0.12847360969 0.00097941001877
0.96819728613 -0.24236899614 0.058182224631
0.98456311226 -0.13750183582 -0.10818456858
0.985658288 -0.12404380739 0.11483722925
0.93605148792 -0.15568087995 -0.3150626421
0.95931833982 -0.19267660379 -0.20413596928
0.98188328743 -0.065475799143 -0.1777908057
0.97943049669 0.06649441272 -0.19027921557
0.99632632732 -0.010811476968 -0.084484949708
0.95162093639 0.034239582717 -0.30526816845
0.94888335466 0.13208630681 -0.28667983413
0.96298754215 0.19838516414 -0.18236210942
0.96077239513 0.26825857162 -0.069813378155
-0.32570225 -0.4810462296 0.81385034323
-0.24685297906 -0.43488299847 0.86584317684
-0.33952715993 -0.38668295741 0.85706734657
-0.021198943257 -0.80183982849 -0.59709900618
0.18473649025 0.98083120584 -0.052623718977
0.19077569246 0.97905910015 0.070516377687
0.31004995108 0.9501606226 -0.031734712422
-0.58679139614 0.71353906393 0.38248819113
-0.48832011223 0.73604655266 0.46773916483
0.01449212525 -0.56022369862 0.8281905055
0.15971922874 -0.5641528368 0.80948519707
0.12462572753 -0.44287145138 0.88730728626
0.2485538274 -0.39271128178 0.88526570797
0.17498536408 -0.28402799368 0.94270777702
0.71913224459 0.67393577099 0.16888982058
0.71366328001 0.63997006416 0.28475987911
0.77725690603 0.58293914795 0.23560963571
0.6626753211 0.63234895468 0.40124666691
0.74731361866 0.56113350391 0.35485267639
0.33444553614 -0.28887024522 -0.89692032337
0.39685994387 -0.38578078151 -0.832862854
0.27356418967 -0.40433722734 -0.87271535397
0.45869135857 -0.26931619644 -0.84680718184
0.32313641906 -0.49608287215 -0.80589318275
-0.81766980886 -0.39160260558 -0.42192786932
-0.85032695532 -0.40464055538 -0.33639487624
-0.87527561188 -0.30477109551 -0.37535533309
-0.87751585245 -0.21133540571 -0.43029087782
-0.91701871157 -0.21143528819 -0.33794048429
-0.87279886007 -0.45425277948 -0.1782784462
-0.92679637671 -0.3331951201 -0.17297765613
-0.8805218339 -0.40244629979 -0.25046086311
-0.90847420692 -0.30936658382 -0.28102946281
-0.9451687336 -0.20862282813 -0.2510138154
0.80420160294 0.59189760685 0.053499311209
0.73192834854 0.67900913954 0.054885178804
0.79146897793 0.59314852953 0.14606614411
-0.039952583611 -0.8265466094 0.56143146753
-0.030990291387 -0.73839503527 0.67361277342
-0.1270198226 -0.7611194849 0.63568139076
0.19830647111 -0.67885059118 0.70697259903
0.068593010306 -0.66669154167 0.74184763432
-0.014575581998 -0.97232615948 0.23314456642
-0.62006539106 0.74039387703 0.25492009521
-0.91741633415 -0.39635783434 -0.033180337399
0.47644004226 0.34434303641 0.80896276236
0.56404358149 0.33928474784 0.75273150206
0.52014458179 -0.85007226467 -0.082441225648
0.55462986231 -0.83144956827 0.032675955445
0.46661242843 -0.88441598415 0.0054998472333
0.81795454025 0.15502092242 -0.55394762754
0.83171403408 0.2416549921 -0.49975049496
0.876562953 0.13100911677 -0.46294888854
-0.14366732538 -0.41257834435 0.89952808619
-0.22693698108 -0.33689522743 0.91337060928
-0.093932673335 -0.32342123985 0.94158172607
-0.10364780575 -0.50607556105 0.85607534647
-0.040200076997 -0.43881884217 0.89718472958
0.76539927721 0.45015090704 -0.45988056064
0.75907701254 0.53510636091 -0.3707138896
0.81578785181 -0.22210273147 -0.53383249044
0.83023130894 -0.32005906105 -0.45638430119
0.81453686953 0.35523498058 -0.45861646533
0.88191843033 0.22318430245 -0.41503447294
0.014281558804 -0.94519871473 0.32609269023
0.080686986446 -0.96540796757 0.24791496992
0.11324466765 -0.93233031034 0.34301412106
0.027986923233 -0.021963294595 0.99930000305
0.088859960437 -0.16285535693 0.98261427879
0.15595179796 -0.024856995791 0.98745107651
0.04199365899 -0.30480286479 0.95091056824
-0.055923253298 -0.42147600651 -0.90465569496
-0.0046308720484 -0.30334573984 -0.95265388489
0.071049243212 -0.39395621419 -0.91613572836
0.44148996472 -0.25328660011 0.86075359583
0.38275241852 -0.38411307335 0.84021008015
0.5065035224 -0.32720768452 0.79772561789
0.32098767161 -0.51088505983 0.79689377546
0.41919574142 -0.50078570843 0.75730109215
0.7740098834 -0.38278198242 0.50376546383
0.70753753185 -0.33346682787 0.62265795469
0.68564838171 -0.4320769608 0.58575105667
[...]
CELL_DATA 3052
SCALARS cell_data_0 double
LOOKUP_TABLE default
2.79375499581e-09
2.59490060923e-09
9.63914460455e-09
7.26123105477e-09
3.95724560543e-09
1.93492831985e-09
8.58678955117e-10
1.41062790426e-09
3.25495406678e-09
2.15649875494e-09
1.33137071243e-09
1.97218311923e-09
1.09925453941e-10
3.60724092229e-09
5.4783737876e-09
5.55995284001e-10
1.82320912533e-09
4.22042540649e-10
1.62625564661e-09
4.03895134495e-09
1.79412247886e-09
2.85662189783e-09
2.00225136203e-10
6.49235520207e-09
8.41742882077e-09
1.66300265134e-11
9.16337561435e-09
3.04049960025e-09
1.99471477074e-09
2.50083961982e-09
4.39750182417e-09
2.49174220543e-09
2.77129894798e-09
7.73839654114e-09
2.60696046904e-09
1.48715455371e-09
4.46324096948e-09
3.2243973099e-09
2.63810703411e-09
9.5386766154e-10
1.70915416811e-09
1.47525003017e-09
2.46930979464e-09
8.05418787555e-10
3.55259103287e-09
5.23959804332e-09
6.49288798242e-09
5.80525097467e-10
5.15023587537e-10
4.24906404912e-09
1.75332775236e-09
8.23217695167e-10
1.77089701003e-11
3.17930931758e-09
1.49756419792e-09
5.75777490347e-09
5.921966811e-09
2.19808021815e-09
1.33186114691e-09
4.23396260993e-09
1.28117176995e-10
1.15915410812e-09
2.85144207522e-09
2.28981812322e-09
1.52616510189e-09
6.58819857689e-11
2.16438842276e-09
1.90049897822e-09
3.78722270141e-09
1.91097559357e-09
1.65874887953e-09
6.38783670158e-10
8.17044271705e-10
3.39978986615e-09
4.07133318398e-09
3.73355495126e-09
5.99914476343e-10
2.48637957171e-10
6.53424010016e-12
2.53329983758e-09
4.87160590914e-09
2.19792584642e-09
4.09774269844e-10
2.08835975488e-09
4.72835540776e-09
6.42410982368e-11
2.13312621738e-09
1.24470731211e-09
3.06020001648e-09
9.76781461333e-10
1.59926456622e-09
5.22653512664e-10
1.25086916981e-09
4.9819011858e-10
2.04847685304e-09
1.5629357263e-09
2.03720846655e-09
3.34856300218e-09
2.19185496313e-09
5.49565195963e-09
6.34480051786e-09
3.33993486341e-10
6.40204264461e-09
9.59374692737e-09
2.51564211195e-09
1.65802498465e-10
9.07817430189e-10
1.29226497525e-09
1.9575940932e-09
1.61814767137e-09
4.15142995675e-09
1.75702470313e-10
5.19853528552e-09
3.07976985244e-09
4.57503252214e-10
4.58541899531e-09
2.69672388506e-09
4.1409948486e-09
8.62372008266e-09
9.14696045672e-10
7.58572449582e-10
1.24566887014e-09
8.29923173938e-11
1.0513741263e-09
9.66499325994e-10
1.49440291402e-09
1.55299040056e-09
9.1336248111e-10
1.98254156185e-09
6.11611386745e-10
4.27995227651e-09
4.12024525192e-10
3.31280963244e-09
1.42335747708e-09
1.73475309546e-09
2.37832726402e-09
1.63303672641e-09
4.5611040471e-10
2.78712609162e-09
2.601225415e-09
5.87038342554e-10
7.14518867028e-10
7.83560191328e-10
2.8651246796e-09
9.4157545243e-10
6.19738502035e-09
9.01206748413e-10
2.21581107006e-09
3.31901572931e-09
2.53554794583e-09
1.41255041469e-10
3.69706252278e-09
3.04615582367e-09
5.18578455152e-09
1.83291494551e-10
5.88141413666e-09
3.62627541733e-09
3.87989395498e-09
6.20341365985e-09
3.41673382891e-09
1.66637589891e-09
1.36169388197e-09
3.24165450301e-10
7.71631725665e-11
3.82442939727e-09
1.83998130159e-09
2.02800478718e-09
2.18067083565e-09
9.97061092294e-10
3.63781907299e-10
4.29121741242e-09
6.21773858183e-09
3.17274712217e-09
5.04753170029e-10
3.16261328915e-10
6.00331532703e-09
8.43907145359e-09
2.57963660148e-09
7.09175002851e-10
1.37156596293e-09
9.23007399805e-10
2.06280673574e-09
5.88481790818e-09
1.62610594874e-09
1.4261783759e-09
4.43751001567e-09
2.19131879962e-09
4.26748097348e-09
2.79028353196e-09
3.71716160378e-10
4.96616832371e-10
1.36551720269e-10
5.62582347674e-10
4.25542272948e-09
2.01947061137e-09
4.59852088461e-10
2.72513113236e-10
1.71449845006e-09
1.88720015806e-09
6.18203335891e-10
3.70142056198e-10
4.40148854832e-09
3.12612388266e-09
8.07287742917e-09
2.65440677747e-09
4.40112533729e-09
2.63671243742e-09
8.79481182869e-10
4.25441642922e-10
1.98417393274e-09
2.96744725588e-09
2.21971944591e-09
1.12127310947e-09
8.87323334432e-10
4.21197582713e-09
1.50871854723e-10
1.05964833016e-10
1.00659437118e-09
1.21840335095e-10
7.47823565728e-10
1.03444317767e-09
1.44424398347e-09
1.61587374664e-10
3.37025140049e-09
4.11890748646e-10
4.51660213236e-10
1.25371816659e-09
1.30535225375e-09
9.14728283921e-10
3.82113164151e-09
1.1465158151e-09
2.90082498415e-10
6.42400550819e-10
4.98291924106e-09
1.61893681572e-09
2.64102595544e-10
2.15376762068e-09
1.93709897521e-09
6.54272135202e-10
5.65744428207e-10
9.26135803967e-11
1.66365972644e-09
3.62994148025e-09
2.94676575078e-09
2.08244691116e-09
6.28448676425e-09
2.95327099478e-09
9.36116641123e-10
3.46498818948e-09
3.13935812737e-11
6.66482453814e-10
3.42971695794e-09
4.20528158142e-09
3.18294407346e-09
3.18113205161e-09
6.18006421344e-10
3.77788332016e-09
5.47743677016e-10
2.00344383503e-09
9.11786502276e-10
6.5118579264e-09
7.56518167879e-10
1.33956153288e-09
1.38283350159e-09
1.43270546164e-09
3.26548363699e-09
6.70005451305e-10
2.29746953216e-09
3.82263355792e-09
6.24060872555e-09
3.02124780728e-10
1.6214991177e-09
2.35493137559e-09
5.11511290216e-09
3.15608996439e-09
2.55034301969e-09
9.14422209228e-10
3.45138215201e-09
2.71008597325e-09
1.41915921268e-09
2.15690141377e-09
3.39264692309e-09
4.69359150512e-10
1.91275716095e-09
2.40557018243e-09
5.91618425155e-12
1.5456050994e-09
6.03249434574e-11
8.273072617e-10
2.21659743502e-09
3.91115583071e-09
7.8930397008e-10
5.85414894866e-10
1.53528427555e-09
3.23717708381e-10
3.30549818357e-09
1.11343233212e-09
7.26835402795e-10
2.81318551961e-09
3.57573585899e-09
4.50591938078e-09
1.13592657437e-09
2.16976493472e-09
4.70229534125e-10
3.66165511443e-09
8.10082003939e-10
2.56986536923e-09
1.8564310359e-09
1.04001852205e-09
6.53226567652e-12
1.10297991731e-09
7.54219868643e-10
1.93400389422e-09
1.5594870961e-09
7.0483754088e-11
4.13300785052e-10
1.8797239239e-09
2.50831513126e-09
3.02036896039e-09
2.47557828079e-10
4.24646367381e-10
3.38491988906e-09
3.50275045764e-09
9.57526287226e-10
7.56308456533e-10
1.75003987617e-09
9.79305401873e-10
9.88226093691e-10
1.74507257036e-09
1.31675324177e-09
1.99229314969e-09
7.97010561669e-10
5.3919488609e-10
2.96489414807e-10
7.90781703279e-10
4.08428709968e-09
2.76165750327e-09
2.46957456234e-09
1.29379990907e-09
8.14126063081e-10
2.08113537321e-09
1.04197228394e-09
1.21518995677e-09
1.0183194232e-09
6.52071742507e-10
1.52487886421e-09
2.41697362371e-09
1.1744556834e-09
3.41099338011e-10
4.89613739524e-10
1.72752013682e-09
3.92041900468e-09
4.68828621785e-10
2.96965123053e-10
9.30902139953e-10
4.69611214568e-09
5.17095373195e-10
8.22011610179e-10
1.12365978941e-09
2.47618042507e-09
4.31506887552e-09
3.72760233958e-09
4.80314258523e-09
4.60234367726e-09
1.7757959814e-09
7.93934922364e-10
1.43210032702e-09
2.03882539379e-10
6.28985897078e-11
4.4033138323e-10
2.91529978999e-09
1.68853206956e-10
3.09920571607e-09
4.07070325235e-09
3.86902061089e-09
1.87239752965e-10
8.97571960775e-10
1.3087191978e-09
1.94789538694e-09
1.17928312392e-09
1.52644040811e-09
8.45768380061e-10
1.68630661316e-09
4.87412690863e-09
3.28421473057e-09
3.18196428468e-09
1.73157899156e-09
4.5459454292e-09
3.38029438413e-09
1.22583076302e-09
5.93187968544e-10
6.42291609133e-11
3.47080759841e-09
2.98773975052e-09
2.55586907991e-09
9.84340701586e-10
9.32239226115e-10
5.89191697509e-09
6.6587824409e-09
1.11961880775e-09
1.33995019235e-09
2.88297742732e-09
5.70562947802e-09
1.00163881783e-09
1.86855864864e-09
7.468316069e-09
4.6551043658e-09
2.30459145878e-09
1.14243087451e-09
6.80597126896e-10
2.02230003883e-09
9.13275550242e-10
1.4104508123e-09
2.21916405461e-09
2.60038962951e-09
2.56863796166e-09
1.34258930563e-09
3.42206792508e-09
2.74452720667e-09
3.68320409247e-09
2.87729950504e-09
2.66061117873e-09
4.18343515455e-09
2.37595664312e-09
1.73376919018e-09
2.05160711682e-09
2.24359199403e-10
2.612476795e-09
1.97660355889e-09
3.40649828454e-09
1.83368021755e-09
1.57730719045e-09
1.12612493447e-10
5.49121376597e-09
1.55284157922e-09
9.04438085965e-10
2.69250450225e-09
4.18629780996e-09
1.63263227432e-09
4.42756864913e-10
1.50863052997e-09
3.6800695364e-09
2.10123933377e-09
1.99273444408e-10
2.76285637446e-09
3.65614435823e-10
3.01980408219e-09
3.90331508988e-09
1.92350826233e-09
2.78026861086e-09
1.51418866598e-09
7.67630151669e-10
2.4322129713e-09
5.08917812895e-10
4.08304823014e-09
2.04412422331e-09
6.22203569078e-09
1.0852127014e-09
1.3475298811e-09
1.70854126269e-09
1.04632647415e-10
6.88256594088e-10
2.52046424594e-09
3.91264867495e-09
6.03816886846e-10
1.47723438256e-09
1.14199672552e-09
2.49914420045e-09
2.77672616016e-09
2.6274273587e-09
8.35012489907e-10
5.39546967227e-10
8.80354643019e-09
9.58104233183e-10
3.62163899948e-09
3.21569186709e-09
6.30665358939e-11
1.96198818662e-09
7.47419405927e-10
3.00126149285e-09
3.58795441729e-09
1.19034307921e-09
3.91323542303e-09
1.89593792284e-10
9.36749100703e-10
5.1602175881e-10
7.65095267816e-10
2.05244420327e-09
8.44771845385e-10
2.15089704084e-09
3.42738180851e-09
1.8067439441e-09
3.21521942773e-10
1.92287687565e-10
2.51130877583e-10
6.53082170791e-10
3.39044793726e-09
2.07668410233e-09
2.20465655432e-09
7.76109846813e-10
1.42881935281e-09
5.33867231952e-09
1.51373445949e-09
1.60611463949e-09
2.24043113487e-09
1.96956077387e-10
4.9925893207e-10
4.06302065119e-09
1.82621401103e-09
2.94223786052e-09
1.93607245283e-09
1.17234835026e-09
2.61463545611e-09
5.08504055842e-10
6.20151645562e-09
1.35979028751e-09
1.95495219992e-09
2.79605566851e-09
3.21887646055e-09
4.87228587632e-09
3.45063932421e-09
1.1289727867e-09
6.09588878402e-09
1.8423020955e-09
1.46201007276e-09
2.01888803533e-10
3.6897272475e-09
7.14374695712e-10
2.39850826263e-10
1.89688857931e-09
4.06529813282e-10
3.00806059112e-09
4.20154782802e-10
1.36008651376e-09
8.35303337592e-10
1.36552586539e-09
4.25173142949e-09
2.11444970241e-09
7.13204273105e-10
5.71967092291e-10
2.50796804565e-09
2.20949500905e-09
4.51085224142e-10
3.12688344042e-09
4.25112182344e-09
7.08940914723e-10
1.28959853866e-09
3.33852459366e-09
9.39172905306e-10
1.42503557617e-09
1.65282433809e-09
1.69240811562e-09
1.21026781892e-09
1.0578777326e-09
6.29836631205e-10
9.3249308892e-10
4.17853108834e-09
4.92957291127e-09
4.22104916617e-09
1.95816415132e-09
9.42063977703e-10
6.5613977617e-10
2.39687855311e-09
5.14434785218e-09
2.23221204606e-09
2.70270700583e-09
1.50682129857e-09
1.97585378601e-09
2.54545309191e-09
8.03426080751e-11
2.44807400376e-09
3.30004792979e-09
1.28295580984e-09
1.12620194395e-09
3.46046835656e-09
1.21784738087e-09
1.02935416581e-09
4.47096991591e-10
5.15236989722e-09
2.19723837755e-09
4.43992246648e-09
1.86012432753e-09
8.03523592712e-10
1.97650430506e-09
4.55892389457e-09
2.12175535145e-09
3.35692356388e-09
3.18558759621e-10
5.27975125566e-10
8.01567614047e-10
8.71228665603e-11
5.33328514163e-10
6.82148041703e-10
1.44747504867e-09
1.61132805596e-09
1.41212052319e-09
1.24429986652e-09
1.13100181092e-09
2.14667123506e-09
2.21251432525e-09
2.2449223983e-09
1.23293149121e-09
3.09818125335e-09
1.67035954977e-09
3.83964125363e-11
2.93750009428e-09
5.52756371701e-09
4.93646906977e-09
1.30812405905e-09
2.87434715722e-09
1.8186949267e-09
2.11135072371e-10
8.48081636415e-10
2.07777154885e-10
3.89445795029e-09
7.07844425589e-10
6.7549830278e-09
2.42959456235e-09
3.31506392241e-09
1.98440211367e-09
3.29752693175e-10
1.8302337359e-09
1.5384477239e-09
1.29235421618e-10
4.1684508251e-10
1.75070189795e-09
3.94779191814e-09
3.25973358008e-09
2.13810309985e-09
2.35617147202e-09
3.85789448759e-09
1.46544792384e-09
2.86403414615e-09
1.42307468748e-09
9.04716209697e-10
4.37167776822e-10
9.25689199578e-10
1.28524047049e-09
6.19741016335e-10
1.64695531532e-09
4.29089269048e-09
2.7113100792e-09
3.77014604236e-09
1.99440493001e-09
2.59619408488e-09
8.19684952331e-11
1.83717956067e-10
2.2032330673e-09
1.26452952781e-09
1.88093688345e-09
4.15450754223e-09
1.46518042951e-09
3.47363308489e-09
1.6605468942e-09
1.38333522474e-09
3.957581901e-09
4.29415529072e-09
9.86542998234e-10
2.51092867287e-09
1.60617599558e-09
2.00151762417e-09
3.1204991964e-10
5.01812879919e-10
2.66415684784e-09
3.21764869957e-09
3.12546777605e-09
1.55193236548e-09
1.83538445083e-09
1.15597423086e-09
8.1491323267e-10
5.52644242946e-11
3.94577411626e-09
2.99205867454e-09
1.27565816532e-09
9.9930257262e-10
2.41679451214e-09
4.55552243861e-10
2.71725465799e-09
2.86060299243e-09
8.72781480277e-10
3.04795993704e-09
3.85679299962e-09
2.53104994819e-09
1.13199973571e-09
5.69561509673e-10
3.38298467148e-09
1.12977530299e-09
6.80762707804e-09
1.61211281198e-09
4.04033035396e-09
5.1305045058e-10
3.86344651393e-10
1.45030510236e-09
2.18791802512e-09
2.10098125017e-09
3.88250986619e-09
2.66676957985e-09
1.48028823076e-09
3.96386179202e-09
1.71820563889e-09
9.19563238035e-10
5.19356745801e-09
3.08814215607e-09
2.2785082371e-09
4.65156305396e-10
2.95668220453e-09
1.84593739146e-09
4.62484536465e-09
1.87574905165e-09
3.17676765177e-10
4.66705554046e-09
3.11598152985e-09
5.23344089566e-09
5.46951430143e-09
2.26399200821e-10
1.35656480413e-09
6.42604397742e-09
7.24116000061e-11
2.88332517305e-09
7.4951392212e-10
5.32170047087e-09
4.37574056748e-10
8.13076941905e-10
6.17326994482e-10
3.55391308447e-09
3.1415723565e-10
2.63623234764e-10
7.34465011254e-10
8.49723210566e-10
1.59171078295e-10
5.20382832792e-09
3.16034196091e-09
6.02021806375e-10
1.14950009157e-09
2.12294840679e-09
1.4595135302e-09
1.85881871234e-10
1.04457336105e-09
2.67733511917e-09
5.49075755072e-10
1.27417954237e-09
1.23565878869e-09
5.4936793855e-10
3.7856712067e-09
1.33104541066e-09
4.20802659344e-09
1.2850595693e-09
4.76169057124e-09
4.38890271451e-10
7.78998396348e-10
1.53048294418e-09
2.74501666161e-09
1.63278465869e-10
5.07496415916e-10
1.6200459126e-10
6.32317813056e-10
1.50195946922e-09
4.82443450477e-10
2.2401591026e-09
3.95821693018e-09
4.67062337014e-09
1.33370141556e-09
1.39191910458e-09
2.2650577939e-10
6.65166032939e-10
9.93892460352e-10
3.69021180436e-11
4.80117021144e-10
2.22936207279e-09
2.73688224351e-09
1.03424903327e-09
1.88789056706e-09
3.09089045134e-09
1.07486149022e-09
2.56404557168e-09
1.76420310024e-10
2.22624072507e-09
3.68445072201e-09
5.6738234669e-10
1.96269638373e-09
7.3819434132e-10
3.93651466046e-09
1.69091484466e-10
2.35944521622e-09
4.38955945408e-09
4.10310445748e-10
2.04808676215e-10
4.03490175079e-11
1.82881252237e-09
3.56004364045e-09
1.36529552805e-09
4.07398650739e-09
3.18856108375e-09
2.25295324108e-09
1.33115354648e-09
5.1787394198e-10
2.48476474654e-09
9.36197501174e-10
4.04560655238e-09
1.04548569336e-09
8.08160989369e-11
4.10148071275e-10
1.37050473273e-10
4.65160101948e-10
1.09550129062e-09
2.32427460115e-10
4.53959302654e-10
1.49789869259e-09
1.7420887206e-10
3.7348273063e-10
1.97762262892e-10
2.56452722471e-09
9.73743103175e-11
4.09239190353e-09
1.78261427254e-09
2.11927051086e-09
7.52718919856e-10
1.99623811089e-09
1.81114039563e-10
2.23917246234e-09
2.11028097781e-09
3.37829158778e-10
1.33451160031e-09
9.01429000501e-10
2.76373932198e-09
4.36268087698e-09
1.80157767609e-09
2.4998736914e-09
1.24615682526e-10
1.09150962679e-09
3.7922461803e-10
1.44454667987e-09
1.22836824099e-09
6.22141203163e-10
3.74542962621e-09
2.1767277484e-10
3.62133231383e-09
1.0590930644e-09
2.15261994876e-09
1.81900419335e-09
9.9439617196e-10
2.73370951908e-11
3.55029641772e-09
9.56850775501e-10
7.68020719019e-09
1.16110937863e-09
5.58632855867e-09
5.30157168861e-09
2.47076678395e-09
5.47580418309e-09
4.23757748001e-09
4.33797629759e-10
1.24216686199e-11
5.47218314253e-09
3.17910116454e-09
3.43462748338e-10
4.54050918344e-09
1.56425106917e-09
3.85901767134e-10
1.19598683887e-10
1.17601417959e-09
1.74982432799e-09
1.91971555744e-10
2.67962865789e-09
4.89169362127e-09
4.61239627598e-09
1.05830865536e-09
2.52404910713e-09
1.84458764004e-09
1.01500745717e-09
2.27307485857e-09
6.86877577064e-10
5.68429610154e-10
2.67302374319e-09
1.40395406906e-09
8.46488494642e-10
1.54600888796e-09
7.97372758838e-10
6.38785725605e-10
2.86692245616e-10
7.59175277606e-10
3.52546279e-10
4.68911912588e-09
6.26526566539e-09
2.44605954404e-09
2.02502445005e-09
4.10934668049e-09
3.35989843463e-09
1.53571008486e-09
5.34266677834e-09
4.63070190386e-10
4.83918568473e-09
2.35326026445e-10
2.10555403327e-09
2.97482630195e-09
3.48121857865e-09
2.61536673449e-09
3.07447175928e-09
1.41434359178e-10
3.50582286218e-09
4.11469211078e-09
3.98153911136e-09
4.6017103247e-09
4.99220425359e-10
4.49563402966e-09
9.52951462727e-10
1.83285356053e-09
3.0265157114e-09
1.57585722154e-09
1.24857874079e-09
5.64341953133e-10
4.02960033843e-09
1.0375936999e-10
4.86053525944e-09
3.05130857218e-09
1.57412473815e-09
2.12102273416e-10
9.9755218278e-10
1.70875801356e-09
3.00049748012e-09
2.87749067412e-09
4.54865348048e-11
1.99413598043e-09
1.07142442483e-10
3.15049112292e-09
3.57222034089e-09
2.17032428549e-09
1.52425353643e-09
1.64364780452e-09
5.69244049462e-09
8.23277155737e-10
3.68119980299e-11
6.17830655475e-10
2.04122130661e-09
3.0605613619e-09
1.45981852432e-09
2.47426157417e-09
3.1134579956e-10
7.22929788803e-10
2.46179940216e-09
8.34512795345e-10
1.53139923972e-09
1.71176734097e-09
2.00113601088e-09
1.14570005369e-09
3.58789080818e-09
7.68089945625e-10
4.90410123033e-09
3.55017152009e-09
6.06243899587e-09
2.31365103293e-09
2.54872391529e-09
1.01541361569e-09
8.34666901302e-09
1.2490157442e-09
4.78203195565e-09
6.01141126871e-10
3.69845546038e-09
7.15221122026e-10
1.13759697197e-10
2.48209082417e-09
1.93816069826e-09
6.53852834162e-10
1.38940154314e-09
2.04297547096e-09
6.77088216334e-11
2.98859834019e-09
2.5198918745e-09
6.42277011307e-10
1.98780913045e-09
2.41378904815e-09
5.31966223093e-10
1.89589583822e-09
1.30872353761e-09
2.74246873056e-09
1.61819450928e-09
8.43455946129e-10
7.11387685225e-10
4.06250572653e-09
5.25024832071e-09
2.51602606186e-09
8.80458529351e-10
1.21706696075e-09
1.82694093607e-10
1.4979262341e-09
2.09783645249e-09
3.67592019741e-10
8.92835450898e-10
4.36362981032e-10
1.03668958906e-09
1.30323057087e-09
5.92156539813e-09
1.30581998605e-09
8.07159752922e-11
8.94898405682e-10
5.81342420777e-09
5.003205877e-10
1.35880146485e-09
6.68725328524e-10
1.2689954616e-09
1.78898739685e-10
1.45603443826e-09
1.00732139615e-09
6.19225277028e-10
8.50062653596e-11
3.10910726511e-09
2.94697478104e-09
1.13402799952e-09
8.21565740262e-10
1.79818288409e-09
4.22957721562e-09
1.48742355895e-09
1.50523861166e-09
5.27178480291e-10
4.47651554238e-10
7.73406216576e-11
3.62941786631e-10
3.1895052638e-10
3.47702649373e-09
1.52917474472e-09
1.02898333676e-09
3.18354627892e-09
2.0864545337e-09
2.38072060312e-09
1.02816399439e-09
1.13134423144e-09
5.46132598873e-11
1.11854042412e-09
1.13779853122e-09
3.30687532479e-10
2.07559671834e-09
2.19958475953e-09
1.45627417233e-09
3.73360484751e-09
5.67567215079e-09
1.85213920238e-09
1.43934117004e-09
5.64818526742e-10
1.99138945611e-10
4.44791000256e-10
1.30267641128e-09
2.31877958578e-09
1.35327848736e-09
1.50242355829e-09
2.3966417565e-09
9.23093080617e-10
1.22474443902e-09
3.58937284897e-10
2.3091351463e-09
5.02380241063e-09
2.16351566347e-09
1.38617437709e-10
2.63481361393e-10
4.55642850084e-09
3.3867497356e-09
2.49578996834e-09
9.14439574202e-10
3.40945847377e-10
1.50240992545e-09
1.69472885225e-09
7.68640523261e-10
1.09848729381e-09
1.58276965572e-09
2.41801649769e-09
2.30121145496e-09
1.78889475051e-09
2.68185362992e-09
1.7498727165e-09
3.51240772047e-09
4.13896452398e-10
1.23672462231e-09
9.54444038956e-10
4.36900350701e-09
9.41797124887e-10
4.63786096013e-09
9.41521819098e-10
2.89161447621e-09
4.88233837127e-10
5.51122110739e-11
1.27929170173e-09
9.2644761557e-10
2.22564021438e-09
7.12661078059e-10
1.21102878331e-10
1.61284609501e-09
3.57189812925e-09
1.49039623802e-09
1.87093712355e-09
3.75939743824e-09
2.07710123348e-09
9.08370987158e-10
1.90634816176e-10
1.21997469349e-09
1.16607752848e-09
4.56192322945e-09
9.57356649911e-10
3.26276736725e-09
2.1496579876e-09
1.64241571527e-09
1.86577028218e-09
2.32842788724e-10
5.33145327898e-10
6.25289871257e-10
1.43294844562e-09
1.90971155913e-09
6.71255546477e-10
1.13920365106e-10
7.05334887441e-10
9.41118248708e-10
2.47438407472e-09
2.81042502507e-09
3.94204567918e-10
1.42907147704e-09