# vtk DataFile Version 3.0
File Name: Molecule/sphere_cent/sphere_cent_0-s5.vtk
ASCII
DATASET UNSTRUCTURED_GRID
FIELD FieldData 1
TIME 1 1 double
0.0
POINTS 121 double
0.50369489193 0.78391081095 -0.35786676407
0.31653892994 0.52516949177 -0.78734964132
0.012163592502 0.85121041536 -0.52161204815
-0.0004830318212 0.8510504365 0.52507275343
-0.26722288132 0.50823533535 0.81612688303
0.30953684449 0.49967950583 0.80907469988
0.026879705489 0.021083740517 0.99719464779
0.5204025507 0.017547346652 0.8525274992
0.3165115416 -0.52574777603 0.78703856468
0.019638027996 -0.85302507877 0.51913678646
0.50420880318 -0.78392797709 0.35742744803
0.48934194446 0.79746890068 0.34824678302
0.78807991743 0.31142872572 0.52663964033
-0.85292947292 -0.51974970102 0.019225176424
-0.53185874224 -0.78049951792 0.3226672411
-0.80865436792 -0.30924737453 0.50037401915
-0.34046575427 -0.48287853599 0.80435812473
-0.53908801079 -0.010485877283 0.84113812447
-0.83510452509 0.26470929384 0.48078608513
-0.9980160594 -0.00022894584981 0.043069873005
-0.85107678175 0.52216356993 0.011006718501
0.26874569058 0.94903284311 -0.16407325864
0.52476161718 0.85125201941 -0.00066686037462
0.26735138893 0.94971495867 0.16316013038
0.00082861678675 0.99985378981 -0.000171417807
-0.26532685757 0.95106589794 0.15832875669
-0.50014090538 0.80868005753 0.30918011069
-0.26800650358 0.94918686152 -0.16456638277
-0.52500003576 0.85101091862 -0.0058363587596
-0.51246756315 0.78766494989 -0.34224939346
-0.42535784841 0.68513661623 0.59133559465
-0.69042128325 0.5826203227 0.42867836356
-0.58815813065 0.42361116409 0.68872123957
-0.52689480782 -0.84981805086 -0.00085812550969
-0.50084614754 -0.79945158958 -0.33074867725
-0.26777270436 -0.94973731041 -0.16218544543
-0.2682338953 -0.94922715425 0.16408218443
-0.00023648430943 -0.99985849857 2.8969125196e-05
-0.012153652497 -0.85101556778 -0.52158337831
0.26823809743 -0.94922852516 -0.16430775821
0.5116353631 -0.7877073288 -0.34327346087
0.52529841661 -0.85090082884 0.00036352744792
0.26928985119 -0.94898432493 0.16372187436
0.85495996475 -0.51591980457 5.1754148444e-05
0.95015621185 -0.16240605712 -0.26624554396
0.99986982346 -4.3325966544e-05 -0.00025801832089
0.80303966999 -0.32869678736 -0.49684211612
0.85335206985 7.3987823271e-05 -0.52132970095
0.95008605719 0.16221682727 -0.26663205028
0.80343359709 0.32857739925 -0.49605718255
0.85645598173 0.51366090775 -0.0082370638847
-0.16145300865 -0.2619086504 0.95144110918
-0.0010547653073 -0.52553588152 0.8507143259
0.16310432553 -0.26433292031 0.95048636198
0.50304621458 0.0001086161792 -0.86164581776
0.16294123232 -0.2673279047 -0.94973647594
9.1732479632e-05 -0.00021074427059 -0.99987143278
0.31840229034 -0.51377242804 -0.79664456844
0.00055347161833 -0.52526396513 -0.85092937946
-0.16272541881 -0.26700517535 -0.94987547398
-0.31448957324 -0.50734210014 -0.80187016726
-0.50287127495 9.2970883998e-05 -0.86171841621
0.95017790794 -0.16243852675 0.2660870254
0.94994366169 0.16270776093 0.26671734452
0.85055267811 -0.0016106892144 0.52576160431
0.80317050219 -0.32949152589 0.4961411953
-0.80219966173 -0.31923824549 -0.50452113152
-0.95143014193 -0.16220571101 -0.26153677702
-0.85317385197 0.00050065101823 -0.52162539959
-0.95155102015 0.16159471869 -0.26139721274
-0.80281418562 0.32799002528 -0.49774381518
0.16287489235 0.26731222868 -0.94974446297
-0.16288420558 0.26727151871 -0.94975608587
-6.5436994191e-05 0.52565723658 -0.85062581301
-0.31790590286 0.51401180029 -0.79670953751
0.58836382627 0.43613213301 -0.68059468269
0.68801277876 0.16379728913 -0.70686334372
0.44859853387 0.27059286833 -0.85165834427
-0.14447940886 0.26778426766 0.95225727558
-0.40918847919 0.25516834855 0.87599927187
-0.26846650243 0.022291742265 0.96292424202
0.45043033361 -0.27013412118 0.85063511133
0.68443846703 -0.18105179071 0.70595622063
0.58800882101 -0.43796497583 0.67951464653
0.7077614665 0.68373012543 0.17650675774
0.85169327259 0.44891273975 0.27057000995
0.6811824441 0.58351129293 0.44165870547
-0.44878739119 0.27090847492 -0.85158699751
-0.58781576157 0.43581572175 -0.68149292469
-0.68791943789 0.16339382529 -0.70700722933
-0.43852776289 -0.67582321167 0.59195768833
-0.27157127857 -0.84819149971 0.4549497962
-0.18053136766 -0.70582807064 0.68494659662
-0.44896882772 -0.27002084255 -0.85174280405
-0.6873909831 -0.16294671595 -0.70759785175
-0.58800244331 -0.43583413959 -0.68135523796
-0.43540644646 -0.67794674635 -0.59229052067
-0.68109858036 -0.58368569613 -0.44192314148
-0.85109651089 -0.45013454556 -0.26975238323
-0.70793491602 -0.68127506971 -0.18571059406
0.68793833256 -0.163601771 -0.70692902803
0.44882693887 -0.27080759406 -0.85160249472
0.58834332228 -0.43615600467 -0.68081277609
0.70930683613 0.68100011349 -0.18123748899
0.85366779566 0.44754034281 -0.26722049713
0.69134819508 0.57854807377 -0.43266054988
0.691383183 -0.57866179943 0.43246394396
0.8538659811 -0.44989737868 0.26245042682
0.70924949646 -0.68244695663 0.17608779669
-0.17250336707 0.71011209488 -0.68243813515
-0.26978835464 0.84808552265 -0.45611393452
-0.43583527207 0.67707753181 -0.5927273035
-0.68372994661 0.58212178946 -0.43983119726
-0.70980340242 0.67991244793 -0.18433153629
-0.85400044918 0.44929262996 -0.26210272312
0.85392284393 -0.44923067093 -0.26264938712
0.68325984478 -0.58276975155 -0.43980532885
0.70949971676 -0.68217301369 -0.17569349706
0.43509420753 -0.67720174789 -0.59319728613
0.17223620415 -0.71020513773 -0.68270611763
0.26919156313 -0.84812259674 -0.45656526089

CELLS 238 952
3 0 1 2
3 3 4 5
3 5 6 7
3 8 9 10
3 11 3 5
3 12 5 7
3 13 14 15
3 15 16 17
3 17 18 15
3 18 19 15
3 18 20 19
3 15 19 13
3 0 21 22
3 21 23 22
3 21 24 23
3 22 23 11
3 24 21 2
3 2 21 0
3 11 23 3
3 23 24 3
3 24 25 3
3 3 25 26
3 24 27 25
3 27 28 25
3 27 29 28
3 25 28 26
3 2 27 24
3 26 28 20
3 26 30 3
3 3 30 4
3 26 31 30
3 31 32 30
3 31 18 32
3 30 32 4
3 18 31 20
3 20 31 26
3 32 18 17
3 13 33 14
3 34 35 33
3 35 36 33
3 35 37 36
3 33 36 14
3 37 35 38
3 38 35 34
3 36 37 9
3 38 39 37
3 40 41 39
3 41 42 39
3 41 10 42
3 39 42 37
3 37 42 9
3 42 10 9
3 43 44 45
3 46 47 44
3 47 48 44
3 47 49 48
3 44 48 45
3 45 48 50
3 16 51 17
3 16 52 51
3 52 53 51
3 52 8 53
3 51 53 6
3 8 52 9
3 6 53 7
3 54 55 56
3 57 58 55
3 58 59 55
3 58 60 59
3 55 59 56
3 60 58 38
3 56 59 61
3 45 62 43
3 45 63 62
3 63 64 62
3 63 12 64
3 62 64 65
3 50 63 45
3 64 12 7
3 66 67 68
3 67 69 68
3 67 19 69
3 68 69 70
3 19 67 13
3 69 19 20
3 56 71 54
3 56 72 71
3 72 73 71
3 72 74 73
3 71 73 1
3 61 72 56
3 1 73 2
3 75 1 0
3 49 76 75
3 76 77 75
3 76 54 77
3 75 77 1
3 4 78 5
3 78 6 5
3 4 79 78
3 79 80 78
3 79 17 80
3 78 80 6
3 7 81 82
3 81 83 82
3 81 8 83
3 82 83 65
3 10 83 8
3 50 84 85
3 84 86 85
3 84 11 86
3 85 86 12
3 12 86 5
3 5 86 11
3 74 87 88
3 87 89 88
3 87 61 89
3 88 89 70
3 14 90 15
3 90 16 15
3 14 91 90
3 91 92 90
3 91 9 92
3 90 92 16
3 61 93 94
3 93 95 94
3 93 60 95
3 94 95 66
3 60 96 95
3 96 97 95
3 96 34 97
3 95 97 66
3 34 96 38
3 38 96 60
3 66 97 98
3 97 99 98
3 97 34 99
3 98 99 13
3 54 100 101
3 100 102 101
3 100 46 102
3 101 102 57
3 11 84 22
3 22 84 103
3 17 79 32
3 32 79 4
3 13 99 33
3 33 99 34
3 9 91 36
3 36 91 14
3 54 76 100
3 47 76 49
3 46 100 47
3 47 100 76
3 6 80 51
3 51 80 17
3 16 92 52
3 52 92 9
3 8 81 53
3 53 81 7
3 54 101 55
3 55 101 57
3 60 93 59
3 59 93 61
3 50 85 63
3 63 85 12
3 7 82 64
3 64 82 65
3 61 94 89
3 68 94 66
3 70 89 68
3 68 89 94
3 66 98 67
3 67 98 13
3 1 77 71
3 71 77 54
3 61 87 72
3 72 87 74
3 50 104 103
3 104 105 103
3 104 49 105
3 103 105 0
3 65 106 107
3 106 108 107
3 106 10 108
3 107 108 43
3 2 109 110
3 109 111 110
3 109 74 111
3 110 111 29
3 29 112 113
3 112 114 113
3 112 70 114
3 113 114 20
3 46 115 116
3 115 117 116
3 115 43 117
3 116 117 40
3 57 118 119
3 118 120 119
3 118 40 120
3 119 120 38
3 50 103 84
3 22 103 0
3 2 110 27
3 27 110 29
3 29 113 28
3 28 113 20
3 38 120 39
3 39 120 40
3 43 108 117
3 41 108 10
3 40 117 41
3 41 117 108
3 43 115 44
3 44 115 46
3 49 104 48
3 48 104 50
3 57 119 58
3 58 119 38
3 65 107 62
3 62 107 43
3 20 114 69
3 69 114 70
3 74 109 73
3 73 109 2
3 0 105 75
3 75 105 49
3 10 106 83
3 83 106 65
3 29 111 112
3 88 111 74
3 70 112 88
3 88 112 111
3 40 118 116
3 102 118 57
3 46 116 102
3 102 116 118

CELL_TYPES 238
5
5
5
5
5
5
5
5
5
5
5
5
5
5
5
5
5
5
5
5
5
5
5
5
5
5
5
5
5
5
5
5
5
5
5
5
5
5
5
5
5
5
5
5
5
5
5
5
5
5
5
5
5
5
5
5
5
5
5
5
5
5
5
5
5
5
5
5
5
5
5
5
5
5
5
5
5
5
5
5
5
5
5
5
5
5
5
5
5
5
5
5
5
5
5
5
5
5
5
5
5
5
5
5
5
5
5
5
5
5
5
5
5
5
5
5
5
5
5
5
5
5
5
5
5
5
5
5
5
5
5
5
5
5
5
5
5
5
5
5
5
5
5
5
5
5
5
5
5
5
5
5
5
5
5
5
5
5
5
5
5
5
5
5
5
5
5
5
5
5
5
5
5
5
5
5
5
5
5
5
5
5
5
5
5
5
5
5
5
5
5
5
5
5
5
5
5
5
5
5
5
5
5
5
5
5
5
5
5
5
5
5
5
5
5
5
5
5
5
5
5
5
5
5
5
5
5
5
5
5
5
5
5
5
5
5
5
5

CELL_DATA 238
SCALARS cell_data_0 double
LOOKUP_TABLE default
4.65029967926e-07
1.75354639019e-07
1.50124028673e-07
4.25189827548e-07
1.85528709074e-07
1.60595117518e-07
1.71374633409e-07
1.96850871418e-07
5.23077532643e-08
7.95769329555e-09
2.26861620021e-07
5.42330060661e-10
9.23857843055e-08
8.05133447711e-08
2.65928807618e-07
8.05540526786e-08
1.28955504714e-07
1.59946639666e-07
1.33625901273e-07
1.2184191746e-07
1.44535891663e-07
1.16041894699e-07
3.18576975962e-07
4.62543274589e-08
4.70482176566e-08
3.19825198972e-07
2.71719873951e-07
2.94533693776e-07
1.43318579784e-07
1.56843085857e-07
2.50931258482e-07
1.17380317965e-07
2.91816673117e-07
7.95535408051e-08
7.91746959709e-08
1.33051553892e-07
1.03122009506e-07
6.28326203769e-08
1.05886739983e-07
6.16986563494e-08
3.27978304641e-07
1.33999266856e-07
9.06798764631e-08
1.01085569716e-07
2.93946487774e-07
2.49274280807e-07
6.79131943946e-08
1.89036777336e-08
7.85459211039e-08
3.14247811263e-07
1.34777038699e-07
1.72069449728e-07
2.62157203818e-07
2.68520870722e-08
7.04055421254e-09
3.86335382202e-08
3.7950388418e-07
2.57735566812e-07
5.94833446189e-08
1.30630317296e-07
7.97338979628e-08
1.35911397403e-07
1.26944168047e-07
1.38817959634e-08
6.03394670808e-08
2.23345874692e-07
2.0582635516e-08
3.18063055328e-08
1.72323456613e-07
3.44332677911e-07
3.06593906348e-07
2.84670849526e-07
2.76124731295e-07
3.73566167449e-07
5.08057685028e-08
1.44518867519e-07
4.88500652374e-08
2.71220899914e-07
2.1542996306e-08
4.21536940259e-08
3.32143511475e-08
3.56785629164e-07
5.18233580446e-08
1.09538537274e-07
6.85086476138e-08
2.75985504305e-07
3.52036414248e-07
4.827617168e-08
4.34173755406e-08
1.60053713015e-07
2.1925546869e-07
1.21985266992e-08
8.86012559044e-08
1.20063363318e-08
6.74709771943e-08
5.6571195735e-08
2.00964874832e-07
9.24592645537e-09
1.81018209591e-10
1.74388289493e-07
1.13169372241e-07
1.11649583323e-07
1.80475898059e-07
1.45688506927e-07
8.15260890592e-08
1.93045718013e-07
1.11231010573e-08
1.06289670335e-07
6.91810885366e-08
8.63721566146e-08
2.01353364865e-07
1.80765919746e-07
6.33865243222e-08
2.3924085562e-08
2.69067694918e-09
4.98093739137e-08
8.57990382973e-08
2.39184464268e-11
1.50820064827e-08
3.68384163804e-09
1.78230642134e-07
1.14568892499e-07
1.1132131325e-07
1.80105773609e-07
8.71501905401e-08
6.97558136882e-08
1.11668262669e-08
3.05887456667e-09
1.56470111046e-07
3.21133841992e-08
1.50641921503e-07
2.97210659179e-08
1.01775950226e-07
7.0537975325e-08
3.70031403388e-09
8.28267695501e-08
1.91663556303e-09
1.69454208501e-07
9.34622808181e-08
4.39927148723e-08
2.06041075598e-09
6.37494327346e-10
5.6124366162e-09
1.47257587707e-07
1.31034820127e-08
2.10482364517e-08
9.33126996299e-10
1.45848700896e-08
2.29675183847e-08
3.74552835073e-09
1.88238915103e-08
6.03096802358e-09
5.39493422023e-09
3.52242722248e-08
2.37581753042e-09
2.98667091734e-08
1.32435897057e-09
1.82981219547e-08
3.4890258418e-09
3.3591571805e-08
6.01723641346e-08
1.62967453106e-08
4.32796932056e-08
1.25046121049e-08
7.55607421684e-09
1.07530821121e-08
3.85509050692e-08
2.10148283452e-09
1.19554741656e-08
2.54647476116e-08
8.22596841399e-09
3.87157843831e-08
1.40778376551e-08
1.02827183811e-08
1.84228604443e-08
7.25676721289e-09
5.94436808242e-08
2.70849181571e-08
1.13675013213e-07
9.34121298426e-08
1.55511972776e-08
1.46739018663e-07
1.18604682617e-08
9.89682176388e-08
1.30415364887e-07
9.78611086391e-08
1.79222829233e-07
9.12141126611e-08
1.70569828177e-09
1.29776386163e-08
9.28159201344e-09
9.161890532e-08
1.61989561385e-09
1.72450127001e-07
5.70990421896e-11
6.17949760936e-08
1.25569899637e-07
3.35600786719e-08
5.34355640863e-09
9.26024223441e-08
1.08554674119e-08
1.6272478966e-07
1.9198635901e-08
1.28775884767e-08
6.26239308533e-08
8.63012385074e-09
6.80677237792e-09
4.94905995817e-08
6.75714189524e-08
1.38294077851e-08
5.619141799e-09
2.4358653791e-08
2.93208247046e-09
1.0244074224e-07
4.53629610783e-08
3.83237654646e-08
3.00515026811e-08
5.48647651304e-08
3.02995957574e-08
6.704182844e-08
4.15505413172e-08
5.03831748194e-08
3.25163205893e-08
6.19130146671e-09
9.55975738579e-09
2.22362598765e-08
2.50700126792e-08
3.34833616127e-08
2.75215831257e-08
3.81006413591e-08
1.17331567169e-08
2.90072357259e-09
9.59759799656e-09
1.18822439108e-08
9.10578850944e-09
6.26838350808e-09
3.19038928658e-10
1.25259886787e-08

