# vtk DataFile Version 3.0
File Name: Molecule/sphere_cent/sphere_cent_0-s28.vtk
ASCII
DATASET UNSTRUCTURED_GRID
FIELD FieldData 1
TIME 1 1 double
0.0
POINTS 2342 double
-0.8571126461 -0.050300016999 -0.51250982285
-0.90821802616 -0.098292276263 -0.40673488379
-0.90178585052 0.024740906432 -0.43144127727
0.42865183949 0.60357904434 0.67170709372
0.52392989397 0.57288432121 0.62977451086
0.45852968097 0.67056757212 0.58319312334
0.34839248657 0.68972343206 0.63469797373
-0.59622609615 -0.16044305265 0.78616571426
-0.51550120115 -0.20634685457 0.8315321207
-0.52772027254 -0.096985206008 0.84382146597
0.52454817295 0.25000712276 0.81384891272
0.42945039272 0.26919907331 0.86203479767
0.4527938962 0.17371761799 0.87451189756
-0.80338817835 -0.58921051025 -0.084177091718
-0.73001140356 -0.68146944046 -0.050326235592
-0.78203999996 -0.62284207344 0.020157743245
-0.70824915171 -0.70206075907 0.074141703546
-0.69431942701 0.39026105404 0.60437071323
-0.70502990484 0.30088868737 0.64213860035
-0.64504367113 0.35640004277 0.67566490173
0.31996747851 -0.91172587872 -0.25764447451
0.22732183337 -0.95039522648 -0.21227376163
0.23438249528 -0.92363208532 -0.30293917656
-0.63893860579 -0.54463219643 0.54310029745
-0.64072459936 -0.45093175769 0.62137907743
-0.69150793552 -0.48056358099 0.53924900293
-0.72921264172 -0.65507107973 0.19776010513
-0.76544624567 -0.58000689745 0.27842843533
-0.78840196133 -0.58945935965 0.17547872663
-0.65672892332 -0.73116219044 0.18468384445
-0.66317081451 -0.69419240952 0.27944150567
-0.20826223493 0.77757930756 0.59327459335
-0.21098937094 0.70920693874 0.6726654768
-0.10579265654 0.77610343695 0.62124085426
0.96453475952 0.21068795025 0.15818923712
0.98522502184 0.14078012109 0.093815550208
0.97127014399 0.23322090507 0.04570954293
0.00072476943024 0.82701432705 0.56216084957
-0.079358793795 0.85459011793 0.51316440105
-0.4306564033 -0.146802634 0.89048987627
-0.43641400337 -0.040462903678 0.89879614115
-0.37222027779 -0.083312295377 0.92437690496
-0.31986996531 -0.15595315397 0.93450134993
-0.35906851292 -0.23391546309 0.90350079536
0.33605736494 -0.87226629257 -0.35528746247
0.3550927937 -0.82429844141 -0.44070458412
0.26888275146 -0.85301482677 -0.44713577628
0.33222329617 -0.79198127985 -0.5118880868
-0.13893222809 -0.8874912262 0.43924680352
-0.2221544981 -0.90449613333 0.36401766539
-0.12635540962 -0.93379259109 0.33443072438
0.83813029528 0.53582662344 -0.10191164911
0.85840320587 0.47890651226 -0.18374370039
0.80526685715 0.5623332262 -0.18794427812
0.87981510162 -0.43709725142 -0.18636199832
0.82516443729 -0.48174056411 -0.29502993822
0.8734203577 -0.39189085364 -0.28818908334
0.83288246393 -0.40568864346 -0.37646010518
0.82414633036 0.42937317491 -0.36936047673
0.82029926777 0.49870884418 -0.27994027734
0.88132679462 0.38592383265 -0.27267694473
0.92143285275 0.25407192111 -0.29391586781
0.87373453379 0.32429260015 -0.36226722598
0.93336319923 0.30886259675 -0.18280982971
0.16554430127 -0.77578192949 0.60872882605
0.086598008871 -0.83449852467 0.54403424263
0.21090696752 -0.81359022856 0.54182398319
0.97021436691 -0.23831512034 -0.04329950735
0.99014544487 -0.13605961204 -0.008421224542
0.97187703848 -0.2289365828 0.054328285158
0.98597824574 -0.13495281339 -0.097856253386
0.98776900768 -0.05349028483 -0.14524534345
0.99642837048 -0.069107964635 -0.04528869316
0.95442783833 0.050975658 -0.29356113076
0.95113015175 0.14144873619 -0.27428844571
0.97781687975 0.057342927903 -0.19965861738
0.96037560701 0.20698010921 -0.18492081761
0.96235787868 0.26185578108 -0.072507157922
-0.32923865318 -0.4758540988 0.81558310986
-0.2506377399 -0.42918336391 0.86773598194
-0.34451210499 -0.39403742552 0.8520680666
0.98803842068 0.14355710149 -0.051604826003
0.71450334787 0.6774456501 0.17480504513
0.71363991499 0.64171367884 0.28057911992
0.76994848251 0.59603959322 0.22748550773
0.33982649446 -0.29466432333 -0.8931248188
0.38626649976 -0.37389564514 -0.84306055307
0.29886308312 -0.39934530854 -0.86650365591
0.45971533656 -0.2722620666 -0.84529036283
-0.81800186634 -0.38955140114 -0.42318153381
-0.85211414099 -0.39796295762 -0.33986070752
-0.87319850922 -0.30498924851 -0.38008061051
-0.87861913443 -0.21398985386 -0.42687994242
-0.91508698463 -0.21412810683 -0.34163782001
-0.93087059259 -0.31341540813 -0.18773424625
-0.90703654289 -0.30751255155 -0.28762987256
-0.88483756781 -0.39082863927 -0.25309914351
-0.94325619936 -0.2116124332 -0.25591078401
0.47650438547 0.34205746651 0.80990082026
0.56122976542 0.33640262485 0.7562032938
0.52087533474 -0.84973949194 -0.081450365484
0.55576628447 -0.83079963923 0.02981390059
0.47118926048 -0.88198798895 0.006468440406
0.81891512871 0.15742084384 -0.55189025402
0.83499801159 0.23145836592 -0.49918249249
0.8754965663 0.1390517056 -0.46277159452
-0.14483691752 -0.41298943758 0.89914369583
-0.21281972528 -0.34785988927 0.91299426556
-0.093549795449 -0.32091808319 0.94247168303
-0.093346238136 -0.50616747141 0.85733103752
-0.0527013354 -0.43303728104 0.89973545074
0.0047625140287 -0.49237895012 0.87022471428
0.87069106102 -0.32802113891 -0.36639818549
0.83061629534 -0.32642954588 -0.45106330514
0.76931816339 0.43919816613 -0.46308273077
0.80726027489 0.37287589908 -0.45724564791
0.88464617729 0.22706624866 -0.40715926886
0.053871318698 -0.9850757122 0.16268469393
0.059182275087 -0.96492946148 0.25576087832
-0.01633913815 -0.97253590822 0.23218269646
0.028926854953 -0.94694030285 0.32006475329
0.11005759984 -0.93611770868 0.33395636082
0.15656730533 -0.25381287932 0.95444881916
0.078270182014 -0.1694842726 0.9820689559
0.042651675642 -0.28733897209 0.95687562227
0.77316892147 -0.37525853515 0.51121377945
0.70265567303 -0.34936881065 0.61988520622
0.68974798918 -0.43240404129 0.58072841167
-0.65408295393 -0.097526445985 -0.75005251169
-0.60269087553 -0.17004953325 -0.77953577042
-0.67938810587 -0.18091239035 -0.71110606194
0.66416567564 -0.13424956799 -0.73518389463
0.57469040155 -0.21830202639 -0.78870207071
0.58870750666 -0.076792478561 -0.80464094877
0.5311435461 -0.33379077911 -0.77836596966
0.67710107565 -0.38901859522 -0.62464416027
0.65271669626 -0.30290466547 -0.69351220131
0.73361825943 -0.29688823223 -0.6112601161
0.7960345149 -0.29874521494 -0.5263915062
0.79690378904 -0.22739134729 -0.55949997902
0.75599193573 0.32707104087 -0.56698977947
0.72167092562 0.41180121899 -0.55640906096
0.77416574955 0.36830449104 -0.51482027769
0.58139324188 -0.4369674623 -0.68605792522
0.53741055727 -0.5332326293 -0.65333044529
0.49032321572 -0.4851936996 -0.7238522172
0.65258544683 0.54964399338 0.52098250389
0.69792258739 0.45570597053 0.55247479677
0.71839332581 0.5182877183 0.4632563889
-0.32986998558 -0.81078994274 0.48350453377
-0.22519180179 -0.85116565228 0.47412711382
-0.2535328567 -0.79913860559 0.54504173994
-0.16041465104 -0.8242828846 0.54293084145
0.57896697521 -0.79173785448 0.19482667744
0.64392352104 -0.7568372488 0.11198941618
0.65239065886 -0.72348976135 0.22495299578
0.71905869246 -0.67517089844 0.16444654763
0.71487259865 -0.69709563255 0.054600551724
0.65164124966 0.71279776096 0.25871655345
-0.46586588025 -0.38796648383 -0.79520577192
-0.52342367172 -0.33606538177 -0.78294289112
-0.45326036215 -0.33982592821 -0.82400912046
-0.78236329556 -0.47965538502 -0.39724463224
-0.75042241812 -0.45409336686 -0.48029002547
0.72540724277 0.68394881487 0.074593320489
0.65883362293 0.74783062935 0.081899419427
-0.029644779861 -0.72805780172 0.68489158154
0.051589645445 -0.67685824633 0.73424267769
-0.038750801235 -0.66828542948 0.74277627468
-0.79375499487 -0.22223182023 -0.56611895561
-0.77558016777 -0.31583285332 -0.54656213522
-0.83086568117 -0.29480579495 -0.47192916274
-0.784329772 -0.37310197949 -0.49559694529
0.029837129638 -0.78641265631 0.61696857214
-0.030063839629 -0.82468754053 0.56437081099
0.55958104134 -0.82014393806 0.11922465265
0.49164360762 -0.86601495743 0.091196857393
0.50947248936 -0.84435808659 0.16576747596
0.74597752094 -0.19961114228 -0.63480764627
0.79375559092 0.29569381475 -0.53147977591
0.7696659565 0.23863199353 -0.59211313725
-0.03581276536 -0.21986453235 0.97488582134
-0.13536505401 -0.21512556076 0.96716248989
-0.011208076961 -0.12181077898 0.99237746
0.036737084389 -0.030880495906 0.99880760908
0.11674902588 -0.09272736311 0.98861819506
0.75413876772 -0.34586116672 -0.55791842937
0.63286858797 -0.77415055037 -0.011554215103
0.79273688793 -0.41115710139 -0.44999688864
0.87167984247 -0.25531148911 -0.41774711013
0.83861762285 -0.24579936266 -0.48599362373
0.78065985441 -0.36990538239 -0.50368213654
0.82211124897 0.30892276764 -0.47820129991
0.49865281582 0.39219123125 -0.7727124095
0.45756870508 0.48033574224 -0.74815750122
0.5366590023 0.45440167189 -0.71070998907
0.53322976828 -0.13792790473 0.83455491066
0.57504528761 -0.21878448129 0.78805184364
0.61520004272 -0.12030064315 0.779124856
0.65848624706 -0.19014365971 0.72814762592
-0.59257149696 -0.72083157301 -0.35951378942
-0.59898859262 -0.75081223249 -0.27769884467
-0.66482770443 -0.67766368389 -0.31400561333
0.68518644571 -0.02334818989 -0.72798144817
0.75687837601 -0.07829041034 -0.64882481098
0.74730426073 0.037513434887 -0.66338062286
0.68296158314 0.094375617802 -0.72429978848
0.31181880832 -0.53167468309 0.78735655546
0.2826616168 -0.6119581461 0.73860830069
0.38428261876 -0.59475529194 0.70610809326
0.32958260179 -0.68418109417 0.65056526661
0.22178946435 -0.67763108015 0.70104402304
0.44921958447 -0.65087872744 0.61196559668
0.88888430595 -0.27449926734 0.36679750681
0.933124125 -0.16118894517 0.321375072
0.88673061132 -0.18353122473 0.42419466376
0.9523627758 -0.065210424364 0.29783710837
0.92640185356 -0.050425041467 0.37312987447
-0.44538718462 -0.62984365225 -0.63630980253
-0.45637530088 -0.70122969151 -0.54731476307
-0.53001570702 -0.63481765985 -0.56221473217
0.15377780795 -0.014860287309 0.9876730442
0.092937365174 0.069439776242 0.99323028326
0.19217650592 0.10214716196 0.97583985329
0.25702494383 0.027451323345 0.965970397
[...]
CELL_DATA 4680
SCALARS cell_data_0 double
LOOKUP_TABLE default
2.11269557352e-09
5.09792382733e-10
2.19185278703e-09
8.99849328623e-10
2.4261952436e-10
3.17456481542e-09
3.29298402238e-10
4.77894751784e-10
7.87156481628e-10
1.79343439581e-09
2.37997282893e-09
7.05467965533e-10
2.51502536479e-09
8.85685184713e-10
6.73241519731e-10
4.6970385265e-09
1.26808127676e-09
2.52348945871e-09
1.03456025179e-09
2.42316292573e-09
5.73320023092e-10
2.70693676192e-10
1.29593654044e-09
3.82787183645e-10
4.21749980024e-09
3.08681284718e-11
5.10785492118e-10
2.30486040286e-09
6.02879220637e-09
2.53983473371e-09
8.55262712489e-10
1.3220713654e-09
2.21466509009e-09
1.95164305148e-09
2.56025187588e-09
2.03445426942e-09
1.02573153936e-09
2.00276808911e-09
1.12221705566e-09
4.72682931718e-09
7.02063206937e-10
6.40395515708e-11
1.47926877181e-09
1.51294423118e-09
3.79201595177e-09
8.78439532645e-10
1.6201414258e-09
9.44323291555e-10
1.79836408137e-09
5.89798912554e-11
9.74954058976e-10
6.84149234035e-10
2.00748893665e-09
2.15207151923e-09
8.69003093067e-10
4.36058790452e-10
3.79831062092e-10
1.27473914086e-09
6.34072315039e-10
4.8610878824e-10
3.59110399337e-11
2.21148825758e-09
8.894474114e-10
4.95949874965e-11
1.61129592509e-09
9.92538736102e-10
1.35064107791e-09
5.12078620368e-09
2.37441996231e-09
1.35428941404e-09
2.87544522072e-09
4.64491739627e-09
4.19743193907e-09
6.44815199913e-10
2.12437367127e-09
1.00171162683e-09
3.59690951817e-09
2.18721736899e-09
1.55730052687e-09
5.91184240115e-10
4.4637845769e-10
1.13643678736e-09
2.09607494664e-09
8.4395897524e-10
1.35710356929e-09
5.81959746606e-10
1.27544173231e-09
1.69913799028e-09
3.61969979104e-09
2.00100798242e-09
1.17695849226e-09
3.32538075276e-11
1.51927394543e-09
3.3587462116e-09
2.11333434407e-09
1.52227197096e-09
1.34789494596e-09
4.69418459288e-10
1.7831407367e-09
2.05153018353e-09
1.21481642859e-09
4.40264458276e-11
4.21242766377e-10
2.6225932779e-09
1.20192103897e-10
7.48161021393e-10
2.22033320198e-09
1.94104570609e-10
2.29019919635e-09
2.83585447983e-10
9.14602565071e-10
6.14474172191e-10
1.53837505072e-09
7.17884589588e-11
5.96671443483e-10
1.38175010961e-09
3.72590062283e-10
1.16798078382e-09
1.7206359862e-09
1.61372603437e-09
1.60737601244e-09
1.44152180459e-09
9.95153553136e-10
2.22948280747e-09
1.44837247607e-09
1.76710616532e-09
1.22430776939e-09
4.58558185264e-10
1.28591062382e-09
1.63685093588e-09
3.2662638959e-09
3.22953045082e-09
1.71677937969e-09
4.41359727132e-10
1.72180876543e-09
1.49535877246e-09
2.23011246467e-09
1.93296405181e-09
2.28784850564e-10
4.49839940012e-10
4.11076428142e-09
1.1200760872e-09
2.51190072071e-09
2.85359412534e-10
7.63331749639e-10
8.13633355505e-10
8.6919594016e-10
7.09831477878e-10
5.60790810301e-10
6.6618783013e-10
9.69749361946e-11
2.18438880928e-10
3.56505340335e-09
5.40957095863e-10
1.53584214608e-10
2.66056853914e-10
8.45159386056e-10
1.7658389779e-09
1.38227438475e-09
3.98237000165e-09
1.80962881215e-09
4.16551395994e-10
1.72441167869e-10
8.03668995691e-10
7.15091147501e-10
1.31847580326e-10
8.57988087524e-10
1.54247664586e-09
1.06321155472e-09
3.36140678346e-09
6.27492250858e-10
1.69147262204e-10
5.68435294156e-10
7.69535811416e-11
3.77682253488e-10
3.04660716768e-09
2.52112983764e-10
2.95605715346e-09
4.69779969987e-10
4.18149644655e-10
2.66325896058e-10
6.34700647493e-10
3.21107935954e-10
4.30888115161e-10
2.6168082164e-09
5.91926139307e-10
1.9653995712e-09
8.91865524159e-10
1.97869180985e-10
3.30870682607e-10
4.73239649582e-10
1.26717734084e-09
1.91366572437e-09
2.5102015459e-09
2.16955387987e-09
1.60634452667e-10
4.57595777405e-11
2.62005279558e-10
2.0161153473e-09
2.89634381053e-09
2.91994949492e-09
2.17348790894e-09
8.5725440511e-10
6.66879250004e-10
4.64996806006e-09
1.16604472157e-09
1.63140424848e-10
1.65740802792e-09
2.44675565743e-09
1.90370525943e-09
1.68483207532e-09
1.73307178803e-09
2.26453657567e-09
1.7774678214e-09
1.54909643407e-09
6.97058826971e-10
5.01637365512e-10
8.28733539986e-10
4.29156521128e-10
4.75604341359e-09
8.55117582756e-10
1.90381573516e-09
2.53394465438e-09
3.05315193669e-09
3.58638366679e-10
6.6454718204e-10
5.34213174601e-10
9.09302666951e-10
2.30048931062e-10
3.84511583437e-10
3.11360063722e-09
3.70119287779e-10
1.23072588215e-09
1.12208001199e-09
8.23985532371e-11
2.0400012585e-09
2.98091296194e-10
1.02171701668e-09
6.82127330005e-10
3.83007754746e-10
1.69867037671e-09
3.4692158515e-09
1.14863946222e-09
7.41723970136e-10
8.68041623597e-10
1.20470546657e-09
2.58233447304e-09
1.7648673288e-09
2.85245653125e-10
2.1023471617e-09
2.2043962999e-09
4.70646526464e-10
1.25420037646e-09
1.00556140762e-09
3.56153330611e-11
8.4527757889e-10
1.06546132274e-10
3.85076037431e-11
1.50670812687e-09
1.84980225072e-10
2.96803564796e-09
2.4030148363e-09
1.71523636584e-09
2.11269244259e-09
1.43215648208e-11
2.01106114183e-09
2.55410536126e-09
3.02189923615e-09
2.99832029684e-09
1.23038529411e-10
2.68258165774e-09
6.46493021811e-10
1.3275375946e-09
2.03222704519e-09
1.15045417786e-09
1.17066901991e-09
1.44119402173e-10
2.73751859906e-09
5.53818139259e-10
8.80827937345e-10
9.55922348921e-10
1.41217474234e-09
2.5501699925e-10
2.50318894784e-09
6.61935348006e-10
6.34469502559e-10
1.33039491172e-09
4.43472108533e-09
7.19205079939e-10
2.75734395074e-10
6.15146874336e-10
2.22125356255e-10
8.00119425808e-10
3.39929491839e-12
1.51639229398e-09
6.18148534482e-10
2.93836117483e-10
6.64988467524e-10
2.90796472127e-10
5.6122705415e-10
8.73235502092e-10
2.09629502127e-09
1.06706501481e-09
1.3683506575e-09
9.33869053731e-10
1.23831065529e-09
9.51569930346e-10
3.43858206639e-09
1.84349721216e-09
1.42930577201e-10
2.39874371872e-09
1.72558035415e-10
5.82922370971e-10
1.54347177749e-09
1.64168551614e-09
9.3772140805e-10
2.17628615496e-09
1.33756430594e-09
2.13608002762e-09
6.37406062919e-10
9.51097796211e-10
1.49733829413e-09
6.84966114076e-10
1.83150219901e-09
7.91002029936e-10
3.49235627363e-10
3.87858504595e-10
1.12622704909e-09
3.57099892816e-09
1.82792450117e-09
1.76111082789e-09
1.03864651717e-10
1.13076903398e-09
3.94796615586e-10
5.56469537233e-10
2.3031558535e-10
4.12660226724e-10
1.10757703785e-09
1.02754850136e-09
1.92067409025e-09
2.03493351299e-09
1.11772669117e-09
1.62069252766e-09
1.50255010361e-09
6.04161420316e-10
2.78834526123e-10
2.93820739213e-09
2.01572650101e-10
2.60013845574e-09
1.12406644988e-09
3.71417007798e-09
1.85786106898e-09
1.19938560612e-10
2.83522182707e-10
1.83327554035e-10
5.30990705809e-10
9.89586515199e-10
2.08850526496e-09
1.92194107681e-10
2.2740225286e-09
2.21421637083e-09
2.65181464716e-09
2.22370554752e-09
1.51889610169e-09
5.15759828687e-09
1.49681335609e-09
2.47709225457e-09
8.28378284675e-10
1.27214592433e-09
7.34249741818e-10
8.6549648427e-10
1.93094418346e-09
1.95557956016e-09
7.08333921933e-10
7.97289188482e-10
9.03735379925e-10
9.82751550458e-10
2.49007932463e-09
1.80256411499e-09
1.43156785158e-09
4.96612643744e-10
2.50616404083e-09
1.90831418725e-10
5.96700878925e-10
1.65332536527e-09
7.12325489811e-10
6.06471709454e-10
1.52882541162e-09
1.00772342129e-09
3.4820962605e-10
2.71019229927e-09
7.60956763778e-10
1.7219213857e-09
1.48065501997e-09
2.03663749125e-09
5.70456293773e-10
9.98391928289e-10
5.71872854965e-10
2.78305822484e-09
7.59064202608e-10
4.61079506473e-10
5.19581578358e-10
7.03182195981e-10
1.87965619352e-09
1.35905351978e-09
1.38760820849e-10
4.5471961767e-10
1.71464291587e-10
3.02737195139e-10
1.67192577709e-10
9.51736627209e-10
2.03114646923e-10
8.75729760978e-10
8.46857672736e-10
1.14075676552e-09
2.82729003302e-09
2.51635273145e-09
3.99656554053e-11
4.29515888813e-10
6.65064390208e-10
6.84372893007e-10
2.06276091151e-10
2.61899366548e-10
1.07270861279e-09
3.09743990869e-10
1.05819722862e-09
5.38297761138e-11
7.21014987298e-10
4.5593530601e-10
3.61541991933e-10
9.02952527531e-10
5.69004178479e-10
6.51863348617e-11
1.97233510391e-09
1.11805066977e-09
5.08198210536e-10
1.12503002783e-09
8.4080650889e-11
2.60935310201e-09
3.38504333907e-10
1.25470842445e-10
6.96741820617e-10
1.96689636383e-10
7.96391236826e-11
3.72205302043e-09
1.46121186704e-09
1.56261688141e-09
8.42900975285e-10
7.48435360987e-11
1.41819258193e-09
1.2475625988e-09
2.19318075377e-09
3.91243119185e-10
4.56769213864e-10
1.00032631495e-09
9.09762570793e-10
1.27049204066e-09
2.93289829245e-09
2.06187030016e-10
1.48622413819e-09
1.66222306535e-09
1.7973767263e-09
2.19590756517e-09
3.4850368198e-09
1.42253531326e-09
2.62867196446e-09
3.93894379129e-09
2.06816414315e-09
2.46648384939e-09
9.00311006206e-10
2.15452813716e-10
5.07888869434e-11
2.0442940379e-09
1.93996661779e-10
1.35891506344e-09
1.53582624898e-09
1.89336644325e-10
2.26549614598e-09
3.96448010408e-10
1.18451000609e-09
2.11906687324e-09
2.95126629726e-09
1.2034770908e-09
1.73380845449e-09
6.41594871387e-10
7.67070623382e-10
5.34277628177e-10
1.705026005e-10
1.67416407591e-09
1.3567088848e-09
1.5675556364e-09
1.06333609591e-09
1.26812967867e-09
3.76555716124e-09
1.04803804806e-09
1.64803481176e-09
4.37267081514e-10
2.72958482181e-09
1.57828269694e-09
1.61092798164e-09
2.16184967138e-09
1.09694430432e-09
4.03424623763e-09
7.99394437318e-10
1.88643730023e-09
3.60838274541e-10
2.5776013679e-09
2.21385635378e-09
1.77987760121e-09
2.97311179541e-09
1.23050308972e-09
3.30663102993e-10
8.71739560269e-10
2.28316125475e-09
1.53251341394e-09
9.89022893845e-10
9.79399224729e-10
2.23292548184e-09
7.0639352384e-10
3.19200213162e-11
3.14597057932e-09
3.72369037344e-10
1.03251426938e-09
1.08221187252e-09
2.28119961081e-09
1.69411504987e-09
5.52758254123e-11
2.49618574873e-09
6.15591880453e-10
8.77135825972e-10
1.37167470783e-09
1.10473374996e-09
1.08376851877e-09
4.28015957413e-09
9.53621140228e-10
2.29523049855e-09
6.18013143524e-10
2.78235516739e-10
1.76609785102e-09
1.50039036811e-10
8.4315186084e-11
8.61563930588e-10
1.92256912588e-09
7.83432980039e-10
2.16700350764e-09
1.45894651852e-09
7.34783833108e-10
1.79885825399e-10
5.58989705018e-10
1.17563733252e-09
9.22546855668e-10
7.57674834811e-10
5.78757990641e-10
5.81601037137e-10
8.92164876776e-11
2.91216295079e-09
1.23659626116e-09
4.55746690713e-10
8.2976142989e-10
4.15135796464e-10
1.65992214498e-09
7.68888834663e-10
1.40347197224e-09
1.17642930028e-09
8.06694026474e-10
2.24107725161e-09
8.31947491168e-11
5.75084569501e-10
1.44463540838e-09
8.8623638712e-10
2.60631146518e-09
6.78637314365e-10
1.47303031735e-09
6.40871663931e-10
4.96652409647e-10
2.03274395119e-10
5.10052871705e-10
1.53882584951e-09
1.81840078087e-09
1.35934841091e-09
2.60121664278e-10
6.0486200089e-10
1.94351776402e-09
1.97832755914e-09
1.87849867056e-09
1.63386746414e-10
1.34815982371e-09
1.33602066454e-10
6.3403864461e-10
5.05242175182e-10
1.44923181526e-09
1.46177164871e-09
1.16066182661e-09
6.77228279827e-10
3.88128781647e-10
5.30534193151e-10
6.79183555242e-10
2.96250489308e-09
2.19916314925e-09
9.38863475432e-10
1.14387004833e-09
6.16223155653e-10
3.75866020233e-10
3.12556456188e-09
1.83027434992e-10
3.38477959253e-09
2.67410216067e-10
1.3842523773e-09
1.48471191543e-09
1.86943664211e-09
1.45410704762e-09
1.14964281008e-11
2.64821305457e-11
1.96051486907e-10
3.24745979825e-09
8.49267060002e-10
3.90424863205e-10
3.2244980446e-10
8.26038813647e-10
2.15316197184e-09
6.61528523156e-10
1.30301608284e-09
2.39107276377e-09
2.02360578617e-09
1.16558551871e-09
9.63050138812e-10
2.15561018213e-09
1.97669951816e-09
1.04741525624e-09
2.69762484258e-10
4.14869096466e-10
7.09368599165e-10
7.31326980769e-11
3.33200226637e-10
2.07461164212e-09
3.50498005162e-09
3.89860082409e-10
8.74411110471e-10
1.43118866446e-09
5.45670418654e-10
1.6317635015e-09
1.11834911054e-09
3.46873938222e-11
2.32508072359e-09
1.33091160396e-09
1.0863657801e-10
1.98120838529e-10
5.6673623373e-10
5.8729120606e-10
5.37037174627e-10
9.35131819311e-10
1.97924036767e-09
6.69405096455e-10
1.98821342496e-09
2.35640275534e-09
2.5480038269e-09
9.0621226032e-10
6.85671811968e-10
1.17304010069e-09
9.9296827797e-10
3.83344575126e-10
2.85100491445e-09
9.19952109074e-10
1.947465756e-09
1.62846143465e-09
3.54695379941e-10
1.9056582932e-10
4.13876952226e-10
2.70875908072e-09
1.42246738658e-09
9.51337409643e-10
2.05120486361e-09
1.45013407364e-09
4.7837469799e-10
2.48840808648e-10
5.94558778282e-10
1.42737521201e-09
8.6773240556e-10
5.73176991853e-10
5.01877840385e-10
6.28678458021e-10
1.1351808873e-09
1.33563172549e-09
1.5698969876e-09
1.28144980771e-09
2.0731913e-09
2.50380453351e-09
2.83821580602e-10
1.83473154999e-09
1.61667330463e-09
8.40126771734e-11
7.48468598357e-11
9.07983626102e-10
2.6281158296e-09
7.37494145607e-10
2.06375729293e-10
9.16443412719e-10
4.75877696268e-12
1.07034391041e-09
2.80047013215e-09
1.69337041785e-10
4.51274152465e-10
6.47872602094e-10
1.66188587016e-10
1.78400032538e-09
1.14547780595e-09
1.40629860579e-10
1.36951468207e-09
5.06467788606e-10
5.91878588834e-11
8.27904714751e-10
2.30203429502e-10
1.1053370779e-09
1.14236639002e-10
2.02512391584e-10
2.14713509904e-09
1.76987952028e-09
3.59988399497e-10
2.10188575444e-09
2.65866457518e-09
1.02198468871e-09
1.79972215329e-09
1.32392700419e-09
4.95032077726e-10
2.24546174776e-09
8.06270540935e-10
1.03008149079e-09
4.45694149458e-10
7.90153867414e-10
6.83073161425e-10
1.64522312047e-09
8.35678892085e-10
8.22740517514e-10
3.91579803001e-09
3.49797319312e-09
8.70283714437e-10
1.56897957822e-09
1.66522137545e-09
1.21362160698e-09
1.16269881355e-09
2.12127038815e-10
6.11802846484e-10
3.92966269325e-10
4.13953169184e-10
6.19859422144e-10
9.15086443458e-10
2.95124853241e-10
3.66859839223e-09
2.85624978171e-09
1.27807196083e-09
1.30215688752e-10
9.8722176429e-10
1.72514028477e-09
1.87559964351e-09
4.19169584125e-09
3.03362515399e-09
6.02772105089e-11
5.02966907445e-10
4.02978348815e-10
2.29488564878e-09
5.21425136261e-10
1.02271869854e-09
8.45924344756e-11
1.16204706886e-09
1.02101371104e-09
1.76001410866e-09
3.06728481312e-10
5.4029232312e-10
5.87836316716e-10
6.3778466146e-10
3.49449318707e-10
5.67430147063e-10
5.67257578572e-10
4.80002391126e-10
5.61012273121e-10
2.53881043023e-09
1.39407635981e-09
3.45366049409e-09
2.43972591488e-10
2.56064827805e-09
2.44662941766e-09
1.35216649453e-09
1.54151360683e-09
3.58638491946e-09
1.60139573377e-09
5.4804585041e-10
1.10349055595e-09
1.14590864847e-09
2.34228577086e-10
2.04995816053e-10
4.00652269627e-10
9.67267870188e-10
8.35300736289e-10
9.43201079915e-10
1.31918403524e-09
4.6128582843e-10
2.90725630471e-09
4.63109620585e-10
2.36328047519e-10
1.67390916756e-09
1.85064099172e-09
6.0081665717e-10
5.56089078882e-10
3.85114060274e-10
8.98559713888e-11
2.0849417652e-09
1.34656809002e-11
1.61771063691e-09
2.21936262305e-09
4.27715456898e-10
3.66228990236e-09
2.70532840799e-09
5.79246616573e-11
3.98333018623e-10
4.75028389e-10
7.20884849602e-10
7.43823750377e-10
4.92761310204e-10
3.58217358674e-10
3.40157993936e-10
3.04605205468e-10
1.21845052455e-09
4.13496379688e-10
2.78187263095e-11
6.15628096425e-10
7.67280729101e-10
1.33895434258e-09
1.33789134733e-09
2.99605157826e-10
3.19226895378e-10
9.75801186674e-10
6.20574534986e-10
3.10834493997e-10
1.12667675138e-09
9.40058038042e-10
1.58130902658e-09
5.4060737639e-10
7.18523894886e-10
2.53625704155e-09
2.28606003515e-10
1.08029384128e-09
1.73024987309e-09
6.4428030081e-10
2.55966768845e-10
1.90708036885e-09
6.383112865e-10
1.12020543031e-10
1.38107691359e-09
5.96366574479e-10
1.50824281349e-09
7.68432035548e-10
3.29441207187e-09
3.76915640524e-11
1.93253868099e-09
8.02105506712e-10
1.98833057101e-09
3.69059530218e-10
1.25484237315e-09
1.94738680357e-09
3.27796760404e-10
1.00343116168e-10
4.30700333169e-11
3.92298246482e-10
7.14071021122e-10
1.95772219464e-10
1.96432868335e-10
6.7507308385e-10
1.45277279641e-09
1.76504439863e-09
2.39653923396e-09
6.04329913065e-10
1.22899412777e-09
7.96561707086e-11
2.73516809508e-11
1.3798051669e-09
9.12163291525e-11
1.8070061785e-09
1.75290349332e-09
7.5833907216e-10
1.8404055335e-10
1.86765526154e-09
1.53160211841e-09
1.72329424861e-09
8.86216321631e-11
1.22424935563e-10
5.80647285536e-10
4.44717938076e-11
1.52877514303e-10
5.30391233846e-11
7.92583900004e-10
7.92415690112e-10
1.68862906573e-12
6.93711687374e-10
1.48434573164e-09
2.26336203326e-09
8.04059107206e-10
6.81522351044e-10
3.14252609031e-09
3.55842730328e-09
8.12225104461e-10
1.8853268399e-11
5.50065094077e-10
3.45788187311e-10
1.7314719944e-10
4.02247257911e-10
8.22887643494e-10
3.3713409443e-10
8.24841239223e-10
4.38830068593e-10
1.63041469332e-09
1.29827692643e-10
3.10238723469e-11
1.6126130813e-09
1.86411848682e-09
1.17691151323e-09
8.75626773968e-10
5.37356084714e-10
3.56545998265e-10
8.44213233628e-11
1.62273179259e-09
2.0944210815e-10
1.91675457336e-09
7.2887037231e-10
2.53743843138e-10
1.4919673617e-09
2.39311383594e-09
3.92867096872e-10
2.49187621232e-09
4.79432152378e-10
1.54255037525e-09
1.37859038511e-09
8.96161296635e-10
3.54546645001e-10
6.83642427407e-10
1.06805873489e-09
1.233782524e-10
4.31794333475e-10
2.83223047827e-10
9.91980614524e-10
2.81625461544e-09
1.47667281584e-09
2.14048940166e-09
1.04409733817e-09
5.67488427122e-10
1.22662160831e-09
1.72463636274e-09
1.91434212264e-10
1.47501780629e-09
8.04726484187e-10
7.17841516836e-11
6.70200763461e-11
7.56701985433e-10
1.31624393672e-09
1.00303301504e-10
1.21737204317e-09
7.06479556381e-10
8.36118403682e-10
6.95250008166e-10
7.59970210626e-11
1.9703016433e-09
1.06942222545e-09
1.31000535894e-09
3.24186180226e-10
2.08335407718e-09
1.15819418097e-09
1.65339531472e-10
1.56508789803e-09
2.68781529997e-10
2.10379624043e-10
4.5593723585e-10
7.40746811503e-10
1.71059011582e-09
1.86829882109e-09
3.76100370194e-11
4.47121894452e-10
2.83507508958e-09
1.0887668649e-09
1.64337293089e-09
1.14369877069e-09
2.12705855078e-10
4.23424969385e-10
1.66504432232e-09
6.35204168134e-10
1.2624935376e-09
1.34240606667e-09
1.49426093039e-09
1.28972732157e-09
3.50021901389e-10
7.03671574266e-10
1.3636885035e-09
1.44806966675e-09
1.88146432391e-09
2.70730525539e-09
1.47835772492e-09
2.86583610609e-11
2.02940504183e-09
5.80663688856e-10
1.30972030225e-09
1.32057210244e-09
1.27282279782e-10
1.05595497799e-09
1.99939933775e-10
7.4283022175e-10
5.46216176568e-10
9.7942202577e-11
1.76533280709e-10
9.38058611938e-10
1.33167953411e-09
1.43300314898e-09
3.13236833191e-11
3.6569912171e-10
4.82687611803e-10
3.39339754197e-10
1.89831641107e-10
1.98288414785e-09
9.99610313415e-10
9.58334418223e-10
9.29219727325e-10
4.12518125487e-10
1.01373692916e-10
2.72792155754e-09
1.09985609408e-09
8.5739913016e-10
2.4176702211e-09
2.34664719732e-09
1.67607207944e-09
3.23251647939e-11
8.72264536569e-10
1.29513840497e-09
1.92466869417e-09
7.46096166176e-10
1.22914995005e-09
8.81759132821e-12
8.02779485689e-10
6.19232343756e-11
1.94254542436e-09
1.86194343536e-09
4.68245986951e-10
3.31258275129e-10
4.4357965323e-10
1.70327638304e-09
1.31734149542e-09
1.45888697334e-11
7.25233641987e-10
8.71019574505e-10
1.52628549916e-09
1.22014219411e-09
5.86226011334e-10
2.13333931105e-09
1.80550181396e-10
8.99072883314e-10
1.89032282022e-09
7.69877683663e-10
1.45984355871e-10
8.4234364933e-10
6.77382456139e-10
7.32625448208e-10
2.58309120104e-09
1.2315654911e-09
1.12112756875e-09
1.92556681599e-09
1.88114110168e-10
1.80384875669e-09
8.21374356534e-10
4.08953881567e-10
3.58492276327e-10
5.21060412494e-10
9.12888981886e-11
2.32522313334e-09
1.12809809861e-10
8.13640677802e-10
2.85237244734e-09
1.10913421016e-10
6.89790616399e-10
2.14860708289e-09
2.94174535369e-09
3.44172142069e-09
2.19530380797e-09
5.43806888229e-10
5.46732671023e-10
1.0270657858e-09
7.09992878654e-10
2.18771472311e-10
2.82088825347e-10
1.91420909007e-09
1.05279631614e-09
2.26786721284e-09
2.47119576483e-09
9.89516134555e-10
3.716591806e-10
5.54745893245e-10
1.06362662801e-09
2.92995363142e-10
1.54080623204e-09
2.42207675238e-09
3.5373888132e-10
7.35004016986e-10
5.03717876597e-10
2.21013690353e-11
2.01810814436e-09
1.81184279897e-09
6.06301641367e-10
9.29907388247e-10
1.56823284073e-09
1.231311705e-09
1.88306725686e-09
3.10468248592e-09
1.83868698236e-10
7.87451402837e-10
2.06580323573e-11
1.87007690122e-10
9.47763349474e-10
7.3907397965e-10
7.08588383673e-10