# vtk DataFile Version 3.0
File Name: Molecule/sphere_cent/sphere_cent_0-s7.vtk
ASCII
DATASET UNSTRUCTURED_GRID
FIELD FieldData 1
TIME 1 1 double
0.0
POINTS 1254 double
2.05350177 2.25701685 -2.58631117
1.70130162 2.75276384 -2.35114101
2.25701685 2.58631117 -2.05350177
2.58631117 2.05350177 -2.25701685
2.75276384 2.35114101 -1.70130162
1.48699214 2.40600382 -2.82842713
3.23606798 -1.23606798 -2.0
3.03174168 -1.815962 -1.8737194
2.82842713 -1.48699214 -2.40600382
3.80422607 -0.64983939 -1.05146222
3.85544506 0.0 -1.0656188
3.95075336 -0.32896986 -0.53228441
3.95075336 0.32896986 -0.53228441
3.80422607 0.64983939 -1.05146222
4.0 0.0 0.0
0.0 1.0656188 3.85544506
0.32929432 1.59842821 3.65192997
-0.32929432 1.59842821 3.65192997
-0.62573786 -2.07703396 -3.36071154
-0.95470772 -1.54474954 -3.5640261
-0.32929432 -1.59842821 -3.65192997
-1.23606798 -2.0 -3.23606798
-0.64983939 -1.05146222 -3.80422607
-0.9483453 -2.4273006 -3.0346092
2.05350177 2.25701685 2.58631117
2.35114101 1.70130162 2.75276384
2.58631117 2.05350177 2.25701685
2.25701685 2.58631117 2.05350177
2.75276384 2.35114101 1.70130162
3.03174168 1.815962 1.8737194
2.82842713 1.48699214 2.40600382
3.23606798 1.23606798 2.0
-3.23606798 -1.23606798 -2.0
-3.5640261 -0.95470772 -1.54474954
-3.36071154 -0.62573786 -2.07703396
-3.65192997 -0.32929432 -1.59842821
-3.80422607 -0.64983939 -1.05146222
-3.40260323 0.0 -2.10292445
-3.85544506 0.0 -1.0656188
-3.65192997 0.32929432 -1.59842821
-3.80422607 0.64983939 -1.05146222
-1.23606798 2.0 -3.23606798
-1.815962 1.8737194 -3.03174168
-1.48699214 2.40600382 -2.82842713
-2.05350177 2.25701685 -2.58631117
-2.35114101 1.70130162 -2.75276384
-1.70130162 2.75276384 -2.35114101
-2.0 -3.23606798 -1.23606798
-1.54474954 -3.5640261 -0.95470772
-2.07703396 -3.36071154 -0.62573786
-1.59842821 -3.65192997 -0.32929432
-1.05146222 -3.80422607 -0.64983939
-2.10292445 -3.40260323 0.0
-1.0656188 -3.85544506 0.0
-1.59842821 -3.65192997 0.32929432
-1.05146222 -3.80422607 0.64983939
-0.53228441 -3.95075336 -0.32896986
-0.53228441 -3.95075336 0.32896986
0.0 -4.0 0.0
-2.07703396 -3.36071154 0.62573786
-1.54474954 -3.5640261 0.95470772
-2.0 -3.23606798 1.23606798
-3.5640261 0.95470772 1.54474954
-3.65192997 0.32929432 1.59842821
-3.36071154 0.62573786 2.07703396
-3.40260323 0.0 2.10292445
-3.80422607 0.64983939 1.05146222
-3.85544506 0.0 1.0656188
-3.65192997 -0.32929432 1.59842821
-1.50015427 -1.53445493 -3.3756459
-1.815962 -1.8737194 -3.03174168
-2.06448648 -1.38461206 -3.13380679
-1.48699214 -2.40600382 -2.82842713
-2.05350177 -2.25701685 -2.58631117
-1.70130162 -2.75276384 -2.35114101
-2.35114101 -1.70130162 -2.75276384
-2.25701685 -2.58631117 -2.05350177
-2.58631117 -2.05350177 -2.25701685
-1.18401837 -2.80923939 -2.58964758
-0.64248814 -2.80818578 -2.77512191
2.75276384 -2.35114101 -1.70130162
2.40600382 -2.82842713 -1.48699214
2.25701685 -2.58631117 -2.05350177
1.8737194 -3.03174168 -1.815962
1.70130162 -2.75276384 -2.35114101
-2.10292445 0.0 3.40260323
-1.93776657 -0.52480151 3.45971734
-1.6134214 0.0 3.66017368
-1.43291518 -0.52662148 3.6972184
0.0 -2.10292445 3.40260323
0.32929432 -1.59842821 3.65192997
-0.32929432 -1.59842821 3.65192997
0.0 -1.0656188 3.85544506
0.62573786 -2.07703396 3.36071154
0.95470772 -1.54474954 3.5640261
1.23606798 -2.0 3.23606798
0.64983939 -1.05146222 3.80422607
-0.64248814 -2.80818578 2.77512191
-0.32434517 -3.13537217 2.46256808
0.0 -2.84512694 2.81162812
0.32434517 -3.13537217 2.46256808
0.64248814 -2.80818578 2.77512191
1.50015427 -1.53445493 3.3756459
1.20503552 -1.056331 3.6649767
1.73555426 -1.03956765 3.45067392
2.06448648 -1.38461206 3.13380679
2.28500664 -0.85209146 3.17059692
2.58964758 -1.18401837 2.80923939
2.35114101 -1.70130162 2.75276384
1.815962 -1.8737194 3.03174168
2.77512191 -0.64248814 2.80818578
3.0346092 -0.9483453 2.4273006
2.82842713 -1.48699214 2.40600382
1.48699214 -2.40600382 2.82842713
2.05350177 -2.25701685 2.58631117
1.70130162 -2.75276384 2.35114101
2.25701685 -2.58631117 2.05350177
2.58631117 -2.05350177 2.25701685
2.75276384 -2.35114101 1.70130162
2.40600382 -2.82842713 1.48699214
3.03174168 -1.815962 1.8737194
0.85209146 -3.17059692 2.28500664
0.52480151 -3.45971734 1.93776657
1.03956765 -3.45067392 1.73555426
-1.20503552 -1.056331 -3.6649767
3.40260323 -2.10292445 0.0
3.66017368 -1.6134214 0.0
3.45971734 -1.93776657 0.52480151
3.6972184 -1.43291518 0.52662148
3.84775343 -1.09306612 0.0
3.86557039 -0.88046811 0.5311699
3.6649767 -1.20503552 1.056331
3.80422607 -0.64983939 1.05146222
3.96175553 -0.55180897 0.0
3.95075336 -0.32896986 0.53228441
3.5640261 -0.95470772 1.54474954
3.95075336 0.32896986 0.53228441
3.85544506 0.0 1.0656188
3.80422607 0.64983939 1.05146222
3.65192997 0.32929432 1.59842821
3.65192997 -0.32929432 1.59842821
3.40260323 0.0 2.10292445
3.5640261 0.95470772 1.54474954
3.36071154 0.62573786 2.07703396
3.36071154 -0.62573786 2.07703396
3.96175553 0.55180897 0.0
3.86557039 0.88046811 0.5311699
3.84775343 1.09306612 0.0
3.6972184 1.43291518 0.52662148
3.6649767 1.20503552 1.056331
3.45067392 1.73555426 1.03956765
3.66017368 1.6134214 0.0
3.45971734 1.93776657 0.52480151
3.40260323 2.10292445 0.0
3.3756459 1.50015427 1.53445493
3.12081748 -0.32456741 2.48095833
3.12081748 0.32456741 2.48095833
2.81162812 0.0 2.84512694
3.0346092 0.9483453 2.4273006
2.77512191 0.64248814 2.80818578
-0.52480151 -3.45971734 1.93776657
-0.85209146 -3.17059692 2.28500664
0.0 -3.40260323 2.10292445
-2.77512191 -0.64248814 2.80818578
-2.28500664 -0.85209146 3.17059692
-2.46256808 -0.32434517 3.13537217
-1.73555426 -1.03956765 3.45067392
2.4273006 -3.0346092 -0.9483453
2.80818578 -2.77512191 -0.64248814
2.48095833 -3.12081748 -0.32456741
2.07703396 -3.36071154 -0.62573786
2.10292445 -3.40260323 0.0
2.84512694 -2.81162812 0.0
2.48095833 -3.12081748 0.32456741
0.53228441 -3.95075336 0.32896986
0.0 -3.96175553 0.55180897
0.5311699 -3.86557039 0.88046811
1.05146222 -3.80422607 0.64983939
0.0 -3.84775343 1.09306612
1.056331 -3.6649767 1.20503552
0.52662148 -3.6972184 1.43291518
0.0 -3.66017368 1.6134214
3.86557039 -0.88046811 -0.5311699
3.70245917 -1.41421356 -0.54018151
3.86557039 0.88046811 -0.5311699
3.13380679 2.06448648 1.38461206
3.16227766 2.28824561 0.87403205
2.58964758 1.18401837 2.80923939
-1.18401837 2.80923939 -2.58964758
-0.9483453 2.4273006 -3.0346092
-0.54018151 -3.70245917 1.41421356
-1.056331 -3.6649767 1.20503552
-1.53445493 -3.3756459 1.50015427
-0.5311699 -3.86557039 0.88046811
-3.12081748 -0.32456741 2.48095833
-2.82842712 0.0 2.82842712
2.80923939 -2.58964758 -1.18401837
0.0 2.10292445 -3.40260323
-0.32929432 1.59842821 -3.65192997
-0.62573786 2.07703396 -3.36071154
0.0 2.4823329 -3.13656235
0.629858 2.46040146 -3.09025946
0.62573786 2.07703396 -3.36071154
0.0 2.82842712 -2.82842712
-1.50015427 1.53445493 3.3756459
-2.06448648 1.38461206 3.13380679
-1.73555426 1.03956765 3.45067392
-2.35114101 1.70130162 2.75276384
-2.58964758 1.18401837 2.80923939
-2.28500664 0.85209146 3.17059692
-2.77512191 0.64248814 2.80818578
-2.82842713 1.48699214 2.40600382
-3.0346092 0.9483453 2.4273006
-3.23606798 1.23606798 2.0
-1.93776657 0.52480151 3.45971734
-2.46256808 0.32434517 3.13537217
3.45971734 -1.93776657 -0.52480151
3.6649767 -1.20503552 -1.056331
-1.5990763 2.58735979 2.59779219
-1.48699214 2.40600382 2.82842713
-1.07211773 2.62515937 2.82118802
-2.56636486 2.07333026 2.26165272
-1.77044919 0.27191538 3.57653068
-1.5800279 0.79245452 3.58824855
1.815962 1.8737194 3.03174168
-3.95075336 0.32896986 -0.53228441
-3.5640261 0.95470772 -1.54474954
-2.25701685 2.58631117 -2.05350177
-3.12081748 0.32456741 2.48095833
2.58631117 -2.05350177 -2.25701685
3.70245917 1.41421356 -0.54018151
-1.41421356 0.54018151 3.70245917
-1.25773456 0.27097294 3.78743679
-0.64983939 1.05146222 3.80422607
-1.09306612 0.0 3.84775343
2.28824561 0.87403205 3.16227766
0.32229334 2.82751178 -2.81092585
0.64248814 2.80818578 -2.77512191
0.9483453 2.4273006 -3.0346092
2.10292445 3.40260323 0.0
1.59842821 3.65192997 0.32929432
2.07703396 3.36071154 0.62573786
1.54474954 3.5640261 0.95470772
1.05146222 3.80422607 0.64983939
2.0 3.23606798 1.23606798
1.53445493 3.3756459 1.50015427
1.056331 3.6649767 1.20503552
1.03956765 3.45067392 1.73555426
-0.64248814 2.80818578 2.77512191
-0.32456741 2.48095833 3.12081748
0.0 2.84512694 2.81162812
0.0 2.10292445 3.40260323
0.32456741 2.48095833 3.12081748
-0.9483453 2.4273006 3.0346092
-0.62573786 2.07703396 3.36071154
-1.23606798 2.0 3.23606798
0.62573786 2.07703396 3.36071154
0.9483453 2.4273006 3.0346092
1.48699214 2.40600382 2.82842713
1.23606798 2.0 3.23606798
-2.10292445 0.0 -3.40260323
-2.46256808 -0.32434517 -3.13537217
-2.46256808 0.32434517 -3.13537217
-2.81162812 0.0 -2.84512694
-2.77512191 -0.64248814 -2.80818578
-2.77512191 0.64248814 -2.80818578
-3.12081748 -0.32456741 -2.48095833
-3.12081748 0.32456741 -2.48095833
-3.0346092 0.9483453 -2.4273006
-3.36071154 0.62573786 -2.07703396
-3.23606798 1.23606798 -2.0
-3.6972184 -1.43291518 -0.52662148
-3.86557039 -0.88046811 -0.5311699
-3.6649767 -1.20503552 -1.056331
-3.84775343 -1.09306612 0.0
-3.45067392 -1.73555426 -1.03956765
-3.45971734 -1.93776657 -0.52480151
-3.66017368 -1.6134214 0.0
-3.40260323 -2.10292445 0.0
-3.95075336 -0.32896986 -0.53228441
-3.96175553 -0.55180897 0.0
-4.0 0.0 0.0
-1.73555426 1.03956765 -3.45067392
-2.28500664 0.85209146 -3.17059692
-2.06448648 1.38461206 -3.13380679
-2.58964758 1.18401837 -2.80923939
-1.93776657 0.52480151 -3.45971734
-2.82842713 1.48699214 -2.40600382
-3.13537217 -2.46256808 -0.32434517
-3.13537217 -2.46256808 0.32434517
-2.84512694 -2.81162812 0.0
-2.80818578 -2.77512191 -0.64248814
-2.80818578 -2.77512191 0.64248814
-2.48095833 -3.12081748 -0.32456741
-2.48095833 -3.12081748 0.32456741
-1.03956765 -3.45067392 -1.73555426
-0.52662148 -3.6972184 -1.43291518
-1.056331 -3.6649767 -1.20503552
-0.5311699 -3.86557039 -0.88046811
0.0 -3.84775343 -1.09306612
-0.52480151 -3.45971734 -1.93776657
0.0 -3.66017368 -1.6134214
-3.45971734 -1.93776657 0.52480151
[...]
CELL_DATA 2494
SCALARS cell_data_0 double
LOOKUP_TABLE default
7.510716116e-09
1.06250395181e-08
4.96624720622e-09
4.81119110243e-09
2.93746065537e-09
5.54220211994e-10
2.28022272454e-09
1.41354830126e-09
8.2856691252e-09
3.58753684257e-09
1.64148524781e-09
4.68277845818e-09
1.33924079889e-09
4.3228397941e-09
5.13798748895e-09
2.01316049976e-09
2.66671260059e-09
1.46502111411e-09
4.83412411562e-09
4.41661025276e-09
9.82607543738e-10
2.32537971576e-09
1.41299011529e-09
2.78013547181e-09
2.476548115e-09
3.73087613554e-09
1.8849729308e-09
3.61491098516e-09
1.89515405634e-09
3.76837720259e-09
3.20822027809e-09
3.82459901932e-09
2.3390108337e-09
1.48216860186e-09
2.38033372358e-09
2.39380875049e-09
3.42097834488e-09
3.65765777317e-09
2.95503856212e-09
1.59686823637e-09
2.21869942831e-09
2.68059710779e-09
2.39935727612e-09
2.49640161435e-09
3.08044792288e-09
3.17620000346e-09
4.87794741562e-09
5.57670964452e-09
1.24461745381e-09
5.13675122449e-09
4.35774568378e-09
3.96562578858e-09
2.30481415404e-09
8.60018758373e-10
3.88612986764e-09
3.71231729808e-09
4.73462617989e-09
4.46916348055e-09
6.83764402648e-09
5.44193951535e-09
1.66269658283e-09
1.84520633321e-09
1.00723346256e-09
5.15985235381e-10
3.19606231225e-09
4.38813446647e-09
5.24587773401e-09
6.509809872e-10
3.1229287303e-09
5.61983600067e-09
6.41694271703e-09
4.70923341739e-09
4.17823042366e-09
3.22588719985e-09
1.8230233297e-09
1.62853577347e-09
2.0754375285e-09
1.16099444175e-09
2.61568051558e-09
2.05671177167e-10
1.46445798703e-09
2.29764466044e-11
1.37171360829e-10
2.12766519578e-10
1.42932673769e-10
5.62685349638e-10
1.43008029217e-09
2.1023398741e-09
6.69010934066e-10
4.44824711127e-09
2.94289938657e-09
2.70457214879e-09
4.59642647594e-09
2.65045214208e-09
2.9868834081e-09
3.22204678882e-09
3.61208156354e-09
3.21062214871e-09
4.49730658523e-09
3.84982568656e-09
2.285921514e-09
1.35827673375e-09
2.03880876514e-09
1.52063206497e-09
1.31696893073e-09
1.51002650254e-09
1.30570626686e-09
1.87604178456e-09
4.45175056249e-11
1.08093347612e-09
1.37014257464e-10
2.62925814319e-11
2.86490291246e-09
1.91093062998e-09
1.77624475072e-09
3.47221526708e-09
2.65103646944e-09
2.91449928347e-09
2.29654949195e-09
2.54970221629e-09
1.75778109656e-09
3.12796292901e-09
1.84635445796e-09
2.04168147426e-09
3.1782891516e-09
2.1786709868e-09
9.29243054885e-10
3.84306294427e-11
5.58777044e-10
1.59868606672e-09
3.43482473515e-11
4.12808511742e-10
3.50858504752e-10
2.46657937551e-10
5.94905124884e-10
9.13005509475e-11
2.94868287306e-10
3.13403367494e-09
9.13294273052e-10
1.73975466618e-12
5.96337837389e-10
2.80459946535e-10
3.59701240948e-10
2.43823258659e-09
6.35172512658e-10
3.91906847037e-09
8.67253232372e-10
8.47557192338e-10
1.70591321188e-09
4.17775961058e-10
2.86246591323e-09
4.12309048318e-10
2.94406179318e-09
7.24335358026e-11
2.62584233638e-09
2.34278642595e-09
1.58333841726e-09
2.06613484327e-09
4.32412921107e-09
1.18959564502e-09
1.84847276387e-10
8.5953405943e-10
7.23848179993e-10
2.97146683729e-11
2.96585817347e-09
2.03980569555e-09
2.46325756098e-09
1.16827183601e-09
7.02103118318e-10
1.0887760242e-09
3.72375868381e-09
1.21624788309e-09
9.42213687207e-10
5.94571237742e-09
5.61738160171e-09
8.19308179105e-09
5.7482318866e-09
5.26154577569e-09
2.41000602863e-09
1.2637788898e-09
4.77460097732e-09
3.33934446005e-10
7.47950129734e-10
1.32385748377e-09
7.31052390328e-10
8.20710001068e-09
7.84377034972e-09
5.66286183147e-09
3.5670099993e-09
1.42058429649e-09
2.16391273207e-09
7.419719046e-10
1.94859071223e-10
1.73368272e-09
1.02990287998e-08
1.02034629359e-08
1.45687085368e-09
2.7789989387e-09
1.35157137848e-09
9.31558313824e-11
2.44383788209e-09
2.40299479888e-09
6.61640434984e-09
7.3244206766e-09
6.90252375832e-09
6.16211579297e-09
6.6023299962e-09
5.31114538004e-09
1.35679548937e-09
1.83380539034e-09
1.58886867897e-09
2.77943208906e-09
5.9107210562e-09
3.04692783743e-09
4.13624185973e-09
1.92096416017e-09
1.71434614548e-09
7.55203209595e-10
1.35989800077e-09
1.88688171173e-09
4.6961135445e-10
5.7770569285e-10
8.20457825633e-09
2.72037871845e-09
2.66865126913e-09
3.50182074964e-10
3.89849056262e-09
1.10605976137e-09
8.61095143791e-09
1.04061357872e-08
3.80502698497e-10
1.29696084224e-08
3.21082988226e-09
8.66648326657e-10
1.60265890831e-09
9.70428260442e-10
3.96336782192e-09
5.50602361469e-09
5.60365354664e-09
4.91634938355e-09
5.22475791563e-09
6.17176451868e-09
6.48611628895e-09
2.65997707375e-09
3.24217708155e-10
3.51049390869e-09
5.41775568032e-09
7.13117036508e-09
3.4552473414e-10
8.92003545693e-09
2.63889505046e-09
1.74646902258e-08
2.38329955879e-09
1.31877064272e-09
4.02515605025e-09
3.19581505251e-09
8.42399131028e-09
1.73230480721e-09
5.40148974848e-09
5.80942566868e-09
6.65422914283e-09
4.3269265544e-09
1.36495695218e-09
4.47369437597e-09
3.81102389997e-09
6.36515259638e-09
5.69415223707e-09
4.65385751711e-09
4.8624319819e-09
3.71543507801e-09
3.63639430839e-09
7.5509180323e-09
3.01854361818e-09
3.72693132558e-09
9.01380448883e-09
6.2060673925e-09
4.7872165045e-09
4.15108510028e-09
8.3916021633e-09
4.62654264707e-09
6.74082526612e-09
6.91755381327e-09
5.79117209463e-09
1.09886292335e-09
8.78520876299e-10
1.33453712095e-08
7.84947664293e-09
9.03555605452e-09
7.65543707145e-09
7.338763317e-09
2.79464429721e-09
3.49324883418e-09
4.30788876482e-09
7.66790047802e-09
5.49834538811e-09
3.56962289154e-09
9.38575917933e-10
7.52509625283e-09
5.35591998682e-09
6.78249361739e-09
1.00299449761e-09
3.02562325053e-09
1.14176981225e-09
2.51777412889e-09
6.30288106802e-09
9.3991508611e-09
6.90571431199e-09
4.94493690508e-09
9.88431602987e-09
5.4277134122e-09
7.8300097417e-09
3.92234179502e-09
4.76877131965e-09
1.07090631808e-08
6.4166389536e-09
8.41544815327e-09
3.11081854013e-09
6.7255058423e-09
6.95910766995e-09
4.65064369392e-09
3.91033253298e-09
4.38457930692e-09
3.29616854607e-09
2.73093603752e-09
3.33267318082e-09
7.70813834586e-11
3.32858109333e-09
3.40139483725e-09
3.09491820087e-09
4.14155291573e-09
3.33834752778e-09
8.91493652787e-09
1.05031577308e-08
7.12987445895e-09
7.65690154891e-09
9.65584349074e-10
4.13836576492e-09
3.32582713206e-10
7.2725880579e-09
2.30977308699e-09
4.92299975077e-09
7.19393110113e-09
5.74311390324e-10
4.50253747915e-09
5.80332996099e-09
2.13900404232e-09
2.36854950834e-09
3.80202554648e-09
9.68586898711e-09
6.11743382106e-09
8.3438123106e-09
1.00624171493e-09
4.06338288842e-09
1.99380148161e-09
7.51412795009e-09
4.20939026685e-10
1.59651621402e-10
1.02491077626e-10
9.14136179155e-09
5.04570638437e-09
1.26838269253e-10
1.81165809452e-09
4.87645251561e-11
5.23690920492e-09
1.55636518127e-10
1.35089682349e-09
1.44209946403e-09
5.64857559954e-09
5.30313110977e-09
4.38927627066e-09
8.84330094155e-09
7.7663583191e-09
4.71795556472e-09
5.54583754027e-09
4.41395542102e-09
4.1819519431e-09
9.33536287208e-09
7.88934676765e-09
5.37798160374e-09
4.22580343351e-09
6.4119693758e-09
4.59979102689e-09
6.49951912801e-09
3.74168021171e-09
4.62969284449e-09
5.60557063544e-09
3.11466291032e-09
5.18953260233e-09
2.52164572917e-09
4.89110689515e-09
2.35431590855e-09
3.04028347162e-09
6.85526043284e-10
1.80500525113e-10
3.27925468067e-09
3.42073147153e-09
7.2507687368e-10
1.88856967509e-09
4.90862518903e-09
4.92015664089e-09
3.50210457343e-09
2.79994925782e-09
4.42447848422e-09
3.80426483988e-09
3.71045601765e-09
3.0365692216e-09
9.00535596533e-10
2.86558517538e-09
2.93645715385e-09
5.33975826388e-09
4.19905651498e-09
3.57739693305e-09
5.83765850029e-09
2.41429142885e-09
4.56024760133e-09
1.39362787823e-09
1.32142738593e-09
2.15638279696e-09
2.96303672903e-09
4.97832541068e-09
2.56176212188e-09
4.85318236706e-09
5.06807746441e-09
5.84282382403e-09
4.63187052414e-09
2.34973431836e-09
3.53913907255e-09
3.73511122317e-09
4.16460289181e-09
2.7562757334e-09
4.28035958137e-09
4.89713292058e-09
4.41750060938e-09
2.01199533183e-09
5.38913251008e-09
3.03100672053e-09
5.95284884303e-09
2.60842273744e-09
3.93611921157e-09
1.94150765475e-09
4.05545156512e-09
2.5039668702e-09
1.09655562259e-09
2.42367763049e-09
9.21603400798e-10
1.15141632611e-10
1.95894004339e-09
2.82757596358e-09
8.62168615013e-10
1.24023014323e-09
2.06073514487e-09
2.95100211589e-09
5.8049305687e-10
8.32202911825e-10
2.08087446572e-09
1.00871173983e-09
9.16772335763e-10
6.94101864604e-10
1.19731637403e-09
8.4471065908e-11
2.03762083906e-09
2.02050018858e-09
4.46419445959e-11
8.8132724814e-10
1.38831411357e-09
2.43126601289e-10
9.24929415752e-10
3.06699454386e-10
5.51038628673e-10
3.4613934664e-10
4.84761637941e-10
1.07787043872e-10
4.86869122568e-10
3.47299179346e-10
1.85411482236e-09
2.26595046542e-09
1.07308894174e-09
3.04929515073e-10
1.2445165465e-09
2.58090721498e-09
3.83317258524e-09
2.99360582921e-09
9.63061907244e-10
1.52422928544e-09
3.27093133156e-09
3.89776149741e-10
3.12257593177e-09
4.97451314959e-10
2.38689651123e-09
1.93264546125e-09
3.2040279167e-10
2.24724564787e-10
5.72571301306e-10
7.02017140906e-10
8.55737291584e-11
2.99261414027e-09
1.29519143026e-09
2.9063563313e-10
2.1473981265e-09
1.10875255768e-09
7.0603851244e-10
1.04002842997e-09
6.96389174032e-10
3.07074743756e-09
2.11327368911e-09
4.34143521373e-09
1.09093066533e-09
5.38304450722e-10
1.62919900282e-09
9.20969633364e-10
1.80995652741e-09
2.30376274327e-09
9.82457190912e-10
1.73031838657e-09
2.40141946019e-09
1.03179522272e-09
2.3261327211e-09
2.24659349521e-09
1.76070021138e-09
1.51323708583e-10
1.93411251987e-09
1.17384513976e-09
3.04240375364e-09
1.61157320786e-09
8.41941196991e-10
2.2156915564e-09
2.80873350526e-09
3.33792627342e-09
1.64213658605e-09
2.52222864243e-10
3.165542944e-09
3.63816674293e-09
8.13092489035e-09
2.09935134804e-08
1.04293407258e-09
5.22353677501e-10
1.51836680614e-09
8.35675478576e-10
5.19641142786e-10
3.064290359e-09
4.37274544026e-10
2.83938362774e-09
3.84308401793e-10
1.63892080781e-09
2.44190786702e-09
9.4300752554e-10
4.86749923653e-09
2.00380800766e-09
1.75368153642e-10
3.83547327403e-10
8.98469085026e-10
7.49825926004e-11
1.11047620772e-09
9.41164039275e-10
8.58543310236e-11
1.20741464567e-09
1.10367596683e-09
3.17089399044e-10
8.33032399843e-10
1.49144364174e-09
3.00332795971e-09
3.07485504079e-09
1.03274755285e-09
9.60357659076e-10
2.75733809068e-09
3.21139695563e-10
2.47946316043e-09
2.38119584744e-09
1.00511266567e-08
3.42300312461e-09
8.04017337778e-10
4.0930174474e-10
1.47919009525e-09
4.82174637291e-09
1.36461312637e-10
1.45299356376e-09
1.17611348723e-09
8.73040101177e-10
3.07139478766e-09
4.54589450742e-10
1.65543664422e-09
2.61030875536e-09
1.27007582224e-09
1.479268999e-09
2.0445975768e-10
2.82864073324e-10
1.82706898442e-10
1.78780815428e-09
4.07310665241e-10
1.02079778714e-09
1.40478525741e-10
4.07654605172e-11
1.36985265069e-09
3.21060879349e-10
1.54524027292e-09
1.16439293766e-09
2.0623173022e-10
2.37147237773e-09
5.62122974877e-11
1.46186216965e-09
7.41430872856e-11
4.73855894532e-11
1.56077785271e-10
1.45705177174e-09
2.41581715161e-09
2.90620086044e-09
2.40792330898e-09
1.52961665297e-09
2.73672739909e-09
8.79302760589e-11
9.29662622372e-10
6.36491344557e-10
1.77419602827e-10
2.85872799362e-10
4.95109140242e-10
1.75175742211e-10
7.94414339683e-10
6.24901083176e-11
3.46679749997e-09
1.77662191422e-09
2.54347124496e-09
3.39895941159e-09
5.72230955535e-09
3.05346796049e-09
7.13986604965e-10
6.24440681876e-10
1.56663594957e-09
1.33248205717e-09
1.30522892954e-09
1.42486482065e-09
1.30709602811e-09
1.57584834132e-09
3.54135664233e-10
1.67721568304e-10
6.77567554399e-10
2.46504162544e-09
7.57161336081e-10
1.86459856611e-09
6.12162711852e-10
1.02809391727e-09
6.54240831696e-10
4.99132207799e-10
6.92609109462e-10
2.53758439886e-09
1.01602401566e-09
1.78282051123e-09
1.30337474867e-09
4.12903466228e-10
6.7366363592e-10
3.5225351371e-10
8.97477118869e-10
4.34391448757e-09
5.98447151903e-09
1.53405100121e-09
3.84240619401e-09
4.15133938194e-10
1.67185938474e-09
1.71307290754e-10
1.16787845668e-09
3.27658743684e-10
6.16467446074e-10
4.32689053004e-11
9.00098137171e-10
8.06655850646e-10
9.73275554282e-11
1.09842860571e-09
1.87194459204e-10
2.00778984142e-10
6.12238554601e-10
5.53910391609e-10
9.5434175926e-10
2.20543754961e-09
2.97608985511e-09
2.95438132684e-09
3.70737021736e-09
1.95688577469e-09
2.26381946817e-09
1.30351841052e-09
3.57047460693e-09
2.73916943369e-09
2.91911958941e-09
3.58986198362e-09
3.93755751057e-09
4.76542342279e-09
2.56802837234e-09
3.22997323686e-09
3.37119313984e-09
2.47237719139e-09
1.28139133654e-09
4.27504699059e-09
1.43417737384e-09
1.48710726035e-10
4.21581955351e-09
6.87749638247e-10
2.39964140128e-09
2.43138685574e-09
2.44153699822e-09
2.54484434837e-09
3.3947822376e-09
9.37631156422e-10
2.02143114007e-09
2.53937186341e-09
3.7108755254e-09
5.11709471277e-10
2.21875340643e-10
3.6403906308e-09
5.33417284468e-09
2.49318329413e-09
2.68116530571e-09
3.36997004582e-09
1.29699712607e-09
4.79818013396e-10
2.47381913104e-09
3.94745901284e-09
7.45155887091e-10
3.07733008489e-10
3.21166742734e-09
6.91041381831e-10
8.80061216854e-10
1.92740017962e-09
3.08771066746e-10
1.1805084967e-08
1.12366830128e-09
1.05589564889e-09
1.45894741556e-08
2.3682780148e-09
4.62999365033e-09
4.05540806757e-09
6.650218107e-09
4.55914017411e-09
3.4197201408e-09
3.91670472575e-09
5.24598185763e-11
8.91613398676e-10
2.960711206e-09
2.67534552485e-09
1.94558183343e-09
2.30361271686e-09
3.7054638501e-09
1.70574948521e-09
1.47584905724e-09
2.9386307333e-09
3.08393886239e-09
4.58521517532e-10
2.89936009642e-10
2.61662023964e-09
1.25990813681e-09
9.86477283959e-09
4.44058053687e-10
1.6922571099e-09
6.53763990843e-10
7.09091005699e-10
7.84476288839e-09
3.92493319769e-09
7.70772117511e-10
3.71754023314e-10
7.20122179451e-10
1.01002306077e-09
1.42684818876e-09
5.33354278934e-10
2.48933351646e-09
4.6916963287e-09
2.26528919647e-09
1.02427276173e-09
8.4355653513e-10
9.84738510789e-10
1.61662165487e-09
2.7078307597e-09
3.34005252466e-09
1.09228243715e-08
1.01131702749e-10
2.99620644487e-09
9.80198677916e-09
8.60646767952e-09
9.85425853974e-10
1.56986898274e-09
8.04542243233e-09
7.01613749688e-09
2.08700009383e-09
3.23362186919e-10
1.04638688379e-08
3.05356211934e-09
1.02511011412e-08
1.55846710335e-09
2.06500593998e-09
1.01105118347e-08
2.735430523e-09
4.73860992753e-09
8.7744589396e-10
1.48066230122e-09
1.31476100734e-09
2.19227740067e-09
2.89634655021e-09
3.94894774821e-10
2.45757526289e-09
2.86212523326e-10
3.58510186501e-10
1.93630080271e-09
2.81847560177e-10
1.35430151884e-09
6.03672026305e-10
1.4609304066e-09
3.08839140644e-09
2.57522674248e-09
1.7631492987e-09
2.86081934958e-09
1.9316095108e-09
2.66817607252e-09
1.13350208752e-09
1.50645548041e-09
1.22750622983e-09
6.29366241862e-11
2.53675173134e-10
9.04832433823e-10
1.7977472942e-10
5.24443580057e-10
1.66894201817e-09
2.16024098661e-10
3.87503530626e-11
2.13949765004e-09
2.57149921514e-09
2.40364243105e-09
2.18639029345e-09
2.73715332052e-09
3.19937574351e-09
2.56945157362e-09
1.29044642679e-09
7.23119225421e-10
1.2714307143e-09
3.25118357112e-10
1.06432475169e-09
6.80728953947e-10
2.29984673636e-10
2.0222466904e-10
2.34196321683e-09
5.73191903639e-10
5.02440972102e-10
1.65660167524e-09
5.13458981396e-10
2.72361883367e-10
1.27201099052e-09
1.91775385533e-09
2.9505847725e-09
1.05663144451e-09
2.7994532236e-09
3.16310923307e-09
4.46185058428e-10
1.87521374289e-10
3.26487285095e-10
4.99221919623e-11
6.56083250604e-10
6.59267613614e-10
1.33249867114e-09
6.58485103733e-10
1.49427906452e-09
6.19220450223e-10
2.04352005091e-10
5.45343067962e-10
1.82882124615e-09
5.78133255689e-11
3.87415335675e-11
9.4980052826e-10
1.07062140352e-09
2.65573934397e-09
2.98487608705e-10
7.15601593635e-10
2.32030733353e-09
6.56502058437e-10
6.97093299857e-11
1.43841060771e-09
1.88284853533e-10
5.72213337072e-10
2.46442312674e-09
1.85123411065e-09
1.92346933138e-10
3.67576940705e-09
1.78166909999e-09
5.26830700824e-10
4.24362801242e-09
1.28195633384e-10
4.75611993029e-10
9.44033592874e-10
1.25183119426e-09
2.63798801284e-09
2.36190229076e-09
3.31179272552e-09
1.12279950287e-09
1.34530581035e-09
4.96085918833e-09
3.74056144335e-10
1.90034421042e-09
5.04843603008e-10
1.7377578184e-09
2.88656970017e-09
1.78152339822e-09
1.66402446894e-09
1.00679373952e-10
1.19198270759e-09
8.24771895744e-10
3.05579133516e-10
2.75255928511e-11
8.30552519438e-10
3.87339588239e-10
4.57160246893e-10
1.59841365138e-09
3.18212532671e-09
4.54639700639e-09
2.69813182436e-10
1.35379632819e-09
2.40266081516e-10
7.54298183782e-10
1.39497140888e-09
1.09472774211e-10
3.96576193032e-10
7.64221457246e-10
1.11122952839e-09
3.5374973134e-10
7.65258076854e-10
2.87523617854e-09
2.4228181617e-09
2.38712638922e-09
1.79071679978e-09
1.34914989648e-10
2.2906634042e-09
7.71218634314e-10
3.93087753186e-10
7.94544946539e-11
6.60868389457e-10
2.58737026006e-10
5.44260586797e-10
7.90493345422e-10
1.01007570033e-09
1.53862601712e-09
9.69553211866e-10
1.95883215142e-09
1.13753619465e-09
3.65332181091e-12
1.93315510919e-10
1.39329474652e-09
2.1649594869e-09
3.39788680453e-09
2.38184353643e-09
2.77946336512e-09
2.33668173211e-09
2.53795153612e-09
9.38107095123e-10
8.74856213275e-10
1.61209450356e-09
1.39036521848e-09
6.7671923041e-10
4.87451619215e-12
2.29906631179e-09
2.38799516135e-09
3.6664551288e-11
6.52812061072e-10
3.00672565444e-10
1.05666883983e-09
4.99331228718e-10
2.50647451726e-09
6.40953943947e-10
1.22105249056e-09
5.17616589839e-09
1.10093238199e-09
2.5307529326e-09
3.40816341449e-09
1.24092402459e-09
1.87655611698e-09
2.64345683126e-09
3.92030181509e-09
2.67841804864e-09
1.9487145143e-09
1.92669407753e-09
2.66265036946e-09
2.81983122271e-10
1.56997076394e-10
1.76102192833e-09
2.57130110361e-09
2.77359435085e-09
4.31527673414e-09
3.48224547069e-09
2.08325711312e-09
1.29166725249e-09
5.116344464e-10
3.38272909121e-10
1.1389013865e-09
5.82486907335e-09
2.51623027289e-09
7.55125291119e-10
8.43168334801e-10
4.22844001062e-09
1.33832524725e-09
2.88195791428e-10
2.94835348956e-10
6.56576498791e-10
2.58616288949e-09
1.34239906655e-09
1.93062045663e-09
2.84347395511e-09
5.57567423849e-10
3.55620662173e-09
2.79743052308e-09
1.15723885531e-09
3.4484215611e-09
8.31968747602e-10
1.0756336937e-09
1.79612421002e-09
1.65402855494e-09
2.79306370733e-09
2.07730683287e-09
3.24562573579e-09
3.38797332533e-09
6.49582767848e-09
1.24658751683e-09
1.60212837087e-09
2.15977898519e-09
1.00407324379e-09
1.87710965788e-09
4.29257601668e-10
1.53215098894e-09
1.7865880635e-09
1.19666498477e-09
2.08605101346e-09
6.68303297633e-10
7.17655705894e-10
7.4981518268e-10
4.20102780386e-10
1.09164613022e-09
2.68090158132e-09
2.99844562755e-09
4.34593306908e-09
7.2006839566e-09
1.50260303573e-09
6.53711911327e-10
3.13977109635e-09
4.01655501569e-09
1.82169118373e-09
3.32559503374e-09
2.26352419197e-09
3.13264617619e-09
3.74518948538e-09
4.53901373418e-10
1.43681194181e-10
4.9107998969e-09
1.91571744498e-09
1.94456028865e-09
1.5775146792e-09
4.68490838992e-09
3.14927270555e-09
1.40451980655e-09
5.7487364773e-10
2.70550978446e-10
5.11688690236e-10
3.12148880273e-09
1.14821081982e-09
4.27756276999e-09
4.99901849202e-09
4.64786206835e-09
3.18072957785e-09
1.02923336114e-09
6.59106545887e-09
4.84473991221e-09
4.36911949661e-09
2.29052123582e-09
2.1221079651e-10
3.70714852236e-10
5.65788671195e-11
3.27387943687e-10
8.31728956675e-10
8.86500518219e-10
7.19958550793e-09
7.86625122441e-11
3.24589847095e-10
7.64419584933e-10
1.36727218975e-09
7.10156988909e-12
1.47660945887e-09
6.09232031726e-10
9.65009684883e-10
2.79993340045e-10
2.4904982985e-11
5.3400982096e-10
1.86519175124e-09
2.74387401434e-09
2.43184092808e-09
1.04880131012e-09
2.75033351909e-09
5.73679816639e-10
4.16023193644e-10
6.23748186179e-10
3.62185218489e-10
5.87306480439e-10
1.49093210864e-09
9.62488452586e-10
1.26112876337e-09
4.8658906638e-10
1.78058040226e-11
1.98193107584e-10
3.18684239346e-09
3.32400913705e-10
6.05832829114e-10
1.3998304812e-09
1.37378209309e-09
6.64962299395e-10
6.45949130223e-10
1.09978212091e-09
2.95323629805e-10
1.47575236415e-10
1.75367376839e-09
1.66756968687e-09
4.07234348032e-10
7.78540358912e-10
5.66350364758e-10
8.80541626514e-10
7.12439980703e-11
2.86090950969e-10