# vtk DataFile Version 3.0
File Name: Molecule/sphere_cent/sphere_cent_0-s9.vtk
ASCII
DATASET UNSTRUCTURED_GRID
FIELD FieldData 1
TIME 1 1 double
0.0
POINTS 96 double
3.40260323 -2.10292445 0.0
3.23606798 -1.23606798 -2.0
4.0 0.0 0.0
3.23606798 1.23606798 -2.0
2.10292445 0.0 -3.40260323
3.40260323 2.10292445 0.0
2.0 3.23606798 -1.23606798
1.23606798 2.0 -3.23606798
0.0 3.40260323 -2.10292445
2.0 3.23606798 1.23606798
0.0 4.0 0.0
0.0 3.40260323 2.10292445
-2.0 3.23606798 1.23606798
-2.0 3.23606798 -1.23606798
-3.40260323 2.10292445 0.0
1.23606798 -2.0 -3.23606798
0.64983939 -1.05146222 -3.80422607
0.0 0.0 -4.0
0.0 -2.10292445 -3.40260323
-0.64983939 -1.05146222 -3.80422607
-1.23606798 -2.0 -3.23606798
0.0 -3.40260323 -2.10292445
-2.10292445 0.0 -3.40260323
2.75276384 2.35114101 1.70130162
3.23606798 1.23606798 2.0
1.70130162 2.75276384 2.35114101
2.35114101 1.70130162 2.75276384
1.23606798 2.0 3.23606798
2.10292445 0.0 3.40260323
0.64983939 1.05146222 -3.80422607
-0.64983939 1.05146222 -3.80422607
0.0 2.10292445 -3.40260323
-1.23606798 2.0 -3.23606798
-1.70130162 2.75276384 -2.35114101
-2.35114101 1.70130162 -2.75276384
-2.75276384 2.35114101 -1.70130162
-3.23606798 1.23606798 -2.0
2.0 -3.23606798 -1.23606798
1.05146222 -3.80422607 -0.64983939
0.0 -4.0 0.0
2.10292445 -3.40260323 0.0
1.05146222 -3.80422607 0.64983939
2.0 -3.23606798 1.23606798
0.0 -3.40260323 2.10292445
2.35114101 -1.70130162 -2.75276384
2.75276384 -2.35114101 -1.70130162
1.70130162 -2.75276384 -2.35114101
-2.0 -3.23606798 -1.23606798
-2.10292445 -3.40260323 0.0
-3.40260323 -2.10292445 0.0
-2.0 -3.23606798 1.23606798
-1.05146222 -3.80422607 -0.64983939
-1.05146222 -3.80422607 0.64983939
-2.75276384 -2.35114101 1.70130162
-3.23606798 -1.23606798 2.0
-1.70130162 -2.75276384 2.35114101
-2.35114101 -1.70130162 2.75276384
-1.23606798 -2.0 3.23606798
-2.10292445 0.0 3.40260323
3.80422607 -0.64983939 1.05146222
3.80422607 0.64983939 1.05146222
3.40260323 0.0 2.10292445
3.23606798 -1.23606798 2.0
-3.23606798 1.23606798 2.0
-3.40260323 0.0 2.10292445
-3.80422607 0.64983939 1.05146222
-3.80422607 -0.64983939 1.05146222
-4.0 0.0 0.0
-2.35114101 -1.70130162 -2.75276384
-3.23606798 -1.23606798 -2.0
-1.70130162 -2.75276384 -2.35114101
-2.75276384 -2.35114101 -1.70130162
-3.40260323 0.0 -2.10292445
-3.80422607 -0.64983939 -1.05146222
-3.80422607 0.64983939 -1.05146222
-3.45067392 1.73555426 -1.03956765
-3.84775343 1.09306612 0.0
1.23606798 -2.0 3.23606798
2.35114101 -1.70130162 2.75276384
1.70130162 -2.75276384 2.35114101
2.75276384 -2.35114101 1.70130162
3.45067392 -1.73555426 1.03956765
2.80818578 -2.77512191 0.64248814
-0.64983939 -1.05146222 3.80422607
0.0 0.0 4.0
0.0 -2.10292445 3.40260323
0.64983939 -1.05146222 3.80422607
-0.64248814 -2.80818578 2.77512191
0.64248814 -2.80818578 2.77512191
-1.70130162 2.75276384 2.35114101
-1.23606798 2.0 3.23606798
-2.75276384 2.35114101 1.70130162
-2.35114101 1.70130162 2.75276384
0.0 2.10292445 3.40260323
-0.64983939 1.05146222 3.80422607
0.64983939 1.05146222 3.80422607

CELLS 188 752
3 0 1 2
3 1 3 2
3 1 4 3
3 2 3 5
3 5 3 6
3 3 7 6
3 3 4 7
3 6 7 8
3 5 6 9
3 6 10 9
3 6 8 10
3 9 10 11
3 11 10 12
3 10 13 12
3 10 8 13
3 12 13 14
3 15 16 4
3 4 16 17
3 15 18 16
3 18 19 16
3 18 20 19
3 16 19 17
3 20 18 21
3 21 18 15
3 17 19 22
3 19 20 22
3 9 23 5
3 5 23 24
3 9 25 23
3 25 26 23
3 25 27 26
3 23 26 24
3 27 25 11
3 11 25 9
3 24 26 28
3 26 27 28
3 17 29 4
3 4 29 7
3 17 30 29
3 30 31 29
3 30 32 31
3 29 31 7
3 32 30 22
3 22 30 17
3 7 31 8
3 31 32 8
3 32 33 8
3 8 33 13
3 32 34 33
3 34 35 33
3 34 36 35
3 33 35 13
3 36 34 22
3 22 34 32
3 13 35 14
3 37 38 21
3 21 38 39
3 37 40 38
3 40 41 38
3 40 42 41
3 38 41 39
3 0 40 37
3 39 41 43
3 41 42 43
3 1 44 4
3 4 44 15
3 1 45 44
3 45 46 44
3 45 37 46
3 44 46 15
3 37 45 0
3 0 45 1
3 15 46 21
3 46 37 21
3 47 48 49
3 49 48 50
3 47 51 48
3 51 52 48
3 51 39 52
3 48 52 50
3 39 51 21
3 21 51 47
3 50 52 43
3 52 39 43
3 50 53 49
3 49 53 54
3 50 55 53
3 55 56 53
3 55 57 56
3 53 56 54
3 43 55 50
3 54 56 58
3 56 57 58
3 2 59 0
3 2 60 59
3 60 61 59
3 60 24 61
3 59 61 62
3 24 60 5
3 5 60 2
3 62 61 28
3 61 24 28
3 63 64 58
3 58 64 54
3 63 65 64
3 65 66 64
3 65 67 66
3 64 66 54
3 14 65 63
3 54 66 49
3 66 67 49
3 20 68 22
3 22 68 69
3 20 70 68
3 70 71 68
3 70 47 71
3 68 71 69
3 47 70 21
3 21 70 20
3 69 71 49
3 71 47 49
3 69 72 22
3 22 72 36
3 69 73 72
3 73 74 72
3 73 67 74
3 72 74 36
3 67 73 49
3 49 73 69
3 36 74 75
3 74 76 75
3 74 67 76
3 75 76 14
3 36 75 35
3 35 75 14
3 14 76 65
3 65 76 67
3 77 78 28
3 28 78 62
3 77 79 78
3 79 80 78
3 79 42 80
3 78 80 62
3 42 79 43
3 62 80 81
3 80 82 81
3 80 42 82
3 81 82 0
3 0 82 40
3 40 82 42
3 62 81 59
3 59 81 0
3 57 83 58
3 58 83 84
3 57 85 83
3 85 86 83
3 85 77 86
3 83 86 84
3 57 87 85
3 87 88 85
3 87 43 88
3 85 88 77
3 84 86 28
3 86 77 28
3 43 87 55
3 55 87 57
3 77 88 79
3 79 88 43
3 12 89 11
3 11 89 90
3 12 91 89
3 91 92 89
3 91 63 92
3 89 92 90
3 63 91 14
3 14 91 12
3 90 92 58
3 92 63 58
3 90 93 11
3 11 93 27
3 90 94 93
3 94 95 93
3 94 84 95
3 93 95 27
3 84 94 58
3 58 94 90
3 27 95 28
3 95 84 28

CELL_TYPES 188
5
5
5
5
5
5
5
5
5
5
5
5
5
5
5
5
5
5
5
5
5
5
5
5
5
5
5
5
5
5
5
5
5
5
5
5
5
5
5
5
5
5
5
5
5
5
5
5
5
5
5
5
5
5
5
5
5
5
5
5
5
5
5
5
5
5
5
5
5
5
5
5
5
5
5
5
5
5
5
5
5
5
5
5
5
5
5
5
5
5
5
5
5
5
5
5
5
5
5
5
5
5
5
5
5
5
5
5
5
5
5
5
5
5
5
5
5
5
5
5
5
5
5
5
5
5
5
5
5
5
5
5
5
5
5
5
5
5
5
5
5
5
5
5
5
5
5
5
5
5
5
5
5
5
5
5
5
5
5
5
5
5
5
5
5
5
5
5
5
5
5
5
5
5
5
5
5
5
5
5
5
5
5
5
5
5
5
5

CELL_DATA 188
SCALARS cell_data_0 double
LOOKUP_TABLE default
2.24670746593e-07
8.36880784846e-07
2.04657792455e-07
3.11076378613e-07
5.94057919447e-07
1.90320479399e-06
7.85717576598e-07
9.35063189095e-07
8.97550690467e-07
2.12746782452e-06
8.42093965672e-07
9.52678549233e-07
1.14275295181e-06
2.35103757804e-06
9.56126924409e-07
1.11819804639e-06
1.01504216516e-07
5.82757377943e-08
2.29733776341e-07
1.65596272896e-07
1.53031796751e-07
7.2973627612e-08
1.66500687587e-07
1.6182745395e-07
9.96325106043e-08
1.37496477398e-07
5.60410559537e-08
1.14364042824e-07
1.12299853717e-07
2.83894642998e-08
9.73621766548e-08
1.68487499779e-07
1.48584787496e-07
6.44073114398e-08
4.00960811562e-08
1.16724936959e-07
1.41602789338e-07
7.9410372732e-08
2.23809774189e-07
2.38955491295e-07
3.52082676806e-07
1.31049001844e-07
3.05262844585e-07
2.31356080495e-07
7.2076489651e-08
7.74582403803e-08
4.21676936258e-08
6.06455480735e-08
9.68579238918e-08
1.97882382057e-08
3.47312312294e-08
1.26937570385e-07
3.55170913997e-08
1.71758023501e-08
1.62543715899e-08
7.18132088698e-08
1.65659643996e-07
1.23045750399e-07
4.96629454218e-08
1.97833513716e-07
1.93203902609e-07
2.21604279797e-07
9.30866923668e-08
7.74680016901e-08
3.0260719322e-07
1.1641759213e-07
4.8721374141e-07
1.69497833529e-07
2.03024345279e-07
3.63135791848e-08
1.04474018466e-07
4.88619698515e-07
1.39140885201e-07
8.22677087826e-08
3.37098093315e-08
9.86603975589e-08
1.13817967071e-07
1.05883235732e-08
1.75814471535e-07
6.45620422724e-08
8.11665453193e-08
9.86596717748e-08
1.54902972073e-07
4.10939071726e-08
6.65367672833e-08
6.65286872627e-08
1.19723387863e-07
5.32521972903e-08
1.07979950186e-08
1.21518713431e-07
2.680719656e-07
2.15097785193e-07
2.48154410852e-07
1.6639721329e-07
3.10875355609e-07
3.00892327559e-08
1.68216857866e-07
9.91510868081e-08
1.38089659113e-08
2.48937210972e-07
7.63594359001e-08
6.65035994845e-08
1.72750046595e-07
1.16138266635e-07
2.88239726398e-07
4.19946911859e-08
1.36987368622e-08
1.07605321074e-07
8.20490308165e-08
5.89440101268e-08
1.06121482764e-07
8.19472151817e-08
8.82882330797e-08
4.57909418133e-08
1.37656319533e-08
1.24469704577e-07
2.24422893924e-08
9.04025129306e-08
7.18488390377e-08
1.12052741963e-07
5.53825083878e-08
1.6368592561e-07
1.06397409042e-07
5.48450166695e-08
7.01823430992e-08
2.36237385262e-08
2.69333623419e-08
1.77104376893e-07
1.63499428741e-07
8.66117917235e-08
6.52795619846e-08
3.64989432174e-08
2.25819174331e-07
6.27251930546e-08
1.21723968983e-07
1.16586286295e-07
1.55584117836e-08
2.08777256646e-07
9.95019797837e-08
2.8769431388e-08
1.21684547059e-07
9.86413709522e-08
2.68475619006e-08
4.92475932673e-08
5.45790172117e-08
3.1576894421e-08
1.86996158681e-07
2.4589249801e-07
1.42889726237e-07
2.39190427451e-07
1.12902118341e-07
9.97944862735e-08
2.59327831181e-07
1.05223713341e-07
9.66982899831e-09
6.89476429547e-08
2.05974135548e-08
6.87020503256e-08
2.6174923912e-08
4.48328426463e-08
1.03673114851e-07
1.28091719341e-08
1.45358011816e-07
2.56873442613e-07
3.44616055746e-08
2.29790807878e-08
1.39640832764e-08
2.23753701683e-08
5.50527852861e-08
2.83335507446e-07
1.08986262737e-07
3.32867860249e-08
2.00542624877e-07
3.0107086827e-07
8.64147081093e-08
1.15283430374e-07
7.24455066212e-08
7.2220995253e-08
1.63981313962e-07
1.47376288521e-07
2.18237410051e-07
2.15176900082e-08
1.19068913391e-07
2.84075210455e-08
9.23289017468e-08
6.26072008258e-08
2.21785638199e-07
7.30758017652e-08

