# vtk DataFile Version 3.0
File Name: Molecule/sphere_cent/sphere_cent_0-s5.vtk
ASCII
DATASET UNSTRUCTURED_GRID
FIELD FieldData 1
TIME 1 1 double
0.0
POINTS 84 double
0.85065081 -0.52573111 0.0
0.80901699 -0.30901699 -0.5
1.0 0.0 0.0
0.80901699 0.30901699 -0.5
0.52573111 0.0 -0.85065081
0.85065081 0.52573111 0.0
0.30901699 -0.5 -0.80901699
0.0 0.0 -1.0
-0.30901699 -0.5 -0.80901699
0.0 -0.85065081 -0.52573111
-0.52573111 0.0 -0.85065081
-0.80901699 -0.30901699 -0.5
-0.80901699 0.30901699 -0.5
-1.0 0.0 0.0
-0.85065081 -0.52573111 0.0
-0.85065081 0.52573111 0.0
-0.52573111 0.0 0.85065081
-0.80901699 0.30901699 0.5
-0.80901699 -0.30901699 0.5
-0.5 -0.80901699 -0.30901699
0.5 -0.80901699 -0.30901699
0.68819096 0.58778525 -0.4253254
0.5 0.80901699 -0.30901699
0.58778525 0.4253254 -0.68819096
0.4253254 0.68819096 -0.58778525
0.30901699 0.5 -0.80901699
0.0 0.85065081 -0.52573111
0.5 0.80901699 0.30901699
0.68819096 0.58778525 0.4253254
0.80901699 0.30901699 0.5
0.4253254 0.68819096 0.58778525
0.58778525 0.4253254 0.68819096
0.30901699 0.5 0.80901699
0.0 0.85065081 0.52573111
0.52573111 0.0 0.85065081
-0.30901699 0.5 -0.80901699
-0.4253254 0.68819096 -0.58778525
-0.5 0.80901699 -0.30901699
-0.58778525 0.4253254 -0.68819096
-0.68819096 0.58778525 -0.4253254
0.26286556 -0.95105652 -0.16245985
0.0 -1.0 0.0
0.52573111 -0.85065081 0.0
0.26286556 -0.95105652 0.16245985
0.5 -0.80901699 0.30901699
0.0 -0.85065081 0.52573111
0.52573111 0.85065081 0.0
0.26286556 0.95105652 -0.16245985
0.26286556 0.95105652 0.16245985
0.0 1.0 0.0
-0.52573111 -0.85065081 0.0
-0.5 -0.80901699 0.30901699
-0.26286556 -0.95105652 -0.16245985
-0.26286556 -0.95105652 0.16245985
0.16245985 0.26286556 -0.95105652
-0.16245985 0.26286556 -0.95105652
0.0 0.52573111 -0.85065081
-0.26286556 0.95105652 0.16245985
-0.5 0.80901699 0.30901699
-0.26286556 0.95105652 -0.16245985
-0.52573111 0.85065081 0.0
-0.30901699 0.5 0.80901699
0.0 0.52573111 0.85065081
-0.16245985 0.26286556 0.95105652
0.16245985 0.26286556 0.95105652
0.0 0.0 1.0
0.30901699 -0.5 0.80901699
0.58778525 -0.4253254 0.68819096
0.80901699 -0.30901699 0.5
0.4253254 -0.68819096 0.58778525
0.68819096 -0.58778525 0.4253254
-0.68819096 -0.58778525 0.4253254
-0.4253254 -0.68819096 0.58778525
-0.58778525 -0.4253254 0.68819096
-0.30901699 -0.5 0.80901699
-0.4253254 0.68819096 0.58778525
-0.68819096 0.58778525 0.4253254
-0.58778525 0.4253254 0.68819096
-0.16245985 -0.26286556 0.95105652
0.0 -0.52573111 0.85065081
0.16245985 -0.26286556 0.95105652
0.95105652 -0.16245985 0.26286556
0.95105652 0.16245985 0.26286556
0.85065081 0.0 0.52573111

CELLS 164 656
3 0 1 2
3 1 3 2
3 1 4 3
3 2 3 5
3 4 6 7
3 6 8 7
3 6 9 8
3 7 8 10
3 10 11 12
3 11 13 12
3 11 14 13
3 12 13 15
3 16 17 18
3 17 13 18
3 17 15 13
3 18 13 14
3 10 8 11
3 8 19 11
3 8 9 19
3 11 19 14
3 4 1 6
3 1 20 6
3 1 0 20
3 6 20 9
3 3 21 5
3 5 21 22
3 3 23 21
3 23 24 21
3 23 25 24
3 21 24 22
3 25 23 4
3 4 23 3
3 22 24 26
3 24 25 26
3 27 28 5
3 5 28 29
3 27 30 28
3 30 31 28
3 30 32 31
3 28 31 29
3 32 30 33
3 33 30 27
3 29 31 34
3 31 32 34
3 35 36 26
3 26 36 37
3 35 38 36
3 38 39 36
3 38 12 39
3 36 39 37
3 12 38 10
3 10 38 35
3 37 39 15
3 39 12 15
3 20 40 9
3 9 40 41
3 20 42 40
3 42 43 40
3 42 44 43
3 40 43 41
3 44 42 0
3 0 42 20
3 41 43 45
3 43 44 45
3 22 46 5
3 5 46 27
3 22 47 46
3 47 48 46
3 47 49 48
3 46 48 27
3 49 47 26
3 26 47 22
3 27 48 33
3 48 49 33
3 19 50 14
3 14 50 51
3 19 52 50
3 52 53 50
3 52 41 53
3 50 53 51
3 41 52 9
3 9 52 19
3 51 53 45
3 53 41 45
3 7 54 4
3 4 54 25
3 7 55 54
3 55 56 54
3 55 35 56
3 54 56 25
3 35 55 10
3 10 55 7
3 25 56 26
3 56 35 26
3 49 57 33
3 33 57 58
3 49 59 57
3 59 60 57
3 59 37 60
3 57 60 58
3 37 59 26
3 26 59 49
3 58 60 15
3 60 37 15
3 61 62 33
3 33 62 32
3 61 63 62
3 63 64 62
3 63 65 64
3 62 64 32
3 65 63 16
3 16 63 61
3 32 64 34
3 64 65 34
3 66 67 34
3 34 67 68
3 66 69 67
3 69 70 67
3 69 44 70
3 67 70 68
3 44 69 45
3 45 69 66
3 68 70 0
3 70 44 0
3 51 71 14
3 14 71 18
3 51 72 71
3 72 73 71
3 72 74 73
3 71 73 18
3 74 72 45
3 45 72 51
3 18 73 16
3 73 74 16
3 58 75 33
3 33 75 61
3 58 76 75
3 76 77 75
3 76 17 77
3 75 77 61
3 17 76 15
3 15 76 58
3 61 77 16
3 77 17 16
3 74 78 16
3 16 78 65
3 74 79 78
3 79 80 78
3 79 66 80
3 78 80 65
3 66 79 45
3 45 79 74
3 65 80 34
3 80 66 34
3 2 81 0
3 0 81 68
3 2 82 81
3 82 83 81
3 82 29 83
3 81 83 68
3 29 82 5
3 5 82 2
3 68 83 34
3 83 29 34

CELL_TYPES 164
5
5
5
5
5
5
5
5
5
5
5
5
5
5
5
5
5
5
5
5
5
5
5
5
5
5
5
5
5
5
5
5
5
5
5
5
5
5
5
5
5
5
5
5
5
5
5
5
5
5
5
5
5
5
5
5
5
5
5
5
5
5
5
5
5
5
5
5
5
5
5
5
5
5
5
5
5
5
5
5
5
5
5
5
5
5
5
5
5
5
5
5
5
5
5
5
5
5
5
5
5
5
5
5
5
5
5
5
5
5
5
5
5
5
5
5
5
5
5
5
5
5
5
5
5
5
5
5
5
5
5
5
5
5
5
5
5
5
5
5
5
5
5
5
5
5
5
5
5
5
5
5
5
5
5
5
5
5
5
5
5
5
5
5

CELL_DATA 164
SCALARS cell_data_0 double
LOOKUP_TABLE default
3.50281761519e-08
1.67508236933e-06
1.98139092328e-08
6.06812520375e-07
2.47189318617e-07
1.14950666927e-06
5.36934048054e-07
1.92067190157e-07
2.42936912741e-07
1.08018728207e-06
5.93866588572e-07
9.32131205671e-08
6.0905294925e-07
1.67498625885e-06
4.05520607742e-08
2.18357050502e-08
5.27891023102e-07
1.14937960921e-06
1.90049532536e-07
2.35616405623e-07
5.83038876115e-07
1.08017625116e-06
9.31851692531e-08
2.32595015105e-07
4.82566242102e-07
2.58993976193e-07
5.46690103953e-07
9.60830344188e-08
2.39308154815e-07
2.12084728288e-07
2.80296118027e-07
3.86071420577e-07
7.93150144645e-08
8.18003321266e-08
1.3498650636e-07
1.41893920908e-07
2.63309787357e-07
2.51145425726e-08
2.57556143901e-07
2.70231453552e-07
1.12402351586e-07
1.38491316126e-07
9.73684451412e-08
1.45654130924e-07
6.06136016107e-08
1.05439053594e-07
2.38879583375e-07
8.15810880836e-08
5.17962623698e-07
2.250162564e-07
3.4708898686e-07
2.72113640999e-07
2.49767738244e-07
3.34582137959e-07
3.47285986602e-07
2.72032332673e-07
5.18881900042e-07
8.15384117122e-08
2.25289453742e-07
2.3825007642e-07
2.49749692185e-07
3.5768953144e-07
6.0564976172e-08
1.08676731727e-07
1.16454696795e-07
1.58942103825e-07
2.73864070695e-07
2.55568395599e-08
2.6057501863e-07
2.6155718338e-07
1.26462827494e-07
1.34419360656e-07
1.105762472e-07
1.39705349031e-07
3.47718054878e-07
2.86341851591e-07
5.30885977022e-07
8.39722833105e-08
2.33157336431e-07
2.38186024263e-07
2.58711294478e-07
3.51717222952e-07
6.06150961577e-08
9.48645880273e-08
3.47630131381e-07
2.86524084277e-07
5.309411587e-07
8.39302053662e-08
2.33079703243e-07
2.3820544769e-07
2.58272126508e-07
3.51917985177e-07
6.04432551927e-08
9.48498595443e-08
1.13644714449e-07
1.21494423635e-07
2.56994039484e-07
2.55048647064e-08
2.79137776942e-07
2.75437991031e-07
1.04468188237e-07
1.54201235491e-07
1.55779274641e-07
1.78026192106e-07
9.70400108726e-08
1.44555057856e-07
2.70662472026e-07
2.51128901228e-08
2.62889153087e-07
2.57546914466e-07
1.34954949558e-07
1.41881929098e-07
1.1263391564e-07
1.39515524615e-07
1.13868771184e-07
1.21512490323e-07
2.57026303096e-07
2.55042034583e-08
2.79184001053e-07
2.75478005346e-07
1.04425058176e-07
1.54112127568e-07
1.55806537898e-07
1.78140377601e-07
2.80342782601e-07
3.86047386637e-07
2.3984565036e-07
9.60951683428e-08
2.1181100047e-07
5.45611715863e-07
7.94113240588e-08
7.77513683491e-08
4.82602757086e-07
2.69174529908e-07
5.90125321393e-08
9.17852234827e-08
2.23750244446e-07
9.60821011727e-08
5.38193029879e-07
2.12918173049e-07
4.32900530204e-07
2.84429211452e-07
2.30630938747e-07
4.28578171576e-07
1.16202343362e-07
1.58797758116e-07
2.73829869639e-07
2.55557359875e-08
2.60676859675e-07
2.61603651685e-07
1.26568452916e-07
1.34427064262e-07
1.10910182547e-07
1.39877522236e-07
4.32958851392e-07
2.84325988234e-07
5.39189165686e-07
9.60715613378e-08
2.13272831839e-07
2.23292022407e-07
2.30695858566e-07
4.50036752159e-07
5.92463633162e-08
9.25575043971e-08

