# vtk DataFile Version 3.0
File Name: Molecule/sphere_cent/sphere_cent_0-s19.vtk
ASCII
DATASET UNSTRUCTURED_GRID
FIELD FieldData 1
TIME 1 1 double
0.0
POINTS 238 double
1.23606798 -2.0 -3.23606798
0.64983939 -1.05146222 -3.80422607
2.10292445 0.0 -3.40260323
0.0 0.0 -4.0
0.0 -2.10292445 -3.40260323
-0.64983939 -1.05146222 -3.80422607
-1.23606798 -2.0 -3.23606798
2.0 3.23606798 1.23606798
2.75276384 2.35114101 1.70130162
3.40260323 2.10292445 0.0
3.23606798 1.23606798 2.0
1.70130162 2.75276384 2.35114101
2.35114101 1.70130162 2.75276384
0.64983939 1.05146222 -3.80422607
-0.64983939 1.05146222 -3.80422607
0.0 2.10292445 -3.40260323
-1.23606798 2.0 -3.23606798
1.23606798 2.0 -3.23606798
0.0 3.40260323 -2.10292445
-1.70130162 2.75276384 -2.35114101
-2.0 3.23606798 -1.23606798
-2.35114101 1.70130162 -2.75276384
-2.75276384 2.35114101 -1.70130162
-3.23606798 1.23606798 -2.0
2.10292445 -3.40260323 0.0
1.05146222 -3.80422607 0.64983939
1.05146222 -3.80422607 -0.64983939
2.35114101 -1.70130162 -2.75276384
3.23606798 -1.23606798 -2.0
2.75276384 -2.35114101 -1.70130162
1.70130162 -2.75276384 -2.35114101
-1.05146222 -3.80422607 -0.64983939
-1.05146222 -3.80422607 0.64983939
-2.10292445 -3.40260323 0.0
-1.70130162 -2.75276384 2.35114101
-2.35114101 -1.70130162 2.75276384
-2.75276384 -2.35114101 1.70130162
-1.23606798 -2.0 3.23606798
3.80422607 0.64983939 1.05146222
3.40260323 0.0 2.10292445
3.80422607 -0.64983939 1.05146222
-3.80422607 0.64983939 1.05146222
-3.80422607 -0.64983939 1.05146222
-3.40260323 0.0 2.10292445
-2.35114101 -1.70130162 -2.75276384
-2.10292445 0.0 -3.40260323
-1.70130162 -2.75276384 -2.35114101
-2.75276384 -2.35114101 -1.70130162
-3.23606798 -1.23606798 -2.0
-3.80422607 -0.64983939 -1.05146222
-3.80422607 0.64983939 -1.05146222
-3.40260323 0.0 -2.10292445
-3.45067392 1.73555426 -1.03956765
-3.84775343 1.09306612 0.0
-4.0 0.0 0.0
-3.40260323 2.10292445 0.0
1.70130162 -2.75276384 2.35114101
2.75276384 -2.35114101 1.70130162
2.35114101 -1.70130162 2.75276384
3.23606798 -1.23606798 2.0
3.45067392 -1.73555426 1.03956765
2.80818578 -2.77512191 0.64248814
2.0 -3.23606798 1.23606798
3.40260323 -2.10292445 0.0
0.0 -2.10292445 3.40260323
0.64983939 -1.05146222 3.80422607
-0.64983939 -1.05146222 3.80422607
1.23606798 -2.0 3.23606798
0.0 0.0 4.0
-0.64248814 -2.80818578 2.77512191
0.64248814 -2.80818578 2.77512191
0.0 -3.40260323 2.10292445
-2.0 3.23606798 1.23606798
-2.75276384 2.35114101 1.70130162
-1.70130162 2.75276384 2.35114101
-2.35114101 1.70130162 2.75276384
-1.23606798 2.0 3.23606798
-0.64983939 1.05146222 3.80422607
0.0 2.10292445 3.40260323
2.10292445 3.40260323 0.0
2.0 3.23606798 -1.23606798
1.05146222 3.80422607 -0.64983939
1.05146222 3.80422607 0.64983939
0.0 4.0 0.0
-1.05146222 3.80422607 -0.64983939
-2.10292445 3.40260323 0.0
-1.05146222 3.80422607 0.64983939
3.45067392 -1.73555426 -1.03956765
3.84775343 -1.09306612 0.0
3.80422607 -0.64983939 -1.05146222
4.0 0.0 0.0
3.40260323 0.0 -2.10292445
3.80422607 0.64983939 -1.05146222
3.23606798 1.23606798 -2.0
2.35114101 1.70130162 -2.75276384
1.70130162 2.75276384 -2.35114101
2.75276384 2.35114101 -1.70130162
2.77512191 0.64248814 -2.80818578
1.73555426 1.03956765 -3.45067392
-3.23606798 -1.23606798 2.0
-3.45067392 -1.73555426 1.03956765
3.36071154 -0.62573786 2.07703396
2.77512191 -0.64248814 2.80818578
2.82842712 0.0 2.82842712
2.10292445 0.0 3.40260323
-3.95075336 -0.32896986 0.53228441
-3.5640261 -0.95470772 1.54474954
-3.70245917 -1.41421356 0.54018151
-3.40260323 -2.10292445 0.0
-3.84775343 -1.09306612 0.0
-3.45067392 -1.73555426 -1.03956765
-3.5640261 -0.95470772 -1.54474954
-3.95075336 -0.32896986 -0.53228441
-3.70245917 -1.41421356 -0.54018151
-1.09306612 0.0 3.84775343
1.09306612 0.0 3.84775343
-1.03956765 3.45067392 1.73555426
0.0 1.0656188 3.85544506
0.64983939 1.05146222 3.80422607
-0.32896986 0.53228441 3.95075336
0.32896986 0.53228441 3.95075336
-1.41421356 0.54018151 3.70245917
-2.10292445 0.0 3.40260323
1.41421356 0.54018151 3.70245917
1.23606798 2.0 3.23606798
0.53228441 3.95075336 0.32896986
0.54018151 3.70245917 1.41421356
0.0 3.84775343 1.09306612
0.0 3.40260323 2.10292445
-0.53228441 3.95075336 0.32896986
-0.54018151 3.70245917 1.41421356
-1.54474954 3.5640261 0.95470772
-2.82842713 -1.48699214 2.40600382
-2.77512191 -0.64248814 2.80818578
-2.28824561 -0.87403205 3.16227766
-3.23606798 1.23606798 2.0
-3.36071154 0.62573786 2.07703396
-2.77512191 0.64248814 2.80818578
-2.82842712 0.0 2.82842712
-3.36071154 -0.62573786 2.07703396
1.815962 -1.8737194 3.03174168
1.73555426 -1.03956765 3.45067392
2.28824561 -0.87403205 3.16227766
-2.82842713 1.48699214 2.40600382
-1.815962 1.8737194 3.03174168
-2.80818578 2.77512191 0.64248814
-1.73555426 1.03956765 3.45067392
-2.28824561 0.87403205 3.16227766
-2.07703396 3.36071154 0.62573786
-2.82842712 2.82842712 0.0
-2.40600382 2.82842713 -1.48699214
-2.77512191 0.64248814 -2.80818578
-2.80818578 2.77512191 -0.64248814
-3.16227766 2.28824561 -0.87403205
-2.82842712 -2.82842712 0.0
-2.0 -3.23606798 -1.23606798
-2.80818578 -2.77512191 0.64248814
-2.07703396 -3.36071154 0.62573786
-2.0 -3.23606798 1.23606798
-2.40600382 -2.82842713 1.48699214
-3.16227766 -2.28824561 0.87403205
-3.45067392 1.73555426 1.03956765
-2.77512191 -0.64248814 -2.80818578
-3.36071154 -0.62573786 -2.07703396
-2.82842712 0.0 -2.82842712
-3.36071154 0.62573786 -2.07703396
-0.87403205 3.16227766 2.28824561
-0.64248814 2.80818578 2.77512191
-1.48699214 2.40600382 2.82842713
-3.03174168 1.815962 1.8737194
-3.16227766 2.28824561 0.87403205
2.82842713 1.48699214 2.40600382
2.77512191 0.64248814 2.80818578
2.28824561 0.87403205 3.16227766
1.54474954 -3.5640261 0.95470772
0.54018151 -3.70245917 1.41421356
0.0 -4.0 0.0
1.03956765 -3.45067392 1.73555426
-1.03956765 -3.45067392 1.73555426
-0.87403205 -3.16227766 2.28824561
-1.8737194 -3.03174168 1.815962
-2.40600382 -2.82842713 -1.48699214
-3.16227766 -2.28824561 -0.87403205
-2.80818578 -2.77512191 -0.64248814
1.8737194 -3.03174168 1.815962
0.87403205 -3.16227766 2.28824561
-0.95470772 -1.54474954 3.5640261
-1.73555426 -1.03956765 3.45067392
-1.41421356 -0.54018151 3.70245917
1.8737194 3.03174168 1.815962
1.48699214 2.40600382 2.82842713
0.64248814 2.80818578 2.77512191
0.87403205 3.16227766 2.28824561
1.03956765 3.45067392 1.73555426
-1.73555426 1.03956765 -3.45067392
-1.815962 1.8737194 -3.03174168
-2.28824561 0.87403205 -3.16227766
-1.54474954 -3.5640261 -0.95470772
-0.53228441 -3.95075336 0.32896986
-0.54018151 -3.70245917 -1.41421356
0.0 -3.40260323 -2.10292445
-1.03956765 -3.45067392 -1.73555426
-0.54018151 -3.70245917 1.41421356
0.0 -3.84775343 1.09306612
0.0 2.82842712 2.82842712
0.62573786 2.07703396 3.36071154
-0.32896986 -0.53228441 -3.95075336
0.64248814 -2.80818578 -2.77512191
-1.09306612 0.0 -3.84775343
-1.41421356 -0.54018151 -3.70245917
-0.32896986 0.53228441 -3.95075336
-1.41421356 0.54018151 -3.70245917
2.0 -3.23606798 -1.23606798
1.54474954 -3.5640261 -0.95470772
1.03956765 -3.45067392 -1.73555426
0.54018151 -3.70245917 -1.41421356
0.0 -3.84775343 -1.09306612
0.53228441 -3.95075336 -0.32896986
1.8737194 -3.03174168 -1.815962
1.48699214 -2.40600382 -2.82842713
0.87403205 -3.16227766 -2.28824561
-0.64248814 -2.80818578 -2.77512191
2.80818578 -2.77512191 -0.64248814
2.77512191 -0.64248814 -2.80818578
2.40600382 -2.82842713 -1.48699214
3.16227766 -2.28824561 -0.87403205
3.95075336 0.32896986 0.53228441
3.70245917 1.41421356 0.54018151
3.84775343 1.09306612 0.0
-1.48699214 -2.40600382 -2.82842713
-0.87403205 -3.16227766 -2.28824561
2.80818578 2.77512191 -0.64248814
3.36071154 -0.62573786 -2.07703396
2.82842712 0.0 -2.82842712
3.45067392 1.73555426 -1.03956765
3.03174168 1.815962 -1.8737194
3.16227766 2.28824561 -0.87403205
2.40600382 2.82842713 -1.48699214

CELLS 472 1888
3 0 1 2
3 2 1 3
3 0 4 1
3 4 5 1
3 4 6 5
3 7 8 9
3 9 8 10
3 11 12 8
3 3 13 2
3 14 15 13
3 14 16 15
3 13 15 17
3 17 15 18
3 15 16 18
3 16 19 18
3 18 19 20
3 21 22 19
3 21 23 22
3 24 25 26
3 2 27 0
3 28 29 27
3 29 30 27
3 31 32 33
3 34 35 36
3 34 37 35
3 38 39 40
3 38 10 39
3 41 42 43
3 6 44 45
3 46 47 44
3 44 47 48
3 49 50 51
3 23 50 52
3 50 53 52
3 50 54 53
3 52 53 55
3 23 52 22
3 55 53 41
3 41 53 54
3 56 57 58
3 58 57 59
3 59 57 60
3 57 61 60
3 57 62 61
3 60 61 63
3 63 61 24
3 24 61 62
3 59 60 40
3 40 60 63
3 64 65 66
3 64 67 65
3 66 65 68
3 37 69 64
3 69 70 64
3 69 71 70
3 64 70 67
3 34 69 37
3 67 70 56
3 72 73 74
3 73 75 74
3 76 77 78
3 9 79 7
3 80 81 79
3 81 82 79
3 79 82 7
3 83 81 18
3 18 81 80
3 84 85 86
3 84 20 85
3 20 84 18
3 18 84 83
3 63 87 88
3 87 89 88
3 87 28 89
3 88 89 90
3 91 92 89
3 91 93 92
3 89 92 90
3 28 87 29
3 63 88 40
3 40 88 90
3 94 95 96
3 94 17 95
3 93 97 94
3 97 98 94
3 97 2 98
3 94 98 17
3 80 95 18
3 95 17 18
3 17 98 13
3 13 98 2
3 91 97 93
3 99 100 36
3 39 101 40
3 40 101 59
3 59 101 102
3 101 103 102
3 101 39 103
3 102 103 104
3 10 103 39
3 54 105 41
3 41 105 42
3 42 106 43
3 99 106 100
3 106 107 100
3 106 42 107
3 100 107 108
3 42 105 107
3 105 109 107
3 105 54 109
3 107 109 108
3 47 110 48
3 111 49 51
3 49 112 50
3 112 54 50
3 54 112 109
3 112 113 109
3 112 49 113
3 109 113 108
3 108 113 110
3 113 111 110
3 113 49 111
3 110 111 48
3 59 102 58
3 68 114 66
3 104 115 65
3 65 115 68
3 74 116 72
3 77 117 78
3 117 118 78
3 77 119 117
3 119 120 117
3 119 68 120
3 117 120 118
3 68 119 114
3 119 121 114
3 119 77 121
3 114 121 122
3 121 77 76
3 118 123 124
3 124 123 104
3 118 120 123
3 120 115 123
3 120 68 115
3 123 115 104
3 83 125 81
3 81 125 82
3 82 126 7
3 82 125 126
3 125 127 126
3 125 83 127
3 126 127 128
3 83 129 127
3 129 130 127
3 129 86 130
3 127 130 128
3 128 130 116
3 130 131 116
3 130 86 131
3 116 131 72
3 86 129 84
3 84 129 83
3 85 131 86
3 35 132 36
3 36 132 99
3 99 132 133
3 132 134 133
3 132 35 134
3 133 134 122
3 37 134 35
3 135 136 137
3 136 138 137
3 136 43 138
3 137 138 122
3 122 138 133
3 138 139 133
3 138 43 139
3 133 139 99
3 43 136 41
3 41 136 135
3 67 140 141
3 140 142 141
3 140 58 142
3 141 142 104
3 58 140 56
3 56 140 67
3 67 141 65
3 65 141 104
3 73 143 75
3 75 144 74
3 72 145 73
3 76 144 146
3 144 147 146
3 144 75 147
3 146 147 122
3 75 143 147
3 143 137 147
3 143 135 137
3 147 137 122
3 72 148 145
3 148 149 145
3 148 85 149
3 145 149 55
3 20 149 85
3 99 139 106
3 106 139 43
3 104 142 102
3 102 142 58
3 76 146 121
3 121 146 122
3 85 148 131
3 131 148 72
3 22 150 19
3 19 150 20
3 21 151 23
3 20 150 152
3 150 153 152
3 150 22 153
3 152 153 55
3 33 154 155
3 108 154 156
3 154 157 156
3 154 33 157
3 156 157 158
3 158 157 32
3 32 157 33
3 158 159 156
3 159 160 156
3 159 36 160
3 156 160 108
3 36 159 34
3 135 161 41
3 41 161 55
3 48 162 44
3 44 162 45
3 48 163 162
3 163 164 162
3 163 51 164
3 162 164 45
3 45 164 151
3 164 165 151
3 164 51 165
3 151 165 23
3 23 165 50
3 50 165 51
3 55 153 52
3 52 153 22
3 128 166 167
3 166 168 167
3 166 74 168
3 167 168 76
3 135 169 161
3 169 170 161
3 169 73 170
3 161 170 55
3 78 167 76
3 108 160 100
3 100 160 36
3 51 163 111
3 111 163 48
3 74 166 116
3 116 166 128
3 73 169 143
3 143 169 135
3 76 168 144
3 144 168 74
3 55 170 145
3 145 170 73
3 20 152 149
3 149 152 55
3 12 171 8
3 8 171 10
3 10 171 172
3 171 173 172
3 171 12 173
3 172 173 104
3 104 173 124
3 124 173 12
3 62 174 24
3 24 174 25
3 25 175 176
3 25 174 175
3 174 177 175
3 174 62 177
3 175 177 71
3 32 178 158
3 71 179 178
3 179 180 178
3 179 34 180
3 178 180 158
3 155 181 46
3 46 181 47
3 47 181 182
3 181 183 182
3 181 155 183
3 182 183 108
3 56 184 57
3 184 62 57
3 62 184 177
3 184 185 177
3 184 56 185
3 177 185 71
3 37 186 187
3 186 188 187
3 186 66 188
3 187 188 122
3 66 186 64
3 64 186 37
3 34 179 69
3 69 179 71
3 71 185 70
3 70 185 56
3 10 172 103
3 103 172 104
3 47 182 110
3 110 182 108
3 122 188 114
3 114 188 66
3 37 187 134
3 134 187 122
3 108 183 154
3 154 183 155
3 158 180 159
3 159 180 34
3 7 189 8
3 189 11 8
3 11 190 12
3 190 124 12
3 124 190 191
3 190 192 191
3 190 11 192
3 191 192 128
3 128 192 193
3 192 189 193
3 192 11 189
3 193 189 7
3 14 194 16
3 16 195 19
3 195 21 19
3 45 196 194
3 196 195 194
3 196 21 195
3 194 195 16
3 155 197 33
3 197 31 33
3 176 198 31
3 31 198 32
3 31 199 176
3 200 199 201
3 199 197 201
3 199 31 197
3 201 197 155
3 32 198 202
3 198 203 202
3 198 176 203
3 202 203 71
3 46 201 155
3 128 204 191
3 204 205 191
3 204 78 205
3 191 205 124
3 124 205 118
3 118 205 78
3 128 193 126
3 126 193 7
3 21 196 151
3 151 196 45
3 78 204 167
3 167 204 128
3 71 203 175
3 175 203 176
3 32 202 178
3 178 202 71
3 5 206 1
3 1 206 3
3 0 207 4
3 4 207 200
3 3 206 208
3 206 209 208
3 206 5 209
3 208 209 45
3 45 209 6
3 6 209 5
3 3 210 13
3 210 14 13
3 45 211 208
3 211 210 208
3 211 14 210
3 208 210 3
3 212 213 214
3 213 215 214
3 213 26 215
3 214 215 200
3 200 215 216
3 215 217 216
3 215 26 217
3 216 217 176
3 26 213 24
3 24 213 212
3 176 217 25
3 25 217 26
3 29 218 30
3 30 219 27
3 27 219 0
3 0 219 207
3 219 220 207
3 219 30 220
3 207 220 200
3 30 218 220
3 218 214 220
3 218 212 214
3 220 214 200
3 14 211 194
3 194 211 45
3 200 216 199
3 199 216 176
3 200 221 4
3 4 221 6
3 212 222 24
3 24 222 63
3 2 223 27
3 27 223 28
3 212 224 222
3 224 225 222
3 224 29 225
3 222 225 63
3 90 226 40
3 226 38 40
3 38 227 10
3 10 227 9
3 9 227 228
3 227 226 228
3 227 38 226
3 228 226 90
3 6 229 44
3 229 46 44
3 200 230 221
3 230 229 221
3 230 46 229
3 221 229 6
3 9 231 79
3 79 231 80
3 28 232 89
3 232 91 89
3 2 233 223
3 233 232 223
3 233 91 232
3 223 232 28
3 9 228 92
3 92 228 90
3 93 234 92
3 92 234 9
3 63 225 87
3 87 225 29
3 93 235 234
3 235 236 234
3 235 96 236
3 234 236 9
3 9 236 231
3 236 237 231
3 236 96 237
3 231 237 80
3 96 235 94
3 94 235 93
3 80 237 95
3 95 237 96
3 91 233 97
3 97 233 2
3 46 230 201
3 201 230 200
3 29 224 218
3 218 224 212

CELL_TYPES 472
5
5
5
5
5
5
5
5
5
5
5
5
5
5
5
5
5
5
5
5
5
5
5
5
5
5
5
5
5
5
5
5
5
5
5
5
5
5
5
5
5
5
5
5
5
5
5
5
5
5
5
5
5
5
5
5
5
5
5
5
5
5
5
5
5
5
5
5
5
5
5
5
5
5
5
5
5
5
5
5
5
5
5
5
5
5
5
5
5
5
5
5
5
5
5
5
5
5
5
5
5
5
5
5
5
5
5
5
5
5
5
5
5
5
5
5
5
5
5
5
5
5
5
5
5
5
5
5
5
5
5
5
5
5
5
5
5
5
5
5
5
5
5
5
5
5
5
5
5
5
5
5
5
5
5
5
5
5
5
5
5
5
5
5
5
5
5
5
5
5
5
5
5
5
5
5
5
5
5
5
5
5
5
5
5
5
5
5
5
5
5
5
5
5
5
5
5
5
5
5
5
5
5
5
5
5
5
5
5
5
5
5
5
5
5
5
5
5
5
5
5
5
5
5
5
5
5
5
5
5
5
5
5
5
5
5
5
5
5
5
5
5
5
5
5
5
5
5
5
5
5
5
5
5
5
5
5
5
5
5
5
5
5
5
5
5
5
5
5
5
5
5
5
5
5
5
5
5
5
5
5
5
5
5
5
5
5
5
5
5
5
5
5
5
5
5
5
5
5
5
5
5
5
5
5
5
5
5
5
5
5
5
5
5
5
5
5
5
5
5
5
5
5
5
5
5
5
5
5
5
5
5
5
5
5
5
5
5
5
5
5
5
5
5
5
5
5
5
5
5
5
5
5
5
5
5
5
5
5
5
5
5
5
5
5
5
5
5
5
5
5
5
5
5
5
5
5
5
5
5
5
5
5
5
5
5
5
5
5
5
5
5
5
5
5
5
5
5
5
5
5
5
5
5
5
5
5
5
5
5
5
5
5
5
5
5
5
5
5
5
5
5
5
5
5
5
5
5
5
5
5
5
5
5
5
5
5
5
5
5
5
5
5
5
5
5
5
5
5
5
5
5
5
5
5
5
5
5
5
5
5
5
5
5
5
5
5
5
5
5
5
5

CELL_DATA 472
SCALARS cell_data_0 double
LOOKUP_TABLE default
3.61114164505e-07
3.88390999723e-07
4.10576470091e-09
2.77911031982e-09
2.42851925755e-08
2.50832725672e-07
3.24437303634e-07
1.09508791688e-08
4.4441024882e-07
4.36931746062e-08
2.09730263999e-08
5.65474490928e-08
1.48327255611e-07
2.15772841258e-07
2.37319201387e-07
1.65925931737e-07
6.5442767776e-08
4.51671010429e-08
8.69896495454e-08
3.93260619059e-07
1.7539748038e-08
3.95483969953e-08
1.16757614543e-07
7.0673295884e-09
6.84708268948e-09
7.4289009081e-08
2.33007350274e-08
1.10250957313e-07
4.50022147453e-07
3.43589112366e-08
1.29597000143e-08
6.77603601266e-08
1.41980412183e-08
2.19044498081e-08
2.70887916208e-08
1.37955849179e-07
1.51081161235e-08
2.81671314206e-08
3.57305948685e-08
2.08063128855e-08
2.25265455328e-08
7.00423108641e-08
5.02023048308e-08
3.40096664929e-09
9.29704795165e-08
6.32159178492e-08
3.8386836084e-08
8.94765653739e-08
4.58574247496e-08
7.50495550847e-08
5.34075645822e-08
2.6318219808e-08
1.94198485871e-09
4.30098295895e-09
3.10242790475e-08
1.1544958448e-08
2.12951989949e-09
8.67110473397e-09
2.00913363876e-08
4.76964224298e-08
3.30239619183e-08
3.99658846551e-07
1.63130537718e-09
1.15868773395e-07
1.39711119575e-09
6.63076708601e-09
2.44463920848e-07
1.43855421855e-07
1.17435770586e-08
1.92181361613e-07
1.36092620305e-08
3.9039511851e-08
1.27571456187e-08
4.50458489301e-09
4.05956817095e-08
9.41165099649e-08
1.27400174709e-07
1.6065573626e-08
2.67600681118e-08
1.11124082074e-07
3.83766717726e-09
1.33931242953e-07
6.80156571567e-09
3.66346884274e-08
7.55963111164e-08
2.4787113234e-08
4.51772574242e-10
2.58246749188e-07
2.02889740134e-07
2.24357398929e-08
3.58718000166e-08
5.78321993464e-08
1.6821442974e-09
1.44532392655e-08
3.30939145109e-08
3.69066251794e-08
1.47283519726e-09
2.02085276144e-08
2.06922389487e-08
6.25820632427e-08
1.9027604696e-08
8.0637948996e-09
1.73630676323e-08
1.24505195881e-08
1.23685286821e-08
3.74199008808e-11
3.71861339492e-08
9.52742517761e-09
1.25767868126e-08
6.27468090947e-09
2.82447848422e-08
3.93110721877e-08
2.51670242435e-08
2.32778706771e-08
2.14005131612e-08
5.87359451336e-09
5.7331121032e-09
3.0816917873e-08
3.50967182052e-08
3.81571990249e-08
6.99767360298e-09
3.81907970544e-08
1.77228466775e-08
3.56389521775e-08
6.90618709193e-08
1.57243907068e-07
2.71492028034e-08
1.11491371389e-08
4.83546273409e-09
7.19720391259e-09
3.39093201143e-08
5.45864619599e-09
2.98629675035e-08
2.54953012845e-08
7.46816664916e-08
4.81225763114e-08
2.3319047029e-08
4.79525104499e-08
5.60839554774e-08
3.51159838504e-08
2.44172959313e-07
3.26021277799e-09
3.57853786464e-08
7.43885241079e-09
3.46937427845e-08
1.13799369344e-07
2.29266804523e-08
6.96042521555e-08
1.46192508303e-09
6.76324753516e-10
9.26128527548e-08
3.33796209949e-08
1.03913669708e-07
2.8088178e-10
2.58297902124e-09
2.45292997145e-08
2.3575934872e-08
5.08955430243e-10
4.53352117061e-09
3.40093784228e-08
5.56466849162e-09
1.29608081357e-07
2.2091869238e-08
5.13419545656e-08
4.54680154067e-08
1.60798684803e-08
1.49489897302e-08
3.28879182076e-08
1.00618621377e-08
4.97989230545e-08
3.24191425042e-09
2.11536358975e-08
5.56684681081e-09
1.80516541656e-08
1.15935161417e-08
2.59746487062e-08
7.62707764391e-09
1.23539514689e-09
1.37647379245e-08
1.697749733e-08
1.79868018929e-08
4.56930910464e-11
3.6033782123e-08
3.41910483548e-08
4.65233409957e-08
2.2484091446e-08
2.66044040207e-08
1.29866178456e-07
9.0559197539e-09
1.87056201259e-08
4.35682327212e-08
2.17784795035e-08
7.10691092283e-09
2.07988075013e-08
5.90271380006e-09
7.37212654311e-09
3.32774815036e-08
1.535651945e-08
1.75334880359e-08
1.73776033225e-09
1.56499800824e-08
3.55108371076e-09
5.88875659454e-08
5.08249512956e-08
2.83514795592e-08
3.35538988584e-09
2.08150643173e-08
3.87747049179e-08
2.48873305923e-08
6.29371653518e-09
1.37357387091e-09
3.64154318297e-08
4.46177407638e-08
9.56443977307e-08
3.74398454019e-08
5.75579702726e-08
1.50067828067e-08
3.99663639364e-08
6.52158627439e-08
9.17147073101e-08
2.82306867397e-08
3.52873572418e-09
2.16527334189e-08
1.28630373221e-08
1.14406956588e-08
1.1065025432e-08
3.89068532451e-09
1.75322669625e-08
2.06816533357e-08
2.67891094903e-08
2.34609645919e-08
3.51908600595e-08
4.36057965577e-08
1.06286918125e-08
4.46938511465e-08
7.09018462909e-09
7.52977191819e-09
9.84834254042e-09
5.41876941648e-08
4.66615674588e-08
1.05754416592e-08
4.25791509087e-09
1.51881549455e-08
4.11316326659e-09
1.07895531405e-09
9.86670551374e-08
4.07867693036e-08
3.11218922385e-09
4.04856704586e-08
1.59253921433e-08
1.01713612061e-08
8.79467346653e-09
1.04400156122e-08
1.37856797291e-08
8.8171357319e-08
4.71126759089e-08
2.70322585583e-08
2.01713052699e-08
1.9691525676e-08
3.86998777827e-08
1.06210743839e-08
1.98647219634e-08
2.02913553989e-09
1.75131430761e-08
2.57074044284e-08
4.34178539789e-09
6.20180272212e-08
1.54556902263e-08
4.10488297535e-09
7.22845929156e-08
4.42583070596e-08
7.61675908659e-08
2.60355007739e-08
2.1581723145e-08
3.69237026876e-08
7.44103864481e-08
1.94488875248e-07
5.75351488952e-09
1.95752981426e-08
2.49099388303e-08
7.12946226936e-08
3.1950349003e-08
3.36993109993e-09
5.16833547979e-09
3.38562826852e-08
8.05463441364e-08
1.87902069606e-08
2.16305674966e-08
4.63726836416e-09
3.94937761732e-10
2.61841290079e-08
2.76777889122e-08
1.69266752426e-08
1.3573210636e-08
1.80975776664e-08
2.71000442852e-08
6.67764027096e-09
6.04824348138e-09
3.71831791775e-09
1.86642367732e-08
1.47285489295e-08
2.66113532382e-08
2.39199544931e-10
3.85015207725e-08
3.30372575698e-09
3.08981004296e-08
7.40774497315e-09
1.2936111341e-08
1.89007725461e-08
4.47990492241e-08
5.93356102201e-08
4.00043253948e-08
1.6927900826e-08
2.80854779239e-08
7.30805623917e-09
2.31128358692e-08
2.99261343879e-08
4.20363131663e-08
5.33578926346e-08
1.89251450242e-08
3.00224490403e-08
3.85781783048e-08
2.54401473382e-08
1.25445416011e-08
1.02339075165e-07
5.2126472968e-08
2.21119389258e-08
2.87135696616e-08
1.45956620304e-08
1.00885359879e-08
1.53441075898e-08
1.07452869442e-08
2.51980776958e-09
2.45201004449e-08
5.5847066089e-09
2.26824295765e-08
4.20854807648e-08
4.0445393028e-08
4.08343311161e-09
2.20929413063e-08
3.14843929256e-08
8.45380365298e-09
8.19433941587e-09
2.24956890396e-08
1.14541575896e-08
3.43771032469e-08
2.46868534391e-08
9.06630322499e-08
3.86134827329e-08
2.13560846925e-09
2.42557350089e-08
2.51447314428e-08
2.52921100648e-08
1.41255470537e-08
3.56483580212e-08
3.22784984635e-08
3.2298776388e-08
4.85984992466e-09
3.96818395311e-08
1.30514976693e-08
9.07718641995e-09
9.65737063263e-09
4.33102319088e-09
1.32188781927e-08
2.41742863178e-08
2.16962949916e-09
3.4501500983e-08
6.89154953446e-09
6.73813816942e-10
4.18888051477e-08
2.7265401898e-08
3.52045795663e-10
2.47252043003e-08
4.58961573085e-08
4.74752961797e-08
2.68845120592e-08
9.12775071406e-08
2.6392259133e-08
7.01527322074e-10
3.32387894013e-08
6.1407692601e-08
1.87528031775e-07
7.30366890004e-09
3.26396100308e-08
4.20231156718e-09
5.42815383792e-08
5.2935525689e-10
1.16827743911e-08
1.61999204828e-08
2.02879284984e-08
1.08108696479e-08
2.15560032195e-09
4.18521398782e-08
3.62025597984e-08
1.55158031701e-08
4.14139258828e-09
6.88569567355e-09
5.27475420266e-09
2.88833483512e-08
7.4545530495e-09
4.47216793791e-09
5.05156959088e-09
6.48815331807e-10
3.58769861261e-08
4.9705973904e-09
3.21959580991e-08
9.77130046701e-09
4.51868802973e-08
4.63421662646e-09
1.01672963021e-08
1.52093121925e-08
3.95263552024e-08
8.39853789409e-09
3.39839144281e-08
4.15803009126e-08
3.6306460222e-08
6.32783539913e-08
5.84692704837e-09
3.2969488349e-08
1.02218749201e-07
2.91063697112e-08
2.10069560137e-08
2.79968954552e-08
1.34033027811e-08
1.52952589448e-09
2.34987000376e-08
1.38545309853e-08
5.98677639877e-09
2.90625155402e-08
1.78010891721e-07
6.56759287217e-08
1.41332107017e-08
1.18013454152e-08
1.10562845959e-08
2.7851815591e-08
3.39085716225e-11
5.79789662955e-08
2.29952841931e-08
5.90280576425e-09
5.8600281931e-09
7.4855581336e-08
9.93422888731e-09
3.1478820042e-08
1.39777946861e-08
3.32438380883e-08
3.18223399568e-08
2.51637676874e-08
5.80319721167e-09
1.36729264438e-07
4.71268701182e-08
6.24094848365e-08
1.32990019053e-07
2.79375833083e-09
5.75064020054e-09
7.60325666193e-09
2.06835335364e-08
1.25112008042e-08
3.2441038571e-08
2.70602366738e-08
3.36708411813e-08
2.14233534262e-08
8.12575752537e-09
1.62259181247e-08
3.29813437996e-09
2.87197025888e-08
2.07847681939e-08
1.99947938685e-08
3.62969462066e-08
1.26398248389e-08
3.18588076116e-08
1.37095437964e-08
3.41593800105e-08

