# vtk DataFile Version 3.0
File Name: Molecule/sphere_cent/sphere_cent_0-s0.vtk
ASCII
DATASET UNSTRUCTURED_GRID
FIELD FieldData 1
TIME 1 1 double
0.0
POINTS 12 double
0.850650808352 -0.525731112119 0.0
0.525731112119 0.0 -0.850650808352
0.850650808352 0.525731112119 0.0
0.0 0.850650808352 -0.525731112119
0.0 0.850650808352 0.525731112119
-0.850650808352 0.525731112119 0.0
-0.525731112119 0.0 0.850650808352
0.525731112119 0.0 0.850650808352
0.0 -0.850650808352 0.525731112119
0.0 -0.850650808352 -0.525731112119
-0.525731112119 0.0 -0.850650808352
-0.850650808352 -0.525731112119 0.0

CELLS 20 80
3 0 1 2
3 2 1 3
3 2 3 4
3 4 3 5
3 4 5 6
3 4 6 7
3 6 8 7
3 7 8 0
3 1 9 10
3 0 2 7
3 2 4 7
3 10 11 5
3 3 10 5
3 11 9 8
3 11 8 6
3 6 5 11
3 10 9 11
3 9 0 8
3 1 0 9
3 1 10 3

CELL_TYPES 20
5
5
5
5
5
5
5
5
5
5
5
5
5
5
5
5
5
5
5
5

CELL_DATA 20
SCALARS cell_data_0 double
LOOKUP_TABLE default
5.20459075037e-06
5.19033873219e-06
5.2507474314e-06
5.28686369052e-06
5.17238777766e-06
5.24024834555e-06
5.1949789979e-06
5.20666639227e-06
5.23262606781e-06
5.20895555667e-06
5.17249851042e-06
5.19491158266e-06
5.22985070026e-06
5.30269733862e-06
5.25320570635e-06
5.18228136146e-06
5.176629959e-06
5.17761731091e-06
5.21133037748e-06
5.17983992737e-06

