# vtk DataFile Version 3.0
File Name: Molecule/sphere_excent/sphere_excent_0-s59.vtk
ASCII
DATASET UNSTRUCTURED_GRID
FIELD FieldData 1
TIME 1 1 double
0.0
POINTS 1449 double
0.39991539717 -0.45583817363 -0.79516804218
0.49102246761 -0.49434730411 -0.71688628197
0.37738192081 -0.58990168571 -0.71386790276
0.80594950914 0.19153270125 -0.56014096737
0.86900860071 0.15019921958 -0.47140339017
0.82023710012 0.088570214808 -0.56498080492
0.86936116219 -0.069740340114 -0.48920157552
0.82917970419 -0.015570801683 -0.55878341198
0.87398248911 0.041503816843 -0.48397359252
-0.25385499001 -0.87460249662 -0.41307127476
-0.14850765467 -0.87745809555 -0.45609027147
-0.17472013831 -0.9192596674 -0.35276895761
0.59341138601 -0.12772932649 0.7946485877
0.53916424513 -0.34464794397 0.7684468627
0.67155760527 -0.23615857959 0.70231378078
0.91972714663 0.12759648263 0.3712208271
0.8805333972 0.056094501168 0.47062328458
0.94770526886 0.03576079756 0.31708598137
0.39497891068 -0.46403855085 0.7928904891
0.39782649279 -0.30669954419 0.86465352774
0.50616878271 -0.56677633524 0.65003490448
0.63692051172 0.42307111621 0.64414060116
0.58772033453 0.32035788894 0.74285250902
0.72290670872 0.27970576286 0.63157862425
0.10919832438 -0.27004563808 -0.95663034916
0.10971428454 -0.36929562688 -0.92281395197
0.012238278985 -0.30177894235 -0.95328879356
-0.18790090084 -0.38062560558 -0.90543079376
-0.12718495727 -0.45425075293 -0.88174253702
-0.21527688205 -0.44770097733 -0.86787903309
-0.19813808799 -0.51477825642 -0.83409976959
-0.13233301044 -0.62125128508 -0.77236604691
-0.20329773426 -0.58604335785 -0.7843657136
-0.09638851881 -0.54721033573 -0.83140826225
0.014962031506 -0.52775740623 -0.84921145439
-0.0015027724439 -0.59260433912 -0.80545163155
0.84571570158 0.48207977414 0.22876778245
0.87601840496 0.46638962626 0.12254852802
0.8131531477 0.56177413464 0.15243585408
0.8846604228 0.34764832258 -0.31064164639
0.89198571444 0.38557308912 -0.23602581024
0.92512029409 0.30220201612 -0.2298232168
0.84922659397 0.43317222595 -0.30197915435
0.84067642689 0.24275997281 -0.48408922553
-0.33307480812 -0.35562294722 -0.8732572794
-0.25808563828 -0.31259098649 -0.91415715218
-0.27558016777 -0.40373522043 -0.87238007784
-0.35700982809 -0.2825499773 -0.8903285861
0.013308411464 -0.38057672977 -0.92465084791
-0.44814643264 0.6321323514 -0.63211321831
-0.3563311398 0.66989916563 -0.65133547783
-0.38187038898 0.58686065674 -0.71397221088
-0.27563399076 0.61796796322 -0.73630094528
-0.26232725382 0.70313006639 -0.66089195013
-0.60928034782 0.032256774604 -0.79229211807
-0.68577426672 -0.034189365804 -0.7269423604
-0.68729317188 0.085947819054 -0.72128051519
-0.60535955429 0.13400936127 -0.78457468748
-0.52877986431 0.10009805858 -0.84282702208
-0.15809345245 -0.13392539322 -0.97830069065
-0.13235871494 -0.046145416796 -0.99013161659
-0.062159549445 -0.12333936989 -0.99041378498
-0.28847491741 -0.22475109994 -0.9307295084
-0.18999756873 -0.22352913022 -0.95598787069
-0.24813258648 -0.15100675821 -0.95688307285
-0.20867595077 0.55547881126 -0.80491453409
-0.31626394391 0.52329230309 -0.79129314423
-0.28936958313 0.41308987141 -0.86348640919
-0.37364092469 0.43761849403 -0.81785601377
-0.075617112219 0.56030386686 -0.82482123375
-0.15492130816 0.62122392654 -0.76817083359
-0.31257492304 0.077236674726 -0.94674324989
-0.25057163835 0.15337100625 -0.95587176085
-0.23524451256 0.063945770264 -0.96983247995
-0.3533077538 -0.58077204227 0.73337763548
-0.30705541372 -0.48341405392 0.81972551346
-0.4668213129 -0.41800922155 0.77926242352
0.11227713525 -0.0074533266015 0.99364852905
0.05376297608 -0.096957862377 0.99382787943
0.14717757702 -0.093434251845 0.98468232155
0.28636237979 -0.2410094291 0.927300632
0.1734033525 -0.26056933403 0.94971638918
0.27738159895 -0.36916431785 0.88703095913
-0.16390040517 -0.51517015696 0.84126001596
-0.20204001665 -0.62619543076 0.7530079484
-0.26148918271 -0.39405930042 0.88094002008
-0.46179297566 -0.11842887104 0.87898808718
-0.3868278861 -0.00083594408352 0.92217630148
-0.50367581844 0.031464412808 0.86328017712
-0.50018596649 0.22497823834 0.83619755507
-0.40625953674 0.13556858897 0.90366131067
-0.6110586524 0.11139579117 0.78368359804
-0.35968846083 0.28834879398 0.88737171888
-0.62494277954 0.30541849136 0.71844547987
-0.46653953195 0.39481124282 0.79139381647
-0.6241568327 -0.10816899687 0.77375084162
0.24929949641 -0.50698977709 0.82512485981
0.30297717452 -0.63199847937 0.7132743001
0.11941676587 -0.5975612998 0.79271501303
0.18287278712 -0.42447951436 0.88672739267
0.41251891851 0.050756130368 -0.90949672461
0.51248055696 0.099161319435 -0.85294914246
0.49311706424 -0.0254164543 -0.86956650019
0.14548501372 -0.45395690203 -0.8790230751
0.21185033023 -0.39711904526 -0.89293575287
0.21918846667 -0.48177629709 -0.84838610888
0.29886615276 -0.53312778473 -0.79145550728
0.27780306339 -0.45863762498 -0.84392088652
0.60710340738 0.10819495469 -0.78721153736
0.58721780777 0.2156766206 -0.78015738726
0.68167048693 0.15455400944 -0.71513295174
0.51300919056 0.19231984019 -0.83587092161
0.24225112796 -0.60900515318 -0.75517243147
-0.12503013015 -0.7539242506 -0.64495515823
-0.13646537066 -0.68927288055 -0.71153175831
-0.059355583042 -0.70384091139 -0.70786225796
0.048185832798 -0.44910088181 -0.89218598604
0.10902608931 -0.69355350733 -0.71208822727
0.13540761173 -0.63216596842 -0.76289361715
0.19018831849 -0.6811041832 -0.70700675249
-0.028138032183 -0.80109161139 -0.59786659479
-0.15141776204 -0.8143286705 -0.56030285358
0.36886206269 0.48621219397 -0.7921564579
0.37764438987 0.36085096002 -0.85270649195
0.30382367969 0.44159981608 -0.84392517805
-0.23774343729 -0.76399493217 -0.59982436895
-0.21487952769 -0.70502960682 -0.67584508657
-0.30874377489 -0.69694000483 -0.64726668596
-0.35222142935 -0.75277686119 -0.55610334873
-0.27028784156 -0.6385436058 -0.72055971622
-0.40259495378 -0.67221170664 -0.62132877111
-0.36277768016 -0.61608141661 -0.69917339087
-0.48004639149 -0.5943685174 -0.64518529177
-0.48279330134 -0.6844047904 -0.5463616848
-0.29357123375 -0.56423616409 -0.77165174484
-0.38745549321 -0.5227611661 -0.75933241844
-0.25050351024 -0.8232833147 -0.50935667753
-0.1925560981 -0.6493204236 -0.73573499918
-0.60381102562 0.58513957262 0.54130977392
-0.56975495815 0.47960704565 0.66737282276
-0.50828355551 0.62196260691 0.59561377764
-0.41568654776 0.57516759634 0.70451128483
-0.52534776926 0.58780866861 -0.61524015665
-0.50993031263 0.66277778149 -0.54837757349
-0.53539091349 0.18438071012 -0.82424247265
-0.58806347847 0.22048288584 -0.77818500996
-0.52825242281 0.27071288228 -0.80476897955
-0.60141795874 0.30235648155 -0.73950117826
0.77609312534 0.06813352555 0.62694770098
0.69003671408 -0.026392880827 0.72324758768
0.76421028376 -0.12152588367 0.63339817524
0.66733580828 0.16030594707 0.72726327181
-0.90466630459 0.10196290165 0.41370925307
-0.79645389318 0.23839512467 0.55556344986
-0.87452697754 0.28477630019 0.39245527983
-0.71528440714 0.38479378819 0.5832490325
-0.62721163034 0.37567549944 -0.68225961924
-0.69345140457 0.27933615446 -0.66415518522
-0.65981930494 0.19839397073 -0.72475600243
-0.41701418161 0.50374603271 -0.75652843714
-0.47567304969 0.55032747984 -0.68622994423
-0.501285851 0.47540920973 -0.7229834795
-0.56763237715 0.486204952 -0.66435873508
-0.46556985378 0.42721283436 -0.77506375313
-0.43021833897 0.37602138519 -0.82067644596
-0.51091903448 0.35091331601 -0.78473311663
-0.55273604393 0.40349209309 -0.72916197777
-0.46016088128 0.30938532948 -0.83219385147
-0.47911381721 0.23331589997 -0.84616553783
-0.64473748207 0.43799608946 -0.62648320198
-0.41990488768 0.26679980755 -0.86745131016
-0.36072292924 0.33352586627 -0.87099760771
-0.93170362711 -0.35684230924 -0.067921772599
-0.89085251093 -0.44036406279 0.11170073599
-0.9444000721 -0.28923416138 0.15650580823
0.71474474669 0.34185153246 -0.61013519764
0.64425671101 0.40865665674 -0.64648449421
0.69686192274 0.41729784012 -0.58328795433
0.39351779222 -0.048365876079 -0.91803336143
0.29559347034 0.0061334567145 -0.95528399944
0.31834471226 0.12153240293 -0.94015336037
0.41719329357 0.13653403521 -0.89846605062
-0.11815713346 0.64641147852 0.75377047062
0.033065792173 0.71825045347 0.69498765469
-0.11810264736 0.75961142778 0.63959467411
0.010788382031 0.59852659702 0.80105680227
0.017561409622 0.83564960957 0.54883050919
0.17471365631 0.76594740152 0.61856371164
0.18731285632 0.63001519442 0.75371724367
-0.26707974076 0.56242597103 0.7823767066
-0.24927328527 0.66030418873 0.70842325687
-0.14052188396 0.52588456869 0.83887368441
0.080697238445 -0.87224143744 -0.48208534718
0.11052843183 -0.8161008954 -0.56723725796
0.17604643106 -0.85465931892 -0.48838660121
0.25037074089 -0.81259042025 -0.52613389492
0.19843742251 -0.77906811237 -0.5944236517
0.25920981169 -0.85601752996 -0.4472412467
0.14929847419 -0.74357497692 -0.65175831318
0.061465900391 -0.75765866041 -0.64972883463
-0.73497581482 0.16581520438 -0.6575037241
-0.77412098646 0.075927138329 -0.62839198112
-0.82333546877 0.14472106099 -0.54877316952
0.40031248331 0.55380475521 -0.73008513451
0.46751758456 0.48759496212 -0.73735737801
0.31850033998 0.23416945338 -0.91835522652
0.29676437378 0.31813693047 -0.90006494522
0.37594380975 0.26559093595 -0.88755232096
0.20726622641 0.096432678401 -0.97351485491
0.23112136126 0.19888418913 -0.95221370459
0.12962415814 0.16969460249 -0.9769282937
0.035152662545 0.40853789449 -0.91205435991
0.13452969491 0.39564076066 -0.90849834681
0.10193267465 0.32454413176 -0.94035106897
0.43996563554 0.42120456696 -0.79310250282
0.46838951111 0.34390467405 -0.81385022402
0.51412886381 0.40549591184 -0.75580221415
0.43702608347 0.28059500456 -0.85442531109
0.54594016075 0.32520893216 -0.77211904526
0.59203177691 0.37416529655 -0.71378821135
0.61050778627 0.29799491167 -0.73379987478
0.50754511356 0.27001842856 -0.81822240353
0.66174352169 0.32325315475 -0.67646056414
0.55668371916 0.44806998968 -0.69952923059
0.68061381578 -0.26256728172 -0.68394327164
[...]
CELL_DATA 2894
SCALARS cell_data_0 double
LOOKUP_TABLE default
1.04871568369e-07
2.44595024241e-06
9.73967973038e-08
1.99554231654e-06
7.57867650037e-06
7.03190675586e-07
8.58079711105e-06
9.75593157292e-06
3.62497714504e-06
9.66874613753e-08
6.07443394828e-08
4.71763988015e-07
1.3472900831e-06
1.05327644292e-06
1.08153767507e-06
1.65744498572e-07
1.2720408006e-06
1.91423746111e-06
1.22924229842e-06
1.06259374392e-08
7.02909285034e-08
3.05300684846e-07
4.07227793779e-07
7.50610024516e-06
6.37343740622e-08
9.11354300593e-08
2.22991875699e-08
3.54778648167e-08
7.5088445101e-08
3.98623661242e-07
6.5232328386e-08
2.34996875465e-06
3.13510082906e-06
1.217938383e-07
3.88705874041e-06
2.40364010376e-06
9.69013772211e-06
4.0609075188e-06
3.39007592225e-06
3.49560214474e-06
4.32369321684e-06
4.95981626073e-06
4.0230276342e-06
7.29335690894e-06
5.10142234131e-06
8.71936757275e-06
5.80123746269e-06
6.05781807866e-06
8.29484320126e-06
8.94540397174e-06
5.18581425001e-06
5.14354107664e-06
8.17099325326e-06
3.58920743012e-06
5.65729643898e-06
4.33487271459e-07
6.70472209693e-07
1.06997971673e-07
1.38119461331e-08
7.58524545381e-06
2.82071315171e-07
4.14215617164e-07
9.28027704677e-08
2.35077513747e-07
1.26395724402e-07
5.50021687592e-08
1.83885100962e-07
3.82979772429e-08
5.07418990816e-07
6.31251732035e-07
5.15921617895e-07
1.27276902705e-06
2.33981192307e-06
1.83557451828e-06
1.46668630786e-06
3.41394002321e-06
1.36580352856e-06
1.16425680344e-06
1.78981817254e-06
4.12693684847e-07
5.3511381954e-07
1.38765506603e-08
1.0227362648e-07
8.39265726296e-08
5.19725928046e-08
9.62618409354e-07
8.21527321334e-07
4.10574392995e-08
9.21306619504e-06
7.47572369326e-06
9.3236869026e-07
9.78172662419e-07
1.68769325587e-07
5.98064085464e-07
2.48484754014e-07
4.25362283828e-07
3.406352106e-06
5.1119176851e-06
5.15317336186e-06
5.40888166864e-06
6.57794395222e-06
8.29464911238e-06
1.5583673711e-06
3.52385576666e-06
5.72422187221e-06
6.94058827973e-06
2.63370532233e-07
3.44902410383e-07
1.10967332732e-07
6.66102681918e-07
1.01504320852e-06
4.96054501132e-07
6.1708919332e-07
4.27249769589e-07
8.75506366897e-07
3.98588689167e-07
3.03172679931e-07
3.56467871512e-07
2.40132310007e-07
2.60470998471e-07
2.40115536603e-07
1.15689298942e-07
1.3200012459e-07
8.45547164357e-08
2.30743614629e-07
3.97788520328e-07
4.3459968799e-07
5.19293938692e-07
1.94225783509e-07
5.15544728748e-07
3.04539048827e-07
4.29527792146e-07
5.37495581379e-08
2.29990265846e-07
2.2914671387e-07
7.443421652e-08
1.17435979249e-06
2.73698973211e-06
2.79448944822e-06
3.57512264477e-07
8.39469486427e-06
2.60430171056e-06
4.40686902547e-06
4.00061045108e-06
3.96457420964e-06
3.98789856923e-06
4.85902863554e-06
4.56755563181e-06
1.46923344228e-06
4.28615327487e-06
4.1659973302e-06
5.98346309937e-08
9.46146458864e-08
2.75712322106e-08
4.54719063344e-08
6.4913039169e-06
6.66644089087e-06
6.55700669302e-06
6.78750358974e-08
6.61355333594e-06
4.27242328905e-08
2.49685481301e-06
2.9339594195e-06
4.4488484927e-07
4.99166063764e-07
3.34074892374e-07
1.63581693474e-07
1.12650315441e-06
3.99017396342e-07
5.21605304911e-07
4.06094211816e-07
7.73412367348e-06
2.12900076875e-07
8.67149123116e-08
3.7261266596e-09
1.87943067044e-07
2.75087066125e-08
3.84452031386e-06
5.14390163725e-07
4.29086408982e-07
8.21502515472e-07
3.35762075636e-07
1.24496883372e-07
7.18761146473e-09
5.53505417572e-08
1.05800304497e-07
5.09588485578e-07
8.05333756222e-07
1.27319077167e-07
5.18141473111e-07
1.04072733825e-07
2.89875207191e-06
2.27325490374e-07
1.48681230981e-07
2.23001999494e-07
2.17976346617e-06
1.41119387474e-06
9.39970943461e-07
1.23581563409e-06
5.88120354205e-07
6.99952938196e-07
3.11175719451e-07
1.76140553315e-07
2.43927900435e-07
4.17597358465e-06
3.32092524946e-07
1.05572087145e-06
2.35718563025e-06
2.84457971969e-07
1.40086347073e-06
1.27513672706e-06
3.50911016192e-06
3.89125500449e-06
5.91672204004e-06
8.32729353273e-06
5.61051712836e-06
1.89826639539e-06
3.3223592332e-06
8.81597334169e-06
1.39544423569e-06
3.02664050153e-06
4.43764665136e-08
5.31230433887e-06
6.71733838542e-06
8.2577079342e-07
1.30252484503e-06
5.86609516932e-07
1.22415880977e-06
7.32344126798e-06
1.38257153632e-07
2.31950415778e-06
1.90733418788e-06
4.4769888315e-07
1.47781062287e-06
1.8417760488e-07
1.79486419349e-07
1.38759022498e-07
3.03676901787e-07
5.80657903562e-07
1.06101680749e-06
4.65150409841e-06
5.33363229251e-06
3.14200228209e-06
3.33826367793e-06
3.52514169107e-06
2.97120471537e-07
3.99405163942e-07
1.29285992592e-07
1.65282693609e-06
1.48687114753e-06
3.52579896548e-06
3.27748128338e-06
5.09299222184e-06
4.33853106325e-06
2.80224776539e-06
3.25441346913e-06
8.76845609659e-06
7.2516817874e-08
1.63037206393e-07
1.92322660722e-07
7.54738530772e-07
4.78658297059e-07
3.38199456088e-08
5.34095223419e-08
7.55786165566e-08
5.64445223272e-08
5.45571295076e-06
2.97271647387e-07
2.13746081585e-06
1.73674126762e-08
2.68668823787e-08
2.47425112737e-06
2.55584975024e-06
5.15768445656e-07
6.91555293786e-07
5.84941702332e-07
1.13762555948e-08
1.39985417013e-06
2.07831015835e-06
5.30622253627e-06
7.22168114961e-07
1.2525899398e-06
1.4620317581e-06
4.02277244591e-09
5.01417415971e-08
7.4181395281e-06
4.63811951097e-06
4.22545617982e-06
4.00090877648e-06
1.36621427956e-08
3.65139398531e-07
7.06086696858e-08
9.01362698401e-08
6.04626404808e-08
6.95937014797e-08
3.85998676901e-08
7.14718279355e-08
3.95750733331e-08
2.57545070435e-08
2.5722181496e-08
5.03923976836e-09
3.37529104671e-08
1.00780645465e-08
1.12527710642e-08
2.20546576003e-08
2.27923951876e-08
1.98708689386e-08
2.43677141024e-08
6.90582559443e-08
1.67732196001e-07
2.75204525766e-08
4.62956979492e-08
6.38400075885e-06
3.55662404767e-06
3.45687006335e-06
3.85782237751e-06
2.89804045575e-06
3.09528874399e-06
3.75922996403e-06
3.21384920497e-06
1.55567474554e-06
1.81449992984e-06
1.44035433332e-06
2.40844082996e-06
4.1022280969e-06
5.85746842338e-08
7.18992501199e-08
1.01491829465e-07
2.18132735315e-07
9.88603031286e-07
3.61196310968e-06
7.53908250708e-07
1.34983311493e-06
1.27581447047e-06
8.41542599709e-07
9.29258013492e-07
4.42430983208e-07
4.34919475085e-07
3.96115936836e-07
6.39053258712e-07
1.9447811195e-07
5.25321279404e-07
1.63076580474e-07
4.4206038336e-07
6.80240261642e-07
3.56181187707e-07
4.16531653373e-07
4.05090678286e-07
4.73184908681e-07
3.18096186524e-07
2.54726794421e-07
6.90338377491e-08
8.89355080018e-08
1.85671791808e-07
1.78527329894e-07
1.48239872288e-07
5.44106275783e-08
2.00826801622e-07
3.56661907128e-07
2.54302779743e-07
2.29848198283e-07
1.74628383319e-07
2.42209113002e-07
1.59519439884e-07
1.89182608377e-07
7.99762403369e-08
2.18920444063e-07
2.7791262929e-07
5.78099401953e-07
3.14289105223e-07
5.26135136576e-07
4.83739568916e-07
2.41643261039e-07
1.04707503592e-07
1.77476496354e-07
1.22014346127e-07
1.67252131356e-07
2.8412456695e-07
2.85751281572e-07
1.179418679e-07
2.26667445349e-07
6.15479537455e-08
4.60769852134e-08
6.58976833258e-08
7.17456981483e-08
1.00311281061e-06
2.46425483798e-07
8.62759950766e-08
1.20959297653e-07
8.5601490709e-07
5.13375437525e-06
3.70704166058e-06
3.74097488012e-06
6.32330167335e-06
8.6016371744e-08
1.04263442606e-07
1.20965120218e-07
1.04918411477e-07
9.17006441669e-08
1.08737130213e-07
2.38027664887e-07
1.83998821065e-07
1.65251385767e-07
1.46583730269e-07
1.58821058754e-07
1.30886771929e-07
2.42736419187e-07
3.72269689873e-07
2.04105357457e-07
2.98954193178e-07
9.88834684284e-08
1.78045793505e-07
2.0500976593e-07
1.99217699247e-07
4.71298125596e-07
3.55124267743e-07
1.13766479941e-07
1.73574847705e-07
3.09663621409e-08
2.0843704981e-09
2.5461508057e-07
7.85023721987e-08
5.99242700261e-08
2.95609802125e-06
3.37556934843e-06
3.31980262381e-06
5.33870638454e-06
4.98420506489e-06
5.86794882268e-07
5.17992344757e-07
7.2598862259e-07
8.48009502895e-07
1.12330980391e-06
4.70423419469e-07
3.74399988672e-07
2.99225472919e-07
4.23487527313e-07
6.131975493e-07
6.00771546339e-07
3.71162180463e-07
3.4314019591e-07
2.78111528819e-06
1.42192485749e-06
1.95623246952e-06
2.71388090258e-06
3.68594547922e-06
7.69562380569e-07
8.00171354182e-07
5.81208835248e-07
2.96319238384e-06
3.86644478914e-06
2.90319156085e-07
2.65550112788e-07
2.53213284317e-07
2.43008465853e-06
2.36309336971e-06
2.22376084997e-07
2.25008461364e-07
2.39694486973e-06
3.47114935375e-06
5.17821408747e-08
2.95991633549e-08
1.02077497406e-06
1.02518264776e-06
8.14211240331e-09
8.05554309751e-07
8.74344754842e-07
2.51020201359e-06
2.5209468702e-06
1.23883771107e-06
1.06649618083e-06
1.47863581563e-06
3.29864561619e-06
7.8105748055e-07
8.39978755543e-07
1.26086733034e-07
1.31779839208e-07
6.05404011685e-07
1.26672398016e-07
1.58875826793e-07
2.39295360253e-06
2.64287189492e-07
2.47047414311e-07
3.24626341156e-07
2.31148018496e-07
1.97644250799e-07
1.19755680527e-07
1.34832202686e-07
1.49731503766e-06
9.60668338911e-07
2.64290332981e-07
7.91951303047e-07
3.16974220656e-07
4.95694657587e-07
2.5113097991e-07
2.32573448626e-07
2.97152427014e-06
5.14630179737e-06
8.20813605943e-07
5.33450142506e-06
1.47553606514e-06
2.05096206089e-06
1.65556149371e-06
1.32956184607e-07
7.31261471512e-07
3.60793368116e-07
2.48465613119e-07
2.47504812832e-07
3.67893335116e-07
5.29706451645e-07
2.6263163553e-07
1.62116450573e-07
1.87668800775e-07
6.46833014902e-07
3.94867275793e-06
7.31882684816e-07
5.78006763339e-08
7.59667068809e-08
8.26314223356e-07
8.74911128348e-07
1.4658064301e-07
3.62462624262e-06
1.30464547517e-06
9.97892791687e-07
4.36171067145e-07
6.20390528357e-07
4.1769359105e-06
1.40106402921e-06
2.17032804747e-08
3.6529269279e-06
1.67489257283e-07
1.84732373396e-06
9.30373397747e-08
2.4663829081e-06
1.41167639639e-06
2.43753704007e-06
1.92000011822e-06
1.66797027577e-06
1.14864597062e-07
2.34292815073e-06
7.49598447004e-08
1.00761413769e-07
7.20632052948e-08
8.91548917546e-08
4.93898938071e-08
1.67578282111e-06
4.17313960934e-08
3.74603159966e-07
4.511299723e-06
2.07892729663e-06
1.01325995093e-06
2.04454005635e-07
3.03857350781e-07
2.8641408273e-06
2.80139634957e-06
1.8306873209e-07
2.08465128274e-07
2.23189419102e-07
3.19072301514e-06
3.04700454949e-07
6.51970084004e-07
3.11468399359e-06
2.66547602799e-07
5.31669349138e-07
8.61678083639e-08
2.97291969021e-07
2.22473782044e-07
1.72659668773e-07
2.9230453667e-06
1.89618273792e-06
2.06650534529e-09
4.2161410818e-07
7.81319135057e-07
1.10276381824e-06
7.28917385671e-07
6.98916812716e-07
1.01874813606e-06
1.37611557426e-06
9.00294535438e-07
8.45440408851e-07
3.1054945378e-07
3.03770202658e-07
4.59896689534e-07
4.40669525701e-07
5.30525233654e-07
4.75323349017e-07
2.26450142852e-06
1.55887462887e-07
2.25936492443e-06
6.17912874579e-07
2.38450553915e-06
3.60511418551e-07
2.5984015589e-06
8.09275269787e-07
5.78494304758e-07
2.75804033522e-06
5.30248730183e-07
9.65362758416e-07
2.52162953602e-06
5.88846809428e-07
6.56497659812e-07
3.46806006489e-06
4.54459736912e-07
7.63463952292e-07
2.67988174917e-06
2.10381070183e-06
2.42551390907e-06
5.2044663137e-07
2.18268675593e-07
2.42201412585e-06
2.03844685132e-06
7.02499505803e-07
2.88300404905e-07
7.68006519301e-07
1.23919781349e-06
6.39894181808e-07
2.75575755057e-06
2.43812450895e-06
5.76883882102e-07
3.38784749728e-07
1.931192536e-07
3.37285489999e-06
5.17596810692e-06
3.12815394962e-06
2.46181216315e-06
1.94319826551e-06
1.79832987712e-06
1.54962774686e-06
1.58203481656e-07
3.44097117423e-07
4.52296123034e-07
4.74668486537e-07
5.10819506787e-07
6.95253916793e-08
1.27245990829e-07
2.20636198079e-07
1.83844868819e-06
1.13462598954e-07
8.00502117555e-07
8.66071579012e-07
4.43497941525e-08
9.24022716988e-08
3.63617908692e-08
8.30078645871e-08
3.29410738481e-08
9.37557402712e-08
2.66063478053e-08
1.61218227069e-06
1.36939460202e-06
1.86573051682e-07
3.51051835636e-07
7.25700072477e-07
1.65636969518e-06
1.86732506126e-07
2.66233138181e-07
1.83915756583e-07
4.14306498906e-07
1.03354806654e-07
1.24310316245e-07
8.23341597763e-07
1.11752113995e-07
5.39670130332e-07
2.86510591327e-07
1.33022990014e-06
1.06482675168e-08
6.41647618936e-07
2.91507369319e-08
1.08890740255e-07
1.91662374463e-07
8.86263512605e-09
7.6626762005e-08
1.12844616873e-07
1.23946659685e-06
1.44159829471e-07
3.71069671224e-07
5.43194152243e-08
3.3044857444e-07
2.70928110212e-07
2.19909005819e-07
4.15309138685e-07
1.57852046562e-07
9.45156616812e-08
1.30658859748e-06
4.03840085089e-06
2.70510125021e-07
5.43687679666e-07
1.2457616828e-07
1.73052351184e-06
6.05616976101e-08
1.88233837207e-08
8.88870695374e-07
1.72875472857e-06
1.51362998382e-06
1.73704641986e-07
3.51928411944e-06
4.0677789619e-07
2.36003759515e-07
8.72330676836e-08
1.4700241537e-07
4.77424009061e-08
9.00931013248e-07
3.70521221058e-07
1.46610106254e-07
9.76152287893e-07
7.65304284052e-07
6.40455568776e-07
1.34833891379e-07
1.80023891147e-07
1.12419661946e-06
3.02053316629e-06
2.07709683915e-06
1.66192764074e-07
3.83765756564e-08
1.09578893285e-09
3.40220914124e-06
1.11425266495e-06
1.31825235195e-06
4.837299563e-07
2.87541611101e-07
2.27073835216e-07
5.4589789821e-06
3.3383573728e-07
4.53399303248e-07
3.37734756227e-06
2.20336840302e-06
1.92853942121e-06
7.30623067316e-07
2.04365736111e-06
2.00449740311e-06
8.935225618e-07
8.78706182138e-07
2.18493008766e-06
5.3002954243e-06
3.03479226936e-06
2.97342881923e-06
6.58646730288e-07
7.30174613005e-07
1.24891694106e-06
2.55174180066e-06
1.10042303577e-06
1.4226865459e-06
1.46010023281e-06
4.5429022587e-07
6.76624320128e-10
3.27301762159e-08
2.7074300641e-08
3.41096997459e-08
1.10179125137e-07
1.82366056858e-08
9.35479942277e-08
6.49649421827e-08
1.06205065317e-06
9.30582890667e-08
5.25750238431e-07
7.26841633263e-07
1.16469408625e-07
1.22071257744e-06
1.62559348722e-06
7.07890039286e-07
2.96145100369e-07
6.90196573096e-07
3.38006435219e-07
6.84821254859e-08
2.9849447738e-07
1.09303230101e-07
5.36216758606e-08
1.39909989492e-06
8.95873983946e-08
1.57868399362e-07
1.31697667043e-08
3.10796057072e-07
1.84841759685e-07
2.26880913561e-07
1.0310360114e-07
2.98672889616e-07
7.38993500474e-07
1.38754542112e-06
9.72287246557e-07
1.44900707021e-06
1.13413869294e-06
1.64841015323e-06
3.2529430692e-08
8.28304001911e-07
8.24628152598e-07
7.10746301567e-06
2.47444184373e-06
4.86827119403e-07
6.06689904946e-07
4.05651117526e-07
1.01001827481e-06
5.02697261579e-07
2.36372051199e-07
2.6679703879e-07
2.5013005613e-07
3.2928395058e-07
7.57066350585e-07
1.80844325252e-07
4.75741666988e-06
1.02604248997e-07
4.16691589644e-07
6.16461062409e-08
7.81909202559e-07
3.74241011632e-06
2.79980595374e-06
2.56971964766e-06
1.61085063739e-06
1.40401980408e-06
1.76578289016e-06
1.28311811014e-06
5.36152406181e-06
6.01688822578e-06
6.09404056752e-06
8.39664620071e-06
4.34504182006e-06
2.98406452973e-06
3.27796537655e-06
2.23799769715e-06
1.69355135995e-06
1.67423234195e-06
2.16578328813e-06
2.50133901151e-06
4.19004904048e-06
4.04972385001e-06
5.61009117277e-06
6.05163418049e-06
5.12192543465e-06
3.74257769933e-06
2.50967159803e-06
3.89527146002e-06
3.4126198513e-06
3.56000049636e-06
4.92102415809e-07
4.08611783193e-06
5.13439458837e-06
6.55331684611e-06
2.25351220753e-06
3.19625256735e-06
4.07776054704e-06
9.63075990153e-07
1.00571267135e-06
1.08705113796e-06
1.89666891878e-06
1.87723356007e-06
1.49533289866e-06
2.01929087599e-06
1.35251309839e-07
1.04343064176e-06
1.64547629347e-06
2.77892595195e-06
1.52365998928e-06
1.17062116551e-06
8.72471010578e-07
1.7991801121e-06
3.14313435538e-07
2.47655912939e-07
5.91175861694e-07
6.49932089199e-07
4.13671434274e-07
9.75427757699e-07
1.13224455504e-06
1.05994541517e-06
1.02658267444e-06
6.68606717214e-07
8.9776163965e-07
3.76772234096e-07
1.86879288661e-06
4.77110158061e-07
3.02655536706e-06
2.08283952482e-06
3.04502057617e-07
1.18981293329e-07
2.56783002634e-06
1.21968225443e-06
6.54955256736e-07
9.38600423237e-07
8.59088645191e-07
9.32661744813e-07
1.24641539115e-06
1.02667758368e-06
1.05739785669e-06
1.8559374235e-06
2.53269088304e-06
6.53816332816e-07
2.48877833799e-06
2.16329698807e-06
1.40894129585e-06
1.2774772146e-06
1.77361220858e-06
1.21694378741e-06
1.22645786528e-06
1.01948454022e-06
5.34894827477e-08
3.22844967858e-08
1.79833138631e-06
5.72811345864e-06
5.08637951821e-06
2.74692347825e-06
1.87467390493e-06
2.08555782483e-06
2.73383421126e-06
2.76870231679e-06
1.55151504899e-06
1.23948035692e-06
3.46147639321e-07
5.45090584128e-07
3.90931945732e-07
7.64579460356e-07
9.97514537897e-07
2.29353082526e-06
6.33413725146e-06
4.10402381409e-06
7.60897728566e-06
7.23012100219e-07
4.44564957041e-06
9.04595234685e-08
2.29420770596e-07
1.3626860961e-06
2.85943384031e-07
6.86483231614e-07
8.62961320296e-07
3.78254637665e-07
5.0458199222e-07
1.62079514624e-07
3.84930535859e-07
4.30777911391e-07
1.04654012299e-07
1.38942345396e-07
1.13623583575e-07
1.7571478966e-06
5.44159114798e-07
4.36432416263e-07
1.62210706543e-06
5.19024526106e-07
2.99990037113e-08
5.44509652874e-08
3.77619271467e-08
3.84404274335e-07
5.42841131787e-08
1.07798914019e-06
1.60134204765e-06
2.13216507691e-06
1.5390987276e-06
3.31154098397e-06
2.29187812164e-06
6.7125971087e-08
7.56837989077e-08
1.53045009737e-07
1.15247477689e-06
8.63039214251e-07
1.55199115919e-06
7.7786537658e-07
5.41176241088e-07
7.77351553492e-07
1.03057458752e-07
4.61728565202e-10
1.01772765359e-07
1.94412985492e-06
2.43005745105e-06
5.69438003151e-08
1.11113038723e-07
6.15271638512e-06
1.47468159048e-06
2.2463117439e-06
4.91140210972e-06
1.43681246337e-05
8.3253980011e-06
8.57979010542e-06
9.0533198581e-06
1.63139146467e-05
1.37267467938e-05
7.54003127494e-06
5.12277518869e-06
4.49841701547e-06
3.95454983662e-06
4.36251953196e-06
1.05988594624e-05
1.52746723532e-05
8.91217169417e-06
9.12508134593e-06
1.12475585809e-05
1.97069358831e-05
1.26239079599e-05
1.01450657059e-05
5.50426981452e-06
7.32919857307e-06
4.48206875828e-06
3.35573196256e-06
6.16006862905e-06
5.65578215452e-06
4.34369003206e-06
6.29176433736e-06
3.56904920108e-07
7.44090880926e-06
7.79912716096e-06
1.10419672066e-05
9.86995530844e-06
4.15907427285e-07
4.0609410825e-07
1.73452559616e-06
2.88982993239e-06
1.28473997568e-06
1.3884866552e-07
4.39840449854e-07
5.00672714456e-07
6.68526682675e-07
2.99518691653e-07
4.42936254403e-07
3.53248109367e-07
3.48358212227e-07
5.98185521442e-07
7.55470064921e-07
7.60911404465e-07
1.75474729014e-07
1.75169279408e-06
1.90496929122e-06
1.43124088506e-06
7.35139504974e-07
6.53208388896e-06
5.35579686589e-06
2.03403079202e-06
5.74969783347e-07
1.32634406345e-07
2.56005230806e-06
1.89862160412e-06
3.64034746356e-06
4.27022587624e-06
2.90899387766e-06
3.01315105912e-06
3.13862718591e-06
3.47512561285e-06
3.30599974653e-06
8.38456662575e-06
8.99444711634e-06
9.17032354757e-06
7.56738930651e-06
7.97936180958e-06
8.20387138301e-06
7.41313880104e-06
8.84304108006e-06
8.26935845975e-06
8.6691193838e-06
6.74586280526e-06
2.54918828747e-06
6.87666389084e-06
6.53942269099e-06
2.84323647516e-06
3.12168474717e-06
3.06085104823e-06
1.39263314244e-06
2.83444567769e-06
2.33973436639e-06
3.66951001305e-06
5.23558800867e-07
1.01750084828e-06
4.83916721546e-07
4.54592371837e-06
1.25654814298e-05
8.33942259251e-06
7.69658871247e-06
5.92725285319e-06
5.00015720446e-06
1.08749899169e-05
7.93447903628e-06
3.5183232936e-06
3.44719010149e-06
1.40918601208e-06
1.81474282887e-06
8.11181928432e-07
6.65550536212e-06
7.61701229716e-08
8.26513982444e-06
2.85898164476e-07
2.55957973862e-08
9.98033770232e-09
3.06497788157e-06
1.56920799044e-07
5.24276467558e-06
1.26572720108e-07
8.2727774741e-06
8.13001769596e-06
6.58937655616e-06
4.47728568936e-06
4.64527317236e-06
4.48708792241e-06
5.08358517626e-06
5.01876855185e-06
4.66551995434e-06
3.15460010945e-06
3.50529919153e-06
3.43697453612e-06
4.02040300025e-06
6.48486748731e-06
5.80597935798e-06
5.16063373844e-06
4.94201075313e-06
5.22191329557e-06
8.55915256396e-06
4.10031030052e-06
6.06511084931e-06
4.65362877112e-06
5.03309517158e-06
4.70835678853e-06
3.33806148179e-06
3.80855387371e-06
3.82881956787e-06
2.08785157631e-06
4.01056532601e-06
1.88420236691e-06
2.13086325096e-06
2.41960549946e-06
2.29989138179e-06
2.74183689702e-06
2.73632429885e-06