# vtk DataFile Version 3.0
File Name: Molecule/sphere_excent/sphere_excent_0-s50.vtk
ASCII
DATASET UNSTRUCTURED_GRID
FIELD FieldData 1
TIME 1 1 double
0.0
POINTS 906 double
-0.54311817884 0.80691534281 -0.23206414282
-0.66992467642 0.72965794802 -0.13362263143
-0.56494444609 0.82336050272 -0.053138799965
0.39161539078 0.8645786047 -0.3135804832
0.43577793241 0.88741356134 -0.15039399266
0.54568809271 0.78928118944 -0.28139236569
0.38938450813 -0.45932707191 -0.79837691784
0.51040440798 -0.51268231869 -0.69031751156
0.36804673076 -0.59418302774 -0.71518039703
0.86350816488 0.084898814559 -0.49709174037
0.79608660936 0.18623179197 -0.57562470436
0.8415209651 0.24833004177 -0.47976633906
0.8821465373 -0.076363161206 -0.4648219943
0.82484716177 -0.0042160702869 -0.56516283751
-0.25492110848 -0.87835127115 -0.40433213115
-0.14867331088 -0.87879288197 -0.45345160365
-0.17475351691 -0.92469108105 -0.33817923069
0.29849430919 -0.70348906517 -0.64498567581
0.17720979452 -0.74119263887 -0.64748442173
0.22691553831 -0.64434999228 -0.73028284311
-0.41863065958 0.15604922175 -0.89463424683
-0.51262289286 0.10791563988 -0.85178214312
-0.50499403477 0.19363190234 -0.8411256671
0.56793272495 -0.098287820816 0.81702452898
0.53622198105 -0.34818354249 0.76879411936
0.67664545774 -0.23088170588 0.69900166988
0.91373574734 0.14653000236 0.37882399559
0.8862067461 0.04012799263 0.4613879025
0.95051246881 0.03667363897 0.30847653747
0.38467344642 -0.44550147653 0.80827271938
0.38696685433 -0.26886841655 0.88157469034
0.50871700048 -0.57154804468 0.64373856783
0.62667089701 0.44058972597 0.64249849319
0.54656618834 0.33734577894 0.76522928476
0.73323297501 0.28125032783 0.61900448799
0.11436283588 -0.25465455651 -0.96013665199
0.11578680575 -0.37453249097 -0.9199501276
0.014513365924 -0.29702803493 -0.95475178957
-0.18917888403 -0.37762308121 -0.9064283371
-0.13006928563 -0.44990512729 -0.88353908062
-0.21449325979 -0.44508260489 -0.8694204092
-0.19828008115 -0.51149642467 -0.83607429266
-0.12736812234 -0.61650854349 -0.77699118853
-0.19938644767 -0.58178019524 -0.78853100538
-0.093895852566 -0.54467916489 -0.8333504796
0.039639029652 -0.52052533627 -0.85294234753
0.010967844166 -0.58939701319 -0.80777841806
0.12960493565 -0.58752739429 -0.7987691164
0.9267578125 0.0019496468594 -0.37570890784
0.83508640528 0.48624631763 0.25710454583
0.87734270096 0.46426019073 0.12114338577
0.80178952217 0.58517366648 0.12139332294
0.88638830185 0.34475028515 -0.30899077654
0.89501053095 0.37942361832 -0.23448519409
0.92606192827 0.29921534657 -0.22995063663
0.84839773178 0.43230351806 -0.30550336838
0.88381969929 0.28644064069 -0.36986038089
0.84159725904 0.36472812295 -0.39839175344
0.88868814707 0.15890097618 -0.43007901311
-0.33720201254 -0.35324496031 -0.87263709307
-0.26142320037 -0.31041938066 -0.9139482975
-0.2762850523 -0.40264159441 -0.87264978886
-0.38386794925 -0.26333785057 -0.88501989841
0.0011236268329 -0.3781811595 -0.92569565773
-0.46102836728 0.62687802315 -0.62807017565
-0.3575066328 0.66553717852 -0.65516543388
-0.38598996401 0.58253520727 -0.71530407667
-0.27256259322 0.61565560102 -0.73937505484
-0.25971758366 0.69958972931 -0.66566574574
-0.4960732162 -0.30656456947 -0.8123421073
-0.58859217167 -0.23305526376 -0.77409648895
-0.47305637598 -0.17493586242 -0.86348462105
-0.60106533766 0.039599254727 -0.79818326235
-0.70340073109 -0.041795555502 -0.7095400691
-0.6813313961 0.091615498066 -0.7262224555
-0.76728600264 0.050578199327 -0.63930273056
-0.7955442071 -0.094360150397 -0.59851443768
-0.59154957533 0.140181005 -0.79397165775
-0.15411111712 -0.12869974971 -0.97962737083
-0.11464834213 -0.041318904608 -0.99254477024
-0.043548803777 -0.11044389009 -0.99291723967
-0.0096006281674 -0.0036149816588 -0.999804914
-0.28598579764 -0.22140429914 -0.93228715658
-0.3556972146 -0.16725505888 -0.91949498653
-0.18654258549 -0.2191503197 -0.95768731833
-0.24918243289 -0.14826625586 -0.95703202486
-0.20287106931 0.55373030901 -0.80760598183
-0.31225475669 0.52020353079 -0.79491460323
-0.28367933631 0.41160458326 -0.86607432365
-0.36883446574 0.43479636312 -0.82153689861
-0.07283052057 0.55822890997 -0.82647800446
-0.14961329103 0.61935257912 -0.77072638273
-0.33624890447 0.077670440078 -0.93856555223
-0.24981203675 0.15651077032 -0.95554578304
-0.2375780046 0.067817956209 -0.968980968
-0.44058588147 0.064545810223 -0.89540177584
-0.37973082066 -0.58511006832 0.71607613564
-0.30849528313 -0.48552754521 0.81798583269
-0.47891637683 -0.42449396849 0.7683352232
-0.43645361066 -0.12267557532 0.89129376411
-0.25497210026 -0.16923381388 0.95201790333
-0.33060923219 -0.012859256938 0.94368004799
0.11032710969 -0.0039843390696 0.99378412962
0.037371333688 -0.1313405484 0.99063509703
0.1669626832 -0.11135268211 0.97962725163
0.12545987964 -0.26393544674 0.95635062456
-0.014655877836 -0.24815288186 0.96862024069
0.25942757726 -0.19519895315 0.94581121206
-0.0014219245641 -0.39120137691 0.92027890682
0.14101856947 -0.40949639678 0.90135580301
0.084018029273 -0.55723726749 0.8260269165
0.26039934158 -0.34104707837 0.90328067541
-0.13097973168 -0.30000573397 0.94487887621
-0.13249734044 -0.49006468058 0.86155790091
-0.26049175858 -0.35293877125 0.89865332842
-0.21203939617 -0.61698907614 0.75786662102
-0.48893740773 0.027324223891 0.87189519405
-0.48419696093 0.21195051074 0.84884172678
-0.37585109472 0.12450172007 0.91828584671
-0.60376644135 0.10213919729 0.79059112072
-0.32630297542 0.26420393586 0.90758275986
-0.43004009128 0.39911386371 0.8097974062
-0.24536728859 0.40156286955 0.88207870722
-0.26293635368 0.12283097953 0.95672953129
-0.19424438477 -0.044376119971 0.97962415218
0.30159652233 -0.035308968276 0.95265907049
-0.04024785012 -0.050247166306 0.99769896269
-0.10594008863 -0.15073898435 0.98287725449
-0.61838513613 0.29664087296 0.72756195068
-0.62292635441 -0.11254565418 0.77410823107
0.23983749747 -0.48900476098 0.83864611387
0.310315907 -0.63370263577 0.70847576857
0.42796161771 0.05891950056 -0.90176683664
0.52085220814 0.10458391905 -0.8472520709
0.50606548786 -0.038590352982 -0.86165463924
0.14375144243 -0.48663291335 -0.86171150208
0.2590945065 -0.53914558887 -0.80136686563
0.24840269983 -0.425978899 -0.86996227503
0.6148096323 0.10709325969 -0.78130871058
0.58961981535 0.20761156082 -0.78055912256
0.68422722816 0.15506219864 -0.71255522966
-0.12290385365 -0.75064843893 -0.64917236567
-0.13330288231 -0.6844933629 -0.71672308445
-0.056778099388 -0.70039278269 -0.71147733927
0.039721786976 -0.44510126114 -0.89453238249
0.11796928197 -0.68236118555 -0.72143232822
-0.021017046645 -0.79787015915 -0.60242593288
-0.15201665461 -0.81298595667 -0.56208753586
0.36894029379 0.4937210381 -0.78746825457
0.37320876122 0.36286014318 -0.85384184122
0.29768121243 0.43869397044 -0.8478910327
0.27070742846 0.32984036207 -0.90439289808
-0.23826484382 -0.76292175055 -0.60097813606
-0.2114662677 -0.70093715191 -0.68115395308
-0.30393353105 -0.69440096617 -0.6522474885
-0.35247081518 -0.75288897753 -0.55580151081
-0.26620051265 -0.63352406025 -0.72647768259
-0.39717176557 -0.67287623882 -0.62409216166
-0.35876774788 -0.61409670115 -0.70298552513
-0.47549507022 -0.59429711103 -0.64864379168
-0.48094767332 -0.68655204773 -0.54530757666
-0.28926801682 -0.56030958891 -0.7761245966
-0.38309568167 -0.52045840025 -0.76311212778
-0.25128892064 -0.82548028231 -0.50538116693
-0.18846838176 -0.64388155937 -0.74154394865
-0.62377631664 0.57846987247 0.52561724186
-0.56199085712 0.47991839051 0.67358672619
-0.47619941831 0.66033798456 0.58010530472
-0.40318071842 0.60433018208 0.68682253361
-0.56987047195 0.58262950182 -0.57924616337
-0.51184135675 0.66278880835 -0.54656869173
-0.43513047695 0.2435298115 -0.86680561304
-0.5115916729 0.27216482162 -0.81496399641
-0.57542943954 0.22591727972 -0.78603035212
-0.59780728817 0.30678650737 -0.74060797691
0.78055804968 0.083370119333 0.61948215961
0.68690770864 -0.026242835447 0.72626113892
0.76854640245 -0.11976119131 0.62849014997
0.65129315853 0.16573886573 0.74028629065
-0.90264445543 0.11036942154 0.41590550542
-0.78274220228 0.23497591913 0.5759999752
-0.8704662323 0.28887549043 0.39836549759
-0.73892343044 0.40761521459 0.5363689661
-0.63031238317 0.38190710545 -0.67590528727
-0.69087857008 0.28535783291 -0.66428083181
-0.65282166004 0.20507805049 -0.7292342186
-0.41765317321 0.49848812819 -0.75965237617
-0.49254563451 0.54474854469 -0.67869389057
-0.50608479977 0.46898639202 -0.72382086515
-0.58003968 0.47788140178 -0.65965354443
-0.46354305744 0.42455786467 -0.77773118019
-0.42511251569 0.37541857362 -0.82361727953
-0.50687599182 0.35141712427 -0.78712391853
-0.55601614714 0.3993858695 -0.72892767191
-0.44855231047 0.3125923574 -0.8373195529
-0.65257233381 0.44629639387 -0.61226558685
-0.35680037737 0.33050474524 -0.87376183271
-0.9303907752 -0.35793051124 -0.078853406012
-0.89143401384 -0.44015702605 0.10774464905
-0.96353513002 -0.23356926441 0.1305911392
0.70683777332 0.34711247683 -0.61634874344
0.64036905766 0.42624095082 -0.63893759251
0.71078795195 0.42696654797 -0.55897378922
0.1429489851 0.38947048783 -0.90987288952
0.17903132737 0.30329060555 -0.9359228611
0.2278932929 0.20133219659 -0.95263326168
0.33698260784 0.22534826398 -0.91406905651
0.25973415375 -0.006903951522 -0.9655354619
0.31261503696 0.097218059003 -0.94492590427
0.38726434112 -0.060428861529 -0.919955194
0.42904764414 0.16542904079 -0.88794589043
-0.1358538717 0.63991582394 0.75631958246
0.034495152533 0.71740967035 0.69578456879
-0.14183758199 0.76701033115 0.62553620338
0.024653775617 0.5702586174 0.82082569599
0.013008457609 0.84817618132 0.52910339832
0.20012633502 0.77535897493 0.59834194183
0.21130266786 0.59268045425 0.77715587616
-0.28115415573 0.53525215387 0.79647535086
-0.26482731104 0.68213504553 0.6812338233
-0.1298917532 0.50705730915 0.85202747583
0.40062987804 0.54478615522 0.73622041941
0.33318534493 0.43324762583 0.83696192503
0.19595570862 0.39211940765 0.89866942167
0.068721093237 -0.88108479977 -0.46768155694
[...]
CELL_DATA 1808
SCALARS cell_data_0 double
LOOKUP_TABLE default
8.39113722114e-07
5.38482812766e-07
7.18669889535e-06
1.67884607497e-05
1.4109431301e-05
7.0679143768e-08
2.13748549858e-05
1.75945254941e-06
7.48056353708e-06
1.5366572928e-06
5.95161767486e-06
9.23233247666e-06
1.66272117496e-06
1.0575170413e-05
3.67187344928e-06
1.95880266512e-07
2.35739542876e-06
3.12357309313e-06
6.7325267927e-06
3.01639279824e-08
2.68289148419e-06
1.36560881246e-07
1.57235588454e-07
1.21630554674e-06
7.06264434312e-08
3.51713024389e-06
3.31860056881e-06
7.91435150054e-06
2.34254478731e-08
5.23848715925e-06
1.10994524255e-05
1.83827844423e-07
1.36550185862e-07
2.39130035005e-08
1.25240748736e-05
9.24149373699e-06
2.173655743e-08
2.10111678788e-06
8.6444424839e-06
1.07099470937e-05
5.44340878516e-06
1.19839802671e-05
1.09292877709e-06
1.64178810631e-06
8.52398248306e-06
2.45909061326e-06
1.09530358829e-05
1.64854468648e-06
5.20729057543e-06
6.98557295054e-06
1.07952932173e-05
6.29522912498e-06
1.1609508375e-05
5.29120541538e-06
1.25832994077e-05
5.96615570181e-06
1.30015088685e-05
5.38471423943e-06
1.0708483915e-05
7.07510627043e-06
6.5044386282e-06
1.71987235716e-05
7.94132759807e-06
1.28661950238e-05
1.5357972421e-06
5.19330013813e-06
1.17534107608e-05
1.2661149114e-05
4.68381401324e-06
1.15909589287e-05
5.93849877142e-06
1.05715820532e-05
1.06960790355e-05
1.37552364062e-05
1.21621836086e-05
4.00277186119e-06
1.08024834813e-05
1.04419646743e-05
6.55582818484e-06
1.32255596093e-05
6.64985964734e-06
6.06270020214e-06
5.91816607105e-06
7.02592409943e-06
6.49826816574e-06
4.65766937422e-06
5.40719820909e-06
7.46616957004e-06
1.06190570133e-05
1.00873307275e-05
4.1204783579e-06
4.87786439804e-06
5.11281962652e-06
4.23276548595e-07
1.02867829876e-05
4.39537440448e-08
6.8699106366e-06
5.63900514447e-06
7.7127662766e-06
8.50231988154e-06
6.03967889728e-06
5.94713470077e-08
5.68605773829e-06
1.067117399e-05
6.95793323727e-06
5.41835565959e-06
8.14043999547e-06
8.79649307543e-06
8.88943896192e-06
1.22773126617e-05
1.95877992011e-08
5.35957366445e-07
1.07424519821e-05
7.97205530758e-08
2.7548478332e-08
2.43677711456e-08
1.73131377112e-08
3.16047930142e-08
2.01850512958e-09
1.75486961584e-08
3.26069675387e-07
8.04407076611e-09
2.08901527753e-06
4.13410670907e-08
6.51947501984e-08
4.98933632915e-10
1.11963532362e-05
7.91880063e-06
8.2906274946e-08
5.53818984457e-08
5.51799215489e-08
3.70634048871e-08
3.18041298306e-08
1.97783820866e-06
6.25387845793e-06
7.51379283566e-08
4.56653471141e-08
3.93505737393e-08
7.53021343548e-06
1.76649702516e-07
1.4994143837e-07
1.27423672469e-07
4.41909489311e-06
5.46172120346e-06
4.1645830938e-06
6.06084914632e-06
6.46855171451e-06
7.21357368571e-06
3.8043001649e-06
5.95770751256e-06
7.03225974946e-06
6.89480753332e-06
4.77723056553e-06
9.75923592016e-08
1.25885485584e-05
9.71152782884e-08
2.31137903828e-07
2.35466259818e-07
1.98025470801e-07
1.00813344106e-07
1.69993081247e-08
7.47473636681e-08
1.80388670147e-07
1.29937738686e-09
3.25845344537e-07
2.61213752317e-07
1.04049391251e-07
9.37308439982e-08
4.91346508585e-08
4.38818637202e-08
4.08271043204e-08
1.68939821159e-09
6.84702276087e-08
1.42147801879e-07
6.23453749931e-06
1.54729573091e-07
5.69122584959e-08
1.68627894709e-07
6.63543688127e-08
1.56022723668e-07
1.38444505369e-05
2.11263215349e-06
2.83442487933e-06
6.5145622539e-06
1.92686896341e-06
5.72044034832e-07
1.18113735828e-06
2.47699202459e-06
1.81984948123e-06
2.84640779836e-06
3.27108489687e-06
3.19298972226e-06
1.61642422022e-06
6.05074231578e-06
7.31043214351e-06
5.414275715e-06
5.67056456912e-06
8.36892174912e-06
8.09332492992e-06
3.7103418517e-06
6.1104506815e-06
5.21850397534e-06
6.21243941392e-06
6.24170115373e-06
6.29000985794e-06
6.73576566062e-06
1.25561522407e-05
3.32969806014e-06
5.5120587265e-07
1.14475950524e-05
1.45855049454e-07
2.16805829306e-05
1.00489719252e-05
5.43071769709e-07
9.25386097023e-07
5.78611481911e-07
5.98857399349e-07
1.62296284623e-07
2.15608886231e-07
2.80632857431e-06
2.02135325913e-07
6.42020772141e-07
1.41559317094e-06
2.83680291446e-06
1.20344763362e-06
2.05886463938e-06
2.13699404874e-07
3.32104272951e-07
7.63812636564e-07
6.28036957153e-07
1.00782567839e-06
7.46929826818e-07
6.89147220474e-07
5.54708076152e-07
5.71957271141e-07
3.53255083601e-07
2.32372407114e-06
1.11374112922e-06
3.26010101315e-06
3.18382700947e-06
4.92982977424e-07
1.0060133802e-06
4.92388209153e-07
3.35850517113e-07
2.8742892935e-07
2.63893932755e-07
2.50228279287e-07
3.52914324571e-06
6.80994203246e-06
3.71263714752e-06
5.06636263693e-06
4.00400134458e-06
4.22751449677e-06
1.488860545e-06
2.25548035035e-06
1.64358292735e-06
1.30375856768e-06
5.4330821789e-08
6.83997665559e-06
6.52688336275e-06
9.27743255495e-07
3.90229836664e-07
1.76261437212e-06
5.29382110308e-08
1.20772979023e-05
8.76509688262e-07
4.18448838847e-08
1.4440445405e-07
5.40360237622e-08
7.28329726517e-09
2.69766614014e-07
4.37329409363e-07
1.35304877027e-07
7.18102664013e-08
2.37448343669e-07
3.14627214167e-07
9.07265554761e-08
1.76644197663e-08
6.25718215096e-07
3.47316116439e-08
2.781847495e-09
7.45611813062e-08
2.87719653613e-08
4.93764120296e-07
2.79272569004e-07
2.53644665134e-07
3.15389197313e-07
3.36590677975e-07
2.72454185218e-07
2.18269516734e-07
1.20273303839e-07
1.19696029174e-06
1.00937561092e-06
1.25414148545e-06
1.13880819804e-06
1.10320964144e-06
2.06189377089e-06
1.22858828397e-07
4.03789844968e-07
4.29870529527e-07
6.06031674999e-07
3.26112216015e-07
6.97626871158e-07
6.02535462412e-07
5.78464924012e-07
4.46741583619e-07
7.94487064172e-07
2.36078129005e-06
1.58447598336e-06
1.70298022778e-06
2.29689441253e-07
3.40982757155e-07
3.4338977674e-06
6.01383551773e-06
2.47198711914e-06
1.49967636895e-06
3.21477933005e-06
1.59776160175e-06
1.87504584424e-06
9.02696635144e-07
1.94867198435e-06
1.60788772035e-06
2.27064045487e-06
1.73075886793e-06
2.04246845193e-06
1.90631335617e-06
2.12830667338e-06
1.37448593095e-06
1.83920857591e-06
3.12477551801e-06
2.75575770238e-06
1.16662287985e-06
6.77214214013e-06
7.66011170185e-06
7.89651158616e-06
7.88709317173e-06
5.35184318165e-07
8.94983715376e-07
2.14076459785e-07
3.80786582013e-06
2.499844238e-06
2.50368002104e-06
5.09506818539e-07
7.47448065076e-07
9.01822038244e-06
2.27758181522e-05
8.1880146166e-06
1.31722796019e-05
3.96451037558e-06
5.57063781529e-06
1.2354391516e-06
3.959578292e-06
1.13753915632e-06
6.17087032743e-07
2.17761232692e-06
2.95022085488e-06
1.8001616095e-06
3.4349854365e-06
2.39257475429e-06
2.59875578839e-06
3.48736440145e-06
2.68691096922e-06
2.42984803485e-06
8.96420014913e-08
1.54107956337e-07
6.14556572932e-06
1.59292192107e-06
2.19428671079e-06
7.28572517226e-06
2.186154947e-07
1.34296898154e-07
5.50390174839e-07
4.53325796966e-07
2.63246671735e-08
3.07726168857e-07
1.28041255281e-07
6.93177563652e-08
5.13047817982e-08
2.18234333329e-07
2.71446308047e-07
2.28232518303e-07
5.83324493851e-08
8.38070728965e-07
1.75624166161e-06
9.32965619297e-07
1.39544789859e-06
8.06361436423e-07
2.71758227004e-06
8.97953066919e-07
7.29277579267e-07
2.26844923025e-07
2.33503502773e-06
7.93733862881e-07
8.24936443289e-07
1.72070602126e-06
1.30679896468e-06
2.10266184405e-06
1.9777332919e-06
1.76639985823e-06
3.02216234228e-06
1.18991212023e-06
6.61816405533e-07
6.60119718651e-07
2.78796481315e-06
4.22739657406e-07
5.61673466068e-07
1.15672294921e-06
6.62292567146e-07
2.16842430698e-06
5.07918793041e-06
3.66004808166e-06
3.57722043143e-06
3.53612193806e-07
8.49822020526e-08
6.73656802719e-07
5.34582240739e-06
6.47871922815e-06
3.41388930969e-06
4.53183627582e-06
4.44491990758e-06
5.59836517311e-06
9.96942967661e-06
2.69096988359e-07
2.78362732341e-07
1.44522416503e-07
6.24386593959e-08
4.50817605298e-08
3.33124714034e-06
1.82384678675e-06
1.6404472327e-06
8.40977553983e-08
5.59184665995e-07
1.66519668074e-06
1.5485574374e-06
1.61325035065e-06
1.1290301259e-06
1.06025835284e-06
1.33418946584e-07
1.52400865288e-07
8.91039991192e-06
7.84698473922e-06
7.0210950387e-06
7.38019315013e-06
4.93661808439e-06
2.47305724445e-07
9.68565248029e-06
4.3886152676e-06
3.76128351465e-08
8.36354227195e-07
2.00341775061e-06
1.23285969409e-06
1.23160648571e-06
6.53975482892e-07
9.16662344422e-08
1.38974175597e-07
3.894209516e-07
1.87755149867e-07
6.71951404867e-07
1.15158005453e-07
4.07713744457e-07
4.10375047298e-07
6.01359935667e-07
2.1920997388e-05
5.08577275128e-05
1.42408100752e-05
1.89421498781e-05
6.78882819551e-05
3.97354003248e-05
9.00187174396e-06
1.23270590498e-05
1.66826237907e-07
2.40762545004e-07
6.16331608543e-08
6.88671896097e-08
4.57633877742e-08
1.06750884964e-05
2.32916910347e-06
1.04008175682e-07
1.24186389748e-07
7.16626459927e-07
1.37739918441e-06
7.34311829354e-07
1.03317400928e-06
1.01341794075e-05
2.48148003683e-06
2.04904390528e-06
4.22988946384e-07
6.41020712982e-07
1.32904116338e-06
1.55969463465e-06
6.69301614645e-07
5.91303958012e-07
5.47069350927e-08
1.91701344463e-06
3.04602708339e-07
5.6505566656e-07
7.49387080099e-06
5.37734284324e-06
1.05577883991e-05
1.14885781795e-05
1.34957203201e-05
7.30645335724e-07
1.03842546013e-06
1.64806152621e-07
1.81159153829e-06
7.70759345114e-07
1.87353627381e-06
6.64273141381e-06
7.01898061369e-07
1.11547863595e-08
1.26061478335e-06
4.19160089474e-06
1.29457389525e-07
1.43531566297e-06
1.38997417463e-06
8.46544096458e-09
2.21356908304e-06
1.60019994521e-06
7.33423771963e-06
3.70431713432e-06
5.19520424224e-06
7.83634357094e-07
1.17556758957e-06
7.57876129698e-06
4.68735147018e-06
6.71116144795e-06
5.23025455717e-06
3.47446394824e-06
3.26634670606e-06
6.5170079294e-06
3.29656001604e-06
1.64852148186e-06
1.99316023814e-06
1.00715122954e-06
2.69089887914e-06
8.46230406499e-06
1.1984246858e-05
1.69809282994e-07
3.2695117682e-07
2.71941356684e-07
4.42881699842e-07
1.0284748856e-07
1.51675718116e-07
2.30596223492e-07
3.20474681344e-07
1.15717630107e-07
7.47557105775e-07
6.83600788781e-07
1.1731407003e-07
4.9498336485e-07
5.71784979011e-06
3.80762420637e-07
5.62808672267e-06
8.98559291092e-07
1.46126120122e-06
1.22423510979e-06
5.63862259485e-07
1.21324201643e-06
3.97390164642e-06
5.02547573334e-06
5.69398892749e-07
3.67464150669e-06
5.37009119767e-06
4.38610277071e-06
2.89074436152e-06
6.48092167482e-07
1.98527029826e-05
1.24047256547e-06
1.08836617983e-06
4.73670535533e-08
8.28585429696e-07
4.3015226619e-06
6.29515854358e-09
1.00999935234e-08
1.06478737958e-08
1.07795428711e-08
5.60658462915e-09
1.430845296e-06
8.24678452478e-09
1.07797348361e-05
9.26683106087e-06
1.15257075357e-06
5.43087187365e-09
2.48334583968e-06
9.46771323314e-07
1.38627895424e-05
9.87780126329e-06
9.40449370328e-07
2.2324296917e-08
2.54699506697e-06
5.6646456358e-06
4.80810835421e-06
2.36082216417e-08
2.77121350014e-08
9.8477111202e-07
1.13199364467e-06
2.36143556215e-07
7.73636998605e-07
1.26445039872e-06
2.43715199925e-07
1.67596084512e-06
1.93016914521e-07
5.30721097912e-07
1.00045063065e-07
1.73904799554e-05
3.80202585286e-06
1.29241179794e-07
2.56345857025e-07
8.48247582767e-08
7.01958605179e-08
2.57366985747e-07
3.90297154383e-07
1.55530464849e-06
1.84052486255e-07
4.12261358422e-06
1.74725977543e-06
3.36379300967e-07
5.50211811339e-07
1.80313420147e-06
4.31459681327e-06
7.50339866272e-07
3.92241545534e-07
6.44333529537e-06
5.43503283101e-06
4.43723268526e-06
6.55240643146e-06
7.9599609191e-06
6.29891963027e-06
2.59877492387e-07
2.21998244228e-07
2.08633182855e-07
1.99228732685e-07
2.02650690864e-07
1.48516526181e-07
1.2830577926e-07
2.03145152106e-07
8.34973748148e-06
5.61938655971e-06
5.12614147337e-06
6.43841272393e-06
1.29389100235e-05
1.71514747671e-07
2.27558841225e-07
1.30185120616e-07
9.78199546575e-08
8.42093951949e-06
8.77846051482e-06
6.07785720565e-08
5.66228373599e-08
9.12306174189e-08
1.2392137318e-07
8.6714952994e-08
5.9277256907e-08
3.17032120934e-08
2.01766387195e-08
8.55099342419e-06
7.2770475627e-06
1.10139832181e-07
1.88062765829e-06
3.80564789137e-06
4.77506214459e-06
3.63042146872e-06
7.97730581395e-06
2.89006433586e-07
7.95397882848e-07
8.68410672963e-07
1.10819029606e-06
1.3925694188e-06
1.08529489861e-06
2.14800549539e-07
2.18274369295e-07
4.13275803139e-07
2.2090359063e-08
5.199123101e-07
3.47371048804e-07
4.09011948606e-07
5.42418552982e-07
3.38856436207e-08
7.64687469816e-07
5.90626716658e-07
2.68129781887e-06
3.02276138172e-06
2.25604409172e-06
2.01047501526e-06
2.5479792018e-06
9.72428375137e-07
8.49190969687e-07
9.89391899793e-07
7.07091284012e-07
3.90217807146e-06
4.27424792103e-06
4.6618476746e-07
4.10883364568e-07
2.78045836523e-07
2.71188808952e-07
2.12720505672e-07
4.52607628419e-07
4.17728520814e-07
2.39256603616e-07
3.07594833997e-07
1.73364214166e-07
1.04351814468e-07
9.52274461561e-10
8.20414163392e-08
4.81086265163e-06
2.09127151133e-08
7.68839698136e-08
2.88806786049e-07
4.04599291786e-07
2.59928390329e-07
3.39684477498e-07
3.22168020675e-07
6.95107641003e-07
2.91890807975e-07
4.91575694512e-07
6.85933398084e-07
1.95326122812e-07
3.85044817644e-07
2.56093396092e-07
4.46536070468e-06
7.97560983232e-06
4.30010869083e-06
3.08433182829e-06
3.96027672704e-07
1.89613264805e-07
1.26133737774e-07
3.29381397326e-07
1.31213007166e-06
6.35818339327e-06
2.92020582373e-07
2.66291169617e-07
1.91569259843e-06
1.40084096993e-07
1.87516147516e-07
5.0805072273e-07
2.07402623997e-06
1.01733449241e-06
7.70002748881e-07
5.7271385899e-07
1.15338501547e-06
1.0215411168e-06
7.54021569837e-07
9.83873609385e-07
1.51143486597e-06
2.27283864662e-06
3.44092503391e-05
1.14571009192e-05
9.11852891647e-06
1.18218274119e-05
3.17975954511e-07
1.65684112257e-07
1.47768564976e-05
2.9948223414e-07
1.88373199842e-07
2.58478106723e-05
2.17319916649e-06
2.001845474e-06
2.02897734478e-06
1.94254682213e-07
7.64383209909e-08
8.92064613849e-08
3.15552700404e-07
1.95963264727e-07
1.32249589445e-07
4.25983369563e-07
1.50613247403e-07
4.43269620054e-07
8.67458318321e-07
6.74674388794e-07
4.52276373107e-07
1.51173759095e-07
1.84603033488e-07
2.47952578637e-07
2.01802864735e-07
3.65351634488e-07
3.13628913456e-07
4.20899210612e-07
2.56226352331e-07
5.04192489853e-07
6.15049102306e-07
1.21283806898e-06
6.31337696645e-07
2.38181493961e-07
2.25960678282e-07
3.71400347121e-07
3.48535940066e-08
2.75052211698e-07
3.15925434315e-07
1.66407162297e-07
1.08738045903e-07
3.09578721557e-07
1.86729025939e-07
1.81798255777e-07
5.40981056244e-07
1.86001162198e-07
6.6086428343e-06
8.50366514401e-07
7.12482967468e-09
1.35118009088e-07
8.26802553036e-08
1.21004228371e-07
8.78228106361e-08
6.0806301445e-06
1.00551788491e-07
1.13279466516e-07
5.76995574324e-08
1.31794947264e-06
7.12186826191e-07
1.22640887041e-07
2.97749668948e-07
5.44999623384e-07
6.84323800424e-07
5.02220254147e-07
9.10467747405e-07
3.67054123882e-07
2.8055771841e-07
6.69745978375e-07
6.83173292504e-07
4.09699015198e-07
3.84423734639e-07
1.03119615148e-07
4.41402151985e-07
1.14402394133e-05
4.22228538485e-07
4.9759003129e-07
5.2426795291e-07
6.1114481857e-07
2.80650518866e-07
4.67712031971e-07
1.19839395176e-07
3.81852276705e-07
5.75891154623e-06
2.90322944583e-07
1.49859773207e-07
1.37427498789e-07
1.69520003563e-06
1.34455110125e-06
6.87387484027e-08
1.91053188036e-06
1.18028215353e-06
1.41060699399e-06
7.44075829707e-08
3.8756456451e-06
1.95131941063e-06
9.18627492701e-06
1.05147691691e-05
5.42241699805e-06
7.69654081224e-06
5.19792278808e-06
1.27106358341e-06
4.45799303774e-06
3.64818413869e-06
6.74312262475e-07
4.57022265347e-08
3.88631977171e-08
4.17379307053e-07
7.79229445829e-07
7.14950056527e-08
3.91381542524e-06
5.1887919328e-08
4.40971507385e-07
6.61679375801e-08
3.15588198681e-08
3.2950483255e-06
4.30402434602e-06
8.91846286176e-07
3.53825397186e-06
5.63962345387e-07
6.54165848782e-07
7.00628841723e-07
1.82397879829e-06
3.52719130033e-06
4.61816379182e-06
2.62480514863e-06
1.85417355846e-06
2.87770728896e-06
4.26572397061e-06
1.0587893919e-06
5.71402080868e-06
1.30771403688e-06
1.30399144287e-06
5.56639574175e-07
1.56345625187e-06
1.39233418488e-06
5.67965101765e-07
1.943075345e-06
4.0971938079e-06
5.08352608701e-06
1.70547715029e-06
2.05942773409e-06
2.78953908083e-06
3.05730298817e-06
1.90657943401e-06
3.58120316599e-06
2.98701324386e-06
2.88249232319e-06
7.1456642939e-07
7.89823398776e-07
2.08562720723e-06
4.74279679971e-07
4.31316144582e-07
7.02343627993e-07
4.37255281932e-06
7.98610885864e-07
9.84542764375e-08
4.85041550452e-06
1.94108761199e-07
1.42043914543e-06
3.22177834784e-06
9.25866583269e-08
1.26508745272e-06
1.33866838603e-06
2.86526812929e-10
5.65981381415e-08
8.75261200122e-08
1.07104671784e-08
1.13923479527e-07
1.21436193565e-06
7.55794270073e-08
1.04484176626e-06
1.02149578301e-07
3.2391705078e-07
2.68622619571e-07
2.82532779752e-06
5.234496565e-07
6.92138606703e-07
2.78446950171e-07
2.47704969304e-07
2.51290023238e-07
4.5015366999e-07
1.51620326633e-07
4.7839926186e-08
1.44216639287e-06
1.82022171296e-07
6.53705456276e-07
4.56018000013e-07
2.42114472202e-07
5.09914947807e-08
4.9915463235e-08
1.35715061197e-07
6.97909062607e-06
1.40205841898e-08
7.043652249e-07
4.6888015317e-06
1.12962071095e-07
2.7205931789e-08
3.34734720476e-06
2.83141183862e-07
2.35036543186e-07
1.18285472909e-07
3.95522671165e-09
9.12584183983e-08
1.26588697021e-07
3.67932251487e-08
2.31008717508e-08
3.37465187118e-06
3.35671993011e-06
3.96245246331e-08
2.67198161187e-08
1.4222022491e-07
2.18596677087e-07
2.25671142338e-08
1.37482691474e-07
3.92018105281e-06
4.35210620949e-07
5.49791664712e-07
5.95568927183e-07
4.38135252262e-08
4.25141620164e-08
3.38182323939e-07
3.67309829232e-06
1.32785454337e-08
3.08954122542e-07
7.8915069949e-07
6.36904147338e-07
4.72303749085e-07
3.62940928503e-07
7.72919855996e-08
3.06869418711e-07
2.60539628878e-07
1.62477844843e-07
1.87469364972e-07
3.56279596755e-07
3.52203613318e-07
1.06334959341e-07
1.0848672446e-06
8.72145195284e-07
9.31735956732e-07
2.13087223037e-05
1.18006423838e-06
8.43833371419e-06
3.64468730119e-05
1.10563212219e-05
2.78195775591e-08
3.49139328741e-07
4.73516684147e-07
9.85993548489e-07
5.58364051905e-07
4.8064212027e-07
1.23882534927e-06
1.27262068826e-06
8.27846101917e-07
7.07281596594e-07
3.58408620164e-07
1.8574338746e-07
1.31678830131e-07
5.5311664535e-07
6.72261241186e-07
1.04164771427e-06
1.17844050743e-06
4.65540271965e-07
8.5172780035e-08
3.12872348434e-07
4.06172417532e-08
2.17641659634e-07
5.59040307602e-08
1.21784721273e-07
3.50293816087e-07
7.39090473036e-07
9.17922289002e-07
4.5364702234e-06
6.80949844308e-07
7.4301657294e-08
2.44330505075e-07
1.86887439218e-07
9.41599963095e-08
1.64101169841e-07
1.61657781202e-07
8.28206369446e-08
1.73018300829e-07
4.36317387364e-07
1.02666665647e-06
8.8666582138e-07
1.64526138158e-06
3.35216900545e-06
1.63931476063e-06
3.29709675012e-06
3.92506172729e-06
6.05024833338e-07
7.60260439239e-07
1.70149886736e-07
2.26684333417e-06
1.5376431505e-06
7.28309534077e-09
6.60964788491e-07
2.28181486117e-07
3.01787816689e-07
1.17337270522e-07
8.82179737926e-08
4.87421272465e-07
3.82033092535e-07
2.51100938303e-08
9.73307370149e-07
8.02713670261e-08
2.25612804101e-06
1.2553760842e-06
6.06208736407e-08
9.02286683611e-07
1.57921607487e-06
4.17785699754e-09
4.504785858e-08
3.23190713198e-08
1.30433031262e-08
9.27826335486e-09
5.16165550177e-07
1.57329143148e-08
2.26565149112e-09
4.93872609775e-08
1.05389518461e-06
5.52247897719e-07
5.9107708829e-08
8.47120069614e-07
6.39642111567e-07
2.76198226392e-08
7.38372237001e-07
2.09151883901e-07
2.0913725129e-07
3.04269169441e-07
1.20547642274e-07
4.34054650058e-07
1.61343382336e-07
5.2272445917e-07
1.17189751712e-06
2.15704929159e-06
4.21406430112e-06
1.0489223599e-05
7.67591218259e-07
1.82555285184e-07
6.80202765498e-08
2.97298572076e-07
7.79746566398e-07
3.88008228442e-07
1.11459638333e-06
2.94644534711e-07
1.84470751315e-06
1.39035863849e-06
2.14052468407e-07
6.32546159162e-07
2.6477558312e-07
6.03204896599e-07
4.23095719898e-07
2.01460041274e-07
5.1856116662e-07
1.65692883917e-05
7.37012513418e-07
3.3097018347e-07
9.06099964423e-08
3.79781786162e-07
2.09859264887e-07
5.19923905601e-07
2.49498265902e-06
6.08919928649e-07
1.30255967582e-07
1.37233697611e-06
4.96120855322e-06