# vtk DataFile Version 3.0
File Name: Molecule/sphere_excent/sphere_excent_0-s25.vtk
ASCII
DATASET UNSTRUCTURED_GRID
FIELD FieldData 1
TIME 1 1 double
0.0
POINTS 287 double
0.0094126937911 0.84947949648 0.52733075619
-0.45312619209 0.78748571873 0.41756424308
-0.32602494955 0.60762548447 0.7241319418
0.33767515421 -0.61206531525 0.71504980326
0.0047448305413 -0.84943556786 0.52779257298
0.50055778027 -0.80939096212 0.30670067668
0.84806865454 -0.32968622446 0.41446226835
0.86325126886 -0.49907612801 0.066007524729
0.98805117607 -0.12593626976 0.089086771011
0.51841408014 0.72615098953 0.45072379708
0.37021568418 0.57561451197 0.72877317667
0.72612863779 0.35170397162 0.59036445618
-0.86587870121 -0.34896364808 -0.35854429007
-0.83772855997 -0.54437357187 0.036452513188
-0.98980098963 -0.12258771062 0.070967622101
-0.56358218193 -0.79639011621 -0.21956479549
-0.47851493955 -0.83417344093 0.26840123534
-0.0023427784909 -0.99941325188 0.024316387251
-0.89070928097 0.17682889104 0.41874697804
-0.8171813488 -0.30987563729 0.48462089896
0.48662495613 -0.85052704811 -0.19608856738
0.0059571713209 0.99972945452 0.011738641188
-0.26936838031 0.94571888447 0.18131507933
-0.25946876407 0.95000010729 -0.17415702343
-0.51536566019 0.85691142082 -0.00014082720736
-0.48431408405 0.80207741261 -0.3496170342
0.037300944328 0.92727470398 -0.37136983871
0.26763534546 0.95294821262 -0.14230462909
0.2784858942 0.93723326921 0.20924311876
0.45523771644 0.89003384113 0.023599915206
0.40425002575 0.83198934793 -0.37902247906
0.58743083477 0.512765944 -0.626060009
0.42475053668 0.70279765129 -0.57057273388
0.61457753181 0.65315163136 -0.44224527478
0.14449310303 0.79703301191 -0.58557718992
0.94487953186 -0.24624952674 -0.21666167676
0.79419022799 -0.39996048808 -0.4568631649
0.87485402822 -0.12488289177 -0.46816498041
0.97473442554 -0.0078401761129 -0.22336116433
0.49170523882 -0.035414516926 -0.8700158596
0.42891815305 -0.26825669408 -0.86252486706
0.26687633991 0.011379171163 -0.9635899663
0.1759583801 -0.22567903996 -0.95812118053
0.23032389581 -0.43367066979 -0.86974424124
0.017959695309 0.039849855006 -0.9986961484
0.68266510963 -0.23845097423 -0.69060152769
0.57794845104 -0.46216890216 -0.67254912853
0.36242541671 -0.47030410171 -0.80429428816
0.48230627179 -0.67525464296 -0.55787020922
0.67423796654 -0.64224600792 -0.36423552036
0.71116793156 0.35633200407 -0.60599833727
0.73754125834 0.4854426384 -0.46940347552
0.6005885601 0.32734200358 -0.72904580832
0.67938679457 0.2235391438 -0.69890767336
0.82425796986 0.3179115653 -0.46854972839
0.775182724 0.20605398715 -0.59715557098
0.16422303021 0.37274822593 -0.91324496269
0.36919161677 0.21784353256 -0.90299123526
0.10633289069 0.20440965891 -0.97272473574
0.75470340252 -0.05920503661 -0.65332210064
0.020338390023 0.55501681566 0.8315320611
-0.20354734361 0.40007156134 0.89340215921
-0.44303849339 0.34605437517 0.82657051086
-0.60657042265 -0.099154658616 0.78768134117
-0.46402660012 -0.31331789494 0.82829976082
-0.3714966774 -0.10968893766 0.92149680853
-0.26088088751 -0.30455455184 0.91593313217
-0.59596043825 -0.48485511541 0.63955563307
0.93380081654 0.11619982868 0.33739951253
0.96755510569 0.21599340439 0.13068902493
0.84544843435 0.44092106819 0.30124226213
-0.95325762033 0.054675731808 -0.29733094573
-0.77157104015 -0.12490580231 -0.62352997065
-0.82527589798 0.20227067173 -0.5274464488
-0.86812764406 0.41037917137 -0.27916201949
-0.96624219418 0.25655663013 0.021373633295
-0.85081446171 0.52542603016 0.002201236086
-0.66381675005 0.59699988365 -0.45055410266
-0.70655572414 0.68460291624 -0.17974507809
-0.69554233551 0.69010037184 0.19955785573
-0.46254912019 -0.32780092955 -0.82372128963
-0.61244940758 -0.47206902504 -0.63428902626
-0.59522670507 -0.16124074161 -0.78629529476
-0.36234417558 -0.51463222504 -0.77672749758
-0.39682126045 -0.75608986616 -0.51992678642
0.50834435225 0.84694182873 -0.15512017906
0.66177892685 0.71947300434 -0.21025370061
0.64740300179 0.76223123074 0.005273215007
0.80810022354 0.58879303932 -0.0093080056831
0.71527802944 0.67225569487 0.19119614363
0.54214531183 0.81784164906 0.19281260669
-0.64794665575 0.55762839317 0.51580584049
-0.84477859735 0.46056169271 0.27114242315
-0.68818861246 0.40948876739 0.59479802847
0.82661169767 0.45275366306 -0.33416876197
0.75968569517 0.58366316557 -0.2867641449
0.046931311488 -0.53883731365 0.84053534269
0.5110861659 0.27883538604 0.81299102306
-0.0077068791725 0.31125873327 0.95024365187
0.17070287466 0.29937523603 0.93864560127
-0.042963042855 0.12188383192 0.99161714315
0.14245426655 0.13715326786 0.98028331995
0.082809880376 -0.0065003442578 0.99644523859
0.30247980356 0.39814072847 0.86599624157
0.34201034904 0.17384384573 0.92351388931
0.51682770252 -0.024627601728 0.8556099534
0.27655747533 -0.021151674911 0.9607450366
-0.013583153486 -0.92097961903 -0.38849502802
0.22177052498 -0.91375654936 -0.33973965049
0.33077910542 -0.5938218236 -0.73185354471
0.85600501299 0.13637442887 -0.49855840206
0.80277562141 0.054639101028 -0.59373217821
0.71624672413 0.09054748714 -0.69195610285
0.60227864981 0.11808994412 -0.78914195299
0.6517444849 -0.01599060744 -0.75825315714
0.098213255405 -0.84957909584 -0.51834344864
0.30205482244 -0.80477190018 -0.51067858934
0.14645819366 -0.75963783264 -0.63367009163
0.26697400212 -0.69563776255 -0.66575694084
-0.26125189662 -0.89458930492 -0.36276108027
-0.012763429433 -0.76853245497 -0.63964807987
0.069097772241 -0.68692022562 -0.72333663702
-0.057110723108 -0.68211120367 -0.72897493839
-0.14915336668 -0.72177475691 -0.67533010244
0.096246942878 -0.59031772614 -0.80135577917
-0.031854312867 -0.59802109003 -0.80079829693
-0.1090285778 -0.84756314754 -0.51905930042
-0.23095445335 -0.79880928993 -0.55480331182
-0.13809892535 -0.61222183704 -0.77838903666
-0.12495886534 -0.53461289406 -0.83577269316
0.18653351068 -0.64068174362 -0.74468833208
-0.74091559649 0.40483981371 -0.53599357605
-0.66669225693 0.28786700964 -0.687705338
-0.62421107292 0.43583399057 -0.6472274065
-0.69477903843 0.11751174927 -0.70954722166
-0.56085515022 0.16467891634 -0.8115196228
-0.57655322552 0.050083257258 -0.81528532505
-0.39161354303 0.19030468166 -0.90023344755
-0.46290525794 0.082252301276 -0.88235574961
-0.50226539373 0.21643438935 -0.83666270971
0.50804072618 -0.30736091733 0.80475753546
0.6858266592 -0.20175291598 0.69917434454
0.61440259218 -0.46572056413 0.63672894239
-0.74807792902 0.062953770161 0.66017585993
-0.56543129683 0.13852615654 0.81309682131
-0.68478161097 0.26349127293 0.67781174183
0.83360356092 0.011122850701 0.55121260881
0.32773551345 -0.38605031371 0.86211723089
0.37055137753 -0.18893660605 0.90940994024
-0.22197414935 -0.45254924893 -0.86352533102
-0.29968386889 -0.36513146758 -0.88124990463
0.6644307971 0.11681847274 0.73723888397
0.20791684091 -0.21437086165 0.95426738262
0.08998939395 -0.41647404432 -0.90416353941
-0.0080316923559 -0.30486470461 -0.95226711035
-0.14900797606 -0.36698871851 -0.91820782423
-0.034001231194 -0.41228538752 -0.9104167819
-0.11469103396 -0.45357355475 -0.88376903534
-0.0070243887603 -0.50570219755 -0.86263382435
-0.22448940575 -0.55055111647 -0.80395871401
-0.26563808322 -0.61998701096 -0.73806005716
0.92295509577 0.072532601655 -0.37758585811
0.91365969181 0.40085759759 0.067843526602
0.99113613367 0.1206599474 -0.052807576954
0.84945678711 0.49544027448 -0.18152968585
0.94022405148 0.16909019649 -0.29546397924
0.96517169476 0.19951157272 -0.16908039153
0.92671984434 0.28414976597 -0.24579592049
0.90152561665 0.26388901472 -0.3428850174
0.93474370241 0.32319629192 -0.14761398733
0.88009870052 0.35292950273 -0.31747993827
0.89312392473 0.39432889223 -0.21640990674
0.90222102404 0.42418059707 -0.077784754336
0.89350605011 0.19238063693 -0.4058675766
0.95850199461 0.28304305673 -0.033982723951
-0.046676095575 -0.16069498658 -0.98591518402
-0.1782027036 -0.24461479485 -0.95308977365
-0.2045891434 -0.11861013621 -0.97162187099
-0.32301735878 -0.25839209557 -0.91032522917
-0.2519312501 0.86121040583 -0.44042930007
-0.070898935199 0.52972906828 -0.84518867731
-0.12883093953 0.62319415808 -0.77138406038
0.012985154986 0.6103477478 -0.79200226068
-0.041009228677 0.72458809614 -0.68795323372
-0.22573302686 0.68521469831 -0.69246828556
0.12245680392 0.67294818163 -0.72944039106
-0.29223102331 0.56562244892 -0.77102470398
-0.062646239996 0.82909035683 -0.55501449108
0.70884031057 -0.69803643227 -0.10024994612
0.83328831196 -0.50716346502 -0.22010530531
0.43290296197 0.46568766236 -0.77137577534
0.41184988618 0.58784079552 -0.69632208347
0.27067399025 0.67803871632 -0.68332970142
0.28182971478 0.57043349743 -0.77143877745
0.30025014281 0.4396469593 -0.84642082453
-0.33596494794 0.76043570042 -0.55556762218
-0.48311877251 0.69391679764 -0.53386706114
-0.36461508274 0.65669733286 -0.66003757715
-0.48176291585 0.58803457022 -0.64930719137
0.14939901233 0.53705865145 -0.83012920618
-0.42695748806 0.52706795931 -0.73391973972
-0.18734566867 0.77663087845 -0.60140168667
0.03449594602 0.46371337771 -0.88529658318
-0.13026292622 -0.030397180468 -0.99099957943
-0.18020583689 0.089344993234 -0.97954905033
-0.26394799352 -0.01003204938 -0.96450334787
-0.32642662525 0.093989640474 -0.9405310154
-0.33446243405 -0.095724076033 -0.93751913309
-0.39573577046 -0.010963287205 -0.91825687885
-0.46792832017 -0.12724766135 -0.87442272902
-0.5158880353 -0.03294127807 -0.85593312979
-0.6528711319 -0.029661746696 -0.7568743825
-0.28291624784 -0.17628473043 -0.94276762009
-0.38168248534 -0.18415029347 -0.90565335751
-0.086159817874 0.2004853934 -0.97582650185
-0.015097504482 0.33561769128 -0.94186139107
-0.18378931284 0.31477084756 -0.9312132597
-0.25468534231 0.20249612629 -0.94560617208
-0.33218961954 0.31266528368 -0.88978821039
-0.45372259617 0.26394218206 -0.85072433949
-0.17887751758 0.52182209492 -0.8340870738
-0.2536983788 0.42977529764 -0.86657106876
-0.11808501184 0.42637628317 -0.89675521851
-0.36983516812 0.45744821429 -0.8079431653
[...]
CELL_DATA 570
SCALARS cell_data_0 double
LOOKUP_TABLE default
2.04444955453e-05
2.58568307456e-05
8.64549716749e-07
3.89434598214e-06
2.19935932327e-05
2.62756881295e-05
2.61529381432e-05
2.16220037291e-05
1.22381072431e-05
1.4260554626e-05
1.67017022248e-05
7.27191557558e-06
2.89411373267e-05
1.12859749664e-05
1.1061332371e-05
2.75798251695e-06
7.76747034309e-06
1.3831016705e-06
3.94365261963e-06
2.39946226256e-06
4.68885346269e-06
2.57189850111e-05
2.81470937088e-06
1.13038928979e-06
2.36349036917e-05
1.64728714621e-05
1.47355484517e-05
2.49493907322e-06
1.07854478835e-07
1.47543742773e-07
1.76225935971e-05
8.00840789943e-06
5.64264909248e-07
1.06616561859e-06
1.22989146526e-06
2.48706572605e-06
7.16665554202e-07
3.19593847991e-07
9.30062383601e-07
2.18564016423e-06
4.71693882066e-08
2.34891503594e-07
1.30645263581e-06
6.80988518484e-07
3.41984169585e-07
4.15451617343e-06
1.71676421116e-05
1.0767882904e-05
5.27895245338e-07
3.00931765931e-05
3.38854956895e-05
2.43894630651e-05
3.31491701457e-05
3.59704838779e-05
2.90448888141e-05
2.24036511786e-05
2.02058839262e-05
1.517075721e-05
1.75817268654e-05
9.4385315107e-06
3.62594060159e-06
4.12177160618e-06
9.86789548683e-06
1.46997968202e-05
6.93196091452e-07
6.12925826141e-07
4.36028457459e-07
2.36257866312e-07
1.17205126882e-06
2.88449229736e-06
1.303687404e-06
5.58357481559e-07
1.95068106711e-06
5.86066890963e-06
2.16296808924e-06
2.98447582892e-06
5.98257304123e-07
6.18291587299e-08
1.71815134183e-07
7.20098424393e-07
2.26917303819e-06
1.6209601052e-06
9.8725631261e-08
5.60201431464e-07
1.16832127257e-06
7.66290678917e-08
5.643416249e-07
1.17312355538e-06
1.39417276562e-06
3.03154433635e-06
1.36801890426e-06
8.37410232492e-07
5.09324132276e-06
2.46002639185e-06
2.84242168162e-07
1.51484778434e-06
5.79907490517e-06
1.39954000329e-05
2.59462073241e-06
5.81311616248e-07
7.37006515192e-06
5.15815207962e-06
2.31922434653e-06
1.64326990013e-06
4.21657657785e-06
2.78652041685e-06
4.15268177323e-06
4.84046871274e-06
4.40835159139e-06
7.89725698695e-06
4.95744853606e-08
7.10073445827e-06
3.39133701994e-07
9.85683241677e-09
1.94877931668e-05
2.60821436457e-05
2.28326237184e-05
1.00536632435e-05
9.40092189824e-06
1.03156048212e-05
2.35788140221e-05
2.44393461291e-05
1.23340619086e-05
1.08891612062e-05
1.1067334009e-05
2.15776586926e-05
1.09664906523e-05
1.07128226015e-05
1.07683789949e-05
2.18368184388e-05
1.1673922133e-05
4.16613737459e-06
5.44549242337e-07
9.26952730719e-06
5.88427912899e-06
5.87617471662e-06
7.96978100013e-09
1.00532857753e-05
5.1268495319e-06
1.67313573884e-05
9.53638545512e-06
5.28432204734e-06
3.74464505695e-08
1.10528256539e-05
6.77342982409e-07
9.61215699889e-07
1.66341020115e-05
6.55141848331e-06
3.24092763211e-07
2.82117506101e-05
1.18837232444e-06
1.35792016204e-06
2.5825071389e-07
2.46958739256e-05
4.75627498186e-06
1.2643228571e-05
1.79122280714e-05
4.0111592766e-08
1.42950469911e-05
2.55692274185e-05
3.00586886267e-07
5.98720569594e-06
1.08148541085e-06
3.18396659849e-06
2.94055052651e-06
4.01147844805e-06
1.66662785902e-05
2.26693145656e-05
5.15303345911e-06
1.73673394278e-07
1.65625267369e-05
1.8982746789e-05
1.80460091297e-05
1.30440019899e-05
9.09703041727e-06
9.11109661661e-06
3.29296903883e-05
1.87523955084e-05
1.50283621913e-05
1.83538309248e-08
1.68014355195e-05
1.19146857388e-05
1.79986478508e-05
1.12506733858e-05
1.94548335942e-05
2.0692033364e-05
1.7855258355e-05
1.53661576825e-05
1.14857045814e-05
5.83081605731e-06
8.22488796281e-06
8.23289366656e-06
4.60380371287e-06
1.75568533273e-05
1.9105211538e-05
2.08580657644e-05
1.80163304319e-07
1.23311506166e-05
9.15079944405e-06
1.11784927058e-05
1.78886373558e-05
6.3580964106e-08
5.76515780984e-08
1.02859138711e-07
1.36733178984e-07
1.15697986855e-07
5.43374928453e-08
2.79490780194e-07
3.03534407143e-08
4.23871909623e-07
1.10315533182e-05
2.19765295133e-07
3.93318509396e-06
2.39581639321e-05
1.13442741456e-05
1.79457938018e-07
1.98892914629e-06
1.26526112271e-06
1.12364288334e-06
1.52526081631e-06
1.77440648315e-07
1.98951997884e-08
3.19081409876e-07
5.93568324501e-09
3.8605867375e-06
3.18747787802e-06
3.13276347327e-06
3.18686011665e-08
4.07884512766e-10
2.94487408696e-06
3.85100878415e-07
5.83033399092e-06
3.55929137333e-06
7.80283117009e-09
9.19726338233e-09
1.5854815191e-07
5.6825052456e-06
6.74183622786e-06
4.98387846093e-06
1.57889833387e-07
3.48454254239e-06
2.70102300994e-08
5.65308477417e-07
2.56338780539e-07
4.01528163668e-06
6.20858305141e-07
6.5974238389e-07
2.04542289523e-07
4.15467909634e-06
1.34152649925e-07
4.69023350132e-07
1.11911554839e-08
2.36917683386e-09
6.74439752985e-08
1.54280459153e-05
1.07114196814e-07
2.12758242992e-07
1.7942801385e-07
4.06069819695e-07
1.49135173188e-07
6.00942905248e-08
3.76698834228e-08
1.44785478308e-05
7.72467681511e-08
1.77687745302e-10
1.35204243198e-08
4.46118360865e-08
9.20815471261e-08
7.3200391072e-09
1.76696980797e-07
8.29775609321e-06
1.80652040306e-07
4.16768143645e-06
6.07366801234e-06
6.40516960515e-07
1.31530153511e-06
2.75016099706e-06
1.7400308365e-06
1.019709261e-05
3.98200535114e-08
4.21057435682e-06
9.09727566412e-07
1.16948275786e-05
4.97373338172e-07
2.02003288422e-07
1.79576895854e-07
8.40486836503e-06
3.80615183165e-08
2.52388579998e-05
9.83694367838e-08
1.14125361144e-07
3.89609826026e-08
5.66186412447e-06
1.61663154553e-06
1.52895455297e-07
1.68830988935e-07
8.28946137584e-06
4.36943700886e-07
1.54398131447e-06
4.63706942577e-06
1.36094169132e-07
1.2959508891e-06
1.18810969961e-05
7.69375352218e-08
9.86064360969e-08
8.41237050169e-08
4.18457425786e-07
1.29719244272e-07
8.2252766333e-08
2.91826265926e-08
9.72501310114e-08
1.32234500937e-07
1.64687880278e-08
3.55696549396e-07
1.31311225772e-07
1.12652709268e-05
6.77513949658e-06
1.11640570085e-05
8.25607855023e-08
1.63227415928e-07
6.13539521292e-06
5.93048187876e-06
2.42892597878e-08
7.73991620568e-08
8.9815166185e-07
1.01270110606e-07
9.00655866424e-07
6.10746715175e-08
1.5105258525e-07
4.97127884571e-07
2.55059361292e-07
5.40351034017e-06
4.44339064646e-06
8.56284025906e-06
1.4038682285e-05
2.97961026626e-07
8.00488138249e-06
3.41832376437e-08
2.51306688129e-09
1.2303287054e-07
1.92054611582e-07
3.77223945274e-08
1.72346837541e-09
9.53082046902e-06
6.90627289338e-07
2.82184291157e-05
3.81516055277e-07
9.70017058921e-08
1.36441962534e-05
1.59101553974e-06
6.10586435391e-06
1.34078137479e-08
5.27059407035e-06
1.05697883171e-05
5.01819394479e-08
3.02095302483e-08
3.91575021136e-08
1.00018092856e-05
1.121879719e-05
2.14216323971e-08
6.67397206187e-08
1.19858922742e-06
1.11870265233e-05
2.00701509058e-06
1.79608499854e-06
1.28447572705e-06
8.85263108858e-08
4.65079197158e-08
6.22164885183e-08
1.1978210165e-05
4.21396511368e-07
7.19775267331e-06
1.04429129841e-07
6.1001671872e-06
1.21222470337e-05
2.04137676871e-05
3.84096056918e-06
3.05083629601e-06
6.40495955071e-06
7.08489389034e-06
7.69625052089e-06
7.74594422931e-06
1.74301996416e-05
1.2925129236e-05
1.01230574561e-05
8.13499599237e-06
2.19373275241e-05
1.30108286453e-05
1.73945753767e-05
1.94038044985e-05
9.84540932823e-06
9.82000032328e-06
9.64831958036e-06
8.04912022043e-06
9.56741588097e-06
7.96062216591e-06
4.03074369617e-06
9.79908736443e-06
2.01910793046e-06
5.02106955128e-06
6.93147928279e-06
1.01943688187e-05
2.08525338293e-07
1.11937523118e-05
1.42852948823e-05
6.17852612265e-06
1.80191767343e-05
2.03529777056e-05
4.86070152864e-06
9.88118099913e-06
7.30863309723e-06
3.60518822028e-06
8.00920535755e-06
9.23070162587e-06
7.30390983412e-06
1.94774926735e-06
8.87892829052e-06
1.53660377131e-05
1.78792695114e-05
1.81040032737e-05
8.59394778896e-06
2.02311720366e-05
2.029528359e-05
1.93321074235e-05
1.12995481151e-05
1.08380347279e-05
1.36511305871e-05
9.52700715694e-06
1.45842304025e-05
8.13532104475e-06
2.88638121161e-06
7.08349876168e-06
1.45263845616e-05
1.2315230265e-05
1.87104346547e-05
1.93024890073e-05
7.56600780865e-06
8.88752637073e-06
1.3592510117e-05
1.15856788831e-05
1.29026249873e-05
1.452354905e-05
1.31440363637e-05
1.10972098041e-05
1.97154787539e-05
1.40289674831e-05
1.05469018889e-06
4.71517121289e-06
2.14950062527e-05
1.92632998986e-05
3.68411726843e-05
1.9919433486e-05
3.8599885348e-05
4.07992728607e-05
1.89675559711e-05
7.02553335584e-07
1.02731211574e-05
2.73398249888e-09
2.72894485748e-08
3.79393264685e-07
9.62228501746e-07
7.30948163112e-08
3.9073595859e-06
1.09384280182e-05
1.18021873147e-05
4.05744641474e-06
1.23668209389e-09
2.0034202578e-05
3.72168858842e-07
2.90619286442e-08
3.77417415246e-08
1.14722851574e-05
1.62140499549e-07
4.27528384555e-07
7.34574551183e-06
1.2852408045e-08
1.22930330881e-07
1.1524928184e-05
1.1839392828e-05
1.68471695082e-05
8.27594487477e-08
1.20506505719e-05
6.7855362044e-06
1.23808816584e-05
5.61586935442e-06
3.2731339745e-10
3.30610049513e-06
3.5443480682e-06
2.92364197476e-06
4.80558141439e-09
2.27311499273e-06
3.36889055903e-06
5.24395195934e-06
6.89144060774e-06
7.17309845092e-06
5.12310686635e-06
9.36940001408e-06
3.95442081539e-07
6.9888843958e-08
1.73256965976e-08
4.53950808667e-06
6.57600171776e-06
4.50900249725e-06
1.80263213106e-10
2.98687778271e-06
2.58384718566e-09
1.51868342867e-07
4.59081024127e-06
9.82040929725e-06
3.9461161609e-06
1.74227952561e-06
1.65530495128e-07
9.23690683107e-06
5.10430819266e-06
2.0837065679e-06
6.71508477719e-07
4.50772672535e-06
3.71793050071e-06
7.44326845775e-07
7.18718353573e-06
2.68854517754e-06
1.04208034342e-06
7.85497870751e-06
2.56397707219e-06
6.35432020448e-06
1.84775789213e-06
9.66057622415e-06
4.75248403198e-06
9.82342963385e-06
3.81254004903e-06
7.27499568656e-06
8.3503965148e-06
3.02552823352e-06
4.92976234991e-06
2.80263471579e-06
3.62850009164e-06
4.45824086091e-06
2.96263889826e-06
4.7228730513e-06
8.79782557477e-06
1.5085741626e-05
1.62782931804e-05
7.29757231752e-07
8.03473523373e-09
2.98329594629e-06
2.17703065027e-06
2.78250443889e-06
1.49476015108e-08
9.08081418985e-07
1.90025457243e-06
4.4660351636e-07
7.76489098713e-10
1.78851643686e-06
2.08116806191e-06
1.64702024336e-06
1.76454875372e-09
1.5700740351e-06
1.86952356712e-06
1.66944591566e-06
2.4378590776e-09
1.24149452402e-06
1.60959966692e-06
2.1478480795e-06
5.85172474843e-09
1.86452348501e-06
7.57696849145e-07
2.92478728542e-06
4.12629624188e-06
4.64124289222e-06
1.01348627155e-06

