# vtk DataFile Version 3.0
File Name: Molecule/sphere_excent/sphere_excent_0-s56.vtk
ASCII
DATASET UNSTRUCTURED_GRID
FIELD FieldData 1
TIME 1 1 double
0.0
POINTS 1244 double
0.39569953084 -0.45633345842 -0.79698801041
0.50730317831 -0.50750952959 -0.69647800922
0.37335512042 -0.59134054184 -0.71479046345
0.87050968409 0.05700885877 -0.48876354098
0.81096071005 0.18682157993 -0.55442869663
0.87580579519 0.16066461802 -0.45510604978
0.88250386715 -0.086122959852 -0.46234637499
0.83018255234 -0.016123604029 -0.55720818043
-0.25331917405 -0.87563288212 -0.41121223569
-0.14815597236 -0.87818276882 -0.45479437709
-0.17361350358 -0.92046415806 -0.35015246272
0.58920300007 -0.11947658658 0.79899209738
0.53784453869 -0.34306892753 0.77006024122
0.67112767696 -0.23219062388 0.70404160023
0.91950464249 0.1320964843 0.37014785409
0.88271445036 0.056021619588 0.46653205156
0.94856315851 0.036125119776 0.31449887156
0.39258047938 -0.4595092535 0.79670858383
0.39353919029 -0.29899144173 0.86933887005
0.50633639097 -0.56700265408 0.64970123768
0.63167160749 0.42899784446 0.6456438899
0.58121693134 0.32372188568 0.74641412497
0.72578132153 0.28419911861 0.62650495768
0.11291970313 -0.26910096407 -0.95646309853
0.11328566819 -0.37081578374 -0.92177540064
0.014086618088 -0.29998639226 -0.95382684469
-0.18876571953 -0.37937051058 -0.90577793121
-0.12754094601 -0.45338752866 -0.88213390112
-0.21554787457 -0.44669732451 -0.86832982302
-0.1975466311 -0.51374191046 -0.83487737179
-0.13054411113 -0.62003797293 -0.77364474535
-0.20182791352 -0.58497262001 -0.7855424881
-0.093329153955 -0.54703986645 -0.83186781406
0.022044461221 -0.52367705107 -0.85149997473
0.003832628252 -0.5911141634 -0.80651760101
0.92707687616 -0.0056796483696 -0.37477564812
0.84128087759 0.48831260204 0.23145291209
0.8772662878 0.4637388289 0.12364467233
0.81289285421 0.56378942728 0.14626276493
0.88388764858 0.34794470668 -0.31253501773
0.89234721661 0.38415971398 -0.23694017529
0.92525362968 0.30116781592 -0.23064421117
0.8452720046 0.4363052845 -0.30847620964
0.8408318162 0.24730046093 -0.48150205612
-0.33719599247 -0.35423484445 -0.87224787474
-0.25928354263 -0.31172779202 -0.91411209106
-0.2767111063 -0.40209677815 -0.8727760911
-0.36168658733 -0.28034767509 -0.88910245895
0.011864776723 -0.37999418378 -0.9249073863
-0.45170265436 0.63046449423 -0.63124483824
-0.35719996691 0.66831696033 -0.65248709917
-0.38381001353 0.58552092314 -0.71402961016
-0.27537479997 0.61695146561 -0.73725038767
-0.26205739379 0.70170688629 -0.66251009703
-0.60763269663 0.035553272814 -0.79339939356
-0.69717752934 -0.040874108672 -0.71497350931
-0.68622016907 0.08666151762 -0.72220540047
-0.60114604235 0.13659949601 -0.78735375404
-0.52449840307 0.10304724425 -0.84513235092
-0.15576983988 -0.13204416633 -0.97892695665
-0.12859962881 -0.044801969081 -0.99068820477
-0.058358669281 -0.12355235219 -0.99061781168
-0.28959256411 -0.22337430716 -0.93071305752
-0.18877387047 -0.22168822587 -0.95665323734
-0.24826103449 -0.15065969527 -0.95690375566
-0.20731589198 0.55483436584 -0.8057128191
-0.31547814608 0.52237075567 -0.79221630096
-0.28780943155 0.4124801755 -0.86429673433
-0.37209936976 0.43710950017 -0.81883245707
-0.074742339551 0.55956059694 -0.82540529966
-0.15347604454 0.62043631077 -0.7690962553
-0.31436491013 0.076843768358 -0.94617289305
-0.2510881424 0.15410542488 -0.95561850071
-0.23597463965 0.064773313701 -0.9696033597
-0.35620608926 -0.58054041862 0.73218584061
-0.30559706688 -0.48192819953 0.82118481398
-0.46999549866 -0.42079478502 0.77586120367
0.1126768589 -0.011362386867 0.99355882406
0.051558289677 -0.10106485337 0.99351966381
0.14566023648 -0.097927935421 0.98445689678
0.28012090921 -0.23330263793 0.9311452508
0.16617636383 -0.25765734911 0.9517891407
0.27004426718 -0.36155715585 0.89240145683
-0.16311295331 -0.51168686152 0.84355306625
-0.20462526381 -0.62296581268 0.7549892664
-0.26389098167 -0.3672272563 0.89191794395
-0.45237547159 -0.1213427037 0.88349407911
-0.36235556006 0.011137072928 0.9319614172
-0.49682867527 0.029628856108 0.86728990078
-0.49322125316 0.22211965919 0.84100335836
-0.39660155773 0.13166633248 0.90849733353
-0.60783416033 0.10826689005 0.78663128614
-0.34097769856 0.27140247822 0.90003848076
-0.43704882264 0.40593713522 0.80257755518
-0.2662883997 0.41395905614 0.87046980858
-0.28975105286 0.13024142385 0.94818717241
-0.62470316887 0.30581307411 0.71844303608
-0.62272113562 -0.11003417522 0.77464133501
0.2454880774 -0.50060802698 0.83013767004
0.3031821847 -0.63143247366 0.71368175745
0.10816121101 -0.5863930583 0.80270159245
0.17456310987 -0.41919282079 0.89086705446
0.41878733039 0.0508245565 -0.90660339594
0.51463109255 0.10123330355 -0.85141390562
0.49611115456 -0.033198971301 -0.86761814356
0.26133143902 -0.4546982348 -0.85137492418
0.14974425733 -0.45559680462 -0.87749731541
0.21351404488 -0.38941752911 -0.89591813087
0.2915572226 -0.53469097614 -0.79310464859
0.60952192545 0.10974238813 -0.78513032198
0.58525323868 0.21234358847 -0.78255796432
0.68182688951 0.15473675728 -0.71494668722
0.23369027674 -0.61361199617 -0.75408703089
-0.12431611866 -0.75306028128 -0.64610105753
-0.13554371893 -0.68800598383 -0.71293109655
-0.058542724699 -0.70277231932 -0.70899295807
0.049724314362 -0.44912785292 -0.89207196236
0.11863812804 -0.68640488386 -0.71750485897
0.12264255434 -0.62168979645 -0.77357268333
0.19653488696 -0.68658357859 -0.69968241453
-0.026039557531 -0.80037403107 -0.59892219305
-0.1513928175 -0.81399768591 -0.56078493595
0.36905184388 0.48977869749 -0.78986722231
0.37521713972 0.35831212997 -0.85487526655
0.29900893569 0.43505096436 -0.84930425882
0.28086361289 0.32603892684 -0.90266615152
-0.23758095503 -0.76366102695 -0.60031461716
-0.21383281052 -0.7040823698 -0.67716300488
-0.30751311779 -0.69639897346 -0.64843338728
-0.35251444578 -0.75296330452 -0.55567198992
-0.26885691285 -0.63748550415 -0.72202950716
-0.40196865797 -0.67214465141 -0.62179917097
-0.36162704229 -0.61542016268 -0.7003415823
-0.48037201166 -0.59397089481 -0.64531594515
-0.48634341359 -0.68288660049 -0.54509562254
-0.29234686494 -0.56316614151 -0.77289736271
-0.38781264424 -0.52016687393 -0.76091700792
-0.25028842688 -0.82384335995 -0.50855672359
-0.19125026464 -0.64795410633 -0.73727738857
-0.60657173395 0.58463770151 0.53869992495
-0.56656557322 0.48268869519 0.66782569885
-0.50812906027 0.62585049868 0.59168559313
-0.41198289394 0.58125758171 0.70171785355
-0.53061068058 0.58663344383 -0.61178773642
-0.51315587759 0.66058301926 -0.54800081253
-0.53151583672 0.18561829627 -0.8264657259
-0.58395892382 0.22253683209 -0.78067964315
-0.52090877295 0.27103421092 -0.80938965082
-0.5997017622 0.30409276485 -0.74018394947
0.77846395969 0.07474000752 0.62331295013
0.68902730942 -0.024383651093 0.72429412603
0.76482856274 -0.12009119987 0.63292187452
0.66422349215 0.16202224791 0.72971111536
-0.90530198812 0.1046417281 0.41168019176
-0.79159861803 0.23507416248 0.5638602376
-0.86959522963 0.2898195684 0.3992613554
-0.72863924503 0.38449984789 0.56689023972
-0.62807571888 0.37735360861 -0.6805408597
-0.69258600473 0.28092455864 -0.66439348459
-0.65763431787 0.2000593245 -0.72627854347
-0.41793397069 0.50235497952 -0.75694608688
-0.48028564453 0.54899770021 -0.68408024311
-0.50356507301 0.47374117374 -0.72249054909
-0.57122772932 0.4843916297 -0.66259628534
-0.46540975571 0.42677301168 -0.77540248632
-0.42824646831 0.37725228071 -0.82114619017
-0.50973773003 0.35153603554 -0.78522205353
-0.55395209789 0.40224683285 -0.72892570496
-0.45674026012 0.3122497201 -0.83299207687
-0.47765552998 0.22725701332 -0.84859156609
-0.64577639103 0.43970802426 -0.62421965599
-0.42379337549 0.26414752007 -0.86630439758
-0.36003062129 0.33206343651 -0.87184423208
-0.93215280771 -0.3552056253 -0.070074535906
-0.89322471619 -0.43578663468 0.11071775109
-0.95058208704 -0.27161699533 0.14890739322
0.71296387911 0.34547424316 -0.61017799377
0.64333695173 0.41682907939 -0.64213895798
0.69935816526 0.41978502274 -0.57844257355
0.18837454915 0.31680339575 -0.92958265543
0.2187834084 0.40608566999 -0.88726168871
0.23392227292 0.20552313328 -0.95026648045
0.33930030465 0.23210807145 -0.9115729928
0.38949224353 -0.055874083191 -0.91927796602
0.28539183736 0.0017856343184 -0.95834445953
0.31902295351 0.11563491076 -0.94065660238
0.41959732771 0.15865568817 -0.89374262094
-0.12115621567 0.6438382268 0.75550985336
0.033851634711 0.71757888794 0.69565433264
-0.12169525027 0.76159673929 0.63654631376
0.014159785584 0.59215039015 0.80575340986
0.016518646851 0.83756572008 0.54610466957
0.18119727075 0.76904970407 0.61279922724
0.19138792157 0.62494200468 0.75693833828
-0.28231021762 0.5414622426 0.79188156128
-0.25447458029 0.65935629606 0.70751774311
-0.13798381388 0.52124303579 0.84218364954
0.078224852681 -0.87720704079 -0.47366979718
0.11374237388 -0.81615644693 -0.56652081013
0.1819743216 -0.85388439894 -0.48746705055
0.24728749692 -0.81108945608 -0.53003227711
0.25709047914 -0.86020123959 -0.44020748138
0.1517495513 -0.74364125729 -0.65111351013
0.064045570791 -0.75624758005 -0.65112352371
-0.73598867655 0.16322822869 -0.65701562166
-0.77031344175 0.060770455748 -0.6340187788
-0.82195878029 0.14554259181 -0.55061471462
0.40005686879 0.55789726973 -0.72708386183
0.46749520302 0.49138858914 -0.73484432697
0.20334915817 0.093368068337 -0.97464936972
0.12680494785 0.16700403392 -0.9777610302
0.035788878798 0.40742474794 -0.91252481937
0.13547255099 0.39445528388 -0.90886324644
0.10159353912 0.32362863421 -0.94071429968
0.44034171104 0.42376917601 -0.79152518511
0.46780353785 0.34449326992 -0.81392419338
0.5152669549 0.4093234241 -0.75295311213
0.43094649911 0.26322758198 -0.86313515902
0.54613745213 0.32738801837 -0.77105665207
0.59182262421 0.37852832675 -0.71165376902
0.61065942049 0.2988679409 -0.73332577944
0.50829517841 0.27119162679 -0.81737399101
0.6599599719 0.32602205873 -0.67685830593
0.55849349499 0.4536074996 -0.69448167086
0.67843914032 -0.26118206978 -0.68663966656
[...]
CELL_DATA 2484
SCALARS cell_data_0 double
LOOKUP_TABLE default
1.43793525249e-07
3.73918127111e-08
1.52779049111e-07
3.86076227452e-07
8.25671009266e-06
8.8160695409e-07
8.43568133225e-06
9.78237584108e-06
4.14489601254e-06
8.57291392243e-08
5.65846789848e-08
8.51577233742e-07
8.2912088373e-07
1.5004652008e-06
2.27454980783e-07
1.6710742563e-06
1.6594828025e-07
2.36831701774e-06
6.09582846453e-07
2.03637904853e-07
3.78868186613e-08
6.61958168243e-08
2.03719372356e-06
2.76192893722e-06
2.84263313883e-07
7.34621223361e-08
3.82434881361e-07
7.54681500676e-08
1.10873009432e-07
1.5751890892e-07
4.11835492405e-07
7.01011467717e-08
1.24311286737e-08
3.38127837776e-07
7.17432470247e-08
4.0180235144e-06
2.44647921505e-06
9.94660082706e-06
4.06631169546e-06
4.2450833554e-06
3.51122498429e-06
5.30608019461e-06
5.19753868737e-06
4.22404076028e-06
8.42038776442e-06
5.06838172591e-06
5.91779087329e-06
4.34152809285e-06
3.61107350932e-06
9.19638229207e-06
6.65344101679e-06
6.67035612731e-06
9.64804026565e-06
9.33498003361e-06
8.23304586209e-06
7.6437232465e-06
9.03032033109e-06
3.78638631658e-06
7.95375984458e-06
5.2440566793e-07
1.03163333719e-07
2.84014811909e-08
5.02320668651e-08
2.64887120403e-07
1.53613526972e-07
3.44425383455e-07
7.78762081475e-09
1.5498418384e-07
3.06225687427e-06
3.22413857153e-09
1.67410964715e-06
1.9691987201e-06
3.32588260413e-08
4.02276631554e-07
5.33189185116e-07
5.14005749828e-07
1.35953867753e-06
2.38135979978e-06
1.86732726326e-06
1.45653499953e-06
1.2574575993e-06
2.03663956669e-06
1.17366870055e-06
3.89207609446e-07
3.41566602294e-07
4.29501637915e-07
3.86297826012e-08
2.19010313811e-08
2.64622070047e-08
4.89094410272e-08
5.12013430156e-07
4.8872686933e-07
3.09918367765e-08
1.28225168736e-06
8.47711876151e-06
5.90195977964e-07
3.27554005531e-06
2.35498477421e-06
4.00078198602e-07
2.04651327522e-07
4.15606327509e-07
4.47773661616e-06
5.21397452501e-06
5.03738487612e-06
6.21616157827e-06
6.67965344696e-06
8.4291536186e-06
1.47871923444e-07
5.08389814181e-06
6.12344220507e-06
6.94093929301e-06
9.09756040538e-08
2.91790254272e-06
2.4309484365e-06
2.12721411274e-07
2.22746417985e-07
2.92309490708e-07
1.22457467093e-07
2.12336797248e-07
1.10654683695e-07
6.57959454437e-08
1.65890442686e-07
1.73193122963e-07
1.51017573966e-07
2.56184376466e-07
7.86999240372e-07
1.16965876926e-06
1.41852793027e-06
4.51513326218e-07
9.79995900897e-07
1.12771163897e-06
6.07876924876e-06
1.23949863345e-06
5.2492468936e-07
9.4539361689e-07
8.26481369464e-07
3.90622111168e-07
1.67638470373e-07
3.13220978389e-07
1.67947598331e-07
7.67616585233e-08
1.11603597754e-06
7.27501999829e-08
3.4617871964e-07
7.641589429e-07
4.00343554863e-07
3.93224134029e-07
8.564620117e-07
1.11472238537e-06
3.66833154226e-07
4.32974366518e-06
6.41671592047e-06
3.46518294151e-06
3.39498711271e-06
1.2546823056e-06
6.01822130792e-06
2.64465704177e-06
1.89670908423e-06
5.99354767523e-06
7.09014943915e-06
1.02055401715e-05
6.40114114461e-06
1.01147349227e-08
8.17904630611e-08
2.89761838252e-08
2.93857640829e-06
2.70181211148e-07
3.35297057654e-07
1.47951204653e-07
2.35215398981e-06
1.94857675116e-07
3.96874335695e-08
1.17203894937e-06
2.65361440617e-07
5.93716576378e-07
9.5167271389e-07
3.29316493428e-07
7.38132841337e-07
9.29836296593e-07
1.36302614284e-07
1.58070154623e-07
1.43836385048e-07
3.33392521436e-07
1.37444128687e-07
1.19107296712e-07
3.25471914688e-09
9.28617047553e-08
7.44494745736e-07
4.7294975845e-06
4.42270269383e-06
1.50399256594e-07
5.34046474217e-06
3.17142591377e-08
1.93195369153e-07
6.94996511745e-08
2.57450972997e-07
3.29054716327e-07
7.83680969179e-08
1.6908089698e-07
8.5142011538e-08
1.04855735581e-07
2.22923308633e-07
5.33985822281e-07
4.39288961584e-06
6.40833611662e-08
2.43964339989e-08
1.48518342466e-06
7.54642413178e-07
6.90890607972e-06
3.64849749357e-06
4.563017185e-06
9.8363704068e-08
8.22802215509e-08
1.17450432693e-07
1.07170911184e-07
1.75965569745e-08
3.971538151e-06
2.75827020165e-07
9.53278209677e-06
4.56938517131e-06
1.3274023955e-07
2.79134825195e-06
3.86988282361e-06
6.52486587582e-07
1.49556243821e-06
2.3592410224e-07
3.53431808728e-07
5.75697296596e-07
3.8220859351e-07
3.89349666656e-07
6.86691251023e-07
6.86529681665e-07
4.62137582496e-07
3.6958110031e-07
1.19439754624e-06
7.4073102686e-07
7.78914467138e-07
1.4934710759e-06
4.493085171e-06
1.87749689896e-08
3.03956327584e-08
3.68585082645e-05
2.82444278659e-05
1.55656611181e-05
2.75822298496e-06
5.70010996596e-06
7.82097053437e-07
2.43596376324e-06
1.06369908433e-05
9.88508370393e-06
1.30855625396e-06
1.63916600246e-06
7.32878474068e-06
2.2775213099e-08
1.69534909067e-06
2.17988865932e-06
3.35740305696e-07
1.6324378875e-06
3.43530232007e-07
9.60066776333e-07
6.19023062774e-07
2.08303889756e-06
2.3309320703e-07
1.10896499841e-07
2.37883528884e-06
6.40763683727e-06
7.36835009012e-06
4.40742134534e-06
4.92764977603e-06
3.22336887736e-06
5.86525863643e-06
1.91672582681e-07
3.15361432536e-07
2.31661648232e-07
2.4440094348e-07
5.93513224527e-07
6.07282084129e-08
2.12302177492e-06
3.53274318295e-08
2.705039761e-06
3.12375357651e-06
3.28057724779e-06
5.36037162667e-06
7.6339772756e-06
3.45605143592e-08
1.96431813005e-08
1.40882963724e-07
1.25517215176e-05
2.7077825723e-05
1.01658871314e-05
1.90897710103e-06
2.87887007807e-07
1.44830035808e-06
4.63572971591e-06
2.81322934608e-06
2.31422353471e-06
1.46394099258e-06
1.92478647545e-06
2.0626095215e-06
6.78793504094e-07
8.64582352151e-07
9.11624441559e-07
1.00586757971e-06
5.21217961882e-07
3.67169249919e-07
1.25368408575e-06
2.87325968887e-07
2.62560613843e-07
1.10504101128e-07
2.70337473676e-07
1.22145721865e-07
1.38707359472e-06
1.46891829081e-06
1.51841657878e-06
4.80669003145e-07
9.22719803653e-07
8.67663386767e-06
6.12771214095e-06
5.18055501466e-06
5.02814453893e-06
1.76094729197e-07
1.14620436682e-06
1.77455621031e-07
2.21980285864e-07
1.09517078996e-07
1.74691516428e-07
1.44270417892e-07
1.04513140846e-07
1.38145788346e-07
1.60563048239e-07
9.2788363168e-08
1.02018922926e-07
1.5196568174e-07
9.27058446619e-08
1.20452950245e-07
2.98733315317e-07
2.42693462336e-07
1.49619482878e-07
1.31833317017e-07
2.33873529792e-07
1.68357365421e-07
1.05265480979e-07
1.41453050053e-07
6.70508753854e-06
5.00710922019e-06
4.2487656682e-06
5.10667710872e-06
3.32686942439e-06
3.68836157768e-06
4.43421529767e-06
2.89749350547e-06
1.56191061216e-06
1.88710374382e-06
1.56786368558e-06
2.52957850247e-06
4.46742025095e-06
1.8149324025e-07
8.06709036999e-07
8.86730870179e-07
8.57053359941e-07
7.78996388486e-06
2.51281234881e-05
7.05988234976e-06
3.73149217293e-07
5.44240096732e-07
1.67078875216e-08
9.44563831198e-06
1.05337298564e-05
1.59667717732e-06
9.6817046526e-07
1.07282294519e-06
3.80284011531e-06
9.57936828059e-07
1.39440705405e-06
1.35340087664e-06
9.02989878313e-07
9.76482122133e-07
5.46787329981e-07
7.18440597768e-07
6.19923957337e-07
7.7370484978e-07
7.64938415004e-07
1.11679536756e-06
1.95073145742e-06
3.38523532844e-07
4.64521933748e-08
2.85882372354e-08
1.66278195536e-08
1.14751600083e-08
1.10753718951e-09
1.65438553998e-09
2.05597739015e-10
1.75933085623e-09
6.02909832833e-09
1.59055902712e-09
3.31097751295e-09
1.37696348294e-08
3.83627956183e-09
7.74725372029e-09
2.94363883978e-07
4.55703986498e-07
1.43970481045e-07
4.35936127132e-07
3.57895315e-07
4.78498788386e-07
2.0994689654e-07
4.60059666584e-07
1.2115329023e-07
8.00532413232e-07
5.41071277094e-07
8.82886978619e-07
8.78445520879e-08
1.52410668882e-07
4.25289434887e-07
7.13863938054e-07
2.20071440945e-07
1.8552805281e-07
2.92880412887e-07
2.5245336949e-07
2.08326803977e-07
9.51382737509e-08
2.26218202682e-07
2.66387650549e-07
1.42026118309e-07
2.02743361391e-07
1.6553358701e-07
2.19448250923e-07
2.32828042098e-07
9.11012434354e-07
2.87908253666e-07
1.51273064243e-07
2.02081172686e-07
8.61269464685e-07
6.94313249806e-06
3.8970624026e-06
4.11668440616e-06
6.23907410897e-06
1.95175873771e-07
2.35047078874e-07
4.31114955568e-07
3.28546324898e-07
3.62758227774e-07
5.31127229886e-07
6.09098664834e-07
3.0122605049e-07
2.64261127147e-07
3.2109465517e-07
1.21728205726e-07
1.52582469818e-07
1.59704966219e-07
1.6278891264e-07
9.42498297408e-08
1.13906868614e-07
9.73323608717e-08
4.40219924711e-07
8.77453270532e-08
8.41583527284e-08
4.49025423737e-08
4.75758081094e-08
5.88250347734e-08
5.88536182403e-08
1.20394552259e-07
1.26974357115e-07
2.68944082973e-08
1.64416639626e-07
1.66852497427e-07
3.26797222438e-06
3.95220222134e-06
3.63816849147e-06
6.10872206338e-06
4.10303173386e-07
6.68327096273e-07
7.30826156957e-07
6.58388457465e-07
9.12641507988e-07
1.15869662948e-06
1.6257682248e-06
3.49548342922e-07
3.05453536401e-07
3.41633979286e-07
3.49576008776e-07
5.35597291417e-07
2.34340487011e-07
5.20384130088e-07
6.57299031297e-07
2.96776609215e-06
1.40820976689e-06
2.02512677432e-06
2.8237771132e-06
5.27516024684e-06
3.82121740623e-07
6.43373401598e-07
3.2281350368e-07
3.15428129477e-06
4.01609775712e-06
2.5822590535e-07
4.35454512479e-07
4.29063193701e-07
1.48061437792e-06
2.2041432698e-06
3.29583612115e-07
4.41713061528e-07
1.43388016877e-06
1.45670807428e-06
2.08278148113e-06
1.97864726504e-06
8.99643818419e-08
1.86151110899e-06
1.69884633664e-06
2.50912306393e-06
1.79410166336e-06
3.8046605221e-07
3.82780681874e-08
1.92053086915e-06
1.03018518658e-06
2.03623696175e-06
3.32149064104e-08
6.1990535792e-07
9.7527764459e-07
2.2478145558e-07
1.09428331264e-06
1.17429514967e-07
2.3716452978e-06
1.54762652964e-08
4.18309095873e-08
5.13568709709e-07
6.23213520818e-08
1.41602684456e-07
1.43868149019e-07
1.23406433443e-07
1.26535901296e-07
8.58335147092e-08
1.05701944139e-07
3.27374910845e-07
5.35752674644e-08
4.98648061109e-08
1.98680779206e-06
2.5097553397e-06
7.66236087628e-08
4.85146529895e-08
2.86753582512e-08
7.10770230364e-07
1.44937946809e-06
6.77540880915e-06
7.63974372018e-06
9.39870790746e-07
4.89020879118e-06
2.31067183342e-06
5.86423376104e-07
1.26372369245e-05
2.08906662097e-06
1.67983833629e-06
1.12102364579e-07
4.94318429939e-07
7.73589973667e-07
9.78568211293e-07
7.21218232405e-07
7.9396750012e-07
8.47868728146e-07
1.56544659725e-07
1.78528244258e-07
2.14775674981e-07
2.11738958283e-06
1.09483997595e-06
2.95449255385e-07
5.39953322264e-06
2.53192831984e-06
1.10431958257e-06
6.22956725768e-06
1.48854799603e-06
1.97693583726e-06
3.31289647912e-07
4.82425072454e-06
3.11528878006e-07
1.99597482967e-06
6.77497103152e-06
1.41632133207e-06
3.21862066817e-06
1.48551458324e-07
2.10363841264e-07
3.96503905315e-08
1.23077199466e-06
3.14320813151e-07
1.03463688397e-06
2.52832829714e-06
7.95099391266e-07
1.16949742607e-06
3.23739508526e-06
5.62068014302e-07
1.05847425804e-06
3.97681591248e-07
6.28221236601e-08
3.75698856623e-07
6.06995768729e-07
1.86330082214e-06
1.92175412479e-06
2.00977326165e-06
6.08574999935e-09
3.20798463164e-06
4.49687403308e-06
8.88361155004e-06
4.074643652e-07
1.93406460235e-07
6.50529303586e-10
4.14651190696e-08
1.92500249726e-06
1.92975749585e-07
1.27640305587e-07
1.28484964624e-07
3.46691579671e-07
2.43833866888e-06
4.47407637936e-07
7.82839495243e-07
5.32383395054e-08
4.50877855224e-08
8.84759127681e-08
3.29664374456e-07
2.80817630654e-07
1.51219313308e-07
2.17398210391e-07
7.87063083008e-07
1.53477386284e-06
2.072031108e-06
1.39300818113e-07
1.74768488164e-07
1.75282533406e-07
1.70708493467e-07
3.97564075453e-07
1.74875141552e-07
2.89326055372e-07
2.44198638171e-07
3.17816729962e-07
2.87985433513e-07
9.63271333674e-08
2.92865244423e-07
2.37794525358e-07
1.06806538079e-07
1.03718290122e-07
8.91783831191e-08
8.20720857244e-08
1.35638191768e-07
1.84728827401e-07
8.09015473529e-08
9.98701561608e-08
9.42617099885e-08
1.29835914484e-07
5.65488885211e-08
7.15510723377e-08
3.56610796611e-08
7.41556772648e-08
3.76905399128e-08
4.03319121995e-08
3.80587160653e-07
3.77351333277e-07
5.96315012972e-08
8.79092916544e-08
2.31255654088e-08
2.14181777908e-08
5.70552310204e-08
1.24145021282e-07
4.24797973049e-08
1.02339854096e-08
5.83201588982e-08
1.67182436741e-07
1.1990354195e-08
9.85333827886e-07
5.14095616837e-08
1.26592603858e-07
9.82273513497e-08
5.66330648484e-08
9.24377326477e-08
2.80538178735e-07
1.88228106982e-07
1.67332940186e-07
3.77373892397e-06
4.60328506076e-06
2.48055330309e-06
3.77827159729e-06
1.76795354275e-07
1.95821091143e-06
2.11564266275e-07
1.99975965099e-07
1.32640349131e-07
1.47671609923e-07
1.60248948956e-07
2.52934698562e-08
4.18806432457e-08
3.30172814152e-07
3.57488595788e-07
1.73218584788e-07
1.39590917463e-07
1.29314472188e-06
2.34525264318e-07
3.80910253158e-09
1.42945665629e-06
1.70920472883e-06
2.65627389892e-07
1.34687029373e-07
3.35385984754e-08
8.30368124588e-08
3.45822036362e-07
1.54008831898e-07
2.11033667685e-08
3.11917695846e-06
2.81394997011e-06
2.11501135195e-07
2.19256456142e-07
1.55111821529e-06
2.03929502806e-06
1.10476289005e-07
3.51102107493e-08
1.33905643986e-07
2.73521743358e-07
1.94286368864e-07
1.59162421999e-07
1.58331432298e-06
8.3125406477e-08
5.00405969872e-07
3.36209644917e-07
1.54928320415e-06
6.74294199631e-07
3.96861047106e-06
9.444736363e-06
1.0570856648e-05
2.93903629947e-06
3.17854896738e-06
5.93249933199e-07
1.2024201562e-06
6.67287434098e-07
7.72004226818e-07
3.00042914938e-07
2.86404198234e-07
2.03126185079e-07
2.67274763341e-07
3.55845524895e-07
2.88310036588e-07
2.49541978832e-07
3.68971405683e-07
1.65879931642e-07
3.1499475689e-07
1.72634725184e-06
3.48450852405e-06
2.4508860381e-07
4.39488476629e-07
1.22125929619e-08
7.36934352062e-07
4.16022007111e-07
2.86704934891e-07
3.90085984638e-07
8.27997364325e-07
6.47303553694e-07
8.08651782628e-07
1.63498506453e-06
8.00447232696e-07
2.05740872971e-07
2.72064389717e-07
6.96466744639e-07
5.50548989722e-07
8.26058638362e-07
5.88573493772e-07
1.03901575927e-06
1.19700486372e-06
1.22405541981e-06
1.16185250944e-06
6.99463701821e-07
3.92243978488e-07
8.1770922549e-07
8.26848343705e-07
8.94542983964e-07
8.34467205748e-07
1.00848972832e-06
9.74531972734e-07
7.68704790568e-07
6.73576258145e-07
7.99030542291e-07
2.59339750662e-07
2.81812129949e-07
1.42471703647e-07
2.81805735143e-07
7.12578195851e-07
3.82459011062e-07
4.70855694721e-07
4.37277991575e-07
1.95832087159e-06
2.51118441866e-07
4.55916721953e-08
8.15871017421e-07
3.02475157687e-06
1.00377850553e-07
2.13572894348e-07
3.04547963547e-07
6.79886433482e-06
4.6687762643e-07
9.47259723403e-07
7.25706552165e-07
4.35233424004e-07
1.19286409046e-06
1.32206117742e-06
1.26355422828e-06
3.43905928125e-06
2.33373769357e-06
1.50092431197e-06
2.30015113907e-06
9.09876243413e-07
2.96661960621e-07
1.09443839396e-06
6.33805763194e-07
9.84032744563e-07
2.75846898739e-07
3.30493037821e-07
4.36596342425e-07
9.64737558604e-07
1.85674492539e-06
5.88413602667e-07
1.09119010691e-06
1.37780115665e-06
2.40419397875e-07
1.46702144082e-06
1.74998769689e-06
9.11811462564e-07
7.3665090715e-07
1.65133463482e-06
1.89708064204e-06
8.21304076906e-07
1.39293974378e-06
1.73128334243e-06
1.70861513993e-06
2.6272386528e-06
6.80045742327e-07
4.1995383534e-07
2.89962382643e-07
5.65110294882e-07
1.78538590117e-06
3.99393854556e-07
1.47619429663e-06
8.53508132301e-07
5.50578342391e-07
1.70592440631e-06
2.45929580426e-06
1.28056127106e-05
4.14151261331e-06
1.53012782209e-06
2.22110264654e-06
2.06419224464e-07
3.0593748952e-07
1.12352706228e-06
1.56789918994e-06
2.52354837489e-06
2.51369029253e-06
1.07102691141e-06
1.25351294068e-06
6.22623298728e-07
2.38867833124e-06
2.72881510975e-06
1.42024542048e-06
1.1388342297e-05
4.10920537973e-07
5.1048363863e-09
2.41237058081e-07
5.21742271152e-07
6.88211442581e-07
5.89843692894e-07
5.20783775909e-07
3.90223111558e-07
8.52252944942e-07
1.15831483297e-06
8.70876220487e-07
4.72940493917e-07
1.98415862197e-06
4.04112229364e-06
2.98018998391e-06
2.6681574401e-06
3.61311788965e-06
1.13243578659e-06
8.48275324651e-07
1.09112780591e-06
4.76511417125e-06
7.20031948484e-06
9.32501923572e-06
6.62460774179e-06
4.54022013472e-06
3.13809636111e-06
2.71170460076e-06
2.28193299202e-06
1.7358481255e-06
1.51461745545e-06
2.57938191744e-07
2.60802950994e-06
4.55435251478e-06
3.37150256376e-06
6.04480010271e-06
6.91469502635e-06
4.98866514261e-06
4.31309590173e-06
3.58018574873e-06
3.66802297032e-06
3.33795908837e-06
3.56229973562e-06
2.39541402664e-06
4.30054088671e-06
5.03201118196e-06
6.44382381834e-06
2.28768654128e-06
4.12785845478e-06
5.32407995565e-06
4.6243769631e-06
2.95636536231e-07
7.67101766138e-07
1.87771068607e-06
1.99261924559e-06
1.20765343566e-06
1.20745949107e-06
9.33234811456e-07
2.31779387659e-07
2.03267680415e-08
4.51161362641e-07
3.86971254433e-07
1.57699078965e-06
1.52868185504e-06
3.42784346061e-08
1.40430631403e-06
2.07005954497e-06
2.0575356416e-06
2.35782100243e-07
1.50565089831e-08
1.88926443591e-06
1.01646424305e-06
4.33071940816e-07
7.46042440389e-07
1.55468135363e-07
4.13792033137e-07
1.0320474061e-06
7.28390452759e-07
8.55463171166e-08
1.7475354449e-06
4.66083269158e-07
9.35188195787e-07
1.07628377371e-07
3.72483850658e-07
8.99462962746e-08
3.62184484734e-06
2.18580683578e-06
3.99840463543e-06
1.22169657375e-05
7.2551708003e-07
8.9839019126e-07
8.49223459582e-07
9.38812954005e-07
1.25972830621e-06
1.01670801091e-06
1.27426087784e-06
1.92548238891e-06
2.29807462847e-06
1.09313672351e-06
2.63733277233e-06
2.27083506762e-06
1.45746259793e-06
1.31531592454e-06
1.83258920113e-06
1.18341520569e-06
1.17785312521e-06
9.63634274725e-07
1.19979082535e-07
2.3984393604e-06
7.50733089689e-07
1.32589888918e-06
1.02911849667e-06
5.51634287109e-07
5.62783028598e-07
7.07097089511e-07
3.89038468398e-06
7.88955640161e-06
1.17276351e-06
5.59563529421e-07
3.67374763397e-07
1.41925275e-06
3.03028514993e-07
1.18692828115e-06
7.53800208132e-07
8.0242081056e-07
1.61477295975e-06
2.49892205913e-06
1.28170948409e-06
3.30427629788e-07
3.79738064597e-07
3.68849494521e-07
4.18898629276e-07
3.72133825455e-07
1.02304586244e-07
2.03012259804e-06
2.47009839243e-06
2.06564874274e-06
2.20821816234e-06
6.56386630044e-08
1.94882493575e-06
3.6997572562e-08
6.48497795103e-08
7.24600237746e-08
6.92796972408e-08
6.05339168133e-07
6.79440330858e-08
8.72722993414e-08
2.75291114838e-08
3.99948557426e-07
6.11884398213e-09
3.793565539e-06
4.11274611132e-07
1.16532432277e-06
3.97966956797e-07
1.54053518408e-06
1.3912797882e-06
2.00123405686e-06
1.32248110112e-06
3.69194074191e-06
2.58929294082e-06
5.27652314741e-08
1.02183940867e-07
2.59938569313e-07
1.05562936151e-06
8.25225368967e-07
1.39001471963e-06
1.10767958049e-06
9.56868091298e-07
4.20512830112e-07
2.16248678789e-06
7.43392223741e-06
1.02225526005e-05
3.53778347997e-06
6.88980029423e-06
8.82133824197e-06
1.8222631047e-06
2.39265967189e-06
3.72891305503e-07
3.15234168339e-07
1.12665724993e-05
1.4145372759e-05
6.77726750193e-06
6.25059315164e-07
7.47295656193e-07
7.00390058374e-07
8.18485370031e-07
1.06204343048e-07
8.55498837086e-07
5.8983624669e-08
7.31950096013e-08
1.83367741257e-08
5.60241169911e-08
1.57143162746e-06
3.29929709553e-08
2.12565336768e-08
3.28019575047e-08
6.25944646099e-09
1.88653419399e-08
4.27322530432e-08
3.44877450538e-09
2.03765146324e-08
3.95261575788e-07
4.94424196119e-07
3.76745430715e-07
2.93685329118e-07
4.72836161119e-07
1.02873555191e-07
5.98626898773e-07
5.94111334843e-06
7.87649421549e-06
3.34857008492e-06
5.58968517665e-06
3.44266347463e-06
2.4031911013e-07
1.60826369634e-07
5.26840357162e-06
4.65895883223e-06
3.5562806441e-06
9.10564063448e-09
5.84602619563e-08
5.30988937975e-07
7.17817159078e-07
1.2200013154e-07
6.53030203227e-08
7.79153795318e-06
5.86527786123e-06
1.13255798041e-07
4.70545944613e-06
5.81249111143e-06
9.60156832652e-09
1.13380880227e-08
1.70774684778e-06
1.21074400398e-06
1.40874499715e-06
4.3106789353e-07
7.79568690254e-07
1.67373271129e-07
4.04005394405e-07
7.29287533133e-08
1.77072754519e-07
2.27425420719e-07
2.03764028672e-07
2.93641715558e-06
3.97435841523e-06
3.97596065738e-07
5.40235601764e-07
4.40294704849e-07
3.9062361536e-06
1.29907233836e-06
2.26883902554e-06
4.64832904084e-07
1.01123084276e-06
1.36604845523e-06
5.89283298233e-07
9.93310301486e-07
2.6714780661e-06
6.12981831437e-06
4.46963389114e-06
3.50563381815e-06