# vtk DataFile Version 3.0
File Name: Molecule/sphere_excent/sphere_excent_0-s27.vtk
ASCII
DATASET UNSTRUCTURED_GRID
FIELD FieldData 1
TIME 1 1 double
0.0
POINTS 343 double
0.33741179109 -0.62169957161 0.70689815283
0.0028438111767 -0.85057169199 0.52591532469
0.50044482946 -0.80965834856 0.30606544018
0.85000872612 -0.32963231206 0.41059362888
0.86556577682 -0.49464574456 0.072515696287
0.98714113235 -0.13080784678 0.092004969716
0.52379745245 0.71890848875 0.45565012097
0.39120557904 0.56951063871 0.72089660168
0.72135734558 0.35692942142 0.59326702356
-0.5495031476 -0.80791598558 -0.20746906102
-0.0021054509562 -0.99938136339 0.027632132173
-0.47058960795 -0.84436893463 0.25237935781
-0.8965575099 0.16598846018 0.40938651562
-0.98892337084 -0.12861938775 0.072244279087
-0.82659900188 -0.29698577523 0.47723579407
-0.8384218812 -0.53450417519 0.077780291438
0.47882604599 -0.85768336058 -0.18587829173
0.0072571486235 0.99967628717 0.015353156254
-0.26627328992 0.94668596983 0.18109865487
0.0041230572388 0.86820501089 0.49269244075
-0.44687369466 0.79073637724 0.41802054644
-0.2582230866 0.95137310028 -0.1685128212
-0.51350218058 0.85800337791 0.0017401828663
-0.48696807027 0.80542701483 -0.33810311556
0.03899589926 0.9328546524 -0.35731890798
0.26564314961 0.95405566692 -0.13845254481
0.27420929074 0.93465077877 0.22375413775
0.45286896825 0.89123719931 0.025172866881
0.39652663469 0.83592355251 -0.37911617756
0.21496510506 0.74326717854 0.63151305914
0.59143435955 0.5319892168 -0.60592699051
0.42615777254 0.70572215319 -0.56597590446
0.59609729052 0.6587792635 -0.45645350218
0.15701700747 0.80143731833 -0.57664358616
0.94334602356 -0.25623646379 -0.21181415021
0.80394536257 -0.39634269476 -0.44165980816
0.87529993057 -0.13134437799 -0.46545946598
0.97547054291 -0.018002308905 -0.21952226758
0.41333007812 -0.27211734653 -0.86759281158
0.18055233359 -0.21947477758 -0.95868760347
0.37635263801 -0.043055426329 -0.92464333773
0.23962901533 -0.41457670927 -0.87727546692
0.24330617487 -0.0022253983188 -0.9691594243
0.027791377157 0.033738199621 -0.99890619516
0.67720377445 -0.64044588804 -0.36255711317
0.48912546039 -0.67552804947 -0.551648736
0.69090950489 -0.45046985149 -0.56364047527
0.61854100227 0.31831690669 -0.71829992533
0.70488965511 0.34590545297 -0.61760097742
0.68052816391 0.22117120028 -0.69849872589
0.68223041296 -0.22905942798 -0.69361805916
0.75584185123 -0.073610268533 -0.64987814426
0.7514911294 -0.31039825082 -0.58069473505
-0.6123829484 -0.11968436837 0.7807765007
-0.46207028627 -0.323687464 0.82553577423
-0.37481954694 -0.12442309409 0.91854834557
-0.27128395438 -0.30388021469 0.91324263811
-0.598282516 -0.47975471616 0.64135891199
0.93453198671 0.11411923915 0.33620458841
0.96758431196 0.21291045845 0.13553456962
0.84308636189 0.4426908493 0.30519372225
-0.95452624559 0.049603879452 -0.29416576028
-0.87055140734 -0.32700818777 -0.36648362875
-0.78254878521 -0.12678661942 -0.60935717821
-0.82981383801 0.19664935768 -0.52241319418
-0.86945259571 0.40778881311 -0.27892094851
-0.96734285355 0.25200107694 0.023253751919
-0.85177963972 0.52388465405 0.0026239727158
-0.66579186916 0.59888911247 -0.44511756301
-0.70688152313 0.68547940254 -0.17509405315
-0.69507396221 0.6909352541 0.19845461845
-0.46590360999 -0.33458122611 -0.81870573759
-0.63049262762 -0.4560880959 -0.62536114454
-0.6014585495 -0.1785119772 -0.77828317881
-0.50812786818 -0.54993844032 -0.66132682562
0.50477552414 0.84818696976 -0.1599663645
0.62543344498 0.70833128691 -0.32176887989
0.64347326756 0.76556926966 0.0065394029953
0.6552618742 0.72814339399 -0.19609563053
0.80782085657 0.58929646015 -0.00080830324441
0.71254706383 0.6741784811 0.19477140903
0.54007083178 0.81858104467 0.19544310868
-0.64297795296 0.5794326663 0.49959808588
-0.3557703495 0.60881817341 0.70782262087
-0.84376651049 0.45843943954 0.27820581198
-0.71037387848 0.40610197186 0.57268685102
0.058116532862 -0.5550006628 0.82959729433
0.51173341274 0.28280887008 0.8113642931
-0.010309834033 0.31642618775 0.94851720333
0.16818483174 0.31316629052 0.93370145559
0.026431813836 0.53711152077 0.84264105558
-0.038717918098 0.12168736011 0.99184137583
0.14650917053 0.14204353094 0.97892826796
0.08649661392 0.00014298805036 0.99621856213
0.20222684741 0.57660079002 0.79156059027
0.31175804138 0.39956629276 0.86172407866
0.3427695334 0.17595672607 0.92281961441
0.51449733973 -0.025481050834 0.85695588589
0.27891212702 -0.020591074601 0.96006119251
-0.01357817743 -0.92633879185 -0.37553733587
0.21909481287 -0.91778379679 -0.33097869158
0.37267711759 -0.46237978339 -0.80445325375
0.56360679865 -0.48259246349 -0.66791194677
0.35369420052 -0.59440255165 -0.72170650959
0.85691791773 0.13380756974 -0.49762895703
0.77572286129 0.20707587898 -0.59612953663
0.83231145144 0.30141592026 -0.463629812
0.80286592245 0.051133725792 -0.59385234118
0.71662157774 0.088335059583 -0.6918361187
0.59886318445 0.1050535664 -0.79393529892
0.65148037672 -0.01687547937 -0.75845861435
0.50956463814 -0.036908552051 -0.85920506716
0.60124778748 -0.14062355459 -0.78645414114
0.069224335253 -0.86143475771 -0.50263500214
0.31984838843 -0.80699592829 -0.49537375569
0.2793404758 -0.70406860113 -0.65215069056
-0.26300099492 -0.89656347036 -0.35653907061
0.14594899118 -0.74317771196 -0.65281671286
-0.0077380156144 -0.77321100235 -0.63401687145
0.064234107733 -0.68488651514 -0.72579914331
-0.05535620451 -0.68325394392 -0.72805643082
-0.13642191887 -0.7235430479 -0.67641752958
0.093781478703 -0.59233999252 -0.80021315813
-0.026369506493 -0.60143184662 -0.79848080873
-0.099441289902 -0.85448664427 -0.50984281301
-0.24080915749 -0.80849635601 -0.53641909361
-0.41985425353 -0.76061671972 -0.49394994974
-0.12941253185 -0.61011189222 -0.78163456917
-0.12242174149 -0.53539806604 -0.83564209938
0.19106057286 -0.64611595869 -0.73883408308
-0.74873369932 0.40314090252 -0.52629637718
-0.67707818747 0.31288409233 -0.66608214378
-0.64489758015 0.43317404389 -0.62936687469
-0.71596521139 0.093159496784 -0.69059681892
-0.38589322567 0.18949511647 -0.90289187431
-0.46629923582 0.088479265571 -0.88015317917
-0.4935246706 0.20491671562 -0.84505522251
0.51275742054 -0.31205108762 0.79993319511
0.67853397131 -0.22380746901 0.6999605298
0.61415100098 -0.4743463695 0.63062083721
-0.75284439325 0.051872316748 0.6556032896
-0.57618278265 0.13844235241 0.80563801527
-0.69428068399 0.24508026242 0.67584401369
0.84735053778 0.019919807091 0.53081470728
0.33793756366 -0.38523676991 0.85866320133
0.37256637216 -0.19252166152 0.90782779455
-0.22145424783 -0.45717760921 -0.86127215624
-0.37020018697 -0.50411880016 -0.7800770998
-0.2991887033 -0.37288171053 -0.87818390131
0.65225625038 0.13079296052 0.74644088745
0.22062824667 -0.20043304563 0.95443123579
0.089253939688 -0.40497842431 -0.90966534615
-0.010629567318 -0.30024725199 -0.95373046398
-0.14854824543 -0.36855497956 -0.91765570641
-0.03216040507 -0.41006472707 -0.91148883104
-0.11198886484 -0.45483738184 -0.88347274065
-0.0020271446556 -0.50627982616 -0.86233729124
-0.22456926107 -0.55114102364 -0.80362689495
-0.26548942924 -0.61387741566 -0.74336063862
0.92377483845 0.063313916326 -0.37730333209
0.91283792257 0.4015250206 0.074323549867
0.99267220497 0.1108930558 -0.046169646084
0.94120502472 0.16430552304 -0.29514560103
0.96711409092 0.1937417239 -0.16468605399
0.92731112242 0.28161585331 -0.24649050832
0.89796715975 0.2667427659 -0.34948644042
0.93568629026 0.3212415874 -0.14587469399
0.87993472815 0.35532683134 -0.31518623233
0.89312434196 0.39459824562 -0.21591414511
0.83362460136 0.44484502077 -0.32557794452
0.83124303818 0.38521254063 -0.40051078796
0.90184807777 0.42538943887 -0.075677521527
0.84755152464 0.49786344171 -0.18370704353
0.89517939091 0.18752406538 -0.40440180898
0.95958304405 0.27990087867 -0.029119703919
-0.043166663498 -0.15613499284 -0.986743927
-0.17585030198 -0.24485953152 -0.95345664024
-0.20126537979 -0.11955863237 -0.97220832109
-0.3218678236 -0.26476615667 -0.9088973403
-0.24632672966 0.86882615089 -0.42883360386
-0.071164183319 0.53158974648 -0.84400105476
-0.12922795117 0.62275362015 -0.77166736126
0.015364316292 0.60825318098 -0.79358649254
-0.039324089885 0.72711956501 -0.68536508083
-0.22712147236 0.68582981825 -0.69141113758
0.12677501142 0.6724140048 -0.72921133041
-0.28796505928 0.56991660595 -0.76956236362
-0.05558071658 0.83479255438 -0.54728859663
0.70775473118 -0.69990080595 -0.094674870372
0.83264911175 -0.50901162624 -0.2182714045
0.41148364544 0.59293478727 -0.69217044115
0.27522110939 0.67970663309 -0.67983222008
0.28236845136 0.57037371397 -0.77131730318
0.4081723392 0.4785964787 -0.77705991268
-0.33683630824 0.76410323381 -0.54997563362
-0.48573285341 0.69789224863 -0.52626359463
-0.36661928892 0.65617018938 -0.6595723033
-0.48068881035 0.60178995132 -0.63771927357
0.15848045051 0.3946005702 -0.90482920408
0.15047648549 0.53547030687 -0.83103370667
0.2931804359 0.44124945998 -0.84812474251
-0.41112390161 0.54387277365 -0.73139441013
-0.18686196208 0.78118938208 -0.59561562538
0.032372564077 0.46662220359 -0.88385349512
-0.12674956024 -0.031506866217 -0.99140411615
-0.17766569555 0.091014139354 -0.979827106
-0.26092091203 -0.0099991774186 -0.96532183886
-0.32593780756 0.093028277159 -0.94079697132
-0.33331871033 -0.096797510982 -0.93781244755
-0.40030691028 -0.010542162694 -0.91628563404
-0.47119709849 -0.13330724835 -0.87173420191
-0.52425462008 -0.033816915005 -0.85080873966
-0.5762887001 0.054450884461 -0.81536459923
-0.65457546711 -0.027056565508 -0.75547999144
-0.63481837511 0.13066911697 -0.76137089729
-0.56122720242 0.15779946744 -0.81245934963
-0.28150346875 -0.17970009148 -0.94254851341
-0.3814086318 -0.1892618835 -0.90468531847
-0.080826081336 0.20084819198 -0.9762340188
0.084885202348 0.19696880877 -0.97645896673
-0.009642268531 0.33316126466 -0.94280332327
-0.18052984774 0.31631991267 -0.9313146472
-0.25258639455 0.20282199979 -0.94608789682
-0.33251076937 0.31575623155 -0.88863271475
[...]
CELL_DATA 682
SCALARS cell_data_0 double
LOOKUP_TABLE default
1.89634637795e-05
1.19186549078e-05
2.03306774929e-06
1.9333911269e-05
1.17337366403e-05
8.30430674366e-06
1.57912754535e-05
1.14340604234e-05
1.28655161007e-05
7.74129980895e-06
2.36300460842e-06
3.96287437534e-06
3.14049362919e-06
3.90820040413e-06
1.56712305372e-06
3.69984595477e-06
3.55452198672e-06
2.87598941838e-06
2.79755937822e-06
3.99566639194e-06
4.87291749008e-06
1.39358132788e-05
2.05372458037e-06
2.26906122965e-07
5.78992066764e-07
5.69151650182e-06
3.56255828091e-07
2.94554306473e-06
1.31021444737e-05
1.61566432572e-05
6.89654184536e-05
0.000159043199061
8.26878687505e-05
4.67542915241e-07
5.72619118722e-07
4.05479756543e-06
1.6621890531e-05
1.20491446332e-05
1.37296020455e-05
9.13216312329e-06
3.93967946967e-06
4.37393180618e-06
1.01415397915e-05
1.42612294656e-05
3.20261106144e-06
8.35343572028e-06
1.69020477873e-06
1.76277121497e-09
3.18772489628e-06
4.34775188543e-07
8.36825027631e-06
4.39459096416e-06
1.9857607404e-06
7.21651923066e-06
5.82428384815e-06
2.73080666739e-05
9.14162048649e-06
1.45029155422e-05
1.21856816962e-05
3.51731507052e-05
2.39939465462e-06
2.09787912609e-05
1.21857965371e-05
4.41376029801e-05
7.7553493215e-05
4.35608430812e-05
5.71109124096e-05
2.06760335342e-07
2.20810963038e-06
2.91233907918e-05
2.13667960569e-05
2.22888302408e-05
9.2363592433e-06
2.18866926818e-05
9.21231746973e-05
0.000210453729785
0.000101637935332
7.6840822084e-05
2.54854684983e-05
3.04715472626e-05
2.86258505242e-05
7.22348208876e-05
6.06421816285e-05
1.73202577324e-05
1.40619208228e-05
1.13501057332e-05
8.90767216827e-06
1.00545641465e-05
1.43157008033e-05
1.08885977276e-05
1.00223861006e-05
1.03282521152e-05
1.62914833382e-05
1.08597906075e-05
1.06443738534e-05
9.57179819351e-06
1.55930846173e-05
1.48588335907e-06
4.18370730058e-06
3.08482101239e-05
1.79971369667e-06
5.76528315714e-07
1.74180092543e-08
5.30286429627e-08
5.63306276861e-08
2.71605904781e-08
8.51692560339e-08
1.6356648638e-07
6.1407082841e-08
2.97347816957e-08
1.24759067157e-07
4.91490358212e-06
1.65214233495e-07
1.57772035292e-06
1.23134761727e-06
1.0118496609e-06
1.86965186076e-08
4.29351791854e-06
1.8789796551e-06
6.64904338931e-09
8.82532172875e-08
5.6213841058e-08
1.99040126513e-06
3.82807457169e-06
9.86301377756e-06
1.89229424419e-05
3.98941682611e-06
3.67395493587e-06
1.78823382915e-06
1.07268158526e-07
6.60073165038e-06
3.59909654429e-06
2.30524793508e-05
1.60471780797e-05
1.74924443841e-05
2.13354167453e-05
1.97465111935e-05
4.24331312705e-05
4.55186401605e-08
1.83970140695e-05
3.17108233694e-06
1.00624344654e-05
3.35065049703e-05
3.54173676938e-05
1.95873225825e-05
1.53464673372e-05
1.45190318292e-05
1.04428479787e-05
5.4212826303e-06
7.93545719958e-06
8.56302642269e-06
8.16712449328e-06
6.80613074979e-06
1.24559183038e-05
1.18543961596e-05
2.26055949932e-07
1.11799272545e-05
8.97533644533e-06
2.22492877731e-05
1.27623248063e-05
1.64032452753e-05
3.67799528559e-07
6.6138663606e-07
4.09304083543e-07
5.87838816848e-07
3.12173630952e-07
1.42558138983e-07
2.94475770504e-07
2.37733606669e-07
8.54353051729e-06
1.5266358513e-06
2.52175101566e-06
2.59145975727e-06
8.83810793778e-08
1.00609360916e-05
2.47933084083e-06
1.86982452796e-06
1.32012291557e-05
1.89197616542e-06
6.2740177551e-06
5.59108566253e-08
6.65072603587e-06
4.45542794265e-06
5.11206816225e-06
7.9474198633e-09
2.61963291348e-06
4.09877071098e-06
5.70127090257e-06
5.01399521103e-06
4.11964170017e-08
3.8649100122e-06
2.42187940722e-06
9.70567759314e-06
1.22534242605e-06
8.17062263804e-08
7.27453219844e-08
5.94451435633e-06
6.02624470564e-06
6.43667113644e-06
2.40362410137e-07
5.80170693065e-06
8.61735365508e-07
8.93398173865e-07
3.4315249497e-07
5.6475564593e-06
1.99903000351e-06
2.71546765518e-05
1.69362946958e-05
3.59506254964e-10
4.73452402811e-08
1.3798095806e-07
1.09562463705e-07
1.88782169941e-07
7.92439085532e-07
1.39289702493e-06
1.59794048784e-07
1.44279316097e-07
1.25398274136e-07
2.55135221777e-06
1.67262424799e-08
1.93043113782e-09
3.30818751007e-08
2.47082946907e-08
6.56056600412e-08
1.13318645201e-07
1.96927522158e-07
1.64064533807e-06
8.46601402506e-07
5.52201966885e-06
4.99290012881e-06
2.13942253553e-06
1.31383286845e-06
8.08361579787e-07
1.81297383005e-06
2.49123792639e-06
3.08020124352e-06
6.31705252106e-07
1.87123324365e-06
1.89453609578e-07
1.86892246202e-07
2.08543009251e-07
1.25446087572e-06
9.39872443218e-09
1.74810512999e-06
3.37301958326e-08
5.54015121494e-08
7.12900050136e-06
4.05157594531e-07
8.89093190294e-08
3.97402195438e-08
9.55884891269e-07
1.30029544545e-06
5.83951023797e-06
1.14179755104e-07
3.73304072745e-06
1.36282040564e-05
8.71429132214e-08
1.14560638492e-07
1.02560239163e-07
2.85661715e-06
1.93863923402e-08
4.37149896753e-09
4.32344499542e-08
1.0010532057e-07
1.44119284125e-07
8.83977992963e-08
1.61546027474e-07
5.65367455503e-08
1.40557296702e-07
9.80967291908e-08
1.47614046417e-07
9.54204045038e-08
1.57171918464e-07
1.47914587935e-07
1.27169485456e-07
3.66831436255e-08
9.43909963949e-08
1.00952266683e-06
1.25011415266e-07
9.68416295256e-07
2.03017124845e-09
2.38782358036e-06
2.58454889759e-05
1.06212345132e-06
4.27987687774e-06
2.29262885889e-05
1.02283164389e-06
1.45977280576e-07
1.60299776539e-07
9.69962376376e-08
1.87159223018e-08
4.36010298341e-09
6.58449923644e-08
7.35062549636e-07
5.00927176414e-07
2.25733006259e-10
9.01165829804e-08
1.74764497488e-07
5.44726270009e-08
1.81218177979e-07
1.07417899894e-07
7.06841955586e-08
4.62432619642e-08
1.77577348154e-07
6.39601053014e-08
9.19741422938e-09
9.92012333531e-09
8.18516136506e-08
1.29048510979e-07
1.9054016281e-09
1.71825499512e-12
3.02018768954e-07
1.20670480232e-07
4.97004726821e-08
2.06985467373e-09
3.09119767811e-07
2.85157004381e-08
6.80559584006e-09
8.5390150505e-08
1.88511042287e-07
1.78829596786e-07
1.17048582065e-07
7.200526038e-08
7.8436648823e-08
2.27971943612e-05
2.13310357901e-05
9.07098178822e-06
1.03878684873e-05
6.40405508606e-06
7.24040644746e-06
8.30223986915e-06
8.34965861436e-06
1.69240758799e-05
1.20412710715e-05
9.38399216202e-06
6.86137036519e-06
1.87311977265e-05
1.20526413477e-05
8.93305121559e-06
1.00678430294e-05
4.39899329054e-06
3.6997531563e-06
1.1915616072e-05
1.28431811629e-05
1.29571811e-05
9.41059105542e-06
1.30942146818e-05
9.91181178323e-06
1.13506334872e-05
1.07085958477e-05
1.32864717723e-05
1.06355191697e-05
1.02092327501e-05
7.09970292191e-06
8.27345001619e-06
6.67573946057e-06
1.02403968561e-05
1.1174119385e-05
1.10153271083e-05
6.43308667835e-06
7.74136471173e-06
4.77286800037e-07
3.53799973501e-06
1.51125091586e-05
1.23158824677e-05
5.56435086759e-06
6.18809242151e-06
1.65800245699e-05
2.11301311763e-05
1.75919310764e-05
9.1405993776e-06
1.79625687346e-05
2.12074326518e-05
1.96538416353e-05
7.09182387333e-06
1.85375167831e-05
1.4567764917e-05
1.22926427964e-05
1.53249747718e-05
1.07088819471e-05
6.37089754576e-06
1.36632778989e-05
1.57797931238e-05
1.00728657653e-05
1.45204206752e-05
2.11738878357e-06
1.66817275284e-05
1.38530990472e-05
8.88980849981e-06
1.48581812855e-05
1.36897383723e-05
1.32771197676e-05
8.13204741177e-06
1.60050932175e-06
4.83156181642e-06
1.13353962501e-05
9.74826107786e-06
2.13753688492e-05
6.63149988132e-05
3.07522990158e-05
7.21420554627e-05
7.72447303961e-05
6.96635823408e-05
1.45659719469e-05
1.17243191362e-05
2.60741647807e-05
5.08053390016e-05
3.27307153166e-05
7.37377860061e-06
1.24199166653e-05
1.26394422332e-05
2.51625288248e-05
1.91080765193e-08
9.95512285329e-07
5.78135870969e-06
5.39205332796e-06
3.50605131863e-08
3.96474962377e-08
2.30492973051e-06
7.14336688626e-08
1.10560495047e-05
9.27255541883e-06
1.60502598328e-08
1.9358424702e-08
3.64541487288e-06
3.5196703697e-06
3.0881159686e-06
8.41114671516e-09
3.22808029135e-06
3.33881887381e-06
4.44968584201e-06
6.77169454937e-06
7.28482615647e-06
2.17534131423e-05
8.83779772378e-06
1.96520716527e-06
9.42690646147e-08
5.27286277726e-06
3.08130801384e-08
1.13395934107e-08
5.41783597297e-09
2.81258805044e-06
6.61222394987e-07
1.1766693695e-06
3.60047752803e-06
2.49374960304e-06
1.10400526809e-05
7.3576999169e-08
1.32394505749e-07
1.21643555183e-05
3.33564941193e-06
3.36344891818e-08
3.04316057888e-08
3.25161121048e-08
3.66189333119e-06
6.36028108872e-06
6.67993885696e-06
2.59701091695e-06
3.424295393e-06
4.23755184042e-06
2.98436980952e-06
5.74829231635e-06
6.05346002239e-06
9.1266344846e-06
1.00553424765e-05
6.69552897958e-06
4.05570329455e-06
7.78747675668e-06
4.02380057946e-05
3.8016982615e-06
4.25015192686e-06
5.15517998989e-06
8.12777655514e-08
3.30103686446e-08
3.81958770117e-08
3.60494063453e-06
1.14783677802e-05
2.71114810376e-05
2.35834424191e-09
9.0006390642e-07
3.75810249069e-06
6.77557851409e-06
5.77421115993e-06
2.20453556378e-06
2.72078211316e-06
6.2679827765e-06
1.01590992945e-06
2.23361080257e-06
5.2217490348e-06
3.33951520776e-06
3.07351567331e-06
7.68644807543e-07
3.33847719751e-06
3.15074421548e-06
1.66934550292e-06
1.1572133483e-08
1.48592738637e-08
3.42246051968e-06
3.18842841711e-06
6.93295402083e-07
3.76472604904e-06
2.25988834828e-06
3.1637986475e-08
3.81275501986e-06
7.81969155375e-06
2.05266698277e-06
1.27800896837e-05
9.20874967554e-06
1.15855848218e-05
1.19257481181e-05
2.87195097467e-06
2.84044303591e-06
5.29164938605e-06
4.0995744816e-06
1.15346094242e-06
1.52630761265e-06
1.12452238001e-06
1.35159341261e-06
5.40340891276e-05
4.09850079805e-07
2.36998970384e-07
2.56911115517e-07
2.00283434504e-06
2.40057976706e-06
2.03652458915e-06
1.22360270405e-05
6.39945744629e-07
8.11602147014e-07
4.77397907672e-06
7.0522074698e-06
5.61380351461e-06
8.24680993891e-06
7.78061720835e-06
8.45129714732e-06
6.71063407296e-06
8.25232100519e-06
7.18058127491e-06
5.36258247153e-06
4.34469093454e-06
4.12713977131e-06
5.42166121325e-06
8.25565836453e-06
9.02330092918e-06
2.27882318495e-05
1.52062609431e-05
7.76467316976e-06
6.72340951113e-06
7.76427607089e-06
9.79602382844e-06
3.51032388299e-07
3.14991542291e-07
1.15163861391e-07
1.74745750065e-06
2.18187904316e-06
2.38920858426e-06
3.79665903533e-06
3.40366868795e-06
3.01071650985e-08
1.37560307277e-07
5.58563055158e-06
1.32010700053e-05
1.99576972352e-05
1.55734472389e-05
1.4329693331e-05
2.88102920017e-06
1.94186724248e-05
3.17842690932e-05
1.96278558621e-07
9.41747905376e-07
9.745374914e-06
3.23605676756e-07
2.22093040923e-07
1.42719494745e-05
1.0388301237e-05
2.6612466999e-06
2.32554319332e-06
3.08726964263e-06
2.94337392108e-07
4.25557529757e-08
6.63089466075e-06
4.36783345439e-06
1.43715507603e-06
1.07368308831e-05
1.69034531065e-06
1.67467074552e-06
2.52498491401e-08
2.71940570037e-06
3.89315477077e-08
1.20649163409e-08
2.00583128936e-06
3.49295124209e-08
7.84371713482e-09
3.20090146477e-08
2.15215910379e-06
4.64264019913e-07
6.43329311519e-06
1.48208978519e-05
6.95334922282e-06
2.2758362567e-06
9.26228503645e-06
3.57167382434e-06
1.35441787488e-08
2.24846040769e-06
6.49729830683e-06
2.46581306163e-06
1.98493655736e-08
9.91146317701e-07
6.54436824636e-06
2.45990042429e-06
1.40590622747e-07
1.14805864129e-06
8.857232941e-07
1.70116603897e-05
6.39138406242e-06
2.13988720271e-06
1.53424658836e-07
1.73113582218e-05
1.18932780393e-07
3.49094431663e-07
1.1246220265e-06
9.695635952e-06
1.444240586e-05
1.17923017519e-05
1.00652607614e-05
3.10846448289e-06
3.56970065187e-07
7.98314445223e-07
3.55111612881e-08
7.36051308019e-06
1.9712195178e-06
7.02269327127e-06
2.41177862298e-08
2.48965841897e-06
1.67298163093e-06
9.51714656766e-06
4.66879910945e-08
2.8867474306e-08
3.70336925387e-06
2.3313391927e-08
1.78111916098e-05
1.66243235648e-07
5.71162074605e-08
8.52699190709e-06
6.49787095925e-07
8.99621374315e-07
2.23979737388e-07
3.52455850536e-06
8.5621605324e-07
8.85496735728e-07
6.77535761014e-08
3.54072569908e-06
7.16754418805e-08
4.05238961629e-06
4.25031520502e-06
4.88818706684e-06
1.46767895831e-06
2.77225165115e-06
4.1329993159e-06
1.10480206868e-05
2.17454690489e-06
1.68060505384e-06
2.08954052455e-06
1.24498802656e-05
1.95269509148e-06
8.44497491855e-06
8.14497808274e-06
4.73554143213e-06
3.83308489081e-06
1.20672102321e-05
4.87433569646e-06
1.25341525789e-05
1.27765457736e-05
2.32736506652e-06
5.25601974445e-10
2.27625653848e-06
5.24008703825e-08
1.84877746521e-05
4.56529636349e-06
3.77242294868e-06
7.05207344228e-06
2.79158302908e-07
5.59073864825e-06

