# vtk DataFile Version 3.0
File Name: Molecule/sphere_excent/sphere_excent_0-s29.vtk
ASCII
DATASET UNSTRUCTURED_GRID
FIELD FieldData 1
TIME 1 1 double
0.0
POINTS 366 double
0.33751362562 -0.63022786379 0.69929331541
0.000731686363 -0.85203403234 0.52355986834
0.50025248528 -0.8100669384 0.30518054962
0.85108369589 -0.3295173943 0.40842488408
0.86702895164 -0.49165377021 0.077169135213
0.9863396287 -0.13512611389 0.094695828855
0.52306210995 0.70883750916 0.47158193588
0.40728342533 0.56542646885 0.71603834629
0.71793931723 0.36253973842 0.59373122454
-0.53853559494 -0.81961393356 -0.19105093181
-0.0014363958035 -0.99929285049 0.030501576141
-0.46334919333 -0.85222840309 0.23993931711
-0.90192371607 0.15618076921 0.4019536376
-0.9883274436 -0.13364453614 0.072701230645
-0.83312219381 -0.28816723824 0.47169035673
-0.84056085348 -0.52823764086 0.10692875087
0.47282370925 -0.86311304569 -0.17635963857
0.0082173002884 0.99956589937 0.019551837817
-0.27003541589 0.94542783499 0.18182228506
-0.0061454055831 0.88168913126 0.47035050392
-0.40511339903 0.80555135012 0.42747327685
-0.25686356425 0.952706635 -0.16257974505
-0.5168774724 0.85589468479 -0.00016867363593
-0.48794004321 0.80890476704 -0.32813194394
-0.55933994055 0.77489328384 0.2901981473
0.04065426439 0.93725401163 -0.34577864408
0.26364922523 0.9551473856 -0.13438309729
0.27192279696 0.93257588148 0.23569843173
0.45095944405 0.89218562841 0.026386409998
0.38669857383 0.84086549282 -0.37828594446
0.22755025327 0.75162577629 0.61795836687
0.5864636302 0.54458940029 -0.59943854809
0.42253533006 0.71006900072 -0.56328237057
0.57915604115 0.66745984554 -0.46744590998
0.16574074328 0.80530959368 -0.56899124384
0.93926542997 -0.27875426412 -0.19296710193
0.23320664465 -0.01871496439 -0.97156763077
0.15565827489 -0.20446515083 -0.96560692787
0.031734559685 0.030421705917 -0.99895966053
0.68083238602 -0.63989394903 -0.35663065314
0.49809342623 -0.67404723167 -0.54544818401
0.68599176407 -0.46966141462 -0.55523514748
0.62624263763 0.31354418397 -0.71381175518
0.70227450132 0.3318130374 -0.62945497036
0.68086439371 0.21610821784 -0.69972485304
0.67863428593 -0.22836436331 -0.69802975655
0.75582170486 -0.089315883815 -0.64847558737
0.75762969255 -0.29846388102 -0.58002644777
-0.61692458391 -0.13547174633 0.77489304543
-0.46180301905 -0.33250677586 0.82224786282
-0.37967422605 -0.13403993845 0.91528564692
-0.27812945843 -0.30529209971 0.91073280573
-0.60121017694 -0.47555878758 0.64187145233
0.93586522341 0.11347058415 0.3326511085
0.96768897772 0.21103724837 0.13789255917
0.84308540821 0.44276931882 0.30522534251
0.63981127739 0.68817645311 0.33301100135
-0.95588439703 0.04633673653 -0.29027485847
-0.87469542027 -0.31334784627 -0.36920931935
-0.79123169184 -0.12616682053 -0.59822922945
-0.83449548483 0.19185088575 -0.51672196388
-0.87084656954 0.40405863523 -0.27968871593
-0.9684368372 0.24790857732 0.024531820789
-0.85700201988 0.5129801631 -0.027345485985
-0.66802501678 0.60064858198 -0.43942090869
-0.70764070749 0.68466067314 -0.174172014
-0.68775260448 0.69669240713 0.20338350534
-0.77284610271 0.62923258543 0.070549994707
-0.46964454651 -0.34555265307 -0.81230860949
-0.65248847008 -0.43573373556 -0.61886125803
-0.60844123363 -0.19257871807 -0.76970434189
-0.50634902716 -0.53365951777 -0.67624694109
0.49135395885 0.85299891233 -0.17386329174
0.6060552001 0.72962254286 -0.31443157792
0.52804154158 0.82647305727 0.1906683147
0.065688274801 -0.56745219231 0.82069337368
-0.85619956255 0.4230748117 0.29328522086
0.51116681099 0.28733852506 0.81005966663
-0.012110524811 0.32011967897 0.94726145267
0.16628220677 0.33052814007 0.92855125666
0.027276782319 0.52919465303 0.84786510468
-0.03677238524 0.12337101251 0.99169445038
0.14999857545 0.14880229533 0.97739034891
0.08912550658 0.0045387060381 0.99599301815
0.20562878251 0.57756739855 0.78998410702
0.32319101691 0.40029972792 0.85735023022
0.3435202539 0.17884257436 0.92199075222
0.51227420568 -0.027710938826 0.85819190741
0.2816580832 -0.019234741107 0.95928168297
-0.014593718573 -0.93177735806 -0.36186185479
0.21680787206 -0.92124682665 -0.32280531526
0.3786419332 -0.45824858546 -0.80414277315
0.5446242094 -0.49481323361 -0.676469028
0.36704778671 -0.59267240763 -0.71682661772
0.85832691193 0.12976740301 -0.49619197845
0.77661699057 0.20485770702 -0.59571808577
0.83734458685 0.28339409828 -0.46705880761
0.80289059877 0.045051310211 -0.59427028894
0.71725529432 0.084900461137 -0.69160759449
0.86945587397 -0.13287353516 -0.47471234202
0.59891748428 0.09604203701 -0.79509168863
0.65049612522 -0.01611283794 -0.75933343172
0.51938265562 -0.030942644924 -0.8538441062
0.60378068686 -0.13801559806 -0.78506147861
0.05912309885 -0.86770176888 -0.49354961514
0.3293620646 -0.81184238195 -0.48150965571
0.29201388359 -0.7081374526 -0.64236289263
-0.26448887587 -0.89916980267 -0.34859660268
0.14662441611 -0.73807370663 -0.65861427784
-0.0047362684272 -0.77715158463 -0.62923657894
0.062952712178 -0.68346649408 -0.72727572918
-0.052333451807 -0.68400073051 -0.72757703066
-0.12938794494 -0.72674113512 -0.67448461056
0.096201464534 -0.59202724695 -0.80014318228
-0.022052075714 -0.6032192111 -0.79726475477
-0.097475916147 -0.85955923796 -0.50171500444
-0.24761641026 -0.81564623117 -0.5226137042
-0.43463110924 -0.77049165964 -0.46551731229
-0.12365166098 -0.60991680622 -0.78273457289
-0.11960766464 -0.53582185507 -0.83577215672
0.19776190817 -0.6479665041 -0.73546141386
-0.75739347935 0.40223497152 -0.51438105106
-0.6876835227 0.31883642077 -0.65231877565
-0.65558630228 0.43540072441 -0.61676365137
-0.72959220409 0.078980989754 -0.67874217033
-0.38102859259 0.18852138519 -0.90515893698
-0.46681052446 0.090381614864 -0.87971687317
-0.48899313807 0.19841568172 -0.84935235977
0.51572036743 -0.31789919734 0.79569649696
0.67628067732 -0.23666746914 0.69785368443
0.6136225462 -0.48286885023 0.62468981743
-0.75811803341 0.040091209114 0.65037733316
-0.58419185877 0.13574412465 0.80029731989
-0.70323389769 0.23492190242 0.67037910223
0.85276204348 0.024090278894 0.52179306746
0.34396246076 -0.3852365911 0.85629105568
0.37516111135 -0.19546459615 0.9061255455
-0.21984817088 -0.46025156975 -0.86008650064
-0.36516949534 -0.5046646595 -0.78221642971
-0.29830080271 -0.38037991524 -0.8753080368
0.64574205875 0.13838982582 0.75081461668
0.22809669375 -0.19296424091 0.95431029797
0.093018315732 -0.39539071918 -0.9136506319
-0.01363494806 -0.29499033093 -0.95535135269
-0.14784802496 -0.37005245686 -0.91716873646
-0.030354980379 -0.40762254596 -0.91263145208
-0.10925780982 -0.45564314723 -0.88340383768
0.0022565824911 -0.50618433952 -0.86238068342
-0.22283031046 -0.55105251074 -0.80417305231
-0.26629710197 -0.61189031601 -0.74473255873
0.9246365428 0.056139349937 -0.37642619014
0.91002982855 0.40616565943 0.080575183034
0.77652806044 0.61857056618 0.10798248649
0.97688746452 -0.0050352215767 -0.20872789621
0.99365645647 0.10468657315 -0.040109828115
0.94230812788 0.16048519313 -0.29361656308
0.96877002716 0.18864792585 -0.16096524894
0.92806762457 0.27897012234 -0.24667590857
0.89506089687 0.27077135444 -0.35423496366
0.93677741289 0.31900733709 -0.14375758171
0.88208550215 0.35476514697 -0.30983653665
0.8942528367 0.39393308759 -0.21244545281
0.84280729294 0.4375923872 -0.31289541721
0.83675861359 0.37732419372 -0.3965806067
0.90215146542 0.42543125153 -0.072179153562
0.84731656313 0.49836212397 -0.18344657123
0.81968313456 0.57205826044 0.0028346939944
0.89693319798 0.18256242573 -0.40269741416
0.96042782068 0.27744886279 -0.024790821597
-0.041105303913 -0.1527017653 -0.9874073863
-0.17400442064 -0.24537655711 -0.95366168022
-0.19875633717 -0.12006200105 -0.97266936302
-0.32095956802 -0.27049279213 -0.90755623579
-0.24161045253 0.87499588728 -0.4191172421
-0.070789188147 0.53280639648 -0.8432713747
-0.12914149463 0.62345409393 -0.77110278606
0.017071567476 0.60776299238 -0.79392582178
-0.037264965475 0.72991842031 -0.68249440193
-0.22689947486 0.68832826614 -0.68893516064
0.13082809746 0.67268431187 -0.72825485468
-0.28290390968 0.57717001438 -0.76594758034
-0.049591001123 0.8402274251 -0.53959566355
0.70644283295 -0.70197099447 -0.088868767023
0.81568813324 -0.3945979774 -0.42241555452
0.83238983154 -0.51179659367 -0.21288020909
0.41038909554 0.59854596853 -0.68801915646
0.27865260839 0.68208408356 -0.67606210709
0.28076931834 0.57273095846 -0.77016526461
0.39469504356 0.48550060391 -0.78000116348
-0.33746835589 0.7681761384 -0.54394876957
-0.49292460084 0.6963146925 -0.52135276794
-0.36590790749 0.65985918045 -0.65623521805
-0.47407916188 0.60394054651 -0.64045107365
0.15523639321 0.40365117788 -0.90156930685
0.15045331419 0.53632903099 -0.83048439026
0.28614512086 0.4449878931 -0.84859162569
-0.40201506019 0.55328369141 -0.7295036912
-0.56684046984 0.53223234415 -0.62725615501
-0.1851246506 0.7858953476 -0.58994412422
0.030987137929 0.46935802698 -0.88245952129
-0.12365309894 -0.032146759331 -0.99178737402
-0.17505702376 0.091457106173 -0.980255723
-0.25863581896 -0.010261205025 -0.96592891216
-0.32509097457 0.092090845108 -0.94118100405
-0.3329744935 -0.098138183355 -0.93779188395
-0.40453714132 -0.010948280804 -0.91442936659
-0.47567644715 -0.13930948079 -0.86837136745
-0.53035622835 -0.035717841238 -0.84696936607
-0.57493370771 0.056612975895 -0.81623059511
-0.65677011013 -0.028611570597 -0.75349700451
-0.64179283381 0.12191554904 -0.75703388453
-0.56130903959 0.1551425308 -0.81292527914
-0.28022581339 -0.1827493757 -0.94235008955
-0.38217326999 -0.1938508302 -0.90338772535
-0.078929975629 0.20127943158 -0.97633463144
0.075938791037 0.19419068098 -0.97794872522
-0.0053617591038 0.33243191242 -0.94310325384
-0.17684704065 0.31712773442 -0.93175166845
-0.25022673607 0.2033918947 -0.94659423828
-0.33048918843 0.31796446443 -0.88861572742
-0.43303921819 0.25413092971 -0.86478054523
-0.18249924481 0.52139890194 -0.83338695765
-0.33837914467 0.4701102376 -0.8151345253
-0.10907809436 0.42913934588 -0.89659398794
[...]
CELL_DATA 728
SCALARS cell_data_0 double
LOOKUP_TABLE default
1.91344935207e-05
7.41874913366e-06
1.251827374e-07
1.68861384723e-05
1.08592266549e-05
5.27770459523e-06
1.43896028793e-05
9.80143018013e-06
1.0052990175e-05
7.09615153711e-07
1.14609601662e-06
2.6342146095e-06
2.59806823818e-06
3.72253260434e-06
1.45890889484e-06
4.03342206759e-06
4.29872583446e-06
3.0504787591e-06
2.95853666899e-06
3.64061404753e-06
4.64184373014e-06
1.30522878277e-05
1.27253632163e-06
6.44427099233e-05
5.06216628464e-05
7.13027103347e-06
5.57444113192e-05
1.53167779318e-05
6.27655033049e-07
5.63628235938e-07
4.76806759791e-07
1.35111451251e-05
9.65929797227e-06
1.34663577279e-05
7.28972255967e-06
2.22366228172e-06
1.04111737941e-05
5.23643611067e-07
7.95386359361e-06
2.33737051008e-06
0.000105870653278
3.19459717256e-05
0.000157276117094
8.81759297244e-05
9.24622075619e-05
0.000111616041487
0.000175198896829
5.8241512065e-05
6.78794427564e-05
3.35207144302e-05
1.04630867718e-06
9.42025254237e-05
0.000160210686053
0.000127348529857
0.00025383237411
1.1780605505e-05
7.18786688052e-06
1.37017104373e-05
2.24457966406e-05
2.78990718521e-05
3.66871429581e-05
1.58350118085e-05
1.24482465092e-05
1.02429910365e-05
1.07353369734e-05
8.91360986232e-06
1.32167578822e-05
1.01461865385e-05
9.42396837157e-06
9.49075854511e-06
1.63954155509e-05
9.56175519254e-06
9.71283973751e-06
1.21307063997e-05
1.52110636019e-05
3.0079770205e-06
3.13578167702e-06
3.79603660364e-07
1.4522687341e-06
2.37740765557e-07
1.03426825386e-07
5.05502672063e-06
6.04968240324e-06
5.79662942403e-06
4.43002146283e-06
3.83610851337e-06
6.60755511258e-06
1.00288776411e-05
1.45560661165e-05
9.34090380775e-06
4.25603768845e-06
8.31125180447e-06
1.44632546177e-05
1.76026250446e-05
2.06444925383e-05
1.11729808305e-05
2.13673219197e-05
1.00373868473e-05
2.50835141289e-05
9.93390573108e-06
1.08206069999e-05
3.52028025394e-06
9.12017188708e-06
6.27498333186e-06
9.98691578488e-06
1.97450734946e-06
2.36456224227e-05
2.09387627061e-06
5.50816510427e-06
6.74751237258e-06
2.46084291505e-05
1.17426869053e-05
5.86142109253e-05
0.000163522894361
7.50256625424e-05
4.30193071859e-05
1.17226248508e-08
1.2294745828e-05
7.19646432439e-06
1.41390139193e-05
1.22503183005e-05
1.84283825081e-05
1.90214111119e-05
1.57693775664e-05
1.45079344648e-05
1.29739678667e-05
7.46621737172e-06
8.67306828e-06
9.43382875826e-06
7.52389376869e-06
8.43428516986e-06
1.20236672472e-05
1.28755961187e-05
2.47325675302e-07
1.32633920914e-05
1.07713925471e-05
7.66008461006e-06
1.37484087382e-05
1.88013256328e-06
2.81900030429e-07
4.73696330598e-07
4.96258360728e-07
3.2377391314e-07
2.36558346379e-07
2.65399589746e-07
2.59180080368e-07
3.45565745175e-07
7.49056407569e-06
1.12815376153e-07
3.3559094902e-06
3.25642743191e-06
4.45401600736e-06
1.07835618254e-05
1.1281669901e-05
1.83327068442e-06
2.11001727032e-07
1.00700875407e-06
1.54679989843e-07
1.97887011469e-07
2.21917742179e-07
1.86376055341e-07
2.76469601336e-07
2.0383556369e-07
2.95873097867e-07
1.28845724807e-07
4.05782217225e-07
3.25353140575e-07
1.42369940448e-07
1.80689497037e-06
8.38283143795e-07
1.15322399539e-06
2.03902517684e-08
4.01782507502e-08
5.63445899426e-08
7.72688000447e-07
1.0932938712e-06
4.12150975147e-07
3.60014464256e-07
6.06681709206e-07
6.70824903175e-07
8.08917044489e-07
5.50667365574e-07
1.32263531766e-06
1.00827427997e-05
1.78159302939e-06
1.97709357029e-07
1.68351994774e-07
1.85003566139e-07
1.08555720203e-07
1.40393932473e-07
2.14772208336e-05
2.96219954056e-05
1.83056009584e-07
3.28325682471e-07
3.50217512168e-07
1.43445949674e-06
3.04800687044e-07
5.53562983273e-07
4.90141857728e-07
1.9490569265e-07
2.43340310977e-07
4.53337977879e-07
3.27973515381e-07
2.44867361582e-06
3.84922497343e-05
4.57202679304e-06
3.62325167422e-06
1.72887394285e-06
1.38173928104e-06
7.9729104527e-07
1.87010765373e-06
1.47197407963e-06
2.19588930634e-06
3.59074179447e-05
3.47439164242e-05
4.00750631441e-05
1.37959331605e-05
1.23637679313e-07
1.54585648685e-07
8.46318061991e-08
1.58657490145e-06
2.5210645236e-07
1.3323536901e-07
1.63122066561e-07
3.88754857655e-07
1.08668184721e-07
6.12114840719e-08
1.49818971312e-07
1.47820576019e-06
5.89005109674e-08
6.82562313865e-08
3.58073469378e-05
2.27868303784e-05
2.63546555929e-07
2.76577779705e-07
9.23121197951e-08
1.86719707605e-06
9.57377808507e-08
6.21619360494e-08
1.29007039516e-07
2.41680152758e-08
2.13558910856e-05
2.87973911256e-07
3.36214168663e-06
9.12360586899e-08
6.40882363585e-08
1.75448191166e-07
4.24045555573e-08
1.34352556908e-08
1.26718285954e-07
8.51264751823e-08
7.20100333665e-08
2.84347124676e-08
1.15628460487e-07
1.03924926176e-06
9.0889101857e-08
1.05399226431e-06
1.29400782226e-07
3.25493049089e-05
0.000193944192023
3.53458887652e-05
5.87098429234e-06
2.70084301141e-05
9.37330912003e-07
1.24219762512e-07
3.4268706426e-06
4.73873110763e-08
1.57408812857e-08
3.0426327637e-08
1.17544128513e-07
2.37071162541e-05
1.88174847087e-05
6.75430084129e-08
1.00930833519e-07
3.7659927928e-06
1.2686213456e-07
2.25212656703e-07
9.03542007156e-08
2.14209873404e-08
8.84659327237e-10
9.94957673707e-08
6.99240652016e-08
3.27924766689e-08
4.84339243024e-09
7.78090156957e-08
1.36962187627e-07
7.10381837032e-09
5.63914450353e-09
3.18187566796e-07
7.54282325743e-08
3.96036309503e-08
3.71563346441e-08
2.76620958804e-07
7.61240855484e-08
1.81652417457e-07
1.58907800503e-07
1.78934626944e-07
4.38787680872e-06
2.00415841025e-07
1.4622214633e-07
7.26655621651e-08
2.23971124021e-05
2.13284577689e-05
8.82244625943e-06
9.6169474528e-06
6.49832065164e-06
7.58550212823e-06
8.4492902258e-06
9.13333940225e-06
1.75018967996e-05
1.22712013478e-05
8.74424985449e-06
7.52288602445e-06
1.85214428579e-05
1.15786780041e-05
7.05447987873e-06
7.4572417314e-06
1.32606852462e-05
1.26666386346e-05
1.02618232845e-05
9.88577072552e-06
8.85158655899e-06
1.11587308258e-05
1.51233628788e-05
1.24443527692e-05
1.13452072762e-05
2.8042900843e-06
7.63476931424e-06
1.63162654642e-05
1.50371862809e-05
1.10567524159e-05
1.35335332705e-05
6.65038375609e-06
1.79614329222e-05
2.22961369804e-05
8.95362678258e-06
1.71892728341e-05
5.7922799988e-06
1.51334757465e-06
6.43253073383e-06
1.47690548634e-05
9.10724543671e-06
3.83355522559e-07
9.03024496339e-06
1.66213536701e-05
1.92267229099e-05
1.6643553993e-05
9.07593185122e-06
2.28291985655e-05
1.95623372528e-05
1.85623336314e-05
1.59511216401e-05
1.18209154731e-05
1.49116561179e-05
1.00989612082e-05
1.62017174194e-05
1.17626120779e-05
1.15776125311e-05
1.31137216267e-05
1.54045357236e-05
1.38683000914e-05
1.152135293e-05
3.60034478535e-06
1.93447956241e-05
1.25534022769e-05
1.30565646696e-05
1.38657805087e-05
1.3857318374e-05
1.49948555163e-05
8.54676453022e-06
6.92075016619e-07
5.12285637553e-06
9.17421851743e-06
1.35088337099e-05
1.14010315603e-05
1.17098297343e-05
3.36714685504e-06
7.84613083452e-06
2.23755344911e-07
5.04490189596e-07
1.0321473972e-05
9.01608889897e-06
7.55248424951e-06
2.65418228576e-06
6.04765968065e-06
4.05254178455e-06
8.33074686498e-08
3.45167211622e-06
3.71409426744e-06
3.81973462403e-06
3.38265410742e-06
5.5241024028e-06
5.27510766927e-06
1.24563584753e-06
9.8407624879e-07
1.46250604164e-05
1.44559685765e-05
1.40050340244e-08
1.14243851797e-08
3.18026510445e-06
3.65895317943e-06
2.48066083496e-06
2.07634861394e-08
4.7244712548e-06
3.44440656382e-06
3.54746112287e-06
6.23019070746e-06
1.02581809521e-05
8.95804139987e-06
4.24024331127e-06
1.32901546773e-07
7.29888610786e-08
4.82937428228e-06
4.30383979715e-08
1.13966561018e-08
3.84387384693e-09
2.88706634261e-06
7.79020711499e-09
5.80065257915e-08
3.40023858334e-06
7.11050799175e-06
1.11503214805e-05
2.62771505337e-08
5.4352920463e-08
1.35454925953e-07
1.64760873148e-05
4.12947157146e-08
3.18281880297e-08
1.42677477352e-08
3.90709257491e-06
5.47679772102e-06
8.42231126498e-06
1.81732454232e-06
6.16272278231e-07
3.14191397371e-06
4.88428203804e-06
8.53999187131e-06
7.33691406025e-06
1.23896565551e-05
1.08070425988e-05
1.17262461835e-05
5.3228961057e-06
8.50784120463e-06
7.79668276049e-06
4.60280871001e-06
4.77386349633e-06
5.98094230167e-06
4.22970377538e-06
9.86434886338e-09
1.96636712575e-08
8.22533161975e-08
7.11296666651e-06
1.5928947247e-05
1.26169847899e-06
2.91677177524e-06
6.39209484255e-06
1.41446353848e-06
7.24680692818e-06
3.66943874325e-06
1.99036559656e-06
1.38083208939e-06
1.97109321225e-06
1.48344460178e-06
2.85144530218e-06
3.02266686076e-06
1.7288453762e-06
5.92840581427e-09
3.62752068679e-06
1.72338829312e-06
1.7959089021e-06
1.98389118731e-08
2.16615591219e-08
3.90557825288e-06
3.9940212815e-06
1.07453286918e-06
4.17621550742e-06
1.49406513824e-06
1.75120055812e-08
3.71915545691e-06
6.53391094468e-06
1.19790321806e-06
1.11379110685e-05
8.15946491341e-06
1.09678916474e-05
1.12844052521e-05
2.62308025954e-06
2.7676392324e-06
5.86095105168e-06
4.48408577425e-06
1.30855316889e-06
1.6797483592e-06
1.73809606843e-06
1.63982350189e-06
4.08224176764e-06
2.27315419971e-07
4.84381833445e-08
2.64907406941e-06
2.4339712116e-06
4.1972848143e-07
2.69083967114e-06
1.61261507029e-06
5.65787733525e-07
7.89826441939e-07
4.36406905736e-06
6.81767961184e-06
5.00117735383e-06
8.14036295784e-06
8.75424712946e-06
9.62927286542e-06
7.30984210265e-06
9.11906976512e-06
8.22113627014e-06
5.86417272456e-06
3.96258565711e-06
3.78074888421e-06
5.63822549692e-06
8.40075834905e-06
1.0402124718e-05
2.00302375732e-06
9.12697185123e-05
8.18902759292e-06
6.08748883252e-06
8.38204994655e-06
9.35619034762e-06
2.91708300035e-06
5.88874969054e-06
1.45080387796e-06
1.15858136223e-07
9.27090656384e-08
3.11211912935e-06
9.10075378089e-06
1.60016627533e-06
1.08483041186e-06
4.49999744985e-06
5.62017657828e-06
1.2661556877e-05
9.3848461948e-06
8.01964262467e-06
3.84371122827e-06
3.91243650884e-06
7.96640213408e-06
7.56991478396e-06
1.83667322981e-05
5.86160480807e-06
1.57679224121e-05
3.28759126405e-07
3.264719808e-06
5.85173320745e-06
1.49074269907e-06
6.58343526527e-07
3.97922850059e-07
7.84272422703e-07
3.27194962384e-06
2.65605901314e-06
1.05936088819e-05
7.91868025692e-06
1.43903727851e-06
1.96084535796e-05
1.53309530699e-06
1.50382292807e-06
1.24583391977e-07
4.96101391057e-06
1.48880847452e-07
2.45086488442e-08
1.58204270928e-06
3.85491295551e-06
1.2003508363e-05
3.11325979964e-06
1.968047736e-06
3.83007919004e-06
4.98663966879e-06
7.39130484491e-06
1.66070944362e-07
1.22639537104e-06
7.79522622394e-06
3.72624067915e-06
2.12342291117e-08
1.46134500601e-07
5.87129984468e-07
1.30309939517e-07
2.47206906914e-08
9.02171011176e-08
5.50133497526e-07
8.63360910195e-08
1.58251458055e-07
1.59505303697e-06
5.27424286204e-08
9.69058155739e-07
3.60891086438e-07
9.66788888038e-06
6.06676906919e-06
5.53650530864e-06
5.25551179796e-06
8.35254499446e-08
9.35219762943e-07
5.79764615668e-05
9.42929686791e-07
1.13316041825e-05
7.9858923528e-07
4.42364848497e-08
5.26078745209e-08
7.99977317139e-08
6.58833431802e-08
4.87050931851e-08
8.06493629269e-08
6.300214428e-08
4.08643159398e-08
8.24159349476e-09
3.59750168681e-06
8.31182878151e-08
1.55368196286e-05
5.36196366709e-06
6.27404971608e-08
6.85345083863e-08
7.25554952189e-08
7.39499902654e-07
1.06776218738e-06
2.48087118325e-07
1.50984925279e-07
3.33010896271e-06
3.79540722585e-06
1.73608177615e-07
1.09748820548e-07
4.40387128287e-06
5.00556321106e-07
9.37461236915e-06
4.57925034951e-08
1.98241717088e-06
1.22606218054e-08
2.80766187811e-08
8.66359696051e-07
1.24984386008e-07
5.59222039753e-08
2.06810544124e-06
1.47164890555e-05
3.56536684506e-05
1.24075986376e-05
1.19384244224e-05
5.87605169941e-09
2.73623367507e-05
2.34001494274e-05
1.06762635737e-05
6.33698574013e-06
7.06305887772e-06
5.08691860801e-06
2.19482404799e-07
4.72737190284e-06
3.43682414305e-07
7.90592767622e-06
6.45612137906e-06
3.93988376028e-06
6.52933684146e-08
4.63084556475e-07
9.69470248164e-06
6.02766545756e-07
1.43504419525e-06
1.0383331993e-06
1.94621633627e-08
4.65264979085e-07
1.63051483244e-08
7.05171625686e-06
5.97618520332e-06
2.71996371985e-06
2.15594615487e-06
1.23351638746e-06
2.32609108043e-06
3.12221462244e-08
2.20462701309e-07
1.21095034279e-06
1.45350369014e-06
3.34784927996e-07
1.11701730619e-06
5.81546789426e-07
7.84181877701e-07
3.1000325884e-06
3.43909422819e-06
1.65601022363e-05
2.54388847773e-05
2.66722270945e-06
4.88671699333e-06
2.36384068274e-05
2.74020672057e-05
1.31619319557e-07
7.42265782132e-07
1.25993494942e-06
7.03349288238e-08
8.64040806047e-06
2.48706653467e-05
2.34860308886e-06
1.23698380334e-09
6.99420316207e-07
9.33257410674e-06
2.08262371866e-05
1.70243444912e-06
2.6752033385e-06
1.07397708882e-08
5.17285076048e-06
2.96210471801e-06
6.90977768312e-06
4.22090176759e-06
1.40825590805e-06
8.655089108e-08
5.33759802717e-06
4.28465181948e-06
5.41462539794e-06
5.62279684862e-08
8.31498845843e-06
3.67164428317e-06
1.16297932787e-05
4.86858869963e-07
4.69522452416e-06
2.2288788927e-07
1.06357892943e-05
9.11901808101e-07
3.16460857501e-06
2.07573934984e-05
1.99296257387e-06
2.43852821722e-05
2.79919147047e-05
4.22838530686e-06
7.89993371059e-07
2.89639599177e-06
5.73641306992e-06
1.12453538432e-06
3.07529802483e-06
1.64274158013e-07
3.38055634855e-06
3.84086396073e-06

