# vtk DataFile Version 3.0
File Name: Molecule/sphere_excent/sphere_excent_0-s16.vtk
ASCII
DATASET UNSTRUCTURED_GRID
FIELD FieldData 1
TIME 1 1 double
0.0
POINTS 148 double
0.0043646395206 0.84904628992 0.52804517746
-0.47954910994 0.77795469761 0.40471243858
-0.33481901884 0.5666026473 0.75265294313
-0.33161735535 -0.58387672901 0.7411596179
0.0057759569027 -0.84785854816 0.53008466959
0.033282246441 -0.46281266212 0.88564217091
0.54341381788 -0.038879483938 0.83851051331
0.37058061361 -0.5258166194 0.76561182737
0.80708020926 -0.31200522184 0.50124794245
0.50052666664 -0.80958986282 0.30636149645
0.84865778685 -0.52906882763 0.0085055166855
0.99383330345 -0.085690923035 0.069315098226
0.75118726492 0.29795542359 0.58743345737
0.51649689674 0.73649185896 0.43537855148
0.37114980817 0.54491430521 0.7508084178
-0.84833008051 -0.32864576578 -0.41534876823
-0.8451436758 -0.53423207998 0.0087441895157
-0.99449747801 -0.085373692214 0.052111685276
-0.5190975666 -0.80518907309 -0.28454533219
-0.49833056331 -0.81285381317 0.30132985115
-0.00026264382177 -0.99981981516 0.005767790135
-0.80288314819 -0.32435113192 0.5001578331
-0.60493630171 -0.0045932196081 0.79556065798
-0.83715796471 0.2249776274 0.4970125258
0.51710867882 -0.81443476677 -0.26526418328
0.79928708076 -0.41588062048 -0.43267121911
0.001005807193 0.99984151125 0.0026058922522
-0.27694445848 0.94425344467 0.17763788998
-0.27271017432 0.94634878635 -0.17305134237
-0.52798479795 0.84912872314 -0.0011978407856
-0.46118631959 0.78553748131 -0.41125145555
0.014812428504 0.87412345409 -0.4837821722
0.27458259463 0.94890421629 -0.15555548668
0.28014987707 0.9411315918 0.18818363547
0.47417604923 0.88018131256 0.018154837191
0.47142666578 0.80753451586 -0.35292503238
0.59680622816 0.48933622241 -0.63575816154
0.3978638649 0.67985194921 -0.6156758666
0.6426602602 0.62628221512 -0.44057011604
0.95275986195 -0.19065850973 -0.23658727109
0.87185436487 -0.085228919983 -0.48219719529
0.96541982889 0.095509946346 -0.24171417952
0.51233100891 -0.012751168571 -0.85875207186
0.42797830701 -0.26251158118 -0.86478513479
0.26815152168 0.012003865093 -0.96321028471
0.12730790675 -0.25410029292 -0.95872354507
0.30059179664 -0.52566295862 -0.79548299313
-0.03852680698 0.051174469292 -0.99786114693
0.68399178982 -0.21641987562 -0.69652020931
0.56771343946 -0.45597273111 -0.6851568222
0.4346587956 -0.69393765926 -0.57289487123
0.18173749745 0.44688287377 -0.87483030558
0.72008401155 0.33318337798 -0.60856717825
0.75855499506 0.46914705634 -0.45203146338
0.44001108408 0.44976124167 -0.77723896503
0.42520150542 0.23544202745 -0.87390905619
0.57965970039 0.29803100228 -0.75823181868
0.60808813572 0.1220959276 -0.78409045935
0.68744593859 0.19510549307 -0.69932055473
0.85346525908 0.15338608623 -0.49613106251
0.826623559 0.32222259045 -0.46114948392
0.76943415403 0.18303865194 -0.61131078005
0.74451428652 -0.030692024156 -0.66636794806
-0.4779125154 0.27983337641 0.83197981119
-0.66610360146 0.54509973526 0.50830990076
0.0088705588132 0.53469204903 0.84485626221
-0.18060331047 0.32610210776 0.92745447159
-0.34177717566 -0.033223990351 0.93878889084
-0.45634397864 -0.26628172398 0.84862548113
-0.204654634 -0.28907486796 0.93497389555
0.94023221731 0.1406673491 0.30953973532
0.96594268084 0.25351163745 0.054087366909
0.85561394691 0.43681743741 0.27755156159
0.84818285704 0.52948665619 -0.015568276867
-0.94877743721 0.098958291113 -0.29851168394
-0.71985578537 -0.11366724223 -0.68441796303
-0.78931713104 0.24628059566 -0.56071686745
-0.86571854353 0.42324656248 -0.26662901044
-0.96070551872 0.27714070678 0.0088240206242
-0.84609794617 0.5327347517 0.0093465605751
-0.66738390923 0.5640425086 -0.48521247506
-0.70903968811 0.67751210928 -0.19535295665
-0.70179206133 0.68330132961 0.20063444972
-0.42884275317 -0.29648733139 -0.85300332308
-0.59228146076 -0.44822597504 -0.66892015934
-0.31502842903 -0.52544271946 -0.79018801451
-0.34360215068 -0.77164644003 -0.5328220129
0.53374797106 0.83193057775 -0.151395455
0.68101865053 0.70470750332 -0.19871838391
0.67184209824 0.74083304405 0.0023697386496
0.72246205807 0.6674387455 0.18039785326
0.54868859053 0.81490176916 0.18664385378
-0.8429017663 0.46563389897 0.26975181699
0.21128076315 -0.25406959653 0.9436751008
0.86217927933 0.42426487803 -0.27674853802
0.77964401245 0.56630438566 -0.2671957016
0.90373688936 0.26759448647 -0.33410525322
0.93108963966 0.33317348361 -0.14860162139
-0.12937560678 -0.019418656826 0.99112951756
0.065708175302 -0.019380150363 0.99759614468
-0.022175561637 -0.18745604157 0.98172390461
-0.19912308455 0.29777398705 -0.93349295855
-0.31652718782 0.069503232837 -0.94575017691
-0.46898627281 0.283421278 -0.83596396446
-0.12981802225 -0.38075947762 -0.91519218683
-0.226725474 -0.14552357793 -0.96292918921
-0.45737293363 -0.096036665142 -0.8841394186
-0.55133020878 0.048484623432 -0.83241140842
0.48113042116 0.27146282792 0.83345878124
-0.17155757546 0.71195191145 -0.67977368832
-0.50627958775 0.56736594439 -0.64691221714
-0.072515524924 0.53561168909 -0.84148108959
0.094770878553 0.68793433905 -0.71957594156
-0.32333055139 0.53137546778 -0.78149670362
0.0044673755765 0.28351643682 0.95886671543
0.17102403939 0.28126910329 0.94416576624
-0.054426267743 0.13760364056 0.98896062374
0.13217917085 0.13143754005 0.9824424386
0.28477591276 0.3881983459 0.87651669979
-0.22926460207 0.13874186575 0.96323180199
0.34429818392 0.1588023752 0.92533355951
0.27785968781 -0.0086059123278 0.9605909586
0.051637507975 -0.59028249979 -0.80394881964
0.054289195687 -0.44995909929 -0.89133769274
-0.1419582963 -0.52469402552 -0.83918833733
-0.015485323034 -0.89214879274 -0.44899094105
0.23763015866 -0.88797879219 -0.39209353924
0.79712283611 0.068379603326 -0.59965884686
0.71646076441 0.084547385573 -0.69246131182
0.65121114254 3.0922703445e-05 -0.75882232189
0.23103177547 -0.66789454222 -0.70729798079
0.088267847896 -0.82486742735 -0.55822360516
0.30430075526 -0.79890334606 -0.51844716072
0.12414199114 -0.73853385448 -0.66224366426
-0.25913912058 -0.88032013178 -0.39650967717
-0.011728005484 -0.74249923229 -0.66944992542
0.06246304512 -0.67847537994 -0.7318110466
-0.052921310067 -0.66554099321 -0.74427771568
-0.16499009728 -0.72480362654 -0.66872310638
-0.10380188376 -0.81961077452 -0.56328451633
-0.14179627597 -0.6267220974 -0.76597493887
-0.055125020444 -0.57874339819 -0.81345444918
-0.73151129484 0.4123763144 -0.54285395145
-0.63994586468 0.28381070495 -0.71384894848
-0.58919912577 0.43037638068 -0.68368929625
-0.6747584939 0.15292942524 -0.7212729454
-0.41824901104 0.41482323408 -0.80789154768
-0.524117589 0.17019885778 -0.8344039917

CELLS 292 1168
3 0 1 2
3 3 4 5
3 6 7 8
3 7 9 8
3 7 4 9
3 8 9 10
3 10 11 8
3 8 12 6
3 13 14 12
3 13 0 14
3 15 16 17
3 16 18 19
3 18 20 19
3 19 20 4
3 16 19 21
3 19 3 21
3 19 4 3
3 22 23 21
3 23 17 21
3 21 17 16
3 15 18 16
3 24 9 20
3 24 10 9
3 20 9 4
3 25 10 24
3 26 27 0
3 0 27 1
3 26 28 27
3 28 29 27
3 28 30 29
3 27 29 1
3 30 28 31
3 31 28 26
3 32 33 34
3 32 26 33
3 26 32 31
3 31 32 35
3 13 33 0
3 33 26 0
3 36 37 38
3 38 37 35
3 35 37 31
3 25 39 10
3 10 39 11
3 25 40 39
3 40 41 39
3 39 41 11
3 42 43 44
3 43 45 44
3 43 46 45
3 44 45 47
3 42 48 43
3 48 49 43
3 48 25 49
3 43 49 46
3 49 25 50
3 44 47 51
3 25 48 40
3 52 36 53
3 36 54 37
3 54 51 37
3 51 54 55
3 54 56 55
3 54 36 56
3 42 55 57
3 56 52 58
3 56 36 52
3 40 59 41
3 52 60 61
3 51 55 44
3 44 55 42
3 48 62 40
3 22 63 23
3 23 63 64
3 2 65 0
3 0 65 14
3 2 66 65
3 2 63 66
3 63 22 67
3 22 68 67
3 68 69 67
3 68 3 69
3 3 68 21
3 21 68 22
3 11 70 8
3 70 12 8
3 11 71 70
3 71 72 70
3 71 73 72
3 70 72 12
3 12 72 13
3 17 74 15
3 15 74 75
3 76 74 77
3 74 78 77
3 74 17 78
3 77 78 79
3 30 80 81
3 80 77 81
3 81 77 79
3 23 78 17
3 30 81 29
3 29 81 82
3 41 71 11
3 76 75 74
3 83 84 75
3 83 85 84
3 75 84 15
3 15 84 18
3 18 84 86
3 35 87 88
3 87 89 88
3 87 34 89
3 88 89 73
3 73 89 90
3 89 91 90
3 89 34 91
3 90 91 13
3 34 87 32
3 32 87 35
3 13 91 33
3 33 91 34
3 35 88 38
3 73 90 72
3 72 90 13
3 1 64 2
3 2 64 63
3 1 82 64
3 82 92 64
3 82 79 92
3 64 92 23
3 93 7 6
3 79 82 81
3 29 82 1
3 60 53 94
3 53 95 94
3 53 38 95
3 94 95 73
3 41 96 97
3 96 94 97
3 96 60 94
3 97 94 73
3 38 53 36
3 52 53 60
3 60 96 59
3 59 96 41
3 67 69 98
3 99 100 93
3 100 5 93
3 100 69 5
3 93 5 7
3 7 5 4
3 5 69 3
3 23 92 78
3 78 92 79
3 41 97 71
3 71 97 73
3 73 95 88
3 88 95 38
3 47 101 51
3 47 102 101
3 102 103 101
3 85 83 104
3 45 105 47
3 47 105 102
3 105 106 102
3 105 83 106
3 102 106 107
3 107 106 75
3 106 83 75
3 14 108 12
3 12 108 6
3 31 109 30
3 30 109 110
3 51 111 112
3 111 109 112
3 111 113 109
3 112 109 31
3 51 112 37
3 37 112 31
3 66 114 65
3 114 115 65
3 66 116 114
3 116 117 114
3 116 99 117
3 114 117 115
3 115 118 65
3 65 118 14
3 67 119 63
3 63 119 66
3 66 119 116
3 119 98 116
3 119 67 98
3 116 98 99
3 14 118 108
3 118 120 108
3 118 115 120
3 108 120 6
3 115 117 120
3 117 121 120
3 117 99 121
3 120 121 6
3 45 104 105
3 105 104 83
3 6 121 93
3 93 121 99
3 99 98 100
3 100 98 69
3 113 111 101
3 101 111 51
3 122 123 46
3 46 123 45
3 45 123 104
3 104 123 124
3 104 124 85
3 125 126 20
3 126 24 20
3 24 50 25
3 49 50 46
3 58 57 56
3 56 57 55
3 59 61 60
3 52 61 58
3 59 127 61
3 127 128 61
3 127 62 128
3 61 128 58
3 62 127 40
3 40 127 59
3 58 128 57
3 128 129 57
3 128 62 129
3 57 129 42
3 42 129 48
3 129 62 48
3 46 130 122
3 125 131 126
3 131 132 126
3 131 133 132
3 126 132 24
3 24 132 50
3 132 130 50
3 132 133 130
3 50 130 46
3 18 134 20
3 134 125 20
3 133 135 136
3 135 137 136
3 135 138 137
3 136 137 122
3 138 86 85
3 85 86 84
3 138 139 86
3 139 134 86
3 139 125 134
3 86 134 18
3 124 140 85
3 85 140 138
3 138 140 137
3 140 141 137
3 140 124 141
3 137 141 122
3 122 141 123
3 141 124 123
3 133 136 130
3 130 136 122
3 138 135 139
3 131 135 133
3 125 139 131
3 131 139 135
3 76 142 143
3 142 144 143
3 142 80 144
3 143 144 103
3 113 110 109
3 110 80 30
3 80 142 77
3 142 76 77
3 76 145 75
3 75 145 107
3 113 146 110
3 146 144 110
3 146 103 144
3 110 144 80
3 103 147 143
3 147 145 143
3 147 107 145
3 143 145 76
3 107 147 102
3 102 147 103
3 103 146 101
3 101 146 113

CELL_TYPES 292
5
5
5
5
5
5
5
5
5
5
5
5
5
5
5
5
5
5
5
5
5
5
5
5
5
5
5
5
5
5
5
5
5
5
5
5
5
5
5
5
5
5
5
5
5
5
5
5
5
5
5
5
5
5
5
5
5
5
5
5
5
5
5
5
5
5
5
5
5
5
5
5
5
5
5
5
5
5
5
5
5
5
5
5
5
5
5
5
5
5
5
5
5
5
5
5
5
5
5
5
5
5
5
5
5
5
5
5
5
5
5
5
5
5
5
5
5
5
5
5
5
5
5
5
5
5
5
5
5
5
5
5
5
5
5
5
5
5
5
5
5
5
5
5
5
5
5
5
5
5
5
5
5
5
5
5
5
5
5
5
5
5
5
5
5
5
5
5
5
5
5
5
5
5
5
5
5
5
5
5
5
5
5
5
5
5
5
5
5
5
5
5
5
5
5
5
5
5
5
5
5
5
5
5
5
5
5
5
5
5
5
5
5
5
5
5
5
5
5
5
5
5
5
5
5
5
5
5
5
5
5
5
5
5
5
5
5
5
5
5
5
5
5
5
5
5
5
5
5
5
5
5
5
5
5
5
5
5
5
5
5
5
5
5
5
5
5
5
5
5
5
5
5
5
5
5
5
5
5
5
5
5
5
5
5
5
5
5
5
5
5
5

CELL_DATA 292
SCALARS cell_data_0 double
LOOKUP_TABLE default
2.20218641795e-05
3.7498797723e-06
6.22104551817e-05
4.13932121089e-05
3.7590231437e-05
1.62341294056e-05
1.33616134412e-06
4.88267995563e-05
3.05567240892e-05
2.72748958076e-05
2.0241459964e-06
8.74801936111e-06
1.33614399083e-05
1.33152261781e-05
1.94135923056e-05
3.57386419717e-05
3.25574705414e-05
2.97521200087e-05
4.09420017248e-07
1.30566806271e-05
3.59458817954e-06
1.08034061426e-05
5.74510320931e-06
1.10854542226e-05
2.60831426009e-05
8.12140863028e-06
1.00840358643e-05
3.69144076263e-06
3.82284596779e-06
1.91109417825e-06
5.48421841844e-06
3.22959594595e-05
2.34444999594e-05
3.01664328717e-06
3.80226768746e-06
2.28453073612e-05
2.41535537258e-05
1.48603015149e-05
8.41323351157e-06
2.35463820354e-07
2.37490001079e-07
2.906738215e-05
1.36630664244e-05
3.6440131905e-06
7.64581518107e-06
1.16648930275e-06
1.63256097166e-06
1.92892142849e-05
2.93258690811e-07
2.03321616199e-06
1.06552726902e-06
2.02315917598e-05
5.45720912446e-08
9.44578833433e-06
1.52493327995e-06
1.0321535309e-05
4.45427850049e-06
1.02912465316e-05
2.86282412143e-05
2.73972514695e-07
2.23205370872e-06
2.04070894046e-06
3.6766568231e-07
2.07321964726e-07
1.25221756908e-05
9.590030376e-06
9.35242363039e-08
3.85640511204e-06
7.12456843462e-06
2.35872347375e-06
1.85522582526e-05
1.64705499792e-05
8.8623613128e-05
4.39086822088e-05
3.63847114372e-06
2.66792837952e-07
8.62282151711e-06
9.78451413076e-06
1.78325720054e-05
3.32733508046e-05
2.83371799812e-05
2.8332676667e-05
3.52695954533e-05
3.23128887193e-05
4.05451040734e-06
2.17836998877e-05
2.99827736774e-07
4.19511253192e-06
1.7516095168e-07
8.79035276149e-06
1.70744774838e-05
3.75927619887e-07
9.03718420188e-06
1.13567729004e-06
5.3811273755e-07
2.0380734614e-06
2.10852724732e-06
2.38373041515e-06
6.36208889258e-07
1.30532012661e-06
2.15393992581e-05
1.3236709156e-06
2.60984063587e-06
1.81339824396e-06
6.18762271719e-06
4.51023418497e-06
1.21786329415e-06
7.20475252953e-06
2.01701021939e-06
1.45447288769e-06
7.94012013196e-07
1.04712953401e-06
1.34457439908e-06
1.33537042908e-06
1.1371614661e-06
1.59257338561e-06
1.71505270955e-06
3.12265993612e-06
1.56680884518e-06
1.18936355279e-06
4.89229619498e-06
2.5006407254e-06
8.75992444007e-07
1.96069546182e-08
6.2599970157e-06
1.42631777237e-05
6.45508654332e-06
4.66117598248e-06
3.84188979324e-06
1.19727200512e-06
5.84799999376e-06
6.20840154446e-05
1.26047133799e-06
3.10713476193e-06
4.0058722019e-05
2.21732684829e-05
2.59090546795e-05
2.81914662024e-06
1.92382206552e-07
1.22778392813e-08
6.41210357777e-06
2.8402452032e-06
2.94881822466e-05
3.66551906383e-05
1.05230413414e-05
2.66869722753e-06
4.78678454345e-05
4.42310242393e-05
1.84337715919e-05
1.48115912757e-05
3.85784331307e-05
6.36033912933e-06
4.66600264988e-05
1.55129384631e-05
1.52157357629e-06
8.78058641338e-07
2.64519090629e-06
2.20541202255e-06
5.42999365917e-07
3.95898877183e-06
5.99837312146e-07
5.05291154035e-09
4.3916121513e-05
1.0402698005e-06
5.57596986047e-07
5.39936723896e-08
6.93808356585e-07
1.66296054706e-05
2.58843829654e-05
3.41730835451e-06
2.37124223397e-05
2.91396928782e-05
3.31690406166e-05
1.64367118213e-06
1.48577225673e-06
7.75113397946e-08
2.82256474961e-07
1.66105561903e-05
1.89355577034e-06
2.16485251597e-05
2.89699914082e-05
2.42476614781e-05
2.10259984325e-05
2.53709841944e-05
2.79610306422e-05
1.98082275519e-05
2.23576496372e-05
1.45241845765e-05
2.05652251322e-05
8.11906105372e-06
2.74837302717e-05
2.44308211278e-05
1.95186251909e-05
3.22943788366e-05
1.05368312802e-06
2.7190553723e-06
2.3493708982e-06
1.67063816099e-05
7.1486505812e-06
7.26896638244e-06
2.8235438844e-05
1.55850983405e-05
4.33750542612e-05
4.27122113349e-05
4.56202837574e-05
4.66826342913e-05
3.05396384482e-05
2.71064965089e-05
3.10593374657e-07
1.88224600927e-06
7.90023820983e-07
1.39671140629e-06
2.53853486208e-05
5.89733317266e-05
5.61687840644e-05
2.10172193977e-05
2.40001545674e-06
1.66109961377e-05
1.09350608307e-06
7.88289614802e-06
3.26839220257e-07
1.01970917556e-05
6.77289873928e-06
1.20731397775e-06
4.81129928906e-08
5.0880553722e-06
4.76235869369e-06
9.85876076048e-06
1.99728532114e-06
5.45882554435e-06
7.13223854577e-08
5.23812172439e-06
6.27948242436e-06
1.03133451194e-05
9.82101297035e-06
6.92865515059e-07
7.52206803255e-06
2.31802142155e-07
2.68334928837e-05
2.84186395453e-07
1.37271386787e-07
1.43076171352e-07
2.75528802939e-05
6.47686280675e-07
2.70644257067e-06
2.16485670037e-05
1.13257896338e-05
5.7356312608e-08
1.53720947693e-08
1.93532376754e-09
9.2399391864e-08
1.14410614418e-07
2.32392635919e-07
3.32050059209e-07
7.56178493981e-06
5.62219664109e-07
1.78708641352e-05
1.31845239606e-07
2.54382241226e-09
3.16148750357e-08
8.46450789975e-06
5.95062874092e-09
9.33801297072e-09
1.49292143948e-05
1.34226180471e-05
8.59991315265e-09
2.56733666436e-09
1.68991910869e-05
5.52566575617e-06
7.08344209866e-08
5.55287478644e-07
5.3148263063e-08
3.35052045312e-07
5.68303977262e-08
6.1108109497e-08
2.31404654528e-06
5.55211376442e-07
6.80972858417e-07
3.17795783933e-06
2.60096536292e-05
4.60878694695e-08
3.72185677948e-08
1.41366392737e-08
4.81698381847e-07
6.10072375751e-08
5.6440803052e-08
9.39644619907e-06
5.53912036486e-07
1.29527655189e-05
9.60947856293e-10
8.05151493801e-09
8.21460097159e-08

