# vtk DataFile Version 3.0
File Name: Molecule/sphere_excent/sphere_excent_0-s35.vtk
ASCII
DATASET UNSTRUCTURED_GRID
FIELD FieldData 1
TIME 1 1 double
0.0
POINTS 451 double
0.33823207021 -0.64951103926 0.68078148365
0.0037076105364 -0.8462305665 0.5291415453
0.49282732606 -0.81622260809 0.29955872893
0.84783399105 -0.51591008902 0.10397791862
0.61875534058 -0.50956702232 0.59604161978
0.48054197431 0.70733314753 0.51849150658
0.42920315266 0.55316859484 0.71377205849
0.68075460196 0.39486554265 0.61636966467
-0.91374051571 0.12574498355 0.38587555289
-0.97169148922 -0.19088426232 0.13287830353
-0.84034019709 -0.27998122573 0.46418657899
-0.85560065508 -0.49497282505 0.14854960144
0.4730335772 -0.87118571997 -0.12856821716
0.19683709741 -0.97446775436 -0.079522706568
-0.34783750772 0.8249438405 0.44504842162
-0.28960451484 0.93519771099 0.20052431524
-0.51625031233 0.81226062775 0.27069911361
0.25257578492 0.95990610123 -0.12094554305
0.26704567671 0.92825400829 0.25796785951
0.43260788918 0.90139466524 0.02023412101
0.035951726139 0.99809414148 0.022270070389
0.042904093862 0.94647097588 -0.31974852085
0.36348491907 0.86984890699 -0.33207675815
0.23412334919 0.76813161373 0.59566396475
0.69246262312 -0.63052648306 -0.35028025508
0.54550683498 -0.65249830484 -0.52544426918
0.67883217335 -0.49334159493 -0.54389226437
0.6763677597 -0.23315799236 -0.69867998362
0.7520172596 -0.10490013659 -0.65069276094
0.76828318834 -0.29517799616 -0.56785351038
-0.47965064645 -0.37528586388 0.79283106327
-0.62802112103 -0.16810159385 0.75951117277
-0.61101776361 -0.45068734884 0.64976847172
0.67699861526 0.63378316164 0.3725232482
-0.4880849123 0.81630671024 -0.30883070827
-0.68971097469 0.71060550213 -0.13862861693
-0.548206985 0.83541125059 0.00054779456696
-0.67185992002 0.71448069811 0.19458171725
-0.76254928112 0.64508134127 0.047926131636
-0.47003418207 -0.34071567655 -0.81423360109
-0.5272963047 -0.48788836598 -0.69558703899
-0.62026804686 -0.3336751163 -0.70984578133
0.45872277021 0.87075155973 -0.17744958401
0.57286810875 0.76231867075 -0.30051743984
0.49668210745 0.84903395176 0.17912626266
0.076557278633 -0.59259492159 0.80176848173
-0.86764144897 0.3918748796 0.30570822954
-0.95534229279 0.28483381867 0.074312984943
0.5084515214 0.29838716984 0.80772262812
-0.011257838458 0.32845744491 0.94443422556
0.16947332025 0.35855385661 0.91789424419
0.032686736435 0.52593028545 0.84985041618
-0.033463180065 0.13089177012 0.99082148075
0.15501223505 0.16790267825 0.97352480888
0.095808751881 0.015016764402 0.99528461695
0.21289511025 0.58194333315 0.78485244513
0.33946052194 0.40539804101 0.84875667095
0.34573790431 0.18746809661 0.91943973303
0.50953668356 -0.036350708455 0.85948771238
0.28905287385 -0.014297858812 0.9571685791
0.38467293978 -0.4564127028 -0.80231261253
0.52951347828 -0.5168337822 -0.67248153687
0.36821106076 -0.59246182442 -0.71649199724
0.86029499769 0.11263260245 -0.49706915021
0.77888333797 0.19049495459 -0.59755527973
0.84107613564 0.26239100099 -0.47294574976
0.80332797766 0.028901753947 -0.59481030703
0.72145330906 0.071216568351 -0.68879055977
0.68102437258 0.18063850701 -0.70955383778
0.86360555887 -0.12080296874 -0.48939755559
0.61635822058 0.094068914652 -0.78184407949
0.65253776312 -0.019790129736 -0.75749021769
0.52891045809 -0.019242590293 -0.84844297171
0.60632783175 -0.13831293583 -0.78307974339
0.1532523632 -0.73919928074 -0.65581411123
-0.00125571026 -0.78624087572 -0.61787939072
0.069990806282 -0.68304657936 -0.72702354193
-0.044752836227 -0.68771135807 -0.72456473112
-0.12131188065 -0.73672121763 -0.66518878937
0.11011254787 -0.58983868361 -0.79998451471
-0.010355593637 -0.60514545441 -0.79604750872
-0.10330045223 -0.871078372 -0.48015335202
-0.26841631532 -0.90592861176 -0.32785665989
-0.25985321403 -0.82916069031 -0.49485698342
-0.036871746182 -0.93614828587 -0.34819683433
-0.46029245853 -0.77931684256 -0.42510539293
-0.51344788074 -0.83650273085 -0.17850233614
-0.11283698678 -0.612210989 -0.78258925676
-0.11087459326 -0.53675103188 -0.83638828993
0.29466360807 -0.70586514473 -0.64407879114
0.21190720797 -0.64811712503 -0.73145866394
0.047476705164 -0.87892669439 -0.47459056973
-0.81336975098 0.20705285668 -0.54351365566
-0.76906037331 0.3640897572 -0.52522087097
-0.70010274649 0.30947172642 -0.64345443249
-0.66911202669 0.43526262045 -0.60237067938
-0.37194466591 0.18637028337 -0.90935570002
-0.46745848656 0.088030926883 -0.87960767746
-0.48503378034 0.1906414032 -0.8534476161
0.52045822144 -0.33692732453 0.7845801115
0.68028849363 -0.25515013933 0.68708574772
0.85359674692 -0.32301464677 0.40749514103
-0.77345246077 0.0075368359685 0.63309687376
-0.61593097448 0.1064908579 0.78041702509
-0.72603833675 0.21280549467 0.65331959724
0.92455387115 0.12500749528 0.35993859172
0.87498813868 0.0082222260535 0.48338970542
0.96408474445 -0.049894966185 0.25922563672
0.3534129858 -0.38942319155 0.85050112009
0.38155850768 -0.20228020847 0.90194261074
-0.21730297804 -0.46226656437 -0.85970169306
-0.37092190981 -0.50625014305 -0.77855294943
-0.31710097194 -0.39943096042 -0.86015826464
0.64021366835 0.14880639315 0.75360441208
0.23993255198 -0.18560016155 0.95289242268
0.11916799843 -0.20493623614 -0.97069263458
0.09757181257 -0.37752607465 -0.92080873251
-0.021474853158 -0.2829951942 -0.95886015892
-0.16631272435 -0.36199355125 -0.9171807766
-0.028549997136 -0.39865088463 -0.9166611433
-0.106698066 -0.45353886485 -0.88482636213
0.011404560879 -0.50268036127 -0.86437726021
-0.21741968393 -0.55317312479 -0.80419027805
-0.27025800943 -0.61274707317 -0.74260914326
0.92602366209 0.045593895018 -0.37463143468
0.83734345436 0.47659522295 0.26720175147
0.90320563316 0.42082333565 0.083794496953
0.80661231279 0.57974267006 0.11473490298
0.98154824972 0.019694292918 -0.18994252384
0.99444395304 0.10289547592 -0.023712880909
0.98761355877 -0.12934692204 0.067991390824
0.94591832161 0.15477247536 -0.28501784801
0.97143179178 0.18292742968 -0.15120367706
0.93149924278 0.27205279469 -0.24143961072
0.89592903852 0.26709774137 -0.35489222407
0.93971663713 0.3129388988 -0.13784866035
0.88790106773 0.34774491191 -0.30113390088
0.8978548646 0.39068827033 -0.20308966935
0.85107272863 0.43165737391 -0.29886028171
0.84466516972 0.36391848326 -0.39252021909
0.90378773212 0.4218724668 -0.072082132101
0.84771198034 0.49790820479 -0.18288578093
0.8311650753 0.5549980402 -0.032314486802
0.9002468586 0.17019814253 -0.40074571967
0.96023982763 0.2781085372 -0.023341683671
0.97030901909 0.21472629905 0.11039314419
-0.041896071285 -0.14638546109 -0.98832625151
-0.1601190567 -0.23851522803 -0.95784115791
-0.19468873739 -0.1206664145 -0.97340416908
-0.29627490044 -0.29199823737 -0.90932381153
-0.2551535666 0.94926422834 -0.17887637019
-0.23169898987 0.8863145709 -0.40084069967
-0.073562711477 0.53635132313 -0.8407766223
-0.1279746443 0.62860292196 -0.76708388329
0.019217366353 0.61144769192 -0.79102534056
-0.031861074269 0.73944956064 -0.67248290777
-0.22108609974 0.70107585192 -0.67786431313
0.13626538217 0.67732787132 -0.72291022539
-0.27058488131 0.59584051371 -0.75609326363
0.14023843408 0.80690640211 -0.57360583544
-0.040607322007 0.85297489166 -0.52017766237
0.69818097353 -0.71138352156 -0.079609401524
0.80350166559 -0.42603394389 -0.41523373127
0.82922977209 -0.52381247282 -0.19451183081
0.52901494503 -0.7765712142 -0.34064364433
0.3876400888 0.59373110533 -0.70498383045
0.2705360651 0.58215105534 -0.76673972607
0.28061425686 0.68927180767 -0.66791379452
0.37515741587 0.49692964554 -0.7825152874
-0.3404764533 0.77962011099 -0.52539920807
-0.49352797866 0.6958090663 -0.52175563574
-0.36328530312 0.67225557566 -0.64501827955
-0.47136875987 0.61021417379 -0.63675004244
0.14803177118 0.41286343336 -0.89865529537
0.14739398658 0.54206949472 -0.82729530334
0.26960718632 0.45618265867 -0.84805321693
-0.38802435994 0.56925809383 -0.72481703758
-0.63710135221 0.62297773361 -0.45348408818
-0.58982950449 0.55742692947 -0.58428561687
-0.17980065942 0.79987192154 -0.57262307405
0.028836004436 0.47589462996 -0.87902730703
0.022999795154 0.033062644303 -0.99874836206
-0.12015543878 -0.03242437169 -0.99222314358
-0.16949719191 0.08967679739 -0.98141539097
-0.25497844815 -0.01326631289 -0.96684539318
-0.32278463244 0.088211804628 -0.94233870506
-0.33431175351 -0.10536681116 -0.93652909994
-0.41094273329 -0.016146440059 -0.91149556637
-0.47696939111 -0.14773391187 -0.86632192135
-0.53681951761 -0.045753411949 -0.84243071079
-0.58051532507 0.052187826484 -0.8125538826
-0.590310812 -0.18973371387 -0.78446549177
-0.66561561823 -0.040808469057 -0.74513447285
-0.65790867805 0.10560764372 -0.74559497833
-0.74961477518 0.061555527151 -0.65895402431
-0.79184347391 -0.094375699759 -0.60335445404
-0.56667482853 0.14818689227 -0.81049478054
-0.2747824192 -0.19142560661 -0.94223767519
-0.38037362695 -0.21128806472 -0.90028870106
-0.076386675239 0.20078408718 -0.97664511204
0.072311572731 0.19153860211 -0.97881066799
0.00034259428503 0.33371701837 -0.94266915321
-0.16525159776 0.31540769339 -0.93447583914
-0.2430768013 0.20348775387 -0.94844424725
-0.32296031713 0.31445357203 -0.89263379574
-0.42363521457 0.24884290993 -0.87098193169
-0.1906607151 0.52125030756 -0.83182692528
-0.31042429805 0.49073198438 -0.81386446953
-0.10349883139 0.4304292202 -0.89666962624
-0.23497414589 0.41466575861 -0.87902402878
-0.37318509817 0.41797503829 -0.82805681229
-0.15059824288 -0.61645376682 0.77180099487
-0.23039910197 -0.81090170145 0.53553938866
-0.70652908087 -0.610660851 0.35590177774
-0.37718743086 -0.6041790843 0.70166820288
-0.29394459724 -0.47085121274 0.83170539141
-0.40364095569 -0.12032895535 0.90692394972
-0.24139235914 -0.15756243467 0.95747697353
-0.33108216524 0.0086128506809 0.94353866577
0.028560033068 -0.12638473511 0.99155777693
0.14972680807 -0.11091234535 0.98248517513
0.10950863361 -0.2514295876 0.96164810658
-0.02350993827 -0.23612800241 0.97142887115
-0.014807760715 -0.36995047331 0.92887550592
0.12691029906 -0.39038452506 0.91184228659
[...]
CELL_DATA 898
SCALARS cell_data_0 double
LOOKUP_TABLE default
2.28395289389e-05
1.86318697537e-05
9.05229923807e-06
1.12428900166e-05
4.52113475945e-06
2.22159301229e-06
4.18835792813e-06
1.89403156909e-05
3.15382013066e-06
8.31477804238e-06
8.65128337869e-06
1.04040585291e-05
4.23377687916e-07
1.55392219424e-05
3.02969196569e-06
7.6296364806e-06
3.67193192404e-07
4.05858855605e-08
4.17209714288e-07
5.70954466432e-07
1.22294084173e-05
2.19109546637e-06
6.3239675317e-06
1.44367229777e-05
4.89891741164e-06
2.25686279305e-07
9.1410371475e-06
3.44967552572e-05
2.65970794627e-05
2.75495426323e-05
1.80665781024e-05
1.36323602346e-05
1.90614695329e-05
9.30223590963e-06
3.18255961338e-05
2.88346929722e-05
3.13886474829e-05
2.93127251948e-05
2.18656884143e-05
1.22970193098e-05
1.99817265449e-06
9.94305193026e-07
1.40098940036e-06
8.64500952952e-07
7.15659478377e-07
3.02840896611e-05
2.89265005473e-05
9.50455048496e-07
1.39381621802e-06
8.21534120447e-07
4.82009985678e-06
5.01849890172e-07
3.84833347871e-06
5.04977878073e-07
2.34007662436e-06
1.64475922784e-06
1.85191528572e-07
1.00556864338e-06
1.73707415369e-06
3.87090779421e-07
2.31427535572e-07
5.55726265269e-07
3.43366500596e-06
6.92811312938e-07
3.57940320887e-07
8.1252048882e-07
5.65957260269e-07
3.88842953249e-06
1.78146396102e-05
8.05867742893e-06
1.42925263342e-05
1.10259811351e-05
1.15512518235e-05
1.65563709904e-05
1.52709496379e-05
1.11545465715e-05
1.30581070372e-05
5.56966216995e-06
7.65018348273e-06
2.8381822009e-06
6.69035904302e-06
1.01456708886e-05
1.71870735399e-05
4.36385164145e-06
1.80126164089e-05
9.19597664283e-06
6.90698281894e-06
1.83303076776e-05
9.27301518705e-06
1.16024579726e-07
3.46003949673e-07
3.75438982394e-07
2.64864980624e-07
7.68816029717e-08
8.48046851614e-08
6.23511258354e-08
4.51418393869e-06
1.23795913465e-05
1.29814025971e-07
5.25733463544e-07
1.85580538743e-06
3.10868878997e-05
1.57312264335e-06
3.20712080676e-05
1.47505732358e-05
3.29106925427e-07
2.61065653202e-07
3.48701273251e-07
1.58974177604e-07
1.91099442149e-07
1.58870218438e-07
2.75641935803e-07
1.34645408025e-07
3.7421100238e-07
4.10263806766e-07
2.89792847608e-07
6.77624351654e-08
4.66342017092e-07
7.20865397268e-07
6.9313559325e-08
1.48176471898e-07
2.48540865291e-07
1.83188180001e-05
1.5737927116e-05
7.94274421478e-07
5.08450363227e-07
9.72559789891e-07
1.17429905799e-06
8.76456719921e-07
5.1373025982e-07
1.11208099246e-08
8.35062445889e-06
2.6515148043e-07
2.3779838722e-07
1.70260530264e-06
1.084603664e-07
1.25232740405e-07
2.27924609107e-07
6.44224415301e-06
7.65651895303e-08
2.16116009794e-07
2.14222299139e-07
1.49411790184e-06
6.70282214577e-08
1.74309994887e-07
1.11773117462e-05
1.45896071378e-07
9.9366420867e-06
2.77991494197e-07
3.84486435087e-07
1.05540049012e-06
5.27014054244e-06
6.30549736645e-06
6.81732106512e-07
1.6107776732e-06
1.8721425679e-06
1.36277889322e-06
1.06488486413e-06
4.46153109212e-08
6.15126052082e-08
2.78819359757e-08
5.42910789189e-08
2.23014334865e-07
1.13171825749e-07
1.13171809711e-05
2.66622401114e-07
8.50876440376e-07
2.48709806895e-08
1.34716301355e-08
1.43020374642e-08
2.45568024328e-07
1.098355605e-05
1.16340390155e-07
2.44543306444e-06
4.29488910508e-07
3.84599925141e-07
1.11534674709e-05
2.27219498652e-08
5.34776268648e-08
1.0482621074e-05
1.16427396403e-05
3.03027713296e-07
1.97499697511e-07
5.91409148601e-06
1.23045885308e-08
1.13578612007e-06
8.55774050909e-07
1.21823263059e-06
4.69789573907e-09
7.56007395614e-07
8.75407695578e-07
8.29792046517e-07
2.32480155403e-08
7.00219725628e-07
2.7577290377e-06
6.09768352687e-08
2.86158260999e-06
7.19188626601e-07
1.36859297562e-06
2.95632987706e-06
7.72724462527e-07
2.24970857612e-06
1.3567501792e-06
6.17754972436e-06
1.00217263014e-06
1.50757681523e-08
3.94235128135e-08
6.30381181944e-07
1.10327081085e-06
1.42412956034e-07
1.11961130971e-07
1.20420950213e-06
7.05313894931e-06
5.50687444446e-06
1.19244915377e-05
4.59706686835e-06
9.22893145347e-06
9.74830747948e-06
1.21290074779e-05
5.42782793225e-06
4.45892107964e-05
2.08666870454e-05
3.85525487621e-05
3.74582158091e-05
5.84280655628e-05
2.96795187804e-05
3.10168046966e-05
2.50335549602e-05
1.59165387087e-05
6.16212496549e-06
1.4943719202e-05
1.32775776178e-05
4.50878955601e-06
6.41904300776e-06
5.28240296963e-06
7.77805652789e-06
2.58988468576e-06
1.19891703023e-06
2.85919387364e-06
5.15523997673e-05
3.62608419597e-05
5.6680050268e-05
1.26704259173e-05
1.35688245365e-05
7.27956002816e-06
1.64688608307e-05
1.62078134796e-05
9.59842113705e-06
1.44705824178e-05
1.34594729373e-05
1.4763897632e-05
5.70465556243e-06
2.8788396732e-06
1.2412079743e-05
1.16762041892e-05
7.56585692133e-07
1.21464242251e-05
3.55261500275e-06
2.23273479336e-05
2.5551625077e-05
9.27876166871e-06
1.47941523807e-05
1.57905105133e-05
2.13663758655e-05
1.07213695484e-05
2.59742598288e-07
1.29945253587e-05
9.09211070708e-06
9.41947778705e-06
1.4461682414e-05
1.08951670126e-05
4.07486880431e-07
8.08218440674e-06
1.26077954352e-05
2.32088729336e-05
1.8298038838e-05
1.15641015655e-05
2.10070614905e-05
2.26490064491e-05
2.15808397515e-05
2.11381994289e-05
1.65952058123e-05
1.66354474972e-05
4.26500448687e-06
1.55516884072e-05
1.32613475956e-05
1.18811906727e-05
2.69927895833e-06
1.70224870566e-05
1.3848749414e-05
1.29890169612e-05
1.0327118321e-05
1.67141319295e-05
1.37390022559e-05
5.06856989841e-06
5.67238871006e-06
7.97710052857e-06
1.4778671881e-05
1.00008081185e-05
1.06051714158e-05
4.77837540276e-06
1.19869244152e-05
2.25882168968e-06
1.01152789342e-06
5.73832087027e-08
4.38782580801e-08
1.57243522518e-07
6.86237462228e-07
5.49304541644e-07
1.72374031493e-07
1.09711044922e-07
5.14869028623e-07
1.17873336162e-06
1.16755877276e-05
1.17417038183e-06
1.16826277519e-07
2.98890167687e-07
1.30779470237e-06
1.3987012874e-06
2.92810754444e-06
1.36846942959e-07
1.93521298326e-06
3.47519092225e-08
1.09858026413e-07
1.24082049925e-06
7.03729797237e-07
4.05874943874e-06
4.63318222699e-06
6.44126298541e-06
4.75014335292e-06
3.50064771876e-06
7.92920985934e-06
5.18123926189e-06
1.53337599327e-05
7.52604535651e-06
6.01788416351e-06
3.09095139635e-07
4.54189877164e-08
1.03037591326e-08
3.08500389249e-06
1.31234491216e-06
8.72817169951e-07
6.09686199764e-09
2.23560205417e-06
3.28578859045e-08
9.58962131204e-08
2.5067868985e-06
5.7852465283e-06
8.31602087765e-06
2.59137321388e-07
3.48448258465e-07
2.88758253901e-06
2.52558130594e-06
6.97792077449e-06
4.32321975904e-06
2.11675889636e-06
2.41179667755e-06
6.81105175227e-06
8.74708470504e-06
4.80989514398e-06
5.44582148816e-06
4.16263782464e-06
6.3720463866e-06
1.07530319691e-05
7.14981381436e-06
1.3374802203e-05
1.09974157347e-05
1.37417194775e-05
5.04680257824e-06
8.17733270763e-06
6.7847840086e-06
5.52341269238e-06
5.97608910969e-06
5.43654330828e-06
4.28129904605e-06
1.38059197219e-06
6.25851455458e-06
2.46936539624e-07
1.71864888764e-07
2.72350555487e-07
1.13199587748e-08
3.06785119006e-09
9.30646402248e-09
1.60538383251e-07
3.01814025448e-08
1.41813600659e-06
1.74507277268e-06
2.0004580018e-06
3.40814900263e-09
1.59493752637e-08
5.99909254346e-09
1.40986700188e-09
1.34123378247e-09
7.62655978995e-07
8.60305936199e-07
6.72146957805e-07
3.74039840978e-07
1.73432266552e-06
4.06905374179e-06
1.36945150214e-06
8.19083848678e-07
9.25996893969e-07
9.38847756667e-07
8.02702641037e-09
7.2762863619e-06
3.00571169159e-06
1.90759609506e-06
1.56634129177e-05
8.33783331173e-06
7.08488964734e-06
7.19325024111e-06
1.01445509345e-05
2.34201737186e-06
2.03711040128e-06
4.87154883352e-06
7.42168200104e-09
1.91675837876e-06
7.47898347616e-06
7.59538627953e-07
6.24177622992e-08
1.12483127647e-07
1.39149785813e-08
5.44456974445e-06
5.75148372493e-08
4.26533069832e-08
2.74140122902e-06
7.6079972859e-06
5.77568127508e-06
6.96585537706e-06
9.4488146741e-06
1.00244456709e-05
1.16112211834e-05
1.37369231253e-05
9.82350435678e-06
1.07409463406e-05
8.8844856287e-06
9.35553347958e-06
1.09059691609e-05
1.14956683992e-05
1.30111147214e-05
3.03637198728e-06
1.51437851525e-05
1.46921064137e-05
1.33845591043e-05
1.72426068136e-05
8.73525712923e-06
6.39711664803e-06
5.18738389878e-06
2.14840982089e-06
6.58642987884e-06
3.39411116243e-06
2.8193615385e-06
2.10013933649e-07
3.88441544727e-08
1.01942500025e-07
4.86295706762e-07
3.29144651691e-07
4.67145385555e-07
2.00772523681e-06
5.67607479825e-07
7.93749164656e-07
1.62172783565e-08
1.57104520739e-07
9.03127730252e-07
6.18380990005e-06
4.58962478681e-06
4.95221973365e-08
6.41059376697e-08
5.05619231476e-08
6.53990824375e-06
4.58675362469e-06
1.55684709594e-08
5.16102776616e-09
3.60858176713e-09
8.11502797354e-08
1.73813729471e-08
5.74797668112e-09
4.64194145836e-09
2.07910086266e-08
7.36710587877e-09
2.04626040239e-08
4.74320497329e-09
8.78823525054e-06
9.11347573382e-06
3.20917814776e-08
1.52134569122e-08
1.75045792536e-08
3.58751269143e-06
3.27538575252e-08
1.07617622311e-08
6.34931461792e-07
6.86236990014e-07
2.90896942887e-06
4.98609453254e-08
9.94877713235e-06
1.95524827514e-05
1.16442968254e-05
2.76211194642e-10
9.39671651552e-06
1.75844145582e-05
1.36390103471e-05
2.08270244286e-07
6.65910743879e-08
1.16416128988e-05
2.19799031055e-05
1.05314050251e-05
6.79890031139e-08
3.59285797708e-05
1.13227175406e-05
9.72149520996e-06
1.0436391455e-05
1.44809007898e-06
4.47952488778e-07
7.69535744828e-07
8.25759247701e-07
6.19201619102e-08
4.47894204409e-08
1.34910824356e-07
7.3715787179e-08
8.88446069047e-08
1.12521587188e-07
1.13599392975e-07
2.50760885476e-08
2.70402478758e-08
3.87649031516e-06
1.29015867161e-07
1.20102423762e-05
6.68096719435e-06
7.4975212804e-08
4.27202294045e-08
6.72268829792e-07
1.9370834359e-07
2.28607213705e-07
1.1981400818e-07
2.2045741152e-07
1.25169446985e-07
7.22332335688e-08
9.48970410837e-08
5.24697431965e-06
1.3354685886e-05
3.28369532589e-06
2.51934629035e-07
2.57242243808e-07
2.19736308062e-07
2.44184190296e-07
5.92309772521e-07
1.14969290123e-07
1.43877939259e-05
2.61728956502e-07
5.37546199301e-06
8.37981167931e-06
3.1310937121e-08
1.16493219663e-08
2.04099374734e-07
1.01940256202e-07
6.69893064028e-08
1.49722898914e-07
1.38605591643e-07
1.34529425589e-07
1.49714081608e-07
2.8593244268e-07
2.22403879223e-07
2.9262984111e-07
5.17913553373e-06
1.72841233453e-06
3.19869749487e-06
3.93153372676e-07
2.37549604365e-07
1.64274882972e-07
2.26687117428e-05
4.62922372501e-07
1.90637881262e-05
2.25879146647e-07
6.55288417388e-06
5.58467525411e-06
3.78154375634e-06
2.7699284691e-06
2.16994046308e-06
2.70518712796e-06
1.75038288854e-06
1.79871910962e-06
1.99663917047e-06
2.63979474995e-06
1.28835309549e-06
3.04068760819e-07
1.91261938144e-06
1.78670557828e-06
3.4176323052e-06
3.29498563613e-06
8.32213049444e-07
8.25351907821e-07
2.38600061116e-06
1.92415925663e-06
2.20241318581e-07
1.02841251852e-07
1.95132480381e-05
8.40696859603e-06
3.1025426107e-07
2.54485617219e-05
1.51449058711e-06
2.22459448329e-05
3.67228044332e-05
2.70047256837e-07
1.97565319256e-07
2.23662674318e-07
1.20185736731e-07
2.52273357607e-07
5.26358709678e-06
4.06029237198e-07
4.48681611745e-07
2.35077251329e-07
8.23709400887e-07
2.49613993276e-07
3.65751931035e-07
7.10935688779e-07
6.71422344398e-07
3.50188159489e-06
4.56285568101e-06
1.39007538101e-06
1.43700328514e-06
1.08337921857e-06
3.42575994734e-06
4.87069823488e-06
2.37026448387e-06
9.21905024097e-08
1.53333650244e-06
2.39107303563e-06
2.06119003284e-05
2.69521366609e-05
1.65647278374e-07
2.5996405224e-07
2.14863373267e-07
2.58318259821e-07
2.17363649942e-07
1.5801365806e-07
3.79064247362e-06
1.29509626557e-06
9.11529788946e-07
1.48613698971e-06
1.25533302904e-06
4.20957428348e-07
7.06913212608e-09
4.50485360959e-07
2.02487643148e-07
2.6672727316e-07
2.48347271072e-07
1.21898871738e-06
9.86875226588e-07
2.96511588055e-07
3.06785156845e-06
3.49590495549e-07
2.60210295683e-06
8.26924070094e-07
9.5422969763e-07
3.59871470354e-07
6.36526297812e-07
2.34254751253e-07
1.53139488605e-08
1.18792939275e-07
3.13398614918e-07
2.67852123569e-07
1.07305671296e-07
3.32962696437e-07
3.81171924186e-06
7.14626411762e-07
1.99495123601e-06
1.13963797316e-06
1.40406969393e-07
1.80463445822e-07
4.13772883439e-07
4.15783509133e-07
6.04666939357e-07
5.29287005613e-07
1.06330579477e-06
5.91050949661e-07
7.81585454916e-07
1.0525369604e-06
1.66922171397e-06
1.40371825467e-06
2.58636028822e-07
7.98950963772e-07
4.19309346045e-06
4.70876591299e-06
4.14389140791e-07
4.95237263101e-07
6.73148450227e-07
6.90885497357e-09
1.0625108075e-06
1.11620692268e-06
2.25577150324e-06
1.39461759781e-06
3.5018178763e-07
1.11358059518e-07
3.95194537403e-07
6.59716597732e-06
1.09306395899e-06
1.01859681217e-06
8.51245780696e-07
1.53959038256e-06
6.73943046899e-07
5.43925868951e-07
1.22902163101e-06
1.27480916411e-06
2.02310777874e-06
1.52605762996e-06
1.83453070913e-06
1.59790524492e-06
3.1206964112e-06
4.58525726402e-06
1.29236073324e-06
9.59625590207e-07
1.06548683384e-06
1.15805034509e-06
2.11402511574e-06
3.07107467663e-06
1.2537815757e-06
3.32901485821e-06
7.69407037549e-06
1.80692582536e-10
5.67560573318e-06
2.96058521862e-06
3.17541914371e-06
1.52752914627e-08
6.52744150282e-06
4.28729480229e-07
3.53895098204e-06
1.3803864688e-06
6.82634661589e-07
3.55055037027e-07
5.30128501074e-06
6.85577102928e-07
9.71527383919e-06
1.07150605655e-05
3.66693521096e-06
5.17501872107e-06
6.18703924213e-06
6.98415017653e-06
1.9909973579e-05
7.01176235291e-06
6.43501298023e-06
3.45121038673e-07
3.02051335128e-07
1.37324746404e-07
1.962293422e-07
2.37461882557e-07
1.69552763705e-07
4.12785757098e-07
2.05470565732e-07
6.55402053491e-06
1.50405705537e-08
8.40712109951e-08
5.41541350401e-07
7.48077552582e-06
9.22350753893e-07
3.26757776248e-07
7.17972728898e-06
8.32968184633e-06
5.12174110964e-08
4.08675882256e-08
5.45144874941e-06
7.5708057954e-06
4.51892874383e-08
1.60837714003e-06
2.92575424362e-07
1.37481254784e-07
8.51366116808e-06
8.93686987542e-06
8.76384100888e-06
1.06271444512e-05
1.05476931483e-05
1.24669156607e-05
5.09845220711e-07
1.63561857239e-05
1.59305540141e-05
4.30369201307e-07
2.29664018069e-07
5.48823076145e-08
9.26445580405e-06
4.8297481192e-06
4.68277037051e-07
8.92724395786e-06
3.07578803214e-06
2.45575809126e-05
3.18870685019e-05
4.44337220907e-08
1.63264322912e-07
5.15546693665e-07
3.92415838942e-06
5.31890764439e-06
7.92116004747e-07
2.118307384e-08
7.59620271047e-06
2.76751412796e-07
9.19090474128e-07
1.14785157252e-06
1.64989970435e-07
1.96357342508e-06
2.48739627451e-06
8.59202617057e-07
1.17633875652e-07
5.02606906804e-07
9.30162248682e-07
8.35608902807e-08
1.72421491813e-07
1.8974189942e-07
6.93547088283e-07
1.51798410667e-06
5.99253062728e-07
3.79040072581e-06
6.06892660731e-06
3.48382943037e-07
4.26861050396e-07
1.00188306223e-07
8.99395204574e-08
4.01064546324e-06
1.70115169241e-08
2.97230987849e-07
1.37711370256e-07
2.27873935554e-07
5.1912622917e-07
2.81358876156e-07
9.04140218766e-06
5.5115663568e-06
3.33857377156e-07
1.05403917563e-06
6.48675193546e-06
5.91279138335e-06
2.12228168195e-06
7.97818254827e-06
1.60129089129e-05
1.52155693261e-06
3.07131145849e-06
2.74432109247e-05
1.57357724644e-05
1.3924074123e-08
4.39209171841e-08
6.05212283463e-06
1.540906454e-07
1.98129326995e-06
1.44190454594e-06
1.14436981489e-06
3.71223333005e-06
1.35238620883e-05
5.08380225431e-07
6.24960129676e-07
1.54500946619e-05
1.74000312645e-05
6.47916743059e-06
6.46979415153e-06
4.42138474127e-06
1.03420604361e-06
9.26428811231e-08
1.9948897468e-06
1.87264647948e-06
1.88360345999e-06
1.57263986318e-06
3.47842927071e-06
2.99644616719e-06
3.94660797645e-06
4.84448287981e-07
5.36746704928e-06
3.0770322219e-06
1.43330839794e-06
4.09989002543e-06
5.21496934638e-06
6.10964277826e-06
1.39659642363e-06
1.13557890443e-06
1.77751964023e-05
1.42975475707e-08
6.7996600746e-06
4.93474286709e-06
1.03297723282e-06
2.59701955331e-06
1.43907002402e-05
1.18283754044e-06
1.03361681803e-06
3.48043579475e-05
1.24895928136e-07
1.23979754064e-06
1.43690518977e-06
8.9442263523e-07
1.4606330274e-06
3.45089689254e-08
4.62068275515e-06
4.09447464495e-07
3.42171166127e-06
9.77674892301e-08
3.22980405616e-06
3.98532459855e-06
2.15172254258e-07
3.6058725043e-06
5.01616644259e-06
3.49258774247e-07
1.39088691223e-06
1.0766934191e-05
1.20353873984e-05
2.03923354175e-06

