# vtk DataFile Version 3.0
File Name: Molecule/methanol/methanol_5.0-0.vtk
ASCII
DATASET UNSTRUCTURED_GRID
FIELD FieldData 1
TIME 1 1 double
0.0
POINTS 240 double
1.611 0.0 -0.359
1.543 -0.475 -0.352
1.403 0.0 -0.933
1.341 -0.432 -0.927
1.345 -0.911 -0.332
1.16 -0.83 -0.909
1.032 -1.273 -0.301
0.876 -1.16 -0.88
0.631 -1.532 -0.261
0.51 -1.396 -0.844
0.173 -1.667 -0.216
0.093 -1.519 -0.802
-0.304 -1.667 -0.168
-0.341 -1.519 -0.759
-0.762 -1.532 -0.123
-0.758 -1.396 -0.718
-1.163 -1.273 -0.083
-1.124 -1.16 -0.681
-1.475 -0.911 -0.051
-1.408 -0.83 -0.653
-1.674 -0.475 -0.032
-1.589 -0.432 -0.635
-1.742 -0.0 -0.025
-1.651 -0.0 -0.629
-1.674 0.475 -0.032
-1.589 0.432 -0.635
-1.475 0.911 -0.051
-1.408 0.83 -0.653
-1.163 1.273 -0.083
-1.124 1.16 -0.681
-0.762 1.532 -0.123
-0.758 1.396 -0.718
-0.304 1.667 -0.168
-0.341 1.519 -0.759
0.173 1.667 -0.216
0.093 1.519 -0.802
0.631 1.532 -0.261
0.51 1.396 -0.844
1.032 1.273 -0.301
0.876 1.16 -0.88
1.345 0.911 -0.332
1.16 0.83 -0.909
1.543 0.475 -0.352
1.341 0.432 -0.927
1.907 0.0 0.656
1.852 0.452 0.656
1.852 0.226 1.047
1.852 -0.226 1.047
1.852 -0.452 0.656
1.852 -0.226 0.264
1.852 0.226 0.264
1.69 0.76 1.094
1.69 0.439 1.415
1.69 -0.0 1.533
1.69 -0.439 1.415
1.69 -0.76 1.094
1.69 -0.877 0.656
1.69 -0.76 0.217
1.69 -0.439 -0.104
1.69 0.439 -0.104
1.69 0.76 0.217
1.69 0.877 0.656
1.432 1.167 1.108
1.432 0.925 1.499
1.432 0.558 1.776
1.432 0.115 1.902
1.432 -0.343 1.859
1.432 -0.754 1.654
1.432 -1.064 1.315
1.432 -1.23 0.886
1.432 -1.23 0.426
1.432 -1.064 -0.003
1.432 1.167 0.203
1.432 1.252 0.656
1.091 1.484 1.113
1.091 1.283 1.531
1.091 0.969 1.87
1.091 0.568 2.102
1.091 0.116 2.205
1.091 -0.346 2.17
1.091 -0.777 2.001
1.091 -1.139 1.712
1.091 -1.4 1.33
1.091 -1.536 0.887
1.091 -1.536 0.424
1.091 -1.4 -0.018
1.091 1.484 0.198
1.091 1.553 0.656
0.688 1.705 1.112
0.688 1.528 1.538
0.688 1.248 1.904
0.688 0.882 2.184
0.688 0.457 2.36
0.688 0.0 2.42
0.688 -0.457 2.36
0.688 -0.882 2.184
0.688 -1.248 1.904
0.688 -1.528 1.538
0.688 -1.705 1.112
0.688 -1.765 0.656
0.688 -1.705 0.199
0.688 1.705 0.199
0.688 1.765 0.656
0.247 1.815 1.122
0.247 1.642 1.558
0.247 1.366 1.938
0.247 1.004 2.238
0.247 0.579 2.438
0.247 0.118 2.526
0.247 -0.351 2.496
0.247 -0.798 2.351
0.247 -1.194 2.099
0.247 -1.516 1.757
0.247 -1.742 1.345
0.247 -1.859 0.89
0.247 -1.859 0.421
0.247 1.815 0.19
0.247 1.874 0.656
-0.209 1.815 1.122
-0.209 1.642 1.558
-0.209 1.366 1.938
-0.209 1.004 2.238
-0.209 0.579 2.438
-0.209 0.118 2.526
-0.209 -0.351 2.496
-0.209 -0.798 2.351
-0.209 -1.194 2.099
-0.209 -1.516 1.757
-0.209 -1.742 1.345
-0.209 -1.859 0.89
-0.209 -1.859 0.421
-0.209 1.815 0.19
-0.209 1.874 0.656
-0.65 1.765 0.656
-0.65 1.705 1.112
-0.65 1.528 1.538
-0.65 1.248 1.904
-0.65 0.882 2.184
-0.65 0.457 2.36
-0.65 0.0 2.42
-0.65 -0.457 2.36
-0.65 -0.882 2.184
-0.65 -1.248 1.904
-0.65 -1.528 1.538
-0.65 -1.705 1.112
-0.65 -1.765 0.656
-0.65 -1.705 0.199
-0.65 1.705 0.199
-1.053 1.553 0.656
-1.053 1.484 1.113
-1.053 1.283 1.531
-1.053 0.969 1.87
-1.053 0.568 2.102
-1.053 0.116 2.205
-1.053 -0.346 2.17
-1.053 -0.777 2.001
-1.053 -1.139 1.712
-1.053 -1.4 1.33
-1.053 -1.536 0.887
-1.053 -1.536 0.424
-1.053 1.484 0.198
-1.394 1.252 0.656
-1.394 1.167 1.108
-1.394 0.925 1.499
-1.394 0.558 1.776
-1.394 0.115 1.902
-1.394 -0.343 1.859
-1.394 -0.754 1.654
-1.394 -1.064 1.315
-1.394 -1.23 0.886
-1.394 -1.23 0.426
-1.394 1.167 0.203
-1.652 0.877 0.656
-1.652 0.76 1.094
-1.652 0.439 1.415
-1.652 -0.0 1.533
-1.652 -0.439 1.415
-1.652 -0.76 1.094
-1.652 -0.877 0.656
-1.652 -0.76 0.217
-1.652 0.76 0.217
-1.814 0.452 0.656
-1.814 0.226 1.047
-1.814 -0.226 1.047
-1.814 -0.452 0.656
-1.814 -0.226 0.264
-1.814 0.226 0.264
-1.868 -0.0 0.656
1.122 -0.781 -1.188
0.783 -1.147 -1.212
0.783 -0.878 -1.615
1.122 -0.451 -1.519
0.783 -0.475 -1.885
1.122 -0.0 -1.639
0.783 0.0 -1.979
0.783 0.475 -1.885
1.122 0.451 -1.519
0.783 0.878 -1.615
1.122 0.781 -1.188
0.783 1.147 -1.212
0.355 -1.284 -1.432
0.355 -0.989 -1.811
0.355 -0.586 -2.074
0.355 -0.121 -2.192
0.355 0.358 -2.152
0.355 0.798 -1.959
0.355 1.152 -1.634
0.355 1.381 -1.211
-0.12 -1.383 -1.403
-0.12 -1.125 -1.781
-0.12 -0.767 -2.067
-0.12 -0.342 -2.234
-0.12 0.115 -2.268
-0.12 0.561 -2.166
-0.12 0.957 -1.937
-0.12 1.268 -1.602
-0.12 1.467 -1.19
-0.594 -1.44 -0.977
-0.594 -1.284 -1.432
-0.594 -0.989 -1.811
-0.594 -0.586 -2.074
-0.594 -0.121 -2.192
-0.594 0.358 -2.152
-0.594 0.798 -1.959
-0.594 1.152 -1.634
-0.594 1.381 -1.211
-1.022 -1.147 -1.212
-1.022 -0.878 -1.615
-1.022 -0.475 -1.885
-1.022 0.0 -1.979
-1.022 0.475 -1.885
-1.022 0.878 -1.615
-1.022 1.147 -1.212
-1.362 -0.781 -1.188
-1.362 -0.451 -1.519
-1.362 -0.0 -1.639
-1.362 0.451 -1.519
-1.362 0.781 -1.188
-1.58 -0.237 -1.148
-1.58 0.237 -1.148

CELLS 476 1904
3 0 1 2
3 2 1 3
3 1 4 3
3 3 4 5
3 4 6 5
3 5 6 7
3 6 8 7
3 7 8 9
3 8 10 9
3 9 10 11
3 10 12 11
3 11 12 13
3 12 14 13
3 13 14 15
3 14 16 15
3 15 16 17
3 16 18 17
3 17 18 19
3 18 20 19
3 19 20 21
3 20 22 21
3 21 22 23
3 22 24 23
3 23 24 25
3 24 26 25
3 25 26 27
3 26 28 27
3 27 28 29
3 28 30 29
3 29 30 31
3 30 32 31
3 31 32 33
3 32 34 33
3 33 34 35
3 34 36 35
3 35 36 37
3 36 38 37
3 37 38 39
3 38 40 39
3 39 40 41
3 40 42 41
3 41 42 43
3 42 0 43
3 43 0 2
3 44 45 46
3 44 46 47
3 44 47 48
3 44 48 49
3 44 49 50
3 44 50 45
3 46 45 51
3 46 51 52
3 46 52 53
3 47 46 53
3 47 53 54
3 47 54 55
3 48 47 55
3 48 55 56
3 48 56 57
3 49 48 57
3 49 57 58
3 50 59 60
3 45 50 60
3 45 60 61
3 45 61 51
3 51 61 62
3 51 62 63
3 52 51 63
3 52 63 64
3 52 64 65
3 53 52 65
3 53 65 66
3 54 53 66
3 54 66 67
3 55 54 67
3 55 67 68
3 55 68 69
3 56 55 69
3 56 69 70
3 57 56 70
3 57 70 71
3 61 60 72
3 61 72 73
3 61 73 62
3 62 73 74
3 62 74 75
3 63 62 75
3 63 75 76
3 64 63 76
3 64 76 77
3 65 64 77
3 65 77 78
3 65 78 79
3 66 65 79
3 66 79 80
3 67 66 80
3 67 80 81
3 68 67 81
3 68 81 82
3 69 68 82
3 69 82 83
3 69 83 84
3 70 69 84
3 70 84 85
3 71 70 85
3 73 72 86
3 73 86 87
3 73 87 74
3 74 87 88
3 74 88 89
3 75 74 89
3 75 89 90
3 76 75 90
3 76 90 91
3 77 76 91
3 77 91 92
3 78 77 92
3 78 92 93
3 79 78 93
3 79 93 94
3 80 79 94
3 80 94 95
3 80 95 96
3 81 80 96
3 81 96 97
3 82 81 97
3 82 97 98
3 83 82 98
3 83 98 99
3 84 83 99
3 84 99 100
3 85 84 100
3 87 86 101
3 87 101 102
3 87 102 88
3 88 102 103
3 88 103 104
3 89 88 104
3 89 104 105
3 90 89 105
3 90 105 106
3 91 90 106
3 91 106 107
3 92 91 107
3 92 107 108
3 93 92 108
3 93 108 109
3 94 93 109
3 94 109 110
3 95 94 110
3 95 110 111
3 96 95 111
3 96 111 112
3 97 96 112
3 97 112 113
3 98 97 113
3 98 113 114
3 99 98 114
3 99 114 115
3 100 99 115
3 102 101 116
3 102 116 117
3 102 117 103
3 103 117 118
3 103 118 119
3 104 103 119
3 104 119 120
3 105 104 120
3 105 120 121
3 106 105 121
3 106 121 122
3 107 106 122
3 107 122 123
3 108 107 123
3 108 123 124
3 109 108 124
3 109 124 125
3 110 109 125
3 110 125 126
3 111 110 126
3 111 126 127
3 112 111 127
3 112 127 128
3 113 112 128
3 113 128 129
3 114 113 129
3 114 129 130
3 115 114 130
3 117 116 131
3 117 131 132
3 117 132 118
3 118 132 133
3 118 133 134
3 119 118 134
3 119 134 135
3 120 119 135
3 120 135 136
3 121 120 136
3 121 136 137
3 122 121 137
3 122 137 138
3 123 122 138
3 123 138 139
3 124 123 139
3 124 139 140
3 125 124 140
3 125 140 141
3 126 125 141
3 126 141 142
3 127 126 142
3 127 142 143
3 128 127 143
3 128 143 144
3 129 128 144
3 129 144 145
3 130 129 145
3 130 145 146
3 133 131 147
3 132 131 133
3 134 133 148
3 134 148 149
3 135 134 149
3 135 149 150
3 136 135 150
3 136 150 151
3 137 136 151
3 137 151 152
3 138 137 152
3 138 152 153
3 139 138 153
3 139 153 154
3 140 139 154
3 140 154 155
3 141 140 155
3 142 141 155
3 142 155 156
3 143 142 156
3 143 156 157
3 144 143 157
3 144 157 158
3 145 144 158
3 145 158 159
3 146 145 159
3 148 147 160
3 133 147 148
3 149 148 161
3 149 161 162
3 150 149 162
3 150 162 163
3 151 150 163
3 151 163 164
3 152 151 164
3 152 164 165
3 153 152 165
3 154 153 165
3 154 165 166
3 155 154 166
3 155 166 167
3 156 155 167
3 156 167 168
3 157 156 168
3 157 168 169
3 158 157 169
3 158 169 170
3 159 158 170
3 161 160 171
3 148 160 161
3 162 161 172
3 162 172 173
3 163 162 173
3 163 173 174
3 164 163 174
3 165 164 174
3 165 174 175
3 166 165 175
3 166 175 176
3 167 166 176
3 167 176 177
3 168 167 177
3 169 168 177
3 169 177 178
3 170 169 178
3 170 178 179
3 172 171 180
3 161 171 172
3 173 172 181
3 173 181 182
3 174 173 182
3 175 174 182
3 175 182 183
3 176 175 183
3 177 176 183
3 177 183 184
3 178 177 184
3 179 178 184
3 179 184 185
3 181 180 186
3 172 180 181
3 182 181 187
3 183 182 187
3 184 183 187
3 185 184 187
3 186 185 187
3 181 186 187
3 186 180 24
3 186 24 22
3 186 22 185
3 185 22 20
3 185 20 179
3 179 20 18
3 179 18 170
3 170 18 16
3 170 16 159
3 159 16 14
3 159 14 146
3 146 14 12
3 146 12 130
3 130 12 10
3 130 10 115
3 115 10 100
3 100 10 8
3 100 8 85
3 85 8 6
3 85 6 71
3 71 6 4
3 71 4 58
3 71 58 57
3 58 4 1
3 58 1 0
3 58 0 49
3 49 0 50
3 50 0 59
3 59 0 42
3 59 42 40
3 59 40 60
3 60 40 72
3 72 40 38
3 72 38 86
3 86 38 36
3 86 36 101
3 101 36 116
3 116 36 34
3 116 34 131
3 131 34 32
3 131 32 147
3 147 32 30
3 147 30 160
3 160 30 28
3 160 28 171
3 171 28 26
3 171 26 180
3 180 26 24
3 188 189 190
3 191 188 190
3 191 190 192
3 193 191 192
3 193 192 194
3 193 194 195
3 196 193 195
3 196 195 197
3 198 196 197
3 198 197 199
3 190 189 200
3 190 200 201
3 192 190 201
3 192 201 202
3 192 202 203
3 194 192 203
3 194 203 204
3 195 194 204
3 195 204 205
3 197 195 205
3 197 205 206
3 199 197 206
3 199 206 207
3 200 208 209
3 201 200 209
3 201 209 210
3 202 201 210
3 202 210 211
3 203 202 211
3 203 211 212
3 204 203 212
3 204 212 213
3 205 204 213
3 205 213 214
3 206 205 214
3 206 214 215
3 207 206 215
3 207 215 216
3 208 217 218
3 209 208 218
3 209 218 219
3 210 209 219
3 210 219 220
3 211 210 220
3 211 220 221
3 212 211 221
3 212 221 222
3 213 212 222
3 213 222 223
3 214 213 223
3 214 223 224
3 215 214 224
3 215 224 225
3 216 215 225
3 218 217 226
3 218 226 227
3 219 218 227
3 219 227 228
3 220 219 228
3 221 220 228
3 221 228 229
3 222 221 229
3 222 229 230
3 223 222 230
3 223 230 231
3 224 223 231
3 224 231 232
3 225 224 232
3 227 226 233
3 227 233 234
3 228 227 234
3 228 234 235
3 229 228 235
3 230 229 235
3 230 235 236
3 231 230 236
3 231 236 237
3 232 231 237
3 234 233 238
3 235 234 238
3 235 238 239
3 236 235 239
3 237 236 239
3 237 239 25
3 237 25 27
3 237 27 29
3 237 29 232
3 232 29 31
3 232 31 225
3 225 31 33
3 225 33 216
3 216 33 35
3 216 35 207
3 207 35 37
3 207 37 199
3 199 37 39
3 199 39 198
3 198 39 41
3 198 41 43
3 198 43 196
3 196 43 2
3 196 2 193
3 193 2 191
3 191 2 3
3 191 3 188
3 188 3 5
3 188 5 7
3 188 7 189
3 189 7 9
3 189 9 200
3 200 9 11
3 200 11 208
3 208 11 13
3 208 13 217
3 217 13 15
3 217 15 226
3 226 15 17
3 226 17 233
3 233 17 19
3 233 19 21
3 233 21 238
3 238 21 23
3 238 23 239
3 239 23 25

CELL_TYPES 476
5
5
5
5
5
5
5
5
5
5
5
5
5
5
5
5
5
5
5
5
5
5
5
5
5
5
5
5
5
5
5
5
5
5
5
5
5
5
5
5
5
5
5
5
5
5
5
5
5
5
5
5
5
5
5
5
5
5
5
5
5
5
5
5
5
5
5
5
5
5
5
5
5
5
5
5
5
5
5
5
5
5
5
5
5
5
5
5
5
5
5
5
5
5
5
5
5
5
5
5
5
5
5
5
5
5
5
5
5
5
5
5
5
5
5
5
5
5
5
5
5
5
5
5
5
5
5
5
5
5
5
5
5
5
5
5
5
5
5
5
5
5
5
5
5
5
5
5
5
5
5
5
5
5
5
5
5
5
5
5
5
5
5
5
5
5
5
5
5
5
5
5
5
5
5
5
5
5
5
5
5
5
5
5
5
5
5
5
5
5
5
5
5
5
5
5
5
5
5
5
5
5
5
5
5
5
5
5
5
5
5
5
5
5
5
5
5
5
5
5
5
5
5
5
5
5
5
5
5
5
5
5
5
5
5
5
5
5
5
5
5
5
5
5
5
5
5
5
5
5
5
5
5
5
5
5
5
5
5
5
5
5
5
5
5
5
5
5
5
5
5
5
5
5
5
5
5
5
5
5
5
5
5
5
5
5
5
5
5
5
5
5
5
5
5
5
5
5
5
5
5
5
5
5
5
5
5
5
5
5
5
5
5
5
5
5
5
5
5
5
5
5
5
5
5
5
5
5
5
5
5
5
5
5
5
5
5
5
5
5
5
5
5
5
5
5
5
5
5
5
5
5
5
5
5
5
5
5
5
5
5
5
5
5
5
5
5
5
5
5
5
5
5
5
5
5
5
5
5
5
5
5
5
5
5
5
5
5
5
5
5
5
5
5
5
5
5
5
5
5
5
5
5
5
5
5
5
5
5
5
5
5
5
5
5
5
5
5
5
5
5
5
5
5
5
5
5
5
5
5
5
5
5
5
5
5
5
5
5
5
5
5
5
5
5
5
5
5
5
5
5
5
5
5
5
5
5
5
5
5
5
5
5
5
5
5
5
5
5
5
5
5
5
5
5
5

CELL_DATA 476
SCALARS cell_data_0 double
LOOKUP_TABLE default
7.00497041906e-06
6.26184271156e-06
1.79350530206e-05
1.01419461324e-06
1.72871296018e-07
1.48189362925e-07
1.18586562119e-08
2.365604304e-08
1.10729469129e-08
2.57110418183e-08
4.44930932036e-08
5.91646041858e-08
7.9651802218e-08
5.517656543e-08
9.31221157197e-08
7.60673231829e-08
1.29760077787e-07
9.45688394341e-08
1.35103556187e-07
1.12158102924e-07
1.73710977785e-07
1.1030031169e-07
1.52063917262e-07
1.16024315904e-07
1.84842687344e-07
1.21945215025e-07
1.59137321937e-07
1.11893788308e-07
1.72186111655e-07
1.1501146654e-07
1.57131140398e-07
9.64679627884e-08
1.43332361703e-07
8.55075351285e-08
1.20609734208e-07
8.08617973423e-08
8.2420830055e-08
8.74034064199e-08
2.22245284731e-08
2.08877209822e-07
8.42935172062e-08
7.78749228267e-07
1.04427279238e-06
1.43944700344e-07
2.72818501769e-09
1.53121742582e-09
1.59676062577e-09
2.98464581847e-09
1.00319378721e-08
6.01145171159e-09
3.50446696723e-09
6.33049946869e-09
1.00560782777e-09
2.47133756793e-09
5.26865541506e-09
4.07541669122e-09
5.98373413689e-10
1.85847791857e-09
1.55298802622e-07
1.876484052e-07
2.17421064004e-07
4.31356493431e-08
9.49520070002e-09
1.16561476817e-08
4.71975012703e-09
1.62073999002e-08
2.05532747105e-08
1.2923007206e-08
1.21147492625e-08
3.27491491365e-09
2.69598057195e-09
7.32304173018e-09
1.24596552129e-08
1.60393978249e-08
1.25640366207e-08
1.54826237198e-08
1.07967355408e-08
4.17713396088e-09
2.64065802045e-09
1.73049668435e-07
1.65164348438e-07
1.27691900985e-08
4.95861104758e-09
1.80564656029e-08
3.24548701449e-08
3.4413342077e-08
2.80437529555e-08
2.50847788192e-08
1.83074271242e-08
1.41856433025e-08
4.82279644334e-09
4.25011722023e-10
7.68037346e-09
1.23154878492e-08
1.79578650533e-08
2.29443980288e-08
2.75600107787e-08
2.77568984754e-08
3.01709967815e-08
2.21908385077e-08
2.28833866442e-08
1.30276469887e-08
6.93326398769e-10
1.07351918568e-09
3.91934042392e-09
1.58064383857e-08
3.05794621247e-08
3.64772148513e-08
4.95106404594e-08
4.69408043023e-08
4.0652657543e-08
3.56376693062e-08
2.93992654648e-08
2.38417829718e-08
1.63944549482e-08
1.12310177093e-08
4.18819050019e-09
4.7418287648e-10
7.95595803818e-09
1.30370500762e-08
2.03760801815e-08
2.54191315284e-08
3.25020800552e-08
3.52426661789e-08
4.08962827233e-08
4.10982786698e-08
4.20202548243e-08
3.47184812652e-08
2.82187563119e-08
1.57601925503e-08
7.82280285647e-09
2.02529988481e-09
4.49525790553e-08
5.42800567298e-08
5.43223587996e-08
6.35444391595e-08
6.01464341155e-08
5.16129421297e-08
4.54749411416e-08
3.79303196371e-08
3.15012658206e-08
2.43692819275e-08
1.75280068509e-08
1.1478031908e-08
4.82599966615e-09
9.31115903289e-10
8.01748006976e-09
1.37021095568e-08
2.09563017462e-08
2.54377365345e-08
3.33050101129e-08
3.6933401354e-08
4.48414480496e-08
4.66478140419e-08
5.14518577204e-08
4.76591684697e-08
4.63583273765e-08
3.49916951988e-08
1.8085975222e-08
6.20193191385e-09
6.53721862925e-08
7.38094334384e-08
7.0962991281e-08
7.80253084554e-08
7.07124542791e-08
6.3660262725e-08
5.31744624405e-08
4.6415268885e-08
3.59281327148e-08
3.03145361982e-08
2.01115003147e-08
1.51899506859e-08
5.29262504991e-09
9.58734478287e-10
9.16106294143e-09
1.31827833703e-08
2.35044162632e-08
2.70277407477e-08
3.7634229422e-08
4.09851096167e-08
5.11882689238e-08
5.33349857621e-08
5.94592950772e-08
5.74571728394e-08
5.33427728241e-08
4.74098919112e-08
1.53450494905e-08
1.14806205057e-09
8.05614105959e-08
8.77211126812e-08
8.49695355093e-08
5.2001208688e-08
2.38751947263e-08
4.52933592339e-08
1.98183656706e-08
3.41692756688e-08
1.34869990108e-08
2.29022711207e-08
8.31200245612e-09
1.27873149159e-08
3.46738200685e-09
3.09536955772e-09
1.2153485449e-09
6.55987092226e-09
5.86409494446e-09
1.60996957384e-08
1.07727765782e-08
2.63783860052e-08
1.62091173773e-08
3.58601209547e-08
2.0753665471e-08
4.21210126952e-08
2.32346761686e-08
3.95092115906e-08
1.63081902463e-08
6.65676889259e-09
7.98314006961e-09
1.82632840788e-08
5.38247648284e-08
3.9643433709e-09
3.75519367923e-09
2.17954319525e-09
1.42703629106e-09
8.89663377132e-10
2.91982990366e-10
7.41763114003e-10
1.8388513248e-11
6.29742520286e-10
3.29338180535e-10
2.6596844189e-10
3.46046025716e-10
3.77604750579e-10
2.92445191292e-10
5.39978893623e-10
2.67860980039e-10
1.93322637695e-10
3.99849138682e-10
3.49288913422e-10
1.12405172931e-09
2.24505103513e-09
2.23425727941e-09
3.65579218341e-09
4.78909095955e-09
9.96541228673e-09
5.7652126317e-09
4.53310166316e-09
4.11578320746e-09
1.98320500789e-09
1.36568826125e-09
9.83135747811e-10
2.67532165959e-10
6.97686559453e-10
2.17810651712e-10
6.02287625608e-10
3.93988797336e-10
4.65601566455e-11
1.1411486726e-09
6.90050028606e-10
1.5077405739e-09
8.67592969246e-10
1.06394034746e-09
2.18735212929e-09
2.51089891536e-09
5.18689875939e-09
8.08019232918e-09
1.17523164029e-08
8.38856896887e-09
4.85968174769e-09
4.16655472884e-09
1.8040427455e-09
1.42737906354e-09
1.10514520218e-09
4.48062489954e-10
9.76233261811e-10
1.76269241212e-09
6.40351302006e-10
9.73045256116e-10
1.12066715195e-09
1.24166228498e-09
2.10963143528e-09
4.23310983946e-09
4.33893314307e-09
1.0021450702e-08
1.29825406993e-08
1.05131276013e-08
4.6546304029e-09
4.9461881678e-09
1.80544493212e-09
1.94900349128e-09
2.31383343637e-09
1.75714535201e-09
1.80574528373e-09
5.06144255779e-09
4.92258550863e-09
1.10546989301e-08
1.0599136645e-08
1.07892607829e-08
1.21528643956e-08
3.3424556784e-09
3.11331476478e-09
3.33782503315e-09
9.29337447243e-09
8.47942879904e-09
9.15266268485e-09
1.83734073244e-08
1.1583629637e-08
1.8966357269e-08
1.23705076925e-08
1.89674929534e-08
4.61271881599e-09
4.0249389601e-08
5.54111475768e-08
5.47830219598e-08
6.22557982527e-08
3.32024216142e-08
1.50557418386e-08
6.35722276566e-08
8.93913969815e-08
7.13537660773e-08
6.44392083001e-08
4.02092007742e-08
2.57506074658e-08
1.98318878625e-08
7.34999881764e-09
1.81579378028e-08
8.69255793136e-09
1.91090944498e-07
6.37371140282e-06
6.00099841471e-06
5.6307345158e-08
1.01830122785e-07
6.36547824963e-08
1.47681701571e-08
1.10222683457e-08
4.68158969619e-08
1.49379967558e-08
7.60456980638e-09
1.02422002238e-08
2.39516460072e-08
3.20066918272e-08
1.84106479773e-08
7.60646546491e-09
1.22950739076e-08
1.48470410962e-08
5.29239701808e-09
1.3948972604e-08
1.78187037112e-08
1.00844048068e-08
1.63997512222e-08
7.04336062594e-09
1.49108971375e-08
5.74712752527e-09
2.29393330248e-05
1.71262657315e-06
1.26484670948e-06
1.91003774587e-06
1.66073768971e-06
2.20623358388e-06
5.30282430107e-06
3.78504838907e-06
4.20362605803e-06
5.44659697864e-07
2.3295961402e-05
8.57547129424e-07
9.68402200722e-07
2.08903786027e-07
1.03364374039e-07
6.62655617887e-06
7.16521146608e-06
5.67456678418e-06
2.7979274909e-08
5.0282497709e-07
8.04836995963e-07
8.30256052753e-07
9.02447331347e-08
6.71915851957e-08
5.7035333914e-08
6.9330844502e-08
9.09964811294e-08
1.00420874631e-07
1.22449464259e-07
1.24655983869e-07
1.35724948904e-07
1.22815724717e-07
1.14801026074e-07
9.00957474031e-08
6.86881846407e-08
5.26606939829e-08
3.36943656813e-08
2.67140175875e-08
1.92099475791e-09
2.06071005616e-08
5.44931145183e-10
1.89289133448e-08
8.7587341997e-09
2.7187770147e-08
1.53203537695e-08
4.30955952511e-08
1.90073131012e-08
3.68772583081e-08
9.37219313835e-09
2.77119656629e-08
7.20067834394e-09
2.10608811557e-08
1.26644113374e-09
9.86178311347e-09
7.1196587356e-09
6.97292432931e-09
1.3555742248e-08
5.57943975006e-09
1.36537257273e-09
4.49940422043e-09
3.44195479876e-11
2.90407024093e-09
2.43260768685e-09
2.01767700507e-08
1.20464642612e-09
1.35317722467e-08
9.31775966282e-09
1.19830684279e-08
4.22440402974e-08
5.70209848555e-09
8.10992909926e-09
8.15889754012e-09
1.53347348504e-08
5.09756103137e-09
1.48569432452e-08
2.18848751157e-11
1.08447147564e-09
4.99764198684e-08
4.54532830062e-08
1.21295123823e-08
8.40878598441e-09
1.39664620913e-08
4.83068609826e-08
8.35701758483e-08
3.52423600879e-08
2.74619792461e-08
1.88291258589e-08
2.59856914582e-08
8.55529888716e-09
2.80122772655e-09
6.84642269388e-09
9.71630399757e-10
8.83814605305e-09
1.0788316986e-08
6.48305764752e-08
4.80819875419e-08
8.78777899347e-08
5.59710570374e-08
1.74060189547e-07
4.03535706405e-08
8.51104645046e-06
1.5262874738e-05
5.71635708503e-06
2.96871471283e-06
4.00543077591e-06
7.65680548826e-08
1.93751710278e-07
1.43552503933e-05
1.15676795648e-05
1.9774575341e-05
4.63398070603e-08
2.64868517951e-08
7.46878191069e-09
3.76926134766e-08
5.93060693013e-08
2.44093841222e-09
1.80605688149e-08
1.43654533449e-08
1.30095656503e-08
3.08790244621e-08
8.26247696257e-08
1.0405460615e-09
2.46561089298e-11
2.57890821797e-09

