# vtk DataFile Version 3.0
File Name: Molecule/methanol/methanol_5.0-2.vtk
ASCII
DATASET UNSTRUCTURED_GRID
FIELD FieldData 1
TIME 1 1 double
0.0
POINTS 289 double
1.345 -0.911 -0.332
1.032 -1.273 -0.301
1.16 -0.83 -0.909
0.876 -1.16 -0.88
0.631 -1.532 -0.261
0.173 -1.667 -0.216
0.51 -1.396 -0.844
0.093 -1.519 -0.802
-0.304 -1.667 -0.168
-0.341 -1.519 -0.759
-0.762 -1.532 -0.123
-0.758 -1.396 -0.718
-1.163 -1.273 -0.083
-1.124 -1.16 -0.681
-1.475 -0.911 -0.051
-1.408 -0.83 -0.653
-1.674 -0.475 -0.032
-1.589 -0.432 -0.635
-1.742 -0.0 -0.025
-1.651 -0.0 -0.629
-1.674 0.475 -0.032
-1.589 0.432 -0.635
-1.475 0.911 -0.051
-1.408 0.83 -0.653
-1.163 1.273 -0.083
-1.124 1.16 -0.681
-0.762 1.532 -0.123
-0.758 1.396 -0.718
-0.304 1.667 -0.168
-0.341 1.519 -0.759
0.173 1.667 -0.216
0.093 1.519 -0.802
0.631 1.532 -0.261
0.51 1.396 -0.844
1.032 1.273 -0.301
0.876 1.16 -0.88
1.345 0.911 -0.332
1.16 0.83 -0.909
1.543 0.475 -0.352
1.341 0.432 -0.927
1.907 0.0 0.656
1.852 0.452 0.656
1.852 0.226 1.047
1.852 -0.226 1.047
1.852 -0.452 0.656
1.852 -0.226 0.264
1.852 0.226 0.264
1.69 0.76 1.094
1.69 0.439 1.415
1.69 -0.0 1.533
1.69 -0.439 1.415
1.69 -0.76 1.094
1.69 -0.877 0.656
1.69 -0.76 0.217
1.69 -0.439 -0.104
1.69 0.439 -0.104
1.69 0.76 0.217
1.69 0.877 0.656
1.432 1.167 1.108
1.432 0.925 1.499
1.432 0.558 1.776
1.432 0.115 1.902
1.432 -0.343 1.859
1.432 -0.754 1.654
1.432 -1.064 1.315
1.432 -1.23 0.886
1.432 -1.23 0.426
1.432 -1.064 -0.003
1.432 1.167 0.203
1.432 1.252 0.656
1.091 1.484 1.113
1.091 1.283 1.531
1.091 0.969 1.87
1.091 0.568 2.102
1.091 0.116 2.205
1.091 -0.346 2.17
1.091 -0.777 2.001
1.091 -1.139 1.712
1.091 -1.4 1.33
1.091 -1.536 0.887
1.091 -1.536 0.424
1.091 -1.4 -0.018
1.091 1.484 0.198
1.091 1.553 0.656
0.688 1.705 1.112
0.688 1.528 1.538
0.688 1.248 1.904
0.688 0.882 2.184
0.688 0.457 2.36
0.688 0.0 2.42
0.688 -0.457 2.36
0.688 -0.882 2.184
0.688 -1.248 1.904
0.688 -1.528 1.538
0.688 -1.705 1.112
0.688 -1.765 0.656
0.688 -1.705 0.199
0.688 1.705 0.199
0.688 1.765 0.656
0.247 1.815 1.122
0.247 1.642 1.558
0.247 1.366 1.938
0.247 1.004 2.238
0.247 0.579 2.438
0.247 0.118 2.526
0.247 -0.351 2.496
0.247 -0.798 2.351
0.247 -1.194 2.099
0.247 -1.516 1.757
0.247 -1.742 1.345
0.247 -1.859 0.89
0.247 -1.859 0.421
0.247 1.815 0.19
0.247 1.874 0.656
-0.209 1.815 1.122
-0.209 1.642 1.558
-0.209 1.366 1.938
-0.209 1.004 2.238
-0.209 0.579 2.438
-0.209 0.118 2.526
-0.209 -0.351 2.496
-0.209 -0.798 2.351
-0.209 -1.194 2.099
-0.209 -1.516 1.757
-0.209 -1.742 1.345
-0.209 -1.859 0.89
-0.209 -1.859 0.421
-0.209 1.815 0.19
-0.209 1.874 0.656
-0.65 1.765 0.656
-0.65 1.705 1.112
-0.65 1.528 1.538
-0.65 1.248 1.904
-0.65 0.882 2.184
-0.65 0.457 2.36
-0.65 0.0 2.42
-0.65 -0.457 2.36
-0.65 -0.882 2.184
-0.65 -1.248 1.904
-0.65 -1.528 1.538
-0.65 -1.705 1.112
-0.65 -1.765 0.656
-0.65 -1.705 0.199
-0.65 1.705 0.199
-1.053 1.553 0.656
-1.053 1.484 1.113
-1.053 1.283 1.531
-1.053 0.969 1.87
-1.053 0.568 2.102
-1.053 0.116 2.205
-1.053 -0.346 2.17
-1.053 -0.777 2.001
-1.053 -1.139 1.712
-1.053 -1.4 1.33
-1.053 -1.536 0.887
-1.053 -1.536 0.424
-1.053 1.484 0.198
-1.394 1.252 0.656
-1.394 1.167 1.108
-1.394 0.925 1.499
-1.394 0.558 1.776
-1.394 0.115 1.902
-1.394 -0.343 1.859
-1.394 -0.754 1.654
-1.394 -1.064 1.315
-1.394 -1.23 0.886
-1.394 -1.23 0.426
-1.394 1.167 0.203
-1.652 0.877 0.656
-1.652 0.76 1.094
-1.652 0.439 1.415
-1.652 -0.0 1.533
-1.652 -0.439 1.415
-1.652 -0.76 1.094
-1.652 -0.877 0.656
-1.652 -0.76 0.217
-1.652 0.76 0.217
-1.814 0.452 0.656
-1.814 0.226 1.047
-1.814 -0.226 1.047
-1.814 -0.452 0.656
-1.814 0.226 0.264
-1.868 -0.0 0.656
-1.814 -0.226 0.264
1.611 0.0 -0.359
1.122 -0.451 -1.519
0.783 -0.878 -1.615
0.783 -0.475 -1.885
1.122 -0.0 -1.639
0.783 0.0 -1.979
0.783 0.475 -1.885
1.122 0.451 -1.519
0.783 0.878 -1.615
1.122 0.781 -1.188
0.783 1.147 -1.212
0.355 -0.989 -1.811
0.355 -0.586 -2.074
0.355 -0.121 -2.192
0.355 0.358 -2.152
0.355 0.798 -1.959
0.355 1.152 -1.634
0.355 1.381 -1.211
0.355 -1.284 -1.432
-0.12 -1.383 -1.403
-0.12 -1.125 -1.781
-0.12 -0.767 -2.067
-0.12 -0.342 -2.234
-0.12 0.115 -2.268
-0.12 0.561 -2.166
-0.12 0.957 -1.937
-0.12 1.268 -1.602
-0.12 1.467 -1.19
-0.594 -1.44 -0.977
-0.594 -1.284 -1.432
-0.594 -0.989 -1.811
-0.594 -0.586 -2.074
-0.594 -0.121 -2.192
-0.594 0.358 -2.152
-0.594 0.798 -1.959
-0.594 1.152 -1.634
-0.594 1.381 -1.211
-1.022 -1.147 -1.212
-1.022 -0.878 -1.615
-1.022 -0.475 -1.885
-1.022 0.0 -1.979
-1.022 0.475 -1.885
-1.022 0.878 -1.615
-1.022 1.147 -1.212
-1.362 -0.781 -1.188
-1.362 -0.451 -1.519
-1.362 -0.0 -1.639
-1.362 0.781 -1.188
1.341 -0.432 -0.927
1.122 -0.781 -1.188
-1.58 -0.237 -1.148
-1.58 0.237 -1.148
1.577 -0.2375 -0.3555
1.507 0.0 -0.646
1.473 -0.2375 -0.6425
1.543 -0.475 -0.352
1.403 0.0 -0.933
1.372 -0.216 -0.93
1.442 -0.4535 -0.6395
1.444 -0.693 -0.342
1.343 -0.6715 -0.6295
0.693 -1.278 -0.862
1.476 0.216 -0.643
1.372 0.216 -0.93
0.9525 -0.964 -1.2
0.9525 -0.8295 -1.4015
0.783 -1.0125 -1.4135
0.783 -1.147 -1.212
1.122 0.2255 -1.579
0.569 -1.081 -1.5235
0.569 -1.2155 -1.322
0.569 -0.0605 -2.0855
0.569 0.179 -2.0655
0.355 0.1185 -2.172
1.2315 0.4415 -1.223
1.2625 0.2255 -1.226
1.2625 0.0 -1.286
0.999 -0.9705 -1.034
0.8295 -1.1535 -1.046
0.6465 -1.2715 -1.028
0.4325 -1.34 -1.138
-1.733 -0.606 0.4365
-1.733 -0.493 0.2405
-1.814 -0.339 0.46
-1.841 -0.226 0.656
-1.841 -0.113 0.46
-1.814 0.0 0.264
-1.841 0.113 0.46
1.122 -0.2255 -1.579
-1.362 -0.2255 -1.579
-1.192 0.2375 -1.762
-1.192 0.463 -1.702
-1.362 0.2255 -1.579
-1.362 0.451 -1.519
-1.362 0.616 -1.3535
-1.471 -0.344 -1.3335
-1.471 -0.1185 -1.3935
-1.471 0.1185 -1.3935
-1.58 0.0 -1.148
-1.471 0.344 -1.3335
-1.471 0.509 -1.168
1.33275 0.0 -1.1095
1.19225 0.0 -1.4625
1.19225 -0.2255 -1.4025
1.2625 -0.2255 -1.226

CELLS 574 2296
3 0 1 2
3 2 1 3
3 1 4 3
3 4 5 6
3 6 5 7
3 5 8 7
3 7 8 9
3 8 10 9
3 9 10 11
3 10 12 11
3 11 12 13
3 12 14 13
3 13 14 15
3 14 16 15
3 15 16 17
3 16 18 17
3 17 18 19
3 18 20 19
3 19 20 21
3 20 22 21
3 21 22 23
3 22 24 23
3 23 24 25
3 24 26 25
3 25 26 27
3 26 28 27
3 27 28 29
3 28 30 29
3 29 30 31
3 30 32 31
3 31 32 33
3 32 34 33
3 33 34 35
3 34 36 35
3 35 36 37
3 36 38 37
3 37 38 39
3 40 41 42
3 40 42 43
3 40 43 44
3 40 44 45
3 40 45 46
3 40 46 41
3 42 41 47
3 42 47 48
3 42 48 49
3 43 42 49
3 43 49 50
3 43 50 51
3 44 43 51
3 44 51 52
3 44 52 53
3 45 44 53
3 45 53 54
3 46 55 56
3 41 46 56
3 41 56 57
3 41 57 47
3 47 57 58
3 47 58 59
3 48 47 59
3 48 59 60
3 48 60 61
3 49 48 61
3 49 61 62
3 50 49 62
3 50 62 63
3 51 50 63
3 51 63 64
3 51 64 65
3 52 51 65
3 52 65 66
3 53 52 66
3 53 66 67
3 57 56 68
3 57 68 69
3 57 69 58
3 58 69 70
3 58 70 71
3 59 58 71
3 59 71 72
3 60 59 72
3 60 72 73
3 61 60 73
3 61 73 74
3 61 74 75
3 62 61 75
3 62 75 76
3 63 62 76
3 63 76 77
3 64 63 77
3 64 77 78
3 65 64 78
3 65 78 79
3 65 79 80
3 66 65 80
3 66 80 81
3 67 66 81
3 69 68 82
3 69 82 83
3 69 83 70
3 70 83 84
3 70 84 85
3 71 70 85
3 71 85 86
3 72 71 86
3 72 86 87
3 73 72 87
3 73 87 88
3 74 73 88
3 74 88 89
3 75 74 89
3 75 89 90
3 76 75 90
3 76 90 91
3 76 91 92
3 77 76 92
3 77 92 93
3 78 77 93
3 78 93 94
3 79 78 94
3 79 94 95
3 80 79 95
3 80 95 96
3 81 80 96
3 83 82 97
3 83 97 98
3 83 98 84
3 84 98 99
3 84 99 100
3 85 84 100
3 85 100 101
3 86 85 101
3 86 101 102
3 87 86 102
3 87 102 103
3 88 87 103
3 88 103 104
3 89 88 104
3 89 104 105
3 90 89 105
3 90 105 106
3 91 90 106
3 91 106 107
3 92 91 107
3 92 107 108
3 93 92 108
3 93 108 109
3 94 93 109
3 94 109 110
3 95 94 110
3 95 110 111
3 96 95 111
3 98 97 112
3 98 112 113
3 98 113 99
3 99 113 114
3 99 114 115
3 100 99 115
3 100 115 116
3 101 100 116
3 101 116 117
3 102 101 117
3 102 117 118
3 103 102 118
3 103 118 119
3 104 103 119
3 104 119 120
3 105 104 120
3 105 120 121
3 106 105 121
3 106 121 122
3 107 106 122
3 107 122 123
3 108 107 123
3 108 123 124
3 109 108 124
3 109 124 125
3 110 109 125
3 110 125 126
3 111 110 126
3 113 112 127
3 113 127 128
3 113 128 114
3 114 128 129
3 114 129 130
3 115 114 130
3 115 130 131
3 116 115 131
3 116 131 132
3 117 116 132
3 117 132 133
3 118 117 133
3 118 133 134
3 119 118 134
3 119 134 135
3 120 119 135
3 120 135 136
3 121 120 136
3 121 136 137
3 122 121 137
3 122 137 138
3 123 122 138
3 123 138 139
3 124 123 139
3 124 139 140
3 125 124 140
3 125 140 141
3 126 125 141
3 126 141 142
3 129 127 143
3 128 127 129
3 130 129 144
3 130 144 145
3 131 130 145
3 131 145 146
3 132 131 146
3 132 146 147
3 133 132 147
3 133 147 148
3 134 133 148
3 134 148 149
3 135 134 149
3 135 149 150
3 136 135 150
3 136 150 151
3 137 136 151
3 138 137 151
3 138 151 152
3 139 138 152
3 139 152 153
3 140 139 153
3 140 153 154
3 141 140 154
3 141 154 155
3 142 141 155
3 144 143 156
3 129 143 144
3 145 144 157
3 145 157 158
3 146 145 158
3 146 158 159
3 147 146 159
3 147 159 160
3 148 147 160
3 148 160 161
3 149 148 161
3 150 149 161
3 150 161 162
3 151 150 162
3 151 162 163
3 152 151 163
3 152 163 164
3 153 152 164
3 153 164 165
3 154 153 165
3 154 165 166
3 155 154 166
3 157 156 167
3 144 156 157
3 158 157 168
3 158 168 169
3 159 158 169
3 159 169 170
3 160 159 170
3 161 160 170
3 161 170 171
3 162 161 171
3 162 171 172
3 163 162 172
3 163 172 173
3 164 163 173
3 165 164 173
3 165 173 174
3 166 165 174
3 166 174 175
3 168 167 176
3 157 167 168
3 169 168 177
3 169 177 178
3 170 169 178
3 171 170 178
3 171 178 179
3 172 171 179
3 173 172 179
3 173 179 180
3 174 173 180
3 177 176 181
3 168 176 177
3 178 177 182
3 179 178 182
3 181 176 20
3 181 20 18
3 183 18 16
3 175 16 14
3 175 14 166
3 166 14 12
3 166 12 155
3 155 12 10
3 155 10 142
3 142 10 8
3 142 8 126
3 126 8 5
3 126 5 111
3 111 5 96
3 96 5 4
3 96 4 81
3 81 4 1
3 81 1 67
3 67 1 0
3 67 0 54
3 67 54 53
3 54 184 45
3 45 184 46
3 46 184 55
3 55 184 38
3 55 38 36
3 55 36 56
3 56 36 68
3 68 36 34
3 68 34 82
3 82 34 32
3 82 32 97
3 97 32 112
3 112 32 30
3 112 30 127
3 127 30 28
3 127 28 143
3 143 28 26
3 143 26 156
3 156 26 24
3 156 24 167
3 167 24 22
3 167 22 176
3 176 22 20
3 185 186 187
3 188 187 189
3 188 189 190
3 191 190 192
3 193 191 192
3 193 192 194
3 187 186 195
3 187 195 196
3 187 196 197
3 190 198 199
3 192 190 199
3 192 199 200
3 194 192 200
3 194 200 201
3 202 203 204
3 195 202 204
3 195 204 205
3 196 195 205
3 196 205 206
3 197 196 206
3 197 206 207
3 198 207 208
3 199 198 208
3 199 208 209
3 200 199 209
3 200 209 210
3 201 200 210
3 201 210 211
3 203 212 213
3 204 203 213
3 204 213 214
3 205 204 214
3 205 214 215
3 206 205 215
3 206 215 216
3 207 206 216
3 207 216 217
3 208 207 217
3 208 217 218
3 209 208 218
3 209 218 219
3 210 209 219
3 210 219 220
3 211 210 220
3 213 212 221
3 213 221 222
3 214 213 222
3 214 222 223
3 215 214 223
3 216 215 223
3 216 223 224
3 217 216 224
3 217 224 225
3 218 217 225
3 218 225 226
3 219 218 226
3 219 226 227
3 220 219 227
3 222 221 228
3 222 228 229
3 223 222 229
3 224 223 230
3 227 226 231
3 231 21 23
3 231 23 25
3 231 25 227
3 227 25 27
3 227 27 220
3 220 27 29
3 220 29 211
3 211 29 31
3 211 31 201
3 201 31 33
3 201 33 194
3 194 33 35
3 194 35 193
3 193 35 37
3 193 37 39
3 185 232 233
3 233 232 2
3 202 7 203
3 203 7 9
3 203 9 212
3 212 9 11
3 212 11 221
3 221 11 13
3 221 13 228
3 228 13 15
3 228 15 17
3 228 17 234
3 234 17 19
3 235 19 21
3 184 236 237
3 236 238 237
3 236 239 238
3 237 238 240
3 240 238 241
3 238 242 241
3 238 239 242
3 241 242 232
3 239 243 242
3 243 244 242
3 243 0 244
3 242 244 232
3 232 244 2
3 244 0 2
3 6 245 4
3 3 245 4
3 184 246 38
3 38 246 39
3 39 246 247
3 246 237 247
3 246 184 237
3 247 237 240
3 0 243 54
3 54 243 239
3 239 236 54
3 54 236 184
3 233 248 249
3 248 250 249
3 248 251 250
3 249 250 186
3 233 249 185
3 185 249 186
3 191 252 190
3 252 188 190
3 186 250 253
3 250 254 253
3 250 251 254
3 253 254 202
3 186 253 195
3 253 202 195
3 197 255 187
3 189 255 187
3 189 255 256
3 255 257 256
3 255 197 257
3 256 257 198
3 189 256 190
3 190 256 198
3 198 257 207
3 257 197 207
3 39 258 193
3 193 258 191
3 191 258 259
3 258 247 259
3 258 39 247
3 259 247 240
3 191 259 252
3 259 260 252
3 185 241 232
3 3 261 2
3 233 261 2
3 233 261 248
3 261 262 248
3 261 3 262
3 248 262 251
3 251 262 263
3 262 245 263
3 262 3 245
3 263 245 6
3 251 263 254
3 263 264 254
3 263 6 264
3 254 264 202
3 202 264 7
3 264 6 7
3 180 265 174
3 175 265 174
3 175 265 266
3 265 267 266
3 265 180 267
3 266 267 183
3 182 268 179
3 180 268 179
3 183 267 269
3 267 268 269
3 267 180 268
3 269 268 182
3 181 270 271
3 270 269 271
3 270 183 269
3 271 269 182
3 181 271 177
3 177 271 182
3 183 270 18
3 181 270 18
3 175 266 16
3 183 266 16
3 188 272 187
3 272 185 187
3 229 273 223
3 223 273 230
3 230 274 224
3 225 274 224
3 225 274 275
3 274 276 275
3 274 230 276
3 275 276 277
3 225 275 226
3 226 275 277
3 277 278 226
3 226 278 231
3 234 279 228
3 229 279 228
3 230 273 280
3 273 279 280
3 273 229 279
3 280 279 234
3 230 280 281
3 280 282 281
3 280 234 282
3 281 282 235
3 277 276 283
3 276 281 283
3 276 230 281
3 283 281 235
3 231 278 284
3 278 283 284
3 278 277 283
3 284 283 235
3 231 284 21
3 284 235 21
3 235 282 19
3 234 282 19
3 240 285 259
3 259 285 260
3 260 286 252
3 252 286 188
3 188 286 272
3 286 287 272
3 286 260 287
3 272 287 185
3 260 285 287
3 285 288 287
3 285 240 288
3 287 288 185
3 185 288 241
3 240 288 241

CELL_TYPES 574
5
5
5
5
5
5
5
5
5
5
5
5
5
5
5
5
5
5
5
5
5
5
5
5
5
5
5
5
5
5
5
5
5
5
5
5
5
5
5
5
5
5
5
5
5
5
5
5
5
5
5
5
5
5
5
5
5
5
5
5
5
5
5
5
5
5
5
5
5
5
5
5
5
5
5
5
5
5
5
5
5
5
5
5
5
5
5
5
5
5
5
5
5
5
5
5
5
5
5
5
5
5
5
5
5
5
5
5
5
5
5
5
5
5
5
5
5
5
5
5
5
5
5
5
5
5
5
5
5
5
5
5
5
5
5
5
5
5
5
5
5
5
5
5
5
5
5
5
5
5
5
5
5
5
5
5
5
5
5
5
5
5
5
5
5
5
5
5
5
5
5
5
5
5
5
5
5
5
5
5
5
5
5
5
5
5
5
5
5
5
5
5
5
5
5
5
5
5
5
5
5
5
5
5
5
5
5
5
5
5
5
5
5
5
5
5
5
5
5
5
5
5
5
5
5
5
5
5
5
5
5
5
5
5
5
5
5
5
5
5
5
5
5
5
5
5
5
5
5
5
5
5
5
5
5
5
5
5
5
5
5
5
5
5
5
5
5
5
5
5
5
5
5
5
5
5
5
5
5
5
5
5
5
5
5
5
5
5
5
5
5
5
5
5
5
5
5
5
5
5
5
5
5
5
5
5
5
5
5
5
5
5
5
5
5
5
5
5
5
5
5
5
5
5
5
5
5
5
5
5
5
5
5
5
5
5
5
5
5
5
5
5
5
5
5
5
5
5
5
5
5
5
5
5
5
5
5
5
5
5
5
5
5
5
5
5
5
5
5
5
5
5
5
5
5
5
5
5
5
5
5
5
5
5
5
5
5
5
5
5
5
5
5
5
5
5
5
5
5
5
5
5
5
5
5
5
5
5
5
5
5
5
5
5
5
5
5
5
5
5
5
5
5
5
5
5
5
5
5
5
5
5
5
5
5
5
5
5
5
5
5
5
5
5
5
5
5
5
5
5
5
5
5
5
5
5
5
5
5
5
5
5
5
5
5
5
5
5
5
5
5
5
5
5
5
5
5
5
5
5
5
5
5
5
5
5
5
5
5
5
5
5
5
5
5
5
5
5
5
5
5
5
5
5
5
5
5
5
5
5
5
5
5
5
5
5
5
5
5
5
5
5
5
5
5
5
5
5
5
5
5
5
5
5
5
5
5
5
5
5
5
5
5
5
5
5
5
5
5
5
5
5
5
5
5
5
5
5
5
5
5
5
5
5
5
5
5
5
5
5
5
5
5
5

CELL_DATA 574
SCALARS cell_data_0 double
LOOKUP_TABLE default
2.01410247913e-06
3.28032760478e-06
2.45013687851e-06
1.67244648466e-06
2.19156001414e-06
1.30490815109e-06
1.64061098058e-06
1.02159894501e-06
1.1895095411e-06
7.43507456699e-07
8.27357581651e-07
5.27218993283e-07
5.38616990974e-07
3.22484980451e-07
2.49086854108e-07
1.02547248018e-07
6.93791340689e-08
1.218808324e-07
3.8658807804e-07
3.42242631e-07
6.96549344411e-07
5.88896645595e-07
1.04530364829e-06
8.37828735115e-07
1.39989313381e-06
1.04722942292e-06
1.62140925513e-06
1.04833885393e-06
1.32820458081e-06
5.35162933762e-07
9.40009029125e-07
1.36515838441e-06
7.44461053998e-06
4.76895046886e-06
2.8466451376e-06
3.58595983949e-07
8.88166679871e-07
1.77915083818e-08
2.68843126539e-09
1.81462893096e-08
3.32622724112e-08
5.10546972761e-08
1.2297078165e-08
2.1807507537e-08
1.48666487596e-08
4.27136641485e-08
4.14850618836e-08
7.61360197381e-08
5.22167540758e-08
5.31105562458e-09
4.91242615874e-09
3.34846159289e-08
7.80811043655e-08
1.21999231418e-07
1.06019261735e-07
2.99968601199e-08
5.50686068487e-09
1.19997741854e-08
1.25499251842e-08
5.51721550903e-09
5.73324799545e-10
1.228782368e-08
2.85082684246e-08
1.68221495575e-08
8.15332766187e-09
6.94588041375e-08
2.55411391408e-08
4.09858376854e-08
1.31485005983e-08
1.13819747582e-08
1.98567675415e-09
7.62154094591e-09
2.20725834294e-08
2.08764179534e-08
1.01180538777e-08
4.65772516414e-08
4.13936186742e-08
8.09443852802e-08
6.54043415805e-08
2.38230299095e-08
5.57278077812e-09
2.82342545605e-08
4.38591778806e-08
5.88543058132e-08
7.27733637478e-08
7.96905623307e-08
5.00165625977e-08
4.51406822692e-08
3.37656957482e-08
4.44732463751e-08
4.54347302809e-08
4.80736048499e-08
3.8469583668e-08
3.92668010163e-08
6.00145247383e-09
1.17096107315e-08
7.41819749211e-08
5.68554796456e-08
1.08890608854e-07
1.39328568177e-07
1.21669671777e-07
1.53817934142e-07
1.25428562518e-07
8.74102389698e-08
5.74889904826e-08
2.12438001743e-08
4.39707065626e-09
3.88049456369e-08
5.89272281014e-08
8.56854339775e-08
1.00710962904e-07
1.05095829083e-07
1.08750836924e-07
7.62623696869e-08
7.3252578571e-08
5.09636310734e-08
5.01103203403e-08
6.79098089116e-08
6.38467131174e-08
5.83209002833e-08
4.49720697084e-08
3.74248246316e-09
3.86012827325e-08
1.26574352465e-07
1.58987384221e-07
2.14310784984e-07
2.33936011265e-07
1.95575142766e-07
2.13311814102e-07
1.73611668569e-07
1.32639386013e-07
9.34635183404e-08
5.99718247533e-08
2.21835258299e-08
5.3330372032e-09
4.207259136e-08
6.38504066649e-08
9.85249676075e-08
1.13218722622e-07
1.35658113475e-07
1.3006572777e-07
1.32702631067e-07
1.09105515067e-07
7.21327290444e-08
4.6582184604e-08
6.30762406007e-08
8.17580770669e-08
8.56805315403e-08
6.80173491226e-08
2.37709519596e-08
2.89909849155e-08
1.30611923049e-07
1.9193206315e-07
3.10670206824e-07
3.21685254524e-07
2.65610196056e-07
2.67039091835e-07
2.04801951152e-07
1.67279499905e-07
1.11735698939e-07
8.16481864103e-08
3.03778929106e-08
6.02267771089e-09
4.26580577699e-08
6.22699815361e-08
1.06379825896e-07
1.20967620524e-07
1.51074817571e-07
1.50120582013e-07
1.4767370107e-07
1.38312761071e-07
6.60129472835e-08
2.57436564773e-08
2.53940015643e-08
8.13950610432e-08
9.25887221161e-08
9.17504325069e-08
6.50964594705e-08
7.49777235483e-09
8.69165042987e-08
1.75262388615e-07
3.79068717684e-07
3.70597334608e-07
3.15679348337e-07
3.2740677398e-07
2.80934899954e-07
2.1286105676e-07
1.78933951025e-07
1.1835145892e-07
9.19954983157e-08
3.68079976931e-08
1.64098234648e-08
3.66422412282e-08
5.2044537985e-08
1.00669541421e-07
1.11065118455e-07
1.45107488035e-07
1.4856513757e-07
1.53818357247e-07
1.29366098323e-07
4.79744167648e-08
3.39950871847e-08
1.34185550998e-08
3.9285097298e-08
2.89468035609e-08
1.61210180888e-08
5.90746767022e-08
1.51492496854e-08
8.57420091418e-08
1.96747240462e-07
4.06993824864e-07
3.88911585949e-07
3.22499859596e-07
2.81916926274e-07
2.05824062943e-07
1.68541751748e-07
1.12050351635e-07
7.17694308131e-08
3.0793032028e-08
1.46571907737e-08
4.18004074574e-08
8.87018580105e-08
1.04002927565e-07
1.34623440874e-07
1.39337814109e-07
1.24351612581e-07
1.07876686131e-07
5.48773221765e-09
1.21027647542e-07
1.8580439805e-07
1.00452474807e-07
7.50122305517e-09
4.88542852853e-08
1.01802432138e-08
1.05132364212e-07
2.0626939949e-07
4.3554718136e-07
3.94702092977e-07
3.10897819834e-07
2.47064335713e-07
1.69359574752e-07
1.07320049241e-07
5.6454949375e-08
1.15519788663e-08
4.01529745955e-08
9.51440201207e-08
1.09409144344e-07
1.27816489374e-07
8.7064225981e-08
6.06103504422e-08
1.06359420962e-07
1.87824221479e-07
1.6573407736e-07
2.49994219989e-08
4.77565192638e-08
2.57422276699e-08
8.55959517925e-08
1.67047823045e-07
4.17692409627e-07
3.95005048243e-07
2.30988065247e-07
1.15441600447e-07
5.86037293611e-08
2.87917299005e-08
4.90632977139e-08
8.16849284248e-08
3.13858652243e-08
4.82742128877e-08
2.56253563229e-07
2.40269739245e-07
1.98058437015e-07
5.25187638057e-08
3.34573032706e-08
2.71657260478e-09
1.01083834483e-07
1.75497950686e-07
2.04635929301e-07
3.12463460019e-07
3.72666205118e-08
2.36767172247e-08
2.95342752198e-08
5.64817209908e-08
1.58376009418e-07
2.94801109811e-07
1.45108445808e-07
1.61138503788e-07
2.4887536707e-07
2.18916957564e-07
3.77887131867e-08
8.04434218105e-07
7.33207189957e-07
6.08049785007e-08
9.81532411604e-08
5.36671971411e-06
4.76149158517e-08
4.20598019355e-08
6.36795330012e-08
1.12012249385e-07
1.32260978992e-07
9.12970136836e-08
7.82024358792e-08
1.36673885939e-07
2.91976714849e-07
1.82711664676e-07
2.18499086517e-07
2.93469463215e-07
1.37045782338e-07
3.30468524081e-07
1.53783219547e-07
4.66832442432e-07
1.82078379977e-08
1.02699228651e-07
1.5750394122e-07
1.58120243601e-07
1.56036840145e-07
1.38571269979e-07
1.18689461027e-07
1.23940888452e-07
9.44699144688e-09
1.74319420058e-07
2.18034591734e-07
2.2779503743e-07
2.60281501479e-07
3.23908086193e-07
9.99312145975e-08
2.02169288923e-07
6.91930568217e-08
1.18220359729e-07
1.34916046582e-07
7.80243101641e-08
1.40824010217e-07
4.61873759211e-08
1.2791073305e-07
1.58362493234e-08
1.05013815162e-07
7.15517795108e-07
9.31327113928e-07
1.71170791606e-06
6.03061544861e-07
8.29685204398e-07
1.01283381527e-07
1.27583364613e-06
1.55559197919e-06
2.58484863951e-06
2.07077139694e-06
1.21167986068e-06
1.3078497253e-06
8.42758729051e-07
7.98200821747e-07
2.57247042366e-07
1.4157829414e-07
3.85634227262e-07
8.16649179347e-07
8.10460694527e-07
1.88401303771e-06
2.24539615796e-06
2.46631363307e-06
2.51239126372e-06
1.93005186983e-06
1.66470010382e-06
1.27920595324e-06
9.57717482169e-07
8.19586373098e-07
3.69469486951e-07
2.92935473085e-07
8.64435678088e-08
1.35716872952e-07
2.9008256411e-07
5.41394409905e-07
8.09605268607e-07
1.40309229007e-06
1.60307322191e-06
1.82491787021e-06
1.53390936403e-06
1.60271732882e-06
1.25053641882e-06
1.16515196326e-06
9.50317595408e-07
8.64740239882e-07
1.19896135379e-07
6.65638523371e-08
3.86856066934e-08
2.26758813614e-07
3.2412091496e-07
7.14407203175e-07
8.43656394764e-07
1.02375170496e-06
6.73552332645e-07
9.55928938314e-07
7.30255802814e-07
8.72498572049e-07
5.04166728952e-06
4.89657881102e-06
6.93835880762e-07
7.47312909959e-07
3.19775936716e-07
4.09241250107e-07
1.12632066497e-05
1.04475820905e-06
1.05974688615e-06
1.36797510198e-05
4.85771162977e-06
5.30474236757e-06
1.06487979602e-06
2.56188962977e-07
9.23691937343e-07
3.08280943699e-07
1.13738580865e-07
2.70115609762e-07
3.22227079043e-06
1.58389681948e-06
9.35704031715e-07
7.00675940787e-07
1.81028541175e-06
5.07027763239e-07
3.32125292983e-07
1.06083841149e-06
8.70960422782e-08
4.22858040179e-07
2.02245358762e-07
5.82778274749e-07
6.25081957779e-07
4.10646540771e-07
3.4497688347e-07
6.28998542335e-06
1.01998430972e-06
1.96331469726e-06
3.41763151606e-06
3.39916090471e-06
1.22982289774e-06
1.96207144437e-07
2.04903900225e-07
3.00295685506e-07
8.16461243566e-08
1.38507840534e-07
5.63287821325e-08
7.62126786378e-08
1.60149086628e-07
9.58143281312e-08
1.17789901918e-07
1.7649006456e-07
3.13899094889e-06
2.94407514855e-06
3.05504481648e-07
6.84391744788e-07
8.84759111605e-07
2.46006613968e-07
6.48887106739e-07
1.15548274504e-06
1.89795934018e-07
4.44985660417e-08
1.25421946719e-06
9.24293696328e-07
1.49511953638e-06
1.95791334269e-06
3.71939970562e-06
1.8723794601e-06
1.62944399968e-06
4.84235180718e-07
2.17503755309e-06
1.29732602985e-06
2.45875667872e-06
3.52513723371e-06
5.13790703339e-06
6.60006737248e-08
2.73065427197e-07
1.43506359904e-07
6.07738455173e-07
5.70673976486e-08
7.04652580768e-08
1.84479019662e-06
1.72501250612e-06
1.44040278103e-06
3.34665027778e-07
7.10517526224e-07
3.28332255825e-06
3.22488473165e-06
1.69639667893e-07
3.18294934859e-06
5.54480175477e-06
1.6613364857e-06
1.31899517898e-06
3.05011238533e-06
3.66958404801e-06
8.81930422359e-06
2.33745805046e-06
5.91088887398e-07
1.28930477485e-06
1.33940620155e-06
3.19325779269e-08
2.74038689214e-07
1.52671493759e-07
1.40310728326e-07
9.00991238724e-07
7.836456746e-07
8.57956594614e-07
5.32873518088e-07
8.89127839426e-08
2.92456625823e-07
9.82833003942e-08
2.86207442895e-07
8.8755685716e-07
1.04537427229e-07
2.28251875417e-08
2.97380701043e-09
9.06397975769e-10
4.80548491553e-08
2.35329489774e-06
3.776347508e-07
6.02534312582e-08
1.69559997407e-06
5.00293237955e-09
4.48999968289e-08
2.16275945439e-07
3.17906770739e-06
2.49412846146e-06
1.69922386493e-06
3.49931540672e-06
5.90389001694e-06
6.87588253363e-06
2.57629945175e-06
1.75297569264e-08
1.43009335404e-08
2.96909376667e-06
1.3708525697e-06
7.59899874593e-07
2.05949647115e-07
1.3004967098e-07
9.39974180696e-08
1.8607619834e-07
3.65466126335e-08
3.63311854357e-08
1.23969227244e-08
3.28142762581e-07
2.16688046653e-07
6.47923325765e-07
7.23801506377e-07
1.73271064604e-07
2.35796241248e-06
4.01953580712e-07
3.27692475583e-08
1.41738840753e-08
2.69521236404e-08
1.31921690094e-07
1.29172357889e-08
3.12647964387e-09
1.8257016543e-07
4.1230204858e-07
3.2364488848e-07
3.34297571531e-08
8.23527247991e-09
3.60719551058e-07
1.22736646405e-07
1.06030033501e-08
3.46573522345e-07
3.60220992547e-07
5.986236863e-07
1.28915496586e-06
9.00493503198e-07
4.36128338696e-07
1.52874308276e-06
3.29527715849e-06
3.82650366713e-06
2.8670030603e-06
3.0317451872e-06
4.17319107247e-06
4.31950689546e-06
2.58416742432e-06
4.22838998335e-06
3.74010822736e-07
2.03268618096e-06
5.10328787464e-07
3.79555310268e-06
3.50929334752e-06

