# vtk DataFile Version 3.0
File Name: Molecule/methanol/methanol_3.0-2.vtk
ASCII
DATASET UNSTRUCTURED_GRID
FIELD FieldData 1
TIME 1 1 double
0.0
POINTS 199 double
0.956 -1.085 -0.888
0.576 -1.556 -0.256
0.46 -1.418 -0.839
-0.065 -1.684 -0.192
-0.124 -1.534 -0.781
-0.707 -1.556 -0.128
-0.708 -1.418 -0.723
-1.251 -1.191 -0.074
-1.204 -1.085 -0.673
-1.614 -0.645 -0.038
-1.535 -0.587 -0.64
-1.742 0.0 -0.025
-1.651 0.0 -0.629
-1.614 0.645 -0.038
-1.535 0.587 -0.64
-1.251 1.191 -0.074
-0.707 1.556 -0.128
-1.204 1.085 -0.673
-0.708 1.418 -0.723
-0.065 1.684 -0.192
-0.124 1.534 -0.781
0.576 1.556 -0.256
1.12 1.191 -0.31
1.483 0.645 -0.346
0.956 1.085 -0.888
1.287 0.587 -0.921
1.611 0.0 -0.359
1.403 0.0 -0.933
1.907 0.0 0.656
1.814 0.583 0.656
1.814 0.292 1.161
1.814 -0.292 1.161
1.814 -0.583 0.656
1.814 -0.292 0.15
1.814 0.292 0.15
1.546 0.933 1.255
1.546 0.461 1.665
1.546 -0.158 1.754
1.546 -0.727 1.494
1.546 -1.065 0.968
1.546 -1.065 0.343
1.546 0.933 0.056
1.546 1.109 0.656
1.128 1.411 1.24
1.128 1.08 1.735
1.128 0.584 2.066
1.128 -0.0 2.183
1.128 -0.584 2.066
1.128 -1.08 1.735
1.128 -1.411 1.24
1.128 -1.527 0.656
1.128 -1.411 0.071
1.128 1.411 0.071
1.128 1.527 0.656
0.602 1.698 1.238
0.602 1.417 1.758
0.602 0.982 2.158
0.602 0.441 2.396
0.602 -0.148 2.445
0.602 -0.721 2.3
0.602 -1.216 1.976
0.602 -1.579 1.51
0.602 -1.771 0.951
0.602 -1.771 0.36
0.602 1.698 0.073
0.602 1.795 0.656
0.019 1.795 1.239
0.019 1.527 1.765
0.019 1.109 2.183
0.019 0.583 2.451
0.019 -0.0 2.543
0.019 -0.583 2.451
0.019 -1.109 2.183
0.019 -1.527 1.765
0.019 -1.795 1.239
0.019 -1.888 0.656
0.019 1.888 0.656
-0.564 1.795 0.656
-0.564 1.698 1.238
-0.564 1.417 1.758
-0.564 0.982 2.158
-0.564 0.441 2.396
-0.564 -0.148 2.445
-0.564 -0.721 2.3
-0.564 -1.216 1.976
-0.564 -1.579 1.51
-0.564 -1.771 0.951
-0.564 -1.771 0.36
-1.09 1.527 0.656
-1.09 1.411 1.24
-1.09 1.08 1.735
-1.09 0.584 2.066
-1.09 -0.0 2.183
-1.09 -0.584 2.066
-1.09 -1.08 1.735
-1.09 -1.411 1.24
-1.09 -1.527 0.656
-1.508 1.109 0.656
-1.508 0.933 1.255
-1.508 0.461 1.665
-1.508 -0.158 1.754
-1.508 -0.727 1.494
-1.508 -1.065 0.968
-1.508 -1.065 0.343
-1.776 0.583 0.656
-1.776 0.292 1.161
-1.776 -0.292 1.161
-1.776 -0.583 0.656
-1.868 -0.0 0.656
1.12 -1.191 -0.31
0.966 0.913 -1.324
0.966 0.451 -1.725
0.468 0.884 -1.846
0.468 1.278 -1.353
0.468 -1.278 -1.353
-0.12 -1.418 -1.325
-0.12 -1.085 -1.823
0.468 -0.884 -1.846
-0.12 -0.587 -2.155
0.468 -0.316 -2.12
-0.12 0.0 -2.272
0.468 0.316 -2.12
-0.12 0.587 -2.155
-0.12 1.085 -1.823
-0.12 1.418 -1.325
-0.707 -1.278 -1.353
-0.707 -0.884 -1.846
-0.707 -0.316 -2.12
-0.707 0.316 -2.12
-0.707 0.884 -1.846
-0.707 1.278 -1.353
-1.205 -0.154 -1.812
-1.205 0.451 -1.725
0.46 1.418 -0.839
1.298 0.294 -1.246
-1.205 -1.041 -1.043
-1.538 -0.294 -1.246
-1.538 0.294 -1.246
1.483 -0.645 -0.346
1.443 -0.3225 -0.6395
1.345 -0.2935 -0.927
1.385 -0.616 -0.6335
1.287 -0.587 -0.921
1.3015 -0.918 -0.328
1.2035 -0.889 -0.6155
1.1215 -0.836 -0.9045
1.038 -1.138 -0.599
1.68 -0.6785 0.2465
1.333 -1.128 0.0165
1.5145 -0.855 -0.0015
1.6485 -0.4685 -0.098
1.298 -0.294 -1.246
1.132 -0.5025 -1.4015
1.132 -0.224 -1.529
0.966 -0.4325 -1.6845
0.966 -0.711 -1.557
0.966 -0.154 -1.812
1.298 0.0 -1.246
1.132 0.07 -1.529
1.132 0.3725 -1.4855
0.966 0.1485 -1.7685
0.717 -0.9945 -1.455
0.717 -0.5135 -1.8385
0.717 -0.235 -1.966
0.717 0.081 -1.966
0.468 0.0 -2.12
0.717 0.3835 -1.9225
1.3505 0.147 -1.0895
1.3505 -0.147 -1.0895
1.2925 -0.4405 -1.0835
1.1265 -0.649 -1.239
0.961 -0.898 -1.2225
0.712 -1.1815 -1.1205
-1.3695 0.836 -0.6565
0.518 1.487 -0.5475
0.848 1.3735 -0.283
0.79 1.3045 -0.5745
-0.707 -1.081 -1.5995
-0.707 -0.6 -1.983
-0.956 -1.1595 -1.198
-0.956 -0.9945 -1.455
-1.205 -0.876 -1.3
-1.205 -0.711 -1.557
-0.956 -0.7975 -1.7015
-0.956 -0.5135 -1.8385
-0.956 -0.235 -1.966
-1.205 -0.4325 -1.6845
-0.956 0.6675 -1.7855
-0.956 0.8985 -1.585
-1.205 0.682 -1.5245
-1.205 0.913 -1.324
-1.3715 -0.5025 -1.4015
-1.3715 -0.6675 -1.1445
-1.3715 -0.224 -1.529
-1.3715 0.3725 -1.4855
-1.3715 0.6035 -1.285
-1.37 0.75 -0.982
-1.5365 0.4405 -0.943
-1.2045 0.999 -0.9985

CELLS 394 1576
3 0 1 2
3 1 3 2
3 2 3 4
3 3 5 4
3 4 5 6
3 5 7 6
3 6 7 8
3 7 9 8
3 8 9 10
3 9 11 10
3 10 11 12
3 11 13 12
3 12 13 14
3 13 15 14
3 15 16 17
3 17 16 18
3 16 19 18
3 18 19 20
3 19 21 20
3 22 23 24
3 24 23 25
3 23 26 25
3 25 26 27
3 28 29 30
3 28 30 31
3 28 31 32
3 28 32 33
3 28 33 34
3 28 34 29
3 30 29 35
3 30 35 36
3 30 36 37
3 31 30 37
3 31 37 38
3 31 38 39
3 32 31 39
3 32 39 40
3 29 34 41
3 29 41 42
3 29 42 35
3 35 42 43
3 35 43 44
3 36 35 44
3 36 44 45
3 36 45 46
3 37 36 46
3 37 46 47
3 38 37 47
3 38 47 48
3 38 48 49
3 39 38 49
3 39 49 50
3 40 39 50
3 40 50 51
3 42 41 52
3 42 52 53
3 42 53 43
3 43 53 54
3 43 54 55
3 44 43 55
3 44 55 56
3 45 44 56
3 45 56 57
3 46 45 57
3 46 57 58
3 47 46 58
3 47 58 59
3 47 59 60
3 48 47 60
3 48 60 61
3 49 48 61
3 49 61 62
3 50 49 62
3 50 62 63
3 51 50 63
3 53 52 64
3 53 64 65
3 53 65 54
3 54 65 66
3 54 66 67
3 55 54 67
3 55 67 68
3 56 55 68
3 56 68 69
3 57 56 69
3 57 69 70
3 58 57 70
3 58 70 71
3 59 58 71
3 59 71 72
3 60 59 72
3 60 72 73
3 61 60 73
3 61 73 74
3 62 61 74
3 62 74 75
3 63 62 75
3 65 76 66
3 66 76 77
3 66 77 78
3 67 66 78
3 67 78 79
3 68 67 79
3 68 79 80
3 69 68 80
3 69 80 81
3 70 69 81
3 70 81 82
3 71 70 82
3 71 82 83
3 72 71 83
3 72 83 84
3 73 72 84
3 73 84 85
3 74 73 85
3 74 85 86
3 75 74 86
3 75 86 87
3 78 77 88
3 78 88 89
3 79 78 89
3 79 89 90
3 80 79 90
3 80 90 91
3 81 80 91
3 81 91 92
3 82 81 92
3 82 92 93
3 83 82 93
3 84 83 93
3 84 93 94
3 85 84 94
3 85 94 95
3 86 85 95
3 86 95 96
3 87 86 96
3 89 88 97
3 89 97 98
3 90 89 98
3 90 98 99
3 91 90 99
3 92 91 99
3 92 99 100
3 93 92 100
3 93 100 101
3 94 93 101
3 95 94 101
3 95 101 102
3 96 95 102
3 96 102 103
3 98 97 104
3 98 104 105
3 99 98 105
3 100 99 105
3 100 105 106
3 101 100 106
3 102 101 106
3 102 106 107
3 103 102 107
3 105 104 108
3 106 105 108
3 107 106 108
3 107 108 11
3 107 11 9
3 107 9 103
3 103 9 7
3 103 7 96
3 96 7 5
3 96 5 87
3 87 5 3
3 87 3 75
3 75 3 63
3 63 3 1
3 63 1 51
3 51 1 109
3 33 26 34
3 34 26 23
3 34 23 41
3 41 23 22
3 41 22 52
3 52 21 64
3 64 21 19
3 64 19 76
3 64 76 65
3 76 19 77
3 77 19 16
3 77 16 88
3 88 16 15
3 88 15 97
3 97 15 13
3 97 13 104
3 104 13 11
3 104 11 108
3 110 111 112
3 110 112 113
3 114 115 116
3 117 114 116
3 117 116 118
3 119 117 118
3 119 118 120
3 121 120 122
3 112 121 122
3 112 122 123
3 113 112 123
3 113 123 124
3 116 115 125
3 118 116 126
3 120 118 127
3 120 127 128
3 122 120 128
3 122 128 129
3 123 122 129
3 123 129 130
3 124 123 130
3 128 131 132
3 130 17 18
3 130 18 124
3 124 18 20
3 124 20 133
3 124 133 113
3 113 133 24
3 113 24 110
3 110 24 25
3 110 25 134
3 114 2 115
3 115 2 4
3 115 4 6
3 115 6 125
3 135 6 8
3 135 8 10
3 136 10 12
3 136 12 137
3 138 139 26
3 26 139 27
3 27 139 140
3 139 141 140
3 139 138 141
3 140 141 142
3 138 143 141
3 143 144 141
3 143 109 144
3 141 144 142
3 142 144 145
3 144 146 145
3 144 109 146
3 145 146 0
3 0 146 1
3 109 146 1
3 40 147 32
3 33 147 32
3 109 148 51
3 51 148 40
3 40 148 149
3 148 143 149
3 148 109 143
3 149 143 138
3 40 149 147
3 149 150 147
3 149 138 150
3 147 150 33
3 33 150 26
3 150 138 26
3 151 152 153
3 152 154 153
3 152 155 154
3 153 154 156
3 134 157 158
3 157 153 158
3 157 151 153
3 158 153 156
3 134 158 159
3 158 160 159
3 158 156 160
3 159 160 111
3 134 159 110
3 159 111 110
3 155 161 117
3 161 114 117
3 119 162 117
3 155 162 117
3 156 154 163
3 154 162 163
3 154 155 162
3 163 162 119
3 156 163 164
3 163 165 164
3 163 119 165
3 164 165 121
3 111 160 166
3 160 164 166
3 160 156 164
3 166 164 121
3 111 166 112
3 166 121 112
3 121 165 120
3 165 119 120
3 27 167 25
3 134 167 25
3 134 167 157
3 167 168 157
3 167 27 168
3 157 168 151
3 151 168 169
3 168 140 169
3 168 27 140
3 169 140 142
3 151 169 152
3 169 170 152
3 169 142 170
3 152 170 155
3 155 170 171
3 170 145 171
3 170 142 145
3 171 145 0
3 155 171 161
3 171 172 161
3 171 0 172
3 161 172 114
3 114 172 2
3 172 0 2
3 17 173 15
3 14 173 15
3 21 174 20
3 20 174 133
3 21 175 174
3 175 176 174
3 175 22 176
3 174 176 133
3 133 176 24
3 176 22 24
3 22 175 52
3 52 175 21
3 125 177 116
3 116 177 126
3 126 178 118
3 118 178 127
3 125 179 180
3 179 181 180
3 179 135 181
3 180 181 182
3 126 177 183
3 177 180 183
3 177 125 180
3 183 180 182
3 127 178 184
3 178 183 184
3 178 126 183
3 184 183 182
3 127 184 185
3 184 186 185
3 184 182 186
3 185 186 131
3 127 185 128
3 128 185 131
3 132 187 128
3 129 187 128
3 129 187 188
3 187 189 188
3 187 132 189
3 188 189 190
3 129 188 130
3 130 188 190
3 182 181 191
3 181 192 191
3 181 135 192
3 191 192 136
3 131 186 193
3 186 191 193
3 186 182 191
3 193 191 136
3 131 193 137
3 193 136 137
3 137 194 131
3 132 194 131
3 190 189 195
3 189 194 195
3 189 132 194
3 195 194 137
3 190 195 196
3 195 197 196
3 195 137 197
3 196 197 14
3 190 196 198
3 196 173 198
3 196 14 173
3 198 173 17
3 190 198 130
3 198 17 130
3 135 179 6
3 125 179 6
3 136 192 10
3 135 192 10
3 14 197 12
3 137 197 12

CELL_TYPES 394
5
5
5
5
5
5
5
5
5
5
5
5
5
5
5
5
5
5
5
5
5
5
5
5
5
5
5
5
5
5
5
5
5
5
5
5
5
5
5
5
5
5
5
5
5
5
5
5
5
5
5
5
5
5
5
5
5
5
5
5
5
5
5
5
5
5
5
5
5
5
5
5
5
5
5
5
5
5
5
5
5
5
5
5
5
5
5
5
5
5
5
5
5
5
5
5
5
5
5
5
5
5
5
5
5
5
5
5
5
5
5
5
5
5
5
5
5
5
5
5
5
5
5
5
5
5
5
5
5
5
5
5
5
5
5
5
5
5
5
5
5
5
5
5
5
5
5
5
5
5
5
5
5
5
5
5
5
5
5
5
5
5
5
5
5
5
5
5
5
5
5
5
5
5
5
5
5
5
5
5
5
5
5
5
5
5
5
5
5
5
5
5
5
5
5
5
5
5
5
5
5
5
5
5
5
5
5
5
5
5
5
5
5
5
5
5
5
5
5
5
5
5
5
5
5
5
5
5
5
5
5
5
5
5
5
5
5
5
5
5
5
5
5
5
5
5
5
5
5
5
5
5
5
5
5
5
5
5
5
5
5
5
5
5
5
5
5
5
5
5
5
5
5
5
5
5
5
5
5
5
5
5
5
5
5
5
5
5
5
5
5
5
5
5
5
5
5
5
5
5
5
5
5
5
5
5
5
5
5
5
5
5
5
5
5
5
5
5
5
5
5
5
5
5
5
5
5
5
5
5
5
5
5
5
5
5
5
5
5
5
5
5
5
5
5
5
5
5
5
5
5
5
5
5
5
5
5
5
5
5
5
5
5
5
5
5
5
5
5
5
5
5
5
5
5
5
5
5
5
5
5
5
5
5
5
5
5
5
5
5
5
5
5
5

CELL_DATA 394
SCALARS cell_data_0 double
LOOKUP_TABLE default
3.83833411195e-06
5.65123813665e-06
2.00088260949e-06
4.26091885206e-06
8.47851739651e-07
3.22877874992e-06
7.0158074626e-08
2.17871648185e-06
8.05718647044e-07
3.1064312627e-07
1.47059408904e-06
1.19847920657e-07
1.47927894511e-06
1.10256297914e-06
2.12425508152e-06
8.55012320746e-07
4.24885763165e-07
8.76820921042e-06
8.38668723259e-06
3.19793797591e-08
7.15208435785e-07
4.13306486586e-07
1.09985215141e-06
6.8894297251e-08
2.30380099928e-08
3.31157497193e-08
8.29449973842e-08
1.16995523837e-07
1.79697218363e-08
7.7780775166e-08
3.68994472969e-08
2.3718585452e-08
8.08592687845e-10
8.60052451626e-08
8.09122428633e-08
4.52755477384e-08
6.46435198144e-09
3.95887141612e-08
4.48735148423e-08
3.26013686268e-08
2.14278349575e-08
7.63353549123e-09
3.20368211131e-08
7.07047361047e-08
8.25486857546e-08
7.21167390309e-08
8.89762331214e-08
1.21737945034e-07
1.16605779124e-07
1.28140211317e-07
9.51697513457e-08
1.06309436316e-08
5.78028620967e-08
1.3976529554e-07
1.10187204915e-07
1.82940459539e-07
1.16616603636e-07
1.96344945287e-07
1.17386217803e-07
1.8205464512e-08
4.78491664788e-08
1.25222987686e-07
1.61946226633e-07
1.51103307275e-07
1.75419850864e-07
1.28936095472e-07
1.16266728235e-07
1.02277687806e-07
1.32029040024e-07
1.50591152971e-07
1.32048193426e-07
6.11435019518e-08
2.47199136755e-08
1.99176853309e-07
2.78718707414e-07
4.13091556338e-07
4.43484992411e-07
3.16957866024e-07
3.42842299806e-07
2.16652811292e-07
1.26432628298e-07
1.51228614254e-08
5.68759693352e-08
1.52477666578e-07
1.95086395613e-07
2.54256720919e-07
2.61112878808e-07
2.92140853195e-07
2.0576572525e-07
2.34284877242e-07
1.94745226922e-07
2.41288418256e-07
1.72713416139e-07
1.03088440401e-07
5.55496337775e-09
1.85385367333e-07
3.11738438137e-07
4.67626867739e-07
5.31212629053e-07
4.55032992322e-07
2.62409135433e-07
2.00149032372e-07
4.39945247811e-08
3.24280159897e-09
1.32075157784e-07
1.7177869523e-07
2.61580696292e-07
2.65331314029e-07
2.81765818446e-07
2.45272467147e-07
2.84941970154e-07
2.79328070315e-07
2.89581258741e-07
2.16633667513e-07
9.70323801967e-08
2.74356458989e-08
2.21522700366e-07
4.26233484685e-07
5.64408465077e-07
4.47855079781e-07
2.65940449294e-07
1.42684455088e-07
3.14616259948e-08
9.61741990118e-08
1.55099796681e-07
2.57888984346e-07
2.5699084002e-07
2.73181870951e-07
2.27918630127e-07
2.50823420243e-07
2.64153863701e-07
2.04373411742e-07
8.25133253211e-08
3.89986753048e-08
2.50615410541e-07
4.24151588316e-07
4.49823854548e-07
1.77593236511e-07
4.76242078796e-08
8.73640971142e-08
1.25737894232e-07
1.61672540628e-07
1.4121313222e-07
2.54104504492e-07
2.42511444762e-07
1.96484124882e-07
7.75335187729e-08
2.79623064514e-09
1.69129266653e-07
1.88973614579e-07
6.6409175284e-08
2.56803243569e-08
2.79819187243e-09
7.41448901164e-09
7.10485036038e-07
5.38481602997e-07
9.08489300262e-07
9.02351617411e-06
5.95722017767e-06
1.52996910288e-07
5.84801651613e-07
7.31258781372e-06
6.47721408217e-06
5.86502038621e-06
4.74329467633e-06
2.16195525119e-06
1.0354561914e-06
4.63514314433e-06
9.95852364881e-07
3.05313663414e-06
1.39789050421e-06
1.80643433815e-06
4.61051905887e-06
1.36731948167e-06
3.10005604008e-06
1.28068399056e-07
1.85020193327e-07
2.03206629147e-07
2.12913057072e-08
1.44070458081e-07
4.16413407072e-07
2.67120971685e-07
7.14528446632e-07
5.8457481787e-07
6.35661115883e-07
1.5410352389e-07
6.99008322908e-07
5.0431168372e-07
2.6479448286e-07
1.13881063865e-06
7.51726574638e-07
6.74124654373e-07
2.17598660033e-07
6.68977981039e-06
6.19625488659e-06
8.41236387901e-07
1.146446622e-06
3.07791793771e-06
2.00091130848e-06
1.96456472932e-06
4.25944946785e-06
5.03234965564e-06
3.99659199134e-06
4.46206820542e-06
3.93744183512e-06
2.04653894525e-06
1.40577167672e-07
1.78524280117e-05
2.01947627229e-05
2.87790782279e-06
2.21949734266e-06
2.88313515807e-06
2.5552424301e-06
3.26005265408e-06
2.10527415572e-05
2.3162276115e-06
8.75203955236e-07
4.97882269725e-06
2.11905369035e-05
7.95913755757e-06
8.76528424544e-06
2.33686262422e-06
8.82565229921e-07
3.96405416951e-06
5.29117114874e-07
9.48730675942e-07
3.47540365548e-08
2.92109985566e-07
6.09121070976e-07
7.14970896215e-07
3.11022414152e-06
2.98312437179e-06
6.78884135614e-07
1.24897786642e-07
1.04067748911e-07
3.0693280701e-07
1.50089602813e-07
4.69657368166e-07
3.32538122725e-07
4.75397466541e-08
4.61274311267e-07
1.24873926922e-07
9.76454763446e-08
3.34428913258e-06
2.80418262134e-06
2.72755319614e-06
5.92769143612e-06
5.80104077073e-06
4.96912952667e-06
4.72497325021e-06
7.94973712593e-06
1.01338675933e-05
1.46833792262e-05
1.41214636571e-05
6.62151817945e-06
1.17385324033e-06
8.12984826424e-06
1.01494716768e-05
2.16173870634e-06
4.67619452788e-06
2.70080430577e-07
4.98268859221e-07
3.70475189066e-06
8.47028204207e-06
1.93570920653e-06
2.60664055953e-06
8.99604280721e-06
8.06028819936e-06
7.99843685471e-06
5.88507500514e-06
4.17195188814e-06
5.13887952752e-06
3.61602080502e-06
1.28995334458e-06
3.23404437015e-06
1.97613068657e-06
1.03968316196e-06
8.33895683413e-07
5.11078753063e-07
9.14448196799e-07
7.76691935813e-07
5.41822476217e-06
3.27208944836e-06
6.36812032792e-08
1.15759533508e-08
4.01571574183e-06
4.1971946877e-06
4.06950218994e-06
7.45274855567e-08
1.53625390946e-06
1.0413685465e-06
2.68960868095e-06
3.1644226922e-06
4.72508553507e-06
8.13145367922e-06
9.9343907238e-06
3.07157851e-06
2.89972190182e-06
3.60062778949e-06
3.43489294533e-06
2.63853991114e-06
3.42913864739e-06
1.62017877903e-06
1.5521256038e-06
1.15440462964e-06
5.33337094e-08
1.60325155452e-06
1.30240103908e-06
2.7734063713e-08
1.10257516929e-07
3.76828385056e-06
1.7187475395e-06
5.18866579756e-07
1.5294193513e-06
1.54415514331e-06
8.76615278603e-07
2.24695624695e-06
5.87863253437e-07
1.19106021003e-07
7.27246624643e-07
1.42315372942e-06
1.42222293015e-06
3.01953873924e-06
1.33011018351e-05
1.86549290349e-07
1.33858234311e-06
1.20638395062e-06
2.46471447503e-06
4.74353059835e-06
6.54763834754e-07
5.03613039087e-07
3.55975325129e-07
8.72871200011e-07
2.27113548216e-07
1.98203206192e-07
9.95303949953e-06
9.1395591071e-08
7.05393769227e-08
5.32494902186e-07
2.98756311649e-07
2.86795851252e-07
1.31200887497e-07
2.745297415e-07
3.77867485861e-07
5.17625194856e-06
6.78635689366e-08
3.00592580141e-07
4.91355387604e-07
5.26453597951e-06
5.02614454939e-08
4.37426489869e-07
3.08738282631e-06
1.03065304314e-05
6.19061441848e-06
1.06453377159e-06
6.57760549613e-07
1.55374259556e-07
5.96232142393e-08
6.20310931121e-07
4.26425017847e-07
8.18634756064e-07
8.01049345565e-07
3.92173178825e-07
6.52886527792e-08
6.475629717e-07
7.36225971604e-07
2.78518994186e-06
6.70110425759e-08
3.92951117963e-07
6.58832114218e-07
9.72463055215e-06
1.50340526441e-06
9.31743563967e-06
9.81958673166e-06
3.46736274734e-07
3.16111004853e-08
5.6180400766e-07
6.18218425369e-07
1.83800139608e-07
7.09806571619e-08
9.01108493284e-07
5.34452041305e-07
1.28335021021e-07
7.5026156144e-07
8.46691683232e-07
8.34892415262e-07
7.12494573507e-07
8.81062923182e-07
8.28837441246e-07
1.99695623406e-08
1.89042716501e-06
1.52059707462e-06
1.00624101806e-06
1.56383661452e-06

