# vtk DataFile Version 3.0
File Name: Molecule/methanol/methanol_5.0-1.vtk
ASCII
DATASET UNSTRUCTURED_GRID
FIELD FieldData 1
TIME 1 1 double
0.0
POINTS 266 double
1.345 -0.911 -0.332
1.032 -1.273 -0.301
1.16 -0.83 -0.909
0.876 -1.16 -0.88
0.631 -1.532 -0.261
0.173 -1.667 -0.216
0.51 -1.396 -0.844
0.093 -1.519 -0.802
-0.304 -1.667 -0.168
-0.341 -1.519 -0.759
-0.762 -1.532 -0.123
-0.758 -1.396 -0.718
-1.163 -1.273 -0.083
-1.124 -1.16 -0.681
-1.475 -0.911 -0.051
-1.408 -0.83 -0.653
-1.674 -0.475 -0.032
-1.589 -0.432 -0.635
-1.742 -0.0 -0.025
-1.651 -0.0 -0.629
-1.674 0.475 -0.032
-1.589 0.432 -0.635
-1.475 0.911 -0.051
-1.408 0.83 -0.653
-1.163 1.273 -0.083
-1.124 1.16 -0.681
-0.762 1.532 -0.123
-0.758 1.396 -0.718
-0.304 1.667 -0.168
-0.341 1.519 -0.759
0.173 1.667 -0.216
0.093 1.519 -0.802
0.631 1.532 -0.261
0.51 1.396 -0.844
1.032 1.273 -0.301
0.876 1.16 -0.88
1.345 0.911 -0.332
1.16 0.83 -0.909
1.543 0.475 -0.352
1.341 0.432 -0.927
1.907 0.0 0.656
1.852 0.452 0.656
1.852 0.226 1.047
1.852 -0.226 1.047
1.852 -0.452 0.656
1.852 -0.226 0.264
1.852 0.226 0.264
1.69 0.76 1.094
1.69 0.439 1.415
1.69 -0.0 1.533
1.69 -0.439 1.415
1.69 -0.76 1.094
1.69 -0.877 0.656
1.69 -0.76 0.217
1.69 -0.439 -0.104
1.69 0.439 -0.104
1.69 0.76 0.217
1.69 0.877 0.656
1.432 1.167 1.108
1.432 0.925 1.499
1.432 0.558 1.776
1.432 0.115 1.902
1.432 -0.343 1.859
1.432 -0.754 1.654
1.432 -1.064 1.315
1.432 -1.23 0.886
1.432 -1.23 0.426
1.432 -1.064 -0.003
1.432 1.167 0.203
1.432 1.252 0.656
1.091 1.484 1.113
1.091 1.283 1.531
1.091 0.969 1.87
1.091 0.568 2.102
1.091 0.116 2.205
1.091 -0.346 2.17
1.091 -0.777 2.001
1.091 -1.139 1.712
1.091 -1.4 1.33
1.091 -1.536 0.887
1.091 -1.536 0.424
1.091 -1.4 -0.018
1.091 1.484 0.198
1.091 1.553 0.656
0.688 1.705 1.112
0.688 1.528 1.538
0.688 1.248 1.904
0.688 0.882 2.184
0.688 0.457 2.36
0.688 0.0 2.42
0.688 -0.457 2.36
0.688 -0.882 2.184
0.688 -1.248 1.904
0.688 -1.528 1.538
0.688 -1.705 1.112
0.688 -1.765 0.656
0.688 -1.705 0.199
0.688 1.705 0.199
0.688 1.765 0.656
0.247 1.815 1.122
0.247 1.642 1.558
0.247 1.366 1.938
0.247 1.004 2.238
0.247 0.579 2.438
0.247 0.118 2.526
0.247 -0.351 2.496
0.247 -0.798 2.351
0.247 -1.194 2.099
0.247 -1.516 1.757
0.247 -1.742 1.345
0.247 -1.859 0.89
0.247 -1.859 0.421
0.247 1.815 0.19
0.247 1.874 0.656
-0.209 1.815 1.122
-0.209 1.642 1.558
-0.209 1.366 1.938
-0.209 1.004 2.238
-0.209 0.579 2.438
-0.209 0.118 2.526
-0.209 -0.351 2.496
-0.209 -0.798 2.351
-0.209 -1.194 2.099
-0.209 -1.516 1.757
-0.209 -1.742 1.345
-0.209 -1.859 0.89
-0.209 -1.859 0.421
-0.209 1.815 0.19
-0.209 1.874 0.656
-0.65 1.765 0.656
-0.65 1.705 1.112
-0.65 1.528 1.538
-0.65 1.248 1.904
-0.65 0.882 2.184
-0.65 0.457 2.36
-0.65 0.0 2.42
-0.65 -0.457 2.36
-0.65 -0.882 2.184
-0.65 -1.248 1.904
-0.65 -1.528 1.538
-0.65 -1.705 1.112
-0.65 -1.765 0.656
-0.65 -1.705 0.199
-0.65 1.705 0.199
-1.053 1.553 0.656
-1.053 1.484 1.113
-1.053 1.283 1.531
-1.053 0.969 1.87
-1.053 0.568 2.102
-1.053 0.116 2.205
-1.053 -0.346 2.17
-1.053 -0.777 2.001
-1.053 -1.139 1.712
-1.053 -1.4 1.33
-1.053 -1.536 0.887
-1.053 -1.536 0.424
-1.053 1.484 0.198
-1.394 1.252 0.656
-1.394 1.167 1.108
-1.394 0.925 1.499
-1.394 0.558 1.776
-1.394 0.115 1.902
-1.394 -0.343 1.859
-1.394 -0.754 1.654
-1.394 -1.064 1.315
-1.394 -1.23 0.886
-1.394 -1.23 0.426
-1.394 1.167 0.203
-1.652 0.877 0.656
-1.652 0.76 1.094
-1.652 0.439 1.415
-1.652 -0.0 1.533
-1.652 -0.439 1.415
-1.652 -0.76 1.094
-1.652 -0.877 0.656
-1.652 -0.76 0.217
-1.652 0.76 0.217
-1.814 0.452 0.656
-1.814 0.226 1.047
-1.814 -0.226 1.047
-1.814 -0.452 0.656
-1.814 -0.226 0.264
-1.814 0.226 0.264
-1.868 -0.0 0.656
1.611 0.0 -0.359
1.122 -0.451 -1.519
0.783 -0.878 -1.615
0.783 -0.475 -1.885
1.122 -0.0 -1.639
0.783 0.0 -1.979
0.783 0.475 -1.885
1.122 0.451 -1.519
0.783 0.878 -1.615
1.122 0.781 -1.188
0.783 1.147 -1.212
0.355 -0.989 -1.811
0.355 -0.586 -2.074
0.355 -0.121 -2.192
0.355 0.358 -2.152
0.355 0.798 -1.959
0.355 1.152 -1.634
0.355 1.381 -1.211
0.355 -1.284 -1.432
-0.12 -1.383 -1.403
-0.12 -1.125 -1.781
-0.12 -0.767 -2.067
-0.12 -0.342 -2.234
-0.12 0.115 -2.268
-0.12 0.561 -2.166
-0.12 0.957 -1.937
-0.12 1.268 -1.602
-0.12 1.467 -1.19
-0.594 -1.44 -0.977
-0.594 -1.284 -1.432
-0.594 -0.989 -1.811
-0.594 -0.586 -2.074
-0.594 -0.121 -2.192
-0.594 0.358 -2.152
-0.594 0.798 -1.959
-0.594 1.152 -1.634
-0.594 1.381 -1.211
-1.022 -1.147 -1.212
-1.022 -0.878 -1.615
-1.022 -0.475 -1.885
-1.022 0.0 -1.979
-1.022 0.475 -1.885
-1.022 0.878 -1.615
-1.022 1.147 -1.212
-1.362 -0.781 -1.188
-1.362 -0.451 -1.519
-1.362 -0.0 -1.639
-1.362 0.451 -1.519
-1.362 0.781 -1.188
-1.58 -0.237 -1.148
-1.58 0.237 -1.148
1.341 -0.432 -0.927
1.122 -0.781 -1.188
1.577 -0.2375 -0.3555
1.507 0.0 -0.646
1.473 -0.2375 -0.6425
1.543 -0.475 -0.352
1.403 0.0 -0.933
1.372 -0.216 -0.93
1.442 -0.4535 -0.6395
1.444 -0.693 -0.342
1.343 -0.6715 -0.6295
0.693 -1.278 -0.862
1.476 0.216 -0.643
1.372 0.216 -0.93
0.9525 -0.964 -1.2
0.9525 -0.8295 -1.4015
0.783 -1.0125 -1.4135
0.783 -1.147 -1.212
1.122 0.2255 -1.579
0.569 -1.081 -1.5235
0.569 -1.2155 -1.322
0.569 -0.0605 -2.0855
0.569 0.179 -2.0655
0.355 0.1185 -2.172
1.2315 0.4415 -1.223
1.2625 0.2255 -1.226
1.2625 0.0 -1.286
0.999 -0.9705 -1.034
0.8295 -1.1535 -1.046
0.6465 -1.2715 -1.028
0.4325 -1.34 -1.138

CELLS 528 2112
3 0 1 2
3 2 1 3
3 1 4 3
3 4 5 6
3 6 5 7
3 5 8 7
3 7 8 9
3 8 10 9
3 9 10 11
3 10 12 11
3 11 12 13
3 12 14 13
3 13 14 15
3 14 16 15
3 15 16 17
3 16 18 17
3 17 18 19
3 18 20 19
3 19 20 21
3 20 22 21
3 21 22 23
3 22 24 23
3 23 24 25
3 24 26 25
3 25 26 27
3 26 28 27
3 27 28 29
3 28 30 29
3 29 30 31
3 30 32 31
3 31 32 33
3 32 34 33
3 33 34 35
3 34 36 35
3 35 36 37
3 36 38 37
3 37 38 39
3 40 41 42
3 40 42 43
3 40 43 44
3 40 44 45
3 40 45 46
3 40 46 41
3 42 41 47
3 42 47 48
3 42 48 49
3 43 42 49
3 43 49 50
3 43 50 51
3 44 43 51
3 44 51 52
3 44 52 53
3 45 44 53
3 45 53 54
3 46 55 56
3 41 46 56
3 41 56 57
3 41 57 47
3 47 57 58
3 47 58 59
3 48 47 59
3 48 59 60
3 48 60 61
3 49 48 61
3 49 61 62
3 50 49 62
3 50 62 63
3 51 50 63
3 51 63 64
3 51 64 65
3 52 51 65
3 52 65 66
3 53 52 66
3 53 66 67
3 57 56 68
3 57 68 69
3 57 69 58
3 58 69 70
3 58 70 71
3 59 58 71
3 59 71 72
3 60 59 72
3 60 72 73
3 61 60 73
3 61 73 74
3 61 74 75
3 62 61 75
3 62 75 76
3 63 62 76
3 63 76 77
3 64 63 77
3 64 77 78
3 65 64 78
3 65 78 79
3 65 79 80
3 66 65 80
3 66 80 81
3 67 66 81
3 69 68 82
3 69 82 83
3 69 83 70
3 70 83 84
3 70 84 85
3 71 70 85
3 71 85 86
3 72 71 86
3 72 86 87
3 73 72 87
3 73 87 88
3 74 73 88
3 74 88 89
3 75 74 89
3 75 89 90
3 76 75 90
3 76 90 91
3 76 91 92
3 77 76 92
3 77 92 93
3 78 77 93
3 78 93 94
3 79 78 94
3 79 94 95
3 80 79 95
3 80 95 96
3 81 80 96
3 83 82 97
3 83 97 98
3 83 98 84
3 84 98 99
3 84 99 100
3 85 84 100
3 85 100 101
3 86 85 101
3 86 101 102
3 87 86 102
3 87 102 103
3 88 87 103
3 88 103 104
3 89 88 104
3 89 104 105
3 90 89 105
3 90 105 106
3 91 90 106
3 91 106 107
3 92 91 107
3 92 107 108
3 93 92 108
3 93 108 109
3 94 93 109
3 94 109 110
3 95 94 110
3 95 110 111
3 96 95 111
3 98 97 112
3 98 112 113
3 98 113 99
3 99 113 114
3 99 114 115
3 100 99 115
3 100 115 116
3 101 100 116
3 101 116 117
3 102 101 117
3 102 117 118
3 103 102 118
3 103 118 119
3 104 103 119
3 104 119 120
3 105 104 120
3 105 120 121
3 106 105 121
3 106 121 122
3 107 106 122
3 107 122 123
3 108 107 123
3 108 123 124
3 109 108 124
3 109 124 125
3 110 109 125
3 110 125 126
3 111 110 126
3 113 112 127
3 113 127 128
3 113 128 114
3 114 128 129
3 114 129 130
3 115 114 130
3 115 130 131
3 116 115 131
3 116 131 132
3 117 116 132
3 117 132 133
3 118 117 133
3 118 133 134
3 119 118 134
3 119 134 135
3 120 119 135
3 120 135 136
3 121 120 136
3 121 136 137
3 122 121 137
3 122 137 138
3 123 122 138
3 123 138 139
3 124 123 139
3 124 139 140
3 125 124 140
3 125 140 141
3 126 125 141
3 126 141 142
3 129 127 143
3 128 127 129
3 130 129 144
3 130 144 145
3 131 130 145
3 131 145 146
3 132 131 146
3 132 146 147
3 133 132 147
3 133 147 148
3 134 133 148
3 134 148 149
3 135 134 149
3 135 149 150
3 136 135 150
3 136 150 151
3 137 136 151
3 138 137 151
3 138 151 152
3 139 138 152
3 139 152 153
3 140 139 153
3 140 153 154
3 141 140 154
3 141 154 155
3 142 141 155
3 144 143 156
3 129 143 144
3 145 144 157
3 145 157 158
3 146 145 158
3 146 158 159
3 147 146 159
3 147 159 160
3 148 147 160
3 148 160 161
3 149 148 161
3 150 149 161
3 150 161 162
3 151 150 162
3 151 162 163
3 152 151 163
3 152 163 164
3 153 152 164
3 153 164 165
3 154 153 165
3 154 165 166
3 155 154 166
3 157 156 167
3 144 156 157
3 158 157 168
3 158 168 169
3 159 158 169
3 159 169 170
3 160 159 170
3 161 160 170
3 161 170 171
3 162 161 171
3 162 171 172
3 163 162 172
3 163 172 173
3 164 163 173
3 165 164 173
3 165 173 174
3 166 165 174
3 166 174 175
3 168 167 176
3 157 167 168
3 169 168 177
3 169 177 178
3 170 169 178
3 171 170 178
3 171 178 179
3 172 171 179
3 173 172 179
3 173 179 180
3 174 173 180
3 175 174 180
3 175 180 181
3 177 176 182
3 168 176 177
3 178 177 183
3 179 178 183
3 180 179 183
3 181 180 183
3 182 181 183
3 177 182 183
3 182 176 20
3 182 20 18
3 182 18 181
3 181 18 16
3 181 16 175
3 175 16 14
3 175 14 166
3 166 14 12
3 166 12 155
3 155 12 10
3 155 10 142
3 142 10 8
3 142 8 126
3 126 8 5
3 126 5 111
3 111 5 96
3 96 5 4
3 96 4 81
3 81 4 1
3 81 1 67
3 67 1 0
3 67 0 54
3 67 54 53
3 54 184 45
3 45 184 46
3 46 184 55
3 55 184 38
3 55 38 36
3 55 36 56
3 56 36 68
3 68 36 34
3 68 34 82
3 82 34 32
3 82 32 97
3 97 32 112
3 112 32 30
3 112 30 127
3 127 30 28
3 127 28 143
3 143 28 26
3 143 26 156
3 156 26 24
3 156 24 167
3 167 24 22
3 167 22 176
3 176 22 20
3 185 186 187
3 188 185 187
3 188 187 189
3 188 189 190
3 191 190 192
3 193 191 192
3 193 192 194
3 187 186 195
3 187 195 196
3 187 196 197
3 190 198 199
3 192 190 199
3 192 199 200
3 194 192 200
3 194 200 201
3 202 203 204
3 195 202 204
3 195 204 205
3 196 195 205
3 196 205 206
3 197 196 206
3 197 206 207
3 198 207 208
3 199 198 208
3 199 208 209
3 200 199 209
3 200 209 210
3 201 200 210
3 201 210 211
3 203 212 213
3 204 203 213
3 204 213 214
3 205 204 214
3 205 214 215
3 206 205 215
3 206 215 216
3 207 206 216
3 207 216 217
3 208 207 217
3 208 217 218
3 209 208 218
3 209 218 219
3 210 209 219
3 210 219 220
3 211 210 220
3 213 212 221
3 213 221 222
3 214 213 222
3 214 222 223
3 215 214 223
3 216 215 223
3 216 223 224
3 217 216 224
3 217 224 225
3 218 217 225
3 218 225 226
3 219 218 226
3 219 226 227
3 220 219 227
3 222 221 228
3 222 228 229
3 223 222 229
3 223 229 230
3 224 223 230
3 225 224 230
3 225 230 231
3 226 225 231
3 226 231 232
3 227 226 232
3 229 228 233
3 230 229 233
3 230 233 234
3 231 230 234
3 232 231 234
3 232 234 21
3 232 21 23
3 232 23 25
3 232 25 227
3 227 25 27
3 227 27 220
3 220 27 29
3 220 29 211
3 211 29 31
3 211 31 201
3 201 31 33
3 201 33 194
3 194 33 35
3 194 35 193
3 193 35 37
3 193 37 39
3 185 235 236
3 236 235 2
3 202 7 203
3 203 7 9
3 203 9 212
3 212 9 11
3 212 11 221
3 221 11 13
3 221 13 228
3 228 13 15
3 228 15 17
3 228 17 233
3 233 17 19
3 233 19 234
3 234 19 21
3 184 237 238
3 237 239 238
3 237 240 239
3 238 239 241
3 241 239 242
3 239 243 242
3 239 240 243
3 242 243 235
3 240 244 243
3 244 245 243
3 244 0 245
3 243 245 235
3 235 245 2
3 245 0 2
3 6 246 4
3 3 246 4
3 184 247 38
3 38 247 39
3 39 247 248
3 247 238 248
3 247 184 238
3 248 238 241
3 0 244 54
3 54 244 240
3 240 237 54
3 54 237 184
3 236 249 250
3 249 251 250
3 249 252 251
3 250 251 186
3 236 250 185
3 185 250 186
3 191 253 190
3 253 188 190
3 186 251 254
3 251 255 254
3 251 252 255
3 254 255 202
3 186 254 195
3 254 202 195
3 197 256 187
3 189 256 187
3 189 256 257
3 256 258 257
3 256 197 258
3 257 258 198
3 189 257 190
3 190 257 198
3 198 258 207
3 258 197 207
3 39 259 193
3 193 259 191
3 191 259 260
3 259 248 260
3 259 39 248
3 260 248 241
3 191 260 253
3 260 261 253
3 260 241 261
3 253 261 188
3 188 261 185
3 261 241 185
3 241 242 185
3 185 242 235
3 3 262 2
3 236 262 2
3 236 262 249
3 262 263 249
3 262 3 263
3 249 263 252
3 252 263 264
3 263 246 264
3 263 3 246
3 264 246 6
3 252 264 255
3 264 265 255
3 264 6 265
3 255 265 202
3 202 265 7
3 265 6 7

CELL_TYPES 528
5
5
5
5
5
5
5
5
5
5
5
5
5
5
5
5
5
5
5
5
5
5
5
5
5
5
5
5
5
5
5
5
5
5
5
5
5
5
5
5
5
5
5
5
5
5
5
5
5
5
5
5
5
5
5
5
5
5
5
5
5
5
5
5
5
5
5
5
5
5
5
5
5
5
5
5
5
5
5
5
5
5
5
5
5
5
5
5
5
5
5
5
5
5
5
5
5
5
5
5
5
5
5
5
5
5
5
5
5
5
5
5
5
5
5
5
5
5
5
5
5
5
5
5
5
5
5
5
5
5
5
5
5
5
5
5
5
5
5
5
5
5
5
5
5
5
5
5
5
5
5
5
5
5
5
5
5
5
5
5
5
5
5
5
5
5
5
5
5
5
5
5
5
5
5
5
5
5
5
5
5
5
5
5
5
5
5
5
5
5
5
5
5
5
5
5
5
5
5
5
5
5
5
5
5
5
5
5
5
5
5
5
5
5
5
5
5
5
5
5
5
5
5
5
5
5
5
5
5
5
5
5
5
5
5
5
5
5
5
5
5
5
5
5
5
5
5
5
5
5
5
5
5
5
5
5
5
5
5
5
5
5
5
5
5
5
5
5
5
5
5
5
5
5
5
5
5
5
5
5
5
5
5
5
5
5
5
5
5
5
5
5
5
5
5
5
5
5
5
5
5
5
5
5
5
5
5
5
5
5
5
5
5
5
5
5
5
5
5
5
5
5
5
5
5
5
5
5
5
5
5
5
5
5
5
5
5
5
5
5
5
5
5
5
5
5
5
5
5
5
5
5
5
5
5
5
5
5
5
5
5
5
5
5
5
5
5
5
5
5
5
5
5
5
5
5
5
5
5
5
5
5
5
5
5
5
5
5
5
5
5
5
5
5
5
5
5
5
5
5
5
5
5
5
5
5
5
5
5
5
5
5
5
5
5
5
5
5
5
5
5
5
5
5
5
5
5
5
5
5
5
5
5
5
5
5
5
5
5
5
5
5
5
5
5
5
5
5
5
5
5
5
5
5
5
5
5
5
5
5
5
5
5
5
5
5
5
5
5
5
5
5
5
5
5
5
5
5
5
5
5
5
5
5
5
5
5
5
5
5
5
5
5
5
5
5
5
5
5
5
5
5
5
5
5
5
5
5
5
5
5
5
5
5
5
5
5
5
5
5
5
5
5
5
5
5
5
5

CELL_DATA 528
SCALARS cell_data_0 double
LOOKUP_TABLE default
2.01260286906e-06
3.28182449163e-06
2.45102094398e-06
1.67421105949e-06
2.19324596349e-06
1.30517707809e-06
1.64625234448e-06
1.02640076982e-06
1.198900131e-06
7.42157149386e-07
8.41811917893e-07
5.40888859566e-07
5.15049578779e-07
2.92947909405e-07
2.18809333741e-07
1.10920664556e-07
7.29498220877e-08
1.25996081954e-07
3.77000895458e-07
3.39589324585e-07
6.90252262914e-07
5.85212635332e-07
1.04061025423e-06
8.34180670792e-07
1.39631688509e-06
1.04407751099e-06
1.61975958316e-06
1.05051109008e-06
1.32828596462e-06
5.33997350472e-07
9.5464560164e-07
1.34954821681e-06
7.46073721382e-06
4.77569284155e-06
2.8686801897e-06
3.57296730337e-07
8.88920289954e-07
1.77703199606e-08
2.62173291164e-09
1.77791803721e-08
3.25060738907e-08
5.00498225336e-08
1.2049092853e-08
2.18057634812e-08
1.48569245362e-08
3.76388876516e-08
3.59672933324e-08
7.16648984444e-08
5.32248662009e-08
4.92833620693e-09
5.1426692536e-09
3.28989100426e-08
7.70865914824e-08
1.2100131538e-07
1.04605004581e-07
2.92898306825e-08
6.05647742872e-09
1.23653155868e-08
1.28784199008e-08
5.89509262936e-09
9.85753380169e-10
1.20657210864e-08
2.83087652637e-08
1.3079359594e-08
5.55969837616e-09
6.56576886294e-08
2.66147788979e-08
4.17348656711e-08
1.29251949576e-08
1.11826799369e-08
1.73489328356e-09
7.31161635709e-09
2.14249946316e-08
2.0102048121e-08
1.05467302938e-08
4.69364406326e-08
4.20054074697e-08
8.16327298762e-08
6.54569901602e-08
2.40490388972e-08
5.67996438497e-09
2.81419673898e-08
4.37385301108e-08
5.87004097371e-08
7.2378345461e-08
7.94741734728e-08
5.07682441485e-08
4.60290964985e-08
3.39673327571e-08
4.43690838966e-08
4.55853233501e-08
4.8212954976e-08
3.83467539897e-08
3.90205091475e-08
5.70353250044e-09
1.2236198752e-08
7.49359986264e-08
5.77628550343e-08
1.09536573458e-07
1.40703908154e-07
1.22571764514e-07
1.54080204169e-07
1.25683364428e-07
8.75034944002e-08
5.75557725179e-08
2.10283086863e-08
4.39562881406e-09
3.88781380248e-08
5.90432708856e-08
8.5502341149e-08
1.00995788177e-07
1.05896182341e-07
1.09445682312e-07
7.56274278293e-08
7.20903956728e-08
5.00489335442e-08
4.981886921e-08
6.79751857582e-08
6.3948431427e-08
5.82147382957e-08
4.48129459319e-08
3.61788266042e-09
3.88883876679e-08
1.27219585302e-07
1.60661855367e-07
2.14545153144e-07
2.33234584352e-07
1.95617265392e-07
2.12209394572e-07
1.73276327943e-07
1.3302150422e-07
9.41018662818e-08
6.02495861959e-08
2.22098899526e-08
5.35255110512e-09
4.21278389916e-08
6.40137842533e-08
9.84771254391e-08
1.13662111867e-07
1.36671066006e-07
1.30692678679e-07
1.32499916515e-07
1.08561168897e-07
7.21239559389e-08
4.60106194277e-08
6.28941033557e-08
8.15916683557e-08
8.60246640144e-08
6.80989967311e-08
2.38250635107e-08
2.92322287942e-08
1.31788270282e-07
1.92877260676e-07
3.10038241698e-07
3.22544774362e-07
2.64622138424e-07
2.66951373127e-07
2.04581951223e-07
1.66900886346e-07
1.11546264631e-07
8.1661899043e-08
3.02643785451e-08
5.94964219948e-09
4.26865542788e-08
6.2372357329e-08
1.06266045107e-07
1.20624988808e-07
1.51018332956e-07
1.50956882409e-07
1.48319388232e-07
1.3837287879e-07
6.40175768272e-08
2.41087090803e-08
2.29151394242e-08
8.09762903873e-08
9.23221839937e-08
9.22255476983e-08
6.54928088758e-08
7.50047629798e-09
8.64284481124e-08
1.75078365923e-07
3.7881048409e-07
3.69804347667e-07
3.17280080181e-07
3.27576533416e-07
2.79816541239e-07
2.12695212599e-07
1.78678394962e-07
1.18081139163e-07
9.17605316085e-08
3.65070708394e-08
1.62223619492e-08
3.66710453955e-08
5.20449281699e-08
1.00529872223e-07
1.11216082171e-07
1.45793488209e-07
1.49799815625e-07
1.54009026392e-07
1.29621355821e-07
4.6782096078e-08
3.52091664097e-08
1.62286156421e-08
3.96105934816e-08
2.90971731122e-08
1.6270927711e-08
5.90428725007e-08
1.50699641993e-08
8.44219014115e-08
1.94660057811e-07
4.03520017711e-07
3.86160343478e-07
3.20799806512e-07
2.8126318379e-07
2.05405954785e-07
1.68542912609e-07
1.12100256672e-07
7.15567419197e-08
3.04798192017e-08
1.48050860617e-08
4.17145901087e-08
8.8596753285e-08
1.04473829498e-07
1.35656883511e-07
1.40420992632e-07
1.25403286663e-07
1.09211226596e-07
6.25016146931e-09
1.20060653027e-07
1.8421769505e-07
9.77572068608e-08
8.20230626863e-09
4.87395853331e-08
1.01031293817e-08
1.03972235267e-07
2.05938851213e-07
4.35089757239e-07
3.94138871255e-07
3.10890387662e-07
2.47002478169e-07
1.6920457525e-07
1.06915353544e-07
5.61064602564e-08
1.18872684481e-08
4.04455168692e-08
9.55290738388e-08
1.09287824707e-07
1.28392151384e-07
8.77530972027e-08
6.17600565076e-08
1.03810379952e-07
1.84241993202e-07
1.6310139987e-07
2.37457161353e-08
4.82607280765e-08
2.60318669893e-08
8.64582318321e-08
1.67591455368e-07
4.17363308225e-07
3.93881874619e-07
2.30108767173e-07
1.14723403452e-07
5.81543315971e-08
2.97807143294e-08
5.01931684125e-08
8.37395887849e-08
4.07044261437e-08
6.05635591822e-08
2.69981857669e-07
2.37259406497e-07
1.93430215596e-07
4.97878539976e-08
3.44528392733e-08
2.58104361949e-09
1.01798058999e-07
1.80492556112e-07
2.04114277166e-07
3.12044865619e-07
3.65136947156e-08
8.70929351561e-08
1.56653524535e-08
1.67330175459e-07
1.85856586774e-07
1.91692678677e-07
6.02298617811e-08
1.97859596639e-07
2.48827462153e-07
4.18657374247e-07
1.48095305773e-05
8.49778656129e-08
3.53758018702e-08
6.51139248227e-07
6.75138303659e-07
1.54056310333e-06
1.494683146e-05
1.47196156385e-05
1.30369269538e-06
4.2636972499e-08
1.80985264104e-07
7.53542590496e-06
6.67480217619e-06
7.8409921617e-06
4.04944356755e-08
4.58448606664e-08
6.30732168884e-08
1.10330510501e-07
1.28498488943e-07
9.19072079417e-08
7.87638293966e-08
1.35199110357e-07
2.92280309859e-07
1.82156026582e-07
2.19392717312e-07
2.93074419184e-07
1.37054301233e-07
3.31668660801e-07
1.55189148806e-07
4.66905486812e-07
2.15894788844e-08
1.01618975336e-07
1.53754894349e-07
1.52710296995e-07
1.50364163279e-07
1.34262274692e-07
1.17709221976e-07
1.22981477296e-07
1.00920625935e-08
1.65471231497e-07
2.08642939531e-07
2.14517907483e-07
2.5952469374e-07
3.24013016902e-07
1.00692174794e-07
2.00221057552e-07
7.24867097224e-08
1.16865701421e-07
1.33314613321e-07
7.81105348686e-08
1.40255859661e-07
4.69094275952e-08
1.26542402251e-07
1.537555761e-08
1.03890799605e-07
8.58343308373e-07
4.97320423289e-06
1.09149457437e-06
1.79749492854e-06
6.034623612e-07
8.05696526052e-07
1.05353127781e-07
1.22968946735e-06
1.53361725398e-06
2.54711994388e-06
2.07671283025e-06
1.20628585351e-06
1.31555464969e-06
8.4312605402e-07
8.01120940326e-07
2.57076004744e-07
1.41967976427e-07
3.85835827856e-07
8.21570165367e-07
8.14732294029e-07
1.89297904243e-06
2.24416707272e-06
2.46863337422e-06
2.52576371414e-06
1.93601235592e-06
1.67514494815e-06
1.28150302776e-06
9.60462716845e-07
8.24701754016e-07
3.59433844167e-07
2.91860217592e-07
8.30572649519e-08
1.37982762024e-07
2.92917131821e-07
5.42533251096e-07
8.13776170851e-07
1.40685715e-06
1.61414554715e-06
1.83117425286e-06
1.53549208381e-06
1.59419615177e-06
1.22946765993e-06
1.1515180688e-06
9.49684882039e-07
8.90055415059e-07
1.0642038565e-07
6.37908208781e-08
3.72272302362e-08
2.09310514503e-07
3.14453244513e-07
7.02243955e-07
8.22966039431e-07
1.01399430348e-06
8.73681266197e-07
1.04270545237e-06
8.16665502462e-07
8.39316451715e-07
6.94012549434e-07
8.08513744958e-07
1.26835670987e-07
1.61886541685e-07
2.79868877818e-07
4.49108333451e-06
4.51805291029e-06
4.53833988767e-06
1.22992568618e-05
5.64366161338e-07
3.22928082295e-06
9.18259159719e-07
8.55555052222e-07
9.77182275005e-06
2.06082749831e-05
2.01859020984e-05
8.26445208106e-06
1.17688130984e-07
1.85102108518e-06
1.92024832987e-06
1.70580386721e-06
1.02207928036e-06
2.07034545215e-07
1.08187845821e-06
2.53806730005e-07
9.20518704604e-07
3.0541922143e-07
1.19792094302e-07
2.72695152934e-07
3.24366583652e-06
1.59170980396e-06
9.4225558496e-07
6.95815633752e-07
1.75289255226e-06
5.37651483751e-07
3.31768291126e-07
1.06605818837e-06
9.70481834511e-08
4.29782092611e-07
2.12245026544e-07
6.01378797114e-07
3.69298186021e-07
4.27575429755e-07
1.69088120855e-07
1.6080648034e-06
1.3895605389e-06
6.9950076211e-07
2.0675804213e-06
1.34856087428e-06
4.58919453262e-06
2.00120967189e-06
1.49497004103e-06
8.9349464406e-07
2.90685423788e-07
1.4492878969e-06
3.84232445558e-08
7.15032467661e-09
4.93216718582e-08
1.74183813007e-07
3.99101533335e-07
1.58901917852e-06
1.03744670131e-06
4.72034544916e-07
4.53675836104e-07
1.30005503923e-06
1.84993999619e-07
9.99704772436e-07
1.2688965725e-06
2.73508806277e-06
1.06377333519e-06
5.33252765217e-09
3.72491093808e-08
1.85750901757e-08
6.2251144889e-08
1.97803289375e-06
4.40553373696e-08
3.20051204622e-07
4.7159163293e-09
1.89316996271e-06
7.12113796681e-07
5.45017870844e-07
3.41820857178e-06
3.7044886704e-08
2.25156271727e-08
2.28419354483e-07
6.72682716579e-09
1.91751922656e-07
8.64983764675e-08
5.68089674238e-07
1.28053316127e-08
1.72089065917e-07
4.21426109576e-08
1.56860371696e-07
1.24824691173e-07
1.94741215821e-07
2.93075974441e-07
7.79206855931e-07
8.7608317382e-07
1.83132821162e-06
4.50617821943e-07
2.38585809314e-07
2.45453577969e-06
2.08675982743e-06
3.3607987856e-06
3.94780880634e-08
2.61641567404e-07
4.43248317895e-06
4.10403460182e-06
1.17550835755e-05
1.42037434292e-05
2.86706197162e-06
2.09096186192e-06
3.63010910587e-07
1.55405340977e-06
1.87980590358e-06
5.67324341722e-08
1.34626779064e-07
2.90255459632e-07
1.65632316139e-07
1.17358144292e-07
1.21706317486e-07
1.10769998523e-07
2.61890056713e-07
4.89470692509e-09
2.32373357548e-07
6.93237991943e-09
2.74886088199e-07
9.75414215981e-07

