# vtk DataFile Version 3.0
File Name: Molecule/methanol/methanol_13.5-1.vtk
ASCII
DATASET UNSTRUCTURED_GRID
FIELD FieldData 1
TIME 1 1 double
0.0
POINTS 680 double
1.611 0.0 -0.359
1.585 -0.292 -0.356
1.475 0.0 -0.634
1.451 -0.274 -0.632
1.403 0.0 -0.933
1.38 -0.266 -0.93
1.51 -0.576 -0.349
1.38 -0.539 -0.625
1.311 -0.525 -0.924
1.386 -0.842 -0.336
1.265 -0.788 -0.613
1.219 -1.083 -0.32
1.108 -1.014 -0.598
1.198 -0.767 -0.912
1.046 -0.986 -0.897
1.012 -1.29 -0.299
0.915 -1.208 -0.579
0.857 -1.175 -0.878
0.773 -1.459 -0.275
0.691 -1.366 -0.556
0.639 -1.329 -0.857
0.508 -1.583 -0.249
0.443 -1.482 -0.532
0.398 -1.442 -0.833
0.226 -1.659 -0.221
0.179 -1.553 -0.505
0.141 -1.511 -0.807
-0.065 -1.684 -0.192
-0.094 -1.577 -0.478
-0.124 -1.534 -0.781
-0.356 -1.659 -0.163
-0.366 -1.553 -0.451
-0.389 -1.511 -0.754
-0.639 -1.583 -0.135
-0.631 -1.482 -0.425
-0.646 -1.442 -0.729
-0.903 -1.459 -0.108
-0.878 -1.366 -0.4
-0.887 -1.329 -0.705
-1.143 -1.29 -0.085
-1.102 -1.208 -0.378
-1.105 -1.175 -0.683
-1.349 -1.083 -0.064
-1.296 -1.014 -0.358
-1.294 -0.986 -0.664
-1.517 -0.842 -0.047
-1.453 -0.788 -0.343
-1.446 -0.767 -0.649
-1.64 -0.576 -0.035
-1.568 -0.539 -0.331
-1.559 -0.525 -0.638
-1.716 -0.292 -0.028
-1.639 -0.274 -0.324
-1.628 -0.266 -0.631
-1.742 -0.0 -0.025
-1.663 -0.0 -0.322
-1.651 -0.0 -0.629
-1.716 0.292 -0.028
-1.639 0.274 -0.324
-1.628 0.266 -0.631
-1.64 0.576 -0.035
-1.568 0.539 -0.331
-1.559 0.525 -0.638
-1.517 0.842 -0.047
-1.453 0.788 -0.343
-1.446 0.767 -0.649
-1.349 1.083 -0.064
-1.296 1.014 -0.358
-1.294 0.986 -0.664
-1.143 1.29 -0.085
-1.102 1.208 -0.378
-1.105 1.175 -0.683
-0.903 1.459 -0.108
-0.878 1.366 -0.4
-0.887 1.329 -0.705
-0.639 1.583 -0.135
-0.631 1.482 -0.425
-0.646 1.442 -0.729
-0.356 1.659 -0.163
-0.366 1.553 -0.451
-0.389 1.511 -0.754
-0.065 1.684 -0.192
-0.094 1.577 -0.478
-0.124 1.534 -0.781
0.226 1.659 -0.221
0.179 1.553 -0.505
0.141 1.511 -0.807
0.508 1.583 -0.249
0.443 1.482 -0.532
0.398 1.442 -0.833
0.773 1.459 -0.275
0.691 1.366 -0.556
0.639 1.329 -0.857
1.012 1.29 -0.299
0.915 1.208 -0.579
0.857 1.175 -0.878
1.219 1.083 -0.32
1.108 1.014 -0.598
1.046 0.986 -0.897
1.386 0.842 -0.336
1.265 0.788 -0.613
1.198 0.767 -0.912
1.51 0.576 -0.349
1.38 0.539 -0.625
1.311 0.525 -0.924
1.585 0.292 -0.356
1.451 0.274 -0.632
1.38 0.266 -0.93
1.907 0.0 0.656
1.885 0.281 0.656
1.885 0.141 0.899
1.885 -0.141 0.899
1.885 -0.281 0.656
1.885 -0.141 0.412
1.885 0.141 0.412
1.823 0.482 0.934
1.823 0.278 1.137
1.823 -0.0 1.212
1.823 -0.278 1.137
1.823 -0.482 0.934
1.823 -0.556 0.656
1.823 -0.482 0.377
1.823 -0.278 0.174
1.823 -0.0 0.099
1.823 0.278 0.174
1.823 0.482 0.377
1.823 0.556 0.656
1.72 0.77 0.936
1.72 0.627 1.182
1.72 0.409 1.365
1.72 0.142 1.462
1.72 -0.142 1.462
1.72 -0.409 1.365
1.72 -0.627 1.182
1.72 -0.77 0.936
1.72 -0.819 0.656
1.72 -0.77 0.376
1.72 -0.627 0.129
1.72 -0.409 -0.054
1.72 -0.142 -0.151
1.72 0.142 -0.151
1.72 0.409 -0.054
1.72 0.627 0.129
1.72 0.77 0.376
1.72 0.819 0.656
1.579 1.027 0.931
1.579 0.921 1.187
1.579 0.752 1.407
1.579 0.532 1.576
1.579 0.275 1.683
1.579 0.0 1.719
1.579 -0.275 1.683
1.579 -0.532 1.576
1.579 -0.752 1.407
1.579 -0.921 1.187
1.579 -1.027 0.931
1.579 -1.063 0.656
1.579 -1.027 0.38
1.579 -0.921 0.124
1.579 -0.752 -0.096
1.579 0.752 -0.096
1.579 0.921 0.124
1.579 1.027 0.38
1.579 1.063 0.656
1.403 1.254 0.932
1.403 1.165 1.195
1.403 1.022 1.433
1.403 0.831 1.634
1.403 0.601 1.79
1.403 0.343 1.893
1.403 0.07 1.938
1.403 -0.208 1.923
1.403 -0.475 1.848
1.403 -0.72 1.718
1.403 -0.932 1.538
1.403 -1.1 1.317
1.403 -1.217 1.066
1.403 -1.276 0.794
1.403 -1.276 0.517
1.403 -1.217 0.246
1.403 -1.1 -0.006
1.403 1.022 -0.121
1.403 1.165 0.117
1.403 1.254 0.38
1.403 1.284 0.656
1.196 1.449 0.935
1.196 1.37 1.204
1.196 1.241 1.453
1.196 1.068 1.674
1.196 0.856 1.858
1.196 0.613 1.998
1.196 0.348 2.09
1.196 0.07 2.13
1.196 -0.21 2.116
1.196 -0.483 2.05
1.196 -0.738 1.934
1.196 -0.966 1.771
1.196 -1.16 1.568
1.196 -1.312 1.332
1.196 -1.416 1.071
1.196 -1.469 0.796
1.196 -1.469 0.515
1.196 -1.416 0.24
1.196 -1.312 -0.021
1.196 1.241 -0.142
1.196 1.37 0.107
1.196 1.449 0.376
1.196 1.476 0.656
0.963 1.611 0.932
0.963 1.541 1.2
0.963 1.427 1.453
0.963 1.272 1.683
0.963 1.08 1.883
0.963 0.857 2.048
0.963 0.609 2.172
0.963 0.344 2.254
0.963 0.069 2.289
0.963 -0.208 2.277
0.963 -0.479 2.219
0.963 -0.736 2.115
0.963 -0.972 1.97
0.963 -1.18 1.787
0.963 -1.354 1.571
0.963 -1.49 1.329
0.963 -1.582 1.067
0.963 -1.629 0.794
0.963 -1.629 0.517
0.963 -1.582 0.244
0.963 -1.49 -0.018
0.963 1.427 -0.142
0.963 1.541 0.111
0.963 1.611 0.379
0.963 1.635 0.656
0.709 1.735 0.93
0.709 1.671 1.199
0.709 1.566 1.453
0.709 1.421 1.688
0.709 1.242 1.898
0.709 1.033 2.077
0.709 0.798 2.221
0.709 0.543 2.327
0.709 0.275 2.391
0.709 -0.0 2.413
0.709 -0.275 2.391
0.709 -0.543 2.327
0.709 -0.798 2.221
0.709 -1.033 2.077
0.709 -1.242 1.898
0.709 -1.421 1.688
0.709 -1.566 1.453
0.709 -1.671 1.199
0.709 -1.735 0.93
0.709 -1.757 0.656
0.709 -1.735 0.381
0.709 -1.671 0.113
0.709 1.671 0.113
0.709 1.735 0.381
0.709 1.757 0.656
0.439 1.819 0.937
0.439 1.754 1.211
0.439 1.649 1.472
0.439 1.505 1.714
0.439 1.326 1.932
0.439 1.116 2.119
0.439 0.879 2.272
0.439 0.622 2.387
0.439 0.35 2.462
0.439 0.07 2.494
0.439 -0.211 2.484
0.439 -0.488 2.43
0.439 -0.753 2.335
0.439 -1.0 2.2
0.439 -1.224 2.029
0.439 -1.42 1.826
0.439 -1.582 1.596
0.439 -1.707 1.343
0.439 -1.792 1.075
0.439 -1.835 0.796
0.439 -1.835 0.515
0.439 -1.792 0.236
0.439 -1.707 -0.032
0.439 1.754 0.1
0.439 1.819 0.375
0.439 1.84 0.656
0.16 1.861 0.936
0.16 1.799 1.21
0.16 1.696 1.472
0.16 1.555 1.716
0.16 1.38 1.936
0.16 1.174 2.127
0.16 0.941 2.286
0.16 0.688 2.408
0.16 0.419 2.491
0.16 0.141 2.533
0.16 -0.141 2.533
0.16 -0.419 2.491
0.16 -0.688 2.408
0.16 -0.941 2.286
0.16 -1.174 2.127
0.16 -1.38 1.936
0.16 -1.555 1.716
0.16 -1.696 1.472
0.16 -1.799 1.21
0.16 -1.861 0.936
0.16 -1.882 0.656
0.16 -1.861 0.375
0.16 -1.799 0.101
0.16 1.799 0.101
0.16 1.861 0.375
0.16 1.882 0.656
-0.122 1.861 0.936
-0.122 1.799 1.21
-0.122 1.696 1.472
-0.122 1.555 1.716
-0.122 1.38 1.936
-0.122 1.174 2.127
-0.122 0.941 2.286
-0.122 0.688 2.408
-0.122 0.419 2.491
-0.122 0.141 2.533
-0.122 -0.141 2.533
-0.122 -0.419 2.491
-0.122 -0.688 2.408
-0.122 -0.941 2.286
-0.122 -1.174 2.127
-0.122 -1.38 1.936
-0.122 -1.555 1.716
-0.122 -1.696 1.472
-0.122 -1.799 1.21
-0.122 -1.861 0.936
-0.122 -1.882 0.656
-0.122 -1.861 0.375
-0.122 -1.799 0.101
-0.122 1.799 0.101
-0.122 1.861 0.375
-0.122 1.882 0.656
-0.401 1.84 0.656
-0.401 1.819 0.937
-0.401 1.754 1.211
-0.401 1.649 1.472
-0.401 1.505 1.714
-0.401 1.326 1.932
-0.401 1.116 2.119
-0.401 0.879 2.272
-0.401 0.622 2.387
-0.401 0.35 2.462
-0.401 0.07 2.494
-0.401 -0.211 2.484
-0.401 -0.488 2.43
-0.401 -0.753 2.335
-0.401 -1.0 2.2
-0.401 -1.224 2.029
-0.401 -1.42 1.826
-0.401 -1.582 1.596
-0.401 -1.707 1.343
-0.401 -1.792 1.075
-0.401 -1.835 0.796
-0.401 -1.835 0.515
-0.401 -1.792 0.236
-0.401 1.754 0.1
-0.401 1.819 0.375
-0.671 1.757 0.656
-0.671 1.735 0.93
-0.671 1.671 1.199
-0.671 1.566 1.453
-0.671 1.421 1.688
-0.671 1.242 1.898
-0.671 1.033 2.077
-0.671 0.798 2.221
-0.671 0.543 2.327
-0.671 0.275 2.391
-0.671 -0.0 2.413
-0.671 -0.275 2.391
-0.671 -0.543 2.327
-0.671 -0.798 2.221
-0.671 -1.033 2.077
-0.671 -1.242 1.898
-0.671 -1.421 1.688
-0.671 -1.566 1.453
-0.671 -1.671 1.199
-0.671 -1.735 0.93
-0.671 -1.757 0.656
-0.671 -1.735 0.381
-0.671 -1.671 0.113
-0.671 1.671 0.113
-0.671 1.735 0.381
-0.925 1.635 0.656
-0.925 1.611 0.932
-0.925 1.541 1.2
-0.925 1.427 1.453
-0.925 1.272 1.683
-0.925 1.08 1.883
-0.925 0.857 2.048
-0.925 0.609 2.172
-0.925 0.344 2.254
-0.925 0.069 2.289
-0.925 -0.208 2.277
-0.925 -0.479 2.219
-0.925 -0.736 2.115
-0.925 -0.972 1.97
-0.925 -1.18 1.787
-0.925 -1.354 1.571
-0.925 -1.49 1.329
-0.925 -1.582 1.067
-0.925 -1.629 0.794
-0.925 -1.629 0.517
-0.925 -1.582 0.244
-0.925 1.541 0.111
-0.925 1.611 0.379
-1.158 1.476 0.656
-1.158 1.449 0.935
-1.158 1.37 1.204
-1.158 1.241 1.453
-1.158 1.068 1.674
-1.158 0.856 1.858
-1.158 0.613 1.998
-1.158 0.348 2.09
-1.158 0.07 2.13
-1.158 -0.21 2.116
-1.158 -0.483 2.05
-1.158 -0.738 1.934
-1.158 -0.966 1.771
-1.158 -1.16 1.568
-1.158 -1.312 1.332
-1.158 -1.416 1.071
-1.158 -1.469 0.796
-1.158 -1.469 0.515
-1.158 -1.416 0.24
-1.158 1.37 0.107
-1.158 1.449 0.376
-1.365 1.284 0.656
-1.365 1.254 0.932
-1.365 1.165 1.195
-1.365 1.022 1.433
-1.365 0.831 1.634
-1.365 0.601 1.79
-1.365 0.343 1.893
-1.365 0.07 1.938
-1.365 -0.208 1.923
-1.365 -0.475 1.848
-1.365 -0.72 1.718
-1.365 -0.932 1.538
-1.365 -1.1 1.317
-1.365 -1.217 1.066
-1.365 -1.276 0.794
-1.365 -1.276 0.517
-1.365 -1.217 0.246
-1.365 1.165 0.117
-1.365 1.254 0.38
-1.541 1.063 0.656
-1.541 1.027 0.931
-1.541 0.921 1.187
-1.541 0.752 1.407
-1.541 0.532 1.576
-1.541 0.275 1.683
-1.541 0.0 1.719
-1.541 -0.275 1.683
-1.541 -0.532 1.576
-1.541 -0.752 1.407
-1.541 -0.921 1.187
-1.541 -1.027 0.931
-1.541 -1.063 0.656
-1.541 -1.027 0.38
-1.541 -0.921 0.124
-1.541 0.921 0.124
-1.541 1.027 0.38
-1.682 0.819 0.656
-1.682 0.77 0.936
-1.682 0.627 1.182
-1.682 0.409 1.365
-1.682 0.142 1.462
-1.682 -0.142 1.462
-1.682 -0.409 1.365
-1.682 -0.627 1.182
-1.682 -0.77 0.936
-1.682 -0.819 0.656
-1.682 -0.77 0.376
-1.682 -0.627 0.129
-1.682 0.627 0.129
-1.682 0.77 0.375
-1.785 0.556 0.656
-1.785 0.482 0.934
-1.785 0.278 1.137
-1.785 -0.0 1.212
-1.785 -0.278 1.137
-1.785 -0.482 0.934
-1.785 -0.556 0.656
-1.785 -0.482 0.377
-1.785 -0.278 0.174
-1.785 0.278 0.174
-1.785 0.482 0.377
-1.847 0.281 0.656
-1.847 0.141 0.899
-1.847 -0.141 0.899
-1.847 -0.281 0.656
-1.847 -0.141 0.412
-1.847 0.141 0.412
-1.868 0.0 0.656
1.312 0.277 -1.217
1.185 0.404 -1.437
1.185 0.619 -1.257
1.185 -0.14 -1.533
1.015 -0.346 -1.712
1.015 -0.071 -1.769
1.185 0.14 -1.533
1.015 0.21 -1.75
1.015 0.476 -1.655
1.015 0.706 -1.493
1.015 0.884 -1.275
1.015 -0.949 -1.149
0.805 -1.151 -1.156
0.805 -1.023 -1.41
1.015 -0.802 -1.39
0.805 -0.841 -1.628
1.015 -0.596 -1.582
0.805 -0.612 -1.798
0.805 -0.351 -1.911
0.805 -0.071 -1.96
0.805 0.213 -1.944
0.805 0.485 -1.862
0.805 0.731 -1.72
[...]
CELL_DATA 1356
SCALARS cell_data_0 double
LOOKUP_TABLE default
3.25697444931e-07
2.10370080937e-06
9.31795015579e-08
2.62454333667e-07
2.22097852326e-06
1.47765743397e-06
2.12053329497e-06
2.222405498e-07
3.67445585022e-08
1.43855815825e-08
1.42977704591e-07
2.11489122829e-08
2.07788019061e-07
4.16885448377e-08
2.88865407229e-08
2.09452410572e-07
1.74537293073e-07
2.13165494913e-07
2.1028612662e-08
3.46833689354e-10
3.44287935378e-09
8.96293951681e-09
8.73867070091e-09
1.00505985823e-09
4.53426442995e-09
2.12296491641e-09
4.3538466448e-09
4.54837970491e-09
6.75037120322e-09
2.12304649406e-10
2.66512957121e-09
8.19302903949e-09
8.24061791459e-09
8.52824429357e-10
1.07060548448e-10
1.17062462587e-08
9.1940261424e-09
3.00192818434e-09
1.80250454823e-09
1.46784591265e-08
9.91453077758e-09
1.29138997369e-10
6.35782088374e-09
1.67227160063e-08
9.72914533957e-09
1.46497948895e-09
2.97397591042e-10
1.89187349403e-08
1.18664485137e-08
1.52693674668e-09
3.78615975865e-09
2.14946848127e-08
1.24917680976e-08
1.45089398195e-10
2.49713162775e-09
2.4192637489e-08
1.24582764819e-08
9.64193175601e-10
3.7038603331e-09
2.53235636904e-08
1.05546281075e-08
2.17538941518e-09
9.64545258126e-09
2.57462700136e-08
1.09357290127e-08
3.14788722516e-09
1.05876793247e-08
2.44370190365e-08
9.23228106291e-09
4.38179298017e-09
6.7991546013e-09
2.55191249765e-08
1.22478714233e-08
1.17581621215e-09
6.14441299789e-09
2.74634088269e-08
1.05167882422e-08
3.99523135752e-09
1.04625438041e-08
2.73206948779e-08
1.14698577233e-08
4.77573988327e-09
8.21936966173e-09
2.81481870557e-08
1.17609548215e-08
2.178038506e-09
6.10441570187e-09
2.72677137654e-08
1.21176639781e-08
4.46167648261e-09
6.17229834523e-09
2.70756934375e-08
1.25811963425e-08
4.01509797559e-09
4.16486862303e-09
2.5810496496e-08
1.2554366195e-08
3.8842147194e-09
2.17272867999e-09
2.4779666594e-08
1.2594819267e-08
4.0263323666e-09
6.93503509529e-10
2.25325012025e-08
1.30573943092e-08
3.88005817156e-09
2.79965847412e-10
2.04617845283e-08
1.29935919317e-08
4.47544128687e-09
1.21517461551e-09
1.74790012764e-08
1.18346785339e-08
4.32901747293e-09
2.6422393311e-09
1.43072871978e-08
1.13713834059e-08
5.15663389765e-09
5.41225387781e-09
9.55526552796e-09
9.43981594626e-09
5.35580393094e-09
8.74755053586e-09
3.86615714613e-09
8.58420911435e-09
5.8087166505e-09
1.7648843244e-08
4.88403298093e-11
8.80994344487e-09
5.13991920651e-09
4.27735102937e-08
3.01875703882e-09
1.40050128068e-08
1.78429073986e-08
8.31911090442e-08
2.51197415961e-08
1.74694249266e-08
3.78753509566e-08
1.80116769836e-07
5.89072043122e-08
2.06265098848e-08
2.27714603922e-07
1.14768876084e-06
1.60791755456e-10
1.2774472773e-10
1.12785723983e-10
1.24682658904e-11
1.78951721592e-10
1.47717433519e-10
3.4947719742e-10
2.02439912752e-11
1.75968789032e-10
7.11312051339e-10
3.26308352543e-10
6.00094603293e-10
6.3142008256e-10
4.14583503363e-09
7.88244373987e-09
5.11146082465e-09
7.34136574678e-09
4.58729774346e-11
3.60239773797e-09
7.85162023584e-09
8.73657252627e-09
4.67127589188e-09
4.60656399254e-09
8.02278013343e-10
1.71564104421e-10
1.94523607811e-09
1.00670252854e-09
1.29321830916e-09
4.83483382489e-10
2.79225904187e-10
5.5600696239e-10
1.14950228588e-09
1.56091705278e-09
2.00517843763e-09
3.51340526603e-10
4.25068969525e-10
4.60127468617e-09
5.32596702177e-09
9.34112025482e-09
1.30486610829e-08
1.6768255927e-08
1.50791310192e-08
1.99264137872e-08
1.38443958502e-08
1.07402749356e-09
9.39054134811e-09
1.57724558581e-08
1.84309294405e-08
1.77944122336e-08
1.5976382554e-08
1.06794480877e-08
7.67728639761e-09
4.02586821167e-09
5.98049591334e-10
1.87858973316e-09
3.43311818238e-09
3.16692757697e-09
3.41885569643e-09
2.39106032441e-09
2.19430233563e-09
1.37647450731e-09
5.0261770015e-10
3.95416367853e-11
1.0966537618e-09
1.62121805889e-09
2.44421122922e-09
3.03456861683e-09
3.60331513427e-09
3.42066002206e-09
3.28819467241e-09
1.97974148228e-09
1.5191489815e-09
1.75470561841e-09
1.88313376267e-09
4.58456459808e-09
9.20354402764e-09
1.23123522774e-08
1.94381607497e-08
1.33259963546e-08
1.64885518716e-08
1.96211243911e-08
1.36774084815e-08
1.13917426197e-08
6.16004719241e-09
3.83818555457e-09
1.08298100061e-09
1.4894500714e-09
4.14382214843e-09
5.3166238438e-09
4.80385023318e-09
5.16978339968e-09
4.43888361702e-09
4.43244552704e-09
3.40480771403e-09
3.05585966833e-09
1.73518514499e-09
1.36623955358e-09
4.15550207043e-10
4.6638917854e-10
1.16177955302e-09
2.07123408261e-09
2.65551114555e-09
3.53692001144e-09
4.08302863726e-09
4.45083732123e-09
5.03941299853e-09
4.66165852328e-09
5.42344181717e-09
5.09236919469e-09
3.8471833994e-09
3.36675911138e-09
1.04231830844e-09
2.74702670151e-10
3.13656943724e-09
3.44504207025e-09
9.63793994293e-09
7.99739888458e-09
1.19229580421e-08
7.08946462246e-09
5.00301016328e-09
1.50872921373e-09
1.14260366873e-10
2.18561125405e-09
4.03384740714e-09
6.69086930253e-09
7.63935623294e-09
6.96233535672e-09
7.070094678e-09
6.37943268603e-09
6.18022779695e-09
5.36729663382e-09
4.9199431246e-09
3.85522922118e-09
3.30482270325e-09
2.14209411107e-09
1.87078436908e-09
5.70762018422e-10
8.36271336898e-11
1.20859521659e-09
1.80456521898e-09
2.79930349349e-09
3.39131451593e-09
4.31608556966e-09
4.88618663262e-09
5.5798836023e-09
6.04255108296e-09
6.692969712e-09
6.61343762544e-09
7.16178163761e-09
6.38664450822e-09
6.83232972876e-09
5.06404361965e-09
5.24546659946e-09
2.37053913772e-09
2.6141676309e-09
7.40616295191e-10
1.34602781602e-09
1.10264909668e-09
2.69107042862e-09
4.33566398846e-09
1.05995737873e-09
2.43306195059e-10
3.02782371312e-09
3.88113739696e-09
5.68830593173e-09
6.9149461777e-09
9.19175136924e-09
9.43900862217e-09
9.14097888509e-09
8.89216943594e-09
8.32269026233e-09
7.71291121833e-09
6.92596710587e-09
6.30025822271e-09
5.48219575014e-09
4.95455901926e-09
3.97806188749e-09
3.22008194066e-09
2.12361065498e-09
1.57133801778e-09
6.31502943117e-10
2.80530838672e-11
1.13665136352e-09
1.75721949546e-09
2.64749034866e-09
3.40559783656e-09
4.09294653676e-09
4.93394706059e-09
5.54828090052e-09
6.35535761297e-09
6.90798902327e-09
7.59449782146e-09
8.00418303064e-09
8.36174478813e-09
8.72408123656e-09
8.34215216112e-09
8.52787678832e-09
7.09738683687e-09
7.1045116476e-09
5.69064733402e-09
4.05531216846e-09
1.99433772835e-09
6.66377145893e-10
6.40359971816e-10
5.3534027907e-10
1.37346799043e-09
3.48651404042e-09
4.88326987566e-09
6.79169398101e-09
7.41705997425e-09
8.56113232942e-09
9.24559511889e-09
1.11479937619e-08
1.12613186459e-08
1.07303246104e-08
1.04376411221e-08
9.84273934974e-09
9.22187964632e-09
8.38570171914e-09
7.67565736093e-09
6.88018147127e-09
6.01630416966e-09
5.25261205096e-09
4.5067704529e-09
3.58714391295e-09
2.88724601536e-09
1.99904453762e-09
1.40695987591e-09
4.70323410119e-10
1.43159521675e-10
1.121812718e-09
1.8163887551e-09
2.76670435633e-09
3.31620034089e-09
4.29457792091e-09
5.04499435164e-09
6.047178543e-09
6.48230878645e-09
7.37404874312e-09
7.82866050873e-09
8.67664581591e-09
9.02342762451e-09
9.71303180479e-09
9.8453969439e-09
1.005219258e-08
9.81686829518e-09
9.77456992815e-09
8.67024666668e-09
7.57674505365e-09
5.76498809983e-09
3.69143429359e-09
1.5005219407e-09
4.81826333192e-10
4.85400450166e-11
7.8669059987e-09
9.43957752045e-09
1.00224483789e-08
1.10905841302e-08
1.14374642924e-08
1.32985495339e-08
1.35728544005e-08
1.26451106787e-08
1.23501440391e-08
1.13361018854e-08
1.07386956688e-08
9.70509026861e-09
8.93462625696e-09
8.06207696412e-09
7.30468957229e-09
6.30265217796e-09
5.60357391448e-09
4.6653545796e-09
3.60276344392e-09
2.81117995139e-09
2.00780384237e-09
1.49123891943e-09
3.42136661718e-10
2.71076066468e-10
1.28196539593e-09
1.81285210424e-09
2.94740805066e-09
3.46962344567e-09
4.55626938018e-09
4.97465723776e-09
6.17057102829e-09
6.53166878312e-09
7.85336330943e-09
8.08579484023e-09
9.46514036099e-09
9.57930838934e-09
1.0734854253e-08
1.06382673104e-08
1.16447896442e-08
1.12014368416e-08
1.18092771234e-08
1.08022624466e-08
1.04915968478e-08
8.37560942134e-09
5.76498957435e-09
2.9293026506e-09
4.00354492512e-09
3.35550878487e-09
1.92119039211e-09
9.70188408362e-09
1.18177731326e-08
1.25123925173e-08
1.384974384e-08
1.40976774513e-08
1.55691296008e-08
1.52980989715e-08
1.47059576086e-08
1.39351144127e-08
1.31201088122e-08
1.19801877097e-08
1.11310788424e-08
1.00311654973e-08
9.31897364818e-09
8.25272244182e-09
7.49835508282e-09
6.4157125096e-09
5.76015814508e-09
4.78573802335e-09
3.75225493711e-09
2.58278279239e-09
1.82755470065e-09
1.09042634574e-09
2.16341189432e-10
7.97953286968e-10
1.60489195793e-09
2.42014753571e-09
3.26835123677e-09
4.24367277592e-09
5.01502984363e-09
5.97071006917e-09
6.67171019388e-09
7.74043347408e-09
8.5266344379e-09
9.43304156562e-09
1.01665508928e-08
1.10833332804e-08
1.15806362871e-08
1.24446062788e-08
1.26111762297e-08
1.30854832493e-08
1.26579060938e-08
1.22984426398e-08
1.10261373064e-08
8.6654441961e-09
5.42405966376e-09
1.13509957318e-09
7.76708921053e-09
7.46288902336e-09
1.50211534568e-09
1.06012941306e-08
1.27559607674e-08
1.46730464981e-08
1.55807063599e-08
1.57982886286e-08
1.70286804357e-08
1.66674176577e-08
1.60544680892e-08
1.5090289388e-08
1.43786620205e-08
1.30697248565e-08
1.22167495931e-08
1.09110483865e-08
1.0254069425e-08
8.83112688179e-09
8.15009747385e-09
6.71420698353e-09
6.14929219045e-09
4.65798751603e-09
4.28494715943e-09
2.92835833401e-09
2.42358742741e-09
9.87195686612e-10
5.15974151809e-10
7.79501150712e-10
1.29157938074e-09
2.64571966429e-09
3.11145948043e-09
4.45087944415e-09
5.02830541311e-09
6.44309331411e-09
6.89398185963e-09
7.91016969181e-09
8.93352925967e-09
1.00940774923e-08
1.04388342062e-08
1.18387743562e-08
1.21610252782e-08
1.33706048438e-08
1.35020829641e-08
1.40559197555e-08
1.38283483385e-08
1.31949447812e-08
1.23631229129e-08
8.71876408798e-09
6.46392572011e-09
3.22500191996e-09
7.69721776049e-09
9.9715203192e-09
4.65595378358e-09
9.41044287724e-09
1.2723664207e-08
1.57875214452e-08
1.6899781072e-08
1.73824830586e-08
1.09897396012e-08
5.40613085423e-09
1.07670170509e-08
5.1562017746e-09
9.81863386875e-09
4.61786731708e-09
8.59411111198e-09
3.91456397846e-09
7.26753367065e-09
3.30360298848e-09
5.80985642953e-09
2.42336785793e-09
4.35434884735e-09
1.7891695621e-09
3.08925111938e-09
1.15544535265e-09
1.84841890007e-09
5.32368705963e-10
6.99948307412e-10
4.27331657464e-11
5.2655745256e-10
7.3627511456e-10
1.81723389098e-09
1.38114692004e-09
3.04577557038e-09
1.95929672466e-09
4.38641653379e-09
2.7545766893e-09
5.73511804712e-09
3.32265657627e-09
6.93111192562e-09
3.96793816126e-09
8.19546198643e-09
4.60776751914e-09
9.26257028593e-09
5.11010863392e-09
9.81319272281e-09
5.21115785356e-09
9.30265550613e-09
4.66344609652e-09
6.18859340487e-09
2.28832442518e-09
2.26146345502e-09
3.15531298012e-09
5.07488697501e-09
1.67383279194e-10
5.32573443568e-09
4.28551983742e-09
1.05726112832e-08
5.70195630012e-10
5.34348929111e-10
3.38898084935e-10
2.7648718728e-10
1.85091458702e-10
1.88049985993e-10
9.00178620279e-11
4.26760837369e-11
1.97327813636e-11
3.59937693274e-11
5.02322756679e-11
8.71574749621e-11
4.0769041277e-11
7.15964255062e-11
3.85937053762e-11
1.01216237971e-10
3.79717390501e-11
7.46479567396e-11
2.33604241078e-11
8.55538268746e-11
3.41570451357e-11
8.23820098132e-11
5.37677279527e-11
3.99389454928e-11
3.57335920956e-13
8.42706404889e-11
8.99832264925e-11
9.76506542494e-11
1.47934980774e-11
3.64734145863e-11
4.14248868927e-11
6.6707844074e-11
4.39138406117e-11
5.08595785822e-11
2.46053628211e-11
2.33139429104e-11
5.17948160114e-11
1.01701393596e-10
1.53688377575e-10
3.07852086244e-10
3.94029069232e-10
7.95023925421e-10
8.7221490676e-10
2.11310034571e-09
2.0945862127e-09
1.01662423856e-09
9.03350991715e-10
4.7440487522e-10
6.17670255444e-10
5.67862011091e-10
3.31155472501e-10
2.91614513409e-10
1.76107698594e-10
1.12409978232e-10
9.32771812978e-11
4.68495305423e-11
8.1143807957e-11
1.43333976292e-11
5.91104608317e-11
7.35210338338e-11
4.80540882291e-11
6.36014709154e-11
5.33123133982e-11
6.25554154907e-11
6.60989264512e-11
9.7705958831e-11
1.42952743316e-11
9.96568875774e-11
1.63637332183e-11
1.27479588093e-10
1.12351384731e-11
9.80820828195e-11
8.48275671716e-11
9.18368213292e-12
1.53252440042e-10
3.36307563239e-11
1.44863048382e-10
3.90227391601e-11
8.42527645545e-11
5.76601307133e-11
3.2774591659e-11
1.03322872292e-10
1.1543438508e-10
1.45469379574e-10
3.34707024834e-10
3.43447399753e-10
7.18592749027e-10
7.61417654491e-10
1.03969998796e-09
1.86687593047e-09
2.41874393598e-09
1.28630968651e-09
1.13093830587e-09
5.15941105381e-10
6.86610793786e-10
6.10432373432e-10
4.01757003213e-10
3.49288117995e-10
1.22429328714e-10
7.24901748966e-11
6.9577540014e-11
5.3386923833e-11
4.68207479536e-11
2.79501149835e-11
3.39778298415e-11
6.08324747702e-11
6.33330974049e-11
8.95090593798e-11
6.14532816106e-11
1.34602033374e-10
1.43401103674e-11
2.37247662079e-11
1.27528014871e-10
8.48600129436e-11
1.40096050698e-10
1.2545718278e-10
4.40044859186e-11
1.26043513845e-10
9.175492482e-11
5.53149352942e-11
2.46853009251e-11
4.23230843946e-11
5.01318127524e-11
6.78546467712e-11
2.07267497342e-10
1.89505228564e-10
3.81370345598e-10
4.40261291961e-10
8.47019234997e-10
1.06150092479e-09
6.76297802432e-10
2.1790935088e-09
2.83083366527e-09
1.53324947831e-09
1.39349480568e-09
6.35312284034e-10
7.69558721177e-10
6.27192539268e-10
4.41747627478e-10
3.67210251379e-10
1.21764954651e-10
7.88266609521e-11
7.76857123653e-11
6.21236574227e-11
1.21645014695e-10
1.82788735575e-12
8.45950441171e-11
9.45160037613e-11
3.65707509939e-11
1.05356472492e-10
1.02359067468e-10
7.3165885285e-11
9.92895222753e-11
6.23221144989e-11
8.95584420662e-11
4.58242832097e-11
3.74237227744e-11
4.94833773612e-11
6.31564379218e-11
9.2226576156e-11
1.48030969255e-10
1.39581900997e-10
2.12259459131e-10
2.74599528743e-10
3.89908970582e-10
5.54334724948e-10
9.00941181667e-10
1.23033602079e-09
1.01691967783e-09
2.54532094657e-09
3.14053617726e-09
2.13896390414e-09
1.60975128185e-09
8.00954758008e-10
7.69998146122e-10
6.24559266533e-10
4.46991520788e-10
3.58456725288e-10
1.85211702777e-10
1.54901149214e-10
1.04355273292e-10
4.75681017823e-12
8.67616801932e-11
1.09334488644e-11
8.35442939158e-11
8.72246265934e-11
1.27011543478e-11
1.34657330679e-10
1.59980172417e-11
1.39040098182e-10
2.18446659476e-11
8.07944808079e-11
4.1340097463e-11
1.19784480759e-10
1.3669556655e-10
1.20112165116e-10
1.98691500679e-10
3.44760002437e-10
2.49057444961e-10
6.03388798867e-10
6.10679744231e-10
9.93021185119e-10
1.74581231471e-09
2.32207644474e-09
3.2082746353e-09
2.38504147783e-09
1.58723462853e-09
9.1828856186e-10
8.78029259987e-10
7.87736207057e-10
3.55700843885e-10
3.28676415056e-10
1.63100305905e-10
1.57185145429e-10
1.28320333857e-10
9.18702701631e-11
1.22967026849e-10
1.86683473456e-10
9.88453705189e-11
1.67508103099e-10
8.91509915849e-11
6.15863542235e-11
1.61404691764e-10
1.73979399946e-10
1.86715656618e-10
3.63270674643e-10
3.67151880433e-10
7.26675832714e-10
8.806786787e-10
9.57732842281e-10
1.63184367107e-09
2.55588787842e-09
3.5870628342e-09
3.55472300461e-09
2.71504741332e-09
1.51143849122e-09
9.40208550924e-10
9.76544738079e-10
8.08777187665e-10
3.35278513995e-10
4.05118575103e-10
1.85904111293e-10
2.14980459391e-10
2.99195458782e-10
3.00648079975e-10
3.02950692964e-10
2.13710349399e-10
1.80591039101e-10
3.78267210398e-10
3.14052429972e-10
8.13975994808e-10
9.48916007543e-10
1.07941424098e-09
1.66624261691e-09
3.54584425731e-09
2.19412298871e-09
2.32642231295e-09
3.55371549534e-09
1.66249861227e-09
1.09272058238e-09
9.0718396853e-10
9.26970513074e-10
2.61792867611e-10
3.83554080834e-10
6.63141525094e-10
3.93416858496e-10
2.47101454012e-10
9.59461298646e-10
9.17005455898e-10
1.40248827948e-09
1.27585903926e-09
3.3897019391e-09
3.40948419385e-09
1.2943378449e-09
1.39040478329e-09
5.67857009635e-10
5.55408318468e-10
5.85060842143e-10
9.76314458412e-10
1.60928795734e-09
9.88285586358e-10
1.18565092215e-08
1.93659832956e-08
1.17804771861e-08
3.4394123009e-10
2.98782653939e-09
1.23310521478e-09
7.30974854038e-10
1.78682922247e-09
6.83702275291e-10
7.95883948407e-09
7.27929237512e-09
9.87619171945e-09
7.17168018036e-09
9.373605368e-09
9.42935084407e-09
4.84516457033e-09
2.7375788077e-09
8.55049820179e-09
1.10100072008e-08
5.38248572725e-09
7.13933980733e-09
7.01048750912e-09
1.67362851968e-09
9.97485276273e-10
2.17326948044e-09
6.35814496718e-09
2.3650004305e-09
2.97116750515e-09
7.34737804273e-10
5.24231134442e-09
3.57304259219e-09
1.38496467102e-09
4.31944422724e-09
7.63252361007e-09
6.27603934233e-10
1.27252028694e-08
2.32589697253e-07
1.94446121628e-07
1.37336030615e-07
4.68850152611e-09
1.02980491131e-08
1.22693456457e-08
9.00653957249e-09
1.78109988848e-08
4.69709602749e-09
7.40366881688e-09
4.43648723534e-10
1.31548034362e-09
1.26511136901e-09
6.52804789552e-10
7.34300630529e-10
2.01094697443e-09
5.26718566712e-09
2.40180218492e-09
5.05052795535e-09
6.0321938652e-11
2.8726562133e-09
2.47473699722e-09
2.60492520508e-10
5.61050248481e-09
1.73945271784e-10
3.83820472593e-09
5.37195383216e-09
1.8164052334e-09
1.50283874501e-09
2.1992479866e-09
5.4782646742e-10
1.83997862592e-09
2.54999795237e-10
1.75927233421e-09
5.00131771259e-11
1.75227511512e-09
6.62531362481e-10
1.09214352532e-09
2.77671908537e-09
5.13571215567e-10
2.25199170954e-06
2.73220369891e-06
3.07794941699e-06
2.33539460131e-06
2.05475626685e-06
1.13292241344e-06
2.29299941971e-08
4.23110625727e-07
2.23226533269e-06
1.08766113602e-06
1.04862173434e-06
2.39605407525e-07
4.56151650503e-08
8.02371798412e-07
7.11332847832e-07
7.57762713352e-07
8.56749481752e-07
5.10565278212e-07
1.05497125992e-06
3.583038493e-07
7.77568275143e-07
1.42071687321e-07
5.68278845528e-07
2.53113413631e-08
1.09155037288e-07
1.59806950838e-08
1.08165838851e-06
1.87787321616e-06
1.10233634823e-06
1.5663447523e-06
6.82263343501e-07
6.78834889753e-07
1.5927853598e-07
8.0540315477e-08
9.94235305856e-08
3.10050558183e-07
3.141891654e-08
9.83410741467e-08
1.37157280224e-08
2.05873774627e-07
3.20727709979e-07
4.66706738653e-07
6.4857505356e-07
5.64550233366e-07
4.48813259195e-07
4.17668682672e-07
1.61002193489e-07
1.70271024966e-07
4.79044363099e-08
4.44383327615e-08
3.12431114195e-08
2.80825276954e-07
7.92595228181e-08
2.68400139921e-07
7.70497023305e-08
1.57199636551e-07
2.97276071663e-08
3.76605177611e-08
1.38213774837e-08
2.1352398229e-08
7.14609945789e-08
1.28047826599e-07
1.91665986541e-07
2.96510309123e-07
3.29040975826e-07
3.00839685712e-07
2.90223439621e-07
3.33638161304e-07
4.20808577105e-07
5.29426988988e-07
5.84154435885e-07
5.98889334969e-07
5.03673345979e-07
3.43666897565e-07
2.90779163441e-07
1.41057580037e-07
1.2316728568e-07
1.91291326987e-07
1.7002361847e-07
1.7827890163e-07
1.33415353388e-07
1.44020914274e-07
9.40562641736e-08
1.01433806147e-07
5.74392971417e-08
5.01841049683e-08
9.66123560832e-09
1.85382607771e-08
6.49987527151e-08
1.06859584023e-07
1.60558569297e-07
2.004370359e-07
2.60519953403e-07
2.78751975876e-07
3.3288393532e-07
3.25015934706e-07
3.59494791049e-07
3.14385015991e-07
4.1866755939e-07
4.41360922147e-07
5.00593654878e-07
4.16553337087e-07
3.49235850141e-07
2.90213794409e-07
2.04717290888e-07
1.74898336808e-07
1.57211852991e-07
1.8607539976e-07
1.75136945805e-07
1.87523913018e-07
1.62519897543e-07
1.62439980011e-07
1.27698231825e-07
1.18369734174e-07
7.41059895261e-08
5.7691834612e-08
7.82531382532e-09
1.51419605406e-08
6.79638192272e-08
9.88583989201e-08
1.40891842159e-07
1.7409417539e-07
1.95383194553e-07
2.27668568571e-07
2.53322303277e-07
2.32586848684e-07
2.14550261755e-07
2.29890911869e-07
2.44123590586e-07
3.39056816435e-07
3.46862064501e-07
3.48645249531e-07
2.73822699722e-07
2.63990914229e-07
2.05434460445e-07
1.85479645487e-07
1.17068959561e-07
1.11864419195e-07
1.39867036516e-07
1.20027245927e-07
1.30950265013e-07
1.03184025258e-07
1.00234147478e-07
6.62488373288e-08
5.1302127185e-08
1.5503194877e-08
8.08278834041e-09
4.05728961779e-08
7.14396736395e-08
9.31187876688e-08
1.25012511371e-07
1.28845536627e-07
1.5871621946e-07
1.40696792224e-07
1.64722400871e-07
1.19409868398e-07
1.32225084147e-07