# vtk DataFile Version 3.0
File Name: Molecule/sphere/sphere_0-s1.vtk
ASCII
DATASET UNSTRUCTURED_GRID
FIELD FieldData 1
TIME 1 1 double
0.0
POINTS 17 double
0.850650808352 -0.525731112119 0.0
0.525731112119 0.0 -0.850650808352
0.850650808352 0.525731112119 0.0
0.0 0.850650808352 -0.525731112119
0.0 0.850650808352 0.525731112119
-0.850650808352 0.525731112119 0.0
-0.525731112119 0.0 0.850650808352
0.525731112119 0.0 0.850650808352
0.0 -0.850650808352 0.525731112119
-0.525731112119 0.0 -0.850650808352
-0.850650808352 -0.525731112119 0.0
0.0 -0.850650808352 -0.525731112119
0.309016994375 0.5 -0.809016994375
0.309016994375 -0.5 -0.809016994375
0.0 0.0 -1.0
-0.309016994375 -0.5 -0.809016994375
-0.309016994375 0.5 -0.809016994375

CELLS 30 120
3 0 1 2
3 2 3 4
3 4 3 5
3 4 5 6
3 4 6 7
3 6 8 7
3 7 8 0
3 0 2 7
3 2 4 7
3 9 10 5
3 10 11 8
3 10 8 6
3 6 5 10
3 11 0 8
3 1 12 2
3 2 12 3
3 1 13 14
3 13 15 14
3 13 11 15
3 14 15 9
3 3 16 5
3 16 9 5
3 9 15 10
3 15 11 10
3 11 13 0
3 1 13 0
3 1 14 12
3 14 16 12
3 14 9 16
3 12 16 3

CELL_TYPES 30
5
5
5
5
5
5
5
5
5
5
5
5
5
5
5
5
5
5
5
5
5
5
5
5
5
5
5
5
5
5

CELL_DATA 30
SCALARS cell_data_0 double
LOOKUP_TABLE default
0.00145272288931
1.48595961343e-05
7.90868139709e-05
0.000230344582565
0.000541354281091
0.000199433419127
0.000141800581899
3.22915461713e-05
0.000204581383806
0.00106276855452
3.16527586352e-06
0.000125904626974
3.46925229049e-05
4.79552578117e-05
0.000866257824081
3.82506294428e-05
0.000343192827071
8.45868382087e-08
4.09642468015e-06
0.000353371131962
6.10062422605e-06
0.000667998485463
0.000629920265023
3.93491825205e-06
1.22210887673e-05
0.000670952856965
0.000353532261419
6.29150958635e-07
0.000353312516425
1.372588337e-06

