# vtk DataFile Version 3.0
File Name: Molecule/sphere/sphere_0-s2.vtk
ASCII
DATASET UNSTRUCTURED_GRID
FIELD FieldData 1
TIME 1 1 double
0.0
POINTS 25 double
0.850650808352 0.525731112119 0.0
0.0 0.850650808352 -0.525731112119
0.0 0.850650808352 0.525731112119
-0.850650808352 0.525731112119 0.0
-0.525731112119 0.0 0.850650808352
0.525731112119 0.0 0.850650808352
0.0 -0.850650808352 0.525731112119
0.850650808352 -0.525731112119 0.0
-0.850650808352 -0.525731112119 0.0
0.0 -0.850650808352 -0.525731112119
0.525731112119 0.0 -0.850650808352
0.309016994375 -0.5 -0.809016994375
0.0 0.0 -1.0
-0.309016994375 -0.5 -0.809016994375
-0.525731112119 0.0 -0.850650808352
-0.309016994375 0.5 -0.809016994375
0.309016994375 0.5 -0.809016994375
0.809016994375 -0.309016994375 -0.5
1.0 0.0 0.0
0.809016994375 0.309016994375 -0.5
-0.809016994375 -0.309016994375 -0.5
-0.809016994375 0.309016994375 -0.5
-1.0 0.0 0.0
0.433888564553 0.259891913008 -0.862668480416
0.663864736987 0.587191188171 -0.463130780147

CELLS 46 184
3 0 1 2
3 2 1 3
3 2 3 4
3 2 4 5
3 4 6 5
3 5 6 7
3 0 2 5
3 8 9 6
3 8 6 4
3 9 7 6
3 10 11 12
3 11 13 12
3 11 9 13
3 12 13 14
3 1 15 3
3 13 9 8
3 9 11 7
3 12 15 16
3 12 14 15
3 16 15 1
3 7 17 18
3 17 19 18
3 17 10 19
3 18 19 0
3 7 18 5
3 18 0 5
3 14 20 21
3 20 22 21
3 20 8 22
3 21 22 3
3 3 22 4
3 4 22 8
3 10 23 19
3 23 24 19
3 23 16 24
3 19 24 0
3 0 24 1
3 24 16 1
3 14 21 15
3 15 21 3
3 8 20 13
3 14 20 13
3 7 17 11
3 10 17 11
3 16 23 12
3 10 23 12

CELL_TYPES 46
5
5
5
5
5
5
5
5
5
5
5
5
5
5
5
5
5
5
5
5
5
5
5
5
5
5
5
5
5
5
5
5
5
5
5
5
5
5
5
5
5
5
5
5
5
5

CELL_DATA 46
SCALARS cell_data_0 double
LOOKUP_TABLE default
2.57541717536e-05
7.73350109401e-06
7.42193238985e-05
0.000877162799574
0.000694484380135
0.000154185217633
0.000157529002746
5.74291402282e-05
0.000170631931479
2.99865051183e-05
3.63731937472e-06
7.94544863234e-07
3.62935473451e-07
3.02657619297e-05
5.40731263759e-05
1.72066937499e-06
1.80781995326e-06
5.28613585683e-07
2.81866915879e-05
3.3370182162e-05
3.87700776483e-06
7.0125186279e-07
7.74412595475e-06
2.28702684293e-06
0.00028242289623
0.000302495899437
5.83645955848e-05
1.35785833346e-07
6.09666590557e-06
5.70022262336e-07
0.000297188650708
0.000276885868404
3.41950324701e-07
2.51863520006e-06
5.75822239079e-07
8.58418660407e-08
2.68117450915e-05
3.85888639746e-05
4.45424987732e-05
2.54496511387e-06
7.20389246435e-06
5.69646159402e-05
5.07017338002e-07
1.74057878313e-06
1.03998476574e-06
6.20304608178e-07

