# vtk DataFile Version 3.0
File Name: Molecule/sphere_excent/sphere_excent_0-s32.vtk
ASCII
DATASET UNSTRUCTURED_GRID
FIELD FieldData 1
TIME 1 1 double
0.0
POINTS 392 double
0.33777570724 -0.64125084877 0.68907755613
-0.002750386484 -0.85462975502 0.5193786025
0.49978911877 -0.81092238426 0.30349695683
0.85204052925 -0.32932010293 0.40664306283
0.8673774004 -0.49033424258 0.083224996924
0.98366862535 -0.15325386822 0.088828258216
0.49264749885 0.70824569464 0.50602126122
0.42100977898 0.55869793892 0.71397727728
0.70504850149 0.3736872375 0.60185724497
-0.52729392052 -0.83190983534 -0.17142002285
8.6539599579e-05 -0.99913811684 0.034499891102
-0.45138323307 -0.86210501194 0.22749252617
-0.90856766701 0.14013974369 0.39301717281
-0.97845250368 -0.16705693305 0.10569226742
-0.83882558346 -0.28123190999 0.4660692513
-0.84587132931 -0.51377254725 0.13431051373
0.46649965644 -0.86915552616 -0.16340181231
0.0082038631663 0.99940800667 0.0270423498
-0.27396476269 0.94444078207 0.18143227696
-0.015902370214 0.89305889606 0.44917017221
-0.36807155609 0.8173558712 0.4420042038
-0.25586289167 0.95449644327 -0.15355597436
-0.51984423399 0.85423785448 -0.0010862812633
-0.4886316359 0.81286501884 -0.31702184677
-0.53362756968 0.79859250784 0.27698603272
0.042265418917 0.94237470627 -0.33154812455
0.25792703032 0.95760345459 -0.12812757492
0.26996526122 0.93017619848 0.24779424071
0.44143438339 0.89708912373 0.02327487804
0.37250009179 0.84788990021 -0.37695905566
0.23398390412 0.76147323847 0.60397404432
0.57983744144 0.55418944359 -0.59715664387
0.41485252976 0.71746039391 -0.55964750051
0.5654771328 0.67887336016 -0.4680531919
0.17299105227 0.81007415056 -0.56013584137
0.93573200703 -0.31187698245 -0.16307254136
0.22898077965 -0.037418823689 -0.97257936001
0.13694292307 -0.19666019082 -0.97067034245
0.033212952316 0.025943201035 -0.99903964996
0.68523877859 -0.64086145163 -0.34637141228
0.5082296133 -0.6738280654 -0.5362932682
0.68190360069 -0.48557463288 -0.54687768221
0.63185817003 0.30783438683 -0.71133697033
0.70337682962 0.3204074502 -0.6343819499
0.68130815029 0.20787991583 -0.70182675123
0.67668968439 -0.23002326488 -0.69941490889
0.75331538916 -0.099519312382 -0.65004396439
0.76071405411 -0.29415515065 -0.578543365
-0.62304317951 -0.15487138927 0.76614612341
-0.46347481012 -0.34419092536 0.81642347574
-0.39298179746 -0.14847144485 0.90718144178
-0.28560468554 -0.30893316865 0.90719103813
-0.60605919361 -0.47220310569 0.63996142149
0.66473317146 0.65597474575 0.35344827175
-0.69541490078 0.70307171345 -0.14747875929
-0.67954301834 0.70561128855 0.2000477165
-0.76608651876 0.64039552212 0.051643550396
-0.47020095587 -0.34500831366 -0.81229513884
-0.51891964674 -0.50375020504 -0.69014489651
-0.62422829866 -0.32831430435 -0.70872652531
0.46964806318 0.86347234249 -0.18423511088
0.58618569374 0.74902904034 -0.30788421631
0.50832241774 0.84184014797 0.18014207482
0.072852559388 -0.58167636395 0.81010639668
-0.86466097832 0.40028902888 0.30266746879
-0.96022629738 0.27000191808 0.051435954869
0.51016741991 0.29350703955 0.80843615532
-0.012415651232 0.32446143031 0.94579023123
0.16712836921 0.34735742211 0.92251849174
0.030146081001 0.52506810427 0.85044878721
-0.034854557365 0.12707941234 0.99126976728
0.15326426923 0.15899771452 0.97528344393
0.092604458332 0.010140691884 0.99564230442
0.20987647772 0.57947313786 0.78747987747
0.33363491297 0.40267196298 0.85233134031
0.34478202462 0.1833896935 0.92062503099
0.50991791487 -0.032110262662 0.85942590237
0.28563326597 -0.016696128994 0.95815378428
-0.016200840473 -0.93881309032 -0.34337317944
0.21382878721 -0.92602163553 -0.31095251441
0.38251754642 -0.45643267035 -0.80333948135
0.53449106216 -0.50447827578 -0.67796766758
0.37670215964 -0.5920752883 -0.71238076687
0.85948288441 0.12141728401 -0.49628973007
0.77791339159 0.19774673879 -0.59642833471
0.83955425024 0.27062857151 -0.47093963623
0.80249321461 0.03602520749 -0.59545719624
0.71850925684 0.079338058829 -0.69095593691
0.86174345016 -0.13076668978 -0.49006637931
0.6062515974 0.092064917088 -0.78980576992
0.65116935968 -0.017993487418 -0.75871229172
0.52621871233 -0.026682391763 -0.84982013702
0.60563015938 -0.13749314845 -0.78375685215
0.054569106549 -0.87451124191 -0.48201408982
0.33755859733 -0.81868755817 -0.46424809098
0.30887767673 -0.71136641502 -0.63103759289
-0.26634639502 -0.90351337194 -0.33570879698
0.14941784739 -0.73756986856 -0.65853053331
-0.0028558264021 -0.78195828199 -0.62326228619
0.065452173352 -0.68275678158 -0.72771549225
-0.048238225281 -0.68556547165 -0.72637689114
-0.12380474061 -0.73193651438 -0.66996413469
0.10306339711 -0.59072995186 -0.80024927855
-0.015945158899 -0.60447627306 -0.79645770788
-0.099021725357 -0.86652261019 -0.48932865262
-0.25497859716 -0.82367628813 -0.50641751289
-0.45034617186 -0.77695989609 -0.43975663185
-0.11742062867 -0.61076492071 -0.78304040432
-0.11505275965 -0.53643858433 -0.8360170126
0.20880188048 -0.64902752638 -0.73149240017
-0.82079517841 0.20445501804 -0.53247153759
-0.76352846622 0.37641963363 -0.52415442467
-0.69554823637 0.31523168087 -0.64557832479
-0.66363668442 0.43534308672 -0.60832363367
-0.37548142672 0.18744815886 -0.90769004822
-0.46699374914 0.090047366917 -0.87965470552
-0.48578199744 0.19342543185 -0.8523876071
0.51871401072 -0.32745289803 0.78985154629
0.67703950405 -0.24849462509 0.69281929731
0.61244797707 -0.49467754364 0.61654675007
-0.76624840498 0.022322773933 0.64133918285
-0.60214787722 0.11910536885 0.78915739059
-0.71523046494 0.22339004278 0.66151201725
0.93200999498 0.11934423447 0.3403955996
0.86272776127 0.020902413875 0.50309741497
0.97085493803 -0.018188577145 0.23293951154
0.34964483976 -0.38670608401 0.85331481695
0.37869623303 -0.19909879565 0.90385884047
-0.21755412221 -0.46243649721 -0.85953736305
-0.36611428857 -0.50552225113 -0.78129482269
-0.31068614125 -0.39390730858 -0.86496424675
0.64066767693 0.14481748641 0.7539678812
0.23517812788 -0.18757733703 0.95369106531
0.096555054188 -0.38476896286 -0.91787987947
-0.018246339634 -0.28835511208 -0.95732444525
-0.15861570835 -0.36716187 -0.91639947891
-0.028618194163 -0.40335997939 -0.91458958387
-0.10675553232 -0.45534485579 -0.88389056921
0.0076917223632 -0.50487852097 -0.86312526464
-0.21971397102 -0.55193859339 -0.80441939831
-0.26795697212 -0.61170619726 -0.74429655075
0.92545223236 0.049437321723 -0.37545600533
0.84186142683 0.45433753729 0.28656738997
0.90534418821 0.41593360901 0.084871597588
0.79916709661 0.58986538649 0.11349206418
0.98030024767 0.01648517698 -0.19609868526
0.99413311481 0.10331014544 -0.031310454011
0.94432264566 0.15734609962 -0.28882500529
0.97034186125 0.18490023911 -0.15568229556
0.92975986004 0.27530267835 -0.2444293648
0.89456433058 0.27068051696 -0.35561844707
0.93851983547 0.3155143261 -0.14011183381
0.88530784845 0.35123813152 -0.30466485023
0.89620429277 0.39250358939 -0.20683695376
0.84840524197 0.43372768164 -0.3033491075
0.84186351299 0.36898347735 -0.39376530051
0.90303146839 0.4236176312 -0.071417011321
0.84716463089 0.49891412258 -0.18267726898
0.82812720537 0.55964910984 -0.02457193844
0.89887034893 0.17607903481 -0.40127784014
0.96071231365 0.276676476 -0.021103665233
0.96840763092 0.21255630255 0.12588691711
-0.041426628828 -0.14912450314 -0.98792827129
-0.1656331718 -0.2415574789 -0.95615899563
-0.1962479651 -0.12048056722 -0.97312229872
-0.30804735422 -0.28252109885 -0.90825217962
-0.23613035679 0.88227343559 -0.40706080198
-0.07252946496 0.53446304798 -0.84206527472
-0.12883280218 0.62547898293 -0.7695029974
0.018602862954 0.60898113251 -0.79294717312
-0.034005437046 0.73467588425 -0.67754864693
-0.22430431843 0.6944155097 -0.68362939358
0.13535128534 0.67450809479 -0.72573471069
-0.27629333735 0.58817213774 -0.7600594759
-0.042452357709 0.8475586772 -0.52876067162
0.70402145386 -0.70547127724 -0.079902045429
0.82328927517 -0.39516091347 -0.40747889876
0.83106517792 -0.51820594072 -0.20240573585
0.40764567256 0.605450809 -0.68362271786
0.28137499094 0.68640905619 -0.67054283619
0.27701997757 0.57830649614 -0.767359972
0.38333895802 0.4923479557 -0.78145134449
-0.33981579542 0.7739200592 -0.53419786692
-0.49524119496 0.69379854202 -0.52286034822
-0.36431434751 0.66654771566 -0.65033912659
-0.4708699584 0.60525918007 -0.64182943106
0.15144374967 0.40970817208 -0.8995218873
0.14954228699 0.53908789158 -0.82885843515
0.27716523409 0.45098763704 -0.84842711687
-0.39292114973 0.56199902296 -0.72785758972
-0.64384108782 0.61409717798 -0.45586982369
-0.58482557535 0.55084401369 -0.59531080723
-0.18214169145 0.79313743114 -0.58113342524
0.029785554856 0.4729065001 -0.88060748577
-0.12088968605 -0.032808899879 -0.99211591482
-0.17191085219 0.090888127685 -0.9808716774
-0.25621524453 -0.011357042007 -0.96655184031
-0.32380360365 0.090257354081 -0.94179791212
-0.33338427544 -0.1009836942 -0.93734067678
-0.40926229954 -0.013041757047 -0.91230541468
-0.47951078415 -0.14515902102 -0.86537724733
-0.53539162874 -0.040552247316 -0.8435959816
-0.57700765133 0.055793430656 -0.81481468678
-0.59574913979 -0.18780852854 -0.78068125248
-0.66159594059 -0.035465359688 -0.74895423651
-0.65072506666 0.11248095334 -0.7508149147
-0.74185866117 0.067623160779 -0.66697764397
-0.79324036837 -0.097291439772 -0.60093784332
-0.56347185373 0.15151621401 -0.81211256981
-0.27791157365 -0.18699298799 -0.9422031045
-0.38243684173 -0.2026616931 -0.90133482218
-0.077599346638 0.20138786733 -0.97642117739
0.072519570589 0.19251711667 -0.97859871387
-0.0015515856212 0.33288517594 -0.94296091795
-0.17056171596 0.31630927324 -0.93321424723
-0.24651673436 0.20384298265 -0.94747793674
-0.32699653506 0.31927230954 -0.88945525885
-0.42703181505 0.25098261237 -0.8687043786
-0.19011747837 0.52024722099 -0.83255976439
-0.31993997097 0.47917479277 -0.81741929054
-0.10514720529 0.42987331748 -0.89672505856
-0.23212303221 0.41656243801 -0.8790332675
-0.14788810909 -0.59892094135 0.78684669733
-0.3711181581 -0.60343837738 0.70568293333
[...]
CELL_DATA 780
SCALARS cell_data_0 double
LOOKUP_TABLE default
1.84785997756e-05
7.50921091717e-06
1.60749747646e-08
1.43679714066e-05
9.76609313847e-06
5.29767829988e-06
1.23453259698e-05
7.96092213975e-06
9.66842128541e-06
3.73813035065e-07
8.58538582108e-07
2.38066755705e-06
2.6515010542e-06
3.75754419973e-06
1.37229469247e-06
4.25111526657e-06
4.02015050703e-06
3.06488191658e-06
3.14201307273e-06
3.34422824282e-06
4.34535558623e-06
1.10517958829e-05
1.14984445234e-06
5.86574259447e-05
4.57455302731e-05
5.3447584615e-06
4.57854397346e-05
1.01638354286e-05
3.39467817673e-06
4.3241282903e-06
3.94703035969e-07
2.02342358244e-05
5.12446982255e-05
1.30869604859e-05
1.02978081694e-05
9.23952299922e-07
1.6090068149e-06
4.68022051892e-07
3.54006072315e-08
1.41763952702e-06
1.58705401631e-07
2.37476287029e-06
2.58025717171e-05
5.16437515222e-06
1.40118895607e-05
2.07504976012e-05
1.08070536263e-05
1.09929590261e-05
2.34069367633e-05
1.34853179871e-05
8.87787088256e-06
1.61116588402e-05
2.32163880186e-05
2.60882415167e-05
2.72227949813e-05
2.5535254849e-05
1.94594383236e-05
2.86982831742e-05
8.30008602665e-06
9.10791443841e-07
1.4409882642e-07
1.38524356396e-05
1.57774424736e-05
2.75115167478e-05
2.34431422998e-05
1.12407580174e-05
1.65567700422e-05
2.55794998054e-05
2.80118414177e-05
7.35940744923e-06
5.3491978389e-07
3.97732673505e-07
4.95423188961e-06
3.8661758051e-07
1.57966388034e-05
4.94897032371e-05
6.73402855569e-05
3.72159598818e-05
4.71385372209e-06
2.42735900395e-06
1.17320288819e-07
1.17076998726e-07
9.74963042293e-08
1.10710470027e-09
4.04740997572e-07
1.39776348524e-06
1.48807546289e-06
1.74634215866e-08
2.45289543331e-06
3.97619458685e-08
7.81194261712e-08
7.32949073826e-06
4.33506574041e-06
1.24399234814e-06
1.42769539602e-06
2.17124278556e-08
1.43289943248e-05
8.48100403721e-06
1.52907922082e-05
1.25495966061e-05
1.81153808573e-05
1.82790248106e-05
1.4705752073e-05
1.33041278362e-05
1.20898880518e-05
7.033978718e-06
8.82822494458e-06
2.17374054842e-06
9.4595173588e-06
1.3491407157e-05
1.41791137463e-05
4.55447151143e-07
1.16048609659e-05
8.78499253751e-06
1.31513919442e-05
2.05798031421e-05
6.60879618314e-06
2.19965273065e-06
7.96025821959e-07
3.5579874684e-06
4.66448693282e-06
2.74801908583e-06
3.50835292518e-06
4.06269634102e-06
3.30282389197e-07
5.93381405994e-06
2.45774788405e-06
4.79131756852e-06
4.52071016458e-07
6.03520510777e-06
1.27909654438e-05
7.65792876937e-07
1.79439182087e-07
3.72011605586e-07
2.23790637067e-07
3.63398111497e-07
1.35012553662e-07
2.37186651417e-07
1.58028843794e-07
2.88988863776e-07
1.01607713274e-07
3.90194073337e-07
3.83792533102e-07
2.13060755609e-07
1.26819469402e-06
7.8618877746e-07
1.8083407081e-06
2.73433056906e-07
2.78989885014e-07
1.58608017945e-07
2.83559950523e-07
3.2013011924e-08
7.63549121015e-07
4.97134903058e-07
5.05780677686e-06
5.01428549955e-06
9.4011576564e-07
5.19590277126e-07
6.44375048667e-07
8.00151706936e-06
1.74978852943e-06
7.67851959822e-07
3.50303774839e-06
5.5318327098e-07
3.1158746769e-06
3.33519932783e-06
2.55441593127e-07
1.66883754945e-07
2.81272341081e-06
3.17446475288e-06
3.08070519446e-06
1.21276355008e-06
1.33438968126e-07
1.36859803492e-07
1.26542050507e-07
1.37991558375e-07
8.38678836186e-09
1.4569595787e-07
1.02015294022e-07
1.73542091279e-06
3.13503351084e-05
4.47517773961e-06
3.76017825447e-06
1.23318899254e-06
1.43262973898e-06
1.11250802661e-06
1.93462782095e-06
1.35764848314e-06
2.04140312165e-06
2.9088126688e-05
3.00812057579e-05
3.64172982457e-05
1.21060444211e-05
1.13178280463e-07
2.66026267819e-07
2.1283294994e-07
1.56001729338e-06
3.09957010313e-07
1.91484104579e-07
2.0481230913e-07
3.29688288487e-07
8.54244628446e-08
8.73615253302e-08
3.24931626343e-07
4.54835299913e-06
2.74620318215e-07
1.15343022952e-07
2.1744814519e-06
7.57283131296e-08
4.00676034237e-07
4.02079495875e-07
2.11423434851e-07
1.85784242491e-06
3.2072196361e-08
8.07748430122e-08
7.06012507326e-08
1.37267588133e-07
1.80416600139e-05
1.66952577979e-07
2.86252865133e-06
3.68244332038e-08
1.27374842731e-07
1.09154047774e-07
1.35819082202e-07
4.31367310168e-08
4.54165922324e-08
1.22212349117e-07
1.19990933136e-07
5.36133274135e-08
4.87440487878e-08
1.32468778274e-06
5.76955821815e-08
1.37429448048e-06
6.22301949043e-08
1.06657630396e-07
1.27296036347e-06
2.33756588672e-07
1.32394909377e-06
4.25980753584e-07
3.77846526051e-06
1.48379540667e-07
6.91159522848e-08
1.49011839767e-07
3.89983547967e-08
7.40713218885e-08
2.1842679636e-07
2.20460857951e-07
2.00443726625e-07
3.25100144211e-06
1.08785724625e-08
1.33546646202e-07
6.65292037705e-08
1.82582637964e-08
3.14205082424e-09
1.01143535129e-07
2.20169315233e-07
1.38118969741e-08
4.43631996124e-08
8.90499627849e-08
1.09352159357e-07
7.90403018543e-09
7.73566643091e-08
3.08791288295e-07
8.89068706697e-08
2.427318454e-07
3.08783213671e-07
2.45674056381e-07
1.65747119562e-08
9.72213329044e-08
3.4269770532e-09
1.29246235798e-07
3.72155693379e-06
1.01150060218e-07
2.31452744841e-08
8.26892310319e-08
2.11175022714e-05
2.09889794482e-05
9.27541651576e-06
9.10773237218e-06
6.75207939206e-06
7.77023766728e-06
1.03247757384e-05
7.93387605372e-06
1.77998154114e-05
1.25039873039e-05
1.90125736457e-06
2.19840323546e-05
1.71290865985e-05
1.32797992617e-05
1.14159567892e-06
7.92952647584e-06
9.5918807817e-06
1.25127320254e-05
1.06442504802e-05
1.1372702079e-05
1.35179480965e-05
2.40041281723e-06
9.64081498562e-06
1.25296779439e-05
9.3919466724e-06
1.53288339382e-05
2.69639062718e-05
5.89945652314e-06
1.50743191064e-05
6.12643997892e-06
1.41031201793e-05
1.17270665603e-05
1.44441322702e-05
2.17416314649e-05
1.70869222274e-05
8.84168120326e-06
1.00652558381e-05
5.15304126086e-06
8.85130060611e-06
8.8737988036e-07
1.7710255099e-06
1.74375733259e-06
9.56306092571e-06
1.7033345065e-05
2.20558123512e-05
9.6531126164e-06
1.10070665624e-05
1.90402714294e-05
2.08558419871e-05
1.79962995556e-05
1.66544166943e-05
1.24290923275e-05
1.40450210506e-05
1.36453044404e-05
1.37600187189e-05
1.11079245092e-05
1.21940463243e-05
1.19661612579e-05
1.56637724278e-05
3.73853628539e-06
1.295708807e-05
1.13916705727e-06
4.00265054668e-06
1.47968362622e-05
1.37608086745e-05
1.36066868472e-05
9.80957036857e-06
1.10142352468e-05
1.15967974928e-06
1.50909551045e-05
1.28907963487e-06
4.9217184616e-07
1.55416813172e-05
1.05662640061e-08
8.26857888808e-09
2.25548113465e-06
1.35973675463e-07
6.43323868582e-06
4.61357875278e-06
5.55181496034e-06
1.06495734018e-07
5.69762056283e-08
1.13286162755e-07
1.04858328448e-08
2.33452293622e-06
2.83253520251e-06
2.46116290483e-08
1.69323784999e-08
3.42181488083e-06
4.30228839271e-07
1.76515179822e-08
4.83207257778e-08
1.46498601914e-07
6.93670345894e-08
1.64948109521e-05
1.52983458896e-05
5.28330862879e-08
2.97480282818e-08
6.27287232563e-06
3.34423884608e-06
5.1578668495e-06
1.54245804514e-09
3.34938689053e-06
3.28502803903e-06
6.6046897285e-06
5.18867788289e-06
6.38543359415e-06
1.66372691582e-05
5.59629681348e-07
1.06122795084e-07
5.51427644643e-08
9.07958999466e-06
3.78383887588e-08
2.32379233213e-08
3.47498792661e-09
2.62945126788e-06
7.045790789e-09
4.60138218789e-09
2.80379500397e-06
6.03736859829e-06
1.28061503594e-05
2.53768332168e-07
7.85668809937e-08
3.1807289051e-07
2.09578368882e-07
6.52738800044e-07
2.12097657092e-06
1.38952411289e-06
9.13314711288e-06
4.04172274335e-06
6.70011909414e-06
4.11223914762e-06
4.87421192832e-06
3.95087602253e-06
6.09841406293e-06
7.26963063574e-06
8.08252282329e-06
9.86098200513e-06
8.07947651914e-06
9.42585800259e-06
5.46021746614e-06
8.77817396022e-06
7.05856544366e-06
5.25983864141e-06
5.41412161897e-06
9.28602330846e-06
3.99189602812e-06
1.19487212009e-07
9.85761653e-09
3.1138458282e-06
1.36533340866e-05
2.1296722625e-05
2.2297985132e-06
4.07839306744e-06
9.5857286678e-06
2.56591895642e-06
8.87850121821e-06
3.93997177127e-06
1.56083102242e-06
3.09760491971e-06
3.14714090543e-06
1.92547596476e-06
2.54333384911e-06
4.60033556865e-06
1.44554419585e-06
6.44263834123e-09
3.89664993537e-06
2.69739724121e-06
1.48274203822e-06
4.45415446607e-07
4.27455815108e-07
6.06593938156e-06
4.75644692097e-06
1.7182500056e-06
6.78175754342e-06
2.89922079351e-06
1.76496587305e-08
2.79643563951e-06
5.34503617302e-06
1.85725127646e-06
9.5474584242e-06
6.84185776703e-06
1.04070296388e-05
9.87805701816e-06
1.96042621901e-06
2.82517625613e-06
4.89750781341e-06
4.42809326747e-06
1.57514410391e-06
2.14850660049e-06
2.12567568989e-06
2.06917807978e-06
3.2463044551e-06
3.01775254049e-07
5.82562624031e-08
2.55542372016e-06
2.26458931882e-06
3.3147545751e-07
2.43660006881e-06
1.37284433316e-06
6.99255074815e-07
9.80194838011e-07
4.61893920423e-06
7.74409098149e-06
5.75128800724e-06
1.15232797915e-05
9.81243303982e-06
1.07422473216e-05
7.42289182796e-06
1.31254705594e-05
8.99837474572e-06
7.59067456302e-06
5.0534036868e-06
1.00266951717e-05
1.06402018061e-05
1.00871954646e-05
1.38753595376e-05
2.00684195733e-06
1.75808740212e-05
1.70488729595e-05
8.17792652422e-06
1.91192282414e-05
7.19869726846e-06
2.11178460952e-05
2.51421794858e-06
1.37531194016e-07
9.70272233436e-08
9.67663243231e-06
1.29540416972e-05
1.15040208528e-07
1.26077460432e-07
3.0118001003e-06
2.91334028435e-06
6.12087936338e-06
2.68195718251e-06
9.72796536194e-06
1.52204164343e-07
1.0277942806e-06
5.99188730021e-06
4.56423551417e-06
1.56473371323e-05
4.99401281903e-06
1.72500506761e-05
3.43051219019e-07
1.48590775847e-05
2.06039232769e-05
1.08896384076e-05
7.98931461574e-06
7.40477978813e-06
6.99246236294e-07
3.04546199796e-06
2.37793830042e-06
1.31605620734e-05
9.07090776756e-06
5.85777626772e-06
1.00827088641e-05
5.73319306133e-06
4.84546098699e-06
2.17086873152e-07
1.25278639861e-06
2.41425683022e-07
5.17184800317e-09
5.39672849967e-06
4.31333021127e-06
1.13857372167e-05
2.79156462177e-06
7.21148075988e-06
3.48778847094e-06
1.582259208e-05
1.64104755158e-06
2.83596325117e-07
4.47836858806e-06
1.37435678803e-05
3.74201648991e-06
2.17828762049e-08
5.44155142349e-08
2.88958554401e-07
4.80883664329e-08
4.1816325241e-08
4.59218794356e-08
2.21370706395e-07
9.99875653569e-08
1.81873515365e-07
1.74121118317e-06
1.01772331053e-07
4.84504290024e-07
1.410054724e-07
9.47636805314e-06
5.90448795257e-06
5.87782477002e-06
5.01770307724e-06
4.90391670411e-06
8.44559390594e-06
5.29028067819e-07
9.55576350971e-07
1.08880825907e-05
7.14229271879e-07
9.3956386001e-08
4.55815886595e-08
1.07280103378e-07
4.51301051134e-08
8.24969513974e-08
1.27534644772e-07
8.26283896142e-08
4.64458473892e-08
7.65138203996e-08
3.4712292834e-06
1.50360786683e-07
1.48708333302e-05
5.34950055057e-06
6.89017060223e-08
8.51252735447e-08
6.88621394575e-08
7.35162810552e-07
9.20290866752e-07
2.6978842632e-07
1.60119898757e-07
2.41941344989e-07
2.38222040484e-07
2.44196750698e-07
1.37909552621e-07
4.49503589206e-06
3.7167817768e-07
3.39307293764e-06
2.18857840453e-07
1.27997010958e-06
1.56520831873e-07
2.0536977475e-07
8.22407159545e-07
1.18632358523e-07
3.11628987211e-06
1.94036063879e-06
1.0259521846e-05
3.64350411913e-07
9.74950126742e-06
7.7121029084e-06
1.02971054045e-07
1.31948443495e-07
1.47880839367e-06
1.22556332284e-05
2.95755537936e-06
1.64145795273e-06
1.32457743181e-06
1.72891171086e-07
2.38009127162e-06
3.06424766902e-07
1.41513131444e-05
4.54643182486e-06
4.111160539e-06
4.65888535469e-07
6.28854205789e-07
4.7197587576e-06
8.19002244681e-07
1.63627783989e-06
1.51421485419e-06
8.12837485342e-07
1.01762530477e-06
3.41087109339e-07
7.04304325274e-06
5.71520372066e-06
3.44075299956e-06
2.41879305467e-06
1.91611405301e-06
2.42889045666e-06
1.56097165367e-06
1.62760197101e-06
1.93992801106e-06
2.43741860886e-06
1.2036120545e-06
2.85439324411e-07
1.04668617313e-06
1.70116559393e-06
3.28399963865e-06
3.44018340599e-06
1.20735151038e-07
8.52424594798e-07
2.78908465429e-06
4.30654485781e-06
2.03019995804e-06
5.06407107666e-07
3.83273990852e-07
7.72761275215e-07
5.15127552271e-06
3.0135351115e-06
1.32493301009e-05
3.32222259287e-05
6.03888705842e-06
1.60609757058e-06
1.76106610612e-06
1.63788922463e-05
2.42761228096e-05
2.61222718206e-06
3.1030469355e-07
1.85449509584e-07
2.812734484e-07
1.29680511905e-07
3.44908281905e-07
7.76863476428e-07
1.42238053737e-06
4.17223915007e-07
3.0480691809e-07
7.46787085245e-07
3.24000102573e-07
3.26677981593e-07
5.56904118541e-07
5.83001906209e-07
8.34566632232e-07
6.22158340605e-07
1.06951712703e-06
1.1057704675e-06
8.5847147362e-07
2.53257991095e-06
4.86429430928e-06
2.50192181866e-06
8.73550888488e-07
1.02671120893e-05
1.09158412356e-05
1.16968935326e-06
3.66277291013e-06
2.58907106782e-07
1.14414034914e-06
2.24922166637e-07
2.54072523507e-07
3.92797788128e-07
2.37607724576e-07
1.30121520686e-06
4.15435921406e-06
2.99430001054e-06
1.77526319055e-06
1.1800266263e-06
1.97275926861e-05
2.42037319198e-09
7.97362530919e-07
2.32747739602e-05
3.86442670153e-07
2.15370376678e-07
8.87034863527e-07
9.73550031814e-07
3.05887477977e-07
9.02224962624e-07
5.94564658769e-07
5.93591960808e-07
1.01065100311e-06
8.86527289654e-07
2.28670112803e-07
1.68381818449e-05
1.22030654934e-07
5.68669217766e-08
1.23159506508e-08
1.15720622678e-07
2.57777483206e-07
1.52414182608e-07
3.23360190693e-07
5.02909862612e-07
1.97572554191e-07
2.88674926896e-06
2.09324969864e-05
7.0242119777e-09
1.69823057246e-07
9.32720814411e-06
1.66894913565e-05
1.06464519134e-05
4.99207403743e-07
7.39427102186e-07
1.75524965711e-05
1.21311148836e-05
8.94770097571e-07
1.27829284483e-06
9.95608855771e-07
2.36829196395e-05
9.16941346104e-07
3.46698524488e-06
3.95019304936e-06
2.4113750658e-07
4.71764980228e-07
4.01661236712e-07
1.08990250756e-05
4.66412674904e-07
5.31861180642e-07
2.14085582872e-05
1.0662316017e-06
6.55582483543e-08
1.44235837423e-05
1.9246743923e-06
7.55717014706e-06
6.67652064037e-07
7.73328891359e-07
3.9725910499e-06
2.67818786758e-06
4.93009654135e-06
3.3323763444e-07
8.58407809315e-06
2.53576097871e-06
3.31629130237e-06
9.08603986939e-07
1.30646351637e-05
3.15395019309e-06
1.8258679174e-06
5.034541436e-06
9.45753203042e-06
5.27332353632e-06
4.61010654379e-06
1.11278808087e-06
5.33701775553e-06
1.79381484513e-05

