# vtk DataFile Version 3.0
File Name: Molecule/sphere_excent/sphere_excent_0-s27.vtk
ASCII
DATASET UNSTRUCTURED_GRID
FIELD FieldData 1
TIME 1 1 double
0.0
POINTS 343 double
0.33741179109 -0.62169957161 0.70689815283
0.0028438111767 -0.85057169199 0.52591532469
0.50044482946 -0.80965834856 0.30606544018
0.85000872612 -0.32963231206 0.41059362888
0.86556577682 -0.49464574456 0.072515696287
0.98714113235 -0.13080784678 0.092004969716
0.52379745245 0.71890848875 0.45565012097
0.39120557904 0.56951063871 0.72089660168
0.72135734558 0.35692942142 0.59326702356
-0.5495031476 -0.80791598558 -0.20746906102
-0.0021054509562 -0.99938136339 0.027632132173
-0.47058960795 -0.84436893463 0.25237935781
-0.8965575099 0.16598846018 0.40938651562
-0.98892337084 -0.12861938775 0.072244279087
-0.82659900188 -0.29698577523 0.47723579407
-0.8384218812 -0.53450417519 0.077780291438
0.47882604599 -0.85768336058 -0.18587829173
0.0072571486235 0.99967628717 0.015353156254
-0.26627328992 0.94668596983 0.18109865487
0.0041230572388 0.86820501089 0.49269244075
-0.44687369466 0.79073637724 0.41802054644
-0.2582230866 0.95137310028 -0.1685128212
-0.51350218058 0.85800337791 0.0017401828663
-0.48696807027 0.80542701483 -0.33810311556
0.03899589926 0.9328546524 -0.35731890798
0.26564314961 0.95405566692 -0.13845254481
0.27420929074 0.93465077877 0.22375413775
0.45286896825 0.89123719931 0.025172866881
0.39652663469 0.83592355251 -0.37911617756
0.21496510506 0.74326717854 0.63151305914
0.59143435955 0.5319892168 -0.60592699051
0.42615777254 0.70572215319 -0.56597590446
0.59609729052 0.6587792635 -0.45645350218
0.15701700747 0.80143731833 -0.57664358616
0.94334602356 -0.25623646379 -0.21181415021
0.80394536257 -0.39634269476 -0.44165980816
0.87529993057 -0.13134437799 -0.46545946598
0.97547054291 -0.018002308905 -0.21952226758
0.41333007812 -0.27211734653 -0.86759281158
0.18055233359 -0.21947477758 -0.95868760347
0.37635263801 -0.043055426329 -0.92464333773
0.23962901533 -0.41457670927 -0.87727546692
0.24330617487 -0.0022253983188 -0.9691594243
0.027791377157 0.033738199621 -0.99890619516
0.67720377445 -0.64044588804 -0.36255711317
0.48912546039 -0.67552804947 -0.551648736
0.69090950489 -0.45046985149 -0.56364047527
0.61854100227 0.31831690669 -0.71829992533
0.70488965511 0.34590545297 -0.61760097742
0.68052816391 0.22117120028 -0.69849872589
0.68223041296 -0.22905942798 -0.69361805916
0.75584185123 -0.073610268533 -0.64987814426
0.7514911294 -0.31039825082 -0.58069473505
-0.6123829484 -0.11968436837 0.7807765007
-0.46207028627 -0.323687464 0.82553577423
-0.37481954694 -0.12442309409 0.91854834557
-0.27128395438 -0.30388021469 0.91324263811
-0.598282516 -0.47975471616 0.64135891199
0.93453198671 0.11411923915 0.33620458841
0.96758431196 0.21291045845 0.13553456962
0.84308636189 0.4426908493 0.30519372225
-0.95452624559 0.049603879452 -0.29416576028
-0.87055140734 -0.32700818777 -0.36648362875
-0.78254878521 -0.12678661942 -0.60935717821
-0.82981383801 0.19664935768 -0.52241319418
-0.86945259571 0.40778881311 -0.27892094851
-0.96734285355 0.25200107694 0.023253751919
-0.85177963972 0.52388465405 0.0026239727158
-0.66579186916 0.59888911247 -0.44511756301
-0.70688152313 0.68547940254 -0.17509405315
-0.69507396221 0.6909352541 0.19845461845
-0.46590360999 -0.33458122611 -0.81870573759
-0.63049262762 -0.4560880959 -0.62536114454
-0.6014585495 -0.1785119772 -0.77828317881
-0.50812786818 -0.54993844032 -0.66132682562
0.50477552414 0.84818696976 -0.1599663645
0.62543344498 0.70833128691 -0.32176887989
0.64347326756 0.76556926966 0.0065394029953
0.6552618742 0.72814339399 -0.19609563053
0.80782085657 0.58929646015 -0.00080830324441
0.71254706383 0.6741784811 0.19477140903
0.54007083178 0.81858104467 0.19544310868
-0.64297795296 0.5794326663 0.49959808588
-0.3557703495 0.60881817341 0.70782262087
-0.84376651049 0.45843943954 0.27820581198
-0.71037387848 0.40610197186 0.57268685102
0.058116532862 -0.5550006628 0.82959729433
0.51173341274 0.28280887008 0.8113642931
-0.010309834033 0.31642618775 0.94851720333
0.16818483174 0.31316629052 0.93370145559
0.026431813836 0.53711152077 0.84264105558
-0.038717918098 0.12168736011 0.99184137583
0.14650917053 0.14204353094 0.97892826796
0.08649661392 0.00014298805036 0.99621856213
0.20222684741 0.57660079002 0.79156059027
0.31175804138 0.39956629276 0.86172407866
0.3427695334 0.17595672607 0.92281961441
0.51449733973 -0.025481050834 0.85695588589
0.27891212702 -0.020591074601 0.96006119251
-0.01357817743 -0.92633879185 -0.37553733587
0.21909481287 -0.91778379679 -0.33097869158
0.37267711759 -0.46237978339 -0.80445325375
0.56360679865 -0.48259246349 -0.66791194677
0.35369420052 -0.59440255165 -0.72170650959
0.85691791773 0.13380756974 -0.49762895703
0.77572286129 0.20707587898 -0.59612953663
0.83231145144 0.30141592026 -0.463629812
0.80286592245 0.051133725792 -0.59385234118
0.71662157774 0.088335059583 -0.6918361187
0.59886318445 0.1050535664 -0.79393529892
0.65148037672 -0.01687547937 -0.75845861435
0.50956463814 -0.036908552051 -0.85920506716
0.60124778748 -0.14062355459 -0.78645414114
0.069224335253 -0.86143475771 -0.50263500214
0.31984838843 -0.80699592829 -0.49537375569
0.2793404758 -0.70406860113 -0.65215069056
-0.26300099492 -0.89656347036 -0.35653907061
0.14594899118 -0.74317771196 -0.65281671286
-0.0077380156144 -0.77321100235 -0.63401687145
0.064234107733 -0.68488651514 -0.72579914331
-0.05535620451 -0.68325394392 -0.72805643082
-0.13642191887 -0.7235430479 -0.67641752958
0.093781478703 -0.59233999252 -0.80021315813
-0.026369506493 -0.60143184662 -0.79848080873
-0.099441289902 -0.85448664427 -0.50984281301
-0.24080915749 -0.80849635601 -0.53641909361
-0.41985425353 -0.76061671972 -0.49394994974
-0.12941253185 -0.61011189222 -0.78163456917
-0.12242174149 -0.53539806604 -0.83564209938
0.19106057286 -0.64611595869 -0.73883408308
-0.74873369932 0.40314090252 -0.52629637718
-0.67707818747 0.31288409233 -0.66608214378
-0.64489758015 0.43317404389 -0.62936687469
-0.71596521139 0.093159496784 -0.69059681892
-0.38589322567 0.18949511647 -0.90289187431
-0.46629923582 0.088479265571 -0.88015317917
-0.4935246706 0.20491671562 -0.84505522251
0.51275742054 -0.31205108762 0.79993319511
0.67853397131 -0.22380746901 0.6999605298
0.61415100098 -0.4743463695 0.63062083721
-0.75284439325 0.051872316748 0.6556032896
-0.57618278265 0.13844235241 0.80563801527
-0.69428068399 0.24508026242 0.67584401369
0.84735053778 0.019919807091 0.53081470728
0.33793756366 -0.38523676991 0.85866320133
0.37256637216 -0.19252166152 0.90782779455
-0.22145424783 -0.45717760921 -0.86127215624
-0.37020018697 -0.50411880016 -0.7800770998
-0.2991887033 -0.37288171053 -0.87818390131
0.65225625038 0.13079296052 0.74644088745
0.22062824667 -0.20043304563 0.95443123579
0.089253939688 -0.40497842431 -0.90966534615
-0.010629567318 -0.30024725199 -0.95373046398
-0.14854824543 -0.36855497956 -0.91765570641
-0.03216040507 -0.41006472707 -0.91148883104
-0.11198886484 -0.45483738184 -0.88347274065
-0.0020271446556 -0.50627982616 -0.86233729124
-0.22456926107 -0.55114102364 -0.80362689495
-0.26548942924 -0.61387741566 -0.74336063862
0.92377483845 0.063313916326 -0.37730333209
0.91283792257 0.4015250206 0.074323549867
0.99267220497 0.1108930558 -0.046169646084
0.94120502472 0.16430552304 -0.29514560103
0.96711409092 0.1937417239 -0.16468605399
0.92731112242 0.28161585331 -0.24649050832
0.89796715975 0.2667427659 -0.34948644042
0.93568629026 0.3212415874 -0.14587469399
0.87993472815 0.35532683134 -0.31518623233
0.89312434196 0.39459824562 -0.21591414511
0.83362460136 0.44484502077 -0.32557794452
0.83124303818 0.38521254063 -0.40051078796
0.90184807777 0.42538943887 -0.075677521527
0.84755152464 0.49786344171 -0.18370704353
0.89517939091 0.18752406538 -0.40440180898
0.95958304405 0.27990087867 -0.029119703919
-0.043166663498 -0.15613499284 -0.986743927
-0.17585030198 -0.24485953152 -0.95345664024
-0.20126537979 -0.11955863237 -0.97220832109
-0.3218678236 -0.26476615667 -0.9088973403
-0.24632672966 0.86882615089 -0.42883360386
-0.071164183319 0.53158974648 -0.84400105476
-0.12922795117 0.62275362015 -0.77166736126
0.015364316292 0.60825318098 -0.79358649254
-0.039324089885 0.72711956501 -0.68536508083
-0.22712147236 0.68582981825 -0.69141113758
0.12677501142 0.6724140048 -0.72921133041
-0.28796505928 0.56991660595 -0.76956236362
-0.05558071658 0.83479255438 -0.54728859663
0.70775473118 -0.69990080595 -0.094674870372
0.83264911175 -0.50901162624 -0.2182714045
0.41148364544 0.59293478727 -0.69217044115
0.27522110939 0.67970663309 -0.67983222008
0.28236845136 0.57037371397 -0.77131730318
0.4081723392 0.4785964787 -0.77705991268
-0.33683630824 0.76410323381 -0.54997563362
-0.48573285341 0.69789224863 -0.52626359463
-0.36661928892 0.65617018938 -0.6595723033
-0.48068881035 0.60178995132 -0.63771927357
0.15848045051 0.3946005702 -0.90482920408
0.15047648549 0.53547030687 -0.83103370667
0.2931804359 0.44124945998 -0.84812474251
-0.41112390161 0.54387277365 -0.73139441013
-0.18686196208 0.78118938208 -0.59561562538
0.032372564077 0.46662220359 -0.88385349512
-0.12674956024 -0.031506866217 -0.99140411615
-0.17766569555 0.091014139354 -0.979827106
-0.26092091203 -0.0099991774186 -0.96532183886
-0.32593780756 0.093028277159 -0.94079697132
-0.33331871033 -0.096797510982 -0.93781244755
-0.40030691028 -0.010542162694 -0.91628563404
-0.47119709849 -0.13330724835 -0.87173420191
-0.52425462008 -0.033816915005 -0.85080873966
-0.5762887001 0.054450884461 -0.81536459923
-0.65457546711 -0.027056565508 -0.75547999144
-0.63481837511 0.13066911697 -0.76137089729
-0.56122720242 0.15779946744 -0.81245934963
-0.28150346875 -0.17970009148 -0.94254851341
-0.3814086318 -0.1892618835 -0.90468531847
-0.080826081336 0.20084819198 -0.9762340188
0.084885202348 0.19696880877 -0.97645896673
-0.009642268531 0.33316126466 -0.94280332327
-0.18052984774 0.31631991267 -0.9313146472
-0.25258639455 0.20282199979 -0.94608789682
-0.33251076937 0.31575623155 -0.88863271475
[...]
CELL_DATA 682
SCALARS cell_data_0 double
LOOKUP_TABLE default
1.89634649668e-05
1.19186546287e-05
2.03306691344e-06
1.93339128768e-05
1.17337370077e-05
8.30430694822e-06
1.57912731472e-05
1.1434058719e-05
1.28655176134e-05
7.74130060935e-06
2.36300500022e-06
3.96287567588e-06
3.14049350788e-06
3.90820044667e-06
1.56712284902e-06
3.6998464208e-06
3.55452322065e-06
2.87599360791e-06
2.79756266956e-06
3.99566713383e-06
4.87291748361e-06
1.39360971364e-05
2.05372662886e-06
2.26905954997e-07
5.78992247614e-07
5.69151627622e-06
3.56256506997e-07
2.94554230587e-06
1.31021435831e-05
1.61566426767e-05
6.89654472924e-05
0.000159043200175
8.26878631133e-05
4.67543449734e-07
5.72619006511e-07
4.05479689588e-06
1.66218912133e-05
1.2049145149e-05
1.37296044096e-05
9.13216286034e-06
3.93967969554e-06
4.37393220555e-06
1.01415403581e-05
1.42612299277e-05
3.20261082889e-06
8.35343651599e-06
1.69020411193e-06
1.76283667606e-09
3.18772485562e-06
4.3477501798e-07
8.36824984727e-06
4.39459052998e-06
1.98576086022e-06
7.21651905673e-06
5.82428394676e-06
2.73080680372e-05
9.14162070338e-06
1.45029148566e-05
1.2185681127e-05
3.51731509201e-05
2.39939571451e-06
2.09787905497e-05
1.21857954337e-05
4.41376026731e-05
7.75534942604e-05
4.35608414424e-05
5.71109138417e-05
2.06760627792e-07
2.208109645e-06
2.91233929591e-05
2.13667977882e-05
2.22888307906e-05
9.23636025582e-06
2.18866901692e-05
9.21231711166e-05
0.000210453728578
0.000101637938114
7.68408015835e-05
2.54854696699e-05
3.04715472555e-05
2.86258515636e-05
7.22348217266e-05
6.06421834888e-05
1.73202592427e-05
1.40619206109e-05
1.13501054754e-05
8.90767204698e-06
1.00545643775e-05
1.43156978214e-05
1.08885983194e-05
1.00223845824e-05
1.03282514537e-05
1.62914823745e-05
1.08597898843e-05
1.06443720283e-05
9.57179770402e-06
1.55930833587e-05
1.48588318987e-06
4.18370793255e-06
3.08482110101e-05
1.79971368782e-06
5.76528257939e-07
1.74179881317e-08
5.30286420335e-08
5.63306248005e-08
2.71606131258e-08
8.51692006061e-08
1.63566481903e-07
6.14070813785e-08
2.97347735667e-08
1.24759103147e-07
4.91490365551e-06
1.65213659051e-07
1.57772022513e-06
1.2313474613e-06
1.01184956808e-06
1.86964542594e-08
4.29351875448e-06
1.87897950757e-06
6.64911619657e-09
8.82531782372e-08
5.6213807184e-08
1.99040195818e-06
3.8280741919e-06
9.8630135802e-06
1.89229422561e-05
3.98941674149e-06
3.67395495025e-06
1.78823410991e-06
1.07268031167e-07
6.60073124711e-06
3.59909566319e-06
2.30524796856e-05
1.60471786073e-05
1.74924441452e-05
2.13354156979e-05
1.97465103285e-05
4.24331318916e-05
4.55186736432e-08
1.83970144606e-05
3.17108273336e-06
1.00624346847e-05
3.35065069532e-05
3.54173671431e-05
1.95873221714e-05
1.53464666436e-05
1.45190299933e-05
1.04428487436e-05
5.42128256237e-06
7.93545645256e-06
8.5630264866e-06
8.16712429523e-06
6.8061291996e-06
1.2455918203e-05
1.18543947871e-05
2.26055862834e-07
1.11799274461e-05
8.97533631332e-06
2.22492869776e-05
1.2762322929e-05
1.64032456308e-05
3.67799366187e-07
6.61386422746e-07
4.09304090303e-07
5.87838672104e-07
3.12173410593e-07
1.42558040691e-07
2.94475547563e-07
2.37733495675e-07
8.54353070202e-06
1.52663570204e-06
2.52175139536e-06
2.59146030062e-06
8.83810897789e-08
1.00609355287e-05
2.47933102814e-06
1.86982392949e-06
1.32012289832e-05
1.89197619741e-06
6.27401759571e-06
5.59108255906e-08
6.65072562797e-06
4.45542790562e-06
5.11206750878e-06
7.94734557041e-09
2.6196326012e-06
4.09877048354e-06
5.70127012037e-06
5.01399506363e-06
4.11963871816e-08
3.86490977271e-06
2.42187904763e-06
9.7056769167e-06
1.22534242206e-06
8.17062692994e-08
7.27453655663e-08
5.94451392584e-06
6.02624457296e-06
6.4366710437e-06
2.40362384673e-07
5.80170684061e-06
8.61735377889e-07
8.93398188989e-07
3.43152498035e-07
5.64755633897e-06
1.99902968875e-06
2.71546750897e-05
1.69362950003e-05
3.59382463184e-10
4.73453595823e-08
1.37981090922e-07
1.09562605391e-07
1.88782332189e-07
7.92439261735e-07
1.3928970098e-06
1.59794027725e-07
1.44279396125e-07
1.25398352284e-07
2.55135240161e-06
1.67261106965e-08
1.93025211468e-09
3.30819745135e-08
2.47084809644e-08
6.56055921333e-08
1.13318977828e-07
1.96927818844e-07
1.64064496872e-06
8.4660163242e-07
5.52202010175e-06
4.99289992979e-06
2.13942149339e-06
1.31383296788e-06
8.08361379571e-07
1.81297412051e-06
2.49123785725e-06
3.08020097214e-06
6.31705000973e-07
1.87123239243e-06
1.89453738599e-07
1.86892223656e-07
2.08542879073e-07
1.25446093459e-06
9.39889232694e-09
1.74810503044e-06
3.37302898207e-08
5.54015456849e-08
7.12900035385e-06
4.05157235427e-07
8.89090517756e-08
3.97399464616e-08
9.55884756354e-07
1.30029586699e-06
5.83951060845e-06
1.14179690319e-07
3.73304017709e-06
1.36282037879e-05
8.71428037135e-08
1.14560587987e-07
1.02560282789e-07
2.85661717628e-06
1.93861541331e-08
4.37136133865e-09
4.32345402421e-08
1.00105436162e-07
1.4411943571e-07
8.83980136877e-08
1.61546016922e-07
5.65367687044e-08
1.40557306503e-07
9.8096836396e-08
1.47614247259e-07
9.54205622984e-08
1.57172222225e-07
1.4791467654e-07
1.27169639712e-07
3.66832492644e-08
9.43911310772e-08
1.00952288521e-06
1.25011326553e-07
9.68416492702e-07
2.03030109816e-09
2.38782372673e-06
2.58454886264e-05
1.06212352353e-06
4.27987734524e-06
2.29262888962e-05
1.02283184445e-06
1.45977364885e-07
1.60299726531e-07
9.69964117509e-08
1.87160237833e-08
4.36009741303e-09
6.58452087795e-08
7.35062740085e-07
5.00927321947e-07
2.25667828227e-10
9.01166649594e-08
1.74764296279e-07
5.44725335925e-08
1.81218179756e-07
1.07418024642e-07
7.06842765745e-08
4.62434287249e-08
1.77577462469e-07
6.3959909859e-08
9.19752565865e-09
9.91999162178e-09
8.18516015898e-08
1.29048488583e-07
1.90550203188e-09
1.61687233354e-12
3.02018607607e-07
1.20670559035e-07
4.97003948256e-08
2.06980860831e-09
3.0911948496e-07
2.85154610568e-08
6.80543853785e-09
8.53899198296e-08
1.88511100807e-07
1.78829528965e-07
1.17048743887e-07
7.20053140956e-08
7.84367871423e-08
2.27971946079e-05
2.13310360409e-05
9.07098160208e-06
1.03878674725e-05
6.40405534751e-06
7.24040800028e-06
8.30224152927e-06
8.34965924974e-06
1.6924076469e-05
1.20412721224e-05
9.38398859368e-06
6.86136730443e-06
1.87311992002e-05
1.20526436028e-05
8.93307619505e-06
1.00678707821e-05
4.39899391535e-06
3.69975339017e-06
1.19156158916e-05
1.28431813733e-05
1.29571794887e-05
9.41058914125e-06
1.30942123823e-05
9.91181143207e-06
1.13506326186e-05
1.07085940688e-05
1.32864717431e-05
1.06355156466e-05
1.02092326222e-05
7.09970064987e-06
8.27344770588e-06
6.67573669018e-06
1.02403963296e-05
1.11741191521e-05
1.101532698e-05
6.43308717863e-06
7.74136464973e-06
4.77286365559e-07
3.5379996004e-06
1.51125091845e-05
1.23158824302e-05
5.5643505711e-06
6.18809212264e-06
1.65800240994e-05
2.11301308324e-05
1.7591930859e-05
9.14059913153e-06
1.79625690076e-05
2.12074328455e-05
1.96538418423e-05
7.09182472543e-06
1.85375172026e-05
1.45677651113e-05
1.22926420055e-05
1.53249737636e-05
1.07088812468e-05
6.37089653056e-06
1.36632860571e-05
1.57798057264e-05
1.00728815067e-05
1.4520420758e-05
2.11738933743e-06
1.66817273817e-05
1.38530991472e-05
8.88980817205e-06
1.48581805063e-05
1.3689738513e-05
1.32771199874e-05
8.13204746645e-06
1.60050969173e-06
4.83156145304e-06
1.13353959063e-05
9.74826082978e-06
2.1375370073e-05
6.63150023421e-05
3.07523007623e-05
7.21420600182e-05
7.72447328105e-05
6.96635848858e-05
1.45659720605e-05
1.17243190681e-05
2.60741649065e-05
5.08053415238e-05
3.27307123703e-05
7.37377697919e-06
1.24199157148e-05
1.26394425733e-05
2.51625290383e-05
1.91080950122e-08
9.95512190849e-07
5.78135867204e-06
5.39205345271e-06
3.50604969427e-08
3.96474435951e-08
2.30492934642e-06
7.14336425478e-08
1.10560491301e-05
9.27254231344e-06
1.6050361657e-08
1.93583273277e-08
3.64541440854e-06
3.51966961139e-06
3.08811585849e-06
8.41119786153e-09
3.22808079855e-06
3.33881922414e-06
4.4496857825e-06
6.77169546687e-06
7.28482717789e-06
2.1753412754e-05
8.83779718011e-06
1.96520702466e-06
9.42690851103e-08
5.27286240803e-06
3.08130745019e-08
1.13395217839e-08
5.41793097198e-09
2.81258788227e-06
6.61222533777e-07
1.17666938899e-06
3.60047765834e-06
2.49374836818e-06
1.10400487397e-05
7.35770428978e-08
1.32394503527e-07
1.21643554213e-05
3.33564936482e-06
3.36335768013e-08
3.04318317251e-08
3.25160020689e-08
3.66189304766e-06
6.36028139027e-06
6.67993862757e-06
2.5970155134e-06
3.42429798537e-06
4.23755502663e-06
2.9843697472e-06
5.74830117238e-06
6.05346911395e-06
9.12663441392e-06
1.00553425801e-05
6.69553520025e-06
4.0557078485e-06
7.78744226666e-06
4.02380034486e-05
3.80168125732e-06
4.25013182357e-06
5.15518219704e-06
8.1267622893e-08
3.30104737932e-08
3.81959537704e-08
3.60494331846e-06
1.14783718565e-05
2.71114824482e-05
2.35820241755e-09
9.00063752647e-07
3.75810069106e-06
6.7755791603e-06
5.77421024768e-06
2.20453568802e-06
2.72078225064e-06
6.26798298356e-06
1.01591019797e-06
2.2336064657e-06
5.22175198558e-06
3.33951773384e-06
3.07351977101e-06
7.68643457088e-07
3.3384796983e-06
3.15074378287e-06
1.66934604203e-06
1.15708604645e-08
1.48610194027e-08
3.42246280511e-06
3.18842974053e-06
6.93295514062e-07
3.7647271164e-06
2.25989022277e-06
3.16374049504e-08
3.81275444222e-06
7.81969150258e-06
2.05266713258e-06
1.27800617682e-05
9.20873217373e-06
1.15857564919e-05
1.19259596545e-05
2.8719413818e-06
2.84043400451e-06
5.29166479821e-06
4.09958812898e-06
1.15343791532e-06
1.52627886329e-06
1.12450698193e-06
1.35159289659e-06
5.40341082012e-05
4.09854972622e-07
2.37002116072e-07
2.56906042542e-07
2.0028229679e-06
2.40057255367e-06
2.03651908493e-06
1.22360339475e-05
6.3994816356e-07
8.11601982681e-07
4.77398431778e-06
7.05218431041e-06
5.61378831901e-06
8.24681626975e-06
7.78060428967e-06
8.45141402073e-06
6.71079740575e-06
8.25232638058e-06
7.18073356584e-06
5.3625823791e-06
4.34469112816e-06
4.12713978269e-06
5.42166081895e-06
8.25565849874e-06
9.02330132558e-06
2.27881508279e-05
1.52061913201e-05
7.76467294589e-06
6.72340945544e-06
7.76427486923e-06
9.7960217894e-06
3.51032381342e-07
3.14991552609e-07
1.15163857645e-07
1.74745722108e-06
2.18187886602e-06
2.38920873842e-06
3.79665931272e-06
3.40366930366e-06
3.01071302657e-08
1.37560196518e-07
5.58563131918e-06
1.32010715165e-05
1.99576988472e-05
1.55734487307e-05
1.43296940271e-05
2.88102975618e-06
1.94186736486e-05
3.17842700043e-05
1.96278553531e-07
9.41747967276e-07
9.74536107094e-06
3.2360217464e-07
2.22092825116e-07
1.42719482268e-05
1.03883007117e-05
2.66124667498e-06
2.32554300702e-06
3.08726957571e-06
2.94334543712e-07
4.255428636e-08
6.63089456387e-06
4.36782921403e-06
1.43716619145e-06
1.07368323511e-05
1.69033857797e-06
1.67467245001e-06
2.52499054679e-08
2.71940771694e-06
3.89327319727e-08
1.20645132788e-08
2.00583102113e-06
3.49291892312e-08
7.8433103757e-09
3.2009334739e-08
2.152152494e-06
4.64263505763e-07
6.43329293684e-06
1.48208985598e-05
6.95334943775e-06
2.27583621813e-06
9.26228461636e-06
3.5716865289e-06
1.35457199807e-08
2.24845703646e-06
6.49731494288e-06
2.46581138024e-06
1.98505118281e-08
9.91141565892e-07
6.54435371625e-06
2.45990015129e-06
1.40590660309e-07
1.14805788711e-06
8.85723420929e-07
1.70116362445e-05
6.3913685452e-06
2.13988571851e-06
1.53424159532e-07
1.73113581497e-05
1.18932721869e-07
3.49094346044e-07
1.1246219393e-06
9.69559050482e-06
1.44423531403e-05
1.17923012635e-05
1.00652608954e-05
3.10846506684e-06
3.56970443633e-07
7.98314124739e-07
3.55110754331e-08
7.36051250035e-06
1.97121921342e-06
7.02269241429e-06
2.41179515012e-08
2.48965785277e-06
1.67298121564e-06
9.51714582644e-06
4.66878994034e-08
2.88674749597e-08
3.70336902193e-06
2.33133627231e-08
1.7811191751e-05
1.66243033225e-07
5.71163106941e-08
8.52699108448e-06
6.49786827137e-07
8.99621389104e-07
2.23979690819e-07
3.52455851276e-06
8.5621624121e-07
8.85497039381e-07
6.77534574459e-08
3.54072562644e-06
7.16752906595e-08
4.05238714626e-06
4.2503127684e-06
4.8881870676e-06
1.46767882041e-06
2.77225134369e-06
4.13299905199e-06
1.10480196685e-05
2.17454653373e-06
1.68060492622e-06
2.08953975601e-06
1.24498802591e-05
1.95269472378e-06
8.44497526646e-06
8.14497845383e-06
4.73554157259e-06
3.83308496468e-06
1.20672079306e-05
4.87433472385e-06
1.25341604321e-05
1.2776552041e-05
2.32737037824e-06
5.26857588011e-10
2.27626035052e-06
5.24010821485e-08
1.84877748875e-05
4.56529608351e-06
3.77244280744e-06
7.0521011812e-06
2.79157642669e-07
5.59073666737e-06

