# vtk DataFile Version 3.0
File Name: Molecule/sphere_excent/sphere_excent_0-s37.vtk
ASCII
DATASET UNSTRUCTURED_GRID
FIELD FieldData 1
TIME 1 1 double
0.0
POINTS 501 double
0.338804245 -0.65283840895 0.67745870352
0.038374096155 -0.8460084796 0.52614957094
0.48705899715 -0.82094377279 0.29739150405
0.83587628603 -0.53182786703 0.12651696801
0.62598901987 -0.51927232742 0.58067172766
0.47655087709 0.70645397902 0.5232282877
0.43210977316 0.55109846592 0.71368443966
0.6730749011 0.40288320184 0.61987030506
-0.91594004631 0.11733540893 0.38347715139
-0.9686344862 -0.19902379811 0.14476929605
-0.8384732604 -0.26081076264 0.4767729342
0.47696489096 -0.870880723 -0.1163745001
0.20926350355 -0.97515058517 -0.049195386469
-0.33925881982 0.8284625411 0.44534385204
-0.29984563589 0.93008053303 0.21082819998
-0.50973129272 0.81712579727 0.26886069775
0.04373646155 0.94864022732 -0.31297209859
0.25677543879 0.95658510923 -0.13229420781
0.35715326667 0.87744414806 -0.31948673725
0.26617005467 0.92205160856 0.27621534467
0.2340297848 0.77032488585 0.59299910069
0.69716650248 -0.62633764744 -0.34854084253
0.55777162313 -0.64913547039 -0.5170674324
0.6772044301 -0.49737161398 -0.54222816229
-0.48136651516 -0.38610985875 0.7867462635
-0.63067942858 -0.17258019745 0.75646626949
-0.62382501364 -0.4416962862 0.64434564114
0.67945897579 0.62518632412 0.38310980797
-0.48802569509 0.8177587986 -0.30508953333
-0.68331581354 0.71669852734 -0.13809737563
-0.56280034781 0.8263245821 0.0029919994995
-0.66870814562 0.71849089861 0.19085597992
-0.76358520985 0.64434462786 0.039544980973
-0.47045621276 -0.33887448907 -0.81476664543
-0.53134638071 -0.48185926676 -0.69678139687
-0.6197193861 -0.33492833376 -0.70976477861
0.45364615321 0.87472033501 -0.17066973448
0.56645816565 0.76959645748 -0.29403916001
-0.86879527569 0.38855782151 0.30675649643
-0.95410633087 0.2868719399 0.083423420787
0.50784897804 0.30107653141 0.80709201097
-0.019020339474 0.3520847559 0.93548178673
0.17067696154 0.36404106021 0.91556173563
0.033564969897 0.52832466364 0.8483697772
0.21432241797 0.58350360394 0.78333693743
0.34176489711 0.40719982982 0.84700393677
0.34854969382 0.19041089714 0.91776013374
0.51061832905 -0.038809105754 0.85873627663
0.17759944499 0.1628883034 0.97037982941
0.29185697436 -0.013399943709 0.95633971691
0.097863033414 0.018081752583 0.99502152205
0.38539391756 -0.45685300231 -0.8017115593
0.52690720558 -0.52347028255 -0.66949808598
0.36588317156 -0.59271520376 -0.71749985218
0.86136627197 0.10761524737 -0.49635624886
0.78036469221 0.18605478108 -0.596988976
0.84268289804 0.25742730498 -0.47284689546
0.80444031954 0.023946445435 -0.59344130754
0.72296178341 0.064727708697 -0.68779873848
0.73795336485 -0.092361696064 -0.66809540987
0.68099826574 0.1710485965 -0.71204638481
0.87692695856 -0.099156245589 -0.46931695938
0.6188454628 0.092519469559 -0.78007739782
0.65193402767 -0.020510543138 -0.75798916817
0.52948701382 -0.018041523173 -0.84812426567
0.60675746202 -0.1378698349 -0.78281825781
0.15537831187 -0.74061399698 -0.65371370316
-0.0002890410251 -0.78840082884 -0.61512452364
0.072863802314 -0.68332892656 -0.72647696733
-0.042809959501 -0.68928265572 -0.72318816185
-0.12053237855 -0.7395118475 -0.66223913431
0.1134602502 -0.58913505077 -0.80003601313
-0.0072695659474 -0.60544723272 -0.7958547473
-0.10712212324 -0.87244564295 -0.47679978609
-0.27115058899 -0.90903240442 -0.31682911515
-0.26348045468 -0.83182185888 -0.48845484853
-0.051573805511 -0.93479639292 -0.35059404373
-0.46289733052 -0.77942276001 -0.42207747698
-0.50006574392 -0.84206300974 -0.19892661273
-0.11048389971 -0.61331242323 -0.78206443787
-0.10857276618 -0.53683102131 -0.83664387465
0.29322850704 -0.704223454 -0.64658743143
0.21234221756 -0.64745032787 -0.73192310333
0.042567662895 -0.88080406189 -0.47158139944
-0.81213343143 0.20591334999 -0.54589694738
-0.77095073462 0.36022722721 -0.52518439293
-0.70240348577 0.30644792318 -0.64240711927
-0.67197948694 0.43472966552 -0.59955847263
-0.38107353449 0.17850151658 -0.90660977364
-0.46794819832 0.086171895266 -0.87953293324
-0.48540708423 0.18919029832 -0.85356342793
0.52219384909 -0.34417325258 0.78021538258
0.68400472403 -0.25796100497 0.68231755495
0.85578602552 -0.31379908323 0.41087308526
-0.77753674984 -0.0018961036112 0.62852525711
-0.62391453981 0.099552303553 0.77505153418
-0.73274344206 0.20572736859 0.64818793535
0.92211121321 0.12418245524 0.36645355821
0.87836617231 0.00080826599151 0.47758471966
0.96140599251 -0.065780423582 0.26659369469
0.35566657782 -0.39156919718 0.84855258465
0.38334310055 -0.20437958837 0.90071070194
-0.21737809479 -0.46199885011 -0.85982590914
-0.37397220731 -0.50646203756 -0.7769498229
-0.32006418705 -0.40117481351 -0.85825622082
0.64076244831 0.15127368271 0.75265204906
0.24240018427 -0.18526740372 0.95232713223
0.10787023604 -0.21740677953 -0.9699202776
0.097908169031 -0.37489306927 -0.92186766863
-0.024181164801 -0.28177651763 -0.95916068554
-0.16710780561 -0.36012247205 -0.91778743267
-0.028711482882 -0.39624887705 -0.91769880056
-0.10656570643 -0.45236411691 -0.88544368744
0.013306871988 -0.50118941069 -0.86522072554
-0.21638517082 -0.55406183004 -0.80385386944
-0.27195376158 -0.6136649847 -0.74123293161
0.92674165964 0.045536737889 -0.37287336588
0.8359118104 0.48125603795 0.26375183463
0.9026145339 0.42242354155 0.082250550389
0.80872803926 0.57691597939 0.11430132389
0.97958827019 0.037061043084 -0.19638063014
0.94630724192 0.15478955209 -0.28377526999
0.97127377987 0.18435306847 -0.15044724941
0.93239325285 0.27040210366 -0.23986063898
0.89716422558 0.2641607821 -0.35398483276
0.94020456076 0.3117582798 -0.13720136881
0.88927990198 0.34565845132 -0.29947763681
0.8986902833 0.38949248195 -0.20167630911
0.8522053957 0.4305152297 -0.29728898406
0.8460482955 0.36135968566 -0.39191257954
0.90411245823 0.42104133964 -0.072837755084
0.84823310375 0.49686464667 -0.18330927193
0.83239537477 0.55305624008 -0.034541361034
0.90105932951 0.16697597504 -0.40028566122
0.99359416962 0.10937265307 -0.025305759162
0.95982062817 0.27940368652 -0.024693865329
0.97065454721 0.21521174908 0.10669396073
-0.043649949133 -0.14569056034 -0.98835963011
-0.15840174258 -0.2375665307 -0.95836567879
-0.19398118556 -0.12090244889 -0.97351628542
-0.29168361425 -0.29538235068 -0.90974253416
-0.25472256541 0.94720846415 -0.19315543771
-0.22889569402 0.88719755411 -0.40055897832
-0.072917051613 0.54003292322 -0.83846402168
-0.12695670128 0.63184773922 -0.764559865
0.019192449749 0.61375033855 -0.78923237324
-0.032225254923 0.74197113514 -0.66968339682
-0.21912203729 0.70539724827 -0.67401123047
0.13492272794 0.67911678553 -0.7214858532
-0.26822561026 0.60167986155 -0.75230413675
0.13126540184 0.80616909266 -0.57690763474
-0.042304050177 0.85575455427 -0.51555645466
0.69574022293 -0.71395146847 -0.077853374183
0.79746299982 -0.4404450953 -0.41238930821
0.82779723406 -0.52806329727 -0.18901146948
0.54519802332 -0.77151316404 -0.3272383213
0.38160651922 0.59150737524 -0.71023219824
0.26600897312 0.58433884382 -0.76666688919
0.27887672186 0.69082945585 -0.66703915596
0.370077461 0.49800622463 -0.7842078805
-0.34044745564 0.7827745676 -0.52075785398
-0.49244457483 0.69796788692 -0.51986420155
-0.36244601011 0.67591995001 -0.64165115356
-0.47127521038 0.61365091801 -0.63351202011
0.14871041477 0.41631111503 -0.8969373107
0.14631412923 0.54468899965 -0.82574850321
0.26532366872 0.45895686746 -0.84791219234
-0.38659289479 0.57341223955 -0.72232574224
-0.63481682539 0.62747895718 -0.45053464174
-0.59127253294 0.56024217606 -0.5801269412
-0.17910794914 0.80345368385 -0.56781750917
0.040690630674 0.4938198328 -0.86853712797
0.013785239309 0.024313032627 -0.99936401844
-0.117804721 -0.026817182079 -0.9926058054
-0.041131108999 0.11251795292 -0.99235606194
-0.25463682413 -0.014408767223 -0.96692854166
-0.17061756551 0.091285213828 -0.98102265596
-0.32237654924 0.086613431573 -0.94263267517
-0.33464160562 -0.10829614103 -0.93608182669
-0.4110276103 -0.018363200128 -0.91142588854
-0.47481998801 -0.14971938729 -0.86716622114
-0.53711670637 -0.04891782254 -0.84206551313
-0.58287131786 0.049316868186 -0.81104564667
-0.58800828457 -0.19162650406 -0.78576594591
-0.66768622398 -0.043854266405 -0.74311572313
-0.66154181957 0.10193385184 -0.74290817976
-0.75292950869 0.058552440256 -0.65545976162
-0.79147988558 -0.095388688147 -0.60369217396
-0.56888562441 0.1461301893 -0.80931699276
-0.27299624681 -0.19390651584 -0.94225656986
-0.37905880809 -0.2152031213 -0.89994823933
-0.19207534194 0.54057246447 -0.81891524792
-0.30854728818 0.50044763088 -0.80881989002
-0.26356521249 0.41014561057 -0.87270796299
-0.36396753788 0.42139315605 -0.83061587811
-0.24124982953 0.18828870356 -0.95170229673
-0.38202473521 -0.59927916527 0.70319014788
-0.29759421945 -0.47407361865 0.82864534855
-0.40792411566 -0.11697755754 0.90542167425
-0.24447071552 -0.15592265129 0.95699030161
-0.33384525776 0.0065360316075 0.94257390499
0.029915042222 -0.12669630349 0.99148005247
0.15224486589 -0.10945352167 0.98225975037
0.111817047 -0.25316464901 0.96092563868
-0.022523872554 -0.23749385774 0.97111344337
-0.01276725065 -0.3735383749 0.92744970322
0.13037803769 -0.39477157593 0.90948629379
0.085568204522 -0.57432627678 0.81333345175
0.24435864389 -0.31976982951 0.9154612422
-0.13366174698 -0.28513893485 0.9491032362
-0.13945198059 -0.46469134092 0.87439233065
-0.25487986207 -0.33194771409 0.90813839436
-0.17413170636 -0.61100155115 0.77151364088
-0.21610286832 0.37698224187 0.90065562725
-0.14749287069 0.25003939867 0.95694446564
-0.49514111876 0.011189747602 0.86869668961
-0.45749109983 0.18340289593 0.87006378174
-0.31728619337 0.14442431927 0.93720310926
-0.30019959807 0.26281675696 0.91687631607
-0.42035344243 0.38181817532 0.82307440042
-0.19859844446 0.12319710106 0.97227972746
-0.051891878247 0.11391159147 0.99187529087
-0.17334726453 -0.016305629164 0.98471826315
-0.038406260312 -0.024471005425 0.9989708066
-0.10371267796 -0.14029416442 0.98465567827
[...]
CELL_DATA 998
SCALARS cell_data_0 double
LOOKUP_TABLE default
3.68356484485e-06
1.66530944167e-05
1.17315603663e-05
2.46643833575e-06
7.52684048047e-05
2.40004168381e-05
4.68094538436e-05
1.44024559901e-06
1.3126610704e-08
2.8470829687e-07
1.00084801476e-05
2.02284495538e-05
5.85714593896e-06
7.46812924234e-07
4.33953742978e-07
2.10807205558e-05
4.76224706876e-06
1.24143134081e-05
8.32526537162e-06
8.68553371527e-06
7.55333978183e-06
1.01371315949e-05
1.17236484864e-05
2.56459900873e-05
1.19006285474e-05
1.39137092424e-05
2.26871435154e-05
2.54607694942e-05
4.53722711122e-06
6.12363429582e-07
1.88366876944e-07
4.90027556623e-07
2.7940553956e-07
2.2332016055e-07
1.77089334317e-08
2.92142423472e-07
4.60794181345e-07
2.21153641399e-07
3.18345985905e-06
8.05825233599e-08
9.28774320164e-06
1.3476309915e-06
6.47322807194e-07
7.6072120238e-06
3.22023319801e-07
3.25409857329e-07
6.75582398162e-07
2.27721851398e-07
5.78256958228e-08
6.13952791191e-07
1.28349917484e-05
4.49412867751e-07
4.09466700865e-07
2.35136634465e-07
1.69346315849e-07
1.63828154396e-05
1.8031257319e-05
7.87565284473e-06
2.0115023225e-05
1.24187354636e-05
1.05460490833e-05
1.69439735331e-05
6.25182995135e-06
5.1339312659e-06
1.30471871982e-05
6.61699675547e-06
7.88484306389e-06
2.8900964272e-06
6.68394505998e-06
1.67386800326e-05
1.721830907e-05
6.1054666821e-07
1.67696464975e-05
1.0443643742e-05
1.42807513754e-05
1.96354510749e-05
4.96769913404e-07
2.57962940215e-07
1.46845201092e-07
3.69590710682e-07
2.61955996746e-07
2.87125803063e-07
1.81626319984e-07
2.0892653754e-07
7.04333930267e-07
6.09829301593e-07
9.75888857229e-08
2.00075238509e-07
7.45503693493e-06
3.20221953191e-07
1.45422986074e-06
4.14625707394e-07
2.90590755639e-07
1.27999280759e-06
1.93758976757e-07
9.6372197241e-07
2.23978120616e-07
7.1274333715e-07
9.64591751114e-08
1.08050751036e-06
6.11886436837e-08
4.62251796488e-07
8.10906511127e-07
8.22489094726e-08
2.0321344108e-06
1.62609816733e-07
2.24822197095e-07
2.60076500347e-07
1.13016227281e-06
4.10495063958e-07
6.36955647694e-07
7.45203501005e-07
9.5541445638e-09
9.05986786089e-07
1.2032112001e-06
9.60411296599e-07
1.90530362727e-07
3.76134413459e-07
1.32935227433e-07
1.00072371594e-08
2.44779822027e-07
1.21276127455e-05
2.00848186794e-07
2.18097174119e-07
1.60502959068e-08
8.2853172031e-07
2.4408603956e-07
2.62057776099e-07
2.59836634059e-07
2.4258174151e-05
2.93095213636e-08
6.39082257609e-08
1.2440935748e-07
1.03026793711e-07
1.33501557181e-07
1.85996814651e-07
2.54854315197e-07
1.1740273291e-06
4.55080385867e-05
6.31070811972e-06
1.66697703415e-07
1.32187879885e-06
2.17009755826e-06
1.04492116297e-06
1.03711659315e-06
2.93759358445e-05
9.7216162773e-08
2.73081820446e-08
1.07113732739e-07
3.29269171105e-06
2.87802053049e-07
2.53285446265e-07
1.57227180034e-07
3.79191201283e-06
3.38075370867e-06
3.78281930578e-06
1.39925080758e-08
8.27780338097e-08
8.04583627841e-08
3.32839888222e-06
2.51713030414e-07
7.90131457755e-06
7.94843777558e-06
6.98984536938e-06
3.71706527696e-06
3.67901848406e-06
8.18529429847e-06
7.57215007193e-06
7.7022869285e-06
1.96046442916e-07
1.47287277066e-05
5.79808641542e-05
5.72348832519e-05
4.1307654175e-05
6.60126756416e-05
7.33070850675e-05
4.68677763735e-05
5.44887185536e-05
5.56349670847e-05
7.89219225815e-05
4.02572108555e-05
4.69037915405e-05
8.4536914767e-05
4.42589207041e-05
3.13863085345e-05
1.33704337471e-05
1.62706254079e-05
1.4717532984e-05
1.61972154899e-05
3.45263639278e-05
1.70183146229e-05
4.29745358671e-05
3.72124193185e-05
1.35650629365e-05
3.11827850618e-05
1.1358418818e-05
1.13849657205e-05
4.19300044073e-06
1.77296392329e-05
5.88462422435e-06
4.48621405673e-06
1.67294488857e-05
1.64526065842e-05
5.35523986441e-06
6.31716665489e-06
3.50840694058e-05
3.12606353169e-05
2.66935528343e-06
6.55286041963e-05
9.53186620372e-06
1.83243797956e-05
1.5435709757e-05
1.4938711499e-05
1.15794835832e-05
1.28946895965e-05
8.05520975307e-06
4.83045117834e-06
9.09374962016e-06
9.22961898471e-06
6.88259466788e-06
5.49080118091e-06
5.32352521316e-06
1.16685944532e-05
1.54097598727e-06
1.24579026796e-05
2.34758299541e-05
5.99535088071e-06
5.25731705482e-06
7.31836917226e-06
5.95599792638e-06
6.68784664339e-06
4.7641668387e-06
5.80427845766e-06
4.63646299991e-06
5.21409968095e-06
4.01133520566e-06
5.2208886287e-06
8.29818199581e-06
8.85779741092e-06
4.93804138187e-06
2.14410802827e-05
7.99951873757e-06
1.44389585911e-05
2.06730128835e-05
1.52493205068e-05
1.57615710359e-05
9.85871199422e-06
6.92915222683e-06
1.06778656208e-05
6.84533786851e-06
1.84100711174e-05
1.76540527127e-05
1.70913630298e-05
8.33806102935e-06
6.98066796923e-06
1.30352702564e-05
1.31280204547e-05
9.40935512977e-06
5.40951765959e-06
1.37998627812e-05
1.26478362581e-05
8.74382815374e-06
6.90049436392e-06
7.62745185621e-06
4.24071966081e-06
2.33092064978e-06
7.4373619435e-06
2.68356364986e-08
2.75135429151e-07
3.1287382392e-07
1.90312711739e-06
1.89563027785e-06
3.40504345849e-06
7.84536307786e-06
8.74301788935e-06
1.48593137104e-05
3.46479976018e-06
9.5940150233e-07
9.18544503587e-07
3.64761070361e-07
7.38115308217e-06
1.55075288238e-05
1.26743351084e-05
1.9483826168e-06
1.65824336643e-06
2.54231011887e-06
3.00043646568e-06
3.7460941429e-08
2.24485243746e-08
3.86393816759e-08
3.52468032808e-09
2.99300875271e-08
1.68008686517e-08
5.39477588434e-09
5.68047622761e-09
5.36634785863e-08
4.36738464591e-07
4.66819768938e-07
2.94317350785e-07
4.79528919696e-07
1.31612619224e-06
1.29460002639e-06
7.36210628378e-08
8.89176991688e-07
5.07991848621e-07
4.34765690078e-07
9.91868986172e-09
4.32097787091e-07
2.88827147955e-09
3.10717597986e-08
5.50796747041e-06
7.99500649231e-06
1.93419517396e-07
1.13195799729e-07
1.52777045044e-07
1.83840923629e-07
7.17740168868e-09
8.51524825568e-07
1.06444544702e-06
9.46976517788e-07
5.2214297875e-06
7.70505073278e-06
4.84429336562e-06
5.57799469925e-06
5.65459486757e-06
6.42392974164e-06
9.74232829605e-06
7.9672906596e-06
1.38440739846e-05
1.16299187054e-05
8.0461355726e-06
6.59434303595e-06
8.95787923092e-06
1.02699393843e-06
7.34881438865e-06
7.98627379261e-06
6.34071077583e-06
5.14393022028e-06
8.53429381459e-06
1.8978968347e-06
1.06226058793e-07
1.67961692209e-07
6.730112914e-08
2.37243995983e-07
1.97603582854e-07
1.62875506301e-07
1.7377410044e-08
1.81360327218e-08
1.51573647743e-08
7.28552151066e-08
4.08196577557e-08
2.57447908782e-07
1.77821369917e-07
3.11599171641e-08
1.04355424835e-07
1.24091148976e-10
3.15456892539e-08
2.2118026537e-08
1.4805940581e-08
8.28663367514e-10
1.88142315386e-08
1.79538220201e-09
1.51752845074e-08
5.26507388341e-09
4.41179576876e-08
4.61570504486e-08
4.15652630751e-08
6.2414529384e-06
6.0551287968e-06
7.20824107325e-06
1.76079285448e-05
8.48219426274e-06
7.11673879724e-06
1.29079349091e-05
8.61255744303e-06
1.05113714095e-05
1.55959324893e-05
4.6268543195e-05
7.35802273124e-05
3.23872698556e-05
4.20163887767e-08
3.53200858031e-07
2.87841762682e-07
3.77272831575e-07
7.98131520133e-06
7.37055725378e-06
3.0602121071e-07
1.39622574538e-05
6.85565142763e-06
5.19165507346e-06
7.24556385435e-06
9.46989979785e-06
1.00056250555e-05
6.92269417751e-06
7.23463176759e-06
8.66146052825e-06
6.66444031655e-06
4.40261011832e-06
4.03319010958e-06
5.36758482689e-06
6.03700067567e-06
7.89830269902e-06
1.75196872854e-05
5.75844532102e-06
5.37962301301e-06
7.40232858581e-06
8.09544846187e-06
1.51728704636e-07
2.40184555521e-08
1.32253129594e-07
4.31560269917e-06
6.33952931279e-08
6.14299343794e-06
6.56556735909e-06
3.67790506974e-07
4.21743439807e-10
2.69723580609e-08
5.01720252477e-08
4.53678865398e-08
1.06246417574e-05
2.04108337344e-06
2.48167272584e-08
9.06546002337e-08
2.45865217938e-08
3.77878534587e-06
3.70871377294e-07
2.07381865391e-07
2.19918594158e-07
1.06655865804e-05
3.27691419829e-07
1.23759426982e-07
2.23330322051e-06
1.79604848796e-06
1.1329807078e-06
2.01390213409e-06
1.07306938952e-06
9.22400884186e-07
1.46863347384e-08
5.06077288895e-08
1.20388970139e-07
1.98274782491e-08
1.07928859947e-06
9.68165854436e-06
1.15582138322e-05
9.16796859178e-09
1.37611228021e-06
1.9353927261e-08
2.63006451052e-06
1.05531983762e-06
1.00838194428e-06
1.07967811565e-06
1.12221850408e-06
2.93269366314e-06
2.2846482941e-08
1.57585317146e-08
1.19841679529e-07
1.67097226499e-08
1.33183064323e-08
3.79465228199e-09
7.45390389073e-08
3.69542573179e-08
6.7784633708e-08
4.98390625634e-07
6.2620732091e-08
4.30561931339e-07
3.42578781806e-07
4.17810376337e-07
1.53610970693e-05
1.08093129257e-05
1.23200065287e-08
5.92115854382e-07
1.37201139138e-05
1.41528836528e-05
4.24626324998e-07
2.16307202057e-10
6.4591324442e-07
1.32573588298e-06
6.93998282841e-07
2.71608048291e-08
2.2807230042e-06
1.04769066956e-06
7.23821445097e-07
2.43155988967e-08
1.07860554965e-05
3.05968342829e-06
1.5932181974e-05
7.68479959503e-09
2.21163537716e-08
7.03374442239e-07
3.74749125504e-07
1.9424758404e-07
1.96981447033e-07
2.30869822772e-06
1.88781514523e-07
1.58239986422e-07
6.68872912699e-08
2.73587639679e-06
1.47234138779e-05
2.05482193242e-10
2.7412693967e-06
2.20038594441e-06
1.67886553567e-07
1.05423107694e-06
2.45760904664e-06
2.50945567482e-06
9.33098076892e-07
1.72513871873e-07
3.72277721989e-07
1.19861600021e-06
1.7580130012e-06
2.82546218998e-07
1.08158616282e-07
7.17917967105e-08
4.23787813773e-07
1.40977722771e-07
3.14336890349e-06
1.10078635286e-06
9.36004560212e-07
1.15015735689e-07
8.64445365168e-08
1.66182532329e-09
2.21147678716e-07
5.6979127705e-08
7.84914624859e-08
1.55705039705e-05
8.4986918242e-06
1.21957074176e-07
2.72294012856e-08
1.35844932886e-07
4.91182241438e-10
7.35502576992e-08
2.01856045365e-08
6.05311018917e-06
6.37593914102e-06
3.98839331986e-07
8.78805063516e-08
1.36056247453e-06
2.6948458845e-06
9.29231667833e-07
5.76761945198e-07
5.51426284386e-06
2.70515364225e-06
7.83281486391e-07
1.72579110768e-07
2.59246252041e-07
5.91411797297e-06
3.55496006839e-06
2.29217539566e-06
3.51240236197e-08
7.14154648263e-06
7.36159587389e-06
5.27662868586e-06
6.10872817145e-07
2.6950421148e-07
3.68851396014e-07
4.60394687732e-07
3.02285006119e-07
5.72075931718e-08
3.68459855723e-09
1.49749746457e-07
1.58691466094e-11
2.2073692461e-07
7.77440088308e-08
2.96459358284e-07
6.25154720399e-06
7.86969230191e-07
1.28583812963e-07
3.00063903148e-07
6.54378309509e-07
3.46022850238e-07
2.84420590231e-07
7.61186970942e-07
6.25647583185e-07
4.16790962387e-06
5.60107826141e-06
1.2977990255e-06
1.07994632941e-06
1.08659852576e-06
3.28636211716e-06
1.03750888791e-05
8.67031139552e-06
5.76952228549e-08
1.31360001436e-06
2.17806411503e-06
3.17251181028e-07
1.73944289274e-07
2.38389286305e-07
3.96762434777e-07
1.87451227689e-07
1.62354693629e-07
2.56528892049e-07
1.62125566567e-07
4.80747394638e-07
6.1871148814e-06
5.6101674081e-06
5.99419280543e-07
5.6253584789e-07
3.13488333256e-07
2.97198935096e-07
9.22309856671e-07
5.45815459488e-08
6.81379424738e-07
1.52595199936e-05
7.91309897346e-07
9.83000155596e-07
3.52233864872e-07
7.53145504765e-07
3.99357031987e-08
1.27242733908e-07
2.018214608e-07
9.64643195732e-08
8.19334518232e-08
1.57582058288e-07
2.05210484142e-07
3.28321086945e-05
1.45631722976e-05
1.72291074909e-07
4.13315215696e-07
1.18921521347e-05
4.14801627784e-07
1.57651919394e-05
1.47414303845e-05
1.05247145291e-05
9.56609625067e-07
9.87713585406e-08
1.22321525541e-07
2.77647129294e-07
1.12497455744e-07
3.13875735685e-07
2.20906332576e-07
6.06891330461e-07
1.88492006297e-07
5.62508428541e-07
9.29551521171e-07
2.10071249151e-06
1.04666526831e-06
2.97363124188e-07
5.17267038785e-09
3.9534818127e-06
5.03856006107e-06
2.5097809003e-07
2.68858738452e-07
3.57487079745e-07
2.2651730017e-07
3.06022275292e-07
3.05733131732e-07
5.97539482358e-07
6.04415742656e-07
2.13622901054e-07
3.39713216168e-08
5.06135692466e-07
5.05541777817e-06
8.2590967376e-07
6.41581025967e-07
4.8577429392e-07
1.72166320919e-06
4.56508384374e-07
4.57505991867e-07
1.1612889369e-06
1.34137536341e-06
1.84293366262e-06
9.83534548994e-07
1.52871051295e-06
3.97981005645e-06
3.02671302283e-06
4.75928856185e-06
1.35078020514e-06
9.34000322961e-07
7.59777924319e-07
2.08405266544e-06
4.68787855657e-06
2.20014999795e-06
1.61096823199e-06
2.14217278844e-06
9.19280707967e-06
7.21225249464e-10
1.08715621114e-05
8.80180803882e-06
9.42453880389e-06
1.66253442872e-08
1.26620542077e-05
6.01871137751e-07
3.88834881303e-06
1.57085328358e-06
1.14880357255e-06
5.13323120738e-07
4.33184267128e-07
8.28163793464e-07
9.99086924852e-06
1.10001030068e-05
4.05270045391e-06
5.67185780127e-06
6.66036134917e-06
7.62306857042e-06
2.24411404185e-05
7.89646632648e-06
3.0318198186e-05
2.07001047333e-05
4.41899139666e-07
1.66451139583e-07
2.25489821657e-07
3.39196291675e-07
1.96605728123e-07
3.2431993147e-07
2.41072233026e-07
1.23622424799e-05
1.59653002109e-08
4.44532154156e-08
7.33159077574e-07
8.91400617629e-07
1.34857130624e-06
1.22961280252e-07
6.6364115047e-07
1.01473451861e-05
6.14567304274e-08
3.68079339358e-08
1.02044875545e-05
1.39230052249e-05
7.0609145257e-08
3.13176394519e-05
1.15608835206e-07
1.12075632793e-07
1.55252533803e-05
8.18237617828e-06
7.0563944975e-06
9.69690170615e-06
1.00998035011e-05
1.34019394468e-07
3.19468938144e-06
7.25223325738e-06
6.33452390927e-06
2.0692770516e-07
1.83576077225e-07
3.70275368587e-08
4.05920292232e-08
1.33169542176e-05
5.33778043868e-07
9.8706496482e-06
8.68420472176e-06
2.43978410587e-08
1.82997973024e-07
6.35503297037e-08
3.55964461026e-08
2.25538195491e-07
1.85542625937e-07
8.69514171382e-09
2.93815332612e-07
8.39567795851e-07
6.0889671495e-07
1.36480602968e-05
1.38179113408e-07
8.8665449232e-07
1.71165703327e-05
2.06460728897e-07
5.2704857359e-07
1.23497199221e-05
1.34315321118e-05
9.93435058634e-06
1.78362032807e-07
6.17016647299e-06
1.16065235806e-05
2.16476878841e-05
2.64422237823e-05
2.78542831965e-05
6.02802492863e-06
2.19494968533e-05
2.11505584963e-07
2.54130807509e-07
1.27494498168e-07
9.91850576054e-08
6.56961302581e-07
3.21440924816e-07
2.99586158274e-07
3.70173812335e-07
4.97396086772e-08
7.67399221031e-08
3.26772377989e-08
7.49499473652e-07
7.50556594371e-07
1.63812968868e-06
1.33832772693e-05
1.00587589004e-06
1.63917166464e-05
1.27394584112e-05
2.5891667336e-05
2.60881835494e-05
1.325394506e-05
1.12388306151e-06
1.30679401909e-06
1.94162857261e-07
2.34909144033e-07
1.67730755757e-05
9.20704707906e-06
1.15387640352e-06
3.94572640058e-06
1.53737909752e-05
2.8973900063e-06
3.25007961631e-06
6.1433596779e-05
1.90424012534e-05
6.94767834052e-06
3.8318957151e-06
5.37460474637e-06
3.0388554094e-06
3.24487459123e-06
3.36722575642e-07
1.4657894843e-06
3.51728599373e-07
4.86191665193e-06
2.27479112339e-06
2.44446936518e-07
1.48342144219e-06
2.71664179071e-06
2.11625839692e-06
2.89550332596e-06
1.81742602848e-06
1.60442576127e-06
2.24590178237e-06
1.67227314092e-06
1.94984329904e-06
1.50067884169e-06
9.57725565624e-07
1.82150411785e-05
2.79857951775e-06
1.64680990607e-05
1.56921068462e-06
3.43124167663e-06
4.80711787712e-07
1.8399370217e-06
3.1577272099e-07
1.62752050296e-05
2.90804858974e-05
2.86823475291e-06
3.78482242263e-06
1.76937658436e-06
3.43204839535e-06
8.4763941988e-07
1.28678030353e-06
9.42514446786e-06
8.82675593409e-06
2.23008537539e-06
2.1122089833e-06
1.72005248646e-06
1.40834674564e-05
1.00849671784e-05
2.50569766306e-06
9.04799637174e-07
7.33352661079e-06
1.97298218203e-07
2.4880469796e-07
1.39046393888e-05
8.08207425374e-06
3.09751449218e-06
3.67630683279e-06
4.60379560057e-06
4.37169422068e-06
1.1275941627e-05
1.17030467672e-05
7.03901561561e-06
7.47892811434e-06
7.3919353733e-08
9.48447819346e-08
5.19188189974e-06
1.56195299364e-06
2.16271260449e-05
1.07220145965e-05
9.18731232326e-06
9.28312127772e-06
1.07503590681e-05
1.40532473336e-05
2.383727559e-06
2.1798831122e-08
2.67441281385e-06
9.31018050001e-09
4.18982662236e-06
2.85464802616e-06
3.0479133777e-06
2.85058681482e-09
4.35207964885e-06
3.58408674417e-06
4.9123849303e-06
6.44141420054e-06
7.09383146116e-06
1.40345561702e-05
1.41736609882e-05
1.39955599572e-05
4.78004027619e-06
2.74934553097e-06
6.03772717275e-06
4.4221910026e-06
3.8295881585e-06
2.70973128837e-06
5.27153510332e-06
2.94257152297e-06
4.99778199863e-08
1.82151512943e-06
7.68369433653e-06
2.29451979011e-06
8.57786915796e-06
7.24444001046e-06
4.04770293853e-06
3.94145519651e-06
1.06590164818e-07
5.84363552242e-08
8.7645875442e-08
1.15536812845e-07
2.86206360101e-06
3.14462527666e-06
5.33230187657e-06
9.10088481371e-06
5.84532192151e-06
5.99685579219e-06
6.83514131083e-08
1.39039608524e-07
1.85895706635e-06
3.18620177363e-06
3.74038729912e-05
1.18171671882e-05
1.02500005017e-05
1.18397609577e-06
8.63078673121e-06
3.92553580022e-06
2.41471014104e-06
2.58221606665e-06
9.3341523507e-07
4.76847347391e-06
5.26820788069e-07
7.57206636937e-07
6.23307059344e-07
7.55172281117e-06
1.29569837827e-05
6.19020975856e-08
6.29945305377e-06
5.72893163099e-06
8.5033042223e-06
1.05231669613e-07
1.45667574702e-07
6.56005135987e-06
5.76778989497e-07
2.66039255026e-05
1.08617899383e-05
5.80699480718e-06
4.83092458082e-06
6.19418249882e-06
8.08798170462e-07
8.19035661059e-07
4.2247790541e-06
6.06162185102e-06
2.71899917915e-06
1.24659051858e-07
2.46475570572e-06
4.65694064015e-06
5.01251293681e-06
7.87146631571e-06
1.12332410064e-06
3.69899563077e-09
4.00400725655e-06
2.40265650265e-06
4.99985527668e-06
1.40782530526e-06
2.53517905494e-06
8.77457454761e-10
4.06759313384e-06
4.17802413019e-09
4.50749540785e-09
2.1747256972e-09
2.08081745188e-06
2.38191379008e-06
1.82577500831e-05
3.38739732853e-05
1.25026508509e-05
1.25965502459e-05
6.37658262375e-06
8.99543060635e-08
1.60552412454e-06
7.61696225303e-06
2.35763669847e-06
1.59788973992e-09
2.28016190865e-08
3.37219163098e-06
9.25336981105e-06
6.96444154081e-07
3.61068451774e-09
1.36077724301e-09
2.45374175009e-06
1.58234441636e-06
1.59815247319e-06
1.56829876894e-09
2.37765714652e-06
1.61869948018e-06
2.68673612693e-06
4.94846780162e-09
1.94153153481e-06
2.71346671947e-06
1.34957376347e-07
3.10416819996e-06
6.4140796943e-09
2.48470188617e-06

