# vtk DataFile Version 3.0
File Name: Molecule/sphere_excent/sphere_excent_0-s4.vtk
ASCII
DATASET UNSTRUCTURED_GRID
FIELD FieldData 1
TIME 1 1 double
0.0
POINTS 51 double
0.85065102577 -0.5257307291 -3.1277366475e-08
0.80893665552 -0.30897375941 -0.49995720387
0.99990254641 4.936845653e-05 -5.3815347201e-06
0.8164228797 0.29530110955 -0.49376475811
0.52580839396 0.00028517740429 -0.85060125589
0.85021620989 0.52635008097 -0.00026930376771
-0.00024883038714 0.85123574734 0.52470499277
-0.5122038722 0.78582113981 0.34479817748
-0.30846139789 0.49910360575 0.80974328518
-0.80927300453 0.30776533484 0.50025868416
-0.8500353694 0.52664834261 2.0517345547e-06
-0.52572196722 -3.0951148801e-05 0.850656569
0.30870854855 0.49955302477 0.80935162306
6.9033794716e-06 -4.8643007176e-05 0.99989491701
0.52572846413 -6.9453290052e-06 0.85065245628
-0.30898401141 -0.49994796515 0.80892771482
0.30898621678 -0.49994754791 0.80892717838
3.6645388946e-08 -0.85065090656 0.52573096752
0.80892986059 -0.30898499489 0.49994659424
0.49994492531 -0.80893063545 0.30898094177
0.30899184942 -0.49993351102 -0.80893862247
-0.00013136636699 -0.00020343538199 -0.9999230504
-0.30898800492 -0.49994936585 -0.80892628431
-2.6982700518e-08 -0.85065078735 -0.52573102713
-0.52572244406 -3.0661925848e-05 -0.85065633059
0.80913436413 0.30838605762 0.50010102987
0.50887852907 0.79270237684 0.33416187763
-0.80892544985 -0.30899465084 -0.49994784594
-0.80927830935 0.30777093768 -0.50024610758
-0.99989652634 4.681887367e-05 1.7906099856e-06
-0.85065126419 -0.52573043108 1.8581733485e-08
9.125447832e-06 0.85118794441 -0.52480751276
-0.30869698524 0.49906468391 -0.80970525742
-0.51210701466 0.78596246243 -0.34458896518
-0.4999448657 -0.80893075466 -0.30898088217
-0.49994564056 -0.80892926455 0.30898344517
1.529501219e-06 -0.99989140034 6.9479852982e-09
-0.8089171648 -0.30901584029 0.49994918704
0.49994722009 -0.80892848969 -0.30898410082
0.29496702552 0.49459657073 -0.81605267525
0.011659698561 0.99978482723 -6.929263327e-05
-0.2652233839 0.9503557086 0.16291704774
-0.26520216465 0.95038086176 -0.16289202869
-0.52605736256 0.85042655468 1.1928218555e-05
0.50404262543 0.8016654253 -0.32061824203
0.52571415901 0.85067945719 0.00086100021144
0.27270945907 0.94855177402 -0.16113622487
0.27316144109 0.94826328754 0.16202498972
0.689047575 0.58155190945 -0.4325543642
0.58772933483 0.42546540499 -0.68816757202
0.42726927996 0.68149101734 -0.59427392483

CELLS 98 392
3 0 1 2
3 1 3 2
3 1 4 3
3 2 3 5
3 6 7 8
3 7 9 8
3 7 10 9
3 8 9 11
3 6 8 12
3 8 13 12
3 8 11 13
3 12 13 14
3 11 15 13
3 15 16 13
3 15 17 16
3 13 16 14
3 14 16 18
3 16 19 18
3 16 17 19
3 18 19 0
3 4 20 21
3 20 22 21
3 20 23 22
3 21 22 24
3 0 2 18
3 2 25 18
3 2 5 25
3 18 25 14
3 5 26 25
3 26 12 25
3 26 6 12
3 25 12 14
3 24 27 28
3 27 29 28
3 27 30 29
3 28 29 10
3 31 32 33
3 32 28 33
3 32 24 28
3 33 28 10
3 30 34 35
3 34 36 35
3 34 23 36
3 35 36 17
3 30 35 37
3 35 15 37
3 35 17 15
3 37 15 11
3 11 9 37
3 9 29 37
3 9 10 29
3 37 29 30
3 24 22 27
3 22 34 27
3 22 23 34
3 27 34 30
3 23 38 36
3 38 19 36
3 38 0 19
3 36 19 17
3 4 1 20
3 1 38 20
3 1 0 38
3 20 38 23
3 4 21 39
3 21 32 39
3 21 24 32
3 39 32 31
3 40 41 6
3 6 41 7
3 40 42 41
3 42 43 41
3 42 33 43
3 41 43 7
3 33 42 31
3 31 42 40
3 7 43 10
3 43 33 10
3 44 45 5
3 5 45 26
3 44 46 45
3 46 47 45
3 46 40 47
3 45 47 26
3 40 46 31
3 31 46 44
3 26 47 6
3 47 40 6
3 3 48 5
3 5 48 44
3 3 49 48
3 49 50 48
3 49 39 50
3 48 50 44
3 39 49 4
3 4 49 3
3 44 50 31
3 50 39 31

CELL_TYPES 98
5
5
5
5
5
5
5
5
5
5
5
5
5
5
5
5
5
5
5
5
5
5
5
5
5
5
5
5
5
5
5
5
5
5
5
5
5
5
5
5
5
5
5
5
5
5
5
5
5
5
5
5
5
5
5
5
5
5
5
5
5
5
5
5
5
5
5
5
5
5
5
5
5
5
5
5
5
5
5
5
5
5
5
5
5
5
5
5
5
5
5
5
5
5
5
5
5
5

CELL_DATA 98
SCALARS cell_data_0 double
LOOKUP_TABLE default
0.00107806688959
0.00129198461986
0.000345531383215
0.00106410751293
4.00215372466e-05
4.53069110494e-05
7.23696387113e-06
5.4596871697e-05
4.64394741768e-05
8.5439784088e-05
8.8652217517e-05
7.17049818211e-05
0.00013735075507
0.000174462140196
7.30609320763e-05
0.000101222519314
6.11987243958e-05
4.93706841037e-05
4.08262175292e-05
3.63991694119e-05
3.45670010684e-05
1.89046747556e-05
7.97880867751e-06
3.89596208405e-05
0.000616226142655
0.000318831498895
0.000579039723833
3.81116673554e-05
5.63179138161e-05
4.77864257476e-05
4.08895066915e-05
4.49868548655e-05
2.90414107651e-05
1.0420078524e-05
7.84946945279e-06
2.81449091884e-05
9.22361727155e-06
5.80933439193e-06
3.96952601989e-05
1.39165653216e-05
1.00432829553e-05
1.16688975765e-06
1.20948576409e-05
2.02786240793e-05
1.81387991793e-05
5.2641030544e-05
4.19833753214e-05
7.71679515179e-05
4.85726244755e-05
2.71715120602e-05
1.63656351808e-06
5.59434394083e-06
2.89187522878e-05
2.82487180735e-05
2.28712594744e-05
2.29391587333e-05
4.65485837934e-07
1.10582038769e-05
8.68537601543e-05
2.0352513952e-05
0.000156182365149
0.000156040514457
0.000292050308304
1.31879566956e-05
0.000161073470791
0.000165958499458
5.0389335674e-05
0.000136661980495
3.93190876823e-06
1.06899959428e-05
4.68893704388e-06
1.51758664334e-06
9.61743555291e-07
2.24162702659e-06
2.29881867076e-06
1.46438919132e-05
7.04320664955e-06
4.98068213985e-06
0.000130459571581
5.84516129847e-05
3.01126998642e-05
6.09033333058e-08
5.59170221073e-06
3.40819817006e-06
1.25577332025e-05
5.66257459654e-05
5.99116056094e-06
1.62391472517e-06
0.000142129871952
0.000124265576328
3.49418080855e-05
4.46481839493e-08
3.21070846574e-05
2.82560295639e-05
7.41624301112e-05
7.97703159334e-05
5.46795218829e-05
6.1269553284e-05

