# vtk DataFile Version 3.0
File Name: Molecule/sphere_excent/sphere_excent_0-s39.vtk
ASCII
DATASET UNSTRUCTURED_GRID
FIELD FieldData 1
TIME 1 1 double
0.0
POINTS 553 double
0.34156480432 -0.65463364124 0.67446279526
0.072015546262 -0.84564197063 0.52588522434
0.48612931371 -0.81056344509 0.32090970874
0.82352054119 -0.54645687342 0.14464980364
0.63196372986 -0.52719980478 0.56750416756
0.47423478961 0.70531743765 0.52681010962
0.43391528726 0.54970371723 0.71372145414
0.66841572523 0.40786278248 0.62175786495
-0.33281317353 0.83108597994 0.44550994039
-0.305703789 0.92702585459 0.21669588983
-0.50598460436 0.81870555878 0.27127930522
0.060409523547 0.94667500257 -0.31314563751
0.26102694869 0.95262598991 -0.1523809135
0.35344099998 0.88103717566 -0.3143633008
0.26660871506 0.91511642933 0.30020949244
0.23434217274 0.77108812332 0.59194761515
0.70032119751 -0.62450408936 -0.34565705061
0.5654066205 -0.64822459221 -0.50993108749
0.67613059282 -0.50085520744 -0.54036605358
0.67977303267 0.61971634626 0.391746521
-0.50030428171 0.81050783396 -0.30329877138
-0.67942762375 0.72054296732 -0.13813845813
-0.55768328905 0.82970869541 -0.00034198211506
-0.47073248029 -0.33845868707 -0.81477248669
-0.5348136425 -0.47803154588 -0.69680261612
-0.62036651373 -0.33722895384 -0.70811402798
0.44873711467 0.87856447697 -0.16397644579
0.56090581417 0.77576202154 -0.28860616684
-0.91410052776 0.12488921732 0.38358175755
-0.86945104599 0.38654571772 0.30761009455
-0.95382225513 0.28598701954 0.08997233212
0.50795245171 0.31097853184 0.80269747972
-0.023026211187 0.36376601458 0.93112850189
0.17180895805 0.36814573407 0.91370493174
0.03347286582 0.53228026628 0.84592461586
0.21545554698 0.58490282297 0.78197538853
0.34381243587 0.40918195248 0.84522348642
0.36430549622 0.1895044893 0.91158521175
0.62992739677 0.15111666918 0.76149451733
0.1872266084 0.16007336974 0.96906012297
0.29553717375 -0.012969702482 0.95521312952
0.099865339696 0.020088626072 0.99478930235
0.51233524084 -0.045142821968 0.8573474884
0.38595956564 -0.4575599432 -0.80103331804
0.52589666843 -0.52768325806 -0.66703236103
0.36496174335 -0.59312659502 -0.71763652563
0.86265718937 0.10312759876 -0.49503141642
0.78319841623 0.17592281103 -0.59630614519
0.84373819828 0.25363975763 -0.47301831841
0.80580300093 0.020526336506 -0.59176117182
0.72380417585 0.059735197574 -0.68739104271
0.73154169321 -0.089274391532 -0.67583042383
0.68214398623 0.16737648845 -0.71180653572
0.88193315268 -0.088146984577 -0.46285429597
0.62005203962 0.090723223984 -0.77932137251
0.65066385269 -0.021176729351 -0.75906002522
0.52961146832 -0.01852285862 -0.84803843498
0.60696810484 -0.1378017962 -0.78267419338
0.1571906805 -0.74207997322 -0.6516161561
0.00041992240585 -0.79011338949 -0.61292082071
0.075399823487 -0.68364351988 -0.72592145205
-0.041201464832 -0.6908288002 -0.72180706263
-0.12020432949 -0.74189507961 -0.65963578224
0.11598762125 -0.58837980032 -0.80022889376
-0.0047556585632 -0.60569709539 -0.79568469524
-0.11074203253 -0.87360036373 -0.47384670377
-0.27350965142 -0.91054737568 -0.31028395891
-0.26712626219 -0.83358794451 -0.48346158862
-0.062577843666 -0.93489050865 -0.34919735789
-0.46479988098 -0.77873945236 -0.42128792405
-0.49047586322 -0.84579205513 -0.20856021345
-0.10864780098 -0.61445045471 -0.78142929077
-0.10669203103 -0.53691959381 -0.83683270216
0.29393342137 -0.70308732986 -0.64751195908
0.21288245916 -0.64713168144 -0.73204874992
0.038452215493 -0.88241410255 -0.46893361211
-0.81220889091 0.20415486395 -0.54648572206
-0.77236652374 0.35783433914 -0.52477151155
-0.70443850756 0.30398795009 -0.64135718346
-0.67435711622 0.43425911665 -0.59722113609
-0.39355883002 0.16703754663 -0.9035808444
-0.47855961323 0.10780643672 -0.87095355988
-0.48803624511 0.1924931705 -0.85132986307
0.52394372225 -0.35299921036 0.77495867014
0.68802565336 -0.26087579131 0.67708426714
0.85572147369 -0.31026428938 0.41412180662
-0.62236994505 -0.14820235968 0.76800662279
-0.62897717953 0.094499468803 0.77164751291
-0.77968531847 -0.0077068815008 0.6260740757
-0.73886919022 0.19963476062 0.64320325851
0.92067271471 0.12297551334 0.37045356631
0.88000679016 -0.0051236678846 0.47465696931
0.9595683217 -0.075190268457 0.27107018232
0.35865965486 -0.39384806156 0.84623211622
0.38498261571 -0.20699891448 0.89939171076
-0.21744734049 -0.46184977889 -0.85988610983
-0.37659364939 -0.50659233332 -0.77559185028
-0.3274769783 -0.39655777812 -0.85759371519
0.24464833736 -0.18541273475 0.95171892643
0.10298781097 -0.22281579673 -0.96934574842
0.098100870848 -0.37357988954 -0.9223870039
-0.026411812752 -0.28128108382 -0.95925426483
-0.16650122404 -0.35917201638 -0.91827535629
-0.028847685084 -0.39467170835 -0.9183729887
-0.10623242706 -0.45146802068 -0.88594019413
0.014921369962 -0.49994972348 -0.86591517925
-0.21567051113 -0.55499982834 -0.80339515209
-0.27365702391 -0.61464655399 -0.73979210854
0.92759561539 0.046189323068 -0.37066337466
0.83540064096 0.48254191875 0.26314160228
0.9023617506 0.4232403338 0.080934971571
0.80998897552 0.57523167133 0.11396933347
0.97920179367 0.043802965432 -0.19765892625
0.94631201029 0.15564498305 -0.28329673409
0.97084462643 0.18662208319 -0.15040770173
0.93294674158 0.26944744587 -0.23877759278
0.89827680588 0.26151683927 -0.35312962532
0.94041079283 0.31120574474 -0.13702856004
0.89037007093 0.34385842085 -0.29831936955
0.89929246902 0.38847646117 -0.20093356073
0.8530356884 0.42946091294 -0.29643821716
0.84710150957 0.35913786292 -0.39168485999
0.9043315053 0.42043691874 -0.073592297733
0.848718822 0.49584743381 -0.18381816149
0.83329284191 0.5516307354 -0.035954333842
0.90176391602 0.164553985 -0.39970034361
0.99289339781 0.1157829687 -0.025694118813
0.95937091112 0.28087085485 -0.025582805276
0.97085291147 0.21563825011 0.10415674001
-0.044284310192 -0.145632267 -0.98834389448
-0.15667402744 -0.23904488981 -0.95826482773
-0.17586277425 -0.13098886609 -0.97553503513
-0.28838947415 -0.29768675566 -0.91005009413
-0.38036760688 -0.23002502322 -0.89546042681
-0.071287602186 0.54593372345 -0.83477216959
-0.12649486959 0.63676732779 -0.76056575775
0.011015483178 0.62527859211 -0.77977502346
-0.03338195011 0.744810462 -0.66642522812
-0.21765236557 0.70953601599 -0.67013198137
0.13327349722 0.68097710609 -0.7200756669
-0.26770272851 0.60803592205 -0.74733841419
0.12628678977 0.8061619997 -0.57801628113
-0.043402884156 0.8582239747 -0.51135897636
0.69365602732 -0.71469867229 -0.088780768216
0.51051127911 -0.85524535179 0.079120695591
0.7934564352 -0.45004352927 -0.40981012583
0.82665240765 -0.53145092726 -0.18426461518
0.55225110054 -0.77148342133 -0.31595730782
0.37680703402 0.5903314352 -0.71376550198
0.27133017778 0.59597551823 -0.7552408576
0.27703610063 0.69229519367 -0.66628068686
0.36498141289 0.49847480655 -0.78628206253
-0.47096902132 0.61690986156 -0.63053053617
-0.35720711946 0.66919213533 -0.65108114481
-0.38562601805 0.57633775473 -0.72049957514
-0.50706231594 0.69123286009 -0.51362222433
-0.63329595327 0.63156431913 -0.44702076912
-0.59245741367 0.56246364117 -0.57675415277
-0.18118801713 0.80494815111 -0.56500965357
-0.22517189384 0.88059067726 -0.41544052958
-0.32441836596 0.79820549488 -0.50542998314
-0.33937841654 0.73630970716 -0.5845605731
-0.58219069242 -0.21404069662 -0.78414452076
-0.4750572443 -0.15280503035 -0.86655282974
-0.5852689147 0.046704739332 -0.80947256088
-0.68288558722 -0.035237938166 -0.72947746515
-0.66512352228 0.099688224494 -0.74005395174
-0.75589412451 0.056559957564 -0.65221720934
-0.79164248705 -0.097319327295 -0.6031910181
-0.57122260332 0.14527608454 -0.80780375004
-0.11389754713 -0.037745222449 -0.99249315262
0.0093338238075 0.0065423762426 -0.99969357252
-0.26846516132 -0.19741633534 -0.94281125069
-0.33845436573 -0.13326609135 -0.93127346039
-0.19150033593 0.5490489006 -0.81351852417
-0.30753549933 0.50684976578 -0.80530101061
-0.27250090241 0.40754020214 -0.87151008844
-0.363132447 0.42498627305 -0.82917636633
-0.32462722063 0.085405908525 -0.94195920229
-0.24075135589 0.17179772258 -0.9550023675
-0.2184547931 0.054475799203 -0.97378373146
-0.43565538526 0.046223580837 -0.89841288328
-0.38674512506 -0.59250074625 0.70657026768
-0.30092322826 -0.4759285152 0.82637470961
-0.47968816757 -0.40059688687 0.78029733896
-0.6131349802 -0.45401731133 0.64565932751
-0.41257816553 -0.11741641909 0.90324103832
-0.24658308923 -0.15559339523 0.95650869608
-0.33726930618 0.0050442172214 0.94136244059
0.031310420483 -0.1270699054 0.99138885736
0.15465973318 -0.10839135945 0.98200172186
0.11406782269 -0.25499540567 0.96017664671
-0.021135766059 -0.23882856965 0.97081387043
-0.010391039774 -0.37709063292 0.92604726553
0.13304574788 -0.39824798703 0.90758800507
0.087170630693 -0.56581109762 0.81957519054
0.24712346494 -0.3208630383 0.91433650255
-0.13232366741 -0.28654378653 0.94885832071
-0.13785603642 -0.47270444036 0.87034809589
-0.25390928984 -0.33741050959 0.90643692017
-0.18939608335 -0.60965949297 0.7693721056
-0.21688170731 0.38007938862 0.89917343855
-0.14914610982 0.25251024961 0.95604276657
-0.49804165959 0.013083647937 0.86702150106
-0.46487864852 0.18842467666 0.86472404003
-0.32138717175 0.14452394843 0.93579161167
-0.30371648073 0.26481857896 0.91513991356
-0.42233225703 0.38486248255 0.8206564188
-0.20231206715 0.12296789885 0.97154313326
-0.060224115849 0.10772895068 0.99229508638
-0.17445325851 -0.016751138493 0.98450911045
-0.039809037 -0.026109546423 0.99887651205
-0.10415559262 -0.14114578068 0.9844866395
-0.59340673685 0.2936116755 0.74939805269
0.22751633823 -0.48559871316 0.84401071072
0.42391508818 0.073199592531 -0.9027351737
0.52558022738 0.1170611307 -0.84266358614
0.14157104492 -0.48953616619 -0.86041373014
0.25420737267 -0.54016834497 -0.80223673582
0.24129724503 -0.42550674081 -0.87217783928
0.58898490667 0.20869907737 -0.78072780371
0.43216714263 -0.66959142685 -0.60399913788
-0.13154903054 -0.67605298758 -0.72500640154
-0.14118558168 -0.80674785376 -0.57381772995
0.36654105783 0.37437728047 -0.85174262524
[...]
CELL_DATA 1102
SCALARS cell_data_0 double
LOOKUP_TABLE default
1.02507036353e-05
1.42425730708e-05
4.72297820855e-06
1.23278277494e-05
7.78005622605e-06
8.23578388744e-06
2.99574843653e-05
6.65743580442e-06
1.51350140235e-06
1.26248805478e-06
1.08611041134e-05
8.823627397e-06
2.51408961927e-06
1.19822941877e-05
1.03554581206e-05
9.65426757087e-06
8.26949017756e-06
1.0123203271e-05
1.21854915111e-05
1.01553300153e-05
1.34910801365e-05
1.28560630049e-05
1.16342559217e-05
2.31922117028e-05
1.25585118431e-06
1.15923127569e-06
5.43910065712e-07
1.37153017837e-06
9.53033652347e-07
7.57948809386e-07
1.30307561377e-07
4.24528813829e-07
4.22396084666e-07
4.17655442282e-07
2.45737690991e-06
6.00343799231e-08
1.21972477436e-07
6.92321908547e-08
9.11549117149e-08
2.00033385191e-08
1.1043128457e-07
2.03518310959e-07
2.29358666993e-05
7.77202219894e-09
8.49011126778e-08
5.11806028806e-09
1.09727053695e-07
2.03168145681e-07
2.88068432846e-07
7.62706014499e-06
2.71150624314e-07
1.66742826584e-05
1.80607316279e-05
8.0090382225e-06
1.4805494802e-05
1.05866151652e-05
1.14822700937e-05
1.6745225381e-05
1.16795966886e-05
5.66277400091e-06
8.12610090604e-06
2.90082441549e-06
7.455288489e-06
1.16308083566e-05
1.72141021253e-05
5.29844084334e-06
2.3715931614e-05
1.05323081386e-05
1.06453997153e-05
1.85447823513e-05
4.38437745013e-07
3.06112150024e-07
2.24215076977e-07
5.46692501777e-07
2.13345971371e-07
2.65280164278e-07
1.42256266467e-07
2.01641987139e-07
5.30826162461e-06
4.31394903407e-06
8.527547673e-08
1.7275423722e-07
3.73708686505e-08
3.49599713405e-07
1.5530167546e-06
3.73902941013e-07
3.28596201502e-07
2.79564658061e-07
3.45312873842e-07
2.20141071226e-07
2.79451261311e-07
3.30105975117e-06
3.20954798183e-07
1.16272346816e-07
4.18316621079e-07
4.57804921072e-07
4.49151344303e-06
9.18000437768e-08
2.47233427987e-07
3.37015940355e-07
2.37939264766e-07
2.70769504274e-07
2.3473852941e-07
3.74273116126e-07
6.00600300588e-07
7.26141176405e-07
4.72688971629e-07
9.06478884029e-07
1.19822696757e-06
9.38237651333e-07
5.29878700197e-07
1.99215757963e-07
8.51659442076e-08
5.56864835993e-08
1.89444669059e-07
5.30917578926e-08
1.46377585867e-07
1.71952427504e-07
1.10420387186e-05
6.19605513661e-06
2.13197715424e-07
3.43913321637e-07
4.67859904684e-07
3.64474778464e-06
1.44873504128e-05
1.99506647426e-05
8.99722040944e-06
1.56609392638e-05
2.76789421857e-05
2.33315406485e-05
1.4647927684e-05
2.90275453515e-06
7.22019459052e-05
0.000108074209824
4.72999664538e-05
5.19397159292e-05
6.9791902335e-05
3.1584151199e-05
4.83757451929e-05
5.26050597531e-06
1.94051205945e-05
1.74597802047e-05
1.00331908511e-05
4.72133850623e-05
7.74376346833e-05
2.81340292781e-05
4.00020754374e-05
3.56827727171e-05
4.66414216097e-05
1.30506227267e-05
1.68336159381e-05
1.3717500888e-05
1.00858791104e-05
7.21907685032e-06
1.05832690558e-05
3.08015253066e-05
1.84976095921e-05
2.61961278348e-05
1.68202388024e-05
1.95485527813e-05
4.18528124679e-06
3.88720062291e-06
4.8787012357e-06
2.36343751932e-07
3.27360350828e-06
9.81857170578e-06
2.70393632185e-06
2.12561622882e-05
6.02559039031e-06
6.43879062281e-06
7.12975761791e-06
4.86281080666e-06
4.87644734569e-06
1.43379362256e-05
6.47032065602e-06
1.52556890585e-05
5.56378982354e-06
6.28469176838e-06
1.06830658245e-05
1.27425915157e-05
6.31033750785e-06
5.84464319189e-06
8.22472371965e-06
5.02277118469e-06
5.43142827488e-06
5.25050242964e-06
7.66176110433e-06
5.93326481466e-06
7.23188452629e-06
6.6571937427e-06
5.94504217015e-06
7.88163924307e-06
1.03312447325e-05
8.41041094427e-06
1.34699361842e-05
9.30970446705e-06
1.15015607654e-05
1.24104392351e-05
1.32312267589e-05
9.40626122167e-06
7.87617154191e-06
1.18125446654e-05
1.28015403279e-05
7.72652463663e-06
8.35042420378e-06
1.08914747948e-05
9.10630310413e-06
1.0335893337e-05
1.3366142032e-05
1.28287006661e-05
6.11542712225e-06
6.37730490386e-06
5.87353311468e-06
6.23290130681e-06
1.15164078053e-05
1.22037655499e-05
1.10917080444e-05
1.07047104162e-05
1.0919755346e-05
1.17860315692e-05
1.15469230395e-05
7.18593852511e-06
9.12267331025e-06
9.66675588076e-06
9.28180336501e-06
2.3422101612e-06
1.84075500909e-08
8.28701687957e-08
3.96395706762e-07
1.01875035789e-06
5.80579975706e-08
8.5298828506e-08
9.56704334487e-07
2.29343291742e-08
9.72253431444e-08
2.422230696e-08
2.51548592115e-07
2.90878833035e-08
1.29195926015e-09
4.49049696134e-07
5.85015090739e-08
4.20868070827e-08
6.28335910767e-08
1.62134375747e-07
1.23563233496e-07
1.08577704844e-05
1.15012545025e-05
1.13531026785e-06
2.17955872986e-06
7.15832245596e-07
2.34357248318e-06
7.965319814e-07
9.50077068835e-07
1.92085692739e-07
9.10711437038e-07
4.0952711013e-07
3.89404307717e-06
4.50223518441e-06
2.08154965806e-08
1.92815235908e-07
4.7582160916e-08
3.13289480995e-08
2.57498550931e-08
9.61204600692e-08
8.52549112404e-07
1.07764402727e-06
1.31291315968e-06
1.73396639833e-07
2.31767832344e-07
1.95400881551e-07
6.80754062799e-06
1.05575294265e-05
5.52986187314e-06
1.32509285085e-05
1.08585246351e-05
1.94603015083e-08
1.70504563762e-08
1.10770856607e-08
9.36738578658e-08
1.700996268e-08
5.36170019232e-06
6.56037208907e-06
3.64693951803e-06
3.71521913329e-06
4.45542674897e-06
4.29826933502e-06
8.17330275569e-06
4.81499207471e-07
1.34033176671e-05
1.10459053013e-05
7.08679154854e-06
5.32769514239e-06
8.2663237934e-06
6.02684346349e-06
5.62137921068e-06
7.66888948222e-06
7.56147772304e-06
5.63069975638e-06
4.0974180249e-06
7.18043482421e-06
3.43796445607e-06
2.98705099399e-06
4.06591420768e-08
2.4243924985e-06
7.05769116365e-06
8.07091817968e-06
4.22784958355e-06
1.0841757784e-05
1.30098974099e-05
6.37256361309e-06
5.02651545193e-06
2.27392042328e-06
1.79261811698e-06
1.04174313547e-06
2.58336858027e-06
9.51979824438e-07
1.16136063787e-07
8.67315125782e-08
8.14933914352e-07
8.87712434046e-07
6.54676676495e-08
1.20955144737e-08
6.1208253511e-08
5.00523726747e-06
7.05849326839e-06
1.93350094314e-06
9.14386344857e-06
2.78342881497e-06
4.54579786174e-06
5.56016767307e-06
3.53860276175e-06
8.43671183396e-06
5.90165983772e-06
8.82533667988e-06
7.84317574626e-06
2.96445395027e-05
1.13214719971e-05
1.27409330753e-08
1.18694364096e-07
5.24056647241e-08
8.96090519219e-08
5.49233682321e-08
4.42360432249e-08
8.20150063748e-08
2.74382394395e-06
7.60584551571e-06
5.70190642527e-06
7.45147814041e-06
8.92505762552e-06
9.37082356604e-06
7.4339918195e-06
7.60182882703e-06
8.82085875382e-06
7.26638091131e-06
4.74190921453e-06
4.73838251724e-06
5.66627281012e-06
7.29379389339e-06
9.11373024902e-06
2.89275249061e-05
6.75268723607e-06
6.70345233793e-06
7.93561762783e-06
9.73690780415e-06
1.43517104512e-06
1.53504437463e-07
9.93008687657e-08
1.01388667746e-07
1.83262778297e-07
1.50272790077e-07
1.18002386658e-07
1.77640802113e-07
1.11288722156e-07
2.34307743924e-08
2.05585451628e-08
6.51932062315e-09
1.03845446461e-05
2.37909621959e-06
6.39521126416e-06
6.82018118274e-06
1.08847528479e-05
1.00573506612e-07
7.77095833895e-08
7.87124265806e-08
1.32318109563e-05
8.07875315802e-08
8.53139196099e-08
8.28016540719e-08
1.2859036547e-07
8.36029556636e-07
7.6891653806e-07
7.69244979618e-07
6.5653735733e-07
4.45979657123e-08
6.54818541445e-08
9.1997275336e-08
3.39233051508e-09
8.16076620766e-07
3.87245147574e-08
3.17765499203e-07
4.63679108659e-08
9.7562915048e-07
4.5504179391e-08
2.41877124295e-06
2.98644107694e-08
2.92780634545e-08
6.37224772976e-08
7.27618447424e-09
3.22751426333e-06
2.33265211703e-07
1.08650751453e-07
1.85695195804e-07
1.75913947362e-07
3.37063823287e-07
2.83462449327e-07
2.00711317482e-07
2.29158782212e-07
5.01916474464e-07
6.18378266035e-07
3.49556977072e-07
1.20084194995e-06
1.42692913179e-06
1.41573635576e-06
5.3943798386e-06
2.75040331542e-08
1.75272607223e-07
1.18164808325e-06
9.84152575975e-06
5.95229255925e-07
8.88267638264e-07
4.03469421647e-08
3.98631433426e-06
5.32841252235e-06
3.36038050822e-06
1.89890577427e-07
2.13210374342e-07
3.55799020441e-06
3.44645466369e-06
2.25039477173e-07
1.87026960994e-07
2.78039780244e-07
5.25342013552e-06
5.39536003572e-08
1.53324183134e-07
4.31312772241e-06
7.82570128777e-07
1.89265348989e-06
1.45827770945e-06
1.01041087719e-06
1.2529090377e-06
1.789771383e-06
6.83650953479e-07
1.4970636787e-07
1.00078575837e-07
1.08343721385e-07
2.45795692554e-06
2.78581394814e-07
1.58706320607e-06
4.3890551777e-06
3.21603717141e-07
5.34791942687e-07
3.96921263198e-06
7.01945758049e-07
2.77762992774e-05
8.0804338716e-06
1.12279697778e-05
8.2599513616e-07
6.57492115828e-07
7.65864600448e-07
1.06389888932e-05
4.97668967968e-07
9.97668483527e-07
2.25530131037e-07
1.74917645343e-07
6.34883237261e-07
1.12582380601e-06
4.65839307638e-07
1.21126573519e-06
4.73072468077e-07
4.77087714104e-07
3.22789336113e-06
5.19519479416e-07
4.41289993481e-07
3.66792771163e-07
4.90657025117e-07
8.71074457097e-07
5.27911602767e-07
4.01627485197e-07
6.50658648123e-06
5.71922228232e-06
3.41313842265e-06
3.04028906187e-06
1.31758909654e-06
2.03767539498e-06
9.76769922722e-07
1.9175225049e-06
1.32149512669e-06
1.37996825103e-06
7.96590009782e-07
4.64177487627e-07
1.68084835645e-07
3.11620078833e-06
3.21331557713e-06
7.8146124958e-08
3.06918816249e-07
4.55554575225e-07
1.18203092668e-06
1.18069319013e-06
7.23902428804e-07
6.98232286064e-07
3.90291651374e-07
8.06902276955e-07
3.54078451306e-06
8.25413099046e-07
3.44696059105e-06
1.02143758986e-06
2.83389236918e-06
2.7210556091e-06
1.00703747608e-06
3.70063131222e-07
2.8050053332e-06
1.6972589699e-06
1.67395024266e-06
8.66978017545e-07
4.20989562426e-07
1.40131879244e-06
5.15611786954e-07
3.58674151978e-07
1.5381587152e-06
2.40337561856e-06
2.60549935964e-07
4.00489276339e-06
5.14567529636e-06
1.25630005643e-06
2.64376884185e-07
1.72294938241e-06
1.46459844921e-06
9.82043862066e-08
4.40453944335e-08
4.01646229735e-06
1.45621356458e-06
7.2131126327e-07
5.94329639509e-07
3.62668152716e-06
1.18434339068e-06
2.48248299855e-05
2.10523038244e-07
6.32311692451e-07
1.44867083598e-07
2.97779719885e-07
4.57463856539e-07
6.23118371155e-07
9.56544067216e-07
1.0117906085e-07
9.47304125026e-06
1.36481525951e-05
1.10029990871e-07
2.44807711116e-07
8.38672979765e-06
1.85784803037e-05
3.28165502825e-07
3.35801291726e-07
1.95640812665e-08
2.39010146751e-07
2.45185647183e-07
2.13556308992e-08
5.11842119571e-07
1.56410097491e-05
4.10877710985e-07
7.68732657355e-07
1.27511936881e-05
8.18610154503e-06
2.32634367506e-05
1.09348056162e-05
1.26670724333e-05
2.94112450599e-05
9.86683169172e-06
9.00384943039e-07
2.43453451337e-07
9.20030389533e-07
7.99186725823e-07
1.79093560756e-06
2.43865915783e-07
1.01342322513e-06
5.72571764177e-07
1.57620016853e-06
1.39803708628e-05
2.5338830133e-07
1.04483053407e-06
4.50720480623e-07
3.18769054565e-06
1.06004986252e-05
2.83550964488e-06
2.87839375789e-06
1.36742621531e-06
9.98662717035e-07
1.06910792552e-05
3.24948192699e-05
1.42085057174e-06
9.37461073685e-06
4.76079582487e-07
1.90900217724e-06
5.66681366926e-06
1.45348858879e-06
1.8181733626e-06
1.12040867391e-06
2.2004780187e-06
1.11050037792e-06
1.55876148121e-06
1.82669685591e-06
1.72949570602e-06
2.19870641408e-06
2.46012608472e-06
2.45608969891e-06
3.85764119876e-06
2.78170186887e-06
4.1111919564e-06
1.57732816639e-06
1.26629134841e-06
1.08913600652e-06
8.61007632873e-07
6.689828187e-06
3.34909882955e-06
4.60549559228e-06
4.55428749266e-06
4.22477238805e-07
4.50366395884e-07
2.62429842652e-07
2.80737770315e-07
4.39653834797e-06
9.59506557071e-06
2.43359541035e-06
2.06992130612e-05
3.25138851985e-05
4.53320483327e-05
1.37541635785e-05
9.01830999302e-06
7.37945193738e-06
1.07884236211e-06
5.01380477366e-06
1.06960640541e-05
4.06782858071e-06
3.84416170855e-06
3.57688300046e-06
4.96106406524e-06
1.26177662243e-06
1.69277671818e-07
4.94088508061e-07
1.26533522629e-07
1.27871847125e-07
3.89215673181e-07
5.5697922337e-08
2.48879523431e-07
8.42336380673e-08
8.02631001003e-07
2.20510681798e-06
1.10767390834e-05
1.78313800279e-05
2.34556319695e-05
3.6818377248e-05
5.78683988381e-05
1.45269443644e-05
1.17340985609e-05
5.6502447384e-07
7.71739138994e-07
1.36503434654e-05
4.46079473197e-07
1.4091577617e-05
3.98471913966e-05
6.25028217456e-05
3.03124876783e-05
3.51079623037e-05
1.41962738586e-05
4.29172992194e-06
4.66610449038e-06
5.40250054005e-06
4.9567173143e-06
7.9395102555e-07
1.06014482943e-07
1.55604551392e-07
2.82731351994e-09
1.04797774228e-07
1.34033764351e-07
1.09028876016e-05
2.21677613292e-07
6.0336682377e-06
1.53252430699e-05
9.46865452096e-08
6.86703427951e-08
9.66706636009e-07
9.42756130527e-07
1.31187438958e-06
1.56548688701e-06
2.90439156153e-07
5.5257227119e-07
1.03509328771e-06
1.48042692832e-07
1.15736152212e-06
1.47942925122e-06
7.13150741944e-06
1.42668878263e-06
2.02097354208e-06
9.73055481151e-06
6.81191262641e-07
1.70306341921e-07
9.89582669715e-06
6.41111697243e-07
5.76020161282e-07
9.96561789617e-07
8.86181328593e-06
1.35984778628e-06
3.14804547388e-06
1.8052032601e-07
3.94575262657e-07
1.99519067308e-07
2.82436341088e-07
6.63017946153e-06
8.92144283449e-06
7.09895319221e-06
4.02444352922e-05
4.2050582388e-07
5.48008308088e-07
1.31875331534e-06
2.13276858036e-06
3.89356895717e-06
2.61596392675e-05
2.47507394806e-06
1.0008251847e-06
3.48568552536e-06
1.54418108522e-06
6.25568059654e-06
4.80620779126e-06
3.4151281103e-06
1.49519987108e-07
1.53206507438e-07
5.32726424336e-08
8.4848053376e-08
8.03155914089e-06
1.64372701812e-06
2.75932863311e-06
9.16364835131e-07
3.39719653833e-05
4.24588265997e-05
6.88780074733e-08
9.77935813871e-07
2.42840364228e-05
3.39965452008e-07
3.90808626415e-05
8.12208534509e-06
6.51446002972e-06
1.47104612e-06
4.14840891861e-05
4.99062941956e-06
5.1362000195e-06
1.48757465416e-06
2.90493904008e-06
2.08681600421e-06
2.96762775054e-06
4.37937178132e-05
3.31358277145e-06
2.22997199931e-06
1.56008635912e-06
1.14901666601e-06
1.40540451646e-06
1.20520748311e-06
4.97320277407e-06
2.5426582518e-06
2.94521791522e-06
3.01499008805e-06
1.01766285167e-06
7.31047297698e-07
2.11172966677e-05
3.21561546429e-06
2.91233068959e-05
9.15199157724e-07
2.68872660083e-06
2.51439299433e-06
2.86749443423e-06
7.88115527085e-07
1.36037124206e-06
2.90646549852e-06
2.06444404941e-06
5.77575306316e-07
1.03376147947e-06
1.44995338637e-06
2.53782040553e-06
2.18325556238e-06
1.90905903098e-06
1.44812956304e-05
9.28859302596e-07
1.12727039421e-06
1.04944500903e-05
1.00706272925e-05
3.92000869346e-06
2.6236374872e-06
4.24284115948e-06
4.01585195082e-06
5.65841935639e-06
5.63458070107e-06
6.48733517173e-06
6.9385729029e-06
1.04127765105e-06
1.15183081001e-06
9.77320826791e-07
7.13487197216e-07
1.71173040274e-05
2.44338686883e-05
1.12937277854e-05
1.41576884594e-05
4.87145647111e-06
9.14070988062e-06
4.50300603478e-06
3.39451525901e-06
3.30817963346e-06
2.25308325014e-08
7.25639318121e-07
8.29553066205e-09
6.04997831334e-09
5.36681212318e-09
6.60460064052e-09
6.93332623603e-06
2.32186908585e-07
8.37248431309e-06
2.91253532146e-06
7.88527875654e-06
8.02437484006e-06
4.41163483141e-06
3.54890316012e-06
3.4313292775e-06
5.00932920802e-06
4.69338832229e-06
3.15529979939e-06
3.60530360421e-06
3.37256028346e-06
1.98445604885e-07
1.66084498932e-06
1.94574861047e-06
1.46634453395e-05
4.29804325174e-06
5.51355210694e-06
4.9018680676e-06
5.11180272791e-06
4.13527709598e-07
1.11562651927e-06
8.03667960081e-07
1.58090101915e-06
1.71211037365e-07
1.4405031995e-07
2.42161675581e-07
4.32696961985e-07
4.62625074752e-07
5.77689653014e-07
6.20120380934e-07
3.79801628599e-07
2.24819088748e-07
6.02433686003e-07
2.40900591725e-06
9.62116564584e-08
5.6405509133e-07
3.70895371345e-06
4.70916299683e-06
2.90610139944e-06
2.81051948614e-06
2.51589709721e-07
7.34233821737e-07
1.11307676956e-06
3.88160889002e-06
3.53535154842e-06
1.43989004963e-07
7.29065945468e-07
6.88725917197e-07
1.03876794853e-06
8.10710113079e-08
1.69030526094e-06
4.21427069642e-08
6.82428508453e-07
9.20279516196e-07
5.61087473983e-07
1.02016659911e-06
4.86605401249e-06
4.11254214856e-06
3.07643941992e-07
1.76478698576e-07
1.3857560888e-06
1.00630953689e-06
8.53515256635e-06
9.80373860498e-06
6.67639229421e-06
3.85621008179e-07
6.6055691516e-06
8.54851956922e-06
8.71184129605e-06
2.38441570605e-06
6.62238218047e-06
5.21469667066e-07
3.45916525826e-06
2.1748453629e-06
3.02095506105e-06
6.44668234953e-06
1.78475029924e-06
1.45754180157e-07
2.95128159502e-06
3.08660532188e-09
7.90816294338e-10
2.934833414e-09
5.01543545406e-06
1.21244648615e-06
5.76313756389e-06
2.58018193595e-06
9.21354478701e-06
2.50666064759e-08
1.92744895923e-06
1.13663025022e-05
6.30491773517e-06
1.14093086764e-07
6.69593200631e-09
6.44488718032e-06
1.88129173422e-06
9.62499192035e-07
2.02674500167e-09
1.81806736765e-09
4.62810456482e-07
4.28742011157e-06
4.70275891761e-06
6.34492160633e-08
4.46473038404e-07
4.12240204597e-06
4.99121285078e-07
4.93385366787e-09
4.34713984051e-06
5.28664408264e-07
7.93721215833e-08
6.41288712476e-06
1.61579597597e-08
2.10836032096e-08
2.25798307169e-05
1.43109474279e-06
1.91622613917e-06
1.0756539915e-06
8.2606714522e-06
3.77966342876e-06
3.8207590235e-06
7.82491658776e-06
4.78036819593e-06
5.23919961678e-05
4.39129781511e-06
1.01246236995e-08
7.04080782786e-10
2.34907371532e-06
1.19552171208e-06
3.66410273992e-06
2.8295087967e-07
3.98853405694e-06
1.48077577323e-06
4.83368353555e-06
6.36054753842e-06
2.52404716152e-06
6.31348999017e-06
9.58727127383e-06
1.72742213379e-05
7.62310377614e-06
1.50121705864e-06
3.18416475594e-06
4.35359584361e-06
5.53024359467e-06
1.08854164907e-06
7.49402424122e-06
6.35590524484e-06
3.97976129272e-06
2.76944709982e-08
4.76445595854e-06
2.2030683123e-06
6.26407386644e-06
1.12532326386e-05
5.79390397842e-06
3.4737576486e-06
7.15538956684e-06
2.3950754179e-06
1.71628648382e-06
2.9879860598e-06
2.97721782295e-06
5.85124719485e-06
8.29670643831e-07
1.80586908251e-05
6.80620249093e-07
7.10360389456e-07
7.36989004966e-07
8.69354910588e-07
6.94746856325e-07
2.33211579333e-06
8.19731304965e-06
6.90435116336e-06
2.18709580309e-05
1.76799999824e-07
7.99695968365e-07
2.30699151172e-06
1.34213769071e-05
5.35776989775e-07
4.28094781116e-07
2.55858067796e-07
2.39249499078e-06
3.8793793348e-06
5.82097177292e-07
4.7631959905e-07
3.94795820915e-06
4.1861633732e-06
2.73922402946e-06
2.0894696369e-06
1.2762986433e-06
6.64118529143e-06
1.95355271876e-07
2.71455161106e-07
1.6597699342e-07
5.12617347096e-07
5.00672722347e-06
4.96984083471e-06
1.99627706387e-07
5.04229525814e-07
1.27798891005e-06
1.15046544317e-05
1.4831018501e-05
9.96649860969e-07
4.82062061654e-08
1.48057517072e-07
1.07577381795e-05
9.87957085684e-09
9.15760724e-06
1.3116675162e-05
5.63058536293e-06
1.03283366484e-07
2.76982944354e-06
4.97072763461e-06
5.91521374576e-06
1.7616668192e-05
6.10243323505e-06
3.88780129957e-06
7.04452443598e-08
1.35621399418e-08
2.1925062483e-06
4.233568985e-06
2.37895693403e-06
5.23203104222e-09
4.91716427738e-06
4.31035292042e-06
1.10765236443e-05
3.36213201108e-07
6.83070021154e-06
7.01576923703e-06
1.75581380512e-07
3.42109396506e-05
2.70687681768e-06
2.81892792613e-07
2.07930103344e-07
2.08036971328e-07
5.25118617574e-06
6.7032061445e-07
2.36043919503e-06
5.30921646782e-09
1.1059894581e-06
1.98896030887e-06
6.11421795704e-06
1.88025704855e-06
5.48687271769e-08
7.74918374706e-09
3.11003011448e-09
2.09013524836e-06
2.28445574749e-06
2.30200346954e-10
2.22243196367e-09
4.67340186633e-09
1.00557043581e-07
7.42574234653e-06
7.20996029889e-08
2.44632059315e-07
3.08710150361e-08
3.60031451435e-07
8.12153548549e-07
5.82761395997e-07
5.714758037e-06
2.43322599609e-06
2.44727062226e-07
4.16507756872e-07
4.93968097685e-07
3.89381776267e-07
1.85342627109e-07
3.98920784978e-09
2.15499298074e-07
1.21389927616e-06
1.30284213857e-06
1.44461787064e-07
1.39065650468e-05
5.02832977028e-06
7.14000547278e-10
5.08712310544e-08
7.35369336921e-06
7.47946881404e-06
2.13044629612e-06
7.12854541222e-08
3.17826525486e-07
2.61997614728e-06
1.09500020037e-06
2.75215683052e-06

