# vtk DataFile Version 3.0
File Name: Molecule/sphere_excent/sphere_excent_0-s31.vtk
ASCII
DATASET UNSTRUCTURED_GRID
FIELD FieldData 1
TIME 1 1 double
0.0
POINTS 385 double
0.33768978715 -0.63780212402 0.69231891632
-0.0014821713557 -0.85370147228 0.52084010839
0.4999756515 -0.8105995059 0.30410176516
0.85170382261 -0.32939451933 0.40725591779
0.86747002602 -0.49046108127 0.081212572753
0.98557162285 -0.13903003931 0.096877701581
0.4997445941 0.70852583647 0.49835991859
0.41708052158 0.56092220545 0.71441733837
0.71701222658 0.36867776513 0.591152668
-0.53062725067 -0.82840454578 -0.17753976583
-0.00050651904894 -0.99918812513 0.033192925155
-0.45684248209 -0.85841584206 0.23082104325
-0.90619128942 0.14552327991 0.39615905285
-0.9808473587 -0.15195177495 0.09068788588
-0.83755850792 -0.28267019987 0.46739029884
-0.84147679806 -0.52308237553 0.12778483331
0.46829977632 -0.86738115549 -0.16753353179
0.0083615081385 0.99946695566 0.024427704513
-0.27297535539 0.94465047121 0.18171463907
-0.013259446248 0.88999158144 0.45509788394
-0.37794268131 0.81410855055 0.43896922469
-0.25613605976 0.95393806696 -0.1565515846
-0.51969063282 0.85428410769 -0.0010953093879
-0.48847451806 0.81166452169 -0.32029718161
-0.5413838625 0.79208147526 0.27994245291
0.041855368763 0.94081479311 -0.33595392108
0.26015898585 0.95670711994 -0.13022355735
0.27069333196 0.93088871241 0.24419397116
0.44478437304 0.89537966251 0.024629892781
0.37707969546 0.8455876112 -0.37753677368
0.23303195834 0.75841116905 0.60805010796
0.58183896542 0.55160027742 -0.59759646654
0.41748183966 0.71497040987 -0.56086790562
0.56931364536 0.67519509792 -0.46867093444
0.17120142281 0.80859690905 -0.56278645992
0.93699961901 -0.30349072814 -0.17059527338
0.22991113365 -0.033061880618 -0.97243201733
0.14147678018 -0.19877642393 -0.96949350834
0.032960060984 0.027350423858 -0.99900960922
0.68388622999 -0.64040613174 -0.3498570025
0.50527113676 -0.67365181446 -0.53930842876
0.68287497759 -0.48128226399 -0.54938870668
0.6305231452 0.30962204933 -0.71175283194
0.70284873247 0.32349315286 -0.63335746527
0.68117511272 0.21057455242 -0.70111864805
0.67715495825 -0.22921288013 -0.69922327995
0.75416916609 -0.096953980625 -0.64941799641
0.76008677483 -0.29458773136 -0.57909208536
-0.62092483044 -0.14906930923 0.76891314983
-0.46274933219 -0.34049338102 0.81836658716
-0.38781768084 -0.14348712564 0.91012305021
-0.28330948949 -0.30775079131 0.9083096385
-0.6043510437 -0.47279080749 0.64109760523
0.93731939793 0.11328769475 0.32858946919
0.96761137247 0.2108809799 0.13853543997
0.84581547976 0.43969941139 0.30198469758
0.65731781721 0.66632783413 0.34652402997
-0.69870269299 0.6984115243 -0.15307533741
-0.68238610029 0.70244830847 0.20150534809
-0.76781439781 0.63784474134 0.055390402675
-0.4706273675 -0.3467438817 -0.8112975955
-0.51521074772 -0.5117585659 -0.68670642376
-0.62697988749 -0.32520139217 -0.70760011673
0.47525021434 0.86065942049 -0.18286831677
0.59211689234 0.74352127314 -0.30956628919
0.51370710135 0.83797317743 0.18227823079
0.070888854563 -0.57739979029 0.81332582235
-0.86285144091 0.40525263548 0.30066877604
-0.9628854394 0.25959572196 0.039787836373
0.51068037748 0.29166522622 0.80880528688
-0.012554876506 0.32309001684 0.94625395536
0.16655266285 0.34258565307 0.92434316874
0.029178600758 0.52569282055 0.85007417202
-0.035431180149 0.12581728399 0.99141019583
0.15239605308 0.15571092069 0.97594547272
0.0914580971 0.0083481809124 0.99576216936
0.20858430862 0.57875722647 0.78834295273
0.33076813817 0.4018073976 0.85382592678
0.34437033534 0.18190675974 0.92107492685
0.51053506136 -0.030571255833 0.85911911726
0.28436139226 -0.01755666174 0.95851564407
-0.015664448962 -0.93664193153 -0.34921076894
0.21476402879 -0.92448186874 -0.3148471117
0.38149186969 -0.4566590488 -0.80370020866
0.53637444973 -0.50193238258 -0.67828226089
0.37430477142 -0.59199714661 -0.71369928122
0.85918825865 0.12430156022 -0.49608111382
0.77752244473 0.20031097531 -0.59607821703
0.83904355764 0.27402514219 -0.46983769536
0.80258113146 0.038862794638 -0.59514683485
0.71797978878 0.081084303558 -0.69131422043
0.86313927174 -0.13148210943 -0.48730975389
0.60007810593 0.090308174491 -0.79487413168
0.65077769756 -0.017310908064 -0.75906306505
0.52453500032 -0.029833013192 -0.85084396601
0.60521018505 -0.13740831614 -0.78409004211
0.055446624756 -0.87235999107 -0.48578184843
0.33533081412 -0.81651288271 -0.4695853591
0.3037148118 -0.71043068171 -0.63452631235
-0.26573756337 -0.90207141638 -0.34002950788
0.14829586446 -0.73727285862 -0.65912586451
-0.0033161046449 -0.78042525053 -0.62518203259
0.064238511026 -0.68283677101 -0.72775244713
-0.049522984773 -0.68497163057 -0.7268538475
-0.12520974874 -0.73023533821 -0.67154216766
0.100582771 -0.59111380577 -0.80027872324
-0.017947213724 -0.60416227579 -0.79665255547
-0.098260268569 -0.86424183846 -0.49348393083
-0.25281536579 -0.82128429413 -0.51132160425
-0.44577428699 -0.77544695139 -0.44688674808
-0.11927356571 -0.61038661003 -0.78305333853
-0.11657685041 -0.53625422716 -0.83592289686
0.20515435934 -0.6487442255 -0.73276412487
-0.82586085796 0.2007342875 -0.52465468645
-0.76009392738 0.3839661479 -0.52327090502
-0.69340413809 0.31728503108 -0.64688867331
-0.66140151024 0.43500244617 -0.61098086834
-0.37709230185 0.1877708137 -0.90695768595
-0.4669059515 0.090408235788 -0.87966519594
-0.48650312424 0.19470956922 -0.85167551041
0.51783275604 -0.32423731685 0.79175502062
0.67656034231 -0.24513308704 0.6945759058
0.61296230555 -0.49082618952 0.61916124821
-0.76354461908 0.027996344492 0.64426451921
-0.59677362442 0.12415674329 0.79238128662
-0.71140819788 0.22704644501 0.6643409729
0.8554469943 0.02655339241 0.51723766327
0.34802591801 -0.38604384661 0.85428035259
0.37759253383 -0.19795282185 0.90457236767
-0.21795608103 -0.46214812994 -0.85958057642
-0.36491772532 -0.5051727891 -0.78207582235
-0.30755776167 -0.3906711936 -0.8674774766
0.64228886366 0.14299066365 0.75296342373
0.23316378891 -0.18885697424 0.95393007994
0.095787219703 -0.38787811995 -0.91663408279
-0.016781622544 -0.2905857265 -0.95666611195
-0.15350474417 -0.36915361881 -0.916421175
-0.028903413564 -0.40491110086 -0.91389447451
-0.10708265752 -0.45575487614 -0.88363951445
0.0060980846174 -0.50545603037 -0.86279630661
-0.22068969905 -0.5515704751 -0.80440610647
-0.26732942462 -0.61155831814 -0.7446423769
0.92523425817 0.051271241158 -0.37572732568
0.90652149916 0.4135248065 0.083866901696
0.79401612282 0.59675431252 0.11187468469
0.97963148355 0.012586176395 -0.19919542968
0.99404424429 0.10367500037 -0.033802308142
0.94369524717 0.1582159102 -0.29037868977
0.96992856264 0.18574365973 -0.15739093721
0.92916673422 0.27644774318 -0.24538621306
0.89440816641 0.2713136375 -0.35552597046
0.93795740604 0.31662896276 -0.14131610096
0.88429528475 0.35246810317 -0.30616906285
0.89556729794 0.39304181933 -0.2085544765
0.84704506397 0.43465903401 -0.30575174093
0.84053170681 0.37126505375 -0.39443275332
0.90270799398 0.42431300879 -0.071442872286
0.84713745117 0.49891296029 -0.18280079961
0.82625949383 0.56224936247 -0.019001472741
0.89830976725 0.17816020548 -0.40161111951
0.96077281237 0.27651533484 -0.021220734343
-0.04125469178 -0.15019923449 -0.9877692461
-0.1689003706 -0.24326364696 -0.95513826609
-0.19696953893 -0.12042341381 -0.97298312187
-0.31388270855 -0.27791199088 -0.90759342909
-0.23781895638 0.88006156683 -0.41081464291
-0.071888096631 0.5339024663 -0.84247475863
-0.12895508111 0.62469869852 -0.77012050152
0.018210597336 0.60839051008 -0.79341298342
-0.035071689636 0.73303222656 -0.67926871777
-0.22531428933 0.69226127863 -0.68548285961
0.13408789039 0.67374002934 -0.72668474913
-0.27842432261 0.58504146338 -0.76167958975
-0.044595919549 0.84523636103 -0.5322522521
0.70487821102 -0.70426231623 -0.082916013896
0.82163196802 -0.39440643787 -0.41140797734
0.83157014847 -0.51598650217 -0.20594526827
0.40865790844 0.60333675146 -0.68488055468
0.2807636559 0.68490290642 -0.67233598232
0.27831360698 0.57634270191 -0.76836597919
0.38643047214 0.49028542638 -0.78121238947
-0.33916890621 0.77190476656 -0.53749406338
-0.49545177817 0.69385826588 -0.52256673574
-0.36467191577 0.66450315714 -0.65222525597
-0.47075858712 0.60414105654 -0.64297288656
0.15264447033 0.4081813395 -0.90000623465
0.14992387593 0.53807520866 -0.8294480443
0.27988770604 0.44905814528 -0.84855121374
-0.39542204142 0.55931735039 -0.72855198383
-0.6482282877 0.609785676 -0.45508676767
-0.58132594824 0.54694193602 -0.60204339027
-0.18312630057 0.79072624445 -0.58409559727
0.030129658058 0.47177612782 -0.88120114803
-0.12160110474 -0.032598469406 -0.99203377962
-0.17285443842 0.091169923544 -0.98067736626
-0.25689667463 -0.010899452493 -0.96637952328
-0.32419717312 0.090907759964 -0.94160145521
-0.33313444257 -0.099834270775 -0.93755406141
-0.40803807974 -0.01218208205 -0.91286510229
-0.47942554951 -0.14417794347 -0.8655974865
-0.5343773365 -0.038757089525 -0.84431540966
-0.57603091002 0.056516714394 -0.81546086073
-0.59856557846 -0.18813219666 -0.77832120657
-0.66006183624 -0.033261600882 -0.75039666891
-0.64790117741 0.11524730921 -0.75280547142
-0.7382953167 0.070466972888 -0.67056471109
-0.79395717382 -0.10028986633 -0.59940475225
-0.56257373095 0.15269467235 -0.81251507998
-0.27891594172 -0.18554607034 -0.94219350815
-0.38291269541 -0.19929100573 -0.90187960863
-0.078038685024 0.20144054294 -0.97637677193
0.072932898998 0.19296008348 -0.97847145796
-0.0025485013612 0.33264422417 -0.94304317236
-0.17262555659 0.31669041514 -0.93270254135
-0.24773441255 0.20377285779 -0.9471732378
-0.32821470499 0.31898728013 -0.8891056776
-0.42863020301 0.25185483694 -0.86766022444
-0.18871338665 0.52038836479 -0.83276349306
-0.32499182224 0.4767216742 -0.81684166193
-0.10631570965 0.42969223857 -0.89667123556
-0.23482519388 0.41773843765 -0.87774908543
-0.14926478267 -0.59590142965 0.78886240721
-0.37003839016 -0.60346615314 0.70622736216
-0.68375879526 -0.6086769104 0.40156275034
-0.72156757116 -0.68757683039 -0.070075914264
[...]
CELL_DATA 766
SCALARS cell_data_0 double
LOOKUP_TABLE default
1.86960522458e-05
7.51109192361e-06
4.85083938766e-08
1.52756925093e-05
1.00433523983e-05
5.3154724914e-06
1.30427559312e-05
8.7706463141e-06
9.79786408018e-06
6.16251804169e-08
9.25017345027e-07
2.44475341716e-06
2.66698176728e-06
3.79664104217e-06
1.39997385942e-06
4.26109073147e-06
4.11635002959e-06
3.03889670589e-06
3.05010654825e-06
3.42366010415e-06
4.36201908416e-06
1.14500370476e-05
1.14904768692e-06
5.9932583759e-05
4.70420862549e-05
5.37886613696e-06
4.9894635767e-05
1.37467233614e-05
1.26078936566e-05
4.189536677e-07
1.13563452862e-06
1.32265359066e-07
8.49542699304e-06
1.33732346671e-06
9.66443716525e-05
0.000154556263384
0.000271142091178
0.000187669529331
9.68200874294e-06
6.08272902652e-05
1.39971715908e-06
7.25541255224e-07
1.58163802287e-07
1.44866477181e-06
2.36900681442e-07
2.40677398217e-06
2.58591321955e-05
2.7217494937e-05
1.54773991908e-05
2.20102317197e-05
1.17926988402e-05
1.17776590882e-05
2.22104425825e-05
2.06894426736e-05
9.76867343016e-06
9.1438343167e-06
2.12518918142e-05
1.66746479691e-05
2.35167457196e-05
1.0225888207e-05
1.2856239975e-05
1.48424833878e-05
1.77969744607e-05
9.72738957401e-06
1.20383891408e-06
4.35917402518e-06
2.57999196292e-06
1.17342529648e-05
3.13795239404e-05
2.80674967171e-05
1.43150064915e-05
2.23949924651e-05
2.00431099507e-05
1.84119338646e-05
1.37700050978e-05
1.31601273323e-05
8.10775504489e-06
5.8742420509e-07
7.79888737106e-06
2.53206061629e-05
4.42534683337e-05
2.47021374459e-05
7.81663242521e-05
7.75517508402e-05
1.00177446497e-07
1.15962740863e-07
8.41027908256e-08
4.92719490569e-09
1.88066205129e-05
3.30045420351e-05
3.7450753363e-05
2.99351017695e-08
1.47441970562e-06
5.15100363043e-08
3.30747010432e-08
9.6835317531e-07
3.06194297098e-07
1.54885274985e-08
4.03859321319e-07
1.19219943542e-06
1.42162395879e-05
8.43672997027e-06
1.5249985607e-05
1.24549129213e-05
1.81500768163e-05
1.84795077022e-05
1.47525023308e-05
1.33558040974e-05
1.19340886813e-05
6.81894956423e-06
8.5700459729e-06
2.87272962322e-05
4.49512548823e-05
9.56019161925e-06
1.35134836509e-05
1.41340144103e-05
4.33401790932e-07
1.21120070687e-05
9.64575273067e-06
7.59856376969e-06
1.38622792056e-05
6.84811727796e-06
3.69928774957e-06
3.01979549471e-07
2.18694299127e-06
2.29578254496e-06
4.53738526074e-06
2.27223025097e-06
2.7581084899e-06
3.40434470657e-07
6.23174077455e-06
1.48801875007e-06
2.15865626242e-06
1.23087027995e-08
3.92312620065e-06
9.71439432059e-05
3.10274500042e-05
1.31647656883e-06
3.94154009245e-05
1.66611067158e-07
3.58803139555e-07
2.35079086042e-07
3.25946229208e-07
1.50976300957e-07
2.29178959325e-07
1.89125360058e-07
2.56163066861e-07
1.11132679049e-07
3.66434507907e-07
4.3596949548e-07
3.22392257009e-07
9.07539704832e-07
7.82770762165e-07
1.11934587916e-06
9.77010701812e-08
2.34819648383e-07
1.47914293847e-07
2.69925936343e-07
1.6079359824e-07
5.21038014208e-07
3.50353286736e-07
1.99072217017e-05
1.88907338382e-05
8.01354348548e-07
3.82357582595e-07
6.00408976774e-07
9.5775143983e-06
1.92605055458e-06
3.29789100667e-07
5.89958503657e-06
2.60295361198e-07
6.2650952541e-06
6.78623726535e-06
4.69204761427e-07
2.87339609607e-07
5.01772311436e-06
4.99337115531e-06
2.42824538482e-06
1.41484721452e-06
1.30240156802e-07
1.8545914092e-07
1.87167108964e-07
6.54819427755e-08
9.364975351e-08
9.56540362611e-08
1.75159796038e-07
1.73074917548e-06
3.2726770422e-05
4.78425064686e-06
4.23971921715e-06
1.33940108555e-06
1.52817108693e-06
1.26107640063e-06
2.07098487491e-06
1.4674901939e-06
2.21830567665e-06
3.07594902098e-05
3.11687633129e-05
3.84188492448e-05
1.28137540708e-05
1.59564394935e-07
1.22581390629e-07
5.18684421194e-08
1.46899717722e-06
3.23566625184e-07
1.22759489699e-07
2.17657596451e-07
2.4355842129e-07
1.96023384005e-08
2.18322973789e-09
3.46615883765e-08
1.91392926515e-05
3.07375141148e-07
4.14828207875e-08
2.25634011827e-05
1.03158286746e-05
3.5709861378e-07
3.74347562215e-07
1.40851998474e-07
1.84792510169e-06
2.49255096254e-08
8.06743674313e-08
1.23274715311e-08
1.81240092585e-07
1.83222656172e-05
4.44283891132e-08
2.96130894418e-06
4.86080881346e-08
5.85443999627e-08
5.81719760938e-08
5.93969586066e-08
5.71779348225e-08
1.38987414595e-07
6.73895754134e-08
7.16526360336e-08
6.48607471127e-08
1.29143715548e-07
1.27333574248e-06
1.10629438696e-07
1.34683542977e-06
1.64373575269e-07
4.62717392599e-07
5.09877946713e-06
5.01178549991e-07
1.3027441263e-06
1.8862031974e-07
3.50379247884e-06
4.82165719584e-08
2.47751554164e-08
1.37885856049e-07
8.03841429946e-08
2.65753411203e-07
3.90056918853e-07
2.31098754643e-07
8.15287780967e-08
3.28744555532e-06
6.48579987611e-09
5.44070874141e-08
1.95843348307e-08
1.33362722675e-08
6.55081086875e-09
4.5941931407e-08
2.36693857628e-07
2.02628219425e-09
1.1682988005e-08
5.53195963503e-08
6.24404070836e-08
2.02744278928e-08
3.0077552682e-08
3.1386674719e-07
3.88254092529e-08
2.55426577504e-07
2.93891097606e-07
2.54174531194e-07
5.6968452348e-08
5.2226500748e-08
1.03599874772e-08
6.05175505603e-08
3.73419478741e-06
4.10997228721e-08
1.69129807738e-08
4.22590294234e-08
2.13135721142e-05
2.11093533467e-05
9.27762803357e-06
9.23687163341e-06
2.25043919789e-06
4.83519609356e-06
1.00073139139e-06
9.8457916803e-06
7.79580863715e-07
1.53459358575e-05
1.10620722116e-05
5.54827183408e-06
1.96367046667e-05
1.05780064212e-06
1.47269542162e-05
1.72577406369e-05
1.29646576777e-05
1.27636170386e-05
1.31717166058e-05
1.29878698278e-05
1.23856965511e-05
6.73421958293e-06
5.39531108916e-06
1.02928373676e-05
9.90030045543e-06
9.95030941175e-06
6.24502975454e-06
7.93200973371e-06
1.51925251819e-05
9.32195666153e-06
5.00793222723e-06
9.55130505014e-06
1.7126071566e-05
2.17795858004e-05
4.56280665328e-06
3.26623648e-06
1.01721921563e-05
6.01978930142e-06
7.74999079622e-06
9.9398457718e-06
7.40287879257e-06
2.53282895082e-06
9.42113460065e-06
1.72052877872e-05
1.84030203262e-05
1.89425811561e-05
1.15560858648e-05
2.10028784631e-05
1.86524448665e-05
1.85941682097e-05
1.75253527814e-05
1.31805078799e-05
1.46921140349e-05
1.20549546648e-05
1.64642265848e-05
1.1879832518e-05
1.13349153238e-05
1.21232834996e-05
1.59243845445e-05
1.22054575634e-05
1.3072928621e-05
3.96755695776e-06
5.21158472848e-06
1.50146785305e-05
1.39891571031e-05
1.36072223219e-05
8.75433407841e-06
8.79776000742e-06
5.39293282451e-06
2.2585380743e-05
3.44991291601e-06
1.09047556145e-05
3.60167472326e-06
2.62798452828e-08
6.04884828343e-09
2.06588016448e-06
1.401935265e-07
2.86346945873e-06
1.14948186624e-07
1.65477682423e-06
1.29122714001e-07
3.24551228793e-08
5.89219869385e-08
2.5621897492e-08
8.36053051355e-06
1.3099402818e-05
5.32026411934e-09
7.22079681812e-09
2.06042645439e-06
1.93389462463e-08
5.01638975076e-09
3.40160032847e-08
1.87077747284e-07
9.00629571785e-08
3.54168777412e-06
4.00077211809e-06
2.608670545e-08
1.41427800936e-08
3.42683649977e-06
3.54250904997e-06
2.8400312341e-06
8.05227581574e-09
4.55690643146e-06
3.39685004964e-06
3.86771299022e-06
5.59538878947e-06
8.95311715512e-06
9.19401481669e-06
2.34812004383e-05
1.66919415419e-07
1.0923363055e-07
5.00317507107e-06
5.96355840807e-08
1.31309255067e-08
1.78027746884e-08
2.7697654883e-06
9.60222294424e-09
1.29451858473e-08
2.9076998212e-06
6.36252158103e-06
1.29616072861e-05
2.70652306045e-07
6.36920952525e-08
2.63643045742e-07
8.36004103035e-06
2.31671458438e-06
4.37407665471e-06
2.77521446511e-06
9.54643270023e-06
7.27265331988e-06
8.41059929007e-06
3.59695632168e-06
2.95893447924e-06
3.41872288941e-06
4.32138938609e-06
6.88971436749e-06
7.30290525464e-06
9.51316081886e-06
8.09283891535e-06
9.29939017555e-06
5.33670255985e-06
8.11439755524e-06
4.77810207403e-06
6.83493347498e-06
7.61056372421e-06
9.06742735885e-06
5.12872397501e-06
1.1790091067e-06
7.14914397138e-07
2.43359533761e-06
1.12741714191e-05
1.91018886911e-05
2.74217717069e-06
3.41264672914e-06
6.47205552152e-06
1.55271016256e-06
3.70589547783e-06
1.03075292587e-06
2.50181896521e-07
1.71523282934e-06
1.82145732137e-06
1.06218703094e-06
3.53535175983e-06
3.36336665399e-06
3.37882134113e-06
7.74250348251e-09
3.45118167491e-06
1.52431310407e-06
3.5185664228e-06
7.59258479332e-07
7.41862073672e-07
6.31873170015e-06
1.93114992565e-06
9.59577466664e-07
6.47412382359e-06
1.75609599269e-06
2.28533798384e-08
6.80438764668e-06
7.69234231805e-06
2.45322490543e-07
9.98796915475e-06
7.32643802848e-06
1.06901135382e-05
1.0133056782e-05
2.01863706939e-06
2.94567763223e-06
4.71749282827e-06
4.30760601568e-06
1.46575307201e-06
1.94134322694e-06
1.94125143882e-06
1.91695329237e-06
3.96081338261e-06
1.91037890062e-06
1.89980164605e-06
7.76769390399e-07
7.73243788396e-07
4.81252970492e-07
6.04710740258e-07
1.39352836985e-06
1.84415811091e-07
2.20162993899e-07
3.73712457656e-06
7.29322319751e-06
5.51245778494e-06
9.53592203196e-06
9.50357468815e-06
1.04370024149e-05
7.21283366827e-06
9.88102466844e-06
8.33688472218e-06
6.69465814828e-06
4.34288682379e-06
4.98690873888e-06
6.81913009766e-06
1.34680712239e-05
1.40693236338e-05
1.96693052067e-06
9.20747127456e-06
7.87700691788e-06
8.08241820326e-06
1.85755181258e-05
2.63150499105e-06
1.06594594819e-05
1.86205386183e-07
2.12588283648e-06
2.38957093846e-06
8.35271712019e-06
1.13163434859e-05
3.35429225555e-06
1.08052141566e-07
1.9063729721e-07
7.6260893993e-06
1.66386580063e-05
1.11617316309e-05
1.36620568223e-05
3.55404232921e-06
3.6489697608e-06
1.00841420689e-05
1.0412416085e-05
6.14388532334e-06
1.06488307782e-07
4.45399345152e-06
4.61080856323e-07
2.98242414176e-06
5.70649073071e-06
1.33400634121e-06
5.75029688088e-07
3.98735024347e-07
5.10870384432e-07
6.36499482472e-07
2.98345489378e-07
2.87639242658e-06
2.15561024854e-06
4.26898597215e-06
6.42492842193e-06
4.170146019e-06
4.03658586115e-06
1.15738136606e-08
1.90565686302e-06
9.82358123191e-07
8.97591020489e-07
4.59414229851e-06
8.17446015293e-06
4.15299880311e-06
4.34964158437e-08
6.05128117273e-06
5.47659627842e-08
8.02041272374e-06
2.67316648501e-06
2.74147059047e-08
5.22091558317e-06
1.38507685276e-05
3.7751603972e-06
1.25028563982e-08
1.96571264649e-07
5.71997612172e-07
2.0521458228e-07
1.86613760439e-08
6.6382641868e-07
5.18885110392e-07
1.93191206573e-07
2.03633473825e-07
1.65731726283e-06
6.90692164801e-07
9.11358900774e-07
1.0530066687e-06
9.61788018754e-06
6.72129326838e-06
5.6248393323e-06
9.86607372284e-06
1.59653228908e-06
2.97217537226e-06
6.00929339725e-07
8.39588781178e-07
1.18868166319e-05
8.06217839667e-07
6.63301397832e-08
7.24130137585e-08
1.38143081475e-07
7.7940986275e-08
5.24347725792e-08
1.07667976332e-07
1.03651718619e-07
5.11845572068e-08
9.63388395067e-09
3.7528827605e-06
1.22864791114e-07
1.523535993e-05
5.23729612595e-06
1.34026084011e-07
8.25933830907e-08
8.73045850115e-08
7.29237036736e-07
9.69134439774e-07
2.61118726414e-07
1.7218343358e-07
2.8038091877e-07
2.3426767737e-07
1.30311860813e-07
1.42083787746e-07
5.10387887983e-06
1.07553926219e-06
3.46890596087e-06
2.85742718182e-07
1.09832659643e-06
2.29144542323e-07
2.50680708412e-07
8.09589976895e-07
1.40582777492e-07
1.37488173174e-05
1.79499988218e-06
1.37240008361e-05
5.11529958605e-07
1.30497544947e-05
1.09704438918e-05
1.46576689336e-08
2.80900324055e-08
7.9721350399e-06
3.15443648321e-06
6.23942261889e-08
2.75006626278e-06
2.21354798674e-06
2.48757904518e-07
1.29341827498e-07
2.85576068189e-07
8.20016538976e-06
6.17702524116e-06
4.00258569478e-06
5.88910515681e-08
1.94483963401e-07
1.19737969122e-07
6.70448503927e-07
1.27976838262e-06
1.19589729435e-06
1.83537788136e-08
5.26061080368e-07
1.9509387197e-08
7.14321779452e-06
5.91132527869e-06
3.29881317979e-06
2.44924223296e-06
1.55963207285e-06
2.71526224557e-06
2.90854885631e-07
2.73513300521e-07
1.25548811645e-06
1.81818391925e-06
1.25340963253e-07
1.37754465303e-06
7.961452435e-07
7.79339039806e-07
2.32193728342e-06
1.72820156642e-06
3.34772913506e-05
4.45861378865e-05
2.7495406657e-06
4.45625246126e-06
2.01057595426e-05
2.26058918851e-05
1.39745401577e-07
7.51088853684e-07
5.16455762962e-06
2.29080518271e-06
1.00048929317e-05
2.80736899149e-05
3.2500619747e-06
1.07941997166e-07
6.90909480077e-07
1.20161755771e-05
2.28291675139e-05
1.72198027376e-06
1.66388097877e-07
4.28439900053e-08
2.19520731076e-07
8.98494000158e-08
2.89188233986e-07
7.30655274682e-07
1.46036407715e-06
1.89885412257e-07
2.22485257989e-07
5.48693818021e-07
2.2686233419e-07
1.80035036865e-07
5.11374637569e-07
4.54463133797e-07
8.36529863485e-07
5.89829237198e-07
8.06547589512e-07
6.2508081623e-07
7.06060661907e-07
1.78421175478e-06
4.4001943529e-06
2.31750371634e-06
1.08411623074e-06
2.41311843796e-05
2.64419698903e-05
4.655203893e-05
5.20878686083e-07
2.65731511175e-06
2.31045708588e-07
1.03356284751e-06
2.37700414304e-07
2.46580906841e-07
1.9886587524e-07
1.33197208489e-07
1.11188190966e-06
2.18132279862e-05
3.68838396678e-05
8.95873891782e-06
1.5117456321e-07
7.67651939344e-06
1.69672619584e-05
2.52731026519e-05
1.13780806691e-05
2.4348560715e-07
4.77886284451e-07
1.5740361119e-06
1.43372435536e-06
2.91792307796e-07
1.28807851757e-06
2.43831979281e-07
3.14660940717e-07
7.31447043246e-06
8.35836136888e-08
1.07528095805e-07
5.9500950864e-06
3.63984735692e-08
1.71431962038e-07
2.62254965741e-07
4.15992196397e-07
4.27302704066e-07
2.83462850062e-07
2.7666267881e-07
3.22838921274e-07
2.57366062336e-07
2.70822727514e-06
1.32414550395e-05
6.38899208991e-08
1.09172703199e-07
5.30043384775e-06
7.75749918622e-06
6.69359057857e-06
2.08718030129e-07
1.47893850676e-05
8.80577349829e-06
7.14164923697e-06
6.60416590089e-07
8.88092791638e-07
1.67016423234e-05
1.17711294848e-05
1.91479012649e-05
2.92055302728e-05
3.40264807263e-06
2.52671353426e-07
2.04218677315e-07
4.63118594292e-07
5.28291864103e-06
8.43630010291e-07
6.84386016857e-07
1.17649765436e-05
1.25389458555e-06
3.48836761349e-08
6.22890508091e-06

