# vtk DataFile Version 3.0
File Name: Molecule/sphere_excent/sphere_excent_0-s30.vtk
ASCII
DATASET UNSTRUCTURED_GRID
FIELD FieldData 1
TIME 1 1 double
0.0
POINTS 376 double
0.33759945631 -0.6341277957 0.69572561979
-0.00036757771159 -0.85284769535 0.52223682404
0.50012582541 -0.81031817198 0.30466166139
0.85143703222 -0.32946035266 0.40775087476
0.86737471819 -0.49086850882 0.079198002815
0.98594659567 -0.13713112473 0.095824666321
0.50937461853 0.70882093906 0.48745983839
0.41275802255 0.56320053339 0.71495169401
0.7172268033 0.3659992218 0.59249770641
-0.53444653749 -0.82439225912 -0.18408350646
-0.0010110742878 -0.99924719334 0.03186044842
-0.45999625325 -0.8555085063 0.2349807173
-0.90417087078 0.15077340603 0.3989636302
-0.98800176382 -0.13600902259 0.072803415358
-0.83565968275 -0.28488567472 0.46932443976
-0.84119027853 -0.52549117804 0.11809081584
0.47040382028 -0.86537688971 -0.17185290158
0.0083719724789 0.99951916933 0.021917466074
-0.27163827419 0.94498175383 0.18186894059
-0.010033937171 0.88628107309 0.46204957366
-0.39007422328 0.81027805805 0.43430748582
-0.25646200776 0.95335257053 -0.15958103538
-0.51880514622 0.85473930836 -0.00083846412599
-0.48823109269 0.81039643288 -0.3240377903
-0.55000376701 0.78426706791 0.28414663672
0.041315861046 0.93911635876 -0.34068050981
0.26210403442 0.95587664843 -0.13231496513
0.27131444216 0.93169939518 0.24019803107
0.4480599761 0.89368230104 0.025794802234
0.38183641434 0.84325575829 -0.37793019414
0.23107077181 0.75515073538 0.61265611649
0.58406019211 0.54850524664 -0.59825789928
0.42007499933 0.71249103546 -0.56207495928
0.57374805212 0.67138820887 -0.46865314245
0.16882500052 0.80701673031 -0.56572151184
0.93813300133 -0.2928121686 -0.18067041039
0.2311899364 -0.027077043429 -0.97215771675
0.14743562043 -0.20131325722 -0.96790885925
0.032502815127 0.028849253431 -0.99898183346
0.6824169755 -0.64007002115 -0.35330361128
0.50190776587 -0.67371475697 -0.54236239195
0.68422347307 -0.47608613968 -0.55212295055
0.62869918346 0.31152626872 -0.71253812313
0.70240998268 0.3271997869 -0.63186311722
0.68101286888 0.2133282572 -0.70043605566
0.67776417732 -0.22863519192 -0.69881039858
0.75505149364 -0.093704074621 -0.64883303642
0.7591329217 -0.29588314891 -0.57957971096
-0.61881250143 -0.14264523983 0.77190989256
-0.46217998862 -0.33661216497 0.82027715445
-0.38230425119 -0.1378620863 0.91363662481
-0.28084889054 -0.30653566122 0.9094812274
-0.60269331932 -0.47387513518 0.64177912474
0.93658125401 0.11338300258 0.33064931631
0.96767985821 0.21074171364 0.13832119107
0.8444352746 0.44140475988 0.30340453982
0.65002501011 0.67646634579 0.33914333582
-0.95669829845 0.044661726803 -0.28805550933
-0.88081616163 -0.30925405025 -0.35440909863
-0.83652436733 0.18997818232 -0.51396930218
-0.87896829844 0.38761124015 -0.27353399992
-0.96895372868 0.24585127831 0.025304891169
-0.85887384415 0.50966602564 -0.037569798529
-0.70229321718 0.69226640463 -0.1614228934
-0.68508499861 0.69946348667 0.20277257264
-0.76997947693 0.63428395987 0.061333157122
-0.79317098856 -0.10451586545 -0.59629058838
-0.4711702764 -0.34855389595 -0.81014871597
-0.51091790199 -0.52154529095 -0.68205136061
-0.63102602959 -0.32144463062 -0.70551663637
0.48224464059 0.85729497671 -0.17982029915
0.59869807959 0.73714017868 -0.31170746684
0.52013897896 0.83300077915 0.18575020134
0.068530127406 -0.57269954681 0.81683683395
-0.86034816504 0.41235157847 0.29770115018
0.51090526581 0.28954282403 0.80943226814
-0.012474980205 0.32165682316 0.94673901796
0.16622567177 0.33704954386 0.92634612322
0.028194081038 0.52700549364 0.84925740957
-0.0360619165 0.12457351387 0.9915446043
0.15132366121 0.15229597688 0.97664809227
0.090295560658 0.0064804763533 0.99588119984
0.20718967915 0.5781223774 0.78917324543
0.32736992836 0.40100544691 0.8554803133
0.34393960238 0.18037521839 0.92153674364
0.51132524014 -0.029092052951 0.85870563984
0.28303095698 -0.018413756043 0.95889306068
-0.015139154159 -0.93429392576 -0.35537949204
0.21576689184 -0.92289316654 -0.31879505515
0.38025024533 -0.45721140504 -0.80397558212
0.53956449032 -0.49879929423 -0.67790144682
0.37119731307 -0.59217810631 -0.71514821053
0.85881596804 0.1271225065 -0.49601507187
0.77708607912 0.20274162292 -0.59582579136
0.83837425709 0.27812772989 -0.46853789687
0.80272567272 0.041882228106 -0.59473502636
0.71761536598 0.083014011383 -0.69146299362
0.86554640532 -0.13222329319 -0.48257255554
0.59944307804 0.092847004533 -0.79507023096
0.65056478977 -0.016563683748 -0.75926369429
0.52244091034 -0.029995540157 -0.85208845139
0.6045922637 -0.13749209046 -0.78454035521
0.056848704815 -0.87011516094 -0.48960500956
0.33265113831 -0.81422865391 -0.47531971335
0.29807260633 -0.70939391851 -0.63827359676
-0.26513129473 -0.90062433481 -0.34433221817
0.14735627174 -0.73736184835 -0.65924668312
-0.0039048960898 -0.77883911133 -0.62715494633
0.063359059393 -0.68306422234 -0.72761893272
-0.050886638463 -0.68444955349 -0.72725468874
-0.12703341246 -0.72849220037 -0.67307037115
0.098253637552 -0.59155905247 -0.80023819208
-0.019985578954 -0.60375899076 -0.7969096303
-0.097688883543 -0.86192220449 -0.49762141705
-0.25038573146 -0.81862449646 -0.51669329405
-0.44056195021 -0.77341037989 -0.45527365804
-0.12133403867 -0.61009335518 -0.78296291828
-0.11810821295 -0.53603494167 -0.83584648371
0.20144329965 -0.64840954542 -0.73407894373
-0.75521039963 0.39411240816 -0.52208256721
-0.69066017866 0.31891217828 -0.64899998903
-0.65888977051 0.43475326896 -0.61393421888
-0.73447036743 0.073846250772 -0.67428767681
-0.37893760204 0.18812255561 -0.90611749887
-0.46684920788 0.090540789068 -0.87968182564
-0.48754835129 0.19632443786 -0.8506923914
0.51684576273 -0.32103642821 0.7937015295
0.67620790005 -0.24127580225 0.69630306959
0.61330354214 -0.48693203926 0.62186861038
-0.76086014509 0.033924613148 0.64719837904
-0.59076607227 0.12964995205 0.79590600729
-0.70759308338 0.23079955578 0.66725373268
0.8543074131 0.025436397642 0.51918679476
0.34616106749 -0.38554748893 0.85526454449
0.37641251087 -0.19675028324 0.90532696247
-0.21868652105 -0.46146661043 -0.85974466801
-0.36437299848 -0.5048083663 -0.78254520893
-0.30352452397 -0.38629132509 -0.87072014809
0.6437317729 0.14093397558 0.75210094452
0.23083761334 -0.19060358405 0.95414113998
0.094629339874 -0.39140149951 -0.91523450613
-0.015083064325 -0.2927415967 -0.95603364706
-0.14734318852 -0.37069559097 -0.91699105501
-0.029448846355 -0.40634873509 -0.91323131323
-0.10783845931 -0.45591071248 -0.88344168663
0.0042819231749 -0.50590014458 -0.86254167557
-0.22174598277 -0.55125665665 -0.80433058739
-0.26678413153 -0.61159324646 -0.74480652809
0.92496585846 0.053468771279 -0.376042068
0.90804880857 0.41031068563 0.082468740642
0.78646063805 0.60636931658 0.11060456932
0.97864472866 0.0058381040581 -0.20310164988
0.993896842 0.10389383882 -0.036853332072
0.94302016497 0.15922562778 -0.29200515151
0.96940338612 0.18694624305 -0.15917284787
0.92859351635 0.27767285705 -0.2461668849
0.89453393221 0.2714112103 -0.35512030125
0.93737459183 0.31780433655 -0.14253121614
0.88321423531 0.35368022323 -0.30787247419
0.89491218328 0.3935136795 -0.21045252681
0.84525924921 0.43587216735 -0.30884957314
0.83886015415 0.37401276827 -0.39534437656
0.90240520239 0.42494860291 -0.071596391499
0.84720033407 0.4987039268 -0.18306702375
0.82343053818 0.56592148542 -0.010427678935
0.89766895771 0.18031801283 -0.40207594633
0.96064370871 0.2768471539 -0.022886704654
-0.041034881026 -0.15138043463 -0.98761117458
-0.17346552014 -0.2456484586 -0.95368760824
-0.19777420163 -0.12024664134 -0.97284638882
-0.32078355551 -0.27312907577 -0.90685772896
-0.23964528739 0.8776627183 -0.41482099891
-0.071226529777 0.53335404396 -0.8428798914
-0.12904544175 0.62403607368 -0.77064561844
0.017708342522 0.60797166824 -0.79374885559
-0.036167319864 0.73144286871 -0.68092024326
-0.22621823847 0.69020318985 -0.68726676702
0.13257583976 0.67312383652 -0.72753357887
-0.28063356876 0.58143097162 -0.76360523701
-0.046974617988 0.84279251099 -0.53586864471
0.70569163561 -0.70309054852 -0.085908666253
0.81919425726 -0.39420115948 -0.4162415266
0.83202344179 -0.51381409168 -0.20948050916
0.40958282351 0.60104823112 -0.68632990122
0.27986571193 0.68345302343 -0.67418080568
0.27958676219 0.5744523406 -0.76931595802
0.39013054967 0.48803958297 -0.78075635433
-0.33832135797 0.76998180151 -0.54077011347
-0.49500775337 0.69458514452 -0.52195942402
-0.36517342925 0.66228914261 -0.65418946743
-0.4713357389 0.60371464491 -0.64296209812
0.15389956534 0.40623888373 -0.90065932274
0.15023508668 0.53713923693 -0.82999914885
0.28288647532 0.44703832269 -0.84861564636
-0.39844289422 0.55644899607 -0.72908097506
-0.6546574235 0.60393053293 -0.4525424242
-0.57575058937 0.54108947515 -0.6119287014
-0.18412593007 0.78830564022 -0.58704060316
0.030525241047 0.47059509158 -0.8818179369
-0.12250111997 -0.032379098237 -0.99192690849
-0.1738999486 0.091373324394 -0.980471313
-0.25770375133 -0.01053278055 -0.9661719203
-0.32463103533 0.091524749994 -0.94139373302
-0.33299475908 -0.098922163248 -0.93770158291
-0.40643456578 -0.011469095014 -0.91358697414
-0.47829025984 -0.14257708192 -0.86646842957
-0.53280586004 -0.037046916783 -0.84536319971
-0.57527345419 0.056806165725 -0.8159814477
-0.60243982077 -0.1895185411 -0.77475911379
-0.65846031904 -0.030879614875 -0.75190144777
-0.6449829936 0.11835452169 -0.75484323502
-0.56182795763 0.15390400589 -0.81280249357
-0.27975144982 -0.18418958783 -0.94221448898
-0.38297015429 -0.19614952803 -0.90256679058
-0.078457437456 0.2014041841 -0.97635066509
0.073955185711 0.19348731637 -0.97827351093
-0.0037974894512 0.33247199655 -0.94309860468
-0.17475442588 0.31701037288 -0.93219292164
-0.24897839129 0.20362329483 -0.94687640667
-0.32937091589 0.31858205795 -0.88881856203
-0.43058997393 0.25289025903 -0.86638021469
-0.1862475276 0.52081817389 -0.83300024271
-0.33113893867 0.47378009558 -0.81604325771
-0.10760361701 0.42946475744 -0.89662253857
[...]
CELL_DATA 748
SCALARS cell_data_0 double
LOOKUP_TABLE default
1.89390790766e-05
7.43799902411e-06
1.63529265533e-07
1.59326064974e-05
1.04256474986e-05
5.30255130614e-06
1.38190686492e-05
9.4731195597e-06
9.92171943059e-06
3.13153559362e-07
1.04947377433e-06
2.56879312987e-06
2.67334363043e-06
3.80876963991e-06
1.42551240527e-06
4.15950056129e-06
4.21382168756e-06
3.05827888177e-06
3.00215482617e-06
3.52760407317e-06
4.59961118717e-06
1.21262762346e-05
1.21120553659e-06
6.17347570052e-05
4.88692026439e-05
5.6077593953e-06
5.21288302765e-05
1.43750929158e-05
5.83917465226e-07
4.29773517531e-07
7.64223003145e-07
1.53640191549e-05
1.23949937319e-05
1.38447098078e-05
2.28030339529e-05
1.74753990962e-05
3.87584477565e-05
3.29306306467e-05
9.18746768419e-06
8.5856746525e-05
0.00014842040655
0.000290251350138
0.000159527022218
8.71916969259e-05
2.96595997386e-05
7.2722761814e-05
1.55763113032e-06
0.000108651008044
4.31153799776e-05
2.56723406116e-05
1.96849879232e-05
2.98304672528e-05
2.40013467787e-06
2.7297505516e-05
1.36822798163e-05
1.54605605116e-05
9.02608108974e-06
1.10663605149e-05
1.13682993183e-05
9.04038869789e-06
9.62199762765e-06
1.00046643183e-05
9.40348914303e-06
9.58185711966e-06
1.64689328055e-05
9.90054255145e-06
1.10000615776e-05
1.31371695996e-05
1.59596723535e-05
2.35477916483e-06
3.44291562888e-06
3.80596723856e-07
1.09697254993e-05
5.48256621321e-06
1.34912665452e-05
1.88951906711e-05
9.40266984093e-06
1.08279383601e-05
1.35661639279e-05
1.43747871411e-05
3.15112092375e-06
5.96001368358e-06
9.83339775333e-06
8.27918341173e-06
4.07764609525e-06
8.08906987671e-06
3.22521176675e-06
4.29247795589e-06
1.72198086368e-05
3.82006756639e-05
4.50770879818e-05
8.27010218416e-06
7.57163905295e-06
6.9053021074e-06
3.22743977326e-08
2.18786742244e-05
3.81813973812e-05
1.89908810223e-05
7.18848333591e-06
6.55783352864e-06
3.72470996433e-08
4.46445765363e-06
1.48144690178e-05
3.41192034336e-05
3.04647098927e-07
1.78821263459e-07
1.08610354766e-05
1.20974465899e-08
1.47900038251e-05
9.61131415759e-06
1.64666005133e-05
1.25000362089e-05
1.73482128765e-05
1.93655642641e-05
1.50302414913e-05
1.37285072898e-05
1.21093651134e-05
7.03809259945e-06
8.5817565505e-06
2.89944430818e-06
5.38448898341e-06
8.90635842525e-06
1.24944744026e-05
1.39018274425e-05
3.10378154241e-07
1.25909091708e-05
1.00916554639e-05
8.58523616536e-06
1.46471686642e-05
1.75769848018e-06
2.74548629371e-07
3.73641633826e-07
3.58256983936e-07
2.41673975357e-07
2.68483508123e-07
3.60944935906e-07
2.50216393953e-07
5.13933960126e-07
7.91300000887e-06
7.56676300062e-06
1.16617615268e-07
8.05116319971e-08
6.8697314643e-06
1.14542274138e-05
8.97878691551e-06
1.25110286229e-06
1.31986669397e-07
5.05421498609e-08
4.05105960074e-07
3.0289166468e-07
3.66537295305e-07
2.04971220394e-07
2.34144133764e-07
1.44474735491e-07
2.46458411835e-07
1.40376631506e-07
3.43212696899e-07
2.29914992609e-07
4.22459106644e-08
1.66528721949e-06
6.31251531242e-07
1.59718932393e-06
4.13538577285e-07
1.60451512437e-07
2.23070748907e-07
6.36990464603e-07
1.02560992928e-07
7.37508014696e-07
5.27587405425e-07
5.36764740968e-07
3.91455077783e-07
7.75975139202e-07
5.46584869825e-07
1.40857959291e-06
9.51877770046e-06
1.72534429779e-06
1.83359619474e-07
1.63077104408e-07
1.8415776363e-07
2.0998074563e-07
1.66807049827e-07
2.25926266217e-05
2.85229234057e-05
2.70490101212e-07
2.92191690924e-07
2.83604307847e-07
1.82160226104e-06
3.21827638268e-07
4.15768120461e-07
2.32433818891e-07
1.24145207336e-07
1.39126631975e-07
1.06344941371e-07
3.3046403037e-07
2.84474052548e-06
3.43992660282e-05
4.66151642859e-06
3.87927045712e-06
1.82921900312e-06
1.36386196368e-06
1.04546023567e-06
1.78558421357e-06
2.9365959317e-06
2.60508542434e-06
3.28822687175e-05
3.24502526859e-05
3.85606545754e-05
1.28282207571e-05
1.15315813234e-08
1.67367302334e-07
4.05831330662e-08
1.75272136526e-06
9.66707381075e-08
3.12123219937e-08
4.79015896833e-08
3.73858544794e-07
3.42093297266e-08
1.0524186199e-08
1.46769832904e-07
1.46250624607e-06
2.17626906918e-08
1.30155262817e-08
5.20827707698e-05
3.02154031358e-05
2.62446565026e-07
1.63724644078e-07
1.06912160336e-07
2.23009479904e-06
1.80093764471e-07
1.18784331733e-07
1.76776936575e-08
2.77742455355e-07
1.88283819114e-05
6.02444693887e-08
2.97053778063e-06
9.14963935297e-09
4.56084002593e-08
1.66192791333e-07
4.34943683893e-08
8.34590746172e-09
3.97215238307e-08
1.39783548675e-07
1.33451822723e-07
2.65571925505e-08
3.24889573655e-08
1.09375615196e-06
6.83179529699e-08
1.15012222188e-06
2.64045654421e-08
3.22725891593e-05
1.13008791521e-06
7.0429413898e-06
1.00300681599e-06
1.17764190422e-07
3.27788479053e-06
5.10097971562e-08
2.73971562955e-08
5.40487622008e-08
5.82712989451e-08
2.35955963876e-05
1.95919100522e-05
7.82538789868e-08
8.74276711628e-08
3.65740588456e-06
1.29844651257e-07
1.55842019287e-07
1.36812440827e-07
1.24626285559e-08
4.49114421923e-08
5.41369604259e-08
5.44916660889e-08
3.27670920018e-08
2.96976818715e-09
3.69961037735e-08
8.41350747558e-08
7.04984993231e-09
1.62855191289e-08
3.20798245424e-07
3.20298704947e-08
2.81118538333e-08
2.38259087456e-08
3.22076115307e-07
1.77361909425e-07
1.53023404059e-07
1.03295213734e-07
1.22106851042e-07
3.9978854543e-06
1.93766999242e-07
6.82822191901e-08
1.2373754887e-07
2.18723788455e-05
2.11484077811e-05
8.92190598221e-06
9.50430917367e-06
6.70059889502e-06
7.631086742e-06
8.52507183943e-06
9.27793084324e-06
1.76081944117e-05
1.23865653872e-05
9.24682891848e-06
9.02629589494e-06
1.80959492683e-05
1.2158037026e-05
8.95866817655e-06
2.28392470659e-05
1.35131044524e-05
1.29746818962e-05
1.05647584945e-05
1.0115560598e-05
9.08208390014e-06
1.15020420843e-05
1.5645223692e-05
1.25969063418e-05
1.17506879015e-05
5.21927586996e-06
8.39987380786e-06
1.84619570866e-05
1.61545651859e-05
1.13975715919e-05
1.31737547066e-05
6.66136089479e-06
1.79936314316e-05
2.23040087708e-05
7.07386855749e-06
1.84397211296e-05
6.77605314753e-06
1.27055207368e-06
6.9088206309e-06
1.49569264566e-05
8.81453987823e-06
3.87877139764e-07
9.41407910226e-06
1.62875909795e-05
1.91857375316e-05
1.75654057711e-05
1.01052994004e-05
2.2847680173e-05
1.90031073004e-05
1.85757177426e-05
1.61504743418e-05
1.20395140006e-05
1.51444587288e-05
1.03896086745e-05
1.6373554386e-05
1.21184139296e-05
1.19701010477e-05
1.39477536196e-05
1.56949107202e-05
1.45979929446e-05
1.11407973789e-05
7.01445971143e-06
1.82920424819e-05
1.29182372478e-05
1.30263790253e-05
1.40960317891e-05
1.49958831824e-05
1.59668054023e-05
1.04869257246e-05
2.77443019413e-06
8.1909602416e-06
9.59679563264e-06
1.40884376582e-05
1.15906169769e-05
1.14329237892e-05
3.35087319148e-06
7.63537727575e-06
1.60393947845e-07
3.69608599392e-07
1.03266985644e-05
8.87154872003e-06
7.47079836593e-06
5.70011794736e-06
6.03979291709e-06
8.27535038882e-06
5.78002412508e-09
6.8222202679e-09
5.21141187862e-06
3.73190676764e-06
3.25550143512e-06
3.13634357832e-08
6.23584382185e-08
1.57316722253e-05
6.47750388228e-06
1.64620488093e-05
1.56090750086e-05
2.37147902325e-08
1.17781272324e-08
3.39659689959e-06
3.78476817355e-06
2.66270549762e-06
2.21016962989e-08
4.92537354918e-06
3.56525433342e-06
3.51569110613e-06
6.19029586863e-06
1.03111644542e-05
9.36083638369e-06
1.19779115619e-05
3.0266656385e-06
7.80010991039e-08
5.09427760911e-06
4.5770237651e-09
1.6722457573e-08
4.53510566872e-09
3.0017790435e-06
3.7182866089e-06
5.86678555247e-06
3.66145459797e-06
6.60859664479e-06
9.53129517763e-06
1.40030339572e-08
3.65304164096e-08
1.31128315735e-07
2.1583180319e-05
7.36317385679e-08
3.32698989866e-08
2.41889579464e-08
2.65562465669e-06
6.04134859751e-06
7.47696885844e-06
2.32503006348e-06
6.96561334015e-07
3.5377648908e-06
4.27355617288e-06
8.79818669749e-06
7.9068086244e-06
1.24094829616e-05
1.0966257044e-05
1.31893717025e-05
5.50344734136e-06
8.54395469738e-06
7.26020430984e-06
5.01481040759e-06
5.16883225976e-06
5.40409993141e-06
3.98664669527e-06
2.25758780956e-08
5.505291427e-08
8.43622025782e-08
4.63738066092e-06
1.35907250144e-05
1.2532006635e-08
1.03304907607e-06
4.48316166029e-06
1.15273450241e-06
7.27531767008e-06
3.45958516706e-06
1.67824238351e-06
1.25507798589e-06
1.3632814072e-06
2.02741543765e-06
5.92233655758e-06
3.18760449003e-06
3.51602248851e-06
4.94870593497e-07
2.48912005467e-06
3.06815446351e-06
2.47146769303e-06
1.99753148578e-08
4.03947697999e-08
2.72475463647e-06
4.20993730563e-06
8.81915831666e-07
2.81071631482e-06
1.16207642571e-06
4.34044317771e-08
4.92654817266e-06
9.77430936849e-06
2.34180382191e-06
1.03993842707e-05
7.52410841942e-06
1.0832708917e-05
1.05873172886e-05
2.48329709414e-06
2.70067540342e-06
6.12846207094e-06
4.50354347689e-06
1.32226489518e-06
1.74650079654e-06
1.8587150194e-06
1.703365186e-06
4.88610941206e-06
1.92986162382e-07
1.86653546987e-08
2.72520182011e-07
1.99323248531e-06
2.68443390007e-06
2.22612324796e-06
1.57384124123e-06
6.73680946777e-07
1.26877956729e-06
4.62611077266e-06
7.51156794534e-06
5.56390425266e-06
7.20544727164e-06
9.21953730278e-06
1.01966924959e-05
7.00447767964e-06
7.04519560265e-06
8.27209275562e-06
7.03951282385e-06
4.82806349952e-06
4.1683964927e-06
5.04033866807e-06
6.98266000849e-06
9.11280285795e-06
2.02954520723e-06
6.1460990708e-06
6.10845234234e-06
8.3915104064e-06
8.99569919814e-06
2.79537801069e-06
1.39130965035e-06
1.57996687174e-06
1.24346314305e-07
1.00539974047e-07
8.66309413858e-07
8.05267678685e-06
3.48213818233e-06
6.96913006524e-06
1.3543371127e-05
2.48153614761e-06
5.7766504551e-06
2.06874110428e-06
7.22354916314e-06
8.52264050163e-08
7.84635449439e-07
4.36669890587e-06
4.23239143841e-06
1.60060558157e-05
4.90768295065e-06
1.86053123676e-05
2.89108799915e-07
1.53410983476e-05
2.14739153516e-05
1.0921365919e-05
1.21203216737e-05
1.20443685658e-05
3.44005725646e-06
3.27443903416e-07
9.08193281933e-08
1.2803079408e-05
9.06205467085e-06
3.7658070392e-06
2.18499533517e-05
3.83543839764e-06
3.78635162827e-06
1.22066911605e-07
5.32294948304e-06
1.29887916371e-07
9.40756584585e-10
4.15738733814e-06
4.1539808671e-06
1.11679281063e-05
2.67211105216e-06
5.34316214971e-06
3.35048368378e-06
5.22831966355e-06
7.72133538858e-06
1.45727092029e-07
1.79328404721e-06
6.81790192555e-06
3.63058964993e-06
1.9446916662e-08
9.79090288944e-08
5.74013603414e-07
1.37058843436e-07
3.18235000406e-08
1.05412331429e-07
5.05615180225e-07
9.12909250495e-08
1.72104607074e-07
1.62365456926e-06
7.7016111963e-08
8.93308613784e-07
3.45954252402e-07
9.52260762222e-06
6.43583029502e-06
5.86689774133e-06
5.19482673199e-06
3.71112928731e-06
6.54430129928e-06
1.85410358184e-05
9.09285317114e-07
1.15976841446e-05
7.5016048636e-07
7.32252718372e-08
7.73103575977e-08
7.02649041459e-08
7.34784138792e-08
8.42864582829e-08
1.17587505417e-07
8.13629822218e-08
6.16429258053e-08
5.36579280539e-08
3.52345023748e-06
1.28363230857e-07
1.52077522974e-05
5.34541185295e-06
4.29833207043e-08
9.54836146969e-08
8.18683662644e-08
6.41889202884e-07
8.71826413276e-07
2.6382007395e-07
1.43092683957e-07
3.65498218573e-06
4.52925550075e-06
1.53085583628e-07
9.8752263469e-08
4.58384815671e-06
7.044874665e-07
8.27323352847e-06
9.29962565135e-08
1.69272003714e-06
3.38234974418e-08
7.84285663946e-08
7.91503538083e-07
1.11314109694e-07
5.16515384656e-08
2.31169015888e-06
1.5732442102e-05
3.50088213644e-05
1.41943322079e-05
1.17157899842e-05
1.46432436914e-07
1.03396866905e-05
2.52898761531e-05
1.2540936946e-05
6.57487163865e-06
7.42343795905e-06
5.29732103903e-06
2.16203939036e-07
5.05253334373e-06
4.4013177148e-07
7.79405238106e-06
6.37950165613e-06
3.96408682358e-06
3.37084837931e-07
8.60009557817e-07
1.04125475461e-05
9.82147043332e-07
1.86101666392e-06
2.02175067423e-06
4.1416805194e-07
7.89536989316e-07
1.69358410459e-07
7.14811202306e-06
5.95551226941e-06
3.00385846489e-06
2.18844546126e-06
1.68827549199e-06
2.31587927369e-06
1.42604823005e-06
1.47638174583e-06
1.69946638354e-06
2.20535488282e-06
1.07228856532e-06
2.7961291001e-07
8.35434369729e-07
1.47642866387e-06
3.15050501087e-06
3.33469635205e-06
3.76879283901e-05
5.49913664183e-05
2.66712916516e-06
4.5860563418e-06
1.19683222469e-05
1.51257086896e-05
1.33607728289e-07
7.52214071786e-07
1.73444860434e-06
2.75910509422e-07
1.2949671369e-05
3.2162866451e-05
5.29131381941e-06
1.15465161086e-06
1.18920106355e-06
1.3210127869e-05
2.16933467339e-05
1.56430434358e-06
6.81593000823e-06
8.82512241338e-08
6.83571952827e-06
3.36154367488e-06
8.42947755237e-06
1.075892633e-05
1.14486731499e-06
3.23605570129e-07
6.91254096544e-06
5.21666950646e-07
7.37855760048e-06
2.28512240294e-07
4.26424817424e-07
4.48157237999e-07
7.20120948985e-07
6.06652675983e-07
7.76919152617e-07
7.51370123172e-07
6.6016336313e-07
1.58370011656e-06
4.06135824969e-06
2.17209533305e-06
1.89419736676e-06
4.78534694497e-06
4.88899439845e-06
2.43188824615e-06
1.66255069773e-06
4.3748239157e-06
7.35930365826e-06
8.94612764851e-07
3.34781535999e-06
2.50798719189e-07
9.27836114468e-06
4.42710615239e-06
8.05076359192e-05
4.27638968947e-05
5.45105316478e-05
4.74055458594e-05
2.57041719697e-05
5.70229695154e-07
1.32030394683e-05
2.23323982831e-05
2.91460063352e-05
2.07819291317e-05
1.09584419777e-05
2.91929106989e-05
9.37097901972e-06
8.32718047974e-07
9.56925031617e-06
5.75930244664e-07
1.35184610154e-07
1.06661062513e-07
1.63783653549e-05
4.46813261701e-08
8.66249834432e-08
9.96874873082e-06
1.92448462178e-05
1.78999075561e-07
3.95445534679e-08
5.45546394673e-06
5.62142050466e-06
2.80112539061e-07
8.71044721881e-08
8.67702433657e-06
6.24162486866e-07
1.60027766573e-05

