# vtk DataFile Version 3.0
File Name: Molecule/sphere_excent/sphere_excent_0-s19.vtk
ASCII
DATASET UNSTRUCTURED_GRID
FIELD FieldData 1
TIME 1 1 double
0.0
POINTS 185 double
0.0063272546977 0.84899646044 0.52811866999
-0.46784308553 0.78202712536 0.41117662191
-0.33330839872 0.5814524889 0.74176871777
-0.3408652544 -0.59543967247 0.72792226076
0.0072863134556 -0.84733915329 0.53095531464
0.024006361142 -0.48513647914 0.87423247099
0.35281661153 -0.56725293398 0.74365824461
0.50040787458 -0.80944055319 0.30712220073
0.829390347 -0.32417434454 0.45220455527
0.84675502777 -0.53195250034 0.011772848666
0.99169248343 -0.10352431983 0.077625580132
0.51733779907 0.73101454973 0.44389587641
0.37192866206 0.55936902761 0.740229249
0.74127334356 0.32223343849 0.58740639687
-0.85588926077 -0.33542442322 -0.39405703545
-0.84230709076 -0.53837227821 0.016748804599
-0.99274897575 -0.10069961101 0.061343215406
-0.53892213106 -0.80204558372 -0.256193012
-0.49740734696 -0.81414628029 0.29947718978
-0.00056944531389 -0.99967753887 0.011407631449
-0.79999172688 -0.33212977648 0.49985912442
-0.86288452148 0.20610766113 0.45948159695
0.52671706676 -0.81679934263 -0.23602722585
0.79070228338 -0.43646582961 -0.42932203412
0.0019964473322 0.99977451563 0.0046542054042
-0.27517616749 0.94444996119 0.17929016054
-0.26461935043 0.94763761759 -0.17564614117
-0.52290546894 0.85222113132 -0.0016607886646
-0.45421558619 0.78924673796 -0.41297084093
-0.10174605995 0.81353396177 -0.5684248805
0.026042923331 0.8897177577 -0.4502184391
0.27301490307 0.94970208406 -0.15340031683
0.27983030677 0.93962877989 0.19614030421
0.46518650651 0.88496047258 0.019522843882
0.44891178608 0.81487208605 -0.36370041966
0.59625977278 0.49738830328 -0.6300868988
0.39195603132 0.68140387535 -0.61815983057
0.63092035055 0.63780027628 -0.44126445055
0.076693639159 0.79028135538 -0.60498076677
0.95125609636 -0.20701661706 -0.22943930328
0.87368416786 -0.09947732836 -0.47623580694
0.97060197592 0.046013407409 -0.23445786536
0.50044548512 -0.026526140049 -0.86546128988
0.42575699091 -0.26383838058 -0.8654730916
0.26712501049 0.015480762348 -0.96342784166
0.15121100843 -0.24276284873 -0.95803576708
0.31428554654 -0.50813663006 -0.80188548565
-0.030421037227 0.058439984918 -0.99776548147
0.68432867527 -0.22543027997 -0.69332545996
0.56425690651 -0.45267912745 -0.69033038616
0.46135705709 -0.67996460199 -0.56950354576
0.17023311555 0.42306676507 -0.88837265968
0.71650671959 0.34240111709 -0.60772716999
0.75257718563 0.47492930293 -0.45617377758
0.42652004957 0.4605486691 -0.77778750658
0.11811794341 0.67543333769 -0.72418516874
0.42416268587 0.2322601378 -0.87527549267
0.57747936249 0.31344544888 -0.75367939472
0.59491884708 0.13338826597 -0.79260128736
0.68283605576 0.20935977995 -0.6998617053
0.8263887763 0.31685003638 -0.46542102098
0.77385914326 0.19650360942 -0.60184192657
0.75027430058 -0.043473653495 -0.65946924686
0.013307965361 0.54156035185 0.84040009975
-0.19271855056 0.34842285514 0.91718745232
-0.455378443 0.3127040267 0.83282768726
-0.59878116846 -0.044131755829 0.79866498709
-0.46622133255 -0.2798075974 0.83885186911
-0.36225062609 -0.051157638431 0.93050736189
-0.21451365948 -0.29666528106 0.93049407005
0.93805164099 0.13181419671 0.31993380189
0.96689206362 0.23561859131 0.091080658138
0.85247409344 0.43729555607 0.28650221229
-0.94978111982 0.081529133022 -0.30149623752
-0.7270168066 -0.11591370404 -0.67652392387
-0.80901437998 0.22428649664 -0.54306006432
-0.86587762833 0.41879588366 -0.27323555946
-0.9622464776 0.27151304483 0.014248942956
-0.8480411768 0.52977007627 0.0056128143333
-0.66596341133 0.58140254021 -0.46719628572
-0.70730060339 0.68028563261 -0.19223248959
-0.69918262959 0.68638676405 0.19947271049
-0.44720903039 -0.31425961852 -0.83663338423
-0.59621453285 -0.46292117238 -0.65571218729
-0.33474010229 -0.53932243586 -0.77260923386
-0.3587475419 -0.75424522161 -0.5491720438
0.52792412043 0.8353998065 -0.15215340257
0.67530345917 0.7084749341 -0.20450511575
0.663228333 0.74850958586 0.0035862375516
0.8296481967 0.55727887154 -0.0083867311478
0.72251844406 0.66681832075 0.18270805478
0.54760193825 0.81532466412 0.18799267709
-0.66001695395 0.54082655907 0.52106231451
-0.8428773284 0.46553656459 0.26985603571
0.84334552288 0.44140136242 -0.30488160253
0.77450883389 0.56946074963 -0.27538064122
-0.13895630836 -0.033466275781 0.98951637745
0.069063343108 -0.029568584636 0.99715954065
-0.017608689144 -0.20303420722 0.97881680727
0.19027920067 -0.23860087991 0.95202749968
-0.19574323297 0.30869397521 -0.93073308468
-0.31983655691 0.078670114279 -0.94406139851
-0.45554482937 0.27794915438 -0.84545361996
-0.22650328279 -0.11823866516 -0.96611535549
-0.45175778866 -0.10173992813 -0.88631498814
-0.55654883385 0.033965043724 -0.82990282774
0.49419981241 0.27428197861 0.82481980324
-0.20627117157 0.70696109533 -0.67397427559
-0.48317548633 0.59384202957 -0.64249938726
0.00022472871933 0.29382926226 0.95576572418
0.1708252281 0.28747391701 0.94232875109
-0.057495962828 0.1352917552 0.98906165361
0.1367328912 0.13110491633 0.98186665773
0.29245391488 0.39029121399 0.87298291922
-0.26010549068 0.14642314613 0.95377743244
-0.53726273775 0.12946115434 0.83307862282
0.34167453647 0.16655796766 0.92498761415
0.5303273201 -0.029842300341 0.84687060118
0.27546828985 -0.014712833799 0.96119040251
-0.29081091285 0.54019159079 -0.78941172361
-0.079671159387 0.52688103914 -0.84474945068
0.085326179862 -0.58895075321 -0.80337071419
0.080902554095 -0.44587290287 -0.89122331142
-0.012934284285 -0.90425270796 -0.42523995042
0.23138329387 -0.89857035875 -0.37185463309
0.85635209084 0.14496590197 -0.49555301666
0.80169600248 0.063616007566 -0.59422564507
0.71651136875 0.08758109808 -0.69202041626
0.65105342865 -0.0057830754668 -0.75897932053
0.24406698346 -0.67462337017 -0.69667518139
0.096576072276 -0.83425277472 -0.54275012016
0.3007171154 -0.7976359725 -0.522749722
0.13218359649 -0.74788296223 -0.65014880896
-0.25578126311 -0.88635027409 -0.38551682234
-0.015212288126 -0.75428515673 -0.65616220236
0.067460730672 -0.68653875589 -0.72391360998
-0.047719534487 -0.66994529963 -0.74088710546
-0.1828904748 -0.72172683477 -0.66746914387
-0.12157131732 -0.82734936476 -0.54848617315
-0.1497644186 -0.62013721466 -0.76990061998
-0.05523307249 -0.58481836319 -0.80928343534
-0.13186325133 -0.5314437151 -0.83675223589
-0.032246597111 -0.50022470951 -0.86512178183
-0.73235690594 0.40906968713 -0.54427576065
-0.64612478018 0.28547370434 -0.70774191618
-0.58515536785 0.43703380227 -0.68292838335
-0.6757261157 0.13486979902 -0.72427129745
-0.42043152452 0.42905825377 -0.7992374897
-0.53839254379 0.16673995554 -0.82607352734
0.4918448627 -0.29747921228 0.81823217869
0.69320780039 -0.18237061799 0.69721055031
0.61258679628 -0.44412276149 0.65369790792
0.81862789392 -0.00025385082699 0.57423353195
0.67194348574 0.11752980947 0.73117238283
-0.73969841003 0.093572169542 0.66548210382
-0.67847698927 0.27110081911 0.68257302046
0.29674440622 -0.38519352674 0.87377440929
0.37683290243 -0.16984389722 0.91055828333
-0.22702437639 -0.44687512517 -0.8653908968
-0.29121974111 -0.33832660317 -0.89453744888
-0.0077808345668 -0.31180268526 -0.95006424189
-0.14325664937 -0.36144301295 -0.92123067379
-0.041101358831 -0.41347312927 -0.90958625078
-0.12574589252 -0.45181676745 -0.88319700956
-0.21827377379 -0.53118443489 -0.81867748499
0.92082053423 0.11047305912 -0.37295180559
0.91719472408 0.39660832286 0.034794554114
0.98333197832 0.1598470211 -0.080979965627
0.86059403419 0.48216110468 -0.16358062625
0.93937158585 0.18103025854 -0.29136899114
0.95859575272 0.21418665349 -0.18761354685
0.9245582819 0.29306337237 -0.24334967136
0.90370392799 0.26456338167 -0.33650571108
0.93256866932 0.32894951105 -0.14857970178
0.88606822491 0.34679633379 -0.30750405788
0.8963598609 0.38895514607 -0.21274265647
0.90143215656 0.42533516884 -0.081357672811
0.88920968771 0.20646862686 -0.40832170844
0.95522266626 0.29205274582 -0.047138873488
-0.053435888141 -0.18813610077 -0.9805098772
-0.33083939552 -0.2232530117 -0.91690462828
-0.18199932575 -0.25032287836 -0.950915277
0.0096491910517 0.61586350203 -0.78760617971
-0.12958328426 0.63124537468 -0.76470375061
-0.042639773339 0.71126359701 -0.70137989521

CELLS 366 1464
3 0 1 2
3 3 4 5
3 6 4 7
3 8 7 9
3 9 10 8
3 11 12 13
3 11 0 12
3 14 15 16
3 15 17 18
3 17 19 18
3 18 19 4
3 15 18 20
3 18 3 20
3 18 4 3
3 21 16 20
3 20 16 15
3 14 17 15
3 22 7 19
3 22 9 7
3 19 7 4
3 23 9 22
3 24 25 0
3 0 25 1
3 24 26 25
3 26 27 25
3 26 28 27
3 25 27 1
3 28 26 29
3 30 26 24
3 31 32 33
3 31 24 32
3 24 31 30
3 30 31 34
3 11 32 0
3 32 24 0
3 35 36 37
3 37 36 34
3 30 34 38
3 23 39 9
3 9 39 10
3 23 40 39
3 40 41 39
3 39 41 10
3 42 43 44
3 43 45 44
3 43 46 45
3 44 45 47
3 42 48 43
3 48 49 43
3 48 23 49
3 43 49 46
3 49 23 50
3 44 47 51
3 23 48 40
3 52 35 53
3 35 54 36
3 36 54 55
3 51 54 56
3 54 57 56
3 54 35 57
3 42 56 58
3 57 52 59
3 57 35 52
3 52 60 61
3 51 56 44
3 44 56 42
3 48 62 40
3 2 63 0
3 0 63 12
3 2 64 63
3 2 65 64
3 66 67 68
3 67 69 68
3 67 3 69
3 3 67 20
3 20 67 66
3 10 70 8
3 10 71 70
3 71 72 70
3 70 72 13
3 13 72 11
3 16 73 14
3 14 73 74
3 75 73 76
3 73 77 76
3 73 16 77
3 76 77 78
3 28 79 80
3 79 76 80
3 80 76 78
3 21 77 16
3 28 80 27
3 27 80 81
3 75 74 73
3 82 83 74
3 82 84 83
3 74 83 14
3 14 83 17
3 17 83 85
3 34 86 87
3 86 88 87
3 86 33 88
3 87 88 89
3 89 88 90
3 88 91 90
3 88 33 91
3 90 91 11
3 33 86 31
3 31 86 34
3 11 91 32
3 32 91 33
3 34 87 37
3 89 90 72
3 72 90 11
3 1 92 2
3 2 92 65
3 1 81 92
3 81 93 92
3 81 78 93
3 92 93 21
3 78 81 80
3 27 81 1
3 60 53 94
3 53 95 94
3 53 37 95
3 37 53 35
3 52 53 60
3 68 69 96
3 97 98 99
3 98 5 99
3 98 69 5
3 6 5 4
3 5 69 3
3 21 93 77
3 77 93 78
3 89 95 87
3 87 95 37
3 47 100 51
3 47 101 100
3 101 102 100
3 47 103 101
3 103 104 101
3 101 104 105
3 105 104 74
3 104 82 74
3 12 106 13
3 28 107 108
3 51 55 54
3 64 109 63
3 109 110 63
3 64 111 109
3 111 112 109
3 111 97 112
3 109 112 110
3 110 113 63
3 63 113 12
3 68 114 115
3 65 114 64
3 64 114 111
3 114 96 111
3 114 68 96
3 111 96 97
3 12 113 106
3 113 116 106
3 113 110 116
3 106 116 117
3 110 112 116
3 112 118 116
3 112 97 118
3 116 118 117
3 99 118 97
3 97 96 98
3 98 96 69
3 119 120 100
3 100 120 51
3 121 122 46
3 46 122 45
3 123 124 19
3 124 22 19
3 22 50 23
3 49 50 46
3 59 58 57
3 57 58 56
3 125 61 60
3 52 61 59
3 125 126 61
3 126 127 61
3 126 62 127
3 61 127 59
3 62 126 40
3 40 126 125
3 59 127 58
3 127 128 58
3 127 62 128
3 58 128 42
3 42 128 48
3 128 62 48
3 46 129 121
3 123 130 124
3 130 131 124
3 130 132 131
3 124 131 22
3 22 131 50
3 131 129 50
3 131 132 129
3 50 129 46
3 17 133 19
3 133 123 19
3 132 134 135
3 134 136 135
3 134 137 136
3 135 136 121
3 137 85 84
3 84 85 83
3 137 138 85
3 138 133 85
3 138 123 133
3 85 133 17
3 84 139 137
3 137 139 136
3 139 140 136
3 139 141 140
3 136 140 121
3 122 121 142
3 132 135 129
3 129 135 121
3 137 134 138
3 130 134 132
3 123 138 130
3 130 138 134
3 75 143 144
3 143 145 144
3 143 79 145
3 144 145 102
3 119 108 107
3 108 79 28
3 79 143 76
3 143 75 76
3 75 146 74
3 74 146 105
3 119 147 108
3 147 145 108
3 147 102 145
3 108 145 79
3 102 148 144
3 148 146 144
3 148 105 146
3 144 146 75
3 105 148 101
3 101 148 102
3 102 147 100
3 100 147 119
3 117 149 150
3 149 151 150
3 149 6 151
3 150 151 8
3 8 151 7
3 7 151 6
3 8 152 150
3 152 153 150
3 152 13 153
3 150 153 117
3 66 154 20
3 154 21 20
3 66 115 154
3 115 155 154
3 115 65 155
3 154 155 21
3 21 155 92
3 155 65 92
3 65 115 114
3 115 66 68
3 13 152 70
3 70 152 8
3 99 156 157
3 156 149 157
3 156 6 149
3 157 149 117
3 6 156 5
3 5 156 99
3 158 84 159
3 117 153 106
3 106 153 13
3 99 157 118
3 118 157 117
3 45 122 160
3 161 162 163
3 162 142 163
3 162 122 142
3 163 142 141
3 161 163 158
3 164 158 141
3 163 141 158
3 158 164 84
3 84 164 139
3 139 164 141
3 141 142 140
3 140 142 121
3 125 165 40
3 40 165 41
3 71 166 72
3 166 89 72
3 41 167 10
3 167 71 10
3 89 168 95
3 95 168 94
3 41 169 170
3 169 171 170
3 169 172 171
3 170 171 173
3 172 174 171
3 174 175 171
3 174 94 175
3 171 175 173
3 94 174 60
3 60 174 172
3 173 175 176
3 175 168 176
3 175 94 168
3 176 168 89
3 172 177 60
3 60 177 125
3 125 177 165
3 177 169 165
3 177 172 169
3 165 169 41
3 41 170 167
3 170 178 167
3 170 173 178
3 167 178 71
3 71 178 166
3 178 176 166
3 178 173 176
3 166 176 89
3 45 179 47
3 179 103 47
3 103 180 104
3 180 82 104
3 45 160 179
3 160 181 179
3 160 161 181
3 179 181 103
3 103 181 180
3 181 159 180
3 181 161 159
3 180 159 82
3 82 159 84
3 158 159 161
3 161 160 162
3 162 160 122
3 30 29 26
3 29 107 28
3 120 182 51
3 51 182 55
3 120 183 182
3 183 184 182
3 183 107 184
3 182 184 55
3 107 183 119
3 119 183 120
3 55 184 38
3 184 29 38
3 184 107 29
3 38 29 30
3 55 38 36
3 36 38 34

CELL_TYPES 366
5
5
5
5
5
5
5
5
5
5
5
5
5
5
5
5
5
5
5
5
5
5
5
5
5
5
5
5
5
5
5
5
5
5
5
5
5
5
5
5
5
5
5
5
5
5
5
5
5
5
5
5
5
5
5
5
5
5
5
5
5
5
5
5
5
5
5
5
5
5
5
5
5
5
5
5
5
5
5
5
5
5
5
5
5
5
5
5
5
5
5
5
5
5
5
5
5
5
5
5
5
5
5
5
5
5
5
5
5
5
5
5
5
5
5
5
5
5
5
5
5
5
5
5
5
5
5
5
5
5
5
5
5
5
5
5
5
5
5
5
5
5
5
5
5
5
5
5
5
5
5
5
5
5
5
5
5
5
5
5
5
5
5
5
5
5
5
5
5
5
5
5
5
5
5
5
5
5
5
5
5
5
5
5
5
5
5
5
5
5
5
5
5
5
5
5
5
5
5
5
5
5
5
5
5
5
5
5
5
5
5
5
5
5
5
5
5
5
5
5
5
5
5
5
5
5
5
5
5
5
5
5
5
5
5
5
5
5
5
5
5
5
5
5
5
5
5
5
5
5
5
5
5
5
5
5
5
5
5
5
5
5
5
5
5
5
5
5
5
5
5
5
5
5
5
5
5
5
5
5
5
5
5
5
5
5
5
5
5
5
5
5
5
5
5
5
5
5
5
5
5
5
5
5
5
5
5
5
5
5
5
5
5
5
5
5
5
5
5
5
5
5
5
5
5
5
5
5
5
5
5
5
5
5
5
5
5
5
5
5
5
5
5
5
5
5
5
5
5
5
5
5
5
5
5
5
5
5
5
5
5
5
5
5
5
5

CELL_DATA 366
SCALARS cell_data_0 double
LOOKUP_TABLE default
2.4589988265e-05
3.09116411385e-06
3.35462996912e-05
1.11868804227e-05
1.78375885063e-05
2.5910846537e-05
2.91618756806e-05
1.08806270705e-06
7.68996463234e-06
1.31078037351e-05
1.43558660786e-05
1.91333327468e-05
3.57368373986e-05
2.89805294107e-05
2.15601091925e-05
1.29551727429e-05
2.20836335318e-06
1.19515643961e-05
9.50454921627e-07
1.33814984693e-05
6.43041404043e-05
4.20510057115e-06
1.19147235677e-05
2.04220116405e-06
3.9228009755e-06
3.2501603728e-06
6.29315175238e-06
6.5636651267e-06
2.93630728331e-05
2.94532706413e-06
2.27978722066e-06
2.81396248794e-05
2.38040263315e-05
1.59785028311e-05
4.6019898429e-06
2.35534077306e-07
6.4518820372e-07
1.90842241489e-05
3.88115484392e-05
1.64709089077e-05
1.62365707214e-05
1.07640732308e-06
4.05227290548e-06
3.85186064113e-06
3.49400148413e-07
3.79792552767e-07
1.02884287884e-06
3.88026638832e-06
8.40759101604e-08
1.77689927267e-05
2.06151560411e-07
2.13716823082e-05
4.98130853274e-06
2.07513458847e-05
1.07334604228e-06
2.77123131918e-07
7.96626978327e-05
2.51807527671e-06
4.10302032082e-07
2.10278954707e-07
2.87153376282e-06
9.442793052e-06
3.61108505554e-08
3.27760877369e-08
3.04185478733e-06
4.11231715604e-06
1.46039991185e-05
2.10683835978e-05
3.50565836237e-05
1.07898466097e-05
1.10285794666e-05
2.75393201034e-05
2.80639574421e-05
3.0766067047e-05
3.64025589707e-05
2.77473598088e-05
2.76147327344e-06
4.25494919976e-07
4.30890662949e-06
9.02174117802e-06
1.60528599577e-05
1.28777824549e-06
1.66835836067e-06
1.54265552065e-06
1.2032266787e-06
2.31120144999e-06
1.07923181073e-06
7.48915411287e-06
8.64835744512e-07
1.07385576259e-06
9.10270798447e-06
5.59248013531e-06
2.13122651213e-06
2.09163923444e-07
2.98382661145e-06
3.64585751683e-06
1.36906369401e-06
1.14791127144e-06
8.69924735703e-07
3.42814695003e-07
8.53580393423e-07
1.26256835727e-06
1.68443889028e-06
1.05166613551e-06
1.26764205607e-06
1.41853001661e-06
3.6451700308e-06
1.59603584129e-06
7.50240386539e-07
5.34847868778e-06
2.5001226764e-06
1.53674028832e-08
7.48568592007e-07
6.97011641291e-06
1.66102658883e-05
2.30365852726e-05
6.89627131446e-06
4.29400707874e-06
4.13315808538e-07
8.74331638906e-06
7.06912938015e-08
4.79791661965e-06
1.08143441068e-06
8.73633020679e-07
1.04773030833e-06
1.0838183463e-06
1.00686584298e-06
4.5258186016e-05
3.68998970455e-05
2.2382152107e-05
2.47200540193e-05
1.33783091925e-05
4.5918049862e-05
5.26108551576e-06
3.47975278822e-07
2.00809106111e-06
4.24085740378e-07
4.23104387074e-06
7.08513789696e-07
5.25149033309e-09
2.06046701141e-05
1.57871967343e-05
1.00354764814e-05
1.15063780798e-05
2.58039390701e-06
2.2878977898e-05
8.50949145636e-05
9.53490441814e-05
8.85167185279e-06
4.23874966874e-06
7.64235776884e-06
1.18286849012e-05
3.14093934393e-05
1.11116573159e-07
5.55476801031e-06
2.19010003211e-05
3.22849298408e-05
5.5945359868e-06
1.73454774108e-05
2.628933492e-05
3.38413118191e-05
3.52800537373e-05
1.9264172329e-05
1.5639756097e-05
1.68283735961e-06
2.52210342259e-05
8.29547327126e-07
2.67873423305e-05
3.07521556856e-05
3.2496501522e-05
2.41817320656e-05
3.61639818215e-05
3.70744345235e-05
3.79349540109e-05
5.66420617075e-05
7.23082981544e-08
2.17445370339e-07
1.96769114597e-05
1.82151240993e-06
3.51524815665e-05
3.88733908287e-07
8.87753430758e-06
3.2393845578e-07
1.33358880242e-05
7.21133115797e-06
8.96555411947e-06
3.537423721e-08
5.23259519264e-06
5.95387871602e-06
9.19128723238e-06
1.53977893748e-05
6.95125184966e-06
8.03905632311e-08
5.64211812664e-06
1.71085623175e-06
2.25342842613e-06
9.63302899452e-06
1.7706771756e-07
7.70432625419e-06
1.02600281427e-07
1.31895522883e-07
1.64809164407e-07
1.40885201596e-07
1.73331486089e-07
7.74377030931e-08
4.98280351343e-07
2.19041974645e-06
2.01109049219e-05
3.94648339349e-08
1.44251099245e-09
3.89695363433e-08
1.76849591842e-08
4.60196942337e-07
9.97297849753e-07
1.31412820469e-07
7.17322199802e-08
7.83144626163e-06
3.17047603186e-07
3.06457615193e-07
3.22961728541e-08
3.50898412104e-10
4.35794206588e-09
2.16511761873e-08
3.25353932084e-08
7.25502411569e-09
1.89027565871e-08
4.8682672092e-08
5.53811311162e-08
6.26120636216e-06
5.21431635812e-09
7.47817929103e-08
1.12355772767e-07
6.89353287095e-08
4.99741100073e-08
3.84631038232e-05
5.81670835196e-06
2.92174787368e-07
5.75212451997e-07
1.39871785364e-07
1.06874777784e-05
9.86849206305e-08
6.81842183662e-08
4.76789401691e-08
4.92772110296e-08
6.9966821022e-08
2.10741714406e-08
5.26685469585e-06
9.77380634443e-08
8.09631724899e-06
5.24425748646e-09
8.82875507603e-09
1.68296264299e-07
1.89579959645e-05
1.01648165054e-05
1.80060871476e-05
3.51873387709e-06
1.43705154306e-05
2.21715328542e-05
4.38316047623e-06
3.28709463497e-06
6.10310920633e-06
9.23839684992e-06
5.52788496742e-07
1.44864518295e-05
1.98850251983e-06
3.04069689517e-06
6.72335524385e-06
1.7261836912e-06
1.02622328328e-05
8.98102339663e-06
1.36774355234e-05
1.67706389616e-05
7.36967034172e-06
7.16678781684e-06
1.58596317134e-05
1.46734742605e-05
1.80401898087e-05
1.79483303912e-05
8.48523170575e-06
1.70969101448e-05
2.46177208685e-07
1.9129244255e-05
1.49365129959e-05
2.68723906476e-05
2.44163404605e-05
2.51111556906e-07
4.28487716927e-09
6.24066446874e-09
1.80841087026e-09
5.69796648639e-09
1.52329849821e-09
4.32527763533e-09
3.53703589837e-09
1.41038160869e-07
1.68318510825e-07
4.97764992762e-09
2.37345529003e-09
2.52897400061e-08
1.61891833843e-05
5.21614965991e-07
2.26176130263e-06
7.7295340164e-07
3.38811578067e-06
1.78653190276e-06
1.86164181482e-06
1.70334011911e-07
3.65685726788e-08
7.95618985875e-08
9.52380450497e-06
9.64341272728e-06
7.20651470859e-06
1.18504688966e-08
2.5039323916e-08
8.2771614874e-06
1.04397780963e-07
1.37813684584e-05
1.03766908735e-05
2.30651572568e-08
9.17212720241e-08
9.58834474802e-07
1.29821739221e-05
9.04063340019e-06
6.26201524772e-06
6.38345816675e-08
9.6697141312e-06
9.36884302043e-08
2.33391075801e-07
2.42358842605e-07
1.2626798814e-05
6.27397709672e-07
7.24888120257e-07
4.47991048754e-07
1.16207619635e-05
2.61702726403e-07
1.26382786584e-06
1.84311996984e-05
1.08811631803e-05
1.8762327307e-06
5.57522754926e-07
9.37881893179e-07
5.26653381888e-07
9.0267461319e-06
8.90458783903e-06
6.67609897943e-07
3.04716171422e-07
1.11420701887e-06
2.02926997249e-06
1.08625350039e-09
1.10628363183e-07
1.11714131049e-07
1.23261837988e-05
6.2640258159e-05
2.83129696687e-05
4.05572823394e-05
1.13163540553e-05
4.21716691692e-08
1.27510907088e-05
1.74110554072e-05
1.8852174296e-05
1.79329853292e-05
2.34627027292e-05
1.64873836154e-07
1.80011506397e-05
5.8564253412e-06
4.75598943926e-05
9.6262469513e-07

