# vtk DataFile Version 3.0
File Name: Molecule/sphere_excent/sphere_excent_0-s2.vtk
ASCII
DATASET UNSTRUCTURED_GRID
FIELD FieldData 1
TIME 1 1 double
0.0
POINTS 45 double
0.85065078735 -0.52573108673 -6.0856786277e-09
0.80892920494 -0.30898347497 -0.49994575977
0.99989145994 -1.4707139506e-08 7.9755130855e-07
0.80892878771 0.30898588896 -0.49994575977
0.52573108673 3.2096862945e-09 -0.85065078735
0.85065078735 0.52573114634 1.0286806962e-08
0.49993908405 0.80894356966 -0.3089850843
0.30897480249 0.49996092916 -0.80892783403
-0.0001782055333 0.85077804327 -0.5255214572
0.49993959069 0.8089428544 0.3089863658
0.0168526005 0.99819666147 7.2874956913e-07
-0.00017818121705 0.85077804327 0.5255214572
-0.50428175926 0.79914867878 0.32209658623
-0.3089004755 0.4997895658 0.80909633636
-0.80901116133 0.30876320601 0.50001227856
-0.8504897356 0.52598792315 -4.0949457158e-09
-0.52573108673 -2.4616694461e-08 0.85065078735
0.30897733569 0.49995997548 0.80892771482
3.0469419698e-07 -4.7853809519e-06 0.9998922348
0.52573108673 -1.149137141e-08 0.85065078735
-0.30898416042 -0.49994599819 0.8089287281
0.30898475647 -0.49994623661 0.80892831087
9.9983799018e-09 -0.85065078735 0.52573102713
0.80892914534 -0.30898341537 0.49994570017
0.49994522333 -0.8089299798 0.30898210406
0.30898278952 -0.49994543195 -0.80892956257
-1.1466214573e-06 8.0645270373e-07 -0.99989193678
-0.30898481607 -0.49994617701 -0.80892837048
-1.3162987145e-08 -0.85065078735 -0.52573108673
-0.52573114634 -3.1259017597e-10 -0.85065078735
0.80892932415 0.30898502469 0.49994528294
-0.80893003941 -0.30898192525 -0.49994644523
-0.80901122093 0.30876511335 -0.50001072884
-0.99989551306 1.3095444046e-05 8.1569794474e-07
-0.85065078735 -0.52573108673 1.8487030573e-08
-0.30890309811 0.49978855252 -0.80909585953
-0.50429868698 0.79914879799 -0.32207176089
-0.49994525313 -0.8089299202 -0.30898213387
-0.49994572997 -0.80892914534 0.30898347497
8.0633674315e-07 -0.99989134073 3.6212131072e-09
-0.80892825127 -0.3089864254 0.49994683266
0.49994561076 -0.80892908573 -0.30898347497
-0.26323789358 0.95107096434 0.16186518967
-0.26324030757 0.9510666728 -0.1618848592
-0.52516824007 0.85101568699 6.7534750769e-07

CELLS 86 344
3 0 1 2
3 1 3 2
3 1 4 3
3 2 3 5
3 5 3 6
3 3 7 6
3 3 4 7
3 6 7 8
3 5 6 9
3 6 10 9
3 6 8 10
3 9 10 11
3 11 12 13
3 12 14 13
3 12 15 14
3 13 14 16
3 11 13 17
3 13 18 17
3 13 16 18
3 17 18 19
3 16 20 18
3 20 21 18
3 20 22 21
3 18 21 19
3 19 21 23
3 21 24 23
3 21 22 24
3 23 24 0
3 4 25 26
3 25 27 26
3 25 28 27
3 26 27 29
3 0 2 23
3 2 30 23
3 2 5 30
3 23 30 19
3 5 9 30
3 9 17 30
3 9 11 17
3 30 17 19
3 29 31 32
3 31 33 32
3 31 34 33
3 32 33 15
3 8 35 36
3 35 32 36
3 35 29 32
3 36 32 15
3 34 37 38
3 37 39 38
3 37 28 39
3 38 39 22
3 34 38 40
3 38 20 40
3 38 22 20
3 40 20 16
3 16 14 40
3 14 33 40
3 14 15 33
3 40 33 34
3 29 27 31
3 27 37 31
3 27 28 37
3 31 37 34
3 28 41 39
3 41 24 39
3 41 0 24
3 39 24 22
3 4 1 25
3 1 41 25
3 1 0 41
3 25 41 28
3 4 26 7
3 26 35 7
3 26 29 35
3 7 35 8
3 10 42 11
3 11 42 12
3 10 43 42
3 43 44 42
3 43 36 44
3 42 44 12
3 36 43 8
3 8 43 10
3 12 44 15
3 44 36 15

CELL_TYPES 86
5
5
5
5
5
5
5
5
5
5
5
5
5
5
5
5
5
5
5
5
5
5
5
5
5
5
5
5
5
5
5
5
5
5
5
5
5
5
5
5
5
5
5
5
5
5
5
5
5
5
5
5
5
5
5
5
5
5
5
5
5
5
5
5
5
5
5
5
5
5
5
5
5
5
5
5
5
5
5
5
5
5
5
5
5
5

CELL_DATA 86
SCALARS cell_data_0 double
LOOKUP_TABLE default
0.000153725273248
0.000201419048626
4.02958585336e-05
0.000120023070522
2.06304056109e-05
0.000217282599237
0.000171955608343
0.000141577729274
6.84702711636e-05
0.000785564923716
0.000503885788165
0.000536655189352
6.37009571865e-05
0.000135610098142
0.000102109131167
6.39173505358e-05
6.75019223676e-05
0.000243898420998
0.000196866309074
0.000144944513146
0.000118385204888
0.000124298901949
5.20169616943e-05
0.000101183294924
4.31603693208e-05
3.86564608671e-05
3.61343010291e-05
1.4490981822e-05
2.49466207024e-05
3.20900249492e-05
1.40989787045e-06
3.41794481541e-05
7.44734923653e-05
1.2672951179e-05
3.97206208236e-05
3.78163174723e-05
2.64086834975e-05
8.46319181671e-06
4.30408287328e-06
7.00452224159e-05
1.3793743596e-05
3.39658378712e-06
8.30864685043e-07
4.52717510178e-06
0.000115081691918
0.000131648462219
1.13673690046e-05
0.000121261961626
1.26273961067e-06
5.5366497951e-07
1.07077486446e-06
1.24625047982e-05
1.59091953907e-06
5.09734636137e-05
4.12800181346e-05
7.34319717584e-05
4.74020542001e-05
9.62115697504e-06
1.61361629893e-06
4.50680022578e-06
9.98725407598e-06
7.33509158404e-06
1.96675995954e-06
5.69126272132e-06
1.07153937511e-06
1.01181571151e-05
3.66559843646e-06
1.85781137451e-05
1.04653249137e-05
1.22733654677e-05
3.24049728675e-05
2.76103516584e-07
0.000180944026666
0.000227898412331
3.69410469345e-05
0.000141001577673
0.000199427059809
2.43825846057e-05
0.000151129664041
5.73442116717e-08
3.08836254603e-05
2.85136905854e-05
5.72364085828e-05
0.000264019074124
5.36692307834e-05
5.90783514944e-05

