# vtk DataFile Version 3.0
File Name: Molecule/sphere_excent/sphere_excent_0-s18.vtk
ASCII
DATASET UNSTRUCTURED_GRID
FIELD FieldData 1
TIME 1 1 double
0.0
POINTS 180 double
0.005712851882 0.84898793697 0.52813643217
-0.47129288316 0.78087890148 0.40929740667
-0.33417642117 0.57639193535 0.74530941248
-0.33804443479 -0.5919007659 0.73212665319
0.0070146243088 -0.8473008275 0.53094786406
0.026597503573 -0.47827032208 0.87789338827
0.3576810658 -0.55500990152 0.75017279387
0.50049638748 -0.80952256918 0.30679485202
0.82295304537 -0.32043933868 0.46528619528
0.84738749266 -0.53096926212 0.011046239175
0.99243676662 -0.098027423024 0.074981234968
0.51703453064 0.73251914978 0.4417065084
0.37194338441 0.55525797606 0.74323195219
0.74431025982 0.31501406431 0.58722877502
-0.85365843773 -0.33318820596 -0.4006741643
-0.84318614006 -0.53709894419 0.013907229528
-0.99329477549 -0.096091225743 0.058762703091
-0.53316509724 -0.80303668976 -0.26476699114
-0.49776956439 -0.8137422204 0.29998600483
-0.00045994482934 -0.99972069263 0.0093122059479
-0.80090248585 -0.32956710458 0.50010836124
-0.85529768467 0.21197076142 0.47019886971
0.52392190695 -0.81598746777 -0.24476882815
0.79323476553 -0.43047261238 -0.43056735396
0.001500352053 0.99981302023 0.0038057814818
-0.27589121461 0.94432419538 0.17879220843
-0.27037534118 0.94721120596 -0.17198203504
-0.52468585968 0.85116845369 -0.0014508903259
-0.45545974374 0.78843319416 -0.4126983583
0.019591324031 0.88179647923 -0.4701063931
0.273671031 0.94935238361 -0.1544098258
0.27998873591 0.94009768963 0.19359108806
0.46770063043 0.88364714384 0.019024319947
0.46196654439 0.81093227863 -0.35786548257
0.59709382057 0.4945473969 -0.63149267435
0.39245906472 0.68239599466 -0.61637729406
0.63464748859 0.63441038132 -0.44101810455
0.95195668936 -0.20094995201 -0.23183529079
0.87326043844 -0.094829000533 -0.47794705629
0.9684138298 0.064739331603 -0.23627384007
0.50338584185 -0.023124441504 -0.86387079954
0.42622172832 -0.26332649589 -0.8653665781
0.26735454798 0.014180880971 -0.96344304085
0.13939887285 -0.24886710942 -0.95826745033
0.31022840738 -0.51287066936 -0.80038064718
-0.032914333045 0.055746491998 -0.99795299768
0.68423557281 -0.22263251245 -0.69433170557
0.56503593922 -0.45357179642 -0.68907260895
0.45305532217 -0.68402373791 -0.57109022141
0.17597267032 0.43411511183 -0.88261300325
0.71757948399 0.33939695358 -0.60813969374
0.75475728512 0.47337573767 -0.45418873429
0.43322867155 0.45522004366 -0.77726769447
0.096676051617 0.68618363142 -0.72063732147
0.42518523335 0.23291772604 -0.87460911274
0.57864946127 0.30870658159 -0.75470089912
0.59836047888 0.1306874156 -0.79040873051
0.68397670984 0.20527084172 -0.69992756844
0.82618492842 0.31849586964 -0.46465355158
0.7730409503 0.19318316877 -0.60382139683
0.74870508909 -0.040067136288 -0.66139483452
0.011901086196 0.53925216198 0.84190040827
-0.18946327269 0.34211605787 0.92015790939
-0.45952129364 0.30217689276 0.8340716958
-0.5996299386 -0.033704258502 0.79819661379
-0.46332079172 -0.27483212948 0.84206521511
-0.35696858168 -0.046099536121 0.93272477388
-0.21156062186 -0.29380631447 0.93207138777
0.93885648251 0.1348028183 0.31642690301
0.96600365639 0.24209412932 0.076086640358
0.85356938839 0.43701213598 0.28365367651
-0.94934821129 0.087135948241 -0.3010660708
-0.72463947535 -0.11443982273 -0.67932331562
-0.80427229404 0.22993245721 -0.54751694202
-0.86573880911 0.42028781772 -0.27131018043
-0.96167778969 0.27359771729 0.012547021732
-0.84750026464 0.53060042858 0.0066830213182
-0.66674971581 0.57658940554 -0.47179806232
-0.70785820484 0.67932319641 -0.19345848262
-0.70004010201 0.68544703722 0.19969062507
-0.43734073639 -0.30967956781 -0.84342348576
-0.59412306547 -0.45858228207 -0.66055256128
-0.33068931103 -0.53661000729 -0.77592676878
-0.35386762023 -0.75874400139 -0.54573357105
0.53040546179 0.83399873972 -0.15170547366
0.67722719908 0.70720624924 -0.20294073224
0.66618967056 0.74587666988 0.0030614191201
0.83699864149 0.54534387589 -0.010839458555
0.7231117487 0.66642826796 0.18168950081
0.54816359282 0.81508255005 0.18740551174
-0.66180539131 0.54180407524 0.51764988899
-0.84259742498 0.46594902873 0.27003619075
0.85002434254 0.43502619863 -0.29373317957
0.77658611536 0.5677946806 -0.27304694057
-0.1355895102 -0.029228651896 0.99009776115
0.068853005767 -0.026500789449 0.99724686146
-0.017617058009 -0.19837242365 0.97973537445
0.19500733912 -0.24216875434 0.9499989748
-0.19714727998 0.3055767417 -0.93159198761
-0.3187854588 0.075237631798 -0.94472211599
-0.45906618237 0.27904310822 -0.84314602613
-0.22532300651 -0.12993109226 -0.9644087553
-0.45328211784 -0.099176585674 -0.88584804535
-0.55519086123 0.037814181298 -0.83058452606
0.49003386497 0.27352261543 0.82752281427
-0.18288394809 0.7148745656 -0.67452186346
-0.48993271589 0.58666998148 -0.64359813929
-0.073694229126 0.54048532248 -0.83823055029
-0.29887267947 0.53752815723 -0.78813147545
0.001585012069 0.29047390819 0.95678150654
0.17087088525 0.28543078899 0.94293993711
-0.055622767657 0.13597607613 0.98909384012
0.13587144017 0.13110844791 0.981980443
0.29014185071 0.38925597072 0.87420964241
-0.25091633201 0.1449970156 0.95626360178
-0.53993552923 0.13089296222 0.83095908165
0.34220477939 0.16447722912 0.92516887188
0.53415369987 -0.032051213086 0.84428906441
0.27585107088 -0.012726060115 0.96110421419
0.076775044203 -0.59006875753 -0.80328863859
0.073940590024 -0.44927129149 -0.89003235102
-0.013567005284 -0.9006844759 -0.43249475956
0.23287051916 -0.89533919096 -0.3784686923
0.85764974356 0.14710387588 -0.49262434244
0.80094259977 0.065269976854 -0.59499818087
0.71651095152 0.086530037224 -0.69215005636
0.6512889266 -0.004035317339 -0.75877863169
0.24005375803 -0.67339509726 -0.69927108288
0.094930782914 -0.83130431175 -0.54754078388
0.30090993643 -0.7978540659 -0.52227199078
0.12950207293 -0.74490958452 -0.65405374765
-0.25603035092 -0.88459211588 -0.38931387663
-0.014114406891 -0.75075489283 -0.66017371416
0.065053522587 -0.68452042341 -0.72605007887
-0.048623584211 -0.66846716404 -0.74214923382
-0.17824307084 -0.72266370058 -0.66765958071
-0.11687941849 -0.82517760992 -0.55272233486
-0.14678958058 -0.62075310946 -0.76991915703
-0.055952977389 -0.58324986696 -0.81037068367
-0.1334875524 -0.53130942583 -0.83659011126
-0.037180241197 -0.49816998839 -0.86608368158
-0.73165899515 0.4101524353 -0.5443828702
-0.64371532202 0.28580221534 -0.70976567268
-0.58655112982 0.43392273784 -0.68367886543
-0.67458868027 0.14010438323 -0.72427505255
-0.42070195079 0.42447456717 -0.80157679319
-0.53475630283 0.16741599143 -0.8282917738
0.48713997006 -0.29587766528 0.8215572238
0.69421327114 -0.18205335736 0.69625937939
0.61227816343 -0.44087484479 0.65622234344
0.81843948364 -0.001956166001 0.5744843483
0.67059743404 0.12158031017 0.73171526194
-0.73911935091 0.099753305316 0.66516214609
-0.67870754004 0.26793822646 0.68355053663
0.29708349705 -0.38705614209 0.87281167507
0.37923061848 -0.16422390938 0.91055035591
-0.22971279919 -0.44846835732 -0.86389267445
-0.2884914279 -0.33515024185 -0.89659547806
-0.0069346330129 -0.3098666966 -0.95064812899
-0.14040437341 -0.35887622833 -0.92261761427
-0.039705492556 -0.41381269693 -0.9094761014
-0.12938059866 -0.4523742497 -0.88237476349
-0.22038128972 -0.52966380119 -0.81911218166
0.92111980915 0.1167775616 -0.37039467692
0.91779011488 0.39574933052 0.027457466349
0.98165202141 0.16691784561 -0.086719378829
0.86247313023 0.48082250357 -0.15726566315
0.9399856925 0.18119677901 -0.28934076428
0.95778685808 0.21453416348 -0.19143728912
0.92382144928 0.29587683082 -0.24258330464
0.90411251783 0.26529482007 -0.33475285769
0.93235272169 0.32991284132 -0.1478164494
0.88690036535 0.34555765986 -0.30658262968
0.89784324169 0.38543558121 -0.2127943933
0.89989596605 0.42851829529 -0.081702925265
0.8882573843 0.208377406 -0.40937831998
0.95496445894 0.2928275466 -0.04742814973
-0.051984466612 -0.19454817474 -0.97927296162
-0.33031234145 -0.22466187179 -0.9167470336
-0.18179365993 -0.25157544017 -0.95060575008

CELLS 356 1424
3 0 1 2
3 3 4 5
3 6 4 7
3 8 7 9
3 9 10 8
3 11 12 13
3 11 0 12
3 14 15 16
3 15 17 18
3 17 19 18
3 18 19 4
3 15 18 20
3 18 3 20
3 18 4 3
3 21 16 20
3 20 16 15
3 14 17 15
3 22 7 19
3 22 9 7
3 19 7 4
3 23 9 22
3 24 25 0
3 0 25 1
3 24 26 25
3 26 27 25
3 26 28 27
3 25 27 1
3 28 26 29
3 29 26 24
3 30 31 32
3 30 24 31
3 24 30 29
3 29 30 33
3 11 31 0
3 31 24 0
3 34 35 36
3 36 35 33
3 33 35 29
3 23 37 9
3 9 37 10
3 23 38 37
3 38 39 37
3 37 39 10
3 40 41 42
3 41 43 42
3 41 44 43
3 42 43 45
3 40 46 41
3 46 47 41
3 46 23 47
3 41 47 44
3 47 23 48
3 42 45 49
3 23 46 38
3 50 34 51
3 34 52 35
3 35 52 53
3 49 52 54
3 52 55 54
3 52 34 55
3 40 54 56
3 55 50 57
3 55 34 50
3 50 58 59
3 49 54 42
3 42 54 40
3 46 60 38
3 2 61 0
3 0 61 12
3 2 62 61
3 2 63 62
3 64 65 66
3 65 67 66
3 65 3 67
3 3 65 20
3 20 65 64
3 10 68 8
3 10 69 68
3 69 70 68
3 68 70 13
3 13 70 11
3 16 71 14
3 14 71 72
3 73 71 74
3 71 75 74
3 71 16 75
3 74 75 76
3 28 77 78
3 77 74 78
3 78 74 76
3 21 75 16
3 28 78 27
3 27 78 79
3 73 72 71
3 80 81 72
3 80 82 81
3 72 81 14
3 14 81 17
3 17 81 83
3 33 84 85
3 84 86 85
3 84 32 86
3 85 86 87
3 87 86 88
3 86 89 88
3 86 32 89
3 88 89 11
3 32 84 30
3 30 84 33
3 11 89 31
3 31 89 32
3 33 85 36
3 87 88 70
3 70 88 11
3 1 90 2
3 2 90 63
3 1 79 90
3 79 91 90
3 79 76 91
3 90 91 21
3 76 79 78
3 27 79 1
3 58 51 92
3 51 93 92
3 51 36 93
3 36 51 34
3 50 51 58
3 66 67 94
3 95 96 97
3 96 5 97
3 96 67 5
3 6 5 4
3 5 67 3
3 21 91 75
3 75 91 76
3 87 93 85
3 85 93 36
3 45 98 49
3 45 99 98
3 99 100 98
3 45 101 99
3 101 102 99
3 99 102 103
3 103 102 72
3 102 80 72
3 12 104 13
3 29 105 28
3 28 105 106
3 49 107 53
3 107 105 53
3 107 108 105
3 53 105 29
3 49 53 52
3 35 53 29
3 62 109 61
3 109 110 61
3 62 111 109
3 111 112 109
3 111 95 112
3 109 112 110
3 110 113 61
3 61 113 12
3 66 114 115
3 63 114 62
3 62 114 111
3 114 94 111
3 114 66 94
3 111 94 95
3 12 113 104
3 113 116 104
3 113 110 116
3 104 116 117
3 110 112 116
3 112 118 116
3 112 95 118
3 116 118 117
3 97 118 95
3 95 94 96
3 96 94 67
3 108 107 98
3 98 107 49
3 119 120 44
3 44 120 43
3 121 122 19
3 122 22 19
3 22 48 23
3 47 48 44
3 57 56 55
3 55 56 54
3 123 59 58
3 50 59 57
3 123 124 59
3 124 125 59
3 124 60 125
3 59 125 57
3 60 124 38
3 38 124 123
3 57 125 56
3 125 126 56
3 125 60 126
3 56 126 40
3 40 126 46
3 126 60 46
3 44 127 119
3 121 128 122
3 128 129 122
3 128 130 129
3 122 129 22
3 22 129 48
3 129 127 48
3 129 130 127
3 48 127 44
3 17 131 19
3 131 121 19
3 130 132 133
3 132 134 133
3 132 135 134
3 133 134 119
3 135 83 82
3 82 83 81
3 135 136 83
3 136 131 83
3 136 121 131
3 83 131 17
3 82 137 135
3 135 137 134
3 137 138 134
3 137 139 138
3 134 138 119
3 120 119 140
3 130 133 127
3 127 133 119
3 135 132 136
3 128 132 130
3 121 136 128
3 128 136 132
3 73 141 142
3 141 143 142
3 141 77 143
3 142 143 100
3 108 106 105
3 106 77 28
3 77 141 74
3 141 73 74
3 73 144 72
3 72 144 103
3 108 145 106
3 145 143 106
3 145 100 143
3 106 143 77
3 100 146 142
3 146 144 142
3 146 103 144
3 142 144 73
3 103 146 99
3 99 146 100
3 100 145 98
3 98 145 108
3 117 147 148
3 147 149 148
3 147 6 149
3 148 149 8
3 8 149 7
3 7 149 6
3 8 150 148
3 150 151 148
3 150 13 151
3 148 151 117
3 64 152 20
3 152 21 20
3 64 115 152
3 115 153 152
3 115 63 153
3 152 153 21
3 21 153 90
3 153 63 90
3 63 115 114
3 115 64 66
3 13 150 68
3 68 150 8
3 97 154 155
3 154 147 155
3 154 6 147
3 155 147 117
3 6 154 5
3 5 154 97
3 156 82 157
3 117 151 104
3 104 151 13
3 97 155 118
3 118 155 117
3 43 120 158
3 159 160 161
3 160 140 161
3 160 120 140
3 161 140 139
3 159 161 156
3 162 156 139
3 161 139 156
3 156 162 82
3 82 162 137
3 137 162 139
3 139 140 138
3 138 140 119
3 123 163 38
3 38 163 39
3 69 164 70
3 164 87 70
3 39 165 10
3 165 69 10
3 87 166 93
3 93 166 92
3 39 167 168
3 167 169 168
3 167 170 169
3 168 169 171
3 170 172 169
3 172 173 169
3 172 92 173
3 169 173 171
3 92 172 58
3 58 172 170
3 171 173 174
3 173 166 174
3 173 92 166
3 174 166 87
3 170 175 58
3 58 175 123
3 123 175 163
3 175 167 163
3 175 170 167
3 163 167 39
3 39 168 165
3 168 176 165
3 168 171 176
3 165 176 69
3 69 176 164
3 176 174 164
3 176 171 174
3 164 174 87
3 43 177 45
3 177 101 45
3 101 178 102
3 178 80 102
3 43 158 177
3 158 179 177
3 158 159 179
3 177 179 101
3 101 179 178
3 179 157 178
3 179 159 157
3 178 157 80
3 80 157 82
3 156 157 159
3 159 158 160
3 160 158 120

CELL_TYPES 356
5
5
5
5
5
5
5
5
5
5
5
5
5
5
5
5
5
5
5
5
5
5
5
5
5
5
5
5
5
5
5
5
5
5
5
5
5
5
5
5
5
5
5
5
5
5
5
5
5
5
5
5
5
5
5
5
5
5
5
5
5
5
5
5
5
5
5
5
5
5
5
5
5
5
5
5
5
5
5
5
5
5
5
5
5
5
5
5
5
5
5
5
5
5
5
5
5
5
5
5
5
5
5
5
5
5
5
5
5
5
5
5
5
5
5
5
5
5
5
5
5
5
5
5
5
5
5
5
5
5
5
5
5
5
5
5
5
5
5
5
5
5
5
5
5
5
5
5
5
5
5
5
5
5
5
5
5
5
5
5
5
5
5
5
5
5
5
5
5
5
5
5
5
5
5
5
5
5
5
5
5
5
5
5
5
5
5
5
5
5
5
5
5
5
5
5
5
5
5
5
5
5
5
5
5
5
5
5
5
5
5
5
5
5
5
5
5
5
5
5
5
5
5
5
5
5
5
5
5
5
5
5
5
5
5
5
5
5
5
5
5
5
5
5
5
5
5
5
5
5
5
5
5
5
5
5
5
5
5
5
5
5
5
5
5
5
5
5
5
5
5
5
5
5
5
5
5
5
5
5
5
5
5
5
5
5
5
5
5
5
5
5
5
5
5
5
5
5
5
5
5
5
5
5
5
5
5
5
5
5
5
5
5
5
5
5
5
5
5
5
5
5
5
5
5
5
5
5
5
5
5
5
5
5
5
5
5
5
5
5
5
5
5
5
5
5
5
5
5
5
5
5
5
5
5
5

CELL_DATA 356
SCALARS cell_data_0 double
LOOKUP_TABLE default
2.53524709988e-05
4.73634122923e-05
3.52044786004e-05
1.19969168138e-05
1.80691913526e-05
2.63944087577e-05
2.98346346212e-05
3.19810307505e-06
6.61455311266e-06
1.23734540148e-05
1.40639661077e-05
1.95409934962e-05
3.62919078961e-05
2.92409372586e-05
2.19355197464e-05
1.34042696982e-05
7.21474046127e-07
1.38666540092e-05
2.50643155395e-06
1.35705914125e-05
5.78602433067e-05
4.45993813911e-06
1.21829749281e-05
2.24336249033e-06
3.8930710847e-06
3.3475166189e-06
6.314915305e-06
4.71486599356e-05
3.11635700411e-05
2.86037363322e-06
1.71919130553e-06
3.10877158446e-05
2.66474774557e-05
1.54094778581e-05
3.72466015186e-06
3.03779640289e-07
7.32964051352e-07
3.11321883603e-05
4.26679041128e-05
1.8950492914e-05
1.74047391062e-05
1.11235622735e-06
4.59570030246e-06
3.64148239756e-06
2.72530337972e-07
5.90606177546e-07
1.73034716378e-06
3.79468474725e-06
2.09579345756e-07
1.97710063697e-05
6.84408878542e-07
2.2624389013e-05
6.22933850769e-06
2.05664588549e-05
3.71425593035e-08
7.23242293013e-08
8.407027343e-05
3.10271455548e-05
5.60092005906e-05
2.31029320503e-05
2.27915321491e-05
3.30460862783e-05
2.07689379146e-05
2.99881706654e-09
4.32393785889e-05
3.45088155427e-05
1.51905435176e-05
5.72478437646e-07
2.13302787236e-05
3.00245004889e-05
2.57615293349e-05
3.01440205774e-05
2.25734275049e-05
2.48200626231e-05
3.44147926367e-05
3.27165637831e-05
4.2503146728e-06
9.27729138637e-07
3.98056638435e-06
8.82419386174e-06
1.62179207241e-05
1.56741702618e-06
1.46018704717e-06
3.54480600824e-07
2.14240979928e-07
1.91474262637e-06
7.94007821184e-07
9.37762988986e-06
5.41892535459e-07
1.12412242223e-06
9.87308426734e-06
3.67869003873e-06
7.7309906086e-08
7.40051348792e-07
2.38493063934e-07
2.59006346922e-06
2.16386563197e-07
2.32328066586e-07
2.65226403576e-07
6.02185544995e-07
2.73363149183e-08
8.44541595473e-07
3.20763451689e-06
2.26975110985e-06
4.13936954648e-07
9.88396645404e-07
2.98061967062e-06
1.32115444914e-06
1.74469298574e-08
4.74308516703e-06
2.16293664482e-06
6.34496936083e-07
1.58440953021e-06
6.16493774678e-06
1.55816856283e-05
3.20915259784e-06
2.95547837677e-06
1.69300259169e-07
3.26898982136e-06
7.78651422127e-06
2.12793626056e-06
1.57687179973e-06
3.01065986806e-05
7.83146731291e-05
3.8639668388e-05
4.40031685704e-08
2.01975248403e-07
4.45736962757e-05
1.54589407012e-05
1.66396165397e-05
1.50032547511e-05
4.55762824475e-05
2.91974829518e-05
5.56317819496e-06
3.91665393111e-07
5.87446325369e-05
4.00108732564e-05
5.62744810978e-05
2.8224930773e-05
2.15469927454e-05
1.45481336742e-06
3.53941751221e-07
1.02496854878e-05
1.16882377077e-05
8.66915161957e-08
2.17814296125e-05
0.000203307993851
9.57837744695e-05
0.000169555416889
0.000269923993228
0.000106083122314
0.000279501877746
9.37676274966e-05
0.000156989305032
1.19621487492e-05
1.62706007827e-05
2.19772084069e-05
1.10520402389e-05
3.03255046852e-05
1.66133036167e-05
2.15957979502e-05
1.45744827685e-05
2.86308966111e-05
2.06323739546e-05
2.96760786814e-05
2.48221962378e-05
3.3019438378e-05
3.39456134598e-05
1.89368992038e-05
1.60922309781e-05
1.64924636875e-05
2.54724729116e-05
1.85926557732e-05
2.63238018567e-05
3.04961541008e-05
3.23165389349e-05
1.77005142851e-05
2.94763389052e-05
3.41407381325e-05
8.8753865896e-05
0.000122999758748
4.71515377678e-07
9.16205075457e-07
2.03806057158e-05
3.30704940694e-06
2.93461531224e-05
6.99093747882e-07
2.86222729206e-05
4.79457121523e-05
6.58521979372e-06
6.54782508408e-06
4.26304643346e-06
2.1323930616e-08
5.54498015581e-06
5.3582566164e-06
9.38522076016e-06
7.31718515747e-06
6.17069950986e-06
1.14579999945e-07
5.98839577493e-06
1.55593799571e-06
2.38670343503e-06
1.02544567232e-05
1.96373614289e-07
8.0366945563e-06
4.30486574831e-08
4.64269373555e-08
7.47926923068e-07
7.46590702686e-07
6.6939994519e-08
1.0407964011e-07
3.10929356515e-07
2.33463721104e-06
1.91192519743e-05
2.89028001251e-08
3.3171046623e-08
1.66698105216e-08
2.51949786337e-08
1.33175922848e-06
2.73228004986e-06
2.8219687899e-07
4.70666316926e-07
6.88969276822e-06
4.27623116724e-07
7.97662628215e-07
6.77545383866e-09
1.34577002774e-08
3.80364015062e-08
2.53666333862e-09
9.57356737602e-08
5.15661427344e-09
2.18608374847e-09
1.47127849936e-07
7.26607721496e-09
5.96250381275e-06
5.65140716252e-08
3.83824315326e-08
9.55210645049e-09
1.04697650743e-06
1.5547541905e-08
4.32279067058e-05
9.0928581288e-06
1.23709499028e-06
3.15517092304e-07
2.15779233112e-07
1.11747823484e-05
1.36980602234e-07
4.99560116841e-08
8.69278042726e-09
1.10093220788e-06
8.30568032205e-06
7.75313234277e-06
1.7037716702e-05
6.73757790668e-08
2.64359314831e-05
1.11096849986e-05
1.39731867975e-05
1.61577216197e-05
1.52146525979e-05
7.63778418018e-06
1.64572124629e-05
6.76749096653e-06
1.77062135818e-05
2.37850897058e-05
9.61982400166e-07
1.20856821355e-06
3.61848268168e-06
1.16742274638e-05
4.12279134585e-06
1.56349340682e-05
9.43682803332e-06
1.62456751711e-05
3.09722904852e-05
7.01310396237e-06
5.33304383072e-06
3.60387760188e-05
1.12272603722e-05
1.12451481832e-05
6.99799075437e-06
5.79278524428e-06
9.11061123939e-06
1.49803869406e-05
1.52506565544e-05
1.69396606593e-05
1.29186561783e-05
1.26199932677e-05
5.80462430071e-07
1.9393498668e-05
1.49250664629e-05
1.00598846014e-05
1.53644329744e-05
2.40290548111e-07
1.2930332764e-09
3.84943651559e-09
7.24045276749e-08
4.19689946793e-08
7.85180231909e-09
3.32837417673e-08
3.79331247101e-08
3.20630638489e-07
4.18813981659e-07
4.17864667155e-08
4.05081948696e-08
3.16502978231e-08
8.16759686294e-06
4.50559089022e-07
1.25360069837e-06
1.71900834696e-06
3.67494875576e-06
3.41862732025e-06
3.07634427495e-05
5.71272622215e-05
1.17142782934e-07
8.06852466814e-09
8.37502212995e-06
6.70790707658e-06
6.1172009854e-06
1.93841439881e-08
8.59026264151e-06
5.5386336758e-06
1.58700074972e-05
1.19616973457e-05
7.25956234957e-06
5.02745288121e-08
1.16190629681e-05
7.07900781014e-07
1.16851172698e-05
4.28143414395e-06
3.1378777117e-06
5.82614016449e-08
8.4708284081e-06
1.08790671338e-07
1.50850049191e-07
9.89862293898e-09
9.12675224607e-06
2.22665500073e-07
2.28135610767e-07
1.22558072582e-07
8.43949333814e-06
8.42195190077e-07
1.36900405033e-06
1.42360559309e-06
6.19791435451e-07
5.94561358918e-07
1.87876694029e-07
1.28195981491e-07
5.23460063278e-09
2.25946518719e-07
4.09351671142e-07
2.77717521773e-07
2.41041068263e-09
3.64043870587e-07
1.29403704417e-06
1.25815928539e-08
5.27445997316e-10
9.23627721715e-08

