# vtk DataFile Version 3.0
File Name: Molecule/sphere_excent/sphere_excent_0-s23.vtk
ASCII
DATASET UNSTRUCTURED_GRID
FIELD FieldData 1
TIME 1 1 double
0.0
POINTS 248 double
0.0085017187521 0.84924679995 0.52768665552
-0.45714843273 0.78578090668 0.41626849771
-0.32843831182 0.5995927453 0.72979605198
0.33920761943 -0.60084241629 0.72355425358
0.0064293881878 -0.84850007296 0.52922981977
0.50057685375 -0.80925875902 0.30710414052
0.84453481436 -0.3293839097 0.42122745514
0.85968369246 -0.50587189198 0.055635154247
0.98911201954 -0.1201044023 0.085863284767
0.51823538542 0.72718673944 0.44923195243
0.37082359195 0.57138007879 0.73169612885
0.73057925701 0.34407499433 0.58899438381
-0.86304271221 -0.34441903234 -0.36955246329
-0.83908134699 -0.54253542423 0.029207795858
-0.99063152075 -0.11620276421 0.068471327424
-0.55643332005 -0.7984136939 -0.2290546447
-0.48882582784 -0.82110691071 0.28665366769
-0.0018266881816 -0.99942731857 0.02040171437
-0.88391435146 0.18516603112 0.42853176594
-0.80274808407 -0.32796964049 0.49592852592
0.49683019519 -0.84150642157 -0.20783945918
0.0046869372018 0.99976462126 0.0090112779289
-0.2713342607 0.94529658556 0.18058541417
-0.26050516963 0.94890314341 -0.17834760249
-0.51736652851 0.85568106174 -0.0014893659391
-0.47958603501 0.79821318388 -0.36404246092
0.035531260073 0.91980046034 -0.38895952702
0.2696210146 0.9517647028 -0.14643061161
0.278988868 0.93794482946 0.20529033244
0.45799988508 0.88865327835 0.022043082863
0.41502887011 0.82732355595 -0.37707668543
0.59012854099 0.50809776783 -0.62727576494
0.41937744617 0.70050579309 -0.57711482048
0.61855101585 0.6492099762 -0.4423930347
0.12763768435 0.7925965786 -0.59492784739
0.94680958986 -0.23449920118 -0.22117516398
0.79271954298 -0.40717789531 -0.45226472616
0.87443214655 -0.1178733483 -0.47076845169
0.97380721569 0.0049645900726 -0.22714555264
0.49372413754 -0.033641148359 -0.86898946762
0.42868921161 -0.26605832577 -0.8632979393
0.26609069109 0.015274357051 -0.96379393339
0.17718292773 -0.22893235087 -0.95723086596
0.32806316018 -0.49551746249 -0.80436336994
0.0038318154402 0.051457285881 -0.99790215492
0.68341106176 -0.23512008786 -0.69104218483
0.57523095608 -0.45760118961 -0.6778473258
0.47890105844 -0.67301076651 -0.56374484301
0.67389649153 -0.6442528367 -0.36099559069
0.71239954233 0.35246732831 -0.60679370165
0.74233335257 0.48157843947 -0.4658433795
0.44809928536 0.44355908036 -0.77616864443
0.57659977674 0.32171785831 -0.75095880032
0.40760064125 0.23275914788 -0.88282442093
0.5868986845 0.1385653168 -0.79762589931
0.67988276482 0.2206800431 -0.69932973385
0.82526528835 0.31651422381 -0.46770751476
0.77503693104 0.20411251485 -0.59797888994
0.16422308981 0.37606307864 -0.91191518307
0.08965036273 0.21311219037 -0.97207683325
0.75389444828 -0.054682102054 -0.65463173389
0.018021950498 0.55047303438 0.83458089828
-0.20168028772 0.37899908423 0.90253859758
-0.45102518797 0.33997142315 0.8251978755
-0.59931713343 -0.071877770126 0.79673606157
-0.46910953522 -0.30130401254 0.82964169979
-0.3714928329 -0.084061443806 0.92317998409
-0.24101626873 -0.3067471385 0.91997426748
-0.5956248045 -0.49003091455 0.63583064079
0.93499279022 0.12056140602 0.33281189203
0.96754491329 0.2204567492 0.12272314727
0.84781622887 0.43943095207 0.29684665799
-0.95196676254 0.062175091356 -0.29988533258
-0.757789433 -0.12198112905 -0.6404312849
-0.82069885731 0.20854482055 -0.53198927641
-0.86711615324 0.41308876872 -0.27820277214
-0.96486866474 0.26175904274 0.019543278962
-0.84986799955 0.52692788839 0.0028239744715
-0.66301053762 0.59410965443 -0.45543274283
-0.70644372702 0.68344068527 -0.18428997695
-0.69639867544 0.68920922279 0.19955836236
-0.46264880896 -0.32543176413 -0.82461243868
-0.60727161169 -0.46997499466 -0.64076673985
-0.5920445323 -0.14218911529 -0.79245984554
-0.3497312367 -0.53402000666 -0.76894909143
-0.37995576859 -0.75077843666 -0.53926306963
0.51502835751 0.84296017885 -0.15460331738
0.6665802002 0.71536326408 -0.20907950401
0.65220946074 0.75812619925 0.0048259599134
0.81281769276 0.58223092556 -0.0078020012006
0.71794766188 0.67022156715 0.18829593062
0.5441801548 0.81689268351 0.19108825922
-0.6549860239 0.53992170095 0.52846032381
-0.84535104036 0.46219745278 0.26782563329
0.83018898964 0.45021775365 -0.32853338122
0.7645368576 0.57893902063 -0.28338673711
0.029870992526 -0.51696848869 0.85424655676
0.50700062513 0.27725249529 0.81611132622
-0.0049946857616 0.30550032854 0.9521240592
0.17077326775 0.29533624649 0.93991774321
-0.053705971688 0.12756848335 0.99011766911
0.13839179277 0.13300979137 0.98141682148
0.075226143003 -0.021220948547 0.99630111456
0.29973167181 0.39546594024 0.86817669868
0.34135678411 0.17195667326 0.92411410809
0.51965397596 -0.025348505005 0.85377514362
0.2752200067 -0.020395599306 0.96114873886
0.11012636125 -0.58434468508 -0.80392682552
0.10349112004 -0.4352620542 -0.89422130585
-0.012995343655 -0.91598588228 -0.40018069744
0.22493392229 -0.90926241875 -0.34945642948
0.85563892126 0.13880248368 -0.49852442741
0.80263346434 0.057278420776 -0.59367728233
0.7158395052 0.090843893588 -0.69231396914
0.65020626783 -0.011271443218 -0.75966280699
0.25888937712 -0.67533695698 -0.6906208396
0.098343543708 -0.84486585855 -0.52580070496
0.30157780647 -0.80064415932 -0.51760172844
0.14316560328 -0.75781470537 -0.6363094449
-0.25924086571 -0.89214044809 -0.36975476146
-0.016270823777 -0.76479429007 -0.64397895336
0.077213101089 -0.68881583214 -0.72075802088
-0.052112590522 -0.67832058668 -0.73281866312
-0.17889975011 -0.72054862976 -0.66914844513
-0.042472694069 -0.59211492538 -0.8043487668
-0.13383591175 -0.83403676748 -0.53531861305
-0.15635842085 -0.62297463417 -0.76641374826
-0.12654352188 -0.53214889765 -0.83712202311
-0.013287223876 -0.50451123714 -0.86321812868
-0.73663270473 0.40608334541 -0.54076069593
-0.6576269269 0.28663799167 -0.69677108526
-0.59513348341 0.44220516086 -0.67055618763
-0.6869674325 0.12041565031 -0.71648991108
-0.2899120152 0.5563518405 -0.77841174603
-0.39983925223 0.44837993383 -0.79835349321
-0.48614376783 0.57297062874 -0.6596056819
-0.46682676673 0.27299278975 -0.84105098248
-0.55367273092 0.17334450781 -0.81431877613
-0.53702151775 0.35319769382 -0.76520299911
-0.57230764627 0.041790071875 -0.81896799803
-0.4567860961 0.074457094073 -0.88632369041
-0.39471960068 0.19082215428 -0.89875262976
0.50198370218 -0.30419015884 0.80967289209
0.69262820482 -0.183890149 0.69743043184
0.61393117905 -0.45808267593 0.64258015156
0.82047104836 0.0028941342607 0.57161283493
0.67424672842 0.10802078247 0.73053526878
-0.74435287714 0.072076693177 0.66320204735
-0.54743659496 0.13390764594 0.82595419884
-0.67899227142 0.27856191993 0.67914134264
0.30865937471 -0.3867419064 0.86796325445
0.37075746059 -0.18445789814 0.91020870209
-0.22280284762 -0.44712543488 -0.86625397205
-0.29995885491 -0.35592979193 -0.88493031263
0.19468179345 -0.22616294026 0.95404160023
-0.0057690157555 -0.30933153629 -0.9509100914
-0.14906509221 -0.36558070779 -0.91875183582
-0.036884479225 -0.41377589107 -0.90961712599
-0.11756466329 -0.45222076774 -0.88411182165
-0.22037059069 -0.54298859835 -0.80993258953
-0.26752188802 -0.6372615099 -0.72259873152
0.92209619284 0.083564646542 -0.37719944119
0.91467982531 0.39980065823 0.059512704611
0.98910343647 0.13219757378 -0.060821153224
0.85255777836 0.49143826962 -0.17777581513
0.9393787384 0.17409063876 -0.29531183839
0.96301758289 0.20534832776 -0.17425605655
0.92605745792 0.28668761253 -0.24534164369
0.90209615231 0.26426750422 -0.34106945992
0.93384343386 0.32517671585 -0.14894174039
0.88176453114 0.35173022747 -0.31414714456
0.89375382662 0.39347356558 -0.21535857022
0.90264564753 0.42303475738 -0.079195767641
0.89216738939 0.1969332099 -0.40662238002
0.95731908083 0.28632751107 -0.039189416915
-0.049942173064 -0.16696834564 -0.98468327522
-0.1805896312 -0.24530798197 -0.9524718523
-0.20969608426 -0.11660705507 -0.97074323893
-0.32486233115 -0.24977742136 -0.91197532415
-0.25874459743 0.85126799345 -0.45488464832
-0.069888189435 0.52563738823 -0.84778136015
-0.12830194831 0.62497329712 -0.77004790306
0.010138412006 0.61408054829 -0.78911995888
-0.04211968556 0.72188907862 -0.690736413
-0.22301526368 0.68728727102 -0.69129192829
0.1189115718 0.67405295372 -0.72900551558
-0.071400165558 0.82344406843 -0.56214910746
0.70950484276 -0.69656145573 -0.10580588132
0.83440244198 -0.50536030531 -0.22000661492
0.41264522076 0.58214479685 -0.7005572319
0.26536378264 0.67751950026 -0.6859292388
0.27974176407 0.57194924355 -0.77105087042
0.2997071743 0.4432092011 -0.84474807978
-0.33592998981 0.75661379099 -0.56076604128
-0.47993242741 0.69307219982 -0.53782117367
-0.35945683718 0.65922880173 -0.66048574448
0.14618915319 0.54227763414 -0.82730162144
-0.18485403061 0.77235412598 -0.60762292147
0.036501880735 0.4611646235 -0.88651007414
-0.13296706975 -0.029101563618 -0.9906847477
-0.18172188103 0.08570536226 -0.97961646318
-0.26802480221 -0.010302704759 -0.9633756876
-0.32661890984 0.096802040935 -0.94014018774
-0.33657827973 -0.095940060914 -0.93673759699
-0.39220890403 -0.012466419488 -0.9198024869
-0.46469131112 -0.11980653554 -0.87715083361
-0.50516009331 -0.031222304329 -0.86251401901
-0.65373575687 -0.028604824096 -0.75611484051
-0.28367111087 -0.17238241434 -0.94326704741
-0.38344082236 -0.17769899964 -0.90616816282
-0.095557250082 0.19960226119 -0.97513121367
-0.020872466266 0.3406547308 -0.93991559744
-0.18702037632 0.31253373623 -0.93129372597
-0.2570733726 0.20355634391 -0.94473290443
-0.32834273577 0.30785858631 -0.8928425312
-0.17788341641 0.52456283569 -0.83258378506
-0.25169247389 0.430229038 -0.86681377888
-0.12472462654 0.42301610112 -0.89739638567
-0.16577836871 -0.56871730089 0.80536937714
-0.3546230197 -0.60609453917 0.71206855774
-0.67823731899 -0.60617756844 0.41551584005
-0.43740153313 -0.73012137413 0.52478063107
-0.28706640005 -0.46024346352 0.83995264769
-0.19229356945 -0.17225910723 0.96588605642
-0.16293668747 -0.029085654765 0.98526209593
0.022607816383 -0.12666477263 0.99168747663
0.12717579305 -0.13175871968 0.98300045729
0.079916730523 -0.23390364647 0.96881479025
-0.022848246619 -0.21828046441 0.9755859375
-0.0044915224425 -0.3579761982 0.93375253677
0.10593090206 -0.36845716834 0.92347967625
-0.12010286003 -0.26776832342 0.95586758852
-0.11354609579 -0.41639187932 0.902125597
-0.13348083198 0.2497176677 0.95904678106
-0.32278585434 0.041827645153 0.94532012939
-0.45904564857 0.032131321728 0.88780122995
-0.40878072381 0.1492266655 0.89988052845
-0.28089502454 0.1420301348 0.94886404276
-0.25493013859 0.25294616818 0.9323952198
-0.17800720036 0.13416545093 0.97447448969
-0.041874527931 -0.037834513932 0.99836546183
-0.087461434305 -0.13280110061 0.98724257946
-0.28124901652 -0.73412322998 -0.61793541908
-0.36514937878 -0.64914023876 -0.6668061018
-0.50289297104 0.44327008724 -0.74200624228
-0.44508126378 0.36194545031 -0.81910222769
0.23528167605 -0.31601697206 0.91913062334
0.16780945659 -0.44868046045 0.87727069855

CELLS 492 1968
3 0 1 2
3 3 4 5
3 6 5 7
3 7 8 6
3 9 10 11
3 9 0 10
3 12 13 14
3 13 15 16
3 15 17 16
3 16 17 4
3 18 14 19
3 19 14 13
3 12 15 13
3 20 5 17
3 17 5 4
3 21 22 0
3 0 22 1
3 21 23 22
3 23 24 22
3 23 25 24
3 22 24 1
3 26 23 21
3 27 28 29
3 27 21 28
3 21 27 26
3 26 27 30
3 9 28 0
3 28 21 0
3 31 32 33
3 33 32 30
3 26 30 34
3 7 35 8
3 36 37 35
3 37 38 35
3 35 38 8
3 39 40 41
3 40 42 41
3 40 43 42
3 41 42 44
3 39 45 40
3 45 46 40
3 45 36 46
3 40 46 43
3 47 46 48
3 36 45 37
3 49 31 50
3 51 52 53
3 51 31 52
3 39 53 54
3 52 49 55
3 52 31 49
3 49 56 57
3 58 53 59
3 41 53 39
3 45 60 37
3 2 61 0
3 0 61 10
3 2 62 61
3 2 63 62
3 64 65 66
3 65 67 66
3 65 64 68
3 8 69 6
3 8 70 69
3 70 71 69
3 69 71 11
3 11 71 9
3 14 72 12
3 12 72 73
3 74 72 75
3 72 76 75
3 72 14 76
3 75 76 77
3 25 78 79
3 78 75 79
3 79 75 77
3 18 76 14
3 25 79 24
3 24 79 80
3 74 73 72
3 81 82 83
3 81 84 82
3 73 82 12
3 12 82 15
3 15 82 85
3 30 86 87
3 86 88 87
3 86 29 88
3 87 88 89
3 89 88 90
3 88 91 90
3 88 29 91
3 90 91 9
3 29 86 27
3 27 86 30
3 9 91 28
3 28 91 29
3 30 87 33
3 89 90 71
3 71 90 9
3 1 92 2
3 2 92 63
3 1 80 92
3 80 93 92
3 80 77 93
3 92 93 18
3 77 80 79
3 24 80 1
3 56 50 94
3 50 95 94
3 50 33 95
3 33 50 31
3 49 50 56
3 3 96 4
3 18 93 76
3 76 93 77
3 89 95 87
3 87 95 33
3 10 97 11
3 62 98 61
3 98 99 61
3 100 101 98
3 100 102 101
3 98 101 99
3 99 103 61
3 61 103 10
3 10 103 97
3 103 104 97
3 103 99 104
3 97 104 105
3 99 101 104
3 101 106 104
3 101 102 106
3 104 106 105
3 107 108 43
3 43 108 42
3 109 110 17
3 110 20 17
3 46 47 43
3 55 54 52
3 52 54 53
3 111 57 56
3 49 57 55
3 111 112 57
3 112 113 57
3 112 60 113
3 57 113 55
3 60 112 37
3 37 112 111
3 55 113 54
3 113 114 54
3 113 60 114
3 54 114 39
3 39 114 45
3 114 60 45
3 43 115 107
3 109 116 110
3 116 117 110
3 116 118 117
3 110 117 20
3 20 117 47
3 117 115 47
3 117 118 115
3 47 115 43
3 15 119 17
3 119 109 17
3 118 120 121
3 120 122 121
3 120 123 122
3 107 121 124
3 125 119 85
3 125 109 119
3 85 119 15
3 123 126 122
3 126 124 122
3 126 127 124
3 122 124 121
3 108 107 128
3 118 121 115
3 115 121 107
3 123 120 125
3 116 120 118
3 109 125 116
3 116 125 120
3 74 129 130
3 129 131 130
3 129 78 131
3 78 129 75
3 129 74 75
3 74 132 73
3 133 134 135
3 135 131 78
3 136 137 138
3 137 132 130
3 137 139 132
3 130 132 74
3 140 137 141
3 105 142 143
3 142 144 143
3 142 3 144
3 143 144 6
3 6 144 5
3 5 144 3
3 6 145 143
3 145 146 143
3 145 11 146
3 143 146 105
3 64 147 19
3 147 18 19
3 64 148 147
3 148 149 147
3 148 63 149
3 147 149 18
3 18 149 92
3 149 63 92
3 11 145 69
3 69 145 6
3 150 142 151
3 150 3 142
3 151 142 105
3 152 84 153
3 105 146 97
3 97 146 11
3 154 151 106
3 106 151 105
3 42 108 155
3 156 157 158
3 157 128 158
3 157 108 128
3 158 128 127
3 156 158 152
3 159 152 127
3 158 127 152
3 152 159 84
3 84 159 160
3 126 159 127
3 127 128 124
3 124 128 107
3 111 161 37
3 37 161 38
3 70 162 71
3 162 89 71
3 38 163 8
3 163 70 8
3 89 164 95
3 95 164 94
3 38 165 166
3 165 167 166
3 165 168 167
3 166 167 169
3 168 170 167
3 170 171 167
3 170 94 171
3 167 171 169
3 94 170 56
3 56 170 168
3 169 171 172
3 171 164 172
3 171 94 164
3 172 164 89
3 168 173 56
3 56 173 111
3 111 173 161
3 173 165 161
3 173 168 165
3 161 165 38
3 38 166 163
3 166 174 163
3 166 169 174
3 163 174 70
3 70 174 162
3 174 172 162
3 174 169 172
3 162 172 89
3 42 175 44
3 42 155 175
3 155 176 175
3 155 156 176
3 175 176 177
3 176 153 178
3 176 156 153
3 178 153 81
3 81 153 84
3 152 153 156
3 156 155 157
3 157 155 108
3 23 26 179
3 180 181 182
3 181 183 182
3 181 184 183
3 182 183 185
3 184 181 133
3 185 183 34
3 183 186 34
3 34 186 26
3 32 34 30
3 20 187 5
3 187 7 5
3 36 188 48
3 188 187 48
3 188 7 187
3 48 187 20
3 186 179 26
3 23 179 25
3 7 188 35
3 35 188 36
3 51 189 31
3 31 189 32
3 32 189 190
3 189 191 190
3 189 51 191
3 190 191 185
3 58 192 53
3 192 51 53
3 25 193 194
3 193 195 194
3 193 184 195
3 194 195 135
3 58 196 192
3 196 191 192
3 196 185 191
3 192 191 51
3 36 48 46
3 47 48 20
3 135 195 133
3 133 195 184
3 25 194 78
3 78 194 135
3 186 197 179
3 197 193 179
3 197 184 193
3 179 193 25
3 185 196 182
3 180 182 198
3 184 197 183
3 183 197 186
3 32 190 34
3 34 190 185
3 44 199 200
3 199 201 200
3 199 177 201
3 200 201 202
3 177 203 201
3 203 204 201
3 203 205 204
3 201 204 202
3 202 204 140
3 204 206 140
3 204 205 206
3 140 206 139
3 207 139 83
3 206 83 139
3 206 205 83
3 207 83 73
3 73 83 82
3 81 83 205
3 139 207 132
3 132 207 73
3 137 140 139
3 177 199 175
3 175 199 44
3 177 208 203
3 208 209 203
3 208 178 209
3 203 209 205
3 205 209 81
3 81 209 178
3 178 208 176
3 176 208 177
3 44 59 41
3 41 59 53
3 44 210 59
3 210 211 59
3 210 212 211
3 59 211 58
3 202 141 213
3 141 214 213
3 141 136 214
3 213 214 212
3 133 215 216
3 215 217 216
3 215 180 217
3 216 217 212
3 212 217 211
3 217 198 211
3 217 180 198
3 211 198 58
3 212 214 216
3 133 216 134
3 134 216 214
3 58 198 196
3 196 198 182
3 180 215 181
3 181 215 133
3 212 210 213
3 200 210 44
3 202 213 200
3 200 213 210
3 136 141 137
3 140 141 202
3 96 218 4
3 4 218 219
3 16 220 13
3 13 220 19
3 16 221 220
3 221 68 220
3 221 219 68
3 220 68 19
3 219 221 4
3 4 221 16
3 219 222 65
3 65 222 67
3 19 68 64
3 65 68 219
3 67 223 66
3 66 223 224
3 102 225 226
3 225 227 226
3 225 228 227
3 226 227 154
3 228 229 227
3 229 230 227
3 229 96 230
3 227 230 154
3 228 231 229
3 231 232 229
3 231 67 232
3 229 232 96
3 96 232 218
3 232 222 218
3 232 67 222
3 218 222 219
3 62 233 98
3 233 100 98
3 66 234 235
3 234 236 235
3 234 237 236
3 235 236 148
3 237 238 236
3 63 238 62
3 62 238 233
3 238 239 233
3 238 237 239
3 233 239 100
3 100 239 224
3 224 239 234
3 237 234 239
3 234 66 224
3 224 240 100
3 100 240 102
3 102 226 106
3 106 226 154
3 102 240 225
3 240 241 225
3 240 224 241
3 225 241 228
3 228 241 231
3 241 223 231
3 241 224 223
3 231 223 67
3 123 242 160
3 242 243 160
3 242 85 243
3 160 243 84
3 84 243 82
3 243 85 82
3 85 242 125
3 125 242 123
3 123 160 126
3 126 160 159
3 131 138 130
3 130 138 137
3 134 244 135
3 244 131 135
3 134 245 244
3 245 138 244
3 245 136 138
3 244 138 131
3 148 236 63
3 63 236 238
3 66 235 64
3 64 235 148
3 154 246 151
3 246 150 151
3 150 247 3
3 3 247 96
3 96 247 230
3 247 246 230
3 247 150 246
3 230 246 154
3 136 245 214
3 214 245 134

CELL_TYPES 492
5
5
5
5
5
5
5
5
5
5
5
5
5
5
5
5
5
5
5
5
5
5
5
5
5
5
5
5
5
5
5
5
5
5
5
5
5
5
5
5
5
5
5
5
5
5
5
5
5
5
5
5
5
5
5
5
5
5
5
5
5
5
5
5
5
5
5
5
5
5
5
5
5
5
5
5
5
5
5
5
5
5
5
5
5
5
5
5
5
5
5
5
5
5
5
5
5
5
5
5
5
5
5
5
5
5
5
5
5
5
5
5
5
5
5
5
5
5
5
5
5
5
5
5
5
5
5
5
5
5
5
5
5
5
5
5
5
5
5
5
5
5
5
5
5
5
5
5
5
5
5
5
5
5
5
5
5
5
5
5
5
5
5
5
5
5
5
5
5
5
5
5
5
5
5
5
5
5
5
5
5
5
5
5
5
5
5
5
5
5
5
5
5
5
5
5
5
5
5
5
5
5
5
5
5
5
5
5
5
5
5
5
5
5
5
5
5
5
5
5
5
5
5
5
5
5
5
5
5
5
5
5
5
5
5
5
5
5
5
5
5
5
5
5
5
5
5
5
5
5
5
5
5
5
5
5
5
5
5
5
5
5
5
5
5
5
5
5
5
5
5
5
5
5
5
5
5
5
5
5
5
5
5
5
5
5
5
5
5
5
5
5
5
5
5
5
5
5
5
5
5
5
5
5
5
5
5
5
5
5
5
5
5
5
5
5
5
5
5
5
5
5
5
5
5
5
5
5
5
5
5
5
5
5
5
5
5
5
5
5
5
5
5
5
5
5
5
5
5
5
5
5
5
5
5
5
5
5
5
5
5
5
5
5
5
5
5
5
5
5
5
5
5
5
5
5
5
5
5
5
5
5
5
5
5
5
5
5
5
5
5
5
5
5
5
5
5
5
5
5
5
5
5
5
5
5
5
5
5
5
5
5
5
5
5
5
5
5
5
5
5
5
5
5
5
5
5
5
5
5
5
5
5
5
5
5
5
5
5
5
5
5
5
5
5
5
5
5
5
5
5
5
5
5
5
5
5
5
5
5
5
5
5
5
5
5
5
5
5
5
5
5
5
5
5
5
5
5
5
5
5
5
5
5
5
5
5
5
5
5
5
5

CELL_DATA 492
SCALARS cell_data_0 double
LOOKUP_TABLE default
2.12986969349e-05
2.72831590981e-05
6.77264301741e-07
3.88392149135e-06
2.28780674322e-05
2.68846531924e-05
2.76102289001e-05
2.28064060636e-05
1.32903717247e-05
1.55202167802e-05
1.87873068033e-05
7.73064234502e-06
3.07193435541e-05
1.16031659124e-05
1.10230059749e-05
2.44874264803e-06
7.48041907252e-06
1.07901449018e-06
4.02017866998e-06
2.42345892586e-06
4.51113759531e-06
2.8214656327e-05
2.78644397083e-06
4.70552179091e-07
2.59742265072e-05
1.7441226681e-05
1.43440837684e-05
1.24645507011e-06
1.99806216135e-07
5.33005356766e-07
1.83889734866e-05
6.99279266803e-06
9.33589499219e-07
1.32002084816e-06
1.65489341536e-06
1.83934488847e-06
6.98156132623e-07
2.08468783548e-06
1.42517928059e-06
1.98183940397e-06
7.73964575287e-08
5.01548499341e-08
1.17968463394e-06
6.259879578e-08
1.01127272797e-07
9.56646714389e-07
4.89718232476e-05
1.85880492393e-05
2.12822135672e-05
2.81343176595e-05
1.81869610811e-05
2.84124793919e-07
2.79204806992e-05
2.87975584931e-05
1.43782281698e-05
1.41540916301e-05
1.882142175e-05
2.62519789206e-05
1.98719160187e-05
2.17828579077e-05
2.11743623963e-05
1.84957979872e-05
9.69968503181e-06
3.79998208631e-06
4.32734513578e-06
9.49936332072e-06
1.52263579296e-05
5.26252020051e-07
1.21201469654e-06
1.97676238702e-06
6.45942626523e-07
1.90238131491e-06
3.62198584503e-06
2.73951170745e-06
3.58651022075e-06
7.87003055687e-06
6.89691138274e-06
2.11305231879e-08
6.86698964377e-07
1.01441744402e-06
1.8871868821e-07
6.94431902627e-09
4.04772495751e-07
2.21442087741e-06
1.52730793398e-06
6.78390831972e-07
8.9108863176e-07
1.22332920453e-06
4.74242789776e-07
8.10575186779e-07
1.31919779262e-06
1.31492218534e-06
3.33359072247e-06
1.48594559749e-06
1.05195940675e-06
4.87904263875e-06
2.34665640273e-06
8.25091304579e-08
2.48853300583e-06
6.74194976011e-06
1.57824108908e-05
1.38587956761e-05
3.95793802892e-06
4.65929606059e-06
3.02334114087e-06
8.316721977e-06
6.81532291288e-06
1.25087417502e-06
1.7315816889e-06
8.54343337848e-07
1.46023333249e-06
1.53567030649e-06
1.58366970615e-06
1.27408741764e-05
4.54937034233e-06
1.64560607217e-06
1.65208347728e-07
2.01152584491e-07
1.8888142073e-05
3.17818662894e-05
3.04780559168e-05
1.01115923938e-05
1.08413655058e-05
1.17935638681e-05
2.98875680074e-05
2.8693410601e-05
1.12940874802e-05
9.53604041555e-06
1.21695060769e-05
2.07381301006e-05
1.26563945418e-05
1.05426076211e-05
1.14816272121e-05
2.17338088433e-05
4.0344342862e-05
1.7934912437e-06
1.29086306313e-05
4.24651916431e-06
9.03696652022e-07
2.81441458059e-05
4.93558995697e-05
7.96805439027e-06
6.17936538688e-06
4.72144299249e-06
1.26674267889e-07
5.40239332358e-06
5.48066668632e-06
9.01065717832e-06
7.94999972211e-06
6.68580588955e-06
1.00726797474e-07
6.41088756821e-06
1.09217124569e-06
1.42602889288e-06
1.05063416041e-05
4.30280973896e-05
6.68399972713e-06
3.79940432204e-07
2.66054355779e-05
1.16805571342e-06
1.30860695607e-06
2.53913889868e-07
2.82888694733e-05
9.06058164654e-07
4.72592072075e-06
1.32261277358e-05
1.6805450166e-05
2.8626898542e-08
1.86740242671e-05
1.83222205239e-05
5.94884735834e-07
6.75433639209e-06
1.1024902662e-06
1.62310336439e-05
2.94986703076e-08
1.08264873369e-09
1.68116428845e-08
2.01926620769e-05
1.88656679161e-05
2.27131858147e-05
2.64541910951e-05
2.13725640342e-05
6.12520845112e-06
2.15892677409e-07
1.16321679362e-05
1.85328095698e-05
7.09642705394e-06
7.10063314835e-07
1.86053672498e-07
6.69281146599e-06
1.471710861e-05
1.90833593345e-05
1.3135948741e-05
2.51679850638e-05
1.14417137769e-05
2.02543193072e-05
2.94036501273e-06
1.19663001265e-05
1.37309574359e-05
4.33389376215e-06
8.67306067167e-06
1.16718569522e-05
5.50405230047e-06
1.740258699e-05
5.47818453153e-07
6.9393290553e-06
1.76937339203e-05
1.88454206016e-05
1.616333423e-05
9.11010135057e-06
9.49506442353e-06
6.66613287411e-06
8.18017101702e-06
1.33111384474e-05
1.12591831506e-05
2.89226730902e-06
1.07331588338e-05
1.72045252491e-05
1.98165772202e-05
2.06075245231e-05
1.81164193304e-07
1.65404683695e-05
9.64437332487e-06
1.54442789984e-05
1.78465178302e-05
2.72147163317e-07
5.31449335366e-08
9.55773653404e-08
1.40231392158e-07
1.09099352086e-07
5.18165543419e-08
2.54613036711e-07
3.03413805629e-08
3.75771793918e-07
1.65194397657e-05
2.37292287037e-07
8.6939213956e-08
1.50976619922e-05
1.01085009987e-05
2.82591201688e-07
2.33814200087e-06
1.67462149712e-06
1.24061160674e-06
1.74545056171e-06
1.63978495946e-07
1.03075715646e-08
3.30178069313e-07
3.59738824701e-09
4.10517466277e-06
3.00586696303e-06
3.35142580619e-06
2.95767559057e-08
2.69761720862e-10
2.80484030507e-06
3.82393167491e-07
6.42836177099e-06
3.39948769774e-06
4.94392934906e-09
2.99272736658e-10
1.38348969218e-07
6.10250918543e-06
5.88534938106e-06
4.31086949806e-06
1.48208139564e-07
3.76464149905e-06
2.68758215038e-08
5.5516208683e-07
2.26760846072e-07
3.83452115644e-06
6.77024953082e-07
7.09540065599e-07
1.77438589716e-07
3.95354352067e-06
1.09887601885e-07
9.07274488471e-07
1.90630757279e-07
7.19431416757e-10
6.23378041102e-08
1.57173682124e-05
1.00053828736e-07
1.95172011984e-07
1.11766130971e-07
3.0492167064e-07
1.43500097691e-07
5.48786498452e-08
3.74515661119e-08
1.52877516952e-05
1.27300974918e-07
1.80890807999e-09
7.951944612e-08
7.57966326053e-08
2.12312455875e-07
6.19700716106e-08
1.52343790962e-07
7.93737100045e-06
3.6311573982e-07
4.02725369455e-06
6.01529128662e-06
8.68414271563e-08
7.32210991037e-07
3.00405611957e-06
1.1145988212e-06
9.59657698915e-06
1.55238807489e-07
3.92445339698e-06
1.0023678058e-06
5.15399396057e-08
6.88826861913e-08
5.73140592296e-08
2.39645342828e-09
3.38464872287e-08
7.53992206329e-08
2.05878211734e-05
1.37447377754e-05
1.56965744481e-07
2.23935546274e-09
8.04923640096e-08
3.28490267644e-06
1.46048533649e-06
6.99024100258e-09
8.3117228405e-08
3.27876048553e-08
4.18332055511e-07
8.3596879175e-07
3.9682587101e-06
2.19320284653e-07
5.74454347723e-07
5.95565526156e-06
2.76971869327e-08
1.27992224808e-07
8.57731883126e-08
4.00239719662e-07
7.66384128254e-08
5.37165094549e-06
9.08009439674e-08
7.22080138444e-08
2.80257417862e-09
6.10126805153e-08
2.10349899673e-07
1.10405404605e-08
1.08382819212e-05
6.25751928831e-06
1.0220553225e-05
4.68290256175e-09
4.64174952158e-09
5.70004131909e-06
5.54612081281e-06
1.34955259704e-08
4.07105742095e-09
8.85446888921e-07
1.15934950664e-06
1.19682337047e-06
5.66716038171e-09
2.75536362067e-08
2.40569744728e-07
8.04808597077e-11
4.35602959214e-06
2.87393854186e-06
5.02411877268e-06
1.44974219182e-05
2.37381390998e-07
7.28666799962e-06
9.32830361182e-09
1.16542882959e-08
3.39561395929e-09
1.28427590094e-08
1.72607107938e-08
1.47802144927e-08
9.45153089032e-06
6.20013827331e-07
2.66632568284e-05
2.90981059431e-07
1.00721223422e-08
1.33079406977e-05
1.56342116613e-06
5.95908687367e-06
3.76779551873e-09
6.28812994158e-06
9.71876948422e-06
8.15444093669e-08
8.24734327131e-10
9.58751407127e-08
9.52372488001e-06
1.05754712487e-05
5.37228058781e-06
5.02192321747e-06
9.25244922002e-06
1.11846883667e-05
4.5559940118e-06
4.38073255373e-06
9.47741493817e-06
6.41067853151e-06
9.88451709765e-08
8.31926615087e-08
1.10980872251e-05
2.47197627458e-07
6.87539451246e-06
1.69270917235e-08
1.22850955228e-05
6.02544381459e-06
1.07120015341e-05
1.82025555657e-05
1.59602470406e-05
7.26808789605e-06
2.20601033947e-06
9.89111996461e-06
2.97647043691e-06
8.22280869753e-07
1.45789257383e-05
5.20852253159e-06
1.14010229396e-05
1.70258874301e-05
1.92918663711e-05
1.74200644119e-05
2.28519908873e-05
2.55967991473e-05
9.5523707449e-06
4.61540634225e-08
8.03133234037e-07
5.9187756187e-06
1.23171437101e-06
3.12001904513e-06
8.63072703737e-06
7.81462787258e-06
4.21487975853e-07
3.85915978448e-06
1.00517520365e-05
1.32001980564e-05
8.55704977436e-06
1.13809294964e-05
5.5177102534e-06
1.77736341271e-06
1.48808865375e-05
1.55353028082e-05
6.36290703608e-06
2.65196491883e-06
7.93039927453e-06
8.37555777586e-06
9.55507567147e-06
6.32159609596e-06
7.40996560754e-06
4.93170492268e-06
8.68504472315e-06
1.31191232871e-05
1.84681358577e-05
2.11676987461e-05
7.49438573122e-06
1.86147293602e-05
1.88917713587e-05
1.90368395155e-05
2.12675878775e-05
1.90041886318e-05
1.10277584721e-05
3.21229629812e-06
1.18083234655e-05
1.28553608097e-06
2.69229209344e-06
5.93329965796e-07
1.1743902715e-05
8.7824190923e-06
7.86516626972e-05
3.72445682072e-05
1.53293804988e-05
1.36573106645e-05
1.78204890635e-08
2.38686848814e-07
2.22679014693e-05
5.87037041163e-05
4.05375037507e-05
1.26290206726e-05
1.28110951713e-05
1.61652988699e-05
8.01860946277e-06
7.07771332592e-06
2.10959743034e-06
1.02699800419e-08
4.00481960754e-06
1.87817305351e-06
1.66744483991e-05
3.02541289487e-06
1.25232370041e-05
4.61943289337e-06
1.23271900048e-05
1.23391664621e-05
1.4760241174e-05
5.8683382171e-06
4.31795843146e-06
3.82140055432e-07
7.02123827226e-06
6.2633750058e-06
5.33953934266e-06
2.82915762496e-06

