# vtk DataFile Version 3.0
File Name: Molecule/sphere_excent/sphere_excent_0-s8.vtk
ASCII
DATASET UNSTRUCTURED_GRID
FIELD FieldData 1
TIME 1 1 double
0.0
POINTS 73 double
-8.4448474809e-05 0.85110658407 0.52492970228
-0.52239817381 0.76442265511 0.37590521574
-0.31484144926 0.50814503431 0.79894202948
-0.81016218662 0.30411195755 0.50102835894
-0.84947425127 0.52748537064 2.3354357836e-05
-0.3086463511 -0.51621645689 0.79702454805
3.2477214518e-06 -0.85065251589 0.52572864294
0.30867007375 -0.49998161197 0.80910271406
0.014429065399 -0.0052544432692 0.99889427423
0.52538996935 -2.6676309062e-05 0.85084807873
0.80776488781 -0.30980831385 0.50136232376
0.50000691414 -0.80892449617 0.30893668532
0.85137575865 -0.52457869053 7.871404523e-05
0.27915340662 -0.54413408041 -0.79084819555
-0.00098145019729 -0.85139173269 -0.52469223738
-0.30874460936 -0.49960410595 -0.80932170153
-0.04713197425 0.025219632313 -0.99800872803
-0.52693724632 -0.00010597408982 -0.84995108843
0.99837774038 0.0018702022498 0.055167026818
0.80893909931 0.3060786128 0.50200724602
0.85049515963 0.52600872517 -0.00054655678105
0.52182018757 0.76874446869 0.36898204684
0.32123804092 0.50152641535 0.80088293552
-0.80887055397 -0.30917179585 -0.49993741512
-0.8102787137 0.3042165637 -0.500852108
-0.99990397692 4.4071181037e-05 1.8053040549e-05
-0.85064959526 -0.52573311329 -9.0044483159e-07
3.8319456507e-05 0.85087525845 -0.52535009384
-0.31139209867 0.49669629335 -0.81030553579
-0.52219754457 0.76526492834 -0.37575340271
-0.49997597933 -0.80891358852 -0.30898469687
-0.49992668629 -0.80912655592 0.30867907405
3.6318738239e-06 -0.99989658594 3.1639090594e-05
-0.80872768164 -0.30920553207 0.50008016825
-0.53875380754 -0.00046757402015 0.84039860964
0.49934056401 -0.80950683355 -0.30885565281
0.80608326197 -0.35340535641 -0.47330099344
0.24026840925 0.48644211888 -0.83825409412
0.0057189390063 0.99982607365 9.4088667538e-05
-0.27112045884 0.94757986069 0.16887499392
-0.27099841833 0.94772601128 -0.16857397556
-0.53253948689 0.846329391 8.9493434643e-05
0.50330650806 0.80404424667 -0.31620040536
0.52866643667 0.84874302149 0.0082469573244
0.27361980081 0.94879722595 -0.15810588002
0.27721530199 0.94596356153 0.16778165102
0.8201572299 0.31032586098 -0.47871822119
0.68776994944 0.58115965128 -0.43501392007
0.58343148232 0.45031768084 -0.67532134056
0.4237883985 0.6794230938 -0.59880363941
0.95229095221 -0.16347153485 -0.25790289044
0.86110568047 -0.034805953503 -0.50635826588
0.95481306314 0.15190735459 -0.25583925843
0.53544646502 0.011680309661 -0.84450680017
0.43490868807 -0.25661632419 -0.86312544346
0.27598568797 0.0030670897104 -0.96098458767
0.1526914835 -0.2675537467 -0.95126926899
0.68455702066 -0.18604966998 -0.70482134819
0.57980519533 -0.44075080752 -0.68504589796
0.71039789915 0.35608741641 -0.60686278343
0.43877863884 0.45497569442 -0.7747400403
0.42447161674 0.25301861763 -0.86927318573
0.57596206665 0.24572652578 -0.77936315536
0.70310938358 0.16828916967 -0.69079965353
0.83797872066 0.14621718228 -0.52556985617
0.72279393673 0.0035623242147 -0.69082397223
-0.43383765221 0.25540700555 0.8639934063
0.00043970858678 0.52267926931 0.85256540775
-0.15872092545 0.26314771175 0.95166426897
0.16172553599 0.26274681091 0.95122033358
-0.27589124441 -0.00040075418656 0.9612172842
-0.43468374014 -0.25777286291 0.86286014318
-0.16055014729 -0.26499009132 0.95069015026

CELLS 142 568
3 0 1 2
3 1 3 2
3 1 4 3
3 5 6 7
3 8 7 9
3 9 7 10
3 7 11 10
3 7 6 11
3 10 11 12
3 13 14 15
3 16 15 17
3 12 18 10
3 18 19 10
3 18 20 19
3 10 19 9
3 20 21 19
3 21 22 19
3 21 0 22
3 19 22 9
3 17 23 24
3 23 25 24
3 23 26 25
3 24 25 4
3 27 28 29
3 28 24 29
3 28 17 24
3 29 24 4
3 26 30 31
3 30 32 31
3 30 14 32
3 31 32 6
3 26 31 33
3 31 5 33
3 31 6 5
3 34 3 33
3 3 25 33
3 3 4 25
3 33 25 26
3 17 15 23
3 15 30 23
3 15 14 30
3 23 30 26
3 14 35 32
3 35 11 32
3 35 12 11
3 32 11 6
3 36 12 35
3 13 35 14
3 16 28 37
3 16 17 28
3 37 28 27
3 38 39 0
3 0 39 1
3 38 40 39
3 40 41 39
3 40 29 41
3 39 41 1
3 29 40 27
3 27 40 38
3 1 41 4
3 41 29 4
3 42 43 20
3 20 43 21
3 42 44 43
3 44 45 43
3 44 38 45
3 43 45 21
3 38 44 27
3 27 44 42
3 21 45 0
3 45 38 0
3 46 47 20
3 20 47 42
3 48 49 47
3 47 49 42
3 42 49 27
3 49 37 27
3 36 50 12
3 12 50 18
3 36 51 50
3 51 52 50
3 50 52 18
3 18 52 20
3 52 46 20
3 53 54 55
3 54 56 55
3 54 13 56
3 55 56 16
3 16 56 15
3 15 56 13
3 53 57 54
3 57 58 54
3 57 36 58
3 54 58 13
3 13 58 35
3 35 58 36
3 55 16 37
3 36 57 51
3 46 59 47
3 59 48 47
3 48 60 49
3 60 37 49
3 37 60 61
3 60 62 61
3 60 48 62
3 61 62 53
3 53 62 63
3 62 59 63
3 62 48 59
3 63 59 64
3 51 64 52
3 64 46 52
3 46 64 59
3 64 65 63
3 64 51 65
3 63 65 53
3 37 61 55
3 55 61 53
3 53 65 57
3 57 65 51
3 34 66 3
3 3 66 2
3 2 67 0
3 0 67 22
3 2 68 67
3 68 69 67
3 68 8 69
3 67 69 22
3 2 66 68
3 66 70 68
3 66 34 70
3 68 70 8
3 22 69 9
3 69 8 9
3 34 71 70
3 71 72 70
3 71 5 72
3 70 72 8
3 8 72 7
3 7 72 5
3 5 71 33
3 33 71 34

CELL_TYPES 142
5
5
5
5
5
5
5
5
5
5
5
5
5
5
5
5
5
5
5
5
5
5
5
5
5
5
5
5
5
5
5
5
5
5
5
5
5
5
5
5
5
5
5
5
5
5
5
5
5
5
5
5
5
5
5
5
5
5
5
5
5
5
5
5
5
5
5
5
5
5
5
5
5
5
5
5
5
5
5
5
5
5
5
5
5
5
5
5
5
5
5
5
5
5
5
5
5
5
5
5
5
5
5
5
5
5
5
5
5
5
5
5
5
5
5
5
5
5
5
5
5
5
5
5
5
5
5
5
5
5
5
5
5
5
5
5
5
5
5
5
5
5

CELL_DATA 142
SCALARS cell_data_0 double
LOOKUP_TABLE default
3.14889430433e-05
8.436760277e-06
0.000222805811937
7.49540591691e-05
0.000107674393105
6.44208628015e-05
4.71804673694e-05
4.3078659258e-05
1.87506078063e-05
4.60832577566e-05
5.11473896797e-05
1.40506289158e-05
2.85266807689e-05
0.000279443196427
5.11440739353e-05
0.000243232121747
4.15873496061e-05
4.11942337798e-05
6.75470764693e-05
0.000232690647366
0.000177115151542
4.20676416199e-05
0.000281875669563
9.79947940321e-05
0.000123886861026
0.000169248599208
0.000300412141224
4.28634510594e-06
8.23069480957e-06
2.23173565916e-05
3.63276550558e-06
8.55196457312e-06
5.04610956453e-05
3.92182519396e-05
1.56356915431e-05
1.79487771804e-05
0.000200325321945
4.00355013584e-06
9.2043622698e-05
4.60307153687e-05
3.95818994548e-05
4.07637255411e-05
3.26040187301e-05
7.85375191298e-06
2.7746787346e-06
1.01218503759e-05
1.41552733005e-05
2.95271474579e-05
4.03036213604e-06
2.993603116e-05
8.38833027373e-05
4.57402870681e-06
3.82279261507e-06
5.15800993412e-07
1.56620393221e-06
1.86146633679e-06
1.69024700004e-07
6.38023325587e-05
5.288333804e-05
7.57338698683e-05
7.18116009018e-05
0.000202306432599
0.000192745191458
6.15612626536e-07
1.73254768058e-06
1.88646909464e-06
4.59759715941e-06
4.52237711705e-05
3.87785595804e-05
1.22962099564e-05
4.93991653786e-06
0.000190162768649
0.000187756588357
2.45176317037e-07
3.54193511197e-07
4.49829070194e-05
5.35084677452e-05
5.20069824946e-06
1.58132505078e-06
1.46910924993e-06
7.80461399758e-07
2.68640211877e-06
0.000185126731274
0.000182204018943
2.92921931723e-05
5.96746630855e-09
6.75727042192e-07
1.09525591838e-06
1.21531788699e-05
1.0379013191e-05
2.8417869853e-05
2.40155281638e-09
1.30101007357e-06
6.9311570392e-07
3.03708012053e-06
4.41246998428e-06
1.47191642865e-06
1.87185161551e-06
1.54467191893e-07
1.12093355883e-07
3.12344497075e-07
2.65858501963e-07
3.66137679649e-08
9.70351102036e-09
3.3456342743e-08
1.63853143867e-05
1.63547712357e-05
3.6179516888e-10
3.942725093e-08
2.15795565631e-08
2.39875313577e-07
3.92149581662e-07
2.27741588665e-09
2.31401933997e-09
1.97115779468e-07
1.54987162825e-05
1.35756888177e-07
2.70710472809e-05
1.79734079259e-05
2.10820075474e-07
3.82061004433e-05
2.57702997269e-06
2.74456697982e-05
3.68817948691e-05
2.12065990383e-05
2.65525979614e-06
7.91447866807e-05
2.99103794647e-05
1.67632480681e-05
3.54542210367e-06
1.71907717989e-06
7.15316028679e-05
8.51465274433e-05
0.000123661185052
2.87620983386e-06
7.63869717252e-07
1.8550320973e-05
6.84115943089e-05
0.000155431857633
9.89235217403e-05
4.01831000969e-05
1.73897986744e-05

