# vtk DataFile Version 3.0
File Name: Molecule/sphere_excent/sphere_excent_0-s10.vtk
ASCII
DATASET UNSTRUCTURED_GRID
FIELD FieldData 1
TIME 1 1 double
0.0
POINTS 89 double
0.00040511786938 0.85036736727 0.52604460716
-0.5256870389 0.75787776709 0.38551086187
-0.32654866576 0.52749562263 0.78246772289
-0.81099390984 0.30227345228 0.50077217817
-0.83592903614 0.54478549957 0.024143841118
-0.30894038081 -0.54355120659 0.77947294712
0.00051240040921 -0.8513444066 0.52469474077
0.30824923515 -0.50030106306 0.80911171436
0.038416035473 -0.0145744849 0.99860811234
0.52496469021 0.00049430504441 0.8511081934
0.80724596977 -0.31019002199 0.50212472677
0.50002002716 -0.80891788006 0.30893597007
0.85154443979 -0.524345994 0.0014691906981
0.26498529315 -0.56387341022 -0.78201287985
-0.0028758780099 -0.85276645422 -0.5225045085
-0.29177311063 -0.51423096657 -0.80367004871
0.99713844061 -0.028813764453 0.0565864034
0.78760778904 0.30330148339 0.53350251913
0.52187150717 0.75736743212 0.38842350245
0.34416869283 0.5077983737 0.78779572248
-0.81791353226 -0.30760392547 -0.48297542334
-0.85043257475 -0.52612262964 9.0092886239e-05
-0.99752706289 -0.030142843723 0.017739983276
-0.00033077629632 0.85050815344 -0.52593004704
-0.31481340528 0.49644777179 -0.80896878242
-0.4999704361 0.77268332243 -0.3869331181
-0.52161508799 0.017526552081 -0.85028833151
-0.7955827117 0.28336903453 -0.53267943859
-0.50026893616 -0.80869960785 -0.30925291777
-0.49977591634 -0.80977272987 0.30729970336
-1.9759843781e-05 -0.99989682436 0.00012773215713
-0.80812543631 -0.31043446064 0.50040280819
-0.56010705233 -0.0017298237653 0.82658040524
0.49861177802 -0.81030923128 -0.30806574225
0.80770462751 -0.37070941925 -0.4576497376
-0.067046485841 0.03538293764 -0.99636471272
0.21645572782 0.48598748446 -0.84496665001
0.0036861291155 0.99989974499 0.00045565707842
-0.27419355512 0.94609409571 0.17211687565
-0.27335605025 0.94653081894 -0.1711808145
-0.53659409285 0.84368222952 -0.00043601886136
0.2739341557 0.94887167215 -0.15684171021
0.27859291434 0.94471335411 0.1718941927
0.51670295 0.85518932343 0.01302285213
0.49876844883 0.80282580853 -0.32343646884
0.82725667953 0.32425272465 -0.45513194799
0.68675339222 0.58210581541 -0.43536362052
0.8469504118 0.52696186304 -0.026971112937
0.58287137747 0.46583592892 -0.66534674168
0.41952085495 0.67893594503 -0.60239732265
0.95317751169 -0.16697503626 -0.25230520964
0.8657694459 -0.051951099187 -0.49739950895
0.95601987839 0.15041738749 -0.25210741162
0.53701591492 0.011107939295 -0.84346288443
0.43407654762 -0.25753781199 -0.86331355572
0.27402037382 0.0066308537498 -0.96155536175
0.1363440901 -0.274415344 -0.9504070282
-0.42461243272 -0.25218841434 -0.86763143539
0.68369817734 -0.19543622434 -0.70311063528
0.57756024599 -0.44947123528 -0.681183815
0.71375900507 0.34925445914 -0.6071395874
0.43930906057 0.45109274983 -0.77679389715
0.42481127381 0.24750202894 -0.87074881792
0.57654380798 0.26102438569 -0.77416020632
0.70207041502 0.16977322102 -0.69151628017
0.83462584019 0.14778478444 -0.53073167801
0.72933185101 0.0032897652127 -0.68403369188
-0.4361794889 0.25239115953 0.86363857985
0.0014069569297 0.5237865448 0.85177063942
-0.15437740088 0.26653239131 0.95141977072
0.16426452994 0.26531070471 0.95006561279
-0.28013849258 -0.00098512717523 0.95999461412
-0.4369648993 -0.25684830546 0.86192411184
-0.15637525916 -0.27067962289 0.94974917173
0.94313800335 0.15690587461 0.29265594482
0.96227765083 0.27036470175 0.038075871766
0.86195957661 0.43403634429 0.26159867644
-0.94940423965 0.14485450089 -0.2715844214
-0.69764405489 -0.14677557349 -0.69878470898
-0.8643104434 0.43154931068 -0.25838208199
-0.96048027277 0.27812361717 7.2599592386e-05
-0.69104641676 0.55878800154 -0.4582247436
-0.71398591995 0.67023009062 -0.20258124173
-0.58772033453 -0.42693403363 -0.6871561408
0.52911412716 0.83435225487 -0.15437577665
0.69514673948 0.6966124177 -0.17613056302
0.69899374247 0.71516090631 -0.00017066532746
0.71415561438 0.67455989122 0.18549734354
0.54078722 0.81864857674 0.19226677716

CELLS 174 696
3 0 1 2
3 1 3 2
3 1 4 3
3 5 6 7
3 8 7 9
3 9 7 10
3 7 11 10
3 7 6 11
3 10 11 12
3 13 14 15
3 12 16 10
3 10 17 9
3 18 19 17
3 18 0 19
3 17 19 9
3 20 21 22
3 23 24 25
3 24 26 27
3 21 28 29
3 28 30 29
3 28 14 30
3 29 30 6
3 21 29 31
3 29 5 31
3 29 6 5
3 32 3 31
3 3 22 31
3 31 22 21
3 15 14 28
3 20 28 21
3 14 33 30
3 33 11 30
3 33 12 11
3 30 11 6
3 34 12 33
3 13 33 14
3 35 24 36
3 35 26 24
3 36 24 23
3 37 38 0
3 0 38 1
3 37 39 38
3 39 40 38
3 39 25 40
3 38 40 1
3 25 39 23
3 23 39 37
3 1 40 4
3 41 42 43
3 41 37 42
3 37 41 23
3 23 41 44
3 18 42 0
3 42 37 0
3 45 46 47
3 48 49 46
3 46 49 44
3 44 49 23
3 49 36 23
3 34 50 12
3 12 50 16
3 34 51 50
3 51 52 50
3 50 52 16
3 52 45 47
3 53 54 55
3 54 56 55
3 54 13 56
3 55 56 35
3 35 56 57
3 15 56 13
3 53 58 54
3 58 59 54
3 58 34 59
3 54 59 13
3 13 59 33
3 33 59 34
3 55 35 36
3 34 58 51
3 45 60 46
3 60 48 46
3 48 61 49
3 61 36 49
3 36 61 62
3 61 63 62
3 61 48 63
3 62 63 53
3 53 63 64
3 63 60 64
3 63 48 60
3 64 60 65
3 51 65 52
3 65 45 52
3 45 65 60
3 65 66 64
3 65 51 66
3 64 66 53
3 36 62 55
3 55 62 53
3 53 66 58
3 58 66 51
3 32 67 3
3 3 67 2
3 2 68 0
3 0 68 19
3 2 69 68
3 69 70 68
3 69 8 70
3 68 70 19
3 2 67 69
3 67 71 69
3 67 32 71
3 69 71 8
3 19 70 9
3 70 8 9
3 32 72 71
3 72 73 71
3 72 5 73
3 71 73 8
3 8 73 7
3 7 73 5
3 5 72 31
3 31 72 32
3 16 74 10
3 74 17 10
3 16 75 74
3 75 76 74
3 75 47 76
3 74 76 17
3 17 76 18
3 22 77 20
3 20 77 78
3 27 77 79
3 77 80 79
3 77 22 80
3 79 80 4
3 27 81 24
3 24 81 25
3 25 81 82
3 81 79 82
3 81 27 79
3 82 79 4
3 4 80 3
3 3 80 22
3 25 82 40
3 40 82 4
3 47 75 52
3 52 75 16
3 15 57 56
3 35 57 26
3 26 78 27
3 27 78 77
3 26 57 78
3 57 83 78
3 57 15 83
3 78 83 20
3 20 83 28
3 28 83 15
3 44 84 85
3 84 86 85
3 84 43 86
3 85 86 47
3 47 86 87
3 86 88 87
3 86 43 88
3 87 88 18
3 43 84 41
3 41 84 44
3 18 88 42
3 42 88 43
3 44 85 46
3 46 85 47
3 47 87 76
3 76 87 18

CELL_TYPES 174
5
5
5
5
5
5
5
5
5
5
5
5
5
5
5
5
5
5
5
5
5
5
5
5
5
5
5
5
5
5
5
5
5
5
5
5
5
5
5
5
5
5
5
5
5
5
5
5
5
5
5
5
5
5
5
5
5
5
5
5
5
5
5
5
5
5
5
5
5
5
5
5
5
5
5
5
5
5
5
5
5
5
5
5
5
5
5
5
5
5
5
5
5
5
5
5
5
5
5
5
5
5
5
5
5
5
5
5
5
5
5
5
5
5
5
5
5
5
5
5
5
5
5
5
5
5
5
5
5
5
5
5
5
5
5
5
5
5
5
5
5
5
5
5
5
5
5
5
5
5
5
5
5
5
5
5
5
5
5
5
5
5
5
5
5
5
5
5
5
5
5
5
5
5

CELL_DATA 174
SCALARS cell_data_0 double
LOOKUP_TABLE default
1.23864112144e-05
2.35884253793e-05
0.000153286602206
6.85566109774e-05
8.51260430822e-05
5.91050708204e-05
4.53983816039e-05
4.47737239834e-05
1.76574984219e-05
8.04260659598e-05
1.33757570386e-05
4.88735402051e-05
1.08084785089e-05
3.77820392195e-05
7.82000300477e-05
7.29398876025e-06
6.87052721599e-05
2.12978939022e-05
1.63975942582e-05
3.8580805e-06
2.57555467143e-05
5.54707270441e-06
3.86042770186e-06
4.72206245637e-05
3.55098732846e-05
3.68281652012e-05
2.90480255952e-05
5.86351609028e-06
6.99981083548e-05
2.14923319145e-05
2.28475049086e-05
1.04368790733e-05
1.41803531755e-06
1.09289129329e-05
1.16468954013e-05
4.28553610047e-05
1.52465703834e-05
3.10222832162e-05
8.79028313511e-05
3.85456603279e-06
2.87678317273e-05
5.09026341687e-06
2.75893885178e-07
4.41323155126e-07
2.10988031751e-05
4.82406398152e-05
5.95492969089e-05
0.000119399396437
2.33533151089e-06
1.69182333261e-06
5.1163166217e-05
3.47461830277e-05
1.15780990408e-06
1.77317708605e-06
0.000162793629228
2.72371193545e-07
3.75039521155e-07
3.98203131696e-05
6.28571437727e-05
5.06718930353e-06
1.41067487641e-06
1.48588475038e-06
7.81016328138e-07
2.74553432049e-06
0.000159794742483
2.97813829837e-05
1.08045691583e-08
4.65789920051e-06
2.69652302263e-06
5.84354103857e-06
3.14281014325e-05
2.81000195893e-05
1.44592477408e-07
1.11845574226e-06
4.40763740667e-06
9.51863818004e-06
3.26690171903e-06
9.89350624978e-06
1.81902278682e-06
2.28908518885e-07
1.55681935864e-07
4.86632846296e-07
2.52353201547e-06
1.48668309019e-06
6.17859278999e-08
7.24139923751e-08
1.70710526637e-05
1.68092852077e-05
7.35357963201e-08
2.23993706589e-08
1.56987406421e-07
4.08438362689e-07
5.72304181243e-07
1.09478748041e-07
3.80033804631e-08
2.41705348359e-07
1.62249940134e-05
2.16718006895e-06
2.67398907842e-05
1.93861357084e-05
2.81128996077e-07
4.12136403037e-05
3.48929393139e-05
3.05106393845e-05
3.82921679268e-05
3.82375699011e-05
2.07402034407e-05
8.82681865343e-05
3.21910211741e-05
4.07158532409e-05
4.99368522586e-05
3.53600808914e-05
8.70589835081e-05
9.01647384461e-05
0.000123059213263
1.91938764673e-05
9.61005571491e-07
2.62423106107e-05
8.19572557661e-05
0.000125848600671
0.000100234347001
3.12322825636e-05
1.27946751558e-05
5.62258825466e-05
0.000124743584645
4.65775360897e-05
4.72927396608e-05
0.000101116745049
8.13590622612e-05
3.00610337948e-05
7.92977030527e-07
6.9093073576e-06
2.60416438869e-06
5.68027337232e-07
1.09499744389e-06
2.7354003711e-05
6.54374082695e-07
3.64288741705e-07
6.93693711147e-07
7.31239552964e-07
5.55235484676e-07
3.06605653219e-05
3.69197908914e-05
9.29697524571e-06
4.57842001571e-07
3.45044598881e-05
0.000119488133322
1.37230897517e-06
1.59050457462e-05
1.96409697441e-05
1.41179049374e-05
6.14392986147e-06
9.20698493046e-06
1.26147186924e-06
8.76927547701e-06
1.32828174653e-06
2.38405181849e-06
1.99008883572e-05
2.89893160853e-07
1.44658861791e-08
4.90417132131e-07
5.54068943455e-05
6.03256081409e-05
3.52529504166e-08
6.23517865218e-07
1.7730822281e-06
8.47774841791e-07
6.37256377707e-07
1.33238522494e-06
1.26394071973e-06
7.569049248e-07
9.59397687838e-05
9.38901685365e-05
6.39221554219e-07

