# vtk DataFile Version 3.0
File Name: Molecule/sphere_excent/sphere_excent_0-s29.vtk
ASCII
DATASET UNSTRUCTURED_GRID
FIELD FieldData 1
TIME 1 1 double
0.0
POINTS 366 double
0.33751362562 -0.63022786379 0.69929331541
0.000731686363 -0.85203403234 0.52355986834
0.50025248528 -0.8100669384 0.30518054962
0.85108369589 -0.3295173943 0.40842488408
0.86702895164 -0.49165377021 0.077169135213
0.9863396287 -0.13512611389 0.094695828855
0.52306210995 0.70883750916 0.47158193588
0.40728342533 0.56542646885 0.71603834629
0.71793931723 0.36253973842 0.59373122454
-0.53853559494 -0.81961393356 -0.19105093181
-0.0014363958035 -0.99929285049 0.030501576141
-0.46334919333 -0.85222840309 0.23993931711
-0.90192371607 0.15618076921 0.4019536376
-0.9883274436 -0.13364453614 0.072701230645
-0.83312219381 -0.28816723824 0.47169035673
-0.84056085348 -0.52823764086 0.10692875087
0.47282370925 -0.86311304569 -0.17635963857
0.0082173002884 0.99956589937 0.019551837817
-0.27003541589 0.94542783499 0.18182228506
-0.0061454055831 0.88168913126 0.47035050392
-0.40511339903 0.80555135012 0.42747327685
-0.25686356425 0.952706635 -0.16257974505
-0.5168774724 0.85589468479 -0.00016867363593
-0.48794004321 0.80890476704 -0.32813194394
-0.55933994055 0.77489328384 0.2901981473
0.04065426439 0.93725401163 -0.34577864408
0.26364922523 0.9551473856 -0.13438309729
0.27192279696 0.93257588148 0.23569843173
0.45095944405 0.89218562841 0.026386409998
0.38669857383 0.84086549282 -0.37828594446
0.22755025327 0.75162577629 0.61795836687
0.5864636302 0.54458940029 -0.59943854809
0.42253533006 0.71006900072 -0.56328237057
0.57915604115 0.66745984554 -0.46744590998
0.16574074328 0.80530959368 -0.56899124384
0.93926542997 -0.27875426412 -0.19296710193
0.23320664465 -0.01871496439 -0.97156763077
0.15565827489 -0.20446515083 -0.96560692787
0.031734559685 0.030421705917 -0.99895966053
0.68083238602 -0.63989394903 -0.35663065314
0.49809342623 -0.67404723167 -0.54544818401
0.68599176407 -0.46966141462 -0.55523514748
0.62624263763 0.31354418397 -0.71381175518
0.70227450132 0.3318130374 -0.62945497036
0.68086439371 0.21610821784 -0.69972485304
0.67863428593 -0.22836436331 -0.69802975655
0.75582170486 -0.089315883815 -0.64847558737
0.75762969255 -0.29846388102 -0.58002644777
-0.61692458391 -0.13547174633 0.77489304543
-0.46180301905 -0.33250677586 0.82224786282
-0.37967422605 -0.13403993845 0.91528564692
-0.27812945843 -0.30529209971 0.91073280573
-0.60121017694 -0.47555878758 0.64187145233
0.93586522341 0.11347058415 0.3326511085
0.96768897772 0.21103724837 0.13789255917
0.84308540821 0.44276931882 0.30522534251
0.63981127739 0.68817645311 0.33301100135
-0.95588439703 0.04633673653 -0.29027485847
-0.87469542027 -0.31334784627 -0.36920931935
-0.79123169184 -0.12616682053 -0.59822922945
-0.83449548483 0.19185088575 -0.51672196388
-0.87084656954 0.40405863523 -0.27968871593
-0.9684368372 0.24790857732 0.024531820789
-0.85700201988 0.5129801631 -0.027345485985
-0.66802501678 0.60064858198 -0.43942090869
-0.70764070749 0.68466067314 -0.174172014
-0.68775260448 0.69669240713 0.20338350534
-0.77284610271 0.62923258543 0.070549994707
-0.46964454651 -0.34555265307 -0.81230860949
-0.65248847008 -0.43573373556 -0.61886125803
-0.60844123363 -0.19257871807 -0.76970434189
-0.50634902716 -0.53365951777 -0.67624694109
0.49135395885 0.85299891233 -0.17386329174
0.6060552001 0.72962254286 -0.31443157792
0.52804154158 0.82647305727 0.1906683147
0.065688274801 -0.56745219231 0.82069337368
-0.85619956255 0.4230748117 0.29328522086
0.51116681099 0.28733852506 0.81005966663
-0.012110524811 0.32011967897 0.94726145267
0.16628220677 0.33052814007 0.92855125666
0.027276782319 0.52919465303 0.84786510468
-0.03677238524 0.12337101251 0.99169445038
0.14999857545 0.14880229533 0.97739034891
0.08912550658 0.0045387060381 0.99599301815
0.20562878251 0.57756739855 0.78998410702
0.32319101691 0.40029972792 0.85735023022
0.3435202539 0.17884257436 0.92199075222
0.51227420568 -0.027710938826 0.85819190741
0.2816580832 -0.019234741107 0.95928168297
-0.014593718573 -0.93177735806 -0.36186185479
0.21680787206 -0.92124682665 -0.32280531526
0.3786419332 -0.45824858546 -0.80414277315
0.5446242094 -0.49481323361 -0.676469028
0.36704778671 -0.59267240763 -0.71682661772
0.85832691193 0.12976740301 -0.49619197845
0.77661699057 0.20485770702 -0.59571808577
0.83734458685 0.28339409828 -0.46705880761
0.80289059877 0.045051310211 -0.59427028894
0.71725529432 0.084900461137 -0.69160759449
0.86945587397 -0.13287353516 -0.47471234202
0.59891748428 0.09604203701 -0.79509168863
0.65049612522 -0.01611283794 -0.75933343172
0.51938265562 -0.030942644924 -0.8538441062
0.60378068686 -0.13801559806 -0.78506147861
0.05912309885 -0.86770176888 -0.49354961514
0.3293620646 -0.81184238195 -0.48150965571
0.29201388359 -0.7081374526 -0.64236289263
-0.26448887587 -0.89916980267 -0.34859660268
0.14662441611 -0.73807370663 -0.65861427784
-0.0047362684272 -0.77715158463 -0.62923657894
0.062952712178 -0.68346649408 -0.72727572918
-0.052333451807 -0.68400073051 -0.72757703066
-0.12938794494 -0.72674113512 -0.67448461056
0.096201464534 -0.59202724695 -0.80014318228
-0.022052075714 -0.6032192111 -0.79726475477
-0.097475916147 -0.85955923796 -0.50171500444
-0.24761641026 -0.81564623117 -0.5226137042
-0.43463110924 -0.77049165964 -0.46551731229
-0.12365166098 -0.60991680622 -0.78273457289
-0.11960766464 -0.53582185507 -0.83577215672
0.19776190817 -0.6479665041 -0.73546141386
-0.75739347935 0.40223497152 -0.51438105106
-0.6876835227 0.31883642077 -0.65231877565
-0.65558630228 0.43540072441 -0.61676365137
-0.72959220409 0.078980989754 -0.67874217033
-0.38102859259 0.18852138519 -0.90515893698
-0.46681052446 0.090381614864 -0.87971687317
-0.48899313807 0.19841568172 -0.84935235977
0.51572036743 -0.31789919734 0.79569649696
0.67628067732 -0.23666746914 0.69785368443
0.6136225462 -0.48286885023 0.62468981743
-0.75811803341 0.040091209114 0.65037733316
-0.58419185877 0.13574412465 0.80029731989
-0.70323389769 0.23492190242 0.67037910223
0.85276204348 0.024090278894 0.52179306746
0.34396246076 -0.3852365911 0.85629105568
0.37516111135 -0.19546459615 0.9061255455
-0.21984817088 -0.46025156975 -0.86008650064
-0.36516949534 -0.5046646595 -0.78221642971
-0.29830080271 -0.38037991524 -0.8753080368
0.64574205875 0.13838982582 0.75081461668
0.22809669375 -0.19296424091 0.95431029797
0.093018315732 -0.39539071918 -0.9136506319
-0.01363494806 -0.29499033093 -0.95535135269
-0.14784802496 -0.37005245686 -0.91716873646
-0.030354980379 -0.40762254596 -0.91263145208
-0.10925780982 -0.45564314723 -0.88340383768
0.0022565824911 -0.50618433952 -0.86238068342
-0.22283031046 -0.55105251074 -0.80417305231
-0.26629710197 -0.61189031601 -0.74473255873
0.9246365428 0.056139349937 -0.37642619014
0.91002982855 0.40616565943 0.080575183034
0.77652806044 0.61857056618 0.10798248649
0.97688746452 -0.0050352215767 -0.20872789621
0.99365645647 0.10468657315 -0.040109828115
0.94230812788 0.16048519313 -0.29361656308
0.96877002716 0.18864792585 -0.16096524894
0.92806762457 0.27897012234 -0.24667590857
0.89506089687 0.27077135444 -0.35423496366
0.93677741289 0.31900733709 -0.14375758171
0.88208550215 0.35476514697 -0.30983653665
0.8942528367 0.39393308759 -0.21244545281
0.84280729294 0.4375923872 -0.31289541721
0.83675861359 0.37732419372 -0.3965806067
0.90215146542 0.42543125153 -0.072179153562
0.84731656313 0.49836212397 -0.18344657123
0.81968313456 0.57205826044 0.0028346939944
0.89693319798 0.18256242573 -0.40269741416
0.96042782068 0.27744886279 -0.024790821597
-0.041105303913 -0.1527017653 -0.9874073863
-0.17400442064 -0.24537655711 -0.95366168022
-0.19875633717 -0.12006200105 -0.97266936302
-0.32095956802 -0.27049279213 -0.90755623579
-0.24161045253 0.87499588728 -0.4191172421
-0.070789188147 0.53280639648 -0.8432713747
-0.12914149463 0.62345409393 -0.77110278606
0.017071567476 0.60776299238 -0.79392582178
-0.037264965475 0.72991842031 -0.68249440193
-0.22689947486 0.68832826614 -0.68893516064
0.13082809746 0.67268431187 -0.72825485468
-0.28290390968 0.57717001438 -0.76594758034
-0.049591001123 0.8402274251 -0.53959566355
0.70644283295 -0.70197099447 -0.088868767023
0.81568813324 -0.3945979774 -0.42241555452
0.83238983154 -0.51179659367 -0.21288020909
0.41038909554 0.59854596853 -0.68801915646
0.27865260839 0.68208408356 -0.67606210709
0.28076931834 0.57273095846 -0.77016526461
0.39469504356 0.48550060391 -0.78000116348
-0.33746835589 0.7681761384 -0.54394876957
-0.49292460084 0.6963146925 -0.52135276794
-0.36590790749 0.65985918045 -0.65623521805
-0.47407916188 0.60394054651 -0.64045107365
0.15523639321 0.40365117788 -0.90156930685
0.15045331419 0.53632903099 -0.83048439026
0.28614512086 0.4449878931 -0.84859162569
-0.40201506019 0.55328369141 -0.7295036912
-0.56684046984 0.53223234415 -0.62725615501
-0.1851246506 0.7858953476 -0.58994412422
0.030987137929 0.46935802698 -0.88245952129
-0.12365309894 -0.032146759331 -0.99178737402
-0.17505702376 0.091457106173 -0.980255723
-0.25863581896 -0.010261205025 -0.96592891216
-0.32509097457 0.092090845108 -0.94118100405
-0.3329744935 -0.098138183355 -0.93779188395
-0.40453714132 -0.010948280804 -0.91442936659
-0.47567644715 -0.13930948079 -0.86837136745
-0.53035622835 -0.035717841238 -0.84696936607
-0.57493370771 0.056612975895 -0.81623059511
-0.65677011013 -0.028611570597 -0.75349700451
-0.64179283381 0.12191554904 -0.75703388453
-0.56130903959 0.1551425308 -0.81292527914
-0.28022581339 -0.1827493757 -0.94235008955
-0.38217326999 -0.1938508302 -0.90338772535
-0.078929975629 0.20127943158 -0.97633463144
0.075938791037 0.19419068098 -0.97794872522
-0.0053617591038 0.33243191242 -0.94310325384
-0.17684704065 0.31712773442 -0.93175166845
-0.25022673607 0.2033918947 -0.94659423828
-0.33048918843 0.31796446443 -0.88861572742
-0.43303921819 0.25413092971 -0.86478054523
-0.18249924481 0.52139890194 -0.83338695765
-0.33837914467 0.4701102376 -0.8151345253
-0.10907809436 0.42913934588 -0.89659398794
[...]
CELL_DATA 728
SCALARS cell_data_0 double
LOOKUP_TABLE default
1.91344937227e-05
7.41874921291e-06
1.25182525897e-07
1.6886139727e-05
1.08592267259e-05
5.27770416143e-06
1.43896038087e-05
9.80143050427e-06
1.00529905091e-05
7.09615559995e-07
1.14609651815e-06
2.63421625957e-06
2.59806848912e-06
3.72253270933e-06
1.45890862644e-06
4.03342264043e-06
4.29872625648e-06
3.05047936907e-06
2.95853676819e-06
3.64061429138e-06
4.6418433346e-06
1.30522885646e-05
1.27253547072e-06
6.44427137797e-05
5.06216650081e-05
7.13027061435e-06
5.57444116336e-05
1.53167770773e-05
6.27655258796e-07
5.6362831047e-07
4.76806667997e-07
1.35111446841e-05
9.659297882e-06
1.34663616597e-05
7.28972300046e-06
2.22366281117e-06
1.04111741467e-05
5.23643928541e-07
7.95386439449e-06
2.33737005577e-06
0.000105870653542
3.19459693212e-05
0.000157276114744
8.81759318915e-05
9.24622082779e-05
0.000111616040058
0.000175198892303
5.82415096415e-05
6.78794441278e-05
3.35207123425e-05
1.04630862374e-06
9.4202526719e-05
0.000160210683529
0.00012734852828
0.000253832373824
1.17806053785e-05
7.187865817e-06
1.37017094692e-05
2.24457949755e-05
2.78990719985e-05
3.66871440465e-05
1.58350127541e-05
1.24482470204e-05
1.02429914596e-05
1.07353374914e-05
8.91361056156e-06
1.32167585161e-05
1.01461861583e-05
9.42396388626e-06
9.49075467551e-06
1.63954098239e-05
9.56175214834e-06
9.71283778348e-06
1.21307082929e-05
1.52110601704e-05
3.00797749604e-06
3.13578202858e-06
3.79603473022e-07
1.4522689147e-06
2.37740923961e-07
1.0342675226e-07
5.05502671119e-06
6.04968203439e-06
5.79663003198e-06
4.43002074767e-06
3.83610818149e-06
6.60755577967e-06
1.00288782178e-05
1.45560664148e-05
9.34090438047e-06
4.25603650303e-06
8.31125195858e-06
1.44632544073e-05
1.76026243238e-05
2.06444918361e-05
1.11729825349e-05
2.13673245218e-05
1.00373871907e-05
2.50835145318e-05
9.93390601614e-06
1.08206071081e-05
3.52028015042e-06
9.12017264511e-06
6.2749836972e-06
9.98691558086e-06
1.97450704008e-06
2.36456224089e-05
2.09387642497e-06
5.50816520818e-06
6.74751249295e-06
2.46084287373e-05
1.17426867596e-05
5.86142104358e-05
0.000163522890536
7.50256599525e-05
4.30193090148e-05
1.17226340555e-08
1.22947439522e-05
7.19646322984e-06
1.41390132846e-05
1.22503178331e-05
1.84283832926e-05
1.90214121198e-05
1.576937833e-05
1.45079354773e-05
1.29739680235e-05
7.46621754884e-06
8.6730688208e-06
9.43382923633e-06
7.52389381942e-06
8.43428461227e-06
1.20236665058e-05
1.28755952318e-05
2.47325672589e-07
1.32633921915e-05
1.07713934032e-05
7.66008560329e-06
1.37484100496e-05
1.88013215866e-06
2.81899990884e-07
4.73696357946e-07
4.96258460639e-07
3.23773930192e-07
2.36558345529e-07
2.65399522704e-07
2.59180049613e-07
3.4556569351e-07
7.4905640631e-06
1.12815318838e-07
3.35590938293e-06
3.2564274697e-06
4.45401614864e-06
1.07835626298e-05
1.12816710472e-05
1.83327089933e-06
2.11001910957e-07
1.0070089409e-06
1.54679956339e-07
1.97887010325e-07
2.21917717329e-07
1.8637612859e-07
2.76469641739e-07
2.03835650895e-07
2.95873105225e-07
1.28845853548e-07
4.05782190383e-07
3.25353082617e-07
1.42369917265e-07
1.80689539605e-06
8.38283124526e-07
1.15322411035e-06
2.03903074908e-08
4.01782070375e-08
5.63446011678e-08
7.7268817493e-07
1.093294068e-06
4.12150929146e-07
3.60014414216e-07
6.06681731883e-07
6.70824926384e-07
8.08916999577e-07
5.50667318244e-07
1.32263561853e-06
1.00827421162e-05
1.78159251008e-06
1.977092661e-07
1.68351948086e-07
1.85003534659e-07
1.08555732093e-07
1.40393949463e-07
2.14772211251e-05
2.96219955395e-05
1.83056032376e-07
3.28325670617e-07
3.50217532963e-07
1.43445978802e-06
3.04800604647e-07
5.53562882083e-07
4.90141746488e-07
1.94905651883e-07
2.43340257019e-07
4.5333789658e-07
3.27973334262e-07
2.44867329351e-06
3.84922519499e-05
4.57202636814e-06
3.62325095136e-06
1.72887379078e-06
1.38173938914e-06
7.97290991039e-07
1.87010754543e-06
1.47197410785e-06
2.19588954227e-06
3.59074187526e-05
3.47439167941e-05
4.00750670152e-05
1.37959348132e-05
1.23637892908e-07
1.54585769973e-07
8.463196205e-08
1.58657507719e-06
2.52106359298e-07
1.33235300147e-07
1.63121992561e-07
3.88754819512e-07
1.08668226438e-07
6.12115355161e-08
1.4981901882e-07
1.47820580067e-06
5.89004560527e-08
6.82562060312e-08
3.5807347505e-05
2.27868311773e-05
2.63546547158e-07
2.76577733412e-07
9.23120657838e-08
1.8671974138e-06
9.57377661283e-08
6.21619012238e-08
1.2900700462e-07
2.41679729658e-08
2.13558929021e-05
2.87974066634e-07
3.36214188926e-06
9.12360971965e-08
6.40882715059e-08
1.75448218134e-07
4.24046111541e-08
1.34351849649e-08
1.26718386379e-07
8.51265334411e-08
7.20100902202e-08
2.84346493158e-08
1.15628536954e-07
1.03924933378e-06
9.08890950772e-08
1.05399230311e-06
1.29400806994e-07
3.2549305181e-05
0.000193944190428
3.53458888057e-05
5.87098447566e-06
2.70084309515e-05
9.37330957658e-07
1.24219762799e-07
3.42687076536e-06
4.73873532031e-08
1.57409277788e-08
3.04263406303e-08
1.17544196233e-07
2.3707116594e-05
1.88174849087e-05
6.75430216726e-08
1.00930843754e-07
3.76599296505e-06
1.26862163617e-07
2.2521269832e-07
9.03542023834e-08
2.1420948663e-08
8.84760785121e-10
9.94957955733e-08
6.99240664946e-08
3.2792477485e-08
4.84343802963e-09
7.78090117523e-08
1.36962223072e-07
7.10386311578e-09
5.63911718153e-09
3.18187645942e-07
7.54282742226e-08
3.96036369325e-08
3.71562885207e-08
2.76620933911e-07
7.61240754401e-08
1.81652340603e-07
1.58907766367e-07
1.78934621959e-07
4.38787706151e-06
2.00415840648e-07
1.46222158876e-07
7.26655884406e-08
2.2397113144e-05
2.13284587862e-05
8.82244660653e-06
9.61694817228e-06
6.4983202035e-06
7.58550494679e-06
8.44929260642e-06
9.1333439976e-06
1.75018963984e-05
1.22712009724e-05
8.7442504406e-06
7.52288643811e-06
1.85214485489e-05
1.15786823612e-05
7.05447921475e-06
7.45724078643e-06
1.32606850237e-05
1.266663843e-05
1.02618231884e-05
9.88577042955e-06
8.8515867679e-06
1.11587309105e-05
1.51233632566e-05
1.24443527778e-05
1.13452074344e-05
2.80429018152e-06
7.63476967426e-06
1.63162659463e-05
1.50371868704e-05
1.10567527533e-05
1.35335335706e-05
6.65038437347e-06
1.79614327721e-05
2.22961368525e-05
8.95362744488e-06
1.71892709076e-05
5.79228062021e-06
1.51334648546e-06
6.43253120503e-06
1.47690547957e-05
9.10724585025e-06
3.83356483536e-07
9.03024516953e-06
1.66213540565e-05
1.92267228985e-05
1.66435544365e-05
9.07593217022e-06
2.28291985265e-05
1.95623371511e-05
1.85623335358e-05
1.5951122009e-05
1.18209158264e-05
1.49116560855e-05
1.00989613719e-05
1.6201717553e-05
1.17626120472e-05
1.15776126114e-05
1.3113721553e-05
1.54045353964e-05
1.38682999509e-05
1.15213593176e-05
3.60034557127e-06
1.93447956243e-05
1.25534025786e-05
1.30565647306e-05
1.38657806359e-05
1.38573185325e-05
1.49948557578e-05
8.54676470255e-06
6.92074806928e-07
5.1228565535e-06
9.17421862546e-06
1.3508833517e-05
1.14010322369e-05
1.17098294176e-05
3.36714671214e-06
7.84613010854e-06
2.23755494002e-07
5.04490285519e-07
1.03214740309e-05
9.0160888559e-06
7.55248445609e-06
2.6541823277e-06
6.04766003407e-06
4.05254157047e-06
8.33072445992e-08
3.45167211205e-06
3.71409418533e-06
3.81973496443e-06
3.3826544619e-06
5.52410270561e-06
5.27510798699e-06
1.24563610904e-06
9.84076449444e-07
1.46250604061e-05
1.44559669624e-05
1.40050693068e-08
1.14242958914e-08
3.18026526948e-06
3.65895324134e-06
2.48066093486e-06
2.0763516038e-08
4.7244717745e-06
3.44440695312e-06
3.54746127221e-06
6.2301909638e-06
1.02581813127e-05
8.95804063972e-06
4.24024310647e-06
1.32901487065e-07
7.29888215036e-08
4.82937426379e-06
4.30383764459e-08
1.13966293193e-08
3.84384560537e-09
2.88706628437e-06
7.79015125636e-09
5.8006484102e-08
3.40023869721e-06
7.11050750228e-06
1.11503209133e-05
2.62771447484e-08
5.43528739155e-08
1.35454860859e-07
1.6476087771e-05
4.12936619068e-08
3.18285538172e-08
1.42676598747e-08
3.90709275588e-06
5.47679767916e-06
8.42231077748e-06
1.8173244548e-06
6.16272203177e-07
3.14191389222e-06
4.88428172262e-06
8.53999216771e-06
7.33691421292e-06
1.23896558879e-05
1.08070425476e-05
1.17262523681e-05
5.32290335282e-06
8.50784050542e-06
7.79668214846e-06
4.60281587228e-06
4.77387114427e-06
5.98094980057e-06
4.22970288864e-06
9.86443366258e-09
1.9663753799e-08
8.22532950961e-08
7.11296712093e-06
1.59289473686e-05
1.26169840716e-06
2.9167720368e-06
6.39209361041e-06
1.41446357879e-06
7.24680665655e-06
3.66943884719e-06
1.9903656431e-06
1.38083213328e-06
1.97109369199e-06
1.48344164347e-06
2.85144920078e-06
3.02266876564e-06
1.72884457809e-06
5.92797782433e-09
3.62752166241e-06
1.72338827708e-06
1.79590882445e-06
1.98380203397e-08
2.16634055772e-08
3.90557839568e-06
3.99402131828e-06
1.0745329477e-06
4.17621532902e-06
1.49406534844e-06
1.75114750314e-08
3.71915597002e-06
6.53391004695e-06
1.19790335075e-06
1.11378969672e-05
8.1594567053e-06
1.09678920255e-05
1.12844057055e-05
2.62307572009e-06
2.7676349099e-06
5.86096260284e-06
4.48409721205e-06
1.30855385954e-06
1.67975366995e-06
1.73810555436e-06
1.63982386239e-06
4.08224149242e-06
2.27315814694e-07
4.84381416566e-08
2.64907318863e-06
2.43397045579e-06
4.19728070294e-07
2.69083978621e-06
1.61261098876e-06
5.65785403815e-07
7.89826357693e-07
4.36406425116e-06
6.81766478656e-06
5.00116418457e-06
8.14036312862e-06
8.75423561608e-06
9.62927319768e-06
7.30984198545e-06
9.11906988133e-06
8.22113609239e-06
5.86417238057e-06
3.96258556294e-06
3.78074875357e-06
5.63822569371e-06
8.40075831131e-06
1.04021246903e-05
2.00302936542e-06
9.12697429024e-05
8.18902776506e-06
6.08748828898e-06
8.38204936127e-06
9.35619017938e-06
2.91708312673e-06
5.88874979776e-06
1.45080400536e-06
1.15858077604e-07
9.27089983779e-08
3.11211925053e-06
9.10075368636e-06
1.60016641655e-06
1.08483056233e-06
4.49999754051e-06
5.62017684373e-06
1.26615573809e-05
9.38484669231e-06
8.01964278538e-06
3.8437114843e-06
3.91243684429e-06
7.96640239533e-06
7.56991514162e-06
1.83667337812e-05
5.86160504367e-06
1.57679205525e-05
3.2875874479e-07
3.26471985484e-06
5.85173323719e-06
1.49074256579e-06
6.58343510207e-07
3.97922842543e-07
7.84272409887e-07
3.2719498794e-06
2.65605919292e-06
1.05936088559e-05
7.91867797483e-06
1.43904177321e-06
1.96084547238e-05
1.53309253009e-06
1.50382322137e-06
1.24583479128e-07
4.96101478816e-06
1.48881000914e-07
2.45087763229e-08
1.58204377482e-06
3.85491472432e-06
1.20035087957e-05
3.11326028023e-06
1.96804500269e-06
3.83007864071e-06
4.98663998456e-06
7.39130539571e-06
1.66070979001e-07
1.2263954005e-06
7.79522632078e-06
3.72624138255e-06
2.12345482419e-08
1.4613467418e-07
5.87131322232e-07
1.30310045459e-07
2.47207975004e-08
9.02165293367e-08
5.50133558672e-07
8.63358756392e-08
1.58251593945e-07
1.59505251098e-06
5.27419999926e-08
9.69057049888e-07
3.60890384559e-07
9.66788857806e-06
6.06676875191e-06
5.536505876e-06
5.25551421351e-06
8.35254468254e-08
9.3521982894e-07
5.79764761257e-05
9.42931973603e-07
1.13316045735e-05
7.98589021397e-07
4.4236705334e-08
5.26080620428e-08
7.99979170653e-08
6.58835030607e-08
4.8705325506e-08
8.06494717147e-08
6.30023680861e-08
4.08643740082e-08
8.24162758228e-09
3.59750194144e-06
8.31182280031e-08
1.55368205523e-05
5.36196419536e-06
6.27405623435e-08
6.85346210877e-08
7.25555891898e-08
7.39499748919e-07
1.06776248169e-06
2.48087011747e-07
1.50984844923e-07
3.33010928852e-06
3.79540761548e-06
1.73608009213e-07
1.09748714468e-07
4.40387173582e-06
5.0055579883e-07
9.37461115877e-06
4.57924029321e-08
1.98241759146e-06
1.22605982375e-08
2.8076591095e-08
8.66359564504e-07
1.24984587949e-07
5.59217692541e-08
2.06810469831e-06
1.47164890531e-05
3.56536681806e-05
1.24075986337e-05
1.19384246026e-05
5.87604968061e-09
2.73623359972e-05
2.34001484152e-05
1.06762635873e-05
6.33698553099e-06
7.06305810496e-06
5.08692055817e-06
2.19481441092e-07
4.72737325963e-06
3.43682748461e-07
7.90592774616e-06
6.45612148604e-06
3.9398809811e-06
6.52926292888e-08
4.63084564191e-07
9.69470202392e-06
6.02767267568e-07
1.43504023821e-06
1.03833416645e-06
1.94623853694e-08
4.65264839742e-07
1.63052759789e-08
7.05171596841e-06
5.97618508309e-06
2.7199635931e-06
2.15594603426e-06
1.23351634349e-06
2.32609098806e-06
3.12221321309e-08
2.20462677367e-07
1.21095032563e-06
1.45350363833e-06
3.34784939052e-07
1.11701729165e-06
5.81546810971e-07
7.84181851441e-07
3.10003222146e-06
3.43909382873e-06
1.65601015831e-05
2.54388830192e-05
2.66722250917e-06
4.88671732614e-06
2.36384078598e-05
2.74020684208e-05
1.31619106786e-07
7.42265410672e-07
1.2599360142e-06
7.03351979294e-08
8.64040792241e-06
2.4870665488e-05
2.34860328722e-06
1.23686724081e-09
6.99420573384e-07
9.33257457671e-06
2.08262377607e-05
1.70243474243e-06
2.67520360675e-06
1.074002086e-08
5.172851661e-06
2.96210546874e-06
6.90977826207e-06
4.22090149056e-06
1.40825628816e-06
8.65507106511e-08
5.33759877923e-06
4.28465220373e-06
5.41462596623e-06
5.62279170528e-08
8.31498837617e-06
3.67164450124e-06
1.16297929854e-05
4.86858916299e-07
4.69522449348e-06
2.22888071448e-07
1.06357888379e-05
9.1190194662e-07
3.1646089415e-06
2.07573919321e-05
1.99296293174e-06
2.43852835006e-05
2.79919155566e-05
4.22838515809e-06
7.89993597476e-07
2.89639618858e-06
5.73641391974e-06
1.12453574686e-06
3.07529852354e-06
1.64273975135e-07
3.38055655972e-06
3.84086447533e-06

