# vtk DataFile Version 3.0
File Name: Molecule/sphere_excent/sphere_excent_0-s35.vtk
ASCII
DATASET UNSTRUCTURED_GRID
FIELD FieldData 1
TIME 1 1 double
0.0
POINTS 451 double
0.33823207021 -0.64951103926 0.68078148365
0.0037076105364 -0.8462305665 0.5291415453
0.49282732606 -0.81622260809 0.29955872893
0.84783399105 -0.51591008902 0.10397791862
0.61875534058 -0.50956702232 0.59604161978
0.48054197431 0.70733314753 0.51849150658
0.42920315266 0.55316859484 0.71377205849
0.68075460196 0.39486554265 0.61636966467
-0.91374051571 0.12574498355 0.38587555289
-0.97169148922 -0.19088426232 0.13287830353
-0.84034019709 -0.27998122573 0.46418657899
-0.85560065508 -0.49497282505 0.14854960144
0.4730335772 -0.87118571997 -0.12856821716
0.19683709741 -0.97446775436 -0.079522706568
-0.34783750772 0.8249438405 0.44504842162
-0.28960451484 0.93519771099 0.20052431524
-0.51625031233 0.81226062775 0.27069911361
0.25257578492 0.95990610123 -0.12094554305
0.26704567671 0.92825400829 0.25796785951
0.43260788918 0.90139466524 0.02023412101
0.035951726139 0.99809414148 0.022270070389
0.042904093862 0.94647097588 -0.31974852085
0.36348491907 0.86984890699 -0.33207675815
0.23412334919 0.76813161373 0.59566396475
0.69246262312 -0.63052648306 -0.35028025508
0.54550683498 -0.65249830484 -0.52544426918
0.67883217335 -0.49334159493 -0.54389226437
0.6763677597 -0.23315799236 -0.69867998362
0.7520172596 -0.10490013659 -0.65069276094
0.76828318834 -0.29517799616 -0.56785351038
-0.47965064645 -0.37528586388 0.79283106327
-0.62802112103 -0.16810159385 0.75951117277
-0.61101776361 -0.45068734884 0.64976847172
0.67699861526 0.63378316164 0.3725232482
-0.4880849123 0.81630671024 -0.30883070827
-0.68971097469 0.71060550213 -0.13862861693
-0.548206985 0.83541125059 0.00054779456696
-0.67185992002 0.71448069811 0.19458171725
-0.76254928112 0.64508134127 0.047926131636
-0.47003418207 -0.34071567655 -0.81423360109
-0.5272963047 -0.48788836598 -0.69558703899
-0.62026804686 -0.3336751163 -0.70984578133
0.45872277021 0.87075155973 -0.17744958401
0.57286810875 0.76231867075 -0.30051743984
0.49668210745 0.84903395176 0.17912626266
0.076557278633 -0.59259492159 0.80176848173
-0.86764144897 0.3918748796 0.30570822954
-0.95534229279 0.28483381867 0.074312984943
0.5084515214 0.29838716984 0.80772262812
-0.011257838458 0.32845744491 0.94443422556
0.16947332025 0.35855385661 0.91789424419
0.032686736435 0.52593028545 0.84985041618
-0.033463180065 0.13089177012 0.99082148075
0.15501223505 0.16790267825 0.97352480888
0.095808751881 0.015016764402 0.99528461695
0.21289511025 0.58194333315 0.78485244513
0.33946052194 0.40539804101 0.84875667095
0.34573790431 0.18746809661 0.91943973303
0.50953668356 -0.036350708455 0.85948771238
0.28905287385 -0.014297858812 0.9571685791
0.38467293978 -0.4564127028 -0.80231261253
0.52951347828 -0.5168337822 -0.67248153687
0.36821106076 -0.59246182442 -0.71649199724
0.86029499769 0.11263260245 -0.49706915021
0.77888333797 0.19049495459 -0.59755527973
0.84107613564 0.26239100099 -0.47294574976
0.80332797766 0.028901753947 -0.59481030703
0.72145330906 0.071216568351 -0.68879055977
0.68102437258 0.18063850701 -0.70955383778
0.86360555887 -0.12080296874 -0.48939755559
0.61635822058 0.094068914652 -0.78184407949
0.65253776312 -0.019790129736 -0.75749021769
0.52891045809 -0.019242590293 -0.84844297171
0.60632783175 -0.13831293583 -0.78307974339
0.1532523632 -0.73919928074 -0.65581411123
-0.00125571026 -0.78624087572 -0.61787939072
0.069990806282 -0.68304657936 -0.72702354193
-0.044752836227 -0.68771135807 -0.72456473112
-0.12131188065 -0.73672121763 -0.66518878937
0.11011254787 -0.58983868361 -0.79998451471
-0.010355593637 -0.60514545441 -0.79604750872
-0.10330045223 -0.871078372 -0.48015335202
-0.26841631532 -0.90592861176 -0.32785665989
-0.25985321403 -0.82916069031 -0.49485698342
-0.036871746182 -0.93614828587 -0.34819683433
-0.46029245853 -0.77931684256 -0.42510539293
-0.51344788074 -0.83650273085 -0.17850233614
-0.11283698678 -0.612210989 -0.78258925676
-0.11087459326 -0.53675103188 -0.83638828993
0.29466360807 -0.70586514473 -0.64407879114
0.21190720797 -0.64811712503 -0.73145866394
0.047476705164 -0.87892669439 -0.47459056973
-0.81336975098 0.20705285668 -0.54351365566
-0.76906037331 0.3640897572 -0.52522087097
-0.70010274649 0.30947172642 -0.64345443249
-0.66911202669 0.43526262045 -0.60237067938
-0.37194466591 0.18637028337 -0.90935570002
-0.46745848656 0.088030926883 -0.87960767746
-0.48503378034 0.1906414032 -0.8534476161
0.52045822144 -0.33692732453 0.7845801115
0.68028849363 -0.25515013933 0.68708574772
0.85359674692 -0.32301464677 0.40749514103
-0.77345246077 0.0075368359685 0.63309687376
-0.61593097448 0.1064908579 0.78041702509
-0.72603833675 0.21280549467 0.65331959724
0.92455387115 0.12500749528 0.35993859172
0.87498813868 0.0082222260535 0.48338970542
0.96408474445 -0.049894966185 0.25922563672
0.3534129858 -0.38942319155 0.85050112009
0.38155850768 -0.20228020847 0.90194261074
-0.21730297804 -0.46226656437 -0.85970169306
-0.37092190981 -0.50625014305 -0.77855294943
-0.31710097194 -0.39943096042 -0.86015826464
0.64021366835 0.14880639315 0.75360441208
0.23993255198 -0.18560016155 0.95289242268
0.11916799843 -0.20493623614 -0.97069263458
0.09757181257 -0.37752607465 -0.92080873251
-0.021474853158 -0.2829951942 -0.95886015892
-0.16631272435 -0.36199355125 -0.9171807766
-0.028549997136 -0.39865088463 -0.9166611433
-0.106698066 -0.45353886485 -0.88482636213
0.011404560879 -0.50268036127 -0.86437726021
-0.21741968393 -0.55317312479 -0.80419027805
-0.27025800943 -0.61274707317 -0.74260914326
0.92602366209 0.045593895018 -0.37463143468
0.83734345436 0.47659522295 0.26720175147
0.90320563316 0.42082333565 0.083794496953
0.80661231279 0.57974267006 0.11473490298
0.98154824972 0.019694292918 -0.18994252384
0.99444395304 0.10289547592 -0.023712880909
0.98761355877 -0.12934692204 0.067991390824
0.94591832161 0.15477247536 -0.28501784801
0.97143179178 0.18292742968 -0.15120367706
0.93149924278 0.27205279469 -0.24143961072
0.89592903852 0.26709774137 -0.35489222407
0.93971663713 0.3129388988 -0.13784866035
0.88790106773 0.34774491191 -0.30113390088
0.8978548646 0.39068827033 -0.20308966935
0.85107272863 0.43165737391 -0.29886028171
0.84466516972 0.36391848326 -0.39252021909
0.90378773212 0.4218724668 -0.072082132101
0.84771198034 0.49790820479 -0.18288578093
0.8311650753 0.5549980402 -0.032314486802
0.9002468586 0.17019814253 -0.40074571967
0.96023982763 0.2781085372 -0.023341683671
0.97030901909 0.21472629905 0.11039314419
-0.041896071285 -0.14638546109 -0.98832625151
-0.1601190567 -0.23851522803 -0.95784115791
-0.19468873739 -0.1206664145 -0.97340416908
-0.29627490044 -0.29199823737 -0.90932381153
-0.2551535666 0.94926422834 -0.17887637019
-0.23169898987 0.8863145709 -0.40084069967
-0.073562711477 0.53635132313 -0.8407766223
-0.1279746443 0.62860292196 -0.76708388329
0.019217366353 0.61144769192 -0.79102534056
-0.031861074269 0.73944956064 -0.67248290777
-0.22108609974 0.70107585192 -0.67786431313
0.13626538217 0.67732787132 -0.72291022539
-0.27058488131 0.59584051371 -0.75609326363
0.14023843408 0.80690640211 -0.57360583544
-0.040607322007 0.85297489166 -0.52017766237
0.69818097353 -0.71138352156 -0.079609401524
0.80350166559 -0.42603394389 -0.41523373127
0.82922977209 -0.52381247282 -0.19451183081
0.52901494503 -0.7765712142 -0.34064364433
0.3876400888 0.59373110533 -0.70498383045
0.2705360651 0.58215105534 -0.76673972607
0.28061425686 0.68927180767 -0.66791379452
0.37515741587 0.49692964554 -0.7825152874
-0.3404764533 0.77962011099 -0.52539920807
-0.49352797866 0.6958090663 -0.52175563574
-0.36328530312 0.67225557566 -0.64501827955
-0.47136875987 0.61021417379 -0.63675004244
0.14803177118 0.41286343336 -0.89865529537
0.14739398658 0.54206949472 -0.82729530334
0.26960718632 0.45618265867 -0.84805321693
-0.38802435994 0.56925809383 -0.72481703758
-0.63710135221 0.62297773361 -0.45348408818
-0.58982950449 0.55742692947 -0.58428561687
-0.17980065942 0.79987192154 -0.57262307405
0.028836004436 0.47589462996 -0.87902730703
0.022999795154 0.033062644303 -0.99874836206
-0.12015543878 -0.03242437169 -0.99222314358
-0.16949719191 0.08967679739 -0.98141539097
-0.25497844815 -0.01326631289 -0.96684539318
-0.32278463244 0.088211804628 -0.94233870506
-0.33431175351 -0.10536681116 -0.93652909994
-0.41094273329 -0.016146440059 -0.91149556637
-0.47696939111 -0.14773391187 -0.86632192135
-0.53681951761 -0.045753411949 -0.84243071079
-0.58051532507 0.052187826484 -0.8125538826
-0.590310812 -0.18973371387 -0.78446549177
-0.66561561823 -0.040808469057 -0.74513447285
-0.65790867805 0.10560764372 -0.74559497833
-0.74961477518 0.061555527151 -0.65895402431
-0.79184347391 -0.094375699759 -0.60335445404
-0.56667482853 0.14818689227 -0.81049478054
-0.2747824192 -0.19142560661 -0.94223767519
-0.38037362695 -0.21128806472 -0.90028870106
-0.076386675239 0.20078408718 -0.97664511204
0.072311572731 0.19153860211 -0.97881066799
0.00034259428503 0.33371701837 -0.94266915321
-0.16525159776 0.31540769339 -0.93447583914
-0.2430768013 0.20348775387 -0.94844424725
-0.32296031713 0.31445357203 -0.89263379574
-0.42363521457 0.24884290993 -0.87098193169
-0.1906607151 0.52125030756 -0.83182692528
-0.31042429805 0.49073198438 -0.81386446953
-0.10349883139 0.4304292202 -0.89666962624
-0.23497414589 0.41466575861 -0.87902402878
-0.37318509817 0.41797503829 -0.82805681229
-0.15059824288 -0.61645376682 0.77180099487
-0.23039910197 -0.81090170145 0.53553938866
-0.70652908087 -0.610660851 0.35590177774
-0.37718743086 -0.6041790843 0.70166820288
-0.29394459724 -0.47085121274 0.83170539141
-0.40364095569 -0.12032895535 0.90692394972
-0.24139235914 -0.15756243467 0.95747697353
-0.33108216524 0.0086128506809 0.94353866577
0.028560033068 -0.12638473511 0.99155777693
0.14972680807 -0.11091234535 0.98248517513
0.10950863361 -0.2514295876 0.96164810658
-0.02350993827 -0.23612800241 0.97142887115
-0.014807760715 -0.36995047331 0.92887550592
0.12691029906 -0.39038452506 0.91184228659
[...]
CELL_DATA 898
SCALARS cell_data_0 double
LOOKUP_TABLE default
2.2839528103e-05
1.86318679395e-05
9.05229901667e-06
1.12428897058e-05
4.52113473408e-06
2.22159216771e-06
4.18835800253e-06
1.89403157326e-05
3.15381973898e-06
8.31477719269e-06
8.65128326924e-06
1.04040580567e-05
4.23377644185e-07
1.55392222272e-05
3.02969171118e-06
7.62963621942e-06
3.67193147113e-07
4.05856892762e-08
4.17209706041e-07
5.70954744362e-07
1.22294083599e-05
2.19109552115e-06
6.32396780254e-06
1.44367232388e-05
4.89891748147e-06
2.25685930416e-07
9.1410364869e-06
3.4496755184e-05
2.6597079197e-05
2.75495422951e-05
1.80665784661e-05
1.36323603831e-05
1.90614694458e-05
9.30223521367e-06
3.18255966554e-05
2.8834692987e-05
3.1388648126e-05
2.93127252579e-05
2.18656890253e-05
1.22970197318e-05
1.99817320349e-06
9.94305617591e-07
1.40098957336e-06
8.64501006442e-07
7.15659516582e-07
3.02840900628e-05
2.89265023126e-05
9.50454899542e-07
1.39381601568e-06
8.21534038166e-07
4.82009944374e-06
5.01850574819e-07
3.84833371937e-06
5.04977867168e-07
2.34007644529e-06
1.64475936375e-06
1.85191516109e-07
1.00556858136e-06
1.73707365094e-06
3.87090778046e-07
2.31427540167e-07
5.55726306298e-07
3.43366486231e-06
6.92811292265e-07
3.57940282656e-07
8.12520593828e-07
5.65957363558e-07
3.8884292952e-06
1.78146397041e-05
8.05867605355e-06
1.42925244949e-05
1.1025979134e-05
1.15512507274e-05
1.65563683274e-05
1.52709494984e-05
1.11545459092e-05
1.30581073383e-05
5.56966150999e-06
7.65018214289e-06
2.83818235766e-06
6.69035878544e-06
1.01456708885e-05
1.71870733784e-05
4.36385182399e-06
1.80126162846e-05
9.19597653071e-06
6.90698233384e-06
1.8330307556e-05
9.2730161589e-06
1.16024531076e-07
3.46003914156e-07
3.75438964823e-07
2.64864954935e-07
7.68815949817e-08
8.48047125818e-08
6.23511135114e-08
4.51418425262e-06
1.23795915126e-05
1.29814021153e-07
5.25733523075e-07
1.85580554608e-06
3.10868888851e-05
1.57312259843e-06
3.20712064469e-05
1.47505721804e-05
3.29106891386e-07
2.61065631147e-07
3.4870123468e-07
1.58974167721e-07
1.91099448838e-07
1.5887021194e-07
2.75641944679e-07
1.34645402938e-07
3.74211003154e-07
4.10263790566e-07
2.89792831696e-07
6.77624932451e-08
4.66342048893e-07
7.20865635422e-07
6.93135537105e-08
1.48176476153e-07
2.48540821706e-07
1.83188168059e-05
1.57379259391e-05
7.94274304526e-07
5.08450259054e-07
9.72559817128e-07
1.17429903038e-06
8.76456721945e-07
5.13730270907e-07
1.1120882509e-08
8.35062537916e-06
2.65151416453e-07
2.3779831747e-07
1.7026052438e-06
1.08460389877e-07
1.2523279283e-07
2.27924662024e-07
6.44224428204e-06
7.65651990796e-08
2.16115899428e-07
2.14222195877e-07
1.4941180953e-06
6.70282361695e-08
1.74310008123e-07
1.11773118054e-05
1.45896113017e-07
9.93664251306e-06
2.77991539651e-07
3.84486420381e-07
1.05540062415e-06
5.27014028135e-06
6.30549707216e-06
6.81732150223e-07
1.6107778169e-06
1.87214265734e-06
1.36277897838e-06
1.06488503013e-06
4.46150442422e-08
6.15125797963e-08
2.78819111624e-08
5.4291080018e-08
2.23014350672e-07
1.13171879313e-07
1.13171810348e-05
2.66622364624e-07
8.50876164464e-07
2.48709629084e-08
1.34716699421e-08
1.43020602682e-08
2.45568030404e-07
1.09835563375e-05
1.16340349372e-07
2.44543262979e-06
4.29488944835e-07
3.84599962302e-07
1.11534676878e-05
2.27218562306e-08
5.34776677926e-08
1.04826206887e-05
1.16427396714e-05
3.03027701829e-07
1.97499725257e-07
5.91409240197e-06
1.23045860722e-08
1.13578606492e-06
8.55774076429e-07
1.21823267051e-06
4.69786792168e-09
7.56007444575e-07
8.75407713423e-07
8.29791941201e-07
2.324805213e-08
7.00219644141e-07
2.75772856673e-06
6.09767851428e-08
2.86158238502e-06
7.19188659618e-07
1.36859316782e-06
2.9563296943e-06
7.7272456185e-07
2.24970825513e-06
1.3567500581e-06
6.17755069889e-06
1.00217262342e-06
1.50758139889e-08
3.94235698826e-08
6.30381306728e-07
1.10327093809e-06
1.42413072874e-07
1.11961186888e-07
1.20420946101e-06
7.05314068469e-06
5.50687558932e-06
1.1924493757e-05
4.59706690317e-06
9.22893093496e-06
9.74830710886e-06
1.21290075249e-05
5.42782819488e-06
4.45892103809e-05
2.08666870833e-05
3.8552548629e-05
3.74582175349e-05
5.84280660245e-05
2.9679518086e-05
3.10168045771e-05
2.5033554201e-05
1.59165384926e-05
6.16212615388e-06
1.49437179085e-05
1.3277576818e-05
4.50878965283e-06
6.41904336548e-06
5.28240405195e-06
7.77805848e-06
2.5898848292e-06
1.19891740123e-06
2.85919358955e-06
5.15524018718e-05
3.62608423142e-05
5.66800521235e-05
1.26704261979e-05
1.35688249456e-05
7.27955979912e-06
1.64688610663e-05
1.62078135537e-05
9.5984217595e-06
1.44705827313e-05
1.34594731139e-05
1.47638980377e-05
5.70465638907e-06
2.87884045981e-06
1.24120793428e-05
1.16762046188e-05
7.56586748205e-07
1.21464245066e-05
3.55261664581e-06
2.23273478177e-05
2.55516240849e-05
9.27876223082e-06
1.47941523558e-05
1.57905101792e-05
2.13663758368e-05
1.07213697912e-05
2.59743113027e-07
1.29945256229e-05
9.09211076664e-06
9.41947791473e-06
1.44616819401e-05
1.0895166977e-05
4.07487200787e-07
8.08218440897e-06
1.26077953289e-05
2.32088730771e-05
1.82980390786e-05
1.15641017227e-05
2.10070619735e-05
2.26490063433e-05
2.15808393921e-05
2.11381993414e-05
1.65952057689e-05
1.66354471473e-05
4.26500352965e-06
1.55516880978e-05
1.32613477412e-05
1.18811908789e-05
2.6992789904e-06
1.70224871963e-05
1.38487496326e-05
1.29890163867e-05
1.03271179551e-05
1.67141321329e-05
1.37390024343e-05
5.06856944168e-06
5.67238840818e-06
7.97710193627e-06
1.47786727983e-05
1.00008087185e-05
1.06051721444e-05
4.77837636473e-06
1.19869246218e-05
2.25882138813e-06
1.01152793384e-06
5.73831958547e-08
4.38782210431e-08
1.5724350353e-07
6.8623741535e-07
5.49304381484e-07
1.7237408123e-07
1.09711101709e-07
5.14868888361e-07
1.17873344363e-06
1.16755882017e-05
1.17417033069e-06
1.16826270305e-07
2.98890164901e-07
1.30779474255e-06
1.39870136234e-06
2.92810774938e-06
1.3684690323e-07
1.93521290023e-06
3.47519031792e-08
1.09858070841e-07
1.24082069435e-06
7.03730099438e-07
4.05875009739e-06
4.63318281258e-06
6.44126346873e-06
4.75014318746e-06
3.50064735269e-06
7.92920971083e-06
5.18123939159e-06
1.53337593881e-05
7.52604501963e-06
6.01788494171e-06
3.0909519527e-07
4.54189743867e-08
1.03037306895e-08
3.08500440066e-06
1.31234490165e-06
8.72817306517e-07
6.09687606902e-09
2.23560167511e-06
3.28578004477e-08
9.58960506528e-08
2.50678624833e-06
5.78525039717e-06
8.31602574475e-06
2.59137360143e-07
3.48448280684e-07
2.88758226871e-06
2.52558103791e-06
6.97792099876e-06
4.32321989499e-06
2.11675894719e-06
2.41179677155e-06
6.81105175342e-06
8.74708399343e-06
4.80989609674e-06
5.44582200104e-06
4.16263937881e-06
6.37204557262e-06
1.0753033493e-05
7.14981470577e-06
1.33748016044e-05
1.09974155032e-05
1.37417184178e-05
5.04680116706e-06
8.17732921838e-06
6.78478205012e-06
5.52340952369e-06
5.97609096812e-06
5.43654611781e-06
4.28130094448e-06
1.3805919012e-06
6.25851462422e-06
2.46936919885e-07
1.71865200363e-07
2.72350599896e-07
1.13199671698e-08
3.06790165902e-09
9.30649705164e-09
1.60538282833e-07
3.01814354028e-08
1.41813512772e-06
1.74507218974e-06
2.00045744755e-06
3.40804050816e-09
1.59494257456e-08
5.99912482129e-09
1.40982665544e-09
1.34120961667e-09
7.62655956343e-07
8.60306184561e-07
6.72146853515e-07
3.74039914954e-07
1.73432285224e-06
4.06905388837e-06
1.36945167243e-06
8.19083759031e-07
9.2599720945e-07
9.38848333618e-07
8.02707904218e-09
7.27628623992e-06
3.00571150333e-06
1.90759674774e-06
1.56634150914e-05
8.33783387946e-06
7.08488972669e-06
7.19325030829e-06
1.01445505288e-05
2.34201788882e-06
2.03711056788e-06
4.8715503137e-06
7.4219950739e-09
1.91675826979e-06
7.47898235705e-06
7.59538655425e-07
6.24178291122e-08
1.12483221016e-07
1.39149894409e-08
5.44456909198e-06
5.75147430351e-08
4.26533111729e-08
2.74140084502e-06
7.60799747046e-06
5.77568138473e-06
6.96585572344e-06
9.44881468408e-06
1.00244454624e-05
1.16112211905e-05
1.37369237202e-05
9.82350380279e-06
1.07409460354e-05
8.88448548246e-06
9.35553320927e-06
1.09059693534e-05
1.14956671672e-05
1.30111139053e-05
3.03637208255e-06
1.5143785299e-05
1.46921063429e-05
1.33845593085e-05
1.72426070464e-05
8.7352543406e-06
6.39711687353e-06
5.18738414575e-06
2.14841000678e-06
6.58643030656e-06
3.39411112322e-06
2.8193616745e-06
2.10013946867e-07
3.88441007828e-08
1.01942452904e-07
4.86295672278e-07
3.29144687821e-07
4.67145413178e-07
2.00772498503e-06
5.67607589182e-07
7.93749187194e-07
1.62172641508e-08
1.57104601104e-07
9.03127750315e-07
6.18381079737e-06
4.58962453843e-06
4.95221664841e-08
6.41059189981e-08
5.05619263211e-08
6.53990867567e-06
4.58675421166e-06
1.5568467515e-08
5.16098178961e-09
3.60861907906e-09
8.11503712584e-08
1.73811906158e-08
5.74784054189e-09
4.64204999317e-09
2.07908252946e-08
7.36713896901e-09
2.04626421552e-08
4.74320123204e-09
8.7882338079e-06
9.11347523184e-06
3.20917888357e-08
1.52134607174e-08
1.75045729854e-08
3.58751205302e-06
3.27535531056e-08
1.07615267383e-08
6.3493145429e-07
6.86237003204e-07
2.90897588183e-06
4.9861248023e-08
9.94877263774e-06
1.95524829665e-05
1.16442880121e-05
2.75380785646e-10
9.39671533654e-06
1.75844062085e-05
1.36390094996e-05
2.08270173546e-07
6.65912084475e-08
1.16416120217e-05
2.19799028289e-05
1.05314047943e-05
6.79891136269e-08
3.59285807921e-05
1.13227172548e-05
9.7214936919e-06
1.04363910409e-05
1.44809020507e-06
4.47953001851e-07
7.69536255239e-07
8.25759235544e-07
6.19201702598e-08
4.47894147709e-08
1.34910820382e-07
7.37157673505e-08
8.88446087662e-08
1.12521584836e-07
1.13599393497e-07
2.50760838439e-08
2.70402805882e-08
3.87649010912e-06
1.29015870391e-07
1.20102419288e-05
6.68096688504e-06
7.49752188034e-08
4.27202246262e-08
6.72268818137e-07
1.93708343568e-07
2.28607239128e-07
1.19814031625e-07
2.20457417518e-07
1.2516944671e-07
7.22332679985e-08
9.48970676298e-08
5.24697423092e-06
1.33546885556e-05
3.28369694361e-06
2.51934626048e-07
2.572422442e-07
2.19736304638e-07
2.4418418163e-07
5.92309783182e-07
1.14969298088e-07
1.43877945294e-05
2.61728928741e-07
5.37546210821e-06
8.37981185784e-06
3.13109310766e-08
1.16493301061e-08
2.04099343029e-07
1.0194030194e-07
6.69893825772e-08
1.49722893781e-07
1.3860555656e-07
1.34529442076e-07
1.49714074419e-07
2.85932445589e-07
2.22403812482e-07
2.92629881808e-07
5.17913595201e-06
1.7284121894e-06
3.19870244172e-06
3.93155609048e-07
2.37549641178e-07
1.64274825766e-07
2.2668722706e-05
4.62922301463e-07
1.90637880968e-05
2.25879089751e-07
6.55288494862e-06
5.58467565727e-06
3.78154405777e-06
2.76992844746e-06
2.16994037175e-06
2.70518719109e-06
1.75038279548e-06
1.79871908099e-06
1.99663912015e-06
2.63979479516e-06
1.28835310401e-06
3.04068582108e-07
1.91261985429e-06
1.78670555968e-06
3.41763179289e-06
3.29498505726e-06
8.32213334376e-07
8.2535216699e-07
2.38600053251e-06
1.92415938728e-06
2.2024133274e-07
1.02841192079e-07
1.95132480575e-05
8.40696972946e-06
3.1025420434e-07
2.54485626727e-05
1.51449091591e-06
2.22459440743e-05
3.67228026969e-05
2.70047215749e-07
1.97565290847e-07
2.23662673355e-07
1.20185723482e-07
2.52273328837e-07
5.26358735256e-06
4.06029429548e-07
4.48681535033e-07
2.35077215101e-07
8.23709357898e-07
2.49613966922e-07
3.65751825225e-07
7.10935692333e-07
6.71422285186e-07
3.50188179162e-06
4.5628559802e-06
1.39007526146e-06
1.43700310093e-06
1.08337923249e-06
3.42575978276e-06
4.87069804431e-06
2.37026462157e-06
9.21906201267e-08
1.53333630924e-06
2.39107273947e-06
2.06118990815e-05
2.69521366939e-05
1.65647252792e-07
2.59964187826e-07
2.14863370058e-07
2.58318229048e-07
2.17363585706e-07
1.58013620975e-07
3.79064260753e-06
1.29509636576e-06
9.11529893488e-07
1.48613662013e-06
1.25533279418e-06
4.20957220508e-07
7.06913318386e-09
4.5048541988e-07
2.02487682803e-07
2.66727312265e-07
2.48347380113e-07
1.21898870931e-06
9.86875235964e-07
2.96511583367e-07
3.06785188642e-06
3.49590495485e-07
2.60210279239e-06
8.26923775608e-07
9.5422939492e-07
3.59871402595e-07
6.3652601051e-07
2.34254701061e-07
1.5313862025e-08
1.1879300797e-07
3.13398614694e-07
2.67852141994e-07
1.0730577957e-07
3.32962708576e-07
3.81172033825e-06
7.1462691742e-07
1.99495121281e-06
1.13963813073e-06
1.40407001498e-07
1.80463437814e-07
4.13772916629e-07
4.1578356058e-07
6.04666983639e-07
5.29287025312e-07
1.06330593061e-06
5.91051012566e-07
7.81585491494e-07
1.0525370031e-06
1.66922178033e-06
1.40371843823e-06
2.58636097131e-07
7.989510542e-07
4.19309348581e-06
4.7087658092e-06
4.14389113212e-07
4.95237140093e-07
6.7314824927e-07
6.90876273171e-09
1.06251071053e-06
1.11620685401e-06
2.25577133544e-06
1.39461751939e-06
3.50181775496e-07
1.11358108134e-07
3.95194426577e-07
6.59716614488e-06
1.09306389962e-06
1.01859679775e-06
8.51245751432e-07
1.53959039804e-06
6.73943084791e-07
5.43925919397e-07
1.22902161089e-06
1.27480919146e-06
2.02310774815e-06
1.52605769104e-06
1.83453069759e-06
1.59790555213e-06
3.12069656307e-06
4.58525857094e-06
1.29236068889e-06
9.59625600765e-07
1.06548679617e-06
1.1580503398e-06
2.11402526883e-06
3.07107452563e-06
1.2537816582e-06
3.3290148193e-06
7.69407000077e-06
1.80700391145e-10
5.67560620507e-06
2.96058516147e-06
3.17541917718e-06
1.52752679098e-08
6.52744202358e-06
4.28729611661e-07
3.53895140066e-06
1.38038651903e-06
6.82634601734e-07
3.55054989696e-07
5.30128495115e-06
6.85576995665e-07
9.71527402042e-06
1.07150605431e-05
3.66693527627e-06
5.17501869333e-06
6.18703939068e-06
6.98415019352e-06
1.99099736971e-05
7.01176251986e-06
6.43501337608e-06
3.45121029512e-07
3.02051443667e-07
1.37324813662e-07
1.9622943036e-07
2.37461956164e-07
1.69552805681e-07
4.12785647639e-07
2.05470620042e-07
6.55402096171e-06
1.50405803571e-08
8.40712121553e-08
5.41541494009e-07
7.48077557189e-06
9.22350820275e-07
3.26757759118e-07
7.17972734718e-06
8.32968158807e-06
5.12174341589e-08
4.08676196382e-08
5.45144914459e-06
7.57080642764e-06
4.51892687111e-08
1.60837716447e-06
2.92575379874e-07
1.37481262176e-07
8.51366184211e-06
8.93686999368e-06
8.76384117561e-06
1.06271444067e-05
1.05476931457e-05
1.24669160823e-05
5.09845080415e-07
1.6356186098e-05
1.59305541225e-05
4.30369139275e-07
2.29664109457e-07
5.48823362359e-08
9.26445543755e-06
4.82974820457e-06
4.68277265273e-07
8.92724340281e-06
3.07578788163e-06
2.45575817871e-05
3.18870698394e-05
4.44336770542e-08
1.63264298967e-07
5.15546853356e-07
3.92415845543e-06
5.31890769478e-06
7.92116199466e-07
2.11830853592e-08
7.59620258216e-06
2.76751407651e-07
9.19090491125e-07
1.14785152423e-06
1.64989795742e-07
1.96357343893e-06
2.48739622019e-06
8.5920258465e-07
1.17633822366e-07
5.02606850707e-07
9.30162205529e-07
8.35608606934e-08
1.7242149658e-07
1.8974194938e-07
6.93547081387e-07
1.51798423799e-06
5.99253400014e-07
3.79040074869e-06
6.06892621074e-06
3.48382982738e-07
4.26861089649e-07
1.00188765645e-07
8.99401356569e-08
4.01064648361e-06
1.70118785737e-08
2.97230603795e-07
1.37711246272e-07
2.27873653573e-07
5.19126168583e-07
2.81359476317e-07
9.04140431265e-06
5.51156458473e-06
3.33856892543e-07
1.05403933541e-06
6.48675149875e-06
5.91279160811e-06
2.12228163023e-06
7.97818281636e-06
1.60129094e-05
1.5215570825e-06
3.07131183038e-06
2.74432122979e-05
1.57357729628e-05
1.39244151901e-08
4.3921397354e-08
6.05212205457e-06
1.54090563274e-07
1.98129334168e-06
1.44190454959e-06
1.14436973627e-06
3.71223366221e-06
1.35238628522e-05
5.08380473845e-07
6.24960595702e-07
1.54500961491e-05
1.74000317584e-05
6.47916723904e-06
6.46979390991e-06
4.42138509944e-06
1.03420605386e-06
9.26427736137e-08
1.99488988918e-06
1.87264654821e-06
1.88360339032e-06
1.57263993546e-06
3.47842875254e-06
2.99644429417e-06
3.94660768939e-06
4.84448186734e-07
5.36746751354e-06
3.07703276381e-06
1.43330850581e-06
4.09989052866e-06
5.21497026487e-06
6.10964371097e-06
1.39659648353e-06
1.13557902938e-06
1.77751961969e-05
1.42980660327e-08
6.79966014567e-06
4.93474387121e-06
1.03297748803e-06
2.59701956199e-06
1.43907005767e-05
1.18283744147e-06
1.03361622726e-06
3.48043573381e-05
1.24895806012e-07
1.23979752437e-06
1.43690511628e-06
8.94422394628e-07
1.4606332745e-06
3.45092126514e-08
4.62068309275e-06
4.09447356722e-07
3.42171140346e-06
9.77674627781e-08
3.2298039272e-06
3.98532520829e-06
2.15172117257e-07
3.60587211268e-06
5.0161671121e-06
3.49258733362e-07
1.39088689195e-06
1.07669349471e-05
1.20353877177e-05
2.03923353297e-06

