# vtk DataFile Version 3.0
File Name: Molecule/sphere_excent/sphere_excent_0-s36.vtk
ASCII
DATASET UNSTRUCTURED_GRID
FIELD FieldData 1
TIME 1 1 double
0.0
POINTS 479 double
0.33831226826 -0.65147227049 0.67899495363
0.017940385267 -0.84844434261 0.52574217319
0.48975113034 -0.8189343214 0.29833039641
0.84162342548 -0.52456474304 0.1155615896
0.6224797368 -0.51473867893 0.58815771341
0.47834262252 0.70696419477 0.52098071575
0.4308386445 0.55202245712 0.7137118578
0.67639636993 0.39931604266 0.61846637726
-0.91492497921 0.12149360031 0.38432151079
-0.96999913454 -0.19538860023 0.13889893889
-0.83784335852 -0.27155539393 0.47158691287
0.47518345714 -0.87101364136 -0.1221370995
0.2038423419 -0.97490483522 -0.063185021281
-0.34322473407 0.82683140039 0.44525226951
-0.29531237483 0.93237471581 0.20642802119
-0.51255697012 0.81507080793 0.26952537894
0.25201672316 0.96027767658 -0.11918979883
0.26625478268 0.927559793 0.26128962636
0.43032607436 0.90247493982 0.019995940849
0.044427525252 0.9981675148 0.020550722256
0.043233323842 0.94764143229 -0.31624296308
0.36030727625 0.87394356728 -0.32522147894
0.23398688436 0.7693913579 0.59415358305
0.69492727518 -0.62817847729 -0.34966096282
0.55248039961 -0.6503610611 -0.52106255293
0.67795455456 -0.49539899826 -0.5430893302
-0.48045101762 -0.3812725544 0.78960180283
-0.62934172153 -0.17071384192 0.75795096159
-0.61797821522 -0.44582489133 0.64694219828
0.67859780788 0.62903761864 0.37804326415
-0.48805168271 0.81713467836 -0.30671349168
-0.68592095375 0.71406775713 -0.13819932938
-0.55683028698 0.83012443781 0.0016835269053
-0.67005652189 0.71669703722 0.19277136028
-0.76290643215 0.64484131336 0.04345459491
-0.47021496296 -0.339694947 -0.81456100941
-0.52942836285 -0.48454463482 -0.69635075331
-0.61985146999 -0.33445295691 -0.70986181498
0.45608606935 0.87279206514 -0.17421074212
0.56948155165 0.76618927717 -0.29719299078
0.49381148815 0.85055047274 0.18000005186
-0.86826527119 0.39009067416 0.30627283454
-0.95454996824 0.28639140725 0.079292818904
0.50807183981 0.29976472259 0.8074465394
-0.015786949545 0.34238731861 0.93880957365
0.17019926012 0.3615258038 0.91665059328
0.033421721309 0.5267868042 0.84930735826
0.21365758777 0.58273422718 0.7840899229
0.34070503712 0.40630617738 0.84786194563
0.3469594121 0.18892379105 0.9186732769
0.50994467735 -0.037595614791 0.8591914773
0.16873656213 0.16502535343 0.97137182951
0.29038026929 -0.013743373565 0.95678275824
0.096739687026 0.016491152346 0.99516010284
0.38507270813 -0.45658749342 -0.80201900005
0.5279892087 -0.52052688599 -0.67089051008
0.36682572961 -0.59256285429 -0.71713519096
0.86077481508 0.11000917107 -0.4968315661
0.77953606844 0.18826784194 -0.59737026691
0.84183764458 0.25984212756 -0.47301506996
0.8038148284 0.0264024809 -0.59424835443
0.72233760357 0.067856229842 -0.68819528818
0.74334490299 -0.096801310778 -0.6609454751
0.68090546131 0.17498849332 -0.71115994453
0.87144368887 -0.10799536109 -0.47624951601
0.61785429716 0.093424074352 -0.78075361252
0.65241533518 -0.020215554163 -0.75758785009
0.52927076817 -0.018338609487 -0.84824806452
0.60656821728 -0.13813142478 -0.78291600943
0.15436054766 -0.73988240957 -0.65478235483
-0.0007446227246 -0.78738814592 -0.61641931534
0.07146422565 -0.68318331242 -0.72675246
-0.043740153313 -0.68849444389 -0.72388249636
-0.12085594237 -0.73816883564 -0.66367161274
0.11191388965 -0.58950150013 -0.79998391867
-0.0087387887761 -0.60530686378 -0.79594570398
-0.10521435738 -0.87181442976 -0.47838452458
-0.26985821128 -0.90777099133 -0.32155162096
-0.26164799929 -0.83060437441 -0.49149045348
-0.044595301151 -0.93520438671 -0.35018712282
-0.4617856741 -0.77950274944 -0.42315343022
-0.50602394342 -0.83986610174 -0.19063803554
-0.11159329116 -0.61275428534 -0.78234356642
-0.10967049748 -0.53679615259 -0.83652073145
0.29351592064 -0.70497941971 -0.64561480284
0.21213583648 -0.64773827791 -0.73172771931
0.044893339276 -0.87992602587 -0.47299823165
-0.81252777576 0.2066090256 -0.54500710964
-0.7700983882 0.36190849543 -0.52525174618
-0.7012963295 0.30788105726 -0.64292484522
-0.67061567307 0.43500566483 -0.6008836031
-0.37118977308 0.18582257628 -0.90977305174
-0.46768385172 0.087148889899 -0.87957453728
-0.48513144255 0.18986703455 -0.85356491804
0.5212854147 -0.34043094516 0.78245192766
0.68206208944 -0.25664633512 0.68475556374
0.85507160425 -0.3175406158 0.40918430686
-0.77571243048 0.0023451866582 0.63066148758
-0.62005865574 0.10285111517 0.77767378092
-0.72946447134 0.20921511948 0.65071320534
0.92316311598 0.12471262366 0.36360037327
0.87696433067 0.0043458351865 0.48001945019
0.9625928998 -0.058918535709 0.26340138912
0.3544587791 -0.39049202204 0.84955465794
0.38245353103 -0.20332078636 0.90132784843
-0.21733641624 -0.46212419868 -0.85976970196
-0.37249803543 -0.50637406111 -0.77771753073
-0.31867334247 -0.40042355657 -0.85912102461
0.64047372341 0.15006114542 0.75313687325
0.24120804667 -0.18536314368 0.95261305571
0.11228059977 -0.21253989637 -0.97031664848
0.097759924829 -0.37599101663 -0.92142856121
-0.022830473259 -0.2822483778 -0.95905131102
-0.1669729799 -0.36092850566 -0.91748994589
-0.028624281287 -0.39733713865 -0.91723036766
-0.10665918887 -0.45292496681 -0.88514566422
0.012397804298 -0.501912117 -0.86481273174
-0.21685825288 -0.55361133814 -0.80403852463
-0.27110046148 -0.61319422722 -0.74193364382
0.9263497591 0.045325860381 -0.37385869026
0.83648496866 0.47950664163 0.2649680078
0.90285217762 0.42175012827 0.083017602563
0.80782037973 0.57812219858 0.11454117298
0.98008310795 0.030378403142 -0.19390454888
0.9462094903 0.15456400812 -0.28421631455
0.97143757343 0.18337078393 -0.1506357044
0.93199670315 0.27112525702 -0.2405821383
0.89654123783 0.26563066244 -0.35445669293
0.94000053406 0.31226885319 -0.13744576275
0.88862514496 0.3466706574 -0.30024299026
0.89830130339 0.39007544518 -0.20228776336
0.85168272257 0.4310721755 -0.29797369242
0.84540426731 0.36258691549 -0.39216771722
0.90396505594 0.42142695189 -0.072449043393
0.84797036648 0.49739664793 -0.18308052421
0.83182883263 0.55395251513 -0.033568169922
0.90066325665 0.16847912967 -0.4005484879
0.99396008253 0.10592983663 -0.024819549173
0.96003496647 0.27872088552 -0.024076793343
0.97048568726 0.21505299211 0.10842089355
-0.042643792927 -0.14588433504 -0.98837375641
-0.15912412107 -0.23796769977 -0.95814538002
-0.19430628419 -0.12077063322 -0.97346824408
-0.29375657439 -0.29389256239 -0.90954840183
-0.25499513745 0.94805002213 -0.18729190528
-0.23024819791 0.88682597876 -0.40059819818
-0.073663726449 0.5370554328 -0.84033077955
-0.12757712603 0.62985128164 -0.76612877846
0.019178405404 0.61237853765 -0.79030632973
-0.031933236867 0.74073630571 -0.67106175423
-0.22007226944 0.70325320959 -0.67593979836
0.13568647206 0.67823904753 -0.72216612101
-0.26900437474 0.59845989943 -0.75460642576
0.13506552577 0.80645054579 -0.57558244467
-0.041385594755 0.8543857336 -0.51783764362
0.69683611393 -0.71276837587 -0.078966192901
0.80016362667 -0.43401005864 -0.41387009621
0.82852584124 -0.52591085434 -0.19181005657
0.53779238462 -0.77374017239 -0.3337880075
0.38409608603 0.59249526262 -0.70802330971
0.26821181178 0.58327496052 -0.76670557261
0.2797921598 0.69008243084 -0.66742545366
0.37260320783 0.49759104848 -0.78331744671
-0.34048104286 0.78126591444 -0.52297282219
-0.49295762181 0.69684743881 -0.5208915472
-0.36286148429 0.67410391569 -0.64332431555
-0.47135519981 0.61195152998 -0.63509351015
0.1468731761 0.41360792518 -0.89849984646
0.14636150002 0.54298293591 -0.8268763423
0.26724997163 0.4575920701 -0.84804177284
-0.38717880845 0.5713827014 -0.72361469269
-0.63584852219 0.62531483173 -0.45205414295
-0.59065419436 0.55890583992 -0.58204090595
-0.17939160764 0.80174022913 -0.57014065981
0.036746237427 0.48696684837 -0.87225669622
0.016392927617 0.038931529969 -0.99883460999
-0.12081615627 -0.031411543489 -0.99218004942
-0.16885614395 0.08936791122 -0.98156070709
-0.25484332442 -0.013986376114 -0.96686846018
-0.32246690989 0.087492987514 -0.94251322746
-0.3345361352 -0.10687956959 -0.93627905846
-0.41104149818 -0.017266202718 -0.9114292264
-0.4758721292 -0.14870578051 -0.8667601347
-0.53700613976 -0.04736931622 -0.84222388268
-0.58171135187 0.050771318376 -0.81178867817
-0.58905977011 -0.19068056345 -0.78519403934
-0.66671127081 -0.042357120663 -0.74407309294
-0.6598302722 0.1036965102 -0.74417614937
-0.75140470266 0.060002207756 -0.65706902742
-0.79161226749 -0.094696044922 -0.60361969471
-0.56778717041 0.14714694023 -0.8099052906
-0.27384880185 -0.19273237884 -0.94224655628
-0.37969875336 -0.21341493726 -0.90008980036
-0.076184220612 0.20043763518 -0.97673082352
0.071769677103 0.1915884316 -0.97883826494
0.0075418064371 0.31610244513 -0.94813537598
-0.24359054863 0.20061722398 -0.94894468784
-0.32115095854 0.31301739812 -0.89378893375
-0.42280590534 0.24804529548 -0.87160789967
-0.17263124883 0.29950764775 -0.93776470423
-0.19179330766 0.53318417072 -0.82354575396
-0.30935934186 0.49618661404 -0.81109601259
-0.25284546614 0.41388130188 -0.87348407507
-0.36664605141 0.41949960589 -0.83028662205
-0.37999871373 -0.60381662846 0.70055365562
-0.29579800367 -0.47279176116 0.83001029491
-0.40585392714 -0.11802837253 0.90622490644
-0.24314180017 -0.15656119585 0.95721530914
-0.33236971498 0.0074487770908 0.94309139252
0.029238026589 -0.12654651701 0.99151939154
0.15100364387 -0.11014800519 0.98237252235
0.11067504436 -0.25226765871 0.9612942934
-0.023089146242 -0.23683269322 0.97126471996
-0.013908132911 -0.37177881598 0.928139925
0.128700912 -0.39269563556 0.91061669588
0.082342192531 -0.58140933514 0.80806517601
0.2429484874 -0.31933483481 0.91598802805
-0.13450160623 -0.28471001983 0.94911718369
-0.1396035403 -0.45997309685 0.87686014175
-0.25645598769 -0.32875135541 0.90881109238
-0.16366526484 -0.61293786764 0.77190566063
-0.21569550037 0.37573873997 0.90126341581
-0.14702296257 0.24882736802 0.95733213425
-0.49191570282 0.011328767985 0.87052071095
-0.45409318805 0.18269757926 0.87197470665
[...]
CELL_DATA 954
SCALARS cell_data_0 double
LOOKUP_TABLE default
4.65165187424e-05
9.77781255771e-06
1.30009504237e-05
5.31264025625e-06
2.78025443547e-05
3.93072785702e-06
0.000110729792611
5.40268014042e-05
2.98292069372e-05
3.51419765312e-05
1.0100500784e-06
1.74285031343e-07
4.12283760086e-06
1.00229203001e-05
3.32580910335e-05
2.60420647309e-05
8.3626976556e-07
3.65822704517e-07
4.27961170733e-05
1.42951047005e-05
3.36050390296e-05
2.58286961421e-06
1.63477612565e-05
8.23795871742e-06
8.81661174535e-06
1.36196449263e-05
1.63392507093e-05
9.10865272064e-06
3.05588175804e-05
9.56026770254e-06
1.02503317173e-05
1.0141235412e-05
2.27667052189e-05
7.83947929613e-06
8.4153025143e-07
2.77343448409e-07
5.51411116068e-07
3.06604722876e-07
3.61399213235e-07
2.00167689309e-05
3.98334972631e-07
6.03490015034e-07
3.79075534278e-07
3.28401931727e-06
1.7932596916e-07
1.84412549042e-06
6.49968201251e-07
9.57383204809e-07
1.47346410139e-06
3.37282475143e-06
1.72880094414e-06
4.72371176044e-07
3.39460624394e-07
5.66391306727e-07
2.70072551621e-07
4.61654313024e-06
9.71850136737e-07
7.96278050878e-07
1.41053504258e-07
2.00965653061e-07
1.07307023626e-05
1.79216505463e-05
7.50242146168e-06
2.0426055828e-05
1.14198201332e-05
1.99521249065e-06
1.88142328234e-06
1.42326792758e-05
9.72309969554e-06
1.30428592792e-05
6.44416725516e-06
8.421169609e-06
2.90504331949e-06
8.03396847079e-06
1.86534089172e-05
1.77653451057e-05
4.05881572531e-07
1.86109469206e-05
1.31223976949e-05
8.03500272941e-06
1.93362139179e-05
7.06220991494e-07
5.68766897119e-07
7.36756656058e-08
5.60604465255e-07
3.68064580589e-07
7.36483093452e-07
4.58449692329e-07
4.41425699684e-07
4.4258716846e-07
2.51346821924e-07
6.3833980758e-07
3.75677540203e-07
1.16477584993e-06
2.06133393997e-05
1.53810474744e-06
1.58925110482e-05
3.89717640817e-07
2.84567367726e-07
7.84093145279e-07
2.37537214054e-07
2.27514477042e-07
1.85899768564e-06
8.4696713973e-07
3.44306949183e-07
9.49095302278e-07
3.60426128459e-07
2.50560477893e-06
1.37756568873e-07
1.16715891526e-06
3.8990615098e-07
7.4230480222e-08
2.12784911517e-07
4.03769135198e-07
1.89461974692e-05
1.7912841615e-05
7.79654698345e-07
7.27379777834e-07
9.70115625884e-07
1.20516413881e-06
9.0138181446e-07
7.56642062431e-07
7.34356880873e-08
4.86310506661e-08
6.22266922336e-09
7.54081530437e-07
3.20330762232e-08
6.72969166423e-07
7.07920735508e-07
2.15295028915e-07
6.81569828871e-07
8.45880278454e-07
7.95368762026e-07
4.85457134588e-07
2.14744193141e-05
5.6461000089e-08
1.05439646088e-07
1.65302402494e-05
1.33935758091e-07
1.24127095947e-05
2.32394894861e-07
3.16138023173e-07
1.0782701752e-06
9.99253431718e-06
3.76594288058e-06
3.44600644492e-07
1.44478534043e-06
2.18196909404e-06
1.18595985513e-06
1.16671800063e-06
1.47427454921e-05
3.53872408348e-08
2.9397242488e-08
1.1426164991e-07
4.61570395222e-07
3.27074525605e-07
1.53424583249e-05
8.20111935108e-09
2.49107005994e-07
6.50052068771e-08
1.10526020669e-07
8.19130426624e-10
8.20201940975e-08
1.31122205638e-05
1.86233433371e-07
1.49952153918e-07
3.70252886012e-07
3.70355324367e-07
1.58693296295e-05
5.13656370799e-07
9.38386369603e-08
6.5356459216e-06
1.71011191083e-05
2.76815197355e-07
1.95189386876e-07
2.69865415368e-07
5.04784672958e-08
5.79329367881e-08
5.45213276156e-08
7.4367104505e-08
5.37922576103e-08
2.92255510484e-08
4.63856822391e-08
3.1624746613e-08
3.15242900348e-06
3.04977023756e-06
7.71867467184e-06
4.25409649006e-05
1.90630543959e-05
1.5991238417e-05
1.49732703209e-05
1.06316758304e-05
8.39951835056e-06
2.41207470932e-06
4.22923833582e-08
2.54381831199e-07
9.12566737152e-06
2.3235947826e-05
2.3059086025e-05
9.93804406453e-06
1.55780336988e-05
1.52888061764e-05
9.99832683462e-06
9.50046690061e-06
6.62967378968e-05
9.21098779467e-05
2.9072826272e-05
6.11031983745e-05
3.35712027061e-05
5.14413765719e-05
4.06615345088e-06
6.43254921488e-06
8.02890264871e-06
7.47242906116e-06
4.11055596369e-06
4.57397712391e-06
6.44421414777e-05
2.46749486093e-05
1.12358994727e-05
4.19065689791e-05
1.27346190181e-05
1.28505186139e-05
1.83389030044e-05
8.13683171079e-06
1.72483661235e-05
1.6666513456e-05
1.12564046569e-05
1.18287309252e-05
1.41113540661e-05
9.56004709534e-06
2.93817601012e-06
9.58647588805e-06
1.15330740857e-05
1.92457786012e-06
2.09632327567e-05
4.8445983069e-06
1.53960757449e-05
2.34048256599e-05
5.0277774115e-06
1.11273051924e-06
1.8815983345e-05
1.259105428e-05
1.65618335846e-05
1.08369106176e-05
1.1997081218e-05
4.00506083765e-06
5.61795727875e-06
1.38505787161e-05
1.70217850168e-05
3.58187656134e-06
1.8723659577e-05
5.77590172636e-06
1.35211747046e-05
9.75454510603e-06
2.05714946741e-05
5.5072743414e-06
6.04590108727e-06
2.00108858046e-05
1.57019157147e-05
1.57424605806e-05
1.3586534877e-05
4.54268439604e-06
1.34721682244e-05
1.31485727775e-05
1.70217529903e-05
1.4566950006e-05
1.3827260245e-05
6.60652226424e-06
6.37548996688e-06
1.67757344722e-05
1.4489175078e-05
5.49056431519e-06
6.78089049477e-06
1.45141860942e-05
1.30524321709e-05
7.2906739094e-06
1.09875097953e-05
5.20462050947e-06
1.06443151493e-05
1.19442555581e-05
1.37235112566e-06
9.85471491177e-08
5.392116434e-07
1.279810306e-06
1.57266616523e-06
1.56157182788e-06
6.04887296219e-06
8.39459962536e-06
8.78361817445e-06
5.34627753672e-06
4.4006686516e-06
4.46225352991e-07
3.12566323864e-07
6.0366073614e-07
1.27824993476e-06
5.76047485463e-06
4.78645761427e-06
3.68993928866e-07
7.03288351721e-07
9.06014895654e-08
4.60517302762e-08
3.47927348267e-07
8.95312938182e-07
1.11613565509e-06
1.0446139375e-06
2.80237412845e-06
5.21717143949e-06
3.55157126522e-06
3.4222017186e-06
1.46889046231e-06
2.67966198112e-06
3.02989519611e-06
2.31001463873e-06
4.3450935115e-06
1.60957107619e-06
9.17878299072e-07
9.03483347025e-07
3.29753601903e-07
3.15357682111e-07
5.85030318034e-07
6.9508029809e-07
9.43241038426e-07
1.17743059237e-06
7.3029566705e-07
5.86815417125e-06
8.213672547e-06
2.77645855816e-09
4.77474697883e-08
1.66319132643e-08
5.32484212156e-08
2.73348999054e-06
3.10419570613e-08
3.41191156397e-08
3.56292548543e-08
5.06818030443e-06
7.54705465258e-06
3.8864560534e-06
3.89130339919e-06
4.32571421063e-06
4.30890259436e-06
8.8973899402e-06
8.26082756369e-06
1.33165086259e-05
1.10442905473e-05
6.50301617699e-06
5.89728287046e-06
8.57865958501e-06
6.35252074624e-06
5.9722466782e-06
5.93683841047e-06
5.49018468802e-06
4.25566411743e-06
3.4341428693e-08
1.30040483503e-05
1.30663240124e-06
1.50371666502e-06
3.22698562277e-08
9.1472569013e-07
9.58088272025e-07
6.71788820864e-07
2.20837640364e-07
1.63015521059e-07
2.63292303586e-07
8.81504326859e-08
2.21880150708e-07
1.05308719715e-06
1.40089250925e-06
2.93406572571e-07
7.38778096852e-07
2.09838911111e-07
4.51959992539e-07
2.4361918492e-07
2.98897346865e-07
5.91105070326e-08
7.30564736356e-08
1.88020153792e-06
1.01304491876e-07
2.40934727511e-07
1.57581895881e-06
1.34365300928e-06
1.41840562719e-06
1.10316191826e-05
4.74397289325e-06
6.2109447901e-06
2.23200823495e-05
8.15831462787e-06
7.53497959973e-06
5.70293760708e-06
9.9376744774e-06
4.03588877697e-07
1.25782910117e-06
6.0027136215e-07
2.41012051832e-06
4.79111580898e-07
3.73701269636e-08
4.27396928552e-06
8.46585662404e-06
2.82734916308e-06
3.67594329906e-05
5.87712616806e-06
1.66994733098e-05
1.78878831713e-05
1.35447465884e-05
7.46670315083e-06
6.13580364185e-06
8.08848729594e-06
9.37136090078e-06
9.82407690403e-06
8.09165249452e-06
7.99825551772e-06
9.38453287539e-06
7.38034730091e-06
5.25554378533e-06
4.60335828087e-06
5.80981659201e-06
6.23577057295e-06
8.30081771238e-06
7.85168880197e-07
6.27830527528e-06
6.10105263488e-06
7.66573162066e-06
8.24365614662e-06
1.21301349928e-07
2.4053199083e-08
1.27804821343e-07
4.70271201101e-07
1.05960575734e-07
8.40365106633e-07
1.00108960889e-06
2.14033206577e-07
2.22648861987e-08
4.49216125153e-08
1.05314992448e-08
7.42012146075e-08
6.01169163831e-06
1.9572050649e-06
2.07752190265e-07
4.46100932305e-07
4.89641151802e-08
1.1419847351e-07
2.56595131239e-07
2.18574869058e-05
5.07779548034e-06
1.06369845309e-05
2.51027560307e-05
1.08468675445e-05
4.30991998089e-06
5.55502931238e-05
8.69507680529e-08
4.91985730943e-08
1.42617856149e-08
2.19255166148e-07
8.84441882557e-09
4.46094044874e-09
2.90313614728e-09
1.48656664723e-08
1.68803156651e-08
2.51474945683e-08
7.66232568415e-09
7.16663601191e-06
9.57595770535e-06
5.66772640606e-09
1.08777640705e-08
2.26057894988e-08
2.74248784616e-06
7.14619578279e-07
7.58432384818e-07
1.36071717661e-08
3.05157129018e-08
3.1367631726e-06
8.6014351422e-08
9.07223791546e-08
4.39463054379e-08
1.60104246039e-08
2.71944891039e-08
1.14366534276e-08
1.01423514413e-08
5.25632033075e-08
2.0919816528e-07
1.67111370975e-07
7.12303222704e-08
1.25994514935e-06
1.50939660532e-06
2.59779654017e-07
8.93855134458e-06
7.85916761704e-06
1.28978313814e-07
6.22326150825e-07
4.9145863598e-07
2.01900861517e-07
3.25141507192e-07
5.96259638543e-08
9.05083980555e-08
2.61959573197e-06
8.02757490954e-08
3.33144778741e-08
1.33709422631e-06
2.08269156724e-06
3.0481912084e-08
6.14660822898e-08
4.70505106813e-06
1.93882438142e-06
9.78901097553e-06
2.94867458386e-09
5.12450123765e-08
1.0419021159e-07
3.09301412707e-07
2.20160835959e-07
2.36988685326e-07
1.30162115544e-06
2.45577172098e-07
2.5613103391e-07
1.25038051181e-07
1.6760003759e-06
6.0931019778e-06
9.46580011707e-08
2.97484326658e-06
1.34813634966e-06
2.22872842481e-07
2.45233264582e-06
1.5047522344e-06
1.25378626278e-06
1.88354034767e-06
1.2478555115e-07
7.75661150526e-08
4.04027899945e-07
1.1450621265e-06
1.48178316163e-07
2.14891328294e-07
6.96626149609e-07
1.04509718733e-07
1.28370115668e-07
3.48858794e-07
1.09463128625e-06
8.49061365063e-07
1.95975725587e-07
3.35162053063e-07
2.03657220709e-07
3.83594620107e-07
4.28285477067e-07
1.63652660289e-06
3.0355743621e-06
6.69285285181e-08
5.78957686905e-06
4.94963316794e-06
8.43982912435e-08
2.01337563885e-08
1.99449568543e-08
2.38422935941e-08
6.66893224352e-06
5.58155580632e-06
3.95083224102e-06
2.96475859219e-06
1.83353573231e-06
3.09966665792e-06
2.2844897436e-07
3.3232578098e-07
1.69606321849e-06
2.15502905085e-06
2.81478487416e-07
1.65485783204e-06
1.72093786773e-06
1.16490185204e-06
3.41734171547e-06
3.49229427362e-06
1.45911162603e-06
2.93925396756e-05
1.65631003972e-05
2.1673809988e-06
3.79588271294e-07
1.04283837067e-06
1.07355380124e-06
6.68597145161e-07
5.51459493123e-07
1.48657770135e-05
1.51218243345e-07
3.08059564466e-07
1.09733748017e-07
2.62627662217e-07
1.02726120992e-07
3.18363031287e-07
1.06626746846e-05
3.63484125609e-07
4.07831030749e-07
3.29208740809e-07
7.28310093977e-07
2.61219534533e-07
3.14843913663e-07
6.67205626959e-07
6.50493303389e-07
9.19447291789e-06
1.00583704603e-05
1.40104879647e-06
1.34194704863e-06
1.00401584013e-06
2.70558580793e-06
6.89515940962e-06
4.56980073974e-06
4.15963923368e-08
1.45171023331e-06
2.32366980273e-06
2.09959172498e-05
1.64441326343e-05
2.57516848675e-07
2.8194523752e-07
1.90739372243e-07
2.03719716067e-07
2.95153506033e-07
2.0770297786e-07
2.04297011547e-06
1.63693067161e-06
1.16033125363e-06
8.48227557096e-07
5.31842163143e-07
2.43079360739e-07
5.42496082923e-07
5.36589691232e-07
1.35768479133e-07
2.28750968075e-07
1.6752928425e-05
8.25595699341e-07
1.02748557847e-06
1.79064385755e-07
2.31832952176e-06
1.77136002575e-07
1.44761928227e-07
5.76309876827e-08
9.96271952906e-08
1.45829158712e-07
1.14419340178e-07
7.5908598256e-08
2.42912517528e-05
7.81365252552e-06
1.53748511122e-07
4.08884326433e-07
1.19700562589e-05
2.35679389094e-07
9.10333314233e-07
3.92763052653e-07
3.49337391605e-06
4.59467453377e-07
4.21648923314e-07
1.19937866019e-07
3.35386311231e-07
5.08825916237e-08
3.85204312586e-07
2.17615048315e-07
8.23647775045e-07
1.22575194613e-07
6.39153203258e-07
8.98128245417e-07
2.07838868004e-06
1.25231965266e-06
3.85357141208e-07
3.58623882709e-07
4.33126616114e-07
7.07316982766e-07
8.32264858486e-07
2.54631419765e-07
3.17098036582e-07
2.85750496299e-07
4.56308321849e-07
1.12878101222e-06
7.1909218257e-07
6.23086212283e-07
3.67568120276e-07
1.23477901097e-08
5.29595343621e-07
2.10082176627e-07
7.9832825213e-07
6.04336988746e-07
6.49979960868e-07
1.66989966045e-06
6.33443829446e-07
4.43085313424e-07
1.25952136427e-06
1.34101133149e-06
1.89490280981e-06
9.74703560724e-07
1.7005923882e-06
3.94091653654e-06
3.11864933898e-06
4.88236629501e-06
1.31041728487e-06
9.65531242575e-07
8.77697757764e-07
1.70936105198e-05
5.1025995386e-06
2.66656205498e-06
6.88798933807e-06
7.28608650228e-06
6.87689720718e-06
2.35575268327e-09
4.31262030504e-06
3.5619607872e-06
3.78402436832e-06
1.69867554643e-08
5.00688539387e-06
5.73166627341e-07
3.92955330125e-06
1.50295162998e-06
1.01232415279e-06
4.86000610832e-07
1.3376242449e-05
8.13867217322e-07
9.92561353987e-06
1.10755358294e-05
3.92022949274e-06
5.46272135995e-06
6.42307861089e-06
7.40517639513e-06
2.09851476303e-05
6.95376403504e-06
9.47710247265e-06
9.83636777486e-07
1.71677122497e-07
1.53941313521e-07
2.74101039199e-07
1.54070604061e-07
1.87754796155e-07
2.38267037854e-07
2.75650736944e-07
4.9288127643e-06
1.49604715407e-08
5.84839659056e-08
7.03631912364e-07
2.05172863043e-05
1.28337857447e-06
1.71795229225e-07
1.92807516061e-05
7.45896016241e-06
6.01388196987e-08
8.88590486561e-08
4.11645737602e-06
5.64852457968e-06
8.87878109538e-10
4.1079081749e-07
1.30120920331e-07
1.08923109893e-07
6.28457080151e-06
8.59472208529e-06
8.76972818272e-06
1.10969811599e-05
1.11689799002e-05
2.34441025229e-07
3.5170504798e-06
6.41589936026e-06
6.54352632683e-06
1.02503859472e-07
8.44507616141e-09
8.3531773479e-08
5.78624918825e-08
5.38484681537e-06
5.22346081767e-07
7.8318682934e-06
3.67762747824e-06
1.69685076278e-05
1.76297409221e-07
6.60980734355e-08
1.6230338497e-07
1.00664732689e-05
1.13503698816e-05
7.38222643005e-08
1.63649303904e-05
6.52797032375e-09
3.15320119322e-08
2.3831595621e-07
9.67240298345e-07
1.65205562069e-06
1.88844725104e-06
8.54537854092e-09
4.30484461498e-09
7.92531006539e-06
2.42326369756e-07
7.75908852432e-06
4.58633116432e-09
1.69073376677e-05
1.93823409553e-07
2.98397853671e-05
1.25159450864e-05
1.97688493944e-05
2.30986122489e-06
1.08267414432e-05
1.46059128624e-05
2.0903220403e-09
4.04295194904e-10
1.12552526579e-08
2.81166937551e-10
6.31128035411e-07
3.03015747144e-07
3.3815592323e-07
1.26274761894e-07
8.31558346067e-08
1.11189523712e-07
9.26749252993e-08
6.4897057072e-07
1.29296211449e-06
1.76170332299e-06
4.73474068036e-06
1.04914817846e-06
1.19136548021e-05
2.52694542377e-06
4.39411385265e-06
1.82382558112e-06
1.35187638528e-05
6.71465415613e-07
7.58747474641e-07
7.16351811037e-09
1.62608992328e-08
1.63050593381e-06
1.84893794422e-05
1.2162991644e-06
3.86229505132e-06
1.4273543106e-05
1.87289584016e-06
1.81791501232e-06
2.24661139101e-05
1.82104520208e-05
6.69581024249e-06
2.91683350611e-06
5.33008873853e-06
1.82510765425e-06
1.23856449059e-06
1.75170402723e-06
1.47462164057e-06
6.44203869846e-07
4.8023499553e-06
1.67827324333e-05
2.45040764952e-05
1.34584337747e-06
2.59420181363e-06
1.88059791429e-06
2.67000251321e-06
8.65258767972e-07
2.50493516395e-06
2.04475974878e-06
1.51988361852e-06
2.07436992914e-06
1.59676873868e-06
1.49687950939e-06
6.79046190099e-06
2.97307183272e-06
6.21992154357e-06
2.23532945485e-06
9.77756995184e-07
4.56636018317e-07
1.21504082378e-06
6.2101948577e-07
5.36444391393e-07
8.22565523639e-07
2.56963025446e-06
3.70692952111e-06
1.69138492699e-06
3.35025385917e-06
7.78689119039e-07
1.17170913131e-06
1.40630242275e-06
1.35473824078e-06
2.1130990793e-06
2.16094226231e-06
1.91823922904e-06
4.55671326904e-06
1.58404655838e-07
2.44895011853e-06
6.4961665095e-07
2.99249962969e-06
2.13881347988e-07
1.81727196416e-07
1.16578075011e-05
4.65775980233e-06
4.15588309942e-06
3.63170032378e-06
2.91974804336e-06
4.01155355512e-06
4.35498733292e-06
4.44552333286e-06
4.93993590995e-06
5.20652643674e-06
1.91636172037e-05
2.33554677261e-06
2.40935788803e-05
5.29571190088e-05
4.6394267031e-05
5.30461008856e-05
7.58755534792e-06
3.26026369573e-06
8.57067713965e-06
2.63142832135e-06
1.05103842346e-05
1.11517036281e-05
2.64152018947e-06
1.38470178048e-09
2.78553889501e-06
2.62471764348e-06
1.09912205759e-05
4.04040207046e-06
3.15931023231e-06
1.40030809487e-05
3.3266964896e-06
3.01367876385e-09
2.98761051824e-06
5.45029056228e-06
3.57895538588e-06
6.09458678607e-06
1.74120961814e-05
5.47995719432e-06
1.39875294893e-05
1.50408445518e-05
2.57089177172e-06
4.19566486703e-06
5.65374638071e-06
2.65740071757e-06
5.40835816702e-06
3.95914523165e-06
3.20223558752e-06
3.39145710072e-06
5.41320300984e-07
1.72200966936e-06
4.52699814451e-06
1.84003999624e-06
6.29771412285e-06
1.13823393065e-06
3.05763706117e-06
4.78124175238e-06
1.31662113673e-05
1.20703779635e-05
1.30785160005e-05
1.66346608505e-06
9.19808352098e-08
1.80894586811e-06
1.40822837632e-05
4.97593256359e-09
4.55940785626e-08
9.82199591206e-06
3.26662848977e-05
1.24925180915e-05
4.0012482717e-08
1.40754653881e-05
7.00124615724e-08
6.71671125128e-07
1.70571380798e-05
4.10145371263e-06
1.27322338003e-06
1.12402281946e-06
1.14484266777e-05
4.91156682077e-07
1.99477037384e-06
2.43527497776e-06
9.77308050982e-07
3.40212732306e-07
2.18125587552e-06
1.05746996461e-06
4.01110327825e-07
3.86968717625e-06

