# vtk DataFile Version 3.0
File Name: Molecule/sphere_excent/sphere_excent_0-s22.vtk
ASCII
DATASET UNSTRUCTURED_GRID
FIELD FieldData 1
TIME 1 1 double
0.0
POINTS 219 double
0.0079939514399 0.84915566444 0.52784228325
-0.45945385098 0.78490948677 0.41534209251
-0.32965672016 0.59551417828 0.73226982355
-0.34806242585 -0.60495066643 0.71654671431
0.0069624208845 -0.84814703465 0.52977007627
0.017878461629 -0.50320100784 0.86416989565
0.34125036001 -0.59426212311 0.72810959816
0.50054562092 -0.80923527479 0.30721366405
0.84201443195 -0.32883471251 0.42631396651
0.85703057051 -0.51045262814 0.048086378723
0.98967593908 -0.11668239534 0.084043353796
0.51807457209 0.72788751125 0.44825851917
0.3711720705 0.56888657808 0.73344713449
0.73303765059 0.33951041102 0.58849048615
-0.8616566062 -0.3422947526 -0.37509939075
-0.83997017145 -0.54162478447 0.025851687416
-0.9912301898 -0.112733908 0.067039109766
-0.55283385515 -0.79940599203 -0.23466086388
-0.49610388279 -0.81528699398 0.29847183824
-0.0014762356877 -0.99960130453 0.018342584372
-0.79769396782 -0.33964380622 0.4984421432
-0.87974178791 0.19019447267 0.43480157852
0.50283539295 -0.83617293835 -0.21409425139
0.0040477137081 0.99977660179 0.0077975634485
-0.2723236382 0.94507461786 0.18026541173
-0.26090469956 0.94853132963 -0.17956349254
-0.51850390434 0.85497564077 -0.0018553265836
-0.47596412897 0.79604381323 -0.37310281396
0.034627545625 0.91490250826 -0.3998028338
0.27059155703 0.95118570328 -0.14839603007
0.27922105789 0.93833202124 0.20316572487
0.45952141285 0.88788276911 0.021340038627
0.42175278068 0.82458734512 -0.37524524331
0.59160983562 0.50548923016 -0.6279732585
0.41517621279 0.69863796234 -0.58214730024
0.62101447582 0.64682537317 -0.44237089157
0.11728401482 0.79070597887 -0.59925353527
0.94788587093 -0.22793547809 -0.22335384786
0.79150080681 -0.41262716055 -0.4488838017
0.87421673536 -0.11385380477 -0.47214716673
0.97323250771 0.012746158987 -0.22902221978
0.49503847957 -0.032456796616 -0.86829960346
0.42740112543 -0.26546508074 -0.86412835121
0.26614829898 0.017159380019 -0.96374869347
0.17301405966 -0.23097355664 -0.95751368999
0.32475852966 -0.49793979526 -0.80419409275
-0.0044057834893 0.059313803911 -0.99713248014
0.68373310566 -0.23309953511 -0.69141513109
0.57293403149 -0.4565987885 -0.68044602871
0.47605609894 -0.67410618067 -0.56490057707
0.67424404621 -0.64528167248 -0.35822936893
0.71342515945 0.35020917654 -0.60688066483
0.74495059252 0.47970327735 -0.4635668993
0.4458271265 0.44561091065 -0.77627664804
0.57666492462 0.32053676248 -0.75140440464
0.41364172101 0.23270709813 -0.87993776798
0.58857411146 0.13779570162 -0.7965067029
0.68042063713 0.21852998435 -0.69947445393
0.82572758198 0.31603518128 -0.46720546484
0.77491384745 0.20278120041 -0.59856724739
0.16376692057 0.37612020969 -0.9106721282
0.079608872533 0.22040359676 -0.97098177671
0.75331521034 -0.052193582058 -0.65547895432
0.01698502712 0.5483276248 0.8359541297
-0.2001889348 0.3628616631 0.91006499529
-0.45092925429 0.33464986086 0.82709932327
-0.59883564711 -0.066337972879 0.79755359888
-0.47360679507 -0.29492619634 0.82957404852
-0.37399074435 -0.063698202372 0.92517775297
-0.22250704467 -0.30661740899 0.92538118362
0.93567055464 0.12310636044 0.33000293374
0.96751356125 0.22325150669 0.11741566658
0.84900224209 0.43877491355 0.29442849755
-0.95137321949 0.066449083388 -0.3007388413
-0.74937719107 -0.12047373503 -0.65001285076
-0.81832939386 0.21195167303 -0.53410708904
-0.86671072245 0.41448450089 -0.27734184265
-0.9641726613 0.26436823606 0.018434502184
-0.84941965342 0.52763426304 0.0033103241585
-0.66338264942 0.59177428484 -0.45782843232
-0.70650565624 0.68276232481 -0.18653027713
-0.69697290659 0.68866342306 0.19941598177
-0.4629072547 -0.32331252098 -0.82529163361
-0.60449773073 -0.46924397349 -0.64395332336
-0.59225684404 -0.13387066126 -0.79377031326
-0.34528583288 -0.54460543394 -0.76433420181
-0.3714876771 -0.74583810568 -0.55259716511
0.51843345165 0.84094673395 -0.15412713587
0.66891461611 0.71341991425 -0.20825754106
0.65479809046 0.75589305162 0.0045963516459
0.81580936909 0.57798844576 -0.0072411373258
0.71924757957 0.66924059391 0.18680895865
0.54514974356 0.81644243002 0.19024784863
-0.65593576431 0.53982615471 0.52739340067
-0.84460419416 0.46320044994 0.26845949888
0.83244264126 0.44882535934 -0.32458654046
0.76707786322 0.57646924257 -0.28152662516
-0.1489572525 -0.044047381729 0.98770171404
0.067022792995 -0.036864802241 0.99706619978
-0.021671479568 -0.2152633965 0.97616839409
0.18245668709 -0.23339277506 0.95502007008
0.50440180302 0.27649068832 0.81795930862
-0.0034468360245 0.3026150763 0.95304065943
0.17078472674 0.29343366623 0.9405041337
-0.065131187439 0.13437785208 0.98869550228
0.13700516522 0.13152180612 0.98177582026
0.29816144705 0.39411780238 0.86933410168
-0.28123688698 0.14863729477 0.94775891304
-0.53377562761 0.12822687626 0.83574271202
0.34123536944 0.17091502249 0.92433983088
0.52164447308 -0.026029093191 0.85255151987
0.27518951893 -0.019409703091 0.96119213104
0.10494500399 -0.58545178175 -0.80379754305
0.098575152457 -0.43774437904 -0.89362096786
-0.012467588298 -0.91331619024 -0.40587702394
0.22653877735 -0.90684944391 -0.35458493233
0.85553079844 0.14013250172 -0.49834275246
0.80253201723 0.058716267347 -0.59366744757
0.71607768536 0.09021140635 -0.69214606285
0.65039652586 -0.010122020729 -0.75951325893
0.25551834702 -0.67537420988 -0.69183415174
0.098429329693 -0.84235811234 -0.52974051237
0.30128705502 -0.79947125912 -0.5195838213
0.14053755999 -0.75554931164 -0.63955688477
-0.25793424249 -0.89080739021 -0.37371245027
-0.017190046608 -0.76277667284 -0.64631229639
0.076329618692 -0.69090902805 -0.71886116266
-0.04650497064 -0.67449069023 -0.73684120178
-0.19377192855 -0.72019833326 -0.66616475582
-0.1315113157 -0.83264786005 -0.53809648752
-0.15732626617 -0.62133324146 -0.76752907038
-0.051750525832 -0.58770269156 -0.80740869045
-0.12754158676 -0.53181618452 -0.83719217777
-0.017520576715 -0.50353193283 -0.86370480061
-0.7353156209 0.40676316619 -0.54207009077
-0.65306961536 0.28454440832 -0.70178979635
-0.58525407314 0.44106090069 -0.68034625053
-0.46353164315 0.28020146489 -0.83969944715
-0.68306559324 0.122541897 -0.71972090006
-0.28558140993 0.55128145218 -0.78342890739
-0.41788223386 0.43853148818 -0.79555422068
-0.48630395532 0.57538330555 -0.6573933363
-0.55055373907 0.16658131778 -0.81795740128
-0.56854134798 0.041026931256 -0.82157617807
-0.45429202914 0.071103289723 -0.88790506124
-0.39409068227 0.19164811075 -0.89880758524
0.50035709143 -0.30237472057 0.81130123138
0.69243955612 -0.18340058625 0.69774371386
0.61357408762 -0.45443558693 0.64541089535
0.82005363703 0.002512967214 0.57221060991
0.67397075891 0.10967929661 0.73054492474
-0.7429818511 0.077348180115 0.66410291195
-0.67828476429 0.27735108137 0.68033480644
0.29372930527 -0.38704627752 0.87396085262
0.37170517445 -0.18174308538 0.91041046381
-0.22319763899 -0.44630256295 -0.86659318209
-0.29923549294 -0.35049849749 -0.8872295022
-0.0066755232401 -0.31068968773 -0.95046079159
-0.14847269654 -0.36491915584 -0.91910219193
-0.03870832175 -0.41380995512 -0.90953183174
-0.11914836615 -0.45197543502 -0.88402956724
-0.21551504731 -0.53545737267 -0.81659787893
0.92166942358 0.089796796441 -0.37668380141
0.91526472569 0.39913898706 0.054377280176
0.9878706336 0.13862369955 -0.06537655741
0.85435807705 0.48918282986 -0.17528599501
0.93911296129 0.17636543512 -0.29485321045
0.96188545227 0.20811860263 -0.17719347775
0.92574620247 0.28800871968 -0.24496169388
0.90246272087 0.26433140039 -0.34004107118
0.93343704939 0.32616236806 -0.14932249486
0.88273662329 0.35086762905 -0.31237155199
0.89417117834 0.39288789034 -0.21469429135
0.9027248621 0.42275997996 -0.079869881272
0.89147561789 0.19932338595 -0.40696913004
0.95672184229 0.2879525423 -0.041712824255
-0.051523532718 -0.17131403089 -0.98382163048
-0.181570068 -0.24622747302 -0.95205307007
-0.2135463953 -0.1149032414 -0.97006887197
-0.32624915242 -0.24379488826 -0.91294753551
-0.26283442974 0.84499168396 -0.46359801292
-0.068689256907 0.52188318968 -0.84987187386
-0.12831379473 0.62635397911 -0.7689255476
0.008641271852 0.6167910099 -0.78698402643
-0.042396660894 0.72015941143 -0.69253313541
-0.22074753046 0.69001978636 -0.6892323494
0.1177899614 0.67478704453 -0.72851288319
-0.076834738255 0.82079422474 -0.56516444683
0.70957964659 -0.69607770443 -0.10852061957
0.8352676034 -0.50415027142 -0.21947067976
0.41197344661 0.58099573851 -0.70190554857
0.26255553961 0.67797487974 -0.68658345938
0.27917933464 0.57320690155 -0.77030318975
0.29962870479 0.44490987062 -0.84388309717
-0.33659794927 0.75517237186 -0.56241106987
-0.47812542319 0.69389539957 -0.53838407993
-0.35694894195 0.65909409523 -0.6619912982
0.14429855347 0.54582351446 -0.82524269819
-0.18143585324 0.77040857077 -0.61105388403
0.037495691329 0.45851355791 -0.88780450821
-0.13326869905 -0.028248222545 -0.99067175388
-0.18148061633 0.082523159683 -0.97993814945
-0.27051997185 -0.010636143386 -0.96267402172
-0.32681128383 0.099933058023 -0.93969982862
-0.33813604712 -0.097212798893 -0.93603622913
-0.39002212882 -0.013487583026 -0.92070066929
-0.46195140481 -0.11543895304 -0.8791128993
-0.50667589903 -0.033129755408 -0.86156982183
-0.65190023184 -0.030668666586 -0.75767886639
-0.28333488107 -0.17025275528 -0.94376164675
-0.38521596789 -0.17379404604 -0.9061332345
-0.1002702713 0.1973117888 -0.97512418032
-0.02273007296 0.34544125199 -0.93806946278
-0.18918180466 0.3115132153 -0.93130481243
-0.25900688767 0.20555986464 -0.94370245934
-0.32635855675 0.30372613668 -0.89488869905
-0.17750540376 0.52795243263 -0.83049619198
-0.24694249034 0.43039157987 -0.86801755428
-0.12909758091 0.42030537128 -0.89799821377

CELLS 434 1736
3 0 1 2
3 3 4 5
3 6 4 7
3 8 7 9
3 9 10 8
3 11 12 13
3 11 0 12
3 14 15 16
3 15 17 18
3 17 19 18
3 18 19 4
3 15 18 20
3 18 3 20
3 18 4 3
3 21 16 20
3 20 16 15
3 14 17 15
3 22 7 19
3 19 7 4
3 23 24 0
3 0 24 1
3 23 25 24
3 25 26 24
3 25 27 26
3 24 26 1
3 28 25 23
3 29 30 31
3 29 23 30
3 23 29 28
3 28 29 32
3 11 30 0
3 30 23 0
3 33 34 35
3 35 34 32
3 28 32 36
3 9 37 10
3 38 39 37
3 39 40 37
3 37 40 10
3 41 42 43
3 42 44 43
3 42 45 44
3 43 44 46
3 41 47 42
3 47 48 42
3 47 38 48
3 42 48 45
3 49 48 50
3 38 47 39
3 51 33 52
3 53 54 55
3 53 33 54
3 41 55 56
3 54 51 57
3 54 33 51
3 51 58 59
3 60 55 61
3 43 55 41
3 47 62 39
3 2 63 0
3 0 63 12
3 2 64 63
3 2 65 64
3 66 67 68
3 67 69 68
3 67 3 69
3 3 67 20
3 20 67 66
3 10 70 8
3 10 71 70
3 71 72 70
3 70 72 13
3 13 72 11
3 16 73 14
3 14 73 74
3 75 73 76
3 73 77 76
3 73 16 77
3 76 77 78
3 27 79 80
3 79 76 80
3 80 76 78
3 21 77 16
3 27 80 26
3 26 80 81
3 75 74 73
3 82 83 84
3 82 85 83
3 74 83 14
3 14 83 17
3 17 83 86
3 32 87 88
3 87 89 88
3 87 31 89
3 88 89 90
3 90 89 91
3 89 92 91
3 89 31 92
3 91 92 11
3 31 87 29
3 29 87 32
3 11 92 30
3 30 92 31
3 32 88 35
3 90 91 72
3 72 91 11
3 1 93 2
3 2 93 65
3 1 81 93
3 81 94 93
3 81 78 94
3 93 94 21
3 78 81 80
3 26 81 1
3 58 52 95
3 52 96 95
3 52 35 96
3 35 52 33
3 51 52 58
3 68 69 97
3 98 99 100
3 99 5 100
3 99 69 5
3 6 5 4
3 5 69 3
3 21 94 77
3 77 94 78
3 90 96 88
3 88 96 35
3 12 101 13
3 64 102 63
3 102 103 63
3 64 104 102
3 104 105 102
3 104 98 105
3 102 105 103
3 103 106 63
3 63 106 12
3 68 107 108
3 65 107 64
3 64 107 104
3 107 97 104
3 107 68 97
3 104 97 98
3 12 106 101
3 106 109 101
3 106 103 109
3 101 109 110
3 103 105 109
3 105 111 109
3 105 98 111
3 109 111 110
3 100 111 98
3 98 97 99
3 99 97 69
3 112 113 45
3 45 113 44
3 114 115 19
3 115 22 19
3 48 49 45
3 57 56 54
3 54 56 55
3 116 59 58
3 51 59 57
3 116 117 59
3 117 118 59
3 117 62 118
3 59 118 57
3 62 117 39
3 39 117 116
3 57 118 56
3 118 119 56
3 118 62 119
3 56 119 41
3 41 119 47
3 119 62 47
3 45 120 112
3 114 121 115
3 121 122 115
3 121 123 122
3 115 122 22
3 22 122 49
3 122 120 49
3 122 123 120
3 49 120 45
3 17 124 19
3 124 114 19
3 123 125 126
3 125 127 126
3 125 128 127
3 126 127 112
3 128 86 85
3 85 86 83
3 128 129 86
3 129 124 86
3 129 114 124
3 86 124 17
3 85 130 128
3 128 130 127
3 130 131 127
3 130 132 131
3 127 131 112
3 113 112 133
3 123 126 120
3 120 126 112
3 128 125 129
3 121 125 123
3 114 129 121
3 121 129 125
3 75 134 135
3 134 136 135
3 134 79 136
3 135 136 137
3 79 134 76
3 134 75 76
3 75 138 74
3 139 140 141
3 140 136 141
3 140 137 136
3 141 136 79
3 137 142 135
3 142 138 135
3 142 143 138
3 135 138 75
3 144 142 145
3 110 146 147
3 146 148 147
3 146 6 148
3 147 148 8
3 8 148 7
3 7 148 6
3 8 149 147
3 149 150 147
3 149 13 150
3 147 150 110
3 66 151 20
3 151 21 20
3 66 108 151
3 108 152 151
3 108 65 152
3 151 152 21
3 21 152 93
3 152 65 93
3 65 108 107
3 108 66 68
3 13 149 70
3 70 149 8
3 100 153 154
3 153 146 154
3 153 6 146
3 154 146 110
3 6 153 5
3 5 153 100
3 155 85 156
3 110 150 101
3 101 150 13
3 100 154 111
3 111 154 110
3 44 113 157
3 158 159 160
3 159 133 160
3 159 113 133
3 160 133 132
3 158 160 155
3 161 155 132
3 160 132 155
3 155 161 85
3 85 161 130
3 130 161 132
3 132 133 131
3 131 133 112
3 116 162 39
3 39 162 40
3 71 163 72
3 163 90 72
3 40 164 10
3 164 71 10
3 90 165 96
3 96 165 95
3 40 166 167
3 166 168 167
3 166 169 168
3 167 168 170
3 169 171 168
3 171 172 168
3 171 95 172
3 168 172 170
3 95 171 58
3 58 171 169
3 170 172 173
3 172 165 173
3 172 95 165
3 173 165 90
3 169 174 58
3 58 174 116
3 116 174 162
3 174 166 162
3 174 169 166
3 162 166 40
3 40 167 164
3 167 175 164
3 167 170 175
3 164 175 71
3 71 175 163
3 175 173 163
3 175 170 173
3 163 173 90
3 44 176 46
3 44 157 176
3 157 177 176
3 157 158 177
3 176 177 178
3 177 156 179
3 177 158 156
3 179 156 82
3 82 156 85
3 155 156 158
3 158 157 159
3 159 157 113
3 25 28 180
3 181 182 183
3 182 184 183
3 182 185 184
3 183 184 186
3 185 182 139
3 186 184 36
3 184 187 36
3 36 187 28
3 34 36 32
3 22 188 7
3 188 9 7
3 38 189 50
3 189 188 50
3 189 9 188
3 50 188 22
3 187 180 28
3 25 180 27
3 9 189 37
3 37 189 38
3 53 190 33
3 33 190 34
3 34 190 191
3 190 192 191
3 190 53 192
3 191 192 186
3 60 193 55
3 193 53 55
3 27 194 195
3 194 196 195
3 194 185 196
3 195 196 141
3 60 197 193
3 197 192 193
3 197 186 192
3 193 192 53
3 38 50 48
3 49 50 22
3 141 196 139
3 139 196 185
3 27 195 79
3 79 195 141
3 187 198 180
3 198 194 180
3 198 185 194
3 180 194 27
3 186 197 183
3 181 183 199
3 185 198 184
3 184 198 187
3 34 191 36
3 36 191 186
3 46 200 201
3 200 202 201
3 200 178 202
3 201 202 203
3 178 204 202
3 204 205 202
3 204 206 205
3 202 205 203
3 203 205 144
3 205 207 144
3 205 206 207
3 144 207 143
3 208 143 84
3 207 84 143
3 207 206 84
3 208 84 74
3 74 84 83
3 82 84 206
3 143 208 138
3 138 208 74
3 142 144 143
3 178 200 176
3 176 200 46
3 178 209 204
3 209 210 204
3 209 179 210
3 204 210 206
3 206 210 82
3 82 210 179
3 179 209 177
3 177 209 178
3 46 61 43
3 43 61 55
3 46 211 61
3 211 212 61
3 211 213 212
3 61 212 60
3 203 145 214
3 145 215 214
3 145 137 215
3 214 215 213
3 139 216 217
3 216 218 217
3 216 181 218
3 217 218 213
3 213 218 212
3 218 199 212
3 218 181 199
3 212 199 60
3 213 215 217
3 140 215 137
3 139 217 140
3 140 217 215
3 60 199 197
3 197 199 183
3 181 216 182
3 182 216 139
3 213 211 214
3 201 211 46
3 203 214 201
3 201 214 211
3 137 145 142
3 144 145 203

CELL_TYPES 434
5
5
5
5
5
5
5
5
5
5
5
5
5
5
5
5
5
5
5
5
5
5
5
5
5
5
5
5
5
5
5
5
5
5
5
5
5
5
5
5
5
5
5
5
5
5
5
5
5
5
5
5
5
5
5
5
5
5
5
5
5
5
5
5
5
5
5
5
5
5
5
5
5
5
5
5
5
5
5
5
5
5
5
5
5
5
5
5
5
5
5
5
5
5
5
5
5
5
5
5
5
5
5
5
5
5
5
5
5
5
5
5
5
5
5
5
5
5
5
5
5
5
5
5
5
5
5
5
5
5
5
5
5
5
5
5
5
5
5
5
5
5
5
5
5
5
5
5
5
5
5
5
5
5
5
5
5
5
5
5
5
5
5
5
5
5
5
5
5
5
5
5
5
5
5
5
5
5
5
5
5
5
5
5
5
5
5
5
5
5
5
5
5
5
5
5
5
5
5
5
5
5
5
5
5
5
5
5
5
5
5
5
5
5
5
5
5
5
5
5
5
5
5
5
5
5
5
5
5
5
5
5
5
5
5
5
5
5
5
5
5
5
5
5
5
5
5
5
5
5
5
5
5
5
5
5
5
5
5
5
5
5
5
5
5
5
5
5
5
5
5
5
5
5
5
5
5
5
5
5
5
5
5
5
5
5
5
5
5
5
5
5
5
5
5
5
5
5
5
5
5
5
5
5
5
5
5
5
5
5
5
5
5
5
5
5
5
5
5
5
5
5
5
5
5
5
5
5
5
5
5
5
5
5
5
5
5
5
5
5
5
5
5
5
5
5
5
5
5
5
5
5
5
5
5
5
5
5
5
5
5
5
5
5
5
5
5
5
5
5
5
5
5
5
5
5
5
5
5
5
5
5
5
5
5
5
5
5
5
5
5
5
5
5
5
5
5
5
5
5
5
5
5
5
5
5
5
5
5
5
5
5
5
5
5
5
5
5
5
5
5
5
5
5
5
5
5
5
5
5
5
5
5
5

CELL_DATA 434
SCALARS cell_data_0 double
LOOKUP_TABLE default
2.26036384647e-05
4.28962964365e-06
2.95420342865e-05
1.19415831961e-05
1.11370237068e-05
2.34498393995e-05
2.71395037787e-05
3.64367983343e-06
6.12690547373e-06
1.30076350649e-05
1.52198508479e-05
1.82660871298e-05
3.39059953543e-05
2.92953493609e-05
1.99615907313e-05
1.17349281816e-05
8.23780954589e-07
1.36006570065e-05
1.51847785858e-05
4.17441651385e-06
1.17615004683e-05
2.20800483149e-06
4.00290435223e-06
2.64519391191e-06
6.32492431802e-06
2.45232543679e-05
2.8999528677e-06
2.22871269009e-06
2.20660314599e-05
1.88432351969e-05
1.55468542368e-05
3.82199501785e-06
7.03214751405e-08
8.11547065496e-07
2.04397185394e-05
1.60361863363e-05
1.55318822877e-05
9.95818855342e-07
3.54634948203e-06
3.56242081273e-06
2.42479006973e-07
1.17969686982e-06
2.83542878476e-06
4.02337858771e-06
3.08368535103e-07
1.64463697002e-05
1.3448972284e-06
1.97675622483e-07
1.8212029597e-05
3.10351004272e-06
4.45926239709e-08
2.0994689608e-08
2.4678007727e-06
9.088015758e-06
7.78374860575e-08
3.16150401124e-08
1.29077825775e-06
3.36514903508e-06
1.44616780797e-05
2.08856579718e-05
3.00928956584e-05
1.11693042322e-05
9.41990296705e-06
2.50309218459e-05
2.80184611599e-05
2.90804637874e-05
3.34982674238e-05
2.41716753167e-05
4.35368051709e-06
1.23884237398e-07
4.28280001495e-06
9.64131865549e-06
1.52453595853e-05
3.27907398261e-06
1.00596894363e-06
9.6791392345e-07
1.24593115058e-06
2.10981055578e-06
1.31989454216e-06
6.65675592407e-06
9.05080038092e-07
1.31515226862e-06
7.89923905101e-06
4.76807592921e-06
2.84220288093e-06
3.34047255962e-07
2.04665059643e-06
4.24854079086e-06
7.6000179485e-07
1.28491749943e-06
5.82552823531e-07
5.07992865109e-07
1.16343700557e-06
1.39531088311e-06
4.59597248765e-07
2.56861088158e-07
1.70279303172e-06
1.70552412645e-06
3.81029979611e-06
1.59099653105e-06
8.82997328727e-07
5.46255637655e-06
2.54041313233e-06
1.78486330339e-07
9.6000279675e-07
6.99180568194e-06
1.61730587525e-05
2.12109057176e-05
8.00478899868e-06
5.27731827264e-06
9.41751524213e-07
9.19275460005e-06
6.12401690377e-07
5.64293008098e-06
4.01166490868e-06
3.30513373166e-06
2.97995812161e-06
3.34921378759e-06
2.70697901431e-06
2.94676118463e-05
3.5759689093e-05
2.12878258393e-05
1.37683277615e-05
6.52623494367e-06
4.38087422282e-05
4.87971180274e-06
1.60217064879e-07
1.37337412963e-06
5.50565720055e-07
2.59850163847e-05
2.99687069602e-05
2.83778620495e-05
2.98280424211e-05
9.76485652069e-06
1.35216947606e-05
2.30033677884e-05
2.39018701618e-05
2.71452277763e-05
3.35231690869e-05
2.99573809965e-05
3.86307989078e-05
1.21042656385e-05
1.9491698022e-05
1.50683268168e-05
1.8938710324e-05
2.09722247053e-05
2.16923017781e-05
2.74969077574e-05
2.48263180449e-05
1.02242968995e-05
1.32092217735e-05
2.08376943915e-05
1.92393931704e-05
3.99209416741e-05
4.32323556152e-05
1.48934257043e-05
1.21436274195e-06
1.5006434232e-05
3.84151502172e-06
1.60263882519e-06
8.66238747593e-06
6.82927601231e-08
1.23661798529e-05
7.23133534631e-06
8.65869545151e-06
5.67303238911e-08
5.3795056138e-06
6.23281414519e-06
9.23203904465e-06
1.53149941012e-05
7.33549659082e-06
1.13348573546e-07
6.26154204158e-06
1.89181515919e-06
2.65865798337e-06
9.97872628626e-06
1.50199792738e-05
6.52645796748e-06
4.44778370238e-07
1.97079075916e-05
1.13060316015e-06
8.81188501807e-07
7.25593558395e-08
2.10687581913e-05
9.08734160131e-07
3.62714412832e-06
1.48214170911e-05
1.22523691397e-05
4.55282473151e-08
1.50212261549e-05
5.4872335946e-06
4.00925144712e-05
1.33305602196e-06
2.51217481535e-05
5.96924628945e-07
6.65667574693e-06
8.18350489273e-07
2.34223839518e-05
1.26485913236e-05
1.37380372161e-08
4.69963345143e-08
5.54746043262e-06
6.83191867335e-06
1.33662814758e-05
7.66481693092e-06
1.90807525091e-05
1.62715968011e-05
5.90755266302e-06
1.40533639912e-07
1.50055307633e-07
1.46985061398e-07
1.43634453157e-07
2.53690132545e-05
5.0864818585e-07
4.49835284492e-07
3.26801314804e-07
1.03644013992e-05
8.78945253463e-06
4.584698057e-05
2.00131036075e-07
3.08560050733e-05
4.15665031301e-06
1.02425816916e-05
1.47089770559e-07
3.257059736e-06
1.75383623256e-05
6.04324421437e-06
1.55282409787e-05
6.91462736575e-06
1.42858406288e-05
1.95806110463e-05
6.64496633276e-06
2.41719161252e-06
6.96258345855e-06
1.37208085447e-05
1.78732000298e-05
3.08445839778e-06
2.79403052069e-05
2.93781860251e-06
8.87913743175e-06
4.50908986521e-06
1.27794921888e-05
1.74188037203e-05
2.47079931356e-05
9.89507685506e-06
9.7044352848e-06
7.80208698936e-06
1.05298206738e-05
1.50796199383e-05
1.93503157248e-05
1.88099647915e-05
2.74220360907e-05
3.618998628e-05
4.26712141824e-07
1.19772320813e-05
9.09798698751e-06
1.15986784948e-05
1.65153414041e-05
2.11220429897e-07
2.19537725532e-08
2.36212313787e-09
6.64237212718e-08
4.26995398069e-08
2.05727907948e-08
1.03889935471e-07
3.38153983355e-08
4.12159824999e-07
4.65152636166e-07
1.15640556189e-07
4.70169847631e-08
4.98615499552e-06
1.90780799301e-05
9.85443159753e-08
2.35897392254e-06
1.32051250552e-07
3.29505558326e-06
2.12552045861e-06
1.25078439769e-06
5.20187711785e-07
2.02856353819e-07
8.35648567729e-09
2.31895226013e-08
9.61064022357e-06
3.11516137726e-08
8.90287491742e-09
3.72121050866e-07
8.53579138986e-06
7.34949079327e-07
1.37257878258e-07
1.05268170381e-05
1.29241609515e-07
3.36395565497e-07
8.32261834183e-07
2.03182569452e-07
9.53497036506e-06
8.04162114191e-06
3.84352681239e-07
1.51187507336e-07
1.24438495524e-07
3.85346854953e-07
2.87143552524e-07
1.21353036222e-05
7.71869297433e-07
8.02703215553e-07
3.4647919993e-07
1.16242857706e-05
9.21373665874e-07
3.76728870565e-06
6.30290204791e-07
4.23913954992e-07
4.64415488223e-08
9.50371310977e-06
1.73726540456e-08
3.50495751901e-08
6.13615812367e-07
2.521606319e-06
2.86513740134e-08
3.47284979307e-08
7.49279631899e-08
1.62105814097e-05
6.67309569369e-06
3.14885734875e-08
1.146434461e-05
1.48708548971e-05
1.33571186403e-05
2.11045421402e-05
2.32718764954e-08
8.34793319572e-06
1.18804984169e-06
5.28258884218e-06
1.8743841228e-06
1.02094791671e-05
1.20836052565e-06
8.73752800788e-07
1.40447308376e-06
1.04728564111e-05
4.97230511647e-06
1.41887942708e-06
1.17851601082e-05
2.72908185348e-07
5.42604985444e-07
3.87808196792e-07
2.00904237266e-07
2.03369954069e-07
1.58129000542e-05
1.04667716115e-06
4.96603942279e-08
2.27622140029e-06
4.50930548032e-08
1.1184772484e-05
3.03122854535e-08
8.4989981673e-07
8.43822179913e-08
1.87396497953e-05
1.18830066193e-08
1.83246798985e-05
9.1014914226e-07
4.3008442825e-08
1.40473085739e-05
3.67202999089e-06
1.20489229637e-07
1.55686018465e-07
2.40182462054e-08
1.04124509784e-05
3.11924966073e-06
1.55525768243e-05
6.95854500373e-06
1.08498323667e-05
3.50415136024e-08
6.65232143707e-08
1.95201213262e-05
8.45115394171e-07
7.39375453827e-08
5.54317910946e-06
1.47168773819e-05
5.00626629918e-06
8.47613153401e-09
8.86692143727e-06
1.28349625142e-05
1.24371499568e-05
1.76133209523e-08
8.33020926473e-06
2.46900432714e-06
3.18075858303e-06
3.15531498109e-06
9.75108930675e-06
8.21835762363e-08
2.54613460195e-07
2.78371573355e-05
3.85185311383e-06
1.42197962918e-07
8.35253870523e-06
9.08884948444e-06
1.7533062768e-06
3.44367699414e-06
1.26061438925e-08
1.1249248513e-08
6.86099266969e-06
1.62430541538e-05
5.53833274812e-07
9.68082808691e-10
4.62737275777e-06
1.78204745428e-06
2.21295776347e-08
1.01717704147e-06
9.65386212065e-09
2.31486162999e-05
7.05854662026e-07
1.303243107e-05
1.13747212817e-08
1.04161995657e-05
1.50752714895e-05
3.59229952903e-08
1.52510929481e-09
5.1924416022e-06
1.49358243183e-05
1.72073147523e-05
2.58345015379e-09
6.48982242836e-06
5.19085243976e-07
1.8578398759e-05
3.26536184207e-05
7.6456946618e-06
7.73040268307e-06
6.47018452843e-07
2.31064620997e-08
5.28951973358e-06
3.31784148467e-08
1.8247914256e-05
9.99661826693e-07
1.62355045877e-05
9.85719851579e-08
2.0123288374e-05
1.35482615094e-05

