# vtk DataFile Version 3.0
File Name: Molecule/sphere_excent/sphere_excent_0-s40.vtk
ASCII
DATASET UNSTRUCTURED_GRID
FIELD FieldData 1
TIME 1 1 double
0.0
POINTS 577 double
0.34347751737 -0.6547062397 0.67332875729
0.084993548691 -0.84505081177 0.52531659603
0.47598776221 -0.8104891777 0.33466717601
0.81923419237 -0.54420018196 0.16790191829
0.63557088375 -0.53142029047 0.55881160498
0.67821377516 -0.72270983458 0.12575136125
0.47340980172 0.70468461514 0.52838695049
0.43431639671 0.54938709736 0.71374028921
0.66682451963 0.40951153636 0.6223950386
-0.33001413941 0.83201807737 0.44579800963
-0.30770289898 0.92593216896 0.21863649786
-0.50410437584 0.81895959377 0.27399265766
0.071036197245 0.94573414326 -0.31541785598
0.26207238436 0.95130580664 -0.16029810905
0.35253676772 0.88152486086 -0.31400927901
0.26683926582 0.91221529245 0.30934289098
0.23457124829 0.77107071877 0.59189981222
0.69300991297 -0.62398391962 -0.35915896297
0.56832146645 -0.6483322382 -0.50647741556
0.67647737265 -0.50172674656 -0.53908121586
0.6794680953 0.61780571938 0.39540010691
-0.50916749239 0.80682629347 -0.29886546731
-0.67860883474 0.72132819891 -0.13823911548
-0.55551046133 0.83011555672 -0.011605400592
-0.47282910347 -0.33981308341 -0.81301045418
-0.53641891479 -0.4768345952 -0.69639104605
-0.6211822629 -0.33842658997 -0.70682686567
0.44652742147 0.88015139103 -0.16149832308
0.55833077431 0.77842891216 -0.28647971153
-0.9128330946 0.13344921172 0.3844409287
-0.86938405037 0.38639694452 0.30799043179
-0.95380705595 0.28526708484 0.092611700296
0.50841665268 0.31805059314 0.79980880022
-0.024334752932 0.36750015616 0.92965978384
0.17253629863 0.36981755495 0.91288667917
0.033429231495 0.53432351351 0.84464323521
0.21595342457 0.58553028107 0.7813667655
0.34497183561 0.41042247415 0.84415435791
0.37150555849 0.19007955492 0.90864592791
0.62553793192 0.15185531974 0.76503843069
0.19117246568 0.15932753682 0.96844232082
0.29759711027 -0.012920247391 0.95457494259
0.10070366412 0.020606672391 0.99469411373
0.5136397481 -0.049675945193 0.85635405779
0.3862439096 -0.45795965195 -0.80066639185
0.52577239275 -0.52913933992 -0.66594189405
0.36485210061 -0.59336519241 -0.71749573946
0.86337542534 0.10083051771 -0.49434292316
0.78417950869 0.17198728025 -0.59620207548
0.84405583143 0.25191324949 -0.47337526083
0.8064262867 0.019305950031 -0.59100437164
0.72408920527 0.057701062411 -0.68727320433
0.72965764999 -0.089215889573 -0.6779127717
0.68320465088 0.16613143682 -0.71107810736
0.88310170174 -0.084700636566 -0.46136975288
0.6204841733 0.089942194521 -0.77906453609
0.65006971359 -0.021642789245 -0.75955659151
0.52959269285 -0.019053323194 -0.84803873301
0.60702711344 -0.13807186484 -0.78258299828
0.15800520778 -0.74277240038 -0.6506305933
0.00066123518627 -0.7908706069 -0.611941576
0.076529473066 -0.68381208181 -0.7256436348
-0.040523394942 -0.69157266617 -0.72113388777
-0.12017148733 -0.74295061827 -0.65845537186
0.117048949 -0.58802443743 -0.80033546686
-0.0036911163479 -0.60582119226 -0.79559618235
-0.11242908239 -0.87418150902 -0.4723777771
-0.27449294925 -0.91101229191 -0.30799016356
-0.26878705621 -0.83419722319 -0.48149228096
-0.06657615304 -0.93507575989 -0.34802994132
-0.4653300643 -0.77837854624 -0.42135694623
-0.48704329133 -0.8472006917 -0.21133702993
-0.10790772736 -0.61502301693 -0.78108179569
-0.10590288788 -0.53699076176 -0.83688926697
0.2945690155 -0.7027195096 -0.64762234688
0.21323990822 -0.64707714319 -0.73199313879
0.036655340344 -0.88320970535 -0.46758109331
-0.81252831221 0.20321537554 -0.54637098312
-0.77301162481 0.3569624424 -0.52442491055
-0.70539373159 0.30294701457 -0.64080357552
-0.67541414499 0.43410229683 -0.59613788128
-0.39855656028 0.16129380465 -0.90260469913
-0.48528257012 0.10972186923 -0.86721229553
-0.48967623711 0.19342766702 -0.85017597675
0.5245065093 -0.35699144006 0.77261674404
0.68983381987 -0.26195406914 0.67472577095
0.85515326262 -0.30950394273 0.41592437029
-0.62207859755 -0.13961201906 0.76998013258
-0.63089174032 0.093260444701 0.77025300264
-0.77999633551 -0.008081337437 0.62567722797
-0.74162369967 0.19763508439 0.64070928097
0.92017114162 0.12239970267 0.37188082933
0.88042330742 -0.0075707011856 0.47388330102
0.95880281925 -0.078432127833 0.27279371023
0.36022460461 -0.39500525594 0.84502536058
0.38576370478 -0.20856381953 0.89869469404
-0.21879592538 -0.46105247736 -0.85995858908
-0.37752199173 -0.50634980202 -0.77529215813
-0.3306645453 -0.39251926541 -0.85826796293
0.24575071037 -0.18564108014 0.95138889551
0.10166492313 -0.22436057031 -0.96915119886
0.098169855773 -0.37319865823 -0.92253547907
-0.027100585401 -0.28129169345 -0.95923274755
-0.16601772606 -0.35874804854 -0.91852909327
-0.028869768605 -0.39411491156 -0.91860991716
-0.10612286627 -0.45105645061 -0.88616240025
0.015632301569 -0.49944493175 -0.8661955595
-0.21549355984 -0.55531966686 -0.80322086811
-0.27448436618 -0.61510515213 -0.73910468817
0.92801856995 0.046495165676 -0.36953887343
0.83536571264 0.48249173164 0.26336812973
0.90230435133 0.42346796393 0.080430574715
0.81044369936 0.57460319996 0.11394569278
0.97922956944 0.045677669346 -0.19719289243
0.94631260633 0.1560677439 -0.28306105733
0.97064900398 0.18765568733 -0.1503906399
0.93313926458 0.2691372633 -0.2383724153
0.89873737097 0.26038634777 -0.35279479623
0.94044303894 0.31110870838 -0.13702303171
0.89080971479 0.34307429194 -0.29791307449
0.89951449633 0.38805249333 -0.20075029135
0.85335892439 0.42896676064 -0.29622539878
0.84754395485 0.3581097126 -0.39167100191
0.90440833569 0.42021161318 -0.073930218816
0.84892570972 0.49539780617 -0.18407690525
0.83364367485 0.55107271671 -0.036465924233
0.90207338333 0.16352927685 -0.39942398667
0.9925929904 0.11843127757 -0.025779949501
0.95915073156 0.28160002828 -0.025874655694
0.97087538242 0.21596452594 0.10332568735
-0.04364541173 -0.14716880023 -0.98815238476
-0.15557770431 -0.24005435407 -0.95818859339
-0.17184901237 -0.13352487981 -0.97598046064
-0.28017005324 -0.29636019468 -0.91268837452
-0.38014423847 -0.23957011104 -0.89323705435
-0.070978619158 0.54899740219 -0.8327922821
-0.12709651887 0.63917899132 -0.7584579587
0.0053441785276 0.63126373291 -0.77529919147
-0.035522874445 0.7469483614 -0.66391611099
-0.21635630727 0.70991712809 -0.67020982504
0.11597010493 0.68277657032 -0.72083324194
-0.26749908924 0.61059397459 -0.74541068077
0.12446532398 0.80626702309 -0.57828533649
-0.043417140841 0.85899758339 -0.51011276245
-0.47100439668 0.61860823631 -0.62883406878
-0.35391527414 0.66567587852 -0.65688276291
-0.38528388739 0.57682931423 -0.72028654814
-0.51470071077 0.68800610304 -0.51115685701
-0.63500916958 0.63216084242 -0.44383153319
-0.59329372644 0.56326723099 -0.57510989904
-0.17464409769 0.79719686508 -0.57743918896
-0.58068519831 -0.2200293541 -0.78373008966
-0.47551038861 -0.15566879511 -0.86578261852
-0.58684253693 0.045920610428 -0.80834931135
-0.68728846312 -0.034501895308 -0.72547084093
-0.66692703962 0.098884217441 -0.73854351044
-0.7576046586 0.056280635297 -0.65025937557
-0.79205822945 -0.098458789289 -0.60247147083
-0.57296878099 0.14500460029 -0.80660206079
-0.11206895113 -0.044459573925 -0.99262827635
0.0077821179293 0.0011439360678 -0.99982273579
-0.26606824994 -0.19950334728 -0.9430539012
-0.34125250578 -0.13962484896 -0.92936402559
-0.19113278389 0.55195492506 -0.81165218353
-0.30732357502 0.50948983431 -0.80372363329
-0.27456021309 0.40745055676 -0.87093681097
-0.36342468858 0.42655956745 -0.82824277878
-0.32595083117 0.084246732295 -0.94162005186
-0.24105639756 0.16599032283 -0.95608639717
-0.22327123582 0.060153152794 -0.97265154123
-0.4336361587 0.053986549377 -0.89925968647
-0.38877078891 -0.59086453915 0.70685851574
-0.30237874389 -0.47685071826 0.82531243563
-0.47933107615 -0.40566626191 0.77800369263
-0.6080494523 -0.45832571387 0.64766031504
-0.41526770592 -0.11836273968 0.90187913179
-0.2476670742 -0.15581808984 0.95619934797
-0.33273258805 0.00045702280477 0.94279366732
0.032019391656 -0.12730926275 0.99133551121
0.15584921837 -0.10806600749 0.98185026646
0.11517943442 -0.25589466095 0.95980489254
-0.020394209772 -0.23954637349 0.97065246105
-0.0092459591106 -0.37880301476 0.92536562681
0.13409171999 -0.39969480038 0.9067980051
0.086809255183 -0.56347680092 0.82133251429
0.24847011268 -0.32153341174 0.91373664141
-0.13184243441 -0.28748098016 0.94863688946
-0.13689239323 -0.47581169009 0.8688133359
-0.25416049361 -0.33968180418 0.9055287838
-0.19484002888 -0.60984265804 0.76796770096
-0.21735824645 0.38167729974 0.89838051796
-0.15019674599 0.25367954373 0.95556885004
-0.49747031927 0.015640553087 0.86731076241
-0.46884989738 0.19204765558 0.86187183857
-0.33140048385 0.14130654931 0.93227952719
-0.30577352643 0.26526767015 0.91433334351
-0.42334476113 0.38638719916 0.8193706274
-0.20552183688 0.12290675193 0.97087079287
-0.062697201967 0.10637373477 0.99231410027
-0.17526675761 -0.01699449122 0.98436623812
-0.040395122021 -0.026840776205 0.99883300066
-0.1043657586 -0.14168266952 0.98438626528
-0.59590965509 0.29274827242 0.7477466464
0.22953315079 -0.48545324802 0.84355705976
0.42350506783 0.072690688074 -0.90296846628
0.5256177783 0.11533482373 -0.84287810326
0.14229266346 -0.48901420832 -0.86059194803
0.25457701087 -0.53992289305 -0.80228549242
0.24199336767 -0.42513376474 -0.8721678853
0.58939576149 0.20728139579 -0.78079688549
0.43454271555 -0.66836106777 -0.60364538431
-0.13124834001 -0.67688065767 -0.7242885232
-0.14221264422 -0.80759310722 -0.57237327099
0.36345779896 0.49908670783 -0.78662538528
0.3672297895 0.37340730429 -0.85185867548
0.28299605846 0.44739076495 -0.84823024273
0.25863072276 0.33256313205 -0.90691262484
-0.23136991262 -0.75785267353 -0.61000567675
-0.20650607347 -0.69175112247 -0.69194632769
-0.29319697618 -0.68947714567 -0.66228556633
-0.34152629972 -0.75130337477 -0.56464570761
-0.37956088781 -0.67416912317 -0.63357138634
-0.3594802916 -0.61595386267 -0.70098668337
-0.45734870434 -0.59488934278 -0.66104996204
[...]
CELL_DATA 1150
SCALARS cell_data_0 double
LOOKUP_TABLE default
1.59677184684e-05
7.49228540856e-06
9.59673887592e-06
3.04450093193e-05
3.42470613886e-06
8.22581870292e-06
1.32751322125e-05
5.62282368073e-06
3.43906254112e-07
8.15717084153e-07
1.53263783156e-05
8.29971527759e-06
3.2338070219e-06
1.41811745486e-05
1.18127240672e-05
1.03468251554e-05
9.08644621085e-06
1.00037467044e-05
1.31106865436e-05
9.70727865927e-06
1.40672737818e-05
1.27338736087e-05
1.07503281605e-05
2.33399924493e-05
2.84680566752e-06
4.8434933336e-08
2.67229118707e-07
8.0975127072e-07
6.29746465174e-07
3.86314677357e-07
1.39993734721e-07
5.69416643783e-07
1.17117569931e-06
7.60847499412e-07
5.21172520276e-06
5.65450550568e-07
1.55805709743e-07
8.77019157628e-08
1.02298596219e-07
2.16855512025e-08
4.95713488458e-07
2.10595166981e-07
1.26311259157e-05
2.40020147254e-08
1.26400929122e-07
8.96418365585e-09
2.85065273125e-07
2.18786129037e-07
2.98946879563e-07
1.15946423989e-05
1.15010256316e-08
7.88098987744e-06
1.83298392967e-05
8.82911726711e-06
1.4228049713e-05
1.07145335441e-05
1.03490825094e-05
1.41324925112e-05
9.05284201587e-06
5.28191288315e-06
7.44512917161e-06
2.96244759825e-06
7.47877570048e-06
1.04715420672e-05
1.7349500433e-05
1.95463747746e-05
2.31831540318e-05
1.33737958334e-05
1.1747834064e-05
1.81445330577e-05
1.45525620962e-05
1.23214873832e-07
2.82369745833e-08
9.82600249865e-08
8.63509428175e-08
1.49222084169e-07
1.02464452117e-07
9.51900301053e-08
4.48331975362e-07
3.74623353144e-07
9.86963836893e-08
1.39645036308e-07
1.61883131077e-08
3.25066241885e-07
1.59540608841e-06
4.92301719448e-07
3.88643746978e-07
3.06038354961e-07
3.7562349805e-07
2.26729516879e-07
1.12873275936e-06
5.55502194354e-06
1.12325693286e-06
3.87728256598e-08
6.52067311121e-06
7.47636015199e-06
7.36190199425e-06
8.39902176615e-06
2.83829280618e-06
3.49262201858e-06
2.8774264098e-06
2.6142892794e-06
2.25509746931e-06
4.41031323638e-07
7.18625464785e-07
9.13174380848e-07
7.81171173112e-07
7.56330681741e-07
7.82559265181e-07
9.18979968824e-06
6.38785278287e-06
8.89406696781e-06
3.20095451656e-05
6.85933477731e-05
4.15918476318e-05
2.92164040179e-05
3.94742807918e-05
4.00913601775e-05
3.34939895522e-05
2.30793251674e-05
1.62535755374e-05
1.21682513301e-05
1.08341992241e-05
3.29420956557e-05
7.11715151386e-05
3.6651132624e-05
4.14587195522e-05
2.05283173592e-05
3.67814857182e-05
8.59089036305e-05
7.53237189002e-05
1.38292199871e-05
1.83542865354e-05
2.58100207068e-05
2.02358869004e-05
4.10619701801e-05
9.56443985159e-05
3.13170578592e-08
1.50672027477e-06
9.96937841202e-08
6.48704353202e-06
2.56035509865e-05
3.69458057057e-05
9.88574296884e-06
8.71901575333e-06
1.31056802706e-05
4.97977674882e-09
1.95095149089e-05
3.02254203401e-05
1.14832418222e-05
3.24355878967e-06
9.74144803603e-09
9.83477807389e-06
1.57268467047e-05
4.30128650996e-08
2.95940164325e-06
6.4873892411e-06
6.79373691097e-06
6.74491544349e-06
8.68164306829e-06
1.25815254205e-05
9.24179401033e-06
1.21194682634e-05
1.32929928525e-05
1.31826547087e-05
1.3194603767e-05
1.12368695895e-05
8.63143703254e-06
1.16796791866e-05
5.49221543102e-06
1.71807051975e-05
4.89264537917e-06
5.25776333674e-06
5.1855549772e-06
8.23833088557e-06
9.43562202564e-06
1.38184472622e-05
1.12072216195e-05
1.17649243484e-05
1.06540247074e-05
1.16204485057e-05
9.8246122769e-06
1.3507631963e-05
1.00436185013e-05
9.88828357747e-06
1.04742170328e-05
1.04844162407e-05
8.30614997707e-06
7.23405008297e-06
1.039025167e-05
1.14441800218e-05
1.23827969975e-05
1.21882036194e-05
9.428853462e-06
7.80121294947e-06
8.82323136445e-06
4.12023937997e-06
4.05506044921e-06
5.8353386254e-06
6.04071826265e-06
5.92973869822e-06
1.0772799535e-05
1.45509568278e-05
1.28909090671e-05
1.1722076461e-05
8.01695391374e-06
5.85923306332e-06
7.38197248744e-06
1.31312374711e-05
1.03625913552e-05
4.40631248569e-06
4.68569156739e-06
9.27880186548e-06
7.04794985354e-06
1.47868555897e-06
1.99682329978e-06
2.17208617936e-06
2.17981634941e-06
5.02771595653e-07
2.68956858493e-06
2.6277416977e-06
1.5657072894e-06
1.04822801783e-06
6.53874094446e-07
8.33452142994e-07
1.81711404833e-08
2.20924852158e-08
1.6463247238e-06
1.13073104808e-06
3.82028012607e-07
3.33951181402e-07
1.34947765247e-07
1.07624955246e-07
5.21376746726e-06
5.49614027762e-06
5.46391045332e-08
4.25190111137e-08
5.62127003517e-08
5.23408543148e-08
8.5400402423e-08
6.82951917122e-08
5.55650716678e-08
5.03357704812e-08
1.48754656163e-08
2.76651094664e-07
3.18211682315e-07
3.30841022343e-07
7.17566104107e-07
1.76081910591e-07
1.04881420629e-07
1.18616072905e-07
4.09692438727e-08
3.08795990068e-08
1.71655444134e-08
3.45289885684e-08
7.00481248275e-09
1.57207965831e-08
2.59943649409e-08
7.60410880456e-06
8.53258804522e-06
9.35585509082e-06
2.34616328297e-05
1.92463447066e-05
4.8403761127e-06
6.63234060733e-06
6.58175284181e-06
2.74626083883e-06
3.20985637223e-06
5.58864337669e-06
6.88262803458e-06
4.32751831874e-06
4.58638628847e-06
5.14621525386e-06
4.9716432458e-06
1.21988333866e-05
9.25072846761e-06
1.34998032424e-05
1.12282143229e-05
1.14372722718e-05
5.48815471422e-06
7.73326679866e-06
5.87899403402e-06
6.05178630457e-06
6.66196859358e-06
6.15846258087e-06
6.03345614871e-06
7.91602822987e-06
2.46200755583e-06
3.66607232344e-08
1.78620485949e-08
3.7646240196e-08
2.70697399461e-06
2.5436130371e-06
9.92065289653e-09
2.68755876745e-06
2.30978193246e-08
2.14572797485e-06
2.41586133401e-06
2.32752432124e-06
1.46425289819e-09
1.59558726058e-08
1.57950651648e-08
3.02440074607e-09
1.38892003347e-08
2.32944156878e-08
1.51557714414e-08
6.71049320827e-09
5.39760554991e-09
2.12329598759e-06
2.08596770041e-06
3.21818860081e-06
2.45343586692e-08
3.10068635603e-08
5.05808319503e-10
2.03547521589e-08
1.49437206138e-09
6.49302860605e-09
6.07509958151e-09
1.47725433819e-08
7.31238751187e-06
7.57811660235e-06
8.66795476775e-06
9.00852059508e-06
3.59542634857e-05
1.47969309656e-05
4.33262164392e-08
1.32142769502e-06
1.30104941618e-07
1.32089283921e-07
7.28032782911e-08
5.63760244735e-08
7.29352629501e-08
3.84862286995e-06
7.1691878406e-06
5.41208014765e-06
7.77181791299e-06
8.88046358371e-06
9.28529554435e-06
7.266671037e-06
8.0253109534e-06
1.03806011284e-05
7.03042512436e-06
4.81838054191e-06
4.65450773858e-06
6.09442796092e-06
6.76745194076e-06
8.54870653109e-06
1.63237012741e-05
7.74097093331e-06
7.27416869261e-06
9.57612220632e-06
1.02512467878e-05
1.0649386199e-06
5.28971988127e-08
7.3633203691e-08
2.27125295832e-09
8.23570395601e-08
9.50254831743e-08
7.71378632632e-08
1.30686983801e-07
1.08636257391e-07
6.37959713864e-08
5.40459992349e-08
5.35280134672e-08
1.41530368766e-08
1.23160490103e-06
1.02967059127e-05
1.05512567913e-05
2.54364458122e-06
8.41890540481e-08
1.37481870282e-07
1.69146170045e-07
1.61536748112e-07
1.01738888158e-07
1.02077622664e-06
1.21199893321e-07
1.45234466933e-07
1.01327196509e-07
2.83302634357e-07
1.14461840909e-07
1.09398274947e-07
1.0227157167e-07
9.73350563469e-08
1.36521737541e-07
9.64629514933e-08
9.30526560239e-08
7.0682961896e-08
6.68130373624e-07
1.37791388981e-07
9.8265567371e-08
1.18202942355e-07
7.77740177689e-06
2.10969573236e-07
2.22294564112e-07
1.29426739506e-07
9.16691528705e-08
4.77952666174e-06
5.85611965135e-07
3.4006184945e-07
5.34643673168e-07
5.40297165285e-07
8.57942319624e-07
5.39569375691e-07
5.61003341393e-07
5.16957076154e-07
4.86589435939e-07
1.84189390465e-07
1.79842122438e-07
1.87183028006e-06
1.88566690023e-06
6.58881753992e-07
5.04978868171e-07
3.68339866859e-08
8.07031545984e-07
3.63589759082e-08
5.69129026879e-07
7.47225228098e-07
1.44692053462e-06
1.60912011738e-06
1.95069373507e-06
6.0477379057e-06
1.89228282752e-06
1.22295309355e-06
6.48280598179e-06
4.25944283155e-06
1.73439396106e-06
1.28182689058e-06
4.15409742217e-07
8.45081838304e-06
1.17089291482e-06
7.64278717744e-08
4.07860714749e-07
1.08328226687e-06
6.26291302572e-07
1.12630473109e-06
2.29131306675e-07
4.92874775365e-06
1.15789989663e-06
3.62157007423e-06
1.5359351093e-06
5.74903236743e-06
1.35350386294e-06
7.4378076391e-08
4.98527569065e-06
5.20220472592e-06
1.27801508176e-06
3.81906898532e-06
5.84581130746e-06
2.90141107225e-07
3.41261729082e-06
3.68575308767e-08
7.90483665428e-07
1.02425125154e-06
1.94216765596e-08
5.08199364831e-08
6.27803200585e-08
7.31570327832e-08
1.81778191568e-07
3.15886381362e-07
1.88493033591e-06
2.28833240726e-07
2.23241308838e-07
4.58701326589e-07
1.49658597047e-06
4.87173592534e-07
8.55228292435e-09
4.01576370962e-08
4.64268266396e-06
6.93271783863e-07
2.80268432717e-07
1.92623547402e-06
7.58291842137e-07
1.65328767324e-06
1.01341122445e-06
1.2458872624e-06
6.46783859754e-06
5.62285569203e-06
3.74048758046e-06
2.31778251694e-06
1.56623541889e-06
1.19567390099e-06
1.77857708914e-06
1.01536485977e-06
6.00656276156e-07
4.31799619142e-07
8.4142462098e-08
1.56253673106e-06
7.33285173074e-07
2.59226743924e-06
2.933259401e-06
2.28636028816e-06
1.50485929355e-06
2.1942853595e-07
2.4201101026e-06
2.09812689761e-06
7.93999177958e-07
1.14053024971e-06
9.44270530557e-08
1.04886941882e-07
3.01960902469e-06
3.10884434784e-07
1.97529236774e-07
8.9100193704e-07
1.78841723062e-07
3.52770245506e-06
1.01564882905e-06
8.18130834434e-07
1.15753690499e-07
1.62139585998e-06
1.17353309544e-07
8.97911640989e-07
2.06440116053e-06
1.35293191453e-06
2.12039442438e-06
5.91319300233e-07
1.49214962345e-06
2.45548402407e-06
1.71865549898e-06
4.12794125292e-06
5.42374898811e-06
1.96090328089e-06
8.38066076585e-07
1.60698302266e-06
9.31439922747e-07
3.35451438374e-07
2.01925867941e-07
1.03088720418e-07
9.09507325435e-07
8.38003705669e-07
4.42508616643e-07
6.0511678564e-06
2.79176919582e-06
2.15347033369e-05
1.78957984702e-06
1.4515703802e-06
4.51307875793e-07
3.26713692546e-07
1.54791276823e-08
3.47034411768e-07
1.82170112143e-08
8.72899778505e-07
6.85531286342e-07
4.58488178488e-07
9.40726694627e-07
1.99445268576e-06
1.51334150141e-06
2.4545629114e-05
5.16783227311e-07
4.49975806549e-06
1.13154000257e-06
1.84128379035e-06
1.15708737624e-06
9.10511850179e-07
3.34596131507e-07
9.5823562384e-07
2.02158436763e-06
3.04988237073e-06
1.6790250226e-06
1.40214520049e-06
2.76611261895e-05
3.39346245378e-07
2.1735664787e-05
3.69451437134e-05
1.46835458086e-05
4.77268520572e-08
1.82470412548e-08
4.14897514513e-07
6.15950615989e-07
6.72285684121e-07
1.35838609099e-06
5.83744771516e-07
9.98859522655e-07
4.26827757187e-07
1.9286337276e-05
1.77465905913e-06
7.23283149654e-07
2.20044666521e-07
4.16308935635e-06
1.37113956107e-05
2.98382930857e-07
5.96090715706e-08
2.08746677502e-07
5.05027888279e-08
1.18804804589e-05
2.615831056e-05
1.67690396751e-07
1.21851037252e-05
3.38661864579e-07
1.67511338896e-06
5.5513132251e-06
1.05007383702e-06
1.4358460605e-06
9.26288103205e-07
2.23531426662e-06
3.21014571819e-06
9.49520678998e-06
9.05583089284e-06
1.24564949178e-07
6.68775027278e-06
2.77934537409e-05
1.29489300923e-05
4.3472764688e-05
1.28924971765e-08
1.68665425582e-06
3.2686801265e-06
3.47738236429e-06
9.49680933736e-07
1.45218681291e-05
1.98900355322e-05
5.50902250787e-06
3.32869689546e-06
4.18395331821e-06
1.71221231139e-07
1.48356014112e-07
8.83318933918e-08
7.09874314295e-08
7.34702356359e-08
2.24229252684e-07
1.20875569323e-07
1.19166082123e-06
4.00627499254e-06
1.81675784013e-05
8.83846364016e-07
5.57068566884e-07
1.07759350175e-06
5.52459633129e-06
8.34493479766e-06
4.53517481864e-06
4.08880116483e-06
3.89897282934e-06
4.89343089527e-06
9.9799543198e-08
2.21197507116e-07
1.78031471634e-07
1.80294324214e-07
1.95871804197e-07
9.00197760367e-08
5.58947486672e-08
1.80397718612e-07
4.72733053026e-08
4.55106158643e-07
3.68463642783e-07
4.44472558e-07
7.81079491207e-06
1.07170925435e-06
1.37824194674e-05
6.84585790893e-07
1.08885221449e-06
4.73210936373e-06
5.41480183244e-07
7.75890187717e-06
9.37794263592e-06
7.7482683975e-06
4.41132741953e-06
5.17638747168e-06
5.46367499655e-06
5.45508197895e-06
3.78000050403e-07
5.80382804651e-07
1.66944630056e-07
4.87524921631e-08
2.6982719397e-08
6.24813429271e-08
2.97752926656e-06
4.55475985719e-07
1.10890531306e-06
3.39672024455e-06
4.43332761624e-07
2.87643131006e-07
2.34178770464e-07
7.87172034995e-07
8.38573642273e-07
3.48723341709e-07
2.43357005109e-07
9.12423111812e-08
5.87801357292e-08
5.6874923297e-07
1.30395690646e-06
1.42626248866e-06
2.33878679837e-05
1.14021794177e-06
3.94054689894e-06
2.42662119585e-05
9.23772584358e-07
9.23253560365e-07
2.53002171305e-05
9.38833318815e-06
3.65127828521e-07
6.67136331233e-07
2.54307680842e-05
8.18488732726e-07
3.37541326504e-06
6.24579413202e-07
2.18407396692e-06
9.25069735303e-07
2.02371256804e-06
5.12000267948e-06
6.73093141817e-06
2.96262199855e-06
1.45510006927e-05
1.51247148562e-06
1.32916250683e-06
1.13532897873e-06
1.67104112334e-06
3.04165263545e-06
1.75964296386e-05
2.2495379983e-06
1.38878266623e-06
3.43769897479e-06
2.12722178789e-06
6.43994521744e-06
4.91793069179e-06
3.25910285633e-06
9.12995915847e-07
1.11201716435e-06
1.01089885702e-07
1.78769795649e-07
2.90030580543e-05
1.69381788853e-07
1.11543025081e-06
3.49390110939e-07
9.3488807001e-06
1.15501384448e-05
8.898808954e-08
1.21275918245e-07
1.80594550696e-05
1.29531670278e-06
1.22059107082e-05
2.07834899411e-05
1.859618306e-05
3.15285468999e-07
1.21208249191e-05
4.28321154246e-06
8.02100347514e-08
1.08990509777e-06
9.04995182931e-07
1.19076043522e-06
5.58814034774e-07
1.66639875825e-05
3.75398620325e-06
9.84674899802e-06
8.55815677189e-06
1.29034235878e-05
8.49010362955e-07
2.58004357866e-07
4.67780835797e-06
2.50881134107e-06
2.89409237412e-06
1.27033654429e-05
3.13422504886e-06
4.829551351e-06
2.19700400269e-05
1.73099186244e-05
2.92759868387e-05
2.93577420286e-06
3.5338170154e-06
2.15057983084e-06
2.96863415788e-06
1.09523993116e-07
3.42752614001e-07
1.58178184429e-06
9.32777626338e-07
1.98434562698e-06
2.83379587093e-06
8.07779871324e-06
2.81893124782e-06
2.27581955567e-06
2.25596744012e-06
1.18989787393e-05
1.07302395282e-07
3.22270130635e-08
1.16484424707e-05
1.10119553995e-05
6.04500428089e-06
4.39947010803e-06
4.43847055694e-06
6.58269431422e-06
5.35470664143e-06
5.82441699987e-06
7.69705083127e-06
7.24231936867e-06
3.3405951731e-06
3.0658905213e-06
1.77142372305e-05
1.52280856936e-05
5.45119977154e-06
4.1353480125e-06
3.71235342321e-06
2.09596037142e-08
4.08493250816e-06
8.28975738328e-06
1.41231153489e-09
4.85721042539e-09
1.85445952136e-08
4.54333725967e-09
3.46720348495e-06
2.01244701054e-08
2.16112332997e-08
1.62454907264e-09
1.69537259348e-08
1.62047893163e-08
3.9605337016e-07
7.48825319801e-06
3.27139557718e-09
4.02182532595e-08
3.7659941122e-08
6.61498806231e-06
3.11646157346e-06
3.68992559478e-06
5.64612501529e-06
4.88984381652e-06
3.09026017393e-06
3.85519986938e-06
3.17363552383e-06
1.4599248382e-06
1.98957577589e-06
2.1071921169e-06
1.11873782098e-05
4.33696582121e-06
1.20975592922e-05
7.31747632666e-06
7.84614156872e-06
2.11417686778e-06
1.50420507157e-06
2.72768777335e-08
1.82379137932e-06
3.00454117536e-06
3.19557711543e-06
5.40364187737e-06
2.34691749833e-05
2.11211532423e-05
1.81231700847e-05
2.95824676563e-07
5.69869992109e-08
1.41200046478e-06
1.32563894833e-06
2.46788108217e-06
1.61980392728e-06
9.10919442184e-07
3.38544177689e-06
4.76635856647e-06
1.98251120909e-06
2.76859101945e-06
2.15898604262e-07
2.11210460269e-07
6.65140276607e-08
1.83388807408e-07
6.58268787627e-07
1.21065094306e-06
1.48578213305e-07
4.91236099798e-08
9.6260226044e-07
2.58055888914e-07
7.9443724274e-08
2.72729810067e-07
4.3936764732e-07
1.39272281781e-06
5.98009320416e-07
1.60482953016e-06
4.61442950114e-06
4.12706754879e-06
3.02100654055e-06
3.70763027663e-06
1.20355006522e-06
6.97264879431e-07
4.38563250111e-07
4.71386510394e-07
4.49479005039e-07
6.09729189956e-07
4.13576025432e-07
5.16968579889e-07
3.43853978177e-08
1.32334232403e-08
1.44041933792e-08
9.01140578793e-09
8.44907878826e-09
2.62439765784e-09
7.22663097032e-09
1.6631437913e-08
1.61735073158e-09
6.91346746145e-09
3.74854640284e-09
3.89964591699e-09
3.32715998574e-10
1.50500804333e-10
2.94981385932e-08
8.4509841805e-09
6.06308191888e-06
5.17650947363e-06
5.3251711802e-08
7.07966038264e-08
9.42229080376e-07
3.21191722166e-07
1.90512396626e-07
1.74258322848e-07
2.59897964687e-08
2.01728981532e-07
2.02296634859e-06
9.98382117502e-07
1.13301832794e-09
1.11108017258e-09
2.28114355203e-06
2.40887884246e-08
1.68550735213e-07
8.9833235074e-08
2.22282414603e-06
1.1519354481e-07
2.42881957352e-06
1.31099637817e-09
8.71779418237e-09
2.61381361006e-06
9.2870988747e-07
1.38219668743e-08
3.63688911536e-09
3.1891295804e-10
1.21764105703e-06
2.44504793131e-06
1.10538562927e-06
6.63883844009e-06
4.5347099372e-06
7.12679639724e-06
6.16430881074e-06
8.82925154727e-06
3.74660999881e-07
4.52443344886e-07
6.11814274394e-06
6.8008187697e-06
1.00000774917e-05
1.80592928391e-06
3.02702960231e-06
6.69122720629e-06
2.25563754112e-06
1.5134744579e-05
9.69881362396e-06
2.57130782295e-06
1.81845187873e-06
4.37670931743e-08
1.23010631976e-06
1.55885172698e-08
1.27464577688e-08
2.12531354213e-06
6.57964312729e-09
1.34078002313e-06
5.12880061068e-06
7.38140071847e-07
3.08767158393e-08
2.62073356713e-08
4.00228122935e-08
1.76790474856e-08
7.13309532112e-07
9.69362904391e-07
1.30898945416e-08
8.74575431113e-09
6.95853552976e-06
2.55753146541e-07
2.80505706603e-06
3.1143329911e-06
3.27126523783e-06
5.0393861314e-06
5.15884078539e-08
2.03198348706e-05
6.90685800406e-07
7.38497213371e-07
7.4917817865e-07
9.64649312683e-07
8.41611812446e-07
6.28364749047e-07
5.39087997001e-07
5.36363379037e-07
1.73471074142e-07
2.56315396594e-08
5.34126561792e-07
8.95148559576e-06
5.36011785947e-07
5.56977244696e-07
2.50770351594e-07
1.92197859232e-06
5.21142226418e-06
1.36752286285e-06
2.51778489661e-06
3.56795126674e-06
5.19459102293e-06
2.91235022054e-06
2.16949827477e-06
4.23301946861e-06
1.11614948959e-05
2.03824824814e-06
5.6125231273e-07
9.69057420826e-08
8.74167184209e-07
5.18866272269e-06
4.88556752886e-06
6.66448627782e-06
2.15287932752e-07
1.32006433061e-06
7.48341947955e-06
6.93898785709e-06
2.59119785784e-05
5.18552349202e-06
4.60822258622e-08
7.06482116312e-06
8.78416096805e-07
5.0827796501e-06
2.11068742824e-05
3.57363988065e-06
1.1852149662e-07
5.32720389003e-06
7.13940641604e-06
8.35025589205e-06
1.0393086651e-05
7.06226415513e-06
5.84394349856e-06
8.59027698052e-07
6.68417004326e-08
1.4025653041e-06
2.60660652395e-06
1.60020008875e-06
5.98382501822e-08
4.45904047781e-06
2.79555914044e-06
1.71765867144e-07
3.76456706235e-06
1.2152163171e-07
1.3299763698e-06
1.80945338023e-06
1.04953815992e-05
8.74016885187e-06
3.58580791644e-07
9.93667168549e-06
6.44310179073e-07
4.93126800257e-06
2.59945904849e-08
5.20360946643e-06
5.21286436383e-06
6.63180029583e-06
8.22989980915e-06
7.12453585387e-07
3.02961104658e-08
1.85149738236e-08
1.34559548782e-06
1.52153317943e-06
3.91754767077e-09
1.10678046884e-08
5.58207127473e-06
1.36971749112e-06
4.18710665794e-06
2.1452468064e-06
1.09257399757e-06
4.1016933097e-07
5.57598411881e-07
3.61354250979e-07
2.20804977671e-06
6.61617476135e-06
2.99557878965e-06
6.07454506522e-07
6.12502506437e-06
6.88566956122e-06
1.14716787922e-06
5.36189722268e-06
2.20003504305e-07
4.88137038365e-07
8.02139426673e-07
1.31298500508e-06
5.64648619673e-07
1.29048007227e-05
5.84469045409e-06
1.99613730975e-08
8.14660259479e-07
1.76284287581e-07
4.67469045775e-08
4.82320496585e-06
2.52746321529e-08
1.23826965088e-07
5.41035487331e-06
5.3901985983e-06
6.18185768847e-06
6.99900111133e-06
7.06441979477e-06
1.05577071527e-06
1.08854697017e-06
1.46229855116e-07
1.34052111676e-07
6.72986498528e-06
4.49552992085e-06
8.42753369424e-06
1.5037722932e-07
6.80048079331e-06
6.03190285977e-06
1.05440003741e-05
4.15752614407e-07
4.24992352473e-07
6.73674982577e-06
6.11429593494e-06
2.30562207673e-07
6.63986690936e-06
1.41533250832e-08
1.34599745426e-06
1.47542692028e-07
3.451834414e-06
2.72489601871e-06
4.09545192803e-06
1.98326034289e-06
3.78482356728e-06
3.05518016964e-07
4.29368293782e-06
4.7768630509e-07
3.30792852062e-05
1.63086165168e-05
6.93788380161e-06
5.25879939133e-08
2.40902096125e-06
3.41027179165e-06
3.32957001519e-06
3.54060414503e-07