# vtk DataFile Version 3.0
File Name: Molecule/sphere_excent/sphere_excent_0-s24.vtk
ASCII
DATASET UNSTRUCTURED_GRID
FIELD FieldData 1
TIME 1 1 double
0.0
POINTS 267 double
0.0089846039191 0.84935259819 0.52750825882
-0.45504260063 0.78662997484 0.41700980067
-0.32714897394 0.60367232561 0.72685462236
0.33818611503 -0.60671031475 0.71927678585
0.0056568877771 -0.84893172979 0.52857381105
0.50057417154 -0.80930769444 0.30692410469
0.84649777412 -0.32962283492 0.41730219126
0.86177259684 -0.50209081173 0.061627827585
0.98858165741 -0.12317441404 0.087584391236
0.51835042238 0.72661298513 0.45004674792
0.37046039104 0.5736232996 0.73013758659
0.72826057673 0.3481515944 0.58954703808
-0.86449807882 -0.34666836262 -0.36402148008
-0.83841717243 -0.54350924492 0.032916337252
-0.99023783207 -0.11950208992 0.069916315377
-0.56008648872 -0.79758834839 -0.22416557372
-0.48347830772 -0.82809633017 0.27696287632
-0.0021031938959 -0.99939203262 0.022426305339
-0.88748270273 0.18071262538 0.42301726341
-0.81041824818 -0.3182323575 0.48988091946
0.49142733216 -0.84627699852 -0.20177260041
0.0053220801055 0.99974870682 0.010323145427
-0.27035036683 0.94551110268 0.18093405664
-0.26001176238 0.94940745831 -0.1764845401
-0.5163294673 0.85632193089 -0.00091112556402
-0.48222857714 0.80023699999 -0.35623651743
0.036434084177 0.92385298014 -0.37958580256
0.26862958074 0.95235520601 -0.14439199865
0.27874338627 0.93757855892 0.20731429756
0.45658141375 0.88936525583 0.022797262296
0.40921890736 0.82977974415 -0.37831386924
0.58877199888 0.51054465771 -0.6266156435
0.42248225212 0.70174866915 -0.57350283861
0.61643749475 0.65128922462 -0.44237440825
0.1366802901 0.79477822781 -0.59026527405
0.94580739737 -0.24060231447 -0.21891959012
0.79361468554 -0.40298113227 -0.45482480526
0.87464851141 -0.12152966857 -0.46943518519
0.97429871559 -0.0018175602891 -0.225253582
0.49253940582 -0.034646391869 -0.86962497234
0.42852154374 -0.26748332381 -0.86298120022
0.26657229662 0.013556624763 -0.96365660429
0.17643715441 -0.22743654251 -0.9575984478
0.2243488133 -0.44809657335 -0.86297565699
0.011433747597 0.044979117811 -0.99841225147
0.68308001757 -0.23673307896 -0.69077765942
0.57661044598 -0.46009337902 -0.67510652542
0.35437312722 -0.47767749429 -0.80329686403
0.48041775823 -0.6742143631 -0.56082803011
0.67392683029 -0.6432055831 -0.36293131113
0.7114135623 0.35449695587 -0.60677623749
0.73985922337 0.48348665237 -0.46774083376
0.59096825123 0.3242302835 -0.73773354292
0.67952120304 0.22255982459 -0.69909715652
0.8247640729 0.31716552377 -0.46815863252
0.77510565519 0.20519593358 -0.59754395485
0.16424915195 0.37477171421 -0.91242492199
0.38508909941 0.22363425791 -0.89402282238
0.098818607628 0.20814920962 -0.97254025936
0.75432813168 -0.056977398694 -0.65394824743
0.019182479009 0.55271422863 0.83306264877
-0.20313331485 0.39129149914 0.89729976654
-0.45256954432 0.34533703327 0.8220077157
-0.60263335705 -0.086785137653 0.79123872519
-0.46605136991 -0.3075274229 0.82922285795
-0.37094593048 -0.098811320961 0.92260098457
-0.25285243988 -0.30568191409 0.91762822866
-0.5954041481 -0.48751050234 0.63799637556
0.93437927961 0.11824370176 0.33532017469
0.96755450964 0.21806886792 0.12705700099
0.84663653374 0.44014132023 0.2991399169
-0.95260119438 0.058270230889 -0.29871469736
-0.76508527994 -0.12344674021 -0.63159739971
-0.82301354408 0.20521618426 -0.52956998348
-0.86758428812 0.41171869636 -0.27881154418
-0.96556413174 0.25913101435 0.020516522229
-0.85033094883 0.52619355917 0.0024580857717
-0.66317892075 0.59577536583 -0.45304793119
-0.70645153522 0.68405419588 -0.1819832772
-0.69590914249 0.68965232372 0.19975960255
-0.46245378256 -0.32688239217 -0.82410562038
-0.6098267436 -0.47089806199 -0.63768553734
-0.59312206507 -0.15216962993 -0.78949606419
-0.3567211926 -0.52318012714 -0.77332490683
-0.38728106022 -0.75512599945 -0.52894973755
0.51164573431 0.84497022629 -0.15493685007
0.66419309378 0.71739149094 -0.20973733068
0.64974480867 0.76023793221 0.0050454968587
0.810285151 0.58577007055 -0.0085259396583
0.71661680937 0.67123150826 0.18976612389
0.54317253828 0.8173622489 0.19194577634
-0.65424358845 0.54017025232 0.52916622162
-0.84614181519 0.4611492157 0.26713556051
0.82827746868 0.45150649548 -0.33166065812
0.76206433773 0.58134543896 -0.28513678908
0.039429645985 -0.52883917093 0.84710198641
0.50924688578 0.27803352475 0.81445580721
-0.0064240768552 0.30841833353 0.95117384195
0.17073594034 0.29730665684 0.93929970264
-0.047054637223 0.12370518595 0.99113929272
0.14036479592 0.1350107789 0.98087894917
0.079873479903 -0.012165071443 0.99650073051
0.30116447806 0.3968077302 0.86706614494
0.34161898494 0.17291353643 0.92383521795
0.51801258326 -0.024901833385 0.85482108593
0.27574911714 -0.020950283855 0.96099507809
-0.013578517362 -0.91840273142 -0.39450800419
0.22333429754 -0.91154891253 -0.34450948238
0.31494188309 -0.59158730507 -0.73954862356
0.8558062911 0.13755474985 -0.49857893586
0.80270373821 0.055931966752 -0.59371006489
0.71590811014 0.090873919427 -0.69225478172
0.59611845016 0.12584932148 -0.79216456413
0.65082997084 -0.013369895518 -0.759090662
0.098219402134 -0.84721696377 -0.52215760946
0.30178138614 -0.80252689123 -0.51440417767
0.14509798586 -0.7596989274 -0.63383638859
0.25976541638 -0.68831425905 -0.67609995604
-0.26060113311 -0.8935213089 -0.36574020982
-0.014998869039 -0.76646691561 -0.64209878445
0.072813868523 -0.68731808662 -0.72251743078
-0.055926926434 -0.68070852757 -0.73028725386
-0.16049900651 -0.72128218412 -0.6725987792
0.1011621058 -0.58792150021 -0.80234825611
-0.036026209593 -0.59547644854 -0.80244767666
-0.11862692982 -0.84204983711 -0.52522057295
-0.22230635583 -0.79294651747 -0.56589341164
-0.14507943392 -0.61552214622 -0.77422046661
-0.12594252825 -0.53362417221 -0.83625411987
0.18519723415 -0.63674461842 -0.74840736389
-0.73858547211 0.40546059608 -0.53853583336
-0.66220915318 0.28756189346 -0.69204586744
-0.60242259502 0.44346502423 -0.66343021393
-0.69094884396 0.11886537075 -0.71293383837
-0.29155293107 0.56136572361 -0.77434068918
-0.39064407349 0.45390751958 -0.8004977107
-0.48605984449 0.57108211517 -0.66134256124
-0.46460801363 0.27095580101 -0.84303623438
-0.55609589815 0.17832124233 -0.81157910824
-0.5430675149 0.34609273076 -0.76456743479
-0.57507276535 0.042898073792 -0.81697106361
-0.45920261741 0.077033758163 -0.88488841057
-0.39458310604 0.19005772471 -0.89899021387
0.5047237277 -0.3058206737 0.80740809441
0.69299650192 -0.18442733586 0.69692260027
0.61428117752 -0.4616483748 0.63970637321
0.82079565525 0.0030950554647 0.57114607096
0.67439955473 0.10668069869 0.73058944941
-0.74610692263 0.067336313426 0.66179543734
-0.55782699585 0.13707394898 0.81864517927
-0.68010550737 0.27954125404 0.6776252389
0.31968522072 -0.38650038838 0.86451202631
0.37029716372 -0.18686316907 0.90992021561
-0.2223149538 -0.44962278008 -0.86497867107
-0.29995283484 -0.36072012782 -0.88293850422
0.20245721936 -0.21960096061 0.95415127277
0.094083964825 -0.42441236973 -0.89960539341
-0.006586433854 -0.30724209547 -0.95152533054
-0.14915198088 -0.36625766754 -0.91847348213
-0.035235211253 -0.41321057081 -0.90994483232
-0.11609590799 -0.45282608271 -0.88396900892
-0.01005633641 -0.50520795584 -0.86288267374
-0.22329699993 -0.54789113998 -0.805952847
-0.26662933826 -0.62637591362 -0.73192131519
0.92252802849 0.077811144292 -0.37748539448
0.91414648294 0.40036427975 0.063974179327
0.99018645287 0.12621711195 -0.056630469859
0.85092973709 0.49352228642 -0.17982542515
0.9397585988 0.17164130509 -0.29550090432
0.96411705017 0.20245108008 -0.17156164348
0.92637908459 0.28540974855 -0.24561998248
0.90178114176 0.26411879063 -0.34202519059
0.93428361416 0.3241841197 -0.14835174382
0.88088738918 0.35240006447 -0.31586307287
0.89341044426 0.39393922687 -0.21593356133
0.90246236324 0.42354384065 -0.07849034667
0.8928425312 0.19461537898 -0.40625989437
0.95791763067 0.28467854857 -0.036581322551
-0.048346336931 -0.16351616383 -0.98535943031
-0.17942804098 -0.24479392171 -0.95281863213
-0.20682755113 -0.11779937148 -0.97123515606
-0.32379838824 -0.25450119376 -0.91110277176
-0.2551472187 0.8566082716 -0.44720494747
-0.070513963699 0.52809971571 -0.84622681141
-0.12851850688 0.62387222052 -0.7708992362
0.011610414833 0.61197441816 -0.79075467587
-0.0416482687 0.72330862284 -0.68926739693
-0.22464452684 0.68577182293 -0.69229161739
0.12052135915 0.673427701 -0.72931879759
-0.066747866571 0.82623243332 -0.55871266127
0.70924735069 -0.69722634554 -0.10302512348
0.83377599716 -0.50631856918 -0.22018688917
0.4389590621 0.45655965805 -0.77293401957
0.41239538789 0.58477431536 -0.69855582714
0.26810973883 0.67759108543 -0.68478536606
0.28075167537 0.57101684809 -0.77137845755
0.30044344068 0.44148421288 -0.84539675713
-0.3357282877 0.75845783949 -0.55833017826
-0.48170620203 0.69263440371 -0.53680682182
-0.36167174578 0.65967077017 -0.65884530544
0.14783585072 0.53944891691 -0.82883232832
-0.18664431572 0.77443671227 -0.60443353653
0.035371173173 0.46276694536 -0.88574445248
-0.1318359822 -0.029771668836 -0.99081206322
-0.18119083345 0.087871775031 -0.97951221466
-0.26584643126 -0.010138929822 -0.96398204565
-0.32653859258 0.094999238849 -0.94037443399
-0.33537837863 -0.095577038825 -0.93720811605
-0.39386796951 -0.011348709464 -0.91908270121
-0.46650797129 -0.12367592007 -0.87567418814
-0.51050132513 -0.032764252275 -0.85909330845
-0.65313917398 -0.029103057459 -0.75667130947
-0.28345304728 -0.17439951003 -0.94295758009
-0.38234123588 -0.18110536039 -0.90597331524
-0.090791217983 0.20045995712 -0.97541064024
-0.01814500615 0.33761036396 -0.94108265638
-0.18529181182 0.31369146705 -0.93124884367
-0.25577095151 0.20269548893 -0.94526022673
-0.3301679194 0.31061518192 -0.89127087593
-0.17843213677 0.52267563343 -0.83365398645
-0.25426656008 0.43036854267 -0.86604660749
-0.12117422372 0.4249805212 -0.89699047804
-0.16333732009 -0.57206308842 0.80349379778
-0.35873323679 -0.60630482435 0.70975369215
-0.67887830734 -0.60690993071 0.41335046291
-0.43939065933 -0.72905349731 0.52481335402
-0.28520408273 -0.45833218098 0.84173870087
-0.19736912847 -0.17018024623 0.96529430151
-0.17103666067 -0.021886631846 0.98466700315
0.022466132417 -0.1264462918 0.99171864986
0.12919671834 -0.12843494117 0.98319965601
0.080099731684 -0.23806767166 0.96788674593
-0.023307694122 -0.22074881196 0.97503113747
-0.007117469795 -0.35539060831 0.93473345041
0.10901582241 -0.36598354578 0.92416548729
-0.12031594664 -0.27138718963 0.95484578609
-0.12044005096 -0.42160412669 0.89888209105
-0.13447189331 0.24878485501 0.95914632082
-0.32032594085 0.040657933801 0.94634532928
-0.46038243175 0.030813988298 0.8871127367
-0.40864941478 0.15570504963 0.89902442694
-0.28484413028 0.14337328076 0.94768404961
-0.26346004009 0.25263565779 0.93043929338
-0.18043513596 0.1299675703 0.9747980237
-0.04213969782 -0.034704294056 0.99847912788
-0.089272670448 -0.13408958912 0.98691266775
-0.37857797742 -0.64137154818 -0.66542547941
-0.50241690874 0.44373470545 -0.74206697941
-0.44634759426 0.36404702067 -0.81746661663
0.23474304378 -0.31958994269 0.91802811623
0.17643994093 -0.4492701292 0.87535172701
0.51330840588 0.38423618674 -0.76740825176
0.4294180274 0.34687453508 -0.83382034302
0.49794000387 0.28059202433 -0.82062894106
0.50333118439 0.18286758661 -0.84446114302
0.11206310242 -0.5097168684 -0.85290658474
0.21832151711 -0.54697835445 -0.80815124512
0.58277457952 0.23056446016 -0.77926206589
-0.16419111192 -0.67094373703 -0.72296357155
-0.14985400438 -0.77951532602 -0.60794210434
-0.2250957191 -0.73166239262 -0.64332646132
-0.22076241672 -0.68064463139 -0.69853371382
-0.27447631955 -0.68795031309 -0.67184579372
-0.28224650025 -0.73587495089 -0.61536931992
-0.32541131973 -0.69303232431 -0.64319032431
-0.3179782629 -0.64375889301 -0.69597369432
-0.20752564073 -0.63064563274 -0.74774575233

CELLS 530 2120
3 0 1 2
3 3 4 5
3 6 5 7
3 7 8 6
3 9 10 11
3 9 0 10
3 12 13 14
3 13 15 16
3 15 17 16
3 16 17 4
3 18 14 19
3 19 14 13
3 12 15 13
3 20 5 17
3 17 5 4
3 21 22 0
3 0 22 1
3 21 23 22
3 23 24 22
3 23 25 24
3 22 24 1
3 26 23 21
3 27 28 29
3 27 21 28
3 21 27 26
3 26 27 30
3 9 28 0
3 28 21 0
3 31 32 33
3 33 32 30
3 26 30 34
3 7 35 8
3 36 37 35
3 37 38 35
3 35 38 8
3 39 40 41
3 40 42 41
3 42 40 43
3 41 42 44
3 39 45 40
3 45 46 40
3 45 36 46
3 40 46 47
3 48 46 49
3 36 45 37
3 50 31 51
3 52 50 53
3 52 31 50
3 50 54 55
3 56 57 58
3 41 57 39
3 45 59 37
3 2 60 0
3 0 60 10
3 2 61 60
3 2 62 61
3 63 64 65
3 64 66 65
3 64 63 67
3 8 68 6
3 8 69 68
3 69 70 68
3 68 70 11
3 11 70 9
3 14 71 12
3 12 71 72
3 73 71 74
3 71 75 74
3 71 14 75
3 74 75 76
3 25 77 78
3 77 74 78
3 78 74 76
3 18 75 14
3 25 78 24
3 24 78 79
3 73 72 71
3 80 81 82
3 80 83 81
3 72 81 12
3 12 81 15
3 15 81 84
3 30 85 86
3 85 87 86
3 85 29 87
3 86 87 88
3 88 87 89
3 87 90 89
3 87 29 90
3 89 90 9
3 29 85 27
3 27 85 30
3 9 90 28
3 28 90 29
3 30 86 33
3 88 89 70
3 70 89 9
3 1 91 2
3 2 91 62
3 1 79 91
3 79 92 91
3 79 76 92
3 91 92 18
3 76 79 78
3 24 79 1
3 54 51 93
3 51 94 93
3 51 33 94
3 33 51 31
3 50 51 54
3 3 95 4
3 18 92 75
3 75 92 76
3 88 94 86
3 86 94 33
3 10 96 11
3 61 97 60
3 97 98 60
3 99 100 97
3 99 101 100
3 97 100 98
3 98 102 60
3 60 102 10
3 10 102 96
3 102 103 96
3 102 98 103
3 96 103 104
3 98 100 103
3 100 105 103
3 100 101 105
3 103 105 104
3 106 107 17
3 107 20 17
3 47 46 108
3 109 55 54
3 50 55 53
3 109 110 55
3 110 111 55
3 110 59 111
3 55 111 53
3 59 110 37
3 37 110 109
3 53 111 112
3 111 113 112
3 111 59 113
3 112 113 39
3 39 113 45
3 113 59 45
3 106 114 107
3 114 115 107
3 114 116 115
3 107 115 20
3 20 115 48
3 115 117 48
3 115 116 117
3 15 118 17
3 118 106 17
3 116 119 120
3 119 121 120
3 119 122 121
3 123 120 124
3 125 118 126
3 125 106 118
3 84 118 15
3 127 124 121
3 127 128 124
3 121 124 120
3 117 116 129
3 114 119 116
3 106 125 114
3 114 125 119
3 73 130 131
3 130 132 131
3 130 77 132
3 77 130 74
3 130 73 74
3 73 133 72
3 134 135 136
3 136 132 77
3 137 138 139
3 138 133 131
3 138 140 133
3 131 133 73
3 141 138 142
3 104 143 144
3 143 145 144
3 143 3 145
3 144 145 6
3 6 145 5
3 5 145 3
3 6 146 144
3 146 147 144
3 146 11 147
3 144 147 104
3 63 148 19
3 148 18 19
3 63 149 148
3 149 150 148
3 149 62 150
3 148 150 18
3 18 150 91
3 150 62 91
3 11 146 68
3 68 146 6
3 151 143 152
3 151 3 143
3 152 143 104
3 153 83 154
3 104 147 96
3 96 147 11
3 155 152 105
3 105 152 104
3 42 156 157
3 158 159 160
3 159 161 160
3 159 156 161
3 160 161 128
3 158 160 153
3 162 153 128
3 160 128 153
3 153 162 83
3 83 162 163
3 127 162 128
3 128 161 124
3 124 161 123
3 109 164 37
3 37 164 38
3 69 165 70
3 165 88 70
3 38 166 8
3 166 69 8
3 88 167 94
3 94 167 93
3 38 168 169
3 168 170 169
3 168 171 170
3 169 170 172
3 171 173 170
3 173 174 170
3 173 93 174
3 170 174 172
3 93 173 54
3 54 173 171
3 172 174 175
3 174 167 175
3 174 93 167
3 175 167 88
3 171 176 54
3 54 176 109
3 109 176 164
3 176 168 164
3 176 171 168
3 164 168 38
3 38 169 166
3 169 177 166
3 169 172 177
3 166 177 69
3 69 177 165
3 177 175 165
3 177 172 175
3 165 175 88
3 42 178 44
3 42 157 178
3 157 179 178
3 157 158 179
3 178 179 180
3 179 154 181
3 179 158 154
3 181 154 80
3 80 154 83
3 153 154 158
3 158 157 159
3 159 157 156
3 23 26 182
3 183 184 185
3 184 186 185
3 184 187 186
3 185 186 188
3 187 184 134
3 188 186 34
3 186 189 34
3 34 189 26
3 32 34 30
3 20 190 5
3 190 7 5
3 36 191 49
3 191 190 49
3 191 7 190
3 49 190 20
3 189 182 26
3 23 182 25
3 7 191 35
3 35 191 36
3 192 193 31
3 31 193 32
3 32 193 194
3 193 195 194
3 193 192 195
3 194 195 188
3 56 196 57
3 25 197 198
3 197 199 198
3 197 187 199
3 198 199 136
3 56 200 196
3 200 195 196
3 200 188 195
3 196 195 192
3 36 49 46
3 48 49 20
3 136 199 134
3 134 199 187
3 25 198 77
3 77 198 136
3 189 201 182
3 201 197 182
3 201 187 197
3 182 197 25
3 188 200 185
3 183 185 202
3 187 201 186
3 186 201 189
3 32 194 34
3 34 194 188
3 44 203 204
3 203 205 204
3 203 180 205
3 204 205 206
3 180 207 205
3 207 208 205
3 207 209 208
3 205 208 206
3 206 208 141
3 208 210 141
3 208 209 210
3 141 210 140
3 82 211 210
3 140 210 211
3 210 209 82
3 211 82 72
3 72 82 81
3 80 82 209
3 140 211 133
3 133 211 72
3 138 141 140
3 180 203 178
3 178 203 44
3 180 212 207
3 212 213 207
3 212 181 213
3 207 213 209
3 209 213 80
3 80 213 181
3 181 212 179
3 179 212 180
3 44 58 41
3 41 58 57
3 44 214 58
3 214 215 58
3 214 216 215
3 58 215 56
3 206 142 217
3 142 218 217
3 142 137 218
3 217 218 216
3 134 219 220
3 219 221 220
3 219 183 221
3 220 221 216
3 216 221 215
3 221 202 215
3 221 183 202
3 215 202 56
3 216 218 220
3 134 220 135
3 135 220 218
3 56 202 200
3 200 202 185
3 183 219 184
3 184 219 134
3 216 214 217
3 204 214 44
3 206 217 204
3 204 217 214
3 137 142 138
3 141 142 206
3 95 222 4
3 4 222 223
3 16 224 13
3 13 224 19
3 16 225 224
3 225 67 224
3 225 223 67
3 224 67 19
3 223 225 4
3 4 225 16
3 223 226 64
3 64 226 66
3 19 67 63
3 64 67 223
3 66 227 65
3 65 227 228
3 101 229 230
3 229 231 230
3 229 232 231
3 230 231 155
3 232 233 231
3 233 234 231
3 233 95 234
3 231 234 155
3 232 235 233
3 235 236 233
3 235 66 236
3 233 236 95
3 95 236 222
3 236 226 222
3 236 66 226
3 222 226 223
3 61 237 97
3 237 99 97
3 65 238 239
3 238 240 239
3 238 241 240
3 239 240 149
3 241 242 240
3 62 242 61
3 61 242 237
3 242 243 237
3 242 241 243
3 237 243 99
3 99 243 228
3 228 243 238
3 241 238 243
3 238 65 228
3 228 244 99
3 99 244 101
3 101 230 105
3 105 230 155
3 101 244 229
3 244 245 229
3 244 228 245
3 229 245 232
3 232 245 235
3 245 227 235
3 245 228 227
3 235 227 66
3 83 246 81
3 246 84 81
3 132 139 131
3 131 139 138
3 135 247 136
3 247 132 136
3 135 248 247
3 248 139 247
3 248 137 139
3 247 139 132
3 149 240 62
3 62 240 242
3 65 239 63
3 63 239 149
3 155 249 152
3 249 151 152
3 151 250 3
3 3 250 95
3 95 250 234
3 250 249 234
3 250 151 249
3 234 249 155
3 137 248 218
3 218 248 135
3 192 251 252
3 251 253 252
3 251 52 253
3 252 253 57
3 52 251 31
3 31 251 192
3 57 254 39
3 39 254 112
3 123 255 256
3 255 43 256
3 255 156 43
3 256 43 47
3 47 43 40
3 43 156 42
3 112 257 53
3 53 257 52
3 52 257 253
3 257 254 253
3 257 112 254
3 253 254 57
3 47 108 256
3 108 129 256
3 108 117 129
3 256 129 123
3 117 108 48
3 48 108 46
3 122 258 121
3 258 127 121
3 156 255 161
3 255 123 161
3 123 129 120
3 120 129 116
3 125 259 119
3 119 259 122
3 192 252 196
3 196 252 57
3 122 260 261
3 260 262 261
3 260 263 262
3 261 262 163
3 263 264 262
3 264 265 262
3 264 246 265
3 262 265 163
3 246 264 84
3 84 264 263
3 163 265 83
3 265 246 83
3 263 126 84
3 84 126 118
3 125 126 259
3 126 260 259
3 126 263 260
3 259 260 122
3 122 261 258
3 261 266 258
3 261 163 266
3 258 266 127
3 127 266 162
3 266 163 162

CELL_TYPES 530
5
5
5
5
5
5
5
5
5
5
5
5
5
5
5
5
5
5
5
5
5
5
5
5
5
5
5
5
5
5
5
5
5
5
5
5
5
5
5
5
5
5
5
5
5
5
5
5
5
5
5
5
5
5
5
5
5
5
5
5
5
5
5
5
5
5
5
5
5
5
5
5
5
5
5
5
5
5
5
5
5
5
5
5
5
5
5
5
5
5
5
5
5
5
5
5
5
5
5
5
5
5
5
5
5
5
5
5
5
5
5
5
5
5
5
5
5
5
5
5
5
5
5
5
5
5
5
5
5
5
5
5
5
5
5
5
5
5
5
5
5
5
5
5
5
5
5
5
5
5
5
5
5
5
5
5
5
5
5
5
5
5
5
5
5
5
5
5
5
5
5
5
5
5
5
5
5
5
5
5
5
5
5
5
5
5
5
5
5
5
5
5
5
5
5
5
5
5
5
5
5
5
5
5
5
5
5
5
5
5
5
5
5
5
5
5
5
5
5
5
5
5
5
5
5
5
5
5
5
5
5
5
5
5
5
5
5
5
5
5
5
5
5
5
5
5
5
5
5
5
5
5
5
5
5
5
5
5
5
5
5
5
5
5
5
5
5
5
5
5
5
5
5
5
5
5
5
5
5
5
5
5
5
5
5
5
5
5
5
5
5
5
5
5
5
5
5
5
5
5
5
5
5
5
5
5
5
5
5
5
5
5
5
5
5
5
5
5
5
5
5
5
5
5
5
5
5
5
5
5
5
5
5
5
5
5
5
5
5
5
5
5
5
5
5
5
5
5
5
5
5
5
5
5
5
5
5
5
5
5
5
5
5
5
5
5
5
5
5
5
5
5
5
5
5
5
5
5
5
5
5
5
5
5
5
5
5
5
5
5
5
5
5
5
5
5
5
5
5
5
5
5
5
5
5
5
5
5
5
5
5
5
5
5
5
5
5
5
5
5
5
5
5
5
5
5
5
5
5
5
5
5
5
5
5
5
5
5
5
5
5
5
5
5
5
5
5
5
5
5
5
5
5
5
5
5
5
5
5
5
5
5
5
5
5
5
5
5
5
5
5
5
5
5
5
5
5
5
5
5
5
5
5
5
5
5
5
5
5
5
5
5
5
5
5
5
5
5
5
5
5
5
5
5
5
5
5
5
5
5
5
5
5
5
5
5
5
5
5
5
5
5
5
5
5
5
5
5
5
5

CELL_DATA 530
SCALARS cell_data_0 double
LOOKUP_TABLE default
2.08346365049e-05
2.65153731792e-05
7.62318617291e-07
3.87721773974e-06
2.23808746918e-05
2.65178299084e-05
2.68900487476e-05
2.21959175498e-05
1.27307307594e-05
1.48943923277e-05
1.77480215128e-05
7.47365182297e-06
2.97920002616e-05
1.14531824852e-05
1.10586847622e-05
2.57203967148e-06
7.61467467582e-06
1.26689460923e-06
4.00849850664e-06
2.44953717815e-06
4.58286298764e-06
2.67721992024e-05
2.82201216193e-06
9.93190563056e-07
2.46990802105e-05
1.67994509813e-05
1.47277008575e-05
2.29842385421e-06
1.05532085899e-07
1.48685425324e-07
1.75796352908e-05
8.09534920282e-06
5.85750065447e-07
1.0592500538e-06
1.23021141446e-06
2.48473696442e-06
7.31439313443e-07
3.5219774538e-07
9.49926576183e-07
2.2149948272e-06
2.37680008716e-08
2.31478011036e-07
1.39679272273e-06
7.95324813649e-07
3.55842918752e-07
2.50724883965e-07
1.87117595632e-05
1.13533056607e-05
4.91216481747e-07
3.31299826362e-05
3.58208715866e-05
2.47115153498e-05
3.35241081002e-05
3.64064511453e-05
2.99425659617e-05
2.32768151334e-05
2.06225687514e-05
1.66251126148e-05
2.11043117225e-05
9.53581146569e-06
3.6044447621e-06
4.06419293252e-06
9.70285929666e-06
1.48029377386e-05
6.65221723585e-07
6.62790570544e-07
4.37252189035e-07
2.30215126438e-07
1.15278002851e-06
2.84376835109e-06
1.30191712278e-06
5.42923380995e-07
1.94154841508e-06
6.00461894943e-06
2.20250662428e-06
2.99183230683e-06
6.20924144561e-07
6.33367961979e-08
1.78985176794e-07
6.88006538628e-07
2.22350349603e-06
1.55345346345e-06
1.14915506974e-07
5.65368077274e-07
1.1812781176e-06
7.07228598699e-08
5.56353464625e-07
1.16235257557e-06
1.38829068001e-06
3.03002669323e-06
1.39259828343e-06
8.56963214164e-07
5.06619985783e-06
2.44469404629e-06
2.68698909228e-07
1.4920103704e-06
5.78809110468e-06
1.47518679385e-05
1.24163251884e-05
2.88168599018e-06
3.45305051676e-07
7.69973626367e-06
4.11181087e-06
2.3127883176e-06
1.48360615148e-06
7.20298979671e-07
9.16870244727e-06
1.40064967787e-05
2.43940505174e-07
6.68797975449e-07
1.15581852334e-05
4.75522383843e-07
7.43387443304e-06
1.82354359732e-05
1.38589680027e-05
1.93484195144e-05
2.60957152176e-05
2.25798144735e-05
1.00822439269e-05
1.00795482011e-05
1.04244708305e-05
2.3380680195e-05
2.43734348149e-05
1.19953707991e-05
1.08150715505e-05
1.12209179534e-05
2.15417303783e-05
1.16300865472e-05
1.1127053506e-05
1.09903819185e-05
2.18458136315e-05
1.18917720584e-05
4.36569120595e-06
5.10267230126e-07
9.13652788729e-06
5.99267396078e-06
5.60725953178e-06
7.00891679176e-08
9.85961021031e-06
5.17202989785e-06
1.64351873135e-05
9.20774105927e-06
5.84906658724e-06
3.74152300256e-08
1.11430883518e-05
8.86071202058e-07
1.00463140057e-06
1.71416010688e-05
6.28819389302e-06
4.37490670339e-07
2.43747153744e-05
1.24864267815e-06
1.29560576348e-06
1.35681283374e-07
2.36818918453e-05
4.68588153488e-06
1.29162661511e-05
1.58650309534e-05
2.06237315063e-08
6.07305574749e-06
1.76580587451e-05
2.62117591751e-07
6.25879840116e-06
1.06315312699e-06
1.22160472463e-08
1.18114849383e-08
2.14731901541e-10
1.46187533527e-05
1.9656645637e-05
5.38754933511e-06
2.33784730769e-07
2.99303526201e-07
7.90022869577e-06
1.41738102308e-05
9.69644556267e-07
5.41947075938e-07
8.46456553289e-06
1.12871110653e-05
3.18044000996e-05
5.0462924371e-05
1.23822894436e-05
1.48125150466e-05
5.12652374529e-06
3.79830181434e-06
1.25436616727e-05
7.90782288421e-07
1.75873618296e-05
2.62180083106e-06
1.06318050134e-05
1.88617500553e-05
2.08989763226e-05
4.32018220253e-05
1.82086283251e-05
6.5417184141e-06
1.83608991221e-05
1.57978452141e-05
1.13111223e-05
8.7915238436e-06
6.30440466822e-06
6.02744563026e-06
2.39087338063e-05
4.60435177058e-05
2.4138895447e-06
4.14722136747e-06
1.35176758195e-05
1.71426179029e-05
1.95805031016e-05
1.53531654416e-08
1.733219099e-05
1.42072037077e-05
1.09602224812e-05
1.723031534e-05
7.24745273432e-07
2.25092856362e-08
2.38348093891e-09
4.0536981778e-08
7.32501614667e-09
1.38261508947e-08
8.87539186933e-09
6.46101826958e-09
2.22446247897e-08
9.68592585151e-06
6.9165306572e-09
1.27161622422e-08
1.51514069412e-05
9.59821725916e-06
6.69264248124e-07
2.11686233486e-06
1.4949886481e-06
4.51171387274e-07
8.39290518186e-07
1.22978386191e-05
8.11271124518e-06
2.3876620906e-07
2.85103588066e-08
3.22064946986e-06
7.45032416405e-06
2.6163646458e-06
5.03183178387e-09
1.33787887111e-09
6.60177812045e-06
4.61578913034e-07
5.04358141148e-06
7.96953776975e-06
1.17469506854e-08
4.40187953861e-08
2.06041425518e-07
4.88335458306e-06
6.81967481855e-06
4.28307240336e-06
1.23432508476e-08
3.02033324665e-06
2.4696389455e-07
2.23530318481e-07
9.15063584167e-08
9.21395999058e-06
4.36877556688e-07
8.4909360308e-07
4.34438221205e-07
9.12864731424e-06
3.4395058472e-07
1.58522716779e-06
1.32024807636e-06
9.79945712896e-07
4.31622790163e-07
5.36050599339e-07
1.02252675326e-07
2.36468219146e-08
1.85876579476e-07
1.46240920541e-07
1.48034178866e-08
3.26352983538e-07
3.51189249277e-07
1.22676566243e-05
1.12716687371e-07
3.2524443487e-08
1.27839676178e-07
5.74940096876e-08
3.0786818095e-07
1.20512902088e-07
2.74080290955e-07
7.71969200501e-06
8.81762642996e-08
4.19201218895e-06
5.79778514643e-06
6.9600182155e-07
1.35867544147e-06
2.74426925039e-06
1.76644574417e-06
8.16441001021e-06
8.32872937599e-07
4.38429632679e-06
8.47573227662e-07
1.14089081921e-05
2.16460008375e-07
3.78501478436e-07
5.32205448582e-07
9.10624508105e-06
5.20882671435e-07
2.6048864665e-05
1.30653706988e-08
1.10571191273e-07
1.11059161622e-08
3.64297393881e-06
1.42281737999e-06
2.31549987391e-07
2.45106261069e-07
9.30630236606e-06
6.05689659516e-07
1.60257252067e-06
4.3867079975e-06
1.4810890144e-07
1.42086774642e-06
8.31108019391e-06
2.0923609932e-07
1.30141282209e-07
3.36865530215e-08
8.23238454795e-08
2.18639514402e-08
3.29579220544e-08
3.49837550227e-08
1.22628200562e-07
3.03806650863e-07
2.61585248392e-07
4.33590217867e-07
1.67814614798e-07
1.83112912994e-07
1.29459981383e-05
1.77982675478e-07
6.73494907943e-08
1.78886640418e-07
1.16055386267e-05
1.11286116817e-05
1.98296471702e-08
9.3222500738e-08
8.73311218434e-07
9.6045432007e-08
8.58219540051e-07
7.73360864292e-08
1.32001467179e-07
4.70837172007e-07
2.95610452083e-07
5.04473766923e-06
3.87052984126e-06
6.09562458694e-06
5.93646847076e-07
9.40998399526e-07
1.11946404659e-07
3.33274966067e-08
5.85131586287e-08
1.34204808204e-07
2.19822286965e-07
1.69728873625e-07
8.24857439699e-08
8.61626711678e-08
6.96284058663e-07
3.18297838168e-05
3.55674658134e-07
8.89502844546e-08
9.25183904557e-06
1.63093337564e-06
1.20227549779e-05
1.60113838083e-08
9.04325467737e-06
6.89528674901e-06
4.97658459436e-08
2.98427226557e-08
2.1067159136e-08
6.70859706158e-06
7.48140281188e-06
2.42203218004e-08
4.43703333376e-08
1.21079150699e-06
7.54473658159e-06
2.42634690795e-06
2.16648142994e-06
1.14289938234e-06
3.66480066159e-08
9.72299355742e-08
1.58341704292e-07
7.910058006e-06
4.42988394191e-07
1.40281902225e-05
1.31552610574e-07
1.71048059067e-05
1.19245425134e-05
1.02621262253e-06
2.02511589234e-05
3.69025641477e-06
3.05400983082e-06
6.12153815815e-06
6.67172535213e-06
9.29191105518e-06
6.40458173929e-06
1.74103330381e-05
1.26580750881e-05
1.61477819575e-05
1.54272955396e-05
2.08486376538e-05
1.91500909393e-05
1.34587647357e-05
1.42746310751e-05
1.03390830133e-05
9.65593053771e-06
7.43418554174e-06
9.61555667544e-06
1.51346918921e-06
8.3547342221e-06
2.53197119887e-05
7.26703441198e-06
3.5770302548e-06
1.17701532506e-05
8.53905345787e-06
2.77857322916e-05
2.87107660648e-06
8.23164951324e-06
1.19500323994e-05
1.01506396921e-05
1.73055120904e-05
1.93672962024e-05
8.31591403635e-06
4.1757310174e-06
7.73978263653e-06
4.80511895863e-06
8.37350312435e-06
1.09293265946e-05
8.03151967336e-06
1.62703198866e-06
8.54064163698e-06
1.39610807957e-05
1.87063596813e-05
1.91256682229e-05
8.2303585855e-06
1.91487376445e-05
1.96301009699e-05
1.91200219481e-05
1.70104889658e-05
1.56576833517e-05
1.23137142401e-05
9.62888752478e-06
1.34904414562e-05
8.5365109286e-06
3.79729805411e-06
9.63836527176e-06
1.22566689114e-05
1.231348525e-05
2.65866388552e-05
2.74925943382e-05
3.20752992341e-05
3.36344594967e-05
3.74271295715e-05
4.49379455799e-05
4.06596826574e-05
5.76576352618e-05
4.67998730452e-05
5.13887542369e-05
5.56428577571e-06
9.85158709423e-06
1.43382865171e-05
1.20147920546e-05
6.0200229342e-06
4.5501372925e-06
7.65429551963e-06
1.44307549214e-05
1.79439719363e-07
9.00779220227e-06
3.38102809729e-06
9.98476210936e-06
2.90879535621e-05
1.97027198414e-05
1.40095836464e-05
1.32233913344e-05
1.15353857604e-05
3.4685218608e-05
6.98208503144e-06
7.88675578026e-06
1.72055376468e-05
7.93405645381e-07
1.09088361e-05
9.20939805878e-10
3.62716279683e-08
3.20264390888e-07
9.78231592498e-07
9.09920617274e-08
3.99371728122e-06
1.06054538939e-05
1.067892479e-05
3.82314668149e-06
3.68925904636e-08
1.66317480257e-05
3.12787050485e-07
2.00354826198e-08
1.13171708492e-08
1.18187386447e-05
7.27976031783e-08
4.46361226467e-07
3.04261517247e-06
1.02379202882e-08
3.58025515634e-08
1.1833606909e-05
1.30537503888e-05
1.4847003769e-05
7.65153228373e-08
4.60538117984e-06
2.33545298921e-05
3.34006691837e-05
1.8534028649e-06
1.0904645081e-09
1.97031165158e-06
2.90964683851e-06
1.76448355988e-06
3.20625077662e-09
2.68366914966e-06
2.72443382774e-06
6.18683761258e-06
4.1225926417e-06
5.97603415311e-06
6.07410372963e-06
5.84143024383e-06
3.95735863267e-07
4.55178939018e-08
1.39157410463e-08
2.71008729505e-06
2.31692211198e-06
1.61604474518e-06
1.66034089813e-09
2.63678010623e-06
5.28387929315e-10
4.00790692164e-09
3.9650851367e-06

