# vtk DataFile Version 3.0
File Name: Molecule/sphere_excent/sphere_excent_0-s9.vtk
ASCII
DATASET UNSTRUCTURED_GRID
FIELD FieldData 1
TIME 1 1 double
0.0
POINTS 81 double
0.00010195491632 0.85074800253 0.52546834946
-0.52418720722 0.76097780466 0.38119381666
-0.32110482454 0.51847934723 0.79010057449
-0.81054496765 0.30320587754 0.50099855661
-0.84114539623 0.53611761332 0.012677714229
-0.3087913394 -0.53095030785 0.78775203228
0.00017696872237 -0.85090732574 0.52536863089
0.3084307909 -0.50008642673 0.80915921926
0.027210406959 -0.010041570291 0.99883645773
0.52529090643 0.0002722623758 0.85092395544
0.80756813288 -0.31001320481 0.50174164772
0.50001674891 -0.80892121792 0.30893519521
0.85153186321 -0.52429687977 0.00072577357059
0.27174520493 -0.55478835106 -0.78627836704
-0.0018565444043 -0.85201174021 -0.52372652292
-0.30892896652 -0.49951002002 -0.80931144953
-0.057430617511 0.030632473528 -0.99704027176
-0.52790182829 -4.8843467084e-05 -0.84924936295
0.99724584818 -0.014350659214 0.055609565228
0.79618561268 0.30427879095 0.51825678349
0.52456879616 0.76382941008 0.37527194619
0.33306533098 0.50471001863 0.79396355152
-0.80907607079 -0.30903682113 -0.49985578656
-0.80257844925 0.29153099656 -0.51790732145
-0.85064715147 -0.52573758364 -1.1457429991e-06
-0.99760240316 -0.01616865024 0.0090696495026
-0.0002116439573 0.85067307949 -0.52565735579
-0.31308045983 0.49633681774 -0.80975574255
-0.50998866558 0.76855784655 -0.38125514984
-0.50003665686 -0.80888426304 -0.30896118283
-0.49988475442 -0.80942624807 0.30808225274
-9.146319826e-07 -0.99989467859 7.9054458183e-05
-0.80850344896 -0.30965074897 0.50024914742
-0.54989522696 -0.0011412978638 0.83304351568
0.49902155995 -0.80985456705 -0.30853503942
0.80710160732 -0.36239665747 -0.46504735947
0.22758449614 0.48604932427 -0.84196519852
0.0045975870453 0.99983209372 0.00025418412406
-0.27264818549 0.94683462381 0.17050912976
-0.27230259776 0.94704633951 -0.16999903321
-0.5346083045 0.84493416548 -0.00012100388267
0.50326859951 0.80431228876 -0.31556162238
0.52954101562 0.8481105566 0.0099276527762
0.84346032143 0.53294658661 -0.01296465937
0.27373200655 0.94891285896 -0.15723590553
0.27797979116 0.94533163309 0.16968925297
0.82364970446 0.31706497073 -0.46635198593
0.68733340502 0.58129954338 -0.43553897738
0.58319759369 0.45909661055 -0.66980826855
0.42178711295 0.67922455072 -0.60041326284
0.9527785778 -0.16493998468 -0.25510618091
0.86376512051 -0.043966155499 -0.50147533417
0.95532214642 0.15136174858 -0.25421720743
0.53609091043 0.011281824671 -0.84406471252
0.43456441164 -0.25691318512 -0.86325454712
0.27531695366 0.00484102685 -0.96118968725
0.148825109 -0.26934844255 -0.95137143135
0.68397670984 -0.191012308 -0.70406126976
0.57871568203 -0.44499200583 -0.68319797516
0.71201252937 0.35194063187 -0.60754030943
0.43922525644 0.45260506868 -0.77592968941
0.42494693398 0.2500590086 -0.86992591619
0.57636260986 0.2539434731 -0.77654892206
0.70262181759 0.16924926639 -0.69107246399
0.83595299721 0.14693780243 -0.52890193462
0.72633188963 0.0036197314039 -0.68716937304
-0.43491780758 0.25354707241 0.86396420002
0.00082811742323 0.52295678854 0.85233253241
-0.15639919043 0.26492249966 0.95154768229
0.16262340546 0.26401561499 0.95071256161
-0.27817517519 -0.00062282453291 0.96056371927
-0.43573671579 -0.2568513751 0.86257815361
-0.15852122009 -0.26762765646 0.95027291775
0.94324576855 0.15895651281 0.2911913991
0.96186208725 0.27283257246 0.033868975937
0.86271059513 0.43313351274 0.26086017489
-0.95128011703 0.1574806124 -0.26460757852
-0.86368900537 0.4322591424 -0.25921142101
-0.9608450532 0.27661940455 -0.0001299802243
-0.69261419773 0.5580496192 -0.45694813132
-0.71405529976 0.67109411955 -0.19953355193

CELLS 158 632
3 0 1 2
3 1 3 2
3 1 4 3
3 5 6 7
3 8 7 9
3 9 7 10
3 7 11 10
3 7 6 11
3 10 11 12
3 13 14 15
3 16 15 17
3 12 18 10
3 10 19 9
3 20 21 19
3 20 0 21
3 19 21 9
3 17 22 23
3 22 24 25
3 26 27 28
3 27 17 23
3 24 29 30
3 29 31 30
3 29 14 31
3 30 31 6
3 24 30 32
3 30 5 32
3 30 6 5
3 33 3 32
3 3 25 32
3 32 25 24
3 17 15 22
3 15 29 22
3 15 14 29
3 22 29 24
3 14 34 31
3 34 11 31
3 34 12 11
3 31 11 6
3 35 12 34
3 13 34 14
3 16 27 36
3 16 17 27
3 36 27 26
3 37 38 0
3 0 38 1
3 37 39 38
3 39 40 38
3 39 28 40
3 38 40 1
3 28 39 26
3 26 39 37
3 1 40 4
3 41 42 43
3 43 42 20
3 41 44 42
3 44 45 42
3 44 37 45
3 42 45 20
3 37 44 26
3 26 44 41
3 20 45 0
3 45 37 0
3 46 47 43
3 43 47 41
3 48 49 47
3 47 49 41
3 41 49 26
3 49 36 26
3 35 50 12
3 12 50 18
3 35 51 50
3 51 52 50
3 50 52 18
3 52 46 43
3 53 54 55
3 54 56 55
3 54 13 56
3 55 56 16
3 16 56 15
3 15 56 13
3 53 57 54
3 57 58 54
3 57 35 58
3 54 58 13
3 13 58 34
3 34 58 35
3 55 16 36
3 35 57 51
3 46 59 47
3 59 48 47
3 48 60 49
3 60 36 49
3 36 60 61
3 60 62 61
3 60 48 62
3 61 62 53
3 53 62 63
3 62 59 63
3 62 48 59
3 63 59 64
3 51 64 52
3 64 46 52
3 46 64 59
3 64 65 63
3 64 51 65
3 63 65 53
3 36 61 55
3 55 61 53
3 53 65 57
3 57 65 51
3 33 66 3
3 3 66 2
3 2 67 0
3 0 67 21
3 2 68 67
3 68 69 67
3 68 8 69
3 67 69 21
3 2 66 68
3 66 70 68
3 66 33 70
3 68 70 8
3 21 69 9
3 69 8 9
3 33 71 70
3 71 72 70
3 71 5 72
3 70 72 8
3 8 72 7
3 7 72 5
3 5 71 32
3 32 71 33
3 18 73 10
3 73 19 10
3 18 74 73
3 74 75 73
3 74 43 75
3 73 75 19
3 19 75 20
3 20 75 43
3 25 76 22
3 22 76 23
3 23 76 77
3 76 78 77
3 76 25 78
3 77 78 4
3 23 79 27
3 27 79 28
3 28 79 80
3 79 77 80
3 79 23 77
3 80 77 4
3 4 78 3
3 3 78 25
3 28 80 40
3 40 80 4
3 43 74 52
3 52 74 18

CELL_TYPES 158
5
5
5
5
5
5
5
5
5
5
5
5
5
5
5
5
5
5
5
5
5
5
5
5
5
5
5
5
5
5
5
5
5
5
5
5
5
5
5
5
5
5
5
5
5
5
5
5
5
5
5
5
5
5
5
5
5
5
5
5
5
5
5
5
5
5
5
5
5
5
5
5
5
5
5
5
5
5
5
5
5
5
5
5
5
5
5
5
5
5
5
5
5
5
5
5
5
5
5
5
5
5
5
5
5
5
5
5
5
5
5
5
5
5
5
5
5
5
5
5
5
5
5
5
5
5
5
5
5
5
5
5
5
5
5
5
5
5
5
5
5
5
5
5
5
5
5
5
5
5
5
5
5
5
5
5
5
5

CELL_DATA 158
SCALARS cell_data_0 double
LOOKUP_TABLE default
9.27801167758e-06
1.36601263233e-05
7.54989260745e-05
7.31158221114e-05
0.000105841871772
5.98777388741e-05
4.57613340432e-05
4.49130481659e-05
1.86418320033e-05
3.71657334542e-05
5.93871078268e-05
1.4311370389e-05
5.51895286301e-05
4.41215944778e-05
4.10064793035e-05
7.46311106752e-05
0.000155240005376
0.000117553849937
0.000104942337906
2.51027035197e-05
1.61680208448e-05
3.8938484713e-06
2.56914092019e-05
5.64167829353e-06
3.91885202757e-06
4.90992399031e-05
3.52825364021e-05
4.33978797868e-05
2.88427497553e-05
3.42502105149e-06
0.000184303874992
0.000152346708514
4.22451771547e-05
0.000145581566651
2.07005151129e-05
1.19709935923e-05
3.39735304294e-06
1.18632117333e-05
1.03938583886e-05
2.56959042221e-05
1.21986710968e-05
4.1837472396e-05
7.33137897279e-05
2.98461761723e-06
9.03767305933e-07
5.65255319592e-07
6.04620553733e-07
6.13261527361e-06
1.6791029946e-06
7.33763686097e-05
5.08645038483e-05
7.51004382946e-05
0.000192850859458
0.000185615108571
5.9626954252e-07
1.7146395473e-06
1.9522198865e-06
4.74286296191e-06
4.25635558169e-05
3.65057102856e-05
1.27647416723e-05
5.09328628526e-06
0.000175229840772
0.0001773042758
2.68369671466e-07
3.3271122389e-07
4.28217399949e-05
5.14322110807e-05
5.15051520156e-06
1.50752087487e-06
1.4987225972e-06
7.81315486965e-07
2.74622194254e-06
0.000171985940954
2.94636117246e-05
1.51230832976e-09
8.76858099259e-07
4.74137246075e-06
1.67125106802e-05
6.50207412137e-06
2.85194063177e-05
3.15193097659e-09
1.34575811905e-06
8.95061102535e-07
1.69258378367e-06
2.59860534095e-06
7.6013823855e-06
2.01031736766e-06
1.72173068573e-07
1.15182754787e-07
3.44158582526e-07
3.13062237607e-07
4.04392432705e-08
7.3957611403e-09
3.47246325067e-08
1.67852235171e-05
1.6813944139e-05
2.83035961271e-09
4.30814885303e-08
1.60400413733e-08
2.60630935575e-07
4.27990657284e-07
6.44020617002e-09
1.80716849725e-09
2.29434917533e-07
1.5800596887e-05
1.38483206792e-07
2.67903007081e-05
1.87564262768e-05
2.50283545119e-07
1.96683135863e-05
2.02111526153e-05
9.9380641858e-07
3.83807944624e-05
3.92675069156e-06
1.62919504302e-06
7.61525180121e-05
3.12558732393e-05
5.64496897283e-06
2.71993774379e-06
1.51826464751e-06
7.31136023868e-05
8.81071288484e-05
0.000121109452189
2.66029687217e-06
1.44622446168e-06
1.93661073447e-05
6.83149167833e-05
0.000155846003368
0.000106842326964
4.11025066581e-05
1.49511374948e-05
1.10321180843e-05
1.33793256578e-05
1.36394699662e-06
9.45799685565e-08
9.92775771789e-05
1.40339208905e-06
8.07703748909e-06
0.000151317815677
5.43975454457e-05
6.40926470009e-05
5.20002165057e-07
1.02858533274e-07
8.17839344746e-07
2.99471971236e-05
6.22337939642e-07
6.78816333148e-06
3.45626412844e-06
3.0880014248e-08
4.61791482782e-07
2.82024527083e-05
3.70109872441e-05
7.71173006951e-06
3.79619251096e-06
3.37049563634e-05
0.000111463294954
2.26122035697e-06

