# vtk DataFile Version 3.0
File Name: Molecule/sphere_excent/sphere_excent_0-s7.vtk
ASCII
DATASET UNSTRUCTURED_GRID
FIELD FieldData 1
TIME 1 1 double
0.0
POINTS 66 double
-0.00013725861209 0.85140097141 0.52448099852
-0.52058285475 0.76927655935 0.3697540462
-0.30731144547 0.49728682637 0.81133174896
-0.80992418528 0.30522575974 0.50079661608
-0.84953397512 0.52739870548 1.289431475e-05
-0.52566230297 -0.00022847559012 0.85069340467
0.3077827096 0.49801412225 0.81069946289
2.3335147489e-05 -0.00027859778493 0.99990028143
0.52566725016 -0.00013033625146 0.85069054365
-0.30897688866 -0.49996590614 0.80891931057
0.30897572637 -0.49995797873 0.80892652273
1.6569333638e-06 -0.85065168142 0.52572971582
0.80821323395 -0.30952054262 0.50089716911
0.49999684095 -0.80892241001 0.30894073844
0.85114836693 -0.52490818501 -0.00031728547765
0.28763139248 -0.53155821562 -0.79595786333
-0.00034798873821 -0.85092765093 -0.52537888288
-0.30868902802 -0.49972289801 -0.80925780535
-0.033817097545 0.017958588898 -0.99838244915
-0.52614802122 -0.00014873781765 -0.85042160749
0.99884796143 0.0015427515609 0.043716158718
0.80902945995 0.30679935217 0.50145816803
0.8503357172 0.52622914314 -0.00076848949539
0.51924687624 0.77427482605 0.3614936769
-0.80888622999 -0.30909904838 -0.49995625019
-0.80996692181 0.30524331331 -0.50072395802
-0.9998986125 6.384520384e-05 4.8689003052e-06
-0.85065096617 -0.52573090792 -5.2592326938e-07
0.00018899045244 0.8510441184 -0.52507185936
-0.3101220727 0.49728304148 -0.81038868427
-0.52006870508 0.76974904537 -0.36927080154
-0.49994778633 -0.80892699957 -0.30899468064
-0.4999435544 -0.8089312315 0.30898159742
5.2663363022e-06 -0.99989563227 5.74160822e-07
-0.80886667967 -0.30915123224 0.49995315075
0.49957555532 -0.8092725873 -0.30902442336
0.80458593369 -0.34367319942 -0.48250350356
0.25576260686 0.48605775833 -0.83335649967
0.0069191418588 0.99982100725 -2.6793153665e-05
-0.26955214143 0.94837039709 0.16726124287
-0.26944866776 0.94845533371 -0.16696156561
-0.53058546782 0.84756320715 7.3533497925e-05
0.50341182947 0.80369400978 -0.3169580102
0.52769905329 0.84938848019 0.0060360957868
0.27348953485 0.94869625568 -0.15893821418
0.27627187967 0.94663774967 0.16597706079
0.81721574068 0.30476456881 -0.4868901968
0.68801319599 0.58124613762 -0.43450132012
0.58394050598 0.43919864297 -0.68139243126
0.42539551854 0.67974859476 -0.59731847048
0.95172989368 -0.16259714961 -0.26048195362
0.85718947649 -0.02351780422 -0.51197659969
0.95430380106 0.15260350704 -0.25731569529
0.53532981873 0.012491429225 -0.84464740753
0.4349603951 -0.25680813193 -0.86297422647
0.27590280771 0.0014481794788 -0.96099919081
0.1563450098 -0.26592898369 -0.95114606619
0.68556547165 -0.18035887182 -0.70530533791
0.58072978258 -0.43694260716 -0.68673944473
0.70913761854 0.36231014132 -0.60468888283
0.43796464801 0.45839339495 -0.77311807871
0.42307204008 0.25637596846 -0.86894029379
0.57538175583 0.2363075316 -0.78255778551
0.70318746567 0.16655090451 -0.69077962637
0.84156644344 0.14555492997 -0.51997637749
0.71857750416 0.0031302804127 -0.69511693716

CELLS 128 512
3 0 1 2
3 1 3 2
3 1 4 3
3 2 3 5
3 0 2 6
3 2 7 6
3 2 5 7
3 6 7 8
3 5 9 7
3 9 10 7
3 9 11 10
3 7 10 8
3 8 10 12
3 10 13 12
3 10 11 13
3 12 13 14
3 15 16 17
3 18 17 19
3 14 20 12
3 20 21 12
3 20 22 21
3 12 21 8
3 22 23 21
3 23 6 21
3 23 0 6
3 21 6 8
3 19 24 25
3 24 26 25
3 24 27 26
3 25 26 4
3 28 29 30
3 29 25 30
3 29 19 25
3 30 25 4
3 27 31 32
3 31 33 32
3 31 16 33
3 32 33 11
3 27 32 34
3 32 9 34
3 32 11 9
3 34 9 5
3 5 3 34
3 3 26 34
3 3 4 26
3 34 26 27
3 19 17 24
3 17 31 24
3 17 16 31
3 24 31 27
3 16 35 33
3 35 13 33
3 35 14 13
3 33 13 11
3 36 14 35
3 15 35 16
3 18 29 37
3 18 19 29
3 37 29 28
3 38 39 0
3 0 39 1
3 38 40 39
3 40 41 39
3 40 30 41
3 39 41 1
3 30 40 28
3 28 40 38
3 1 41 4
3 41 30 4
3 42 43 22
3 22 43 23
3 42 44 43
3 44 45 43
3 44 38 45
3 43 45 23
3 38 44 28
3 28 44 42
3 23 45 0
3 45 38 0
3 46 47 22
3 22 47 42
3 48 49 47
3 47 49 42
3 42 49 28
3 49 37 28
3 36 50 14
3 14 50 20
3 36 51 50
3 51 52 50
3 50 52 20
3 20 52 22
3 52 46 22
3 53 54 55
3 54 56 55
3 54 15 56
3 55 56 18
3 18 56 17
3 17 56 15
3 53 57 54
3 57 58 54
3 57 36 58
3 54 58 15
3 15 58 35
3 35 58 36
3 55 18 37
3 36 57 51
3 46 59 47
3 59 48 47
3 48 60 49
3 60 37 49
3 37 60 61
3 60 62 61
3 60 48 62
3 61 62 53
3 53 62 63
3 62 59 63
3 62 48 59
3 63 59 46
3 51 64 52
3 64 46 52
3 46 64 63
3 64 65 63
3 64 51 65
3 63 65 53
3 37 61 55
3 55 61 53
3 53 65 57
3 57 65 51

CELL_TYPES 128
5
5
5
5
5
5
5
5
5
5
5
5
5
5
5
5
5
5
5
5
5
5
5
5
5
5
5
5
5
5
5
5
5
5
5
5
5
5
5
5
5
5
5
5
5
5
5
5
5
5
5
5
5
5
5
5
5
5
5
5
5
5
5
5
5
5
5
5
5
5
5
5
5
5
5
5
5
5
5
5
5
5
5
5
5
5
5
5
5
5
5
5
5
5
5
5
5
5
5
5
5
5
5
5
5
5
5
5
5
5
5
5
5
5
5
5
5
5
5
5
5
5
5
5
5
5
5
5

CELL_DATA 128
SCALARS cell_data_0 double
LOOKUP_TABLE default
4.1035409693e-05
4.81553440433e-05
2.78482257551e-05
6.13748382913e-05
7.28571991812e-05
0.000179092234129
0.000205404602121
0.000123703165014
0.000195300537344
0.000121499921383
7.19772842266e-05
0.000112563451275
6.76622263546e-05
5.04157300553e-05
4.24882918785e-05
1.02078633114e-05
2.52853653818e-05
0.000117080581567
8.71368774612e-06
1.67544344896e-05
9.80510908967e-05
5.1083653974e-05
4.97702254124e-05
4.59330377471e-05
4.08083665796e-05
7.28974040141e-05
0.00017551648024
3.10111115805e-05
9.11589103345e-05
0.000126055732961
0.00011041072601
3.35028009634e-05
0.00016186083623
0.000143361132219
6.36661974839e-05
8.02806159947e-06
2.17290597093e-05
4.07007420724e-06
4.04777435629e-05
4.85343775664e-05
4.23626559639e-05
7.84198897506e-05
3.24574758223e-05
2.85892414423e-05
5.39986527989e-05
4.820034102e-05
0.000128903964754
5.6227494599e-06
2.26647350143e-05
8.98238659394e-05
3.20089791502e-05
6.3407972945e-06
6.81702250802e-06
8.90136051089e-06
4.87376863894e-05
2.50834173058e-05
5.48127736616e-06
0.000109284027378
0.000101316656473
7.76580536433e-06
1.23041583404e-05
2.54624863954e-06
1.53050864307e-06
2.06081899515e-06
5.39419998567e-06
7.06731446674e-05
4.58341300041e-05
3.00033641663e-05
5.6014198145e-05
5.14547882059e-05
4.25506572905e-05
5.94961393546e-07
1.67856413439e-06
3.08356923744e-06
4.41089868932e-06
3.88162177339e-05
4.38901690559e-05
1.18581949473e-05
7.73536289364e-06
5.56141195321e-05
4.46799029736e-05
2.63878452711e-07
3.58839275909e-07
5.02223010664e-05
6.2204949563e-05
2.26172039179e-05
1.18881660438e-05
6.97043492411e-06
7.86534758014e-07
3.02341342361e-07
5.71032509982e-05
5.16647647576e-05
0.00013746049648
8.78834364821e-09
6.18403736607e-08
8.7032625729e-07
3.63678093947e-06
1.5457158611e-06
0.000132869179759
9.87446502231e-09
6.00339655174e-06
7.80627227324e-08
1.54216745548e-06
1.57898028902e-05
2.07287894184e-06
7.21916662712e-06
5.53766380972e-07
1.04788970275e-07
3.2117771633e-07
5.68275697241e-07
1.81564500676e-07
1.27493893176e-08
3.57347222757e-08
7.43199242973e-05
7.3067554803e-05
6.22281145111e-09
4.00507730826e-08
5.56931117394e-07
2.09944273543e-07
2.61543908496e-07
5.67052953722e-07
7.89081839611e-09
1.85966502229e-07
7.01106782208e-05
2.64086636289e-07
0.000128642908716
7.93605793141e-05
2.01713079444e-07

