# vtk DataFile Version 3.0
File Name: Molecule/sphere_excent/sphere_excent_0-s11.vtk
ASCII
DATASET UNSTRUCTURED_GRID
FIELD FieldData 1
TIME 1 1 double
0.0
POINTS 100 double
0.00075747829396 0.84999209642 0.52664160728
-0.51421701908 0.76241213083 0.38903337717
-0.3314408958 0.53540992737 0.77517259121
-0.30898606777 -0.55421841145 0.77250099182
0.00099189137109 -0.85196310282 0.52377557755
0.065284281969 -0.41170033813 0.9064475894
0.5242728591 0.00044544535922 0.85145515203
0.32240542769 -0.50548797846 0.79885876179
0.80697888136 -0.31031692028 0.50243592262
0.50007039309 -0.80897653103 0.30872741342
0.85136967897 -0.52467924356 0.0023364988156
0.259208709 -0.57162022591 -0.77841031551
-0.0036309584975 -0.85387849808 -0.52060884237
-0.27837234735 -0.5276991725 -0.8005990386
0.99706113338 -0.041083090007 0.058108448982
0.77976262569 0.30246338248 0.54535615444
0.52031606436 0.75264447927 0.40036648512
0.35359567404 0.50975543261 0.78315079212
-0.82522374392 -0.31214317679 -0.46677058935
-0.84994351864 -0.5268535018 0.00069217517739
-0.99746340513 -0.042811706662 0.025160497054
-0.00035543894046 0.85033857822 -0.52618724108
-0.31650725007 0.49691790342 -0.80798381567
-0.49156418443 0.77634781599 -0.39185267687
-0.51763433218 0.031793832779 -0.85299706459
-0.78979569674 0.27684426308 -0.54544788599
-0.5004504323 -0.80851298571 -0.30943727493
-0.49963113666 -0.8102658391 0.30641108751
-4.4039683416e-05 -0.99989241362 0.00019875570433
-0.807474792 -0.31199625134 0.50052112341
-0.56901979446 -0.0020602047443 0.82119309902
-0.81506258249 0.28429311514 0.49980077147
0.49811643362 -0.81086814404 -0.30745488405
0.80791097879 -0.37849423289 -0.4509909153
-0.074194461107 0.043667253107 -0.99522393942
0.20571626723 0.48538675904 -0.84831315279
0.0028240359388 0.9998986125 0.00069775024895
-0.27559903264 0.94546127319 0.17346979678
-0.27424222231 0.94613087177 -0.17213359475
-0.53572255373 0.84429609776 -0.00066947226878
0.27433779836 0.94877463579 -0.15670607984
0.27914023399 0.94409745932 0.17431624234
0.50603830814 0.86177605391 0.015046855435
0.49488127232 0.80277585983 -0.33032464981
0.58653646708 0.47162923217 -0.65747457743
0.41639772058 0.67857158184 -0.60489362478
0.67581659555 0.58884114027 -0.4417231679
0.95341712236 -0.16966329515 -0.24946281314
0.86731362343 -0.059066850692 -0.4940828383
0.9575291276 0.13629589975 -0.25094276667
0.53804278374 0.01102701202 -0.84280484915
0.43301957846 -0.25850385427 -0.86357206106
0.2721131444 0.0082324929535 -0.96210700274
0.12500828505 -0.27871385217 -0.9510139823
-0.41605821252 -0.24730445445 -0.87362885475
0.68355667591 -0.19951815903 -0.70207625628
0.576354146 -0.45412313938 -0.6791074276
0.7162617445 0.34203082323 -0.6079543829
0.76769143343 0.45742240548 -0.44872963428
0.43950241804 0.45046031475 -0.77709794044
0.42415231466 0.24537174404 -0.87168443203
0.5765644908 0.26670965552 -0.77213776112
0.70154941082 0.16968686879 -0.6921081543
0.83394813538 0.14788496494 -0.5317620635
0.82829719782 0.32465064526 -0.45661202073
0.73175114393 0.0025417711586 -0.68139326572
-0.44472545385 0.25599381328 0.85656863451
-0.68680125475 0.55106347799 0.47171351314
0.00217790436 0.52504318953 0.85092294216
-0.15333105624 0.26823666692 0.95112234354
0.16648955643 0.26736411452 0.94912308455
0.042333699763 -0.0054648574442 0.99839490652
-0.28191128373 -0.0011784376111 0.95947057009
-0.4383533597 -0.25740975142 0.86106854677
-0.16854718328 -0.27596884966 0.94524008036
0.94289326668 0.15460848808 0.29476499557
0.96281939745 0.26761841774 0.04166918993
0.86112338305 0.43484768271 0.26320564747
0.84892970324 0.5282304287 -0.023008454591
-0.94987034798 0.13463322818 -0.27817794681
-0.70165461302 -0.13662457466 -0.69755285978
-0.86484122276 0.43037846684 -0.25840267539
-0.96017289162 0.27939131856 0.0010447822278
-0.83641821146 0.54722958803 0.020276866853
-0.68947309256 0.55931156874 -0.46002835035
-0.71281158924 0.67198550701 -0.19946016371
-0.70544999838 0.67681729794 0.20909309387
-0.58763492107 -0.42897969484 -0.68594229221
0.53260475397 0.8322378993 -0.15353654325
0.6918848753 0.69872945547 -0.18100254238
0.6928396821 0.72117394209 0.00098412903026
0.71600037813 0.6734546423 0.18297213316
0.54399037361 0.81723415852 0.18972219527
-0.85181719065 0.44878521562 0.27042922378
0.18643519282 -0.26249343157 0.94605857134
0.86319297552 0.43464264274 -0.25681489706
0.78618454933 0.56734597683 -0.2441598773
0.90116983652 0.25255912542 -0.35242077708
0.92727899551 0.34453988075 -0.14588592947
-0.053417619318 -0.15131284297 0.98687744141

CELLS 196 784
3 0 1 2
3 3 4 5
3 6 7 8
3 7 9 8
3 7 4 9
3 8 9 10
3 11 12 13
3 10 14 8
3 8 15 6
3 16 17 15
3 16 0 17
3 15 17 6
3 18 19 20
3 21 22 23
3 22 24 25
3 19 26 27
3 26 28 27
3 26 12 28
3 27 28 4
3 19 27 29
3 27 3 29
3 27 4 3
3 30 31 29
3 31 20 29
3 29 20 19
3 13 12 26
3 18 26 19
3 12 32 28
3 32 9 28
3 32 10 9
3 28 9 4
3 33 10 32
3 11 32 12
3 34 22 35
3 34 24 22
3 35 22 21
3 36 37 0
3 0 37 1
3 36 38 37
3 38 39 37
3 38 23 39
3 37 39 1
3 23 38 21
3 21 38 36
3 40 41 42
3 40 36 41
3 36 40 21
3 21 40 43
3 16 41 0
3 41 36 0
3 44 45 46
3 46 45 43
3 43 45 21
3 45 35 21
3 33 47 10
3 10 47 14
3 33 48 47
3 48 49 47
3 47 49 14
3 50 51 52
3 51 53 52
3 51 11 53
3 52 53 34
3 34 53 54
3 13 53 11
3 50 55 51
3 55 56 51
3 55 33 56
3 51 56 11
3 11 56 32
3 32 56 33
3 52 34 35
3 33 55 48
3 57 44 58
3 44 59 45
3 59 35 45
3 35 59 60
3 59 61 60
3 59 44 61
3 60 61 50
3 50 61 62
3 61 57 62
3 61 44 57
3 62 57 63
3 48 63 49
3 64 63 57
3 63 65 62
3 63 48 65
3 62 65 50
3 35 60 52
3 52 60 50
3 50 65 55
3 55 65 48
3 30 66 31
3 31 66 67
3 2 68 0
3 0 68 17
3 2 69 68
3 69 70 68
3 69 71 70
3 68 70 17
3 2 66 69
3 66 72 69
3 66 30 72
3 69 72 71
3 17 70 6
3 70 71 6
3 30 73 72
3 73 74 72
3 73 3 74
3 3 73 29
3 29 73 30
3 14 75 8
3 75 15 8
3 14 76 75
3 76 77 75
3 76 78 77
3 75 77 15
3 15 77 16
3 20 79 18
3 18 79 80
3 25 79 81
3 79 82 81
3 79 20 82
3 81 82 83
3 25 84 22
3 22 84 23
3 23 84 85
3 84 81 85
3 84 25 81
3 85 81 83
3 31 82 20
3 23 85 39
3 39 85 86
3 49 76 14
3 13 54 53
3 34 54 24
3 24 80 25
3 25 80 79
3 24 54 80
3 54 87 80
3 54 13 87
3 80 87 18
3 18 87 26
3 26 87 13
3 43 88 89
3 88 90 89
3 88 42 90
3 89 90 78
3 78 90 91
3 90 92 91
3 90 42 92
3 91 92 16
3 42 88 40
3 40 88 43
3 16 92 41
3 41 92 42
3 43 89 46
3 78 91 77
3 77 91 16
3 1 67 2
3 2 67 66
3 1 86 67
3 86 93 67
3 86 83 93
3 67 93 31
3 71 94 6
3 94 7 6
3 83 86 85
3 39 86 1
3 64 58 95
3 58 96 95
3 58 46 96
3 95 96 78
3 49 97 98
3 97 95 98
3 97 64 95
3 98 95 78
3 46 58 44
3 57 58 64
3 64 97 63
3 63 97 49
3 74 99 72
3 72 99 71
3 71 99 94
3 99 5 94
3 99 74 5
3 94 5 7
3 7 5 4
3 5 74 3
3 31 93 82
3 82 93 83
3 49 98 76
3 76 98 78
3 78 96 89
3 89 96 46

CELL_TYPES 196
5
5
5
5
5
5
5
5
5
5
5
5
5
5
5
5
5
5
5
5
5
5
5
5
5
5
5
5
5
5
5
5
5
5
5
5
5
5
5
5
5
5
5
5
5
5
5
5
5
5
5
5
5
5
5
5
5
5
5
5
5
5
5
5
5
5
5
5
5
5
5
5
5
5
5
5
5
5
5
5
5
5
5
5
5
5
5
5
5
5
5
5
5
5
5
5
5
5
5
5
5
5
5
5
5
5
5
5
5
5
5
5
5
5
5
5
5
5
5
5
5
5
5
5
5
5
5
5
5
5
5
5
5
5
5
5
5
5
5
5
5
5
5
5
5
5
5
5
5
5
5
5
5
5
5
5
5
5
5
5
5
5
5
5
5
5
5
5
5
5
5
5
5
5
5
5
5
5
5
5
5
5
5
5
5
5
5
5
5
5
5
5
5
5
5
5

CELL_DATA 196
SCALARS cell_data_0 double
LOOKUP_TABLE default
3.67602850733e-05
2.70097724585e-05
7.87241806176e-05
5.16567353307e-05
4.28369971382e-05
1.69909619687e-05
0.000160902142539
1.37510631649e-05
5.16363376733e-05
3.19767595949e-05
2.1847981218e-05
6.31935978229e-05
4.81425948552e-06
8.73915929602e-05
0.000121276065329
1.82438831022e-06
3.85460087471e-06
8.6681279325e-05
8.19966231075e-06
1.88894014612e-05
4.50015580323e-05
3.63735079353e-05
2.48022355633e-05
2.79257528591e-05
1.43885388454e-05
0.000139975003884
5.34000369759e-06
8.68455531407e-05
8.84823332709e-07
5.36260342468e-06
5.21821710199e-06
7.92385304691e-07
0.000128241805417
0.000144403031056
0.000278523076549
0.000118521804209
5.92200931763e-06
1.01186864305e-05
2.21432476971e-06
2.63223211038e-06
7.33454001098e-07
5.22770281578e-06
4.56215956814e-05
3.28089429179e-05
2.6493901423e-06
2.76785824979e-06
3.08074276179e-05
6.11427985617e-05
1.85398874447e-05
6.90036245787e-06
2.52927161313e-07
6.51107072757e-06
6.01937043109e-05
6.65525537769e-05
3.17047015332e-06
5.31744715981e-06
1.12919503016e-06
1.62791694415e-06
2.84557636142e-06
2.69312531847e-05
5.23065238207e-07
1.07708419168e-05
3.76960316971e-05
6.62457068488e-05
4.54174040654e-05
2.53392271741e-05
3.5794067436e-07
3.76601230599e-07
1.02646643321e-05
2.53146143635e-05
3.5590777686e-06
8.68403670645e-05
4.81511874988e-07
1.38925142234e-06
1.93309192594e-07
4.08554667994e-06
3.63202094709e-06
4.12237354606e-08
3.23266069336e-07
1.55031526899e-05
1.56397804024e-05
3.51489937798e-08
2.61834629963e-07
4.06817621264e-08
8.57756883965e-07
5.62980253858e-07
1.30580655952e-07
1.8704787752e-07
1.4325157054e-05
6.60898397355e-06
2.3949689163e-05
1.73266566562e-05
2.126051522e-07
3.84665626521e-06
2.14901173058e-05
3.78563260349e-05
4.13351509068e-05
4.60284586998e-05
4.14188049759e-05
8.65775849949e-05
4.36353490291e-05
3.97402483771e-05
2.0759014862e-05
1.89071496489e-05
8.97898812486e-05
8.29934558106e-05
0.000119497367978
8.04779361065e-05
5.869673667e-05
1.44604617488e-05
6.15855948233e-06
9.04478330477e-05
2.87654442221e-05
1.55986232117e-05
8.21163997669e-05
8.75871021241e-05
6.14714280762e-05
1.51342706423e-05
9.89657207895e-06
1.91652237281e-06
4.59355665388e-06
3.042424944e-06
3.63316654091e-06
8.42876577469e-07
4.94670937524e-06
2.70256491681e-06
6.9126120018e-06
7.44606473246e-07
1.48985959491e-06
2.18036652294e-06
3.25532034542e-06
1.03217192741e-05
1.12683621575e-06
3.20674372837e-06
4.30851838008e-05
1.90317083946e-05
0.000160436744521
6.6452610123e-05
3.09790020197e-06
4.96434474522e-05
5.25824039372e-06
1.47044292572e-05
4.04021304634e-06
8.0653412987e-06
3.23994709697e-05
2.90108896506e-06
1.37231110672e-07
5.02439105483e-07
3.80666228644e-06
1.93479193314e-06
1.17955642426e-06
8.60824908583e-07
4.83813536648e-06
1.20980280174e-06
3.26457150481e-06
7.56410174824e-06
1.98048235432e-06
5.89573011076e-06
2.2821112298e-06
1.01125567302e-05
1.67465972629e-05
3.68527840866e-05
4.64968268339e-06
3.91832668681e-06
3.99814541234e-07
5.77675046566e-06
6.54300051906e-05
5.5697928794e-05
7.28384729801e-09
4.14039231537e-06
2.64022962411e-05
2.50683875441e-05
9.69674898136e-07
3.00754136526e-05
4.44635255005e-07
2.0658350295e-05
2.26190597065e-05
2.96351010352e-05
1.62521187802e-06
1.29219483805e-06
6.57027373678e-07
2.34548384484e-07
3.54695839963e-05
4.71755949482e-05
1.82969775214e-05
3.81640501567e-05
2.66150931144e-05
2.63673168781e-05
2.06565694922e-05
1.98654926972e-05
5.19565249489e-06
1.55027250173e-06
2.53776294171e-05
3.62453594372e-05
2.53605580259e-06
5.38387292088e-08

