# vtk DataFile Version 3.0
File Name: Molecule/sphere_excent/sphere_excent_0-s5.vtk
ASCII
DATASET UNSTRUCTURED_GRID
FIELD FieldData 1
TIME 1 1 double
0.0
POINTS 54 double
-0.00023036048515 0.85137379169 0.52449369431
-0.51534354687 0.77981239557 0.35412743688
-0.30813184381 0.49858826399 0.81020146608
-0.80945897102 0.30703634024 0.50042265654
-0.84982550144 0.52696323395 5.0816142902e-06
-0.52570915222 -7.2700466262e-05 0.85066449642
0.3084615767 0.4991479516 0.80971604586
1.1883423213e-05 -9.9697739643e-05 0.99989652634
0.52572226524 -2.7986348869e-05 0.85065639019
-0.30898290873 -0.49995112419 0.80892628431
0.30898800492 -0.49994906783 0.80892628431
8.3499735126e-08 -0.85065096617 0.52573084831
0.808817029 -0.3090865314 0.5001257062
0.499958992 -0.80892968178 0.30897390842
0.85077875853 -0.52552103996 -0.00017806520918
0.52612286806 0.00062751432415 -0.85035735369
0.30879071355 -0.49997422099 -0.80903410912
-0.00034253054764 -0.00057128258049 -0.99995100498
-0.3089966476 -0.49995839596 -0.80891907215
2.4024146228e-07 -0.85065066814 -0.52573132515
-0.52571606636 -7.6753407484e-05 -0.8506603837
0.99864929914 0.00060499529354 0.016365215182
0.80918586254 0.30792459846 0.50038051605
0.85018920898 0.52642256021 -0.00063626852352
0.51279324293 0.78603672981 0.34428831935
-0.80891853571 -0.30901449919 -0.49994829297
-0.80946987867 0.30704632401 -0.50039821863
-0.99989718199 6.1119615566e-05 2.4835262593e-06
-0.85065150261 -0.52573001385 -1.4081518174e-08
0.00016116470215 0.85123574734 -0.52475559711
-0.30878889561 0.49846571684 -0.810082376
-0.51513695717 0.7800886631 -0.35378995538
-0.49994444847 -0.80893152952 -0.3089799583
-0.49994534254 -0.80892962217 0.30898317695
2.697769105e-06 -0.99989193678 -1.1522943169e-06
-0.80890548229 -0.30904713273 0.49995055795
0.49979293346 -0.80908882618 -0.30891144276
0.7994017601 -0.32189321518 -0.50487285852
0.28356733918 0.49039110541 -0.82347470522
0.0098292836919 0.99980348349 -0.00010250475316
-0.26656281948 0.94976770878 0.16413246095
-0.26650986075 0.9498115778 -0.1640394479
-0.52725744247 0.84966421127 2.8205422495e-05
0.50373911858 0.80255538225 -0.31905767322
0.52616578341 0.85038888454 0.0022572404705
0.27307394147 0.94855922461 -0.16046431661
0.27421501279 0.94779205322 0.1629229188
0.815962255 0.29748430848 -0.49520769715
0.68876260519 0.5813344121 -0.43329358101
0.58703923225 0.42556318641 -0.68870443106
0.42717677355 0.68080472946 -0.59510022402
0.95106762648 -0.16222774982 -0.2630110383
0.85363823175 -0.0076979580335 -0.52089709044
0.95351976156 0.15412400663 -0.25922426581

CELLS 104 416
3 0 1 2
3 1 3 2
3 1 4 3
3 2 3 5
3 0 2 6
3 2 7 6
3 2 5 7
3 6 7 8
3 5 9 7
3 9 10 7
3 9 11 10
3 7 10 8
3 8 10 12
3 10 13 12
3 10 11 13
3 12 13 14
3 15 16 17
3 16 18 17
3 16 19 18
3 17 18 20
3 14 21 12
3 21 22 12
3 21 23 22
3 12 22 8
3 23 24 22
3 24 6 22
3 24 0 6
3 22 6 8
3 20 25 26
3 25 27 26
3 25 28 27
3 26 27 4
3 29 30 31
3 30 26 31
3 30 20 26
3 31 26 4
3 28 32 33
3 32 34 33
3 32 19 34
3 33 34 11
3 28 33 35
3 33 9 35
3 33 11 9
3 35 9 5
3 5 3 35
3 3 27 35
3 3 4 27
3 35 27 28
3 20 18 25
3 18 32 25
3 18 19 32
3 25 32 28
3 19 36 34
3 36 13 34
3 36 14 13
3 34 13 11
3 15 37 16
3 37 36 16
3 37 14 36
3 16 36 19
3 15 17 38
3 17 30 38
3 17 20 30
3 38 30 29
3 39 40 0
3 0 40 1
3 39 41 40
3 41 42 40
3 41 31 42
3 40 42 1
3 31 41 29
3 29 41 39
3 1 42 4
3 42 31 4
3 43 44 23
3 23 44 24
3 43 45 44
3 45 46 44
3 45 39 46
3 44 46 24
3 39 45 29
3 29 45 43
3 24 46 0
3 46 39 0
3 47 48 23
3 23 48 43
3 47 49 48
3 49 50 48
3 49 38 50
3 48 50 43
3 38 49 15
3 15 49 47
3 43 50 29
3 50 38 29
3 37 51 14
3 14 51 21
3 37 52 51
3 52 53 51
3 52 47 53
3 51 53 21
3 47 52 15
3 15 52 37
3 21 53 23
3 53 47 23

CELL_TYPES 104
5
5
5
5
5
5
5
5
5
5
5
5
5
5
5
5
5
5
5
5
5
5
5
5
5
5
5
5
5
5
5
5
5
5
5
5
5
5
5
5
5
5
5
5
5
5
5
5
5
5
5
5
5
5
5
5
5
5
5
5
5
5
5
5
5
5
5
5
5
5
5
5
5
5
5
5
5
5
5
5
5
5
5
5
5
5
5
5
5
5
5
5
5
5
5
5
5
5
5
5
5
5
5
5

CELL_DATA 104
SCALARS cell_data_0 double
LOOKUP_TABLE default
4.03104216371e-05
4.76866410932e-05
5.81568738136e-05
6.02211940726e-05
7.00311309869e-05
0.00016032112074
0.00019877100204
0.000133065190065
0.000198544670305
0.000135258167833
6.91249941736e-05
0.000122925941305
6.42870331737e-05
4.99759962052e-05
4.15966185699e-05
5.13863288656e-06
0.000522866648625
4.80639654146e-06
2.91982374613e-05
0.000112637350649
9.67475079512e-06
2.44348693971e-05
7.67389155719e-05
4.98723163597e-05
3.10884407883e-05
4.51722699185e-05
4.17476033412e-05
6.64034598041e-05
0.000150379772285
5.03053502673e-05
0.000154273462925
0.000138484657105
9.42990096186e-05
5.4321646005e-06
0.000128159963833
8.69561559763e-05
5.37275713839e-05
1.29483772667e-05
2.0801863849e-05
1.28700395675e-05
3.61587050677e-05
4.82004450625e-05
4.2827895384e-05
7.52229262187e-05
6.47527581984e-06
4.11670503818e-06
0.000131647827078
9.90333510458e-05
0.000141941670762
1.45925269323e-05
2.48457909585e-05
0.000108554089918
2.42979026394e-05
5.96745134224e-06
1.05168297961e-05
6.51914449e-06
0.000614006131132
2.93880264516e-05
4.75586531792e-05
2.63439786668e-05
0.000501719677723
3.61866697813e-06
0.000113740292347
0.000104967050935
6.5020312344e-06
1.01753131368e-05
2.31410569602e-06
1.03235804503e-06
1.0255457922e-06
3.82646599188e-06
5.03284558489e-05
4.24257847767e-05
3.42805805396e-05
4.50678668224e-05
4.46099584151e-05
3.41824203039e-05
1.55771901067e-08
1.16739151455e-06
1.92202482766e-06
4.74842575277e-06
4.86870204984e-05
5.28433964183e-05
1.15987628204e-05
7.71863159338e-06
5.88404320999e-05
4.56499105663e-05
1.42551959514e-06
1.66569316371e-08
1.19291308443e-07
5.34434682535e-07
0.000280661862267
0.000285878973531
4.56769398379e-05
5.35869008889e-05
2.50405754254e-05
1.29091219072e-05
7.11350415937e-06
6.44791022954e-08
1.39871533747e-06
2.05962724201e-06
0.000274160834213
0.000323795280086
5.97849791484e-05
5.7092884168e-05

