# vtk DataFile Version 3.0
File Name: Molecule/sphere_cent/sphere_cent_0-s5.vtk
ASCII
DATASET UNSTRUCTURED_GRID
FIELD FieldData 1
TIME 1 1 double
0.0
POINTS 75 double
0.85065081 -0.52573111 0.0
0.80901699 -0.30901699 -0.5
1.0 0.0 0.0
0.80901699 0.30901699 -0.5
0.52573111 0.0 -0.85065081
0.85065081 0.52573111 0.0
0.5 0.80901699 -0.30901699
0.30901699 0.5 -0.80901699
0.0 0.85065081 -0.52573111
0.5 0.80901699 0.30901699
0.0 1.0 0.0
0.0 0.85065081 0.52573111
-0.5 0.80901699 0.30901699
-0.5 0.80901699 -0.30901699
-0.85065081 0.52573111 0.0
-0.30901699 0.5 0.80901699
-0.80901699 0.30901699 0.5
-0.52573111 0.0 0.85065081
0.30901699 0.5 0.80901699
0.0 0.0 1.0
0.52573111 0.0 0.85065081
-0.30901699 -0.5 0.80901699
0.30901699 -0.5 0.80901699
0.0 -0.85065081 0.52573111
0.80901699 -0.30901699 0.5
0.5 -0.80901699 0.30901699
-0.52573111 0.0 -0.85065081
-0.80901699 -0.30901699 -0.5
-0.80901699 0.30901699 -0.5
-1.0 0.0 0.0
-0.85065081 -0.52573111 0.0
0.30901699 -0.5 -0.80901699
0.16245985 -0.26286556 -0.95105652
0.0 0.0 -1.0
0.0 -0.52573111 -0.85065081
-0.16245985 -0.26286556 -0.95105652
-0.30901699 -0.5 -0.80901699
0.0 -0.85065081 -0.52573111
0.68819096 0.58778525 0.4253254
0.80901699 0.30901699 0.5
0.4253254 0.68819096 0.58778525
0.58778525 0.4253254 0.68819096
0.16245985 0.26286556 -0.95105652
-0.16245985 0.26286556 -0.95105652
0.0 0.52573111 -0.85065081
-0.30901699 0.5 -0.80901699
-0.4253254 0.68819096 -0.58778525
-0.58778525 0.4253254 -0.68819096
-0.68819096 0.58778525 -0.4253254
0.5 -0.80901699 -0.30901699
0.26286556 -0.95105652 -0.16245985
0.0 -1.0 0.0
0.52573111 -0.85065081 0.0
0.26286556 -0.95105652 0.16245985
0.58778525 -0.4253254 -0.68819096
0.68819096 -0.58778525 -0.4253254
0.4253254 -0.68819096 -0.58778525
-0.5 -0.80901699 -0.30901699
-0.52573111 -0.85065081 0.0
-0.5 -0.80901699 0.30901699
-0.26286556 -0.95105652 -0.16245985
-0.26286556 -0.95105652 0.16245985
-0.68819096 -0.58778525 0.4253254
-0.80901699 -0.30901699 0.5
-0.4253254 -0.68819096 0.58778525
-0.58778525 -0.4253254 0.68819096
0.95105652 -0.16245985 0.26286556
0.95105652 0.16245985 0.26286556
0.85065081 0.0 0.52573111
-0.85065081 0.0 0.52573111
-0.95105652 0.16245985 0.26286556
-0.95105652 -0.16245985 0.26286556
-0.58778525 -0.4253254 -0.68819096
-0.4253254 -0.68819096 -0.58778525
-0.68819096 -0.58778525 -0.4253254

CELLS 146 584
3 0 1 2
3 1 3 2
3 1 4 3
3 2 3 5
3 5 3 6
3 3 7 6
3 3 4 7
3 6 7 8
3 5 6 9
3 6 10 9
3 6 8 10
3 9 10 11
3 11 10 12
3 10 13 12
3 10 8 13
3 12 13 14
3 11 12 15
3 12 16 15
3 12 14 16
3 15 16 17
3 11 15 18
3 15 19 18
3 15 17 19
3 18 19 20
3 17 21 19
3 21 22 19
3 21 23 22
3 19 22 20
3 20 22 24
3 22 25 24
3 22 23 25
3 24 25 0
3 26 27 28
3 27 29 28
3 27 30 29
3 28 29 14
3 31 32 4
3 4 32 33
3 31 34 32
3 34 35 32
3 34 36 35
3 32 35 33
3 36 34 37
3 37 34 31
3 33 35 26
3 35 36 26
3 9 38 5
3 5 38 39
3 9 40 38
3 40 41 38
3 40 18 41
3 38 41 39
3 18 40 11
3 11 40 9
3 39 41 20
3 41 18 20
3 33 42 4
3 4 42 7
3 33 43 42
3 43 44 42
3 43 45 44
3 42 44 7
3 45 43 26
3 26 43 33
3 7 44 8
3 44 45 8
3 45 46 8
3 8 46 13
3 45 47 46
3 47 48 46
3 47 28 48
3 46 48 13
3 28 47 26
3 26 47 45
3 13 48 14
3 48 28 14
3 49 50 37
3 37 50 51
3 49 52 50
3 52 53 50
3 52 25 53
3 50 53 51
3 25 52 0
3 0 52 49
3 51 53 23
3 53 25 23
3 1 54 4
3 4 54 31
3 1 55 54
3 55 56 54
3 55 49 56
3 54 56 31
3 49 55 0
3 0 55 1
3 31 56 37
3 56 49 37
3 57 58 30
3 30 58 59
3 57 60 58
3 60 61 58
3 60 51 61
3 58 61 59
3 51 60 37
3 37 60 57
3 59 61 23
3 61 51 23
3 59 62 30
3 30 62 63
3 59 64 62
3 64 65 62
3 64 21 65
3 62 65 63
3 21 64 23
3 23 64 59
3 63 65 17
3 65 21 17
3 2 66 0
3 0 66 24
3 2 67 66
3 67 68 66
3 67 39 68
3 66 68 24
3 39 67 5
3 5 67 2
3 24 68 20
3 68 39 20
3 16 69 17
3 17 69 63
3 16 70 69
3 70 71 69
3 70 29 71
3 69 71 63
3 29 70 14
3 14 70 16
3 63 71 30
3 71 29 30
3 36 72 26
3 26 72 27
3 36 73 72
3 73 74 72
3 73 57 74
3 72 74 27
3 57 73 37
3 37 73 36
3 27 74 30
3 74 57 30

CELL_TYPES 146
5
5
5
5
5
5
5
5
5
5
5
5
5
5
5
5
5
5
5
5
5
5
5
5
5
5
5
5
5
5
5
5
5
5
5
5
5
5
5
5
5
5
5
5
5
5
5
5
5
5
5
5
5
5
5
5
5
5
5
5
5
5
5
5
5
5
5
5
5
5
5
5
5
5
5
5
5
5
5
5
5
5
5
5
5
5
5
5
5
5
5
5
5
5
5
5
5
5
5
5
5
5
5
5
5
5
5
5
5
5
5
5
5
5
5
5
5
5
5
5
5
5
5
5
5
5
5
5
5
5
5
5
5
5
5
5
5
5
5
5
5
5
5
5
5
5

CELL_DATA 146
SCALARS cell_data_0 double
LOOKUP_TABLE default
8.14970683416e-07
2.92891681745e-06
2.14488137463e-07
1.36077213028e-06
2.09955232608e-07
2.83482443446e-06
8.86304013519e-07
4.92455988753e-07
7.69297581338e-07
2.80306140785e-06
1.08791737479e-06
6.91445602926e-07
9.73346926365e-07
2.90139477722e-06
7.40653681141e-07
2.02910291594e-07
8.80564896638e-07
1.41960522477e-06
1.17956776515e-06
2.51799694285e-07
6.36337164385e-07
3.3388481322e-06
2.8465174514e-07
9.57980773874e-07
7.00251006566e-07
3.1002884977e-06
9.05153263407e-07
3.33818519754e-07
8.06717193448e-07
2.92559812621e-06
6.91287817366e-07
9.82430702268e-07
3.8237531264e-06
9.70306833306e-06
3.7768851794e-06
5.16023315502e-06
5.47586544992e-07
2.44020052127e-07
9.52793727205e-07
3.14145172335e-07
4.58050697356e-07
6.32785255993e-07
2.77936827535e-07
1.13555464485e-06
5.630510912e-07
3.8006201123e-08
9.69701112556e-07
2.78527810641e-07
1.16041689614e-06
6.24590289117e-08
7.2574881326e-07
4.82322182012e-07
6.86308663786e-07
6.03157646015e-07
9.25625949875e-07
3.58066228706e-07
2.37310756133e-08
5.11381965284e-07
9.66275590605e-07
1.65111000314e-09
9.13531160056e-07
8.12843747342e-07
7.82805069738e-07
1.33068444361e-06
1.08457504218e-06
5.08983323462e-08
5.52815235788e-07
1.2614140375e-06
7.60561619985e-07
3.58838057118e-08
7.57207295543e-08
1.04872952303e-06
1.35235098705e-07
7.38017282554e-10
4.32658150979e-07
3.89751687153e-07
5.89108560568e-07
1.5390072605e-07
7.33155656171e-08
3.33797601976e-07
1.02358644825e-06
5.15157394152e-07
5.59535283887e-07
1.24627004506e-06
1.54644960197e-07
9.20852742922e-07
1.79971849037e-06
1.28256898753e-06
1.57810265628e-06
5.56169141445e-07
4.65997061678e-07
1.77511245677e-06
1.0723144141e-06
9.31049233011e-07
1.68387253492e-06
1.14637827443e-07
8.22478551555e-07
4.61868499374e-07
9.11489573169e-07
1.02029371839e-07
6.32761109761e-07
1.48396110569e-07
3.54576690388e-07
8.80791603514e-07
8.66730793478e-07
1.37819489026e-07
1.32117311189e-07
6.76738416533e-08
3.82029071159e-07
1.831795529e-08
8.3145102733e-07
2.58278378131e-07
5.92416393132e-07
1.08294138407e-06
1.35618112923e-06
4.87246273496e-07
1.97898828789e-07
3.00263938829e-07
6.94981259764e-07
5.31843816466e-07
8.2993356365e-08
7.56107575359e-07
9.58932823121e-07
5.29732175579e-07
7.17612505309e-07
8.8536830654e-07
8.76459162445e-07
1.29737339258e-06
9.32672364321e-07
5.28388159767e-07
1.66749001401e-08
1.36585510551e-07
5.51038009393e-07
9.25352654368e-07
8.20416820737e-07
9.52960106859e-08
1.96559584101e-08
3.87105785004e-07
4.54488465306e-07
3.45963119879e-07
8.22750514781e-07
3.77660550707e-07
9.23610201063e-07
2.95136272115e-07
3.93595138219e-07
6.01690295594e-07

