# vtk DataFile Version 3.0
File Name: Molecule/sphere_cent/sphere_cent_0-s2.vtk
ASCII
DATASET UNSTRUCTURED_GRID
FIELD FieldData 1
TIME 1 1 double
0.0
POINTS 51 double
0.85065081 -0.52573111 0.0
0.80901699 -0.30901699 -0.5
1.0 0.0 0.0
0.80901699 0.30901699 -0.5
0.52573111 0.0 -0.85065081
0.85065081 0.52573111 0.0
0.5 0.80901699 -0.30901699
0.30901699 0.5 -0.80901699
0.0 0.85065081 -0.52573111
0.5 0.80901699 0.30901699
0.0 1.0 0.0
0.0 0.85065081 0.52573111
-0.5 0.80901699 0.30901699
-0.5 0.80901699 -0.30901699
-0.85065081 0.52573111 0.0
-0.30901699 0.5 0.80901699
-0.80901699 0.30901699 0.5
-0.52573111 0.0 0.85065081
0.30901699 0.5 0.80901699
0.0 0.0 1.0
0.52573111 0.0 0.85065081
-0.30901699 -0.5 0.80901699
0.30901699 -0.5 0.80901699
0.0 -0.85065081 0.52573111
0.80901699 -0.30901699 0.5
0.5 -0.80901699 0.30901699
0.80901699 0.30901699 0.5
-0.52573111 0.0 -0.85065081
-0.80901699 -0.30901699 -0.5
-0.80901699 0.30901699 -0.5
-1.0 0.0 0.0
-0.85065081 -0.52573111 0.0
-0.30901699 0.5 -0.80901699
-0.5 -0.80901699 -0.30901699
-0.5 -0.80901699 0.30901699
0.0 -1.0 0.0
0.0 -0.85065081 -0.52573111
-0.80901699 -0.30901699 0.5
-0.30901699 -0.5 -0.80901699
0.5 -0.80901699 -0.30901699
0.30901699 -0.5 -0.80901699
0.16245985 -0.26286556 -0.95105652
0.0 0.0 -1.0
0.0 -0.52573111 -0.85065081
-0.16245985 -0.26286556 -0.95105652
0.68819096 0.58778525 0.4253254
0.4253254 0.68819096 0.58778525
0.58778525 0.4253254 0.68819096
0.16245985 0.26286556 -0.95105652
-0.16245985 0.26286556 -0.95105652
0.0 0.52573111 -0.85065081

CELLS 98 392
3 0 1 2
3 1 3 2
3 1 4 3
3 2 3 5
3 5 3 6
3 3 7 6
3 3 4 7
3 6 7 8
3 5 6 9
3 6 10 9
3 6 8 10
3 9 10 11
3 11 10 12
3 10 13 12
3 10 8 13
3 12 13 14
3 11 12 15
3 12 16 15
3 12 14 16
3 15 16 17
3 11 15 18
3 15 19 18
3 15 17 19
3 18 19 20
3 17 21 19
3 21 22 19
3 21 23 22
3 19 22 20
3 20 22 24
3 22 25 24
3 22 23 25
3 24 25 0
3 0 2 24
3 2 26 24
3 2 5 26
3 24 26 20
3 27 28 29
3 28 30 29
3 28 31 30
3 29 30 14
3 8 32 13
3 32 29 13
3 32 27 29
3 13 29 14
3 31 33 34
3 33 35 34
3 33 36 35
3 34 35 23
3 31 34 37
3 34 21 37
3 34 23 21
3 37 21 17
3 17 16 37
3 16 30 37
3 16 14 30
3 37 30 31
3 27 38 28
3 38 33 28
3 38 36 33
3 28 33 31
3 36 39 35
3 39 25 35
3 39 0 25
3 35 25 23
3 4 1 40
3 1 39 40
3 1 0 39
3 40 39 36
3 40 41 4
3 4 41 42
3 40 43 41
3 43 44 41
3 43 38 44
3 41 44 42
3 38 43 36
3 36 43 40
3 42 44 27
3 44 38 27
3 9 45 5
3 5 45 26
3 9 46 45
3 46 47 45
3 46 18 47
3 45 47 26
3 18 46 11
3 11 46 9
3 26 47 20
3 47 18 20
3 42 48 4
3 4 48 7
3 42 49 48
3 49 50 48
3 49 32 50
3 48 50 7
3 32 49 27
3 27 49 42
3 7 50 8
3 50 32 8

CELL_TYPES 98
5
5
5
5
5
5
5
5
5
5
5
5
5
5
5
5
5
5
5
5
5
5
5
5
5
5
5
5
5
5
5
5
5
5
5
5
5
5
5
5
5
5
5
5
5
5
5
5
5
5
5
5
5
5
5
5
5
5
5
5
5
5
5
5
5
5
5
5
5
5
5
5
5
5
5
5
5
5
5
5
5
5
5
5
5
5
5
5
5
5
5
5
5
5
5
5
5
5

CELL_DATA 98
SCALARS cell_data_0 double
LOOKUP_TABLE default
5.3866549452e-07
2.51112117315e-06
8.88693772698e-08
6.70552522918e-07
6.50887274838e-07
2.55609191959e-06
5.51121378249e-07
1.39287180779e-06
1.12628138455e-06
3.08012650215e-06
1.43664305334e-06
4.2979513309e-07
1.39621637776e-06
2.84770938952e-06
1.4967047152e-07
1.43035080804e-07
1.81379122841e-06
1.06574698695e-06
1.26635801241e-06
4.02046276771e-07
4.18549611501e-08
2.50137765456e-06
5.70587596478e-07
9.2689500875e-07
5.41456254649e-07
1.51080732158e-06
9.56672242628e-08
3.01621010275e-07
8.3378096668e-07
2.75598171962e-06
1.93634809408e-08
4.74672868612e-07
4.21245391576e-07
2.84321813949e-06
2.92865689027e-07
1.28682864744e-06
1.98008429823e-06
1.06670346565e-06
1.74182009666e-06
1.15792716579e-06
9.88135285555e-07
3.81855097699e-06
2.03538759532e-07
6.94815517597e-08
1.26593270439e-06
1.50674403059e-06
1.81453152903e-06
9.87171002055e-09
7.95106896444e-07
2.21222054575e-06
1.23409676627e-07
6.92790891142e-10
3.38328284183e-08
1.76499036046e-06
1.12289854816e-06
1.19307742706e-06
1.66493625334e-07
2.54065507738e-06
3.27169380197e-08
1.83843632141e-06
1.30738895337e-06
4.45118999031e-06
2.43886813524e-06
4.92482515013e-07
7.35368185088e-07
4.7175621213e-06
2.52052372593e-06
1.78362970386e-06
1.923834984e-06
1.55861632169e-06
1.35831423717e-06
4.67391859302e-08
4.55716814511e-07
1.41106515512e-06
4.17228365022e-07
1.10819364771e-06
1.06063690285e-06
7.16877974681e-07
1.1707777977e-07
3.23376539696e-07
3.87770949515e-07
6.63284078296e-07
4.03672811435e-07
6.66086580027e-07
5.15448669645e-07
4.84505541837e-07
3.90045033984e-07
2.09422600139e-08
7.44684200291e-07
1.07571056362e-06
9.11056836913e-07
4.98163535455e-07
5.0605202911e-07
8.50899800208e-07
7.9636050607e-07
1.05882657719e-06
1.10971257969e-06
5.26412908566e-07

