# vtk DataFile Version 3.0
File Name: Molecule/sphere_cent/sphere_cent_0-s3.vtk
ASCII
DATASET UNSTRUCTURED_GRID
FIELD FieldData 1
TIME 1 1 double
0.0
POINTS 60 double
0.85065081 -0.52573111 0.0
0.80901699 -0.30901699 -0.5
1.0 0.0 0.0
0.80901699 0.30901699 -0.5
0.52573111 0.0 -0.85065081
0.85065081 0.52573111 0.0
0.5 0.80901699 -0.30901699
0.30901699 0.5 -0.80901699
0.0 0.85065081 -0.52573111
0.5 0.80901699 0.30901699
0.0 1.0 0.0
0.0 0.85065081 0.52573111
-0.5 0.80901699 0.30901699
-0.5 0.80901699 -0.30901699
-0.85065081 0.52573111 0.0
-0.30901699 0.5 0.80901699
-0.80901699 0.30901699 0.5
-0.52573111 0.0 0.85065081
0.30901699 0.5 0.80901699
0.0 0.0 1.0
0.52573111 0.0 0.85065081
-0.30901699 -0.5 0.80901699
0.30901699 -0.5 0.80901699
0.0 -0.85065081 0.52573111
0.80901699 -0.30901699 0.5
0.5 -0.80901699 0.30901699
0.80901699 0.30901699 0.5
-0.52573111 0.0 -0.85065081
-0.80901699 -0.30901699 -0.5
-0.80901699 0.30901699 -0.5
-1.0 0.0 0.0
-0.85065081 -0.52573111 0.0
-0.5 -0.80901699 -0.30901699
-0.5 -0.80901699 0.30901699
0.0 -1.0 0.0
0.0 -0.85065081 -0.52573111
-0.80901699 -0.30901699 0.5
-0.30901699 -0.5 -0.80901699
0.30901699 -0.5 -0.80901699
0.16245985 -0.26286556 -0.95105652
0.0 0.0 -1.0
0.0 -0.52573111 -0.85065081
-0.16245985 -0.26286556 -0.95105652
0.68819096 0.58778525 0.4253254
0.4253254 0.68819096 0.58778525
0.58778525 0.4253254 0.68819096
0.16245985 0.26286556 -0.95105652
-0.16245985 0.26286556 -0.95105652
0.0 0.52573111 -0.85065081
-0.30901699 0.5 -0.80901699
-0.4253254 0.68819096 -0.58778525
-0.58778525 0.4253254 -0.68819096
-0.68819096 0.58778525 -0.4253254
0.5 -0.80901699 -0.30901699
0.26286556 -0.95105652 -0.16245985
0.52573111 -0.85065081 0.0
0.26286556 -0.95105652 0.16245985
0.58778525 -0.4253254 -0.68819096
0.68819096 -0.58778525 -0.4253254
0.4253254 -0.68819096 -0.58778525

CELLS 116 464
3 0 1 2
3 1 3 2
3 1 4 3
3 2 3 5
3 5 3 6
3 3 7 6
3 3 4 7
3 6 7 8
3 5 6 9
3 6 10 9
3 6 8 10
3 9 10 11
3 11 10 12
3 10 13 12
3 10 8 13
3 12 13 14
3 11 12 15
3 12 16 15
3 12 14 16
3 15 16 17
3 11 15 18
3 15 19 18
3 15 17 19
3 18 19 20
3 17 21 19
3 21 22 19
3 21 23 22
3 19 22 20
3 20 22 24
3 22 25 24
3 22 23 25
3 24 25 0
3 0 2 24
3 2 26 24
3 2 5 26
3 24 26 20
3 27 28 29
3 28 30 29
3 28 31 30
3 29 30 14
3 31 32 33
3 32 34 33
3 32 35 34
3 33 34 23
3 31 33 36
3 33 21 36
3 33 23 21
3 36 21 17
3 17 16 36
3 16 30 36
3 16 14 30
3 36 30 31
3 27 37 28
3 37 32 28
3 37 35 32
3 28 32 31
3 38 39 4
3 4 39 40
3 38 41 39
3 41 42 39
3 41 37 42
3 39 42 40
3 37 41 35
3 35 41 38
3 40 42 27
3 42 37 27
3 9 43 5
3 5 43 26
3 9 44 43
3 44 45 43
3 44 18 45
3 43 45 26
3 18 44 11
3 11 44 9
3 26 45 20
3 45 18 20
3 40 46 4
3 4 46 7
3 40 47 46
3 47 48 46
3 47 49 48
3 46 48 7
3 49 47 27
3 27 47 40
3 7 48 8
3 48 49 8
3 49 50 8
3 8 50 13
3 49 51 50
3 51 52 50
3 51 29 52
3 50 52 13
3 29 51 27
3 27 51 49
3 13 52 14
3 52 29 14
3 53 54 35
3 35 54 34
3 53 55 54
3 55 56 54
3 55 25 56
3 54 56 34
3 25 55 0
3 0 55 53
3 34 56 23
3 56 25 23
3 1 57 4
3 4 57 38
3 1 58 57
3 58 59 57
3 58 53 59
3 57 59 38
3 53 58 0
3 0 58 1
3 38 59 35
3 59 53 35

CELL_TYPES 116
5
5
5
5
5
5
5
5
5
5
5
5
5
5
5
5
5
5
5
5
5
5
5
5
5
5
5
5
5
5
5
5
5
5
5
5
5
5
5
5
5
5
5
5
5
5
5
5
5
5
5
5
5
5
5
5
5
5
5
5
5
5
5
5
5
5
5
5
5
5
5
5
5
5
5
5
5
5
5
5
5
5
5
5
5
5
5
5
5
5
5
5
5
5
5
5
5
5
5
5
5
5
5
5
5
5
5
5
5
5
5
5
5
5
5
5

CELL_DATA 116
SCALARS cell_data_0 double
LOOKUP_TABLE default
4.2728662839e-07
2.98518772259e-06
4.02603358338e-07
9.31454495688e-07
3.99508577981e-07
2.47777721578e-06
5.19897350537e-07
1.34753531074e-06
9.97627144309e-07
3.03998114768e-06
1.55853775893e-06
9.63097673704e-07
8.36543444941e-07
2.97033875179e-06
2.6871801908e-07
3.25962185069e-07
1.16371011866e-06
1.01663195572e-06
1.37315554224e-06
4.27646568295e-07
4.76050258759e-07
2.38465079045e-06
5.48875086978e-07
6.19533844992e-07
1.22326303663e-07
2.02731673328e-06
3.01649583273e-07
4.92288028323e-07
5.49295671765e-07
2.60297047143e-06
9.63462055168e-08
7.4431254229e-07
8.35423417026e-07
2.62776287565e-06
1.17537559695e-07
3.92866247064e-07
9.63465665283e-07
2.76142175495e-06
1.01019625978e-06
6.31391613109e-07
5.49856094143e-07
7.05853799988e-06
1.95702490831e-06
4.2347491092e-06
1.81747333987e-06
5.91494109754e-06
1.65381246521e-06
1.8133833378e-06
1.2942829112e-06
4.22460160653e-06
3.7096254328e-07
9.22108663986e-07
6.95780933544e-08
3.30546524756e-06
5.74419449224e-07
1.37783284058e-06
4.18687334756e-07
7.09298583697e-07
6.49290168571e-07
5.90091063044e-07
3.6233646765e-07
8.08225846343e-07
4.66209938463e-07
6.10135363437e-07
8.90802873511e-07
4.61117746043e-07
4.22113619805e-08
6.80632864014e-07
4.67859845e-07
3.95452048068e-07
7.34534432825e-07
1.06377227865e-06
4.1833207702e-07
3.40831285868e-07
1.14234345008e-06
4.71034612908e-07
6.97295468598e-07
9.40421070136e-07
1.40159099369e-06
5.48275323459e-08
1.40252927782e-06
9.50169014465e-07
1.84021494148e-06
1.88734486007e-06
1.34701055304e-06
1.06128442527e-06
1.04538922441e-06
7.48578624669e-07
7.83066600266e-07
6.75469274081e-08
1.1864819237e-06
1.0785650201e-06
8.9148595341e-07
8.05047723973e-07
1.22613605381e-06
1.61863813207e-06
6.08075501864e-07
6.64280420913e-08
3.7302603258e-08
4.95986863881e-07
9.16436004771e-07
3.74433040618e-08
7.79344031055e-07
1.19740549903e-06
8.06603176116e-07
6.29715065626e-07
9.82811569472e-07
3.88392299502e-07
9.45530593112e-07
3.17590765956e-07
3.79560827626e-08
8.61570680083e-07
1.24258527805e-06
6.6188770319e-07
9.92592967952e-07
4.1197351559e-07

