# vtk DataFile Version 3.0
File Name: Molecule/sphere_cent/sphere_cent_0-s4.vtk
ASCII
DATASET UNSTRUCTURED_GRID
FIELD FieldData 1
TIME 1 1 double
0.0
POINTS 66 double
0.85065081 -0.52573111 0.0
0.80901699 -0.30901699 -0.5
1.0 0.0 0.0
0.80901699 0.30901699 -0.5
0.52573111 0.0 -0.85065081
0.85065081 0.52573111 0.0
0.5 0.80901699 -0.30901699
0.30901699 0.5 -0.80901699
0.0 0.85065081 -0.52573111
0.5 0.80901699 0.30901699
0.0 1.0 0.0
0.0 0.85065081 0.52573111
-0.5 0.80901699 0.30901699
-0.5 0.80901699 -0.30901699
-0.85065081 0.52573111 0.0
-0.30901699 0.5 0.80901699
-0.80901699 0.30901699 0.5
-0.52573111 0.0 0.85065081
0.30901699 0.5 0.80901699
0.0 0.0 1.0
0.52573111 0.0 0.85065081
-0.30901699 -0.5 0.80901699
0.30901699 -0.5 0.80901699
0.0 -0.85065081 0.52573111
0.80901699 -0.30901699 0.5
0.5 -0.80901699 0.30901699
0.80901699 0.30901699 0.5
-0.52573111 0.0 -0.85065081
-0.80901699 -0.30901699 -0.5
-0.80901699 0.30901699 -0.5
-1.0 0.0 0.0
-0.85065081 -0.52573111 0.0
-0.80901699 -0.30901699 0.5
-0.30901699 -0.5 -0.80901699
-0.5 -0.80901699 -0.30901699
0.0 -0.85065081 -0.52573111
0.30901699 -0.5 -0.80901699
0.16245985 -0.26286556 -0.95105652
0.0 0.0 -1.0
0.0 -0.52573111 -0.85065081
-0.16245985 -0.26286556 -0.95105652
0.68819096 0.58778525 0.4253254
0.4253254 0.68819096 0.58778525
0.58778525 0.4253254 0.68819096
0.16245985 0.26286556 -0.95105652
-0.16245985 0.26286556 -0.95105652
0.0 0.52573111 -0.85065081
-0.30901699 0.5 -0.80901699
-0.4253254 0.68819096 -0.58778525
-0.58778525 0.4253254 -0.68819096
-0.68819096 0.58778525 -0.4253254
0.5 -0.80901699 -0.30901699
0.26286556 -0.95105652 -0.16245985
0.0 -1.0 0.0
0.52573111 -0.85065081 0.0
0.26286556 -0.95105652 0.16245985
0.58778525 -0.4253254 -0.68819096
0.68819096 -0.58778525 -0.4253254
0.4253254 -0.68819096 -0.58778525
-0.52573111 -0.85065081 0.0
-0.5 -0.80901699 0.30901699
-0.26286556 -0.95105652 -0.16245985
-0.26286556 -0.95105652 0.16245985
-0.68819096 -0.58778525 0.4253254
-0.4253254 -0.68819096 0.58778525
-0.58778525 -0.4253254 0.68819096

CELLS 128 512
3 0 1 2
3 1 3 2
3 1 4 3
3 2 3 5
3 5 3 6
3 3 7 6
3 3 4 7
3 6 7 8
3 5 6 9
3 6 10 9
3 6 8 10
3 9 10 11
3 11 10 12
3 10 13 12
3 10 8 13
3 12 13 14
3 11 12 15
3 12 16 15
3 12 14 16
3 15 16 17
3 11 15 18
3 15 19 18
3 15 17 19
3 18 19 20
3 17 21 19
3 21 22 19
3 21 23 22
3 19 22 20
3 20 22 24
3 22 25 24
3 22 23 25
3 24 25 0
3 0 2 24
3 2 26 24
3 2 5 26
3 24 26 20
3 27 28 29
3 28 30 29
3 28 31 30
3 29 30 14
3 17 16 32
3 16 30 32
3 16 14 30
3 32 30 31
3 27 33 28
3 33 34 28
3 33 35 34
3 28 34 31
3 36 37 4
3 4 37 38
3 36 39 37
3 39 40 37
3 39 33 40
3 37 40 38
3 33 39 35
3 35 39 36
3 38 40 27
3 40 33 27
3 9 41 5
3 5 41 26
3 9 42 41
3 42 43 41
3 42 18 43
3 41 43 26
3 18 42 11
3 11 42 9
3 26 43 20
3 43 18 20
3 38 44 4
3 4 44 7
3 38 45 44
3 45 46 44
3 45 47 46
3 44 46 7
3 47 45 27
3 27 45 38
3 7 46 8
3 46 47 8
3 47 48 8
3 8 48 13
3 47 49 48
3 49 50 48
3 49 29 50
3 48 50 13
3 29 49 27
3 27 49 47
3 13 50 14
3 50 29 14
3 51 52 35
3 35 52 53
3 51 54 52
3 54 55 52
3 54 25 55
3 52 55 53
3 25 54 0
3 0 54 51
3 53 55 23
3 55 25 23
3 1 56 4
3 4 56 36
3 1 57 56
3 57 58 56
3 57 51 58
3 56 58 36
3 51 57 0
3 0 57 1
3 36 58 35
3 58 51 35
3 34 59 31
3 31 59 60
3 34 61 59
3 61 62 59
3 61 53 62
3 59 62 60
3 53 61 35
3 35 61 34
3 60 62 23
3 62 53 23
3 60 63 31
3 31 63 32
3 60 64 63
3 64 65 63
3 64 21 65
3 63 65 32
3 21 64 23
3 23 64 60
3 32 65 17
3 65 21 17

CELL_TYPES 128
5
5
5
5
5
5
5
5
5
5
5
5
5
5
5
5
5
5
5
5
5
5
5
5
5
5
5
5
5
5
5
5
5
5
5
5
5
5
5
5
5
5
5
5
5
5
5
5
5
5
5
5
5
5
5
5
5
5
5
5
5
5
5
5
5
5
5
5
5
5
5
5
5
5
5
5
5
5
5
5
5
5
5
5
5
5
5
5
5
5
5
5
5
5
5
5
5
5
5
5
5
5
5
5
5
5
5
5
5
5
5
5
5
5
5
5
5
5
5
5
5
5
5
5
5
5
5
5

CELL_DATA 128
SCALARS cell_data_0 double
LOOKUP_TABLE default
4.17339615877e-07
3.01943380093e-06
4.35342450563e-07
9.51533257223e-07
4.69584634978e-07
2.44340185726e-06
4.42395992327e-07
1.40166544011e-06
9.36975432772e-07
2.98748512052e-06
1.5009631963e-06
8.68387448988e-07
9.26617564231e-07
2.91032421563e-06
3.15213164399e-07
2.6736977719e-07
8.09506363063e-07
1.33451871726e-06
1.56557124971e-06
9.10360182902e-08
7.25003645982e-07
2.69972005371e-06
1.24891778879e-07
4.16859475321e-07
3.70366002877e-07
2.19158487409e-06
7.94593518099e-07
5.24318886606e-07
5.76835850831e-07
2.56177964458e-06
2.51756455218e-08
7.08073083565e-07
8.48467815056e-07
3.41292556077e-06
7.38866879121e-07
1.05313842675e-06
5.97180995138e-07
3.07821740907e-06
6.92815518796e-07
3.74365425868e-07
2.94397010526e-06
5.56389039708e-06
6.20692973309e-07
2.61187995298e-06
1.27452462468e-07
6.13884448198e-06
2.96379737631e-06
1.79889698734e-06
2.79392063005e-07
6.05077856623e-07
5.6383822212e-07
6.04975373715e-07
5.21980738414e-07
8.15617075285e-07
6.58836519876e-07
5.75813704757e-07
1.0365310228e-06
7.22479726362e-07
3.62977263488e-07
7.39224830984e-07
7.40019080865e-07
1.68194948438e-07
1.17538903397e-06
1.48214011783e-06
5.53247154944e-07
4.20623944085e-07
1.40816434834e-06
1.15228898606e-06
7.7252575225e-07
1.04135841244e-06
9.67304659181e-07
4.91331571137e-07
2.60087846991e-07
8.70722614367e-07
1.31269038724e-07
1.11698942709e-06
1.1659710981e-06
7.23592696089e-08
8.55463087283e-07
1.4676763855e-06
9.39972806813e-07
6.18811093101e-07
1.47396303876e-06
1.52059849832e-06
1.36940891462e-06
2.92500495583e-07
1.17712729685e-06
1.65938440577e-06
7.45561625637e-07
6.55504384636e-07
1.53825059758e-07
4.48882165868e-07
9.99184801225e-07
1.03862110055e-07
7.50971701629e-07
1.35247919096e-06
1.23133655743e-06
8.13432379888e-07
1.00731962397e-06
4.05670021639e-07
1.09893721085e-06
3.12707277497e-07
3.6598050548e-08
7.32466632005e-07
1.15682695589e-06
8.8117067631e-07
7.31407815482e-07
7.58863775586e-07
6.90594322084e-07
8.95174588268e-07
5.55122323395e-07
1.39823183339e-07
2.50810069332e-09
9.71868983851e-07
7.3187417606e-07
8.44392764855e-08
2.60348760418e-07
9.96905281722e-07
1.60408397684e-07
2.53065777177e-07
4.03273738882e-07
4.94099062442e-07
7.0862875681e-07
8.44789361552e-08
4.84439052452e-07
4.68472945151e-07
1.09112775093e-06
2.0586735681e-07

