# vtk DataFile Version 3.0
File Name: Molecule/methanol/methanol_12.0-3.vtk
ASCII
DATASET UNSTRUCTURED_GRID
FIELD FieldData 1
TIME 1 1 double
0.0
POINTS 673 double
1.611 0.0 -0.359
1.582 -0.31 -0.356
1.475 0.0 -0.634
1.448 -0.29 -0.632
1.403 0.0 -0.933
1.377 -0.282 -0.93
1.498 -0.608 -0.348
1.369 -0.57 -0.624
1.3 -0.554 -0.923
1.36 -0.887 -0.334
1.24 -0.83 -0.611
1.173 -1.135 -0.315
1.066 -1.062 -0.594
1.174 -0.808 -0.91
1.004 -1.034 -0.893
0.945 -1.344 -0.292
0.852 -1.258 -0.572
0.796 -1.224 -0.872
0.682 -1.508 -0.266
0.605 -1.411 -0.548
0.557 -1.374 -0.849
0.393 -1.62 -0.238
0.335 -1.517 -0.521
0.294 -1.476 -0.822
0.089 -1.677 -0.207
0.051 -1.57 -0.493
0.017 -1.528 -0.795
-0.22 -1.677 -0.176
-0.239 -1.57 -0.464
-0.265 -1.528 -0.767
-0.524 -1.62 -0.146
-0.523 -1.517 -0.435
-0.542 -1.476 -0.739
-0.813 -1.508 -0.117
-0.793 -1.411 -0.408
-0.805 -1.374 -0.713
-1.075 -1.344 -0.091
-1.039 -1.258 -0.384
-1.044 -1.224 -0.689
-1.304 -1.135 -0.069
-1.253 -1.062 -0.363
-1.252 -1.034 -0.668
-1.49 -0.887 -0.05
-1.428 -0.83 -0.345
-1.422 -0.808 -0.651
-1.628 -0.608 -0.036
-1.557 -0.57 -0.332
-1.548 -0.554 -0.639
-1.713 -0.31 -0.028
-1.636 -0.29 -0.324
-1.625 -0.282 -0.631
-1.742 0.0 -0.025
-1.663 0.0 -0.322
-1.651 0.0 -0.629
-1.713 0.31 -0.028
-1.636 0.29 -0.324
-1.628 0.608 -0.036
-1.557 0.57 -0.332
-1.625 0.282 -0.631
-1.548 0.554 -0.639
-1.49 0.887 -0.05
-1.428 0.83 -0.345
-1.422 0.808 -0.651
-1.304 1.135 -0.069
-1.253 1.062 -0.363
-1.252 1.034 -0.668
-1.075 1.344 -0.091
-1.039 1.258 -0.384
-1.044 1.224 -0.689
-0.813 1.508 -0.117
-0.793 1.411 -0.408
-0.805 1.374 -0.713
-0.524 1.62 -0.146
-0.523 1.517 -0.435
-0.542 1.476 -0.739
-0.22 1.677 -0.176
-0.239 1.57 -0.464
-0.265 1.528 -0.767
0.089 1.677 -0.207
0.051 1.57 -0.493
0.017 1.528 -0.795
0.393 1.62 -0.238
0.335 1.517 -0.521
0.294 1.476 -0.822
0.682 1.508 -0.266
0.605 1.411 -0.548
0.557 1.374 -0.849
0.945 1.344 -0.292
0.852 1.258 -0.572
0.796 1.224 -0.872
1.173 1.135 -0.315
1.066 1.062 -0.594
1.004 1.034 -0.893
1.36 0.887 -0.334
1.24 0.83 -0.611
1.174 0.808 -0.91
1.498 0.608 -0.348
1.369 0.57 -0.624
1.3 0.554 -0.923
1.582 0.31 -0.356
1.448 0.29 -0.632
1.377 0.282 -0.93
1.907 0.0 0.656
1.883 0.295 0.656
1.883 0.148 0.911
1.883 -0.148 0.911
1.883 -0.295 0.656
1.883 -0.148 0.4
1.883 0.148 0.4
1.814 0.505 0.947
1.814 0.292 1.161
1.814 -0.0 1.239
1.814 -0.292 1.161
1.814 -0.505 0.947
1.814 -0.583 0.656
1.814 -0.505 0.364
1.814 -0.292 0.15
1.814 -0.0 0.072
1.814 0.292 0.15
1.814 0.505 0.364
1.814 0.583 0.656
1.701 0.805 0.949
1.701 0.656 1.206
1.701 0.428 1.398
1.701 0.149 1.499
1.701 -0.149 1.499
1.701 -0.428 1.398
1.701 -0.656 1.206
1.701 -0.805 0.949
1.701 -0.857 0.656
1.701 -0.805 0.363
1.701 -0.656 0.105
1.701 -0.428 -0.087
1.701 -0.149 -0.188
1.701 0.149 -0.188
1.701 0.428 -0.087
1.701 0.656 0.105
1.701 0.805 0.363
1.701 0.857 0.656
1.546 1.072 0.943
1.546 0.961 1.21
1.546 0.784 1.44
1.546 0.555 1.616
1.546 0.287 1.727
1.546 0.0 1.765
1.546 -0.287 1.727
1.546 -0.555 1.616
1.546 -0.784 1.44
1.546 -0.961 1.21
1.546 -1.072 0.943
1.546 -1.109 0.656
1.546 -1.072 0.368
1.546 -0.961 0.101
1.546 -0.784 -0.129
1.546 0.784 -0.129
1.546 0.961 0.101
1.546 1.072 0.368
1.546 1.109 0.656
1.354 1.301 0.953
1.354 1.202 1.235
1.354 1.043 1.488
1.354 0.832 1.699
1.354 0.579 1.858
1.354 0.297 1.957
1.354 0.0 1.99
1.354 -0.297 1.957
1.354 -0.579 1.858
1.354 -0.832 1.699
1.354 -1.043 1.488
1.354 -1.202 1.235
1.354 -1.301 0.953
1.354 -1.335 0.656
1.354 -1.301 0.359
1.354 -1.202 0.077
1.354 -1.043 -0.177
1.354 1.043 -0.177
1.354 1.202 0.077
1.354 1.301 0.359
1.354 1.335 0.656
1.128 1.499 0.945
1.128 1.418 1.223
1.128 1.285 1.481
1.128 1.105 1.709
1.128 0.886 1.899
1.128 0.634 2.045
1.128 0.36 2.14
1.128 0.073 2.181
1.128 -0.217 2.167
1.128 -0.499 2.099
1.128 -0.764 1.978
1.128 -1.0 1.81
1.128 -1.2 1.6
1.128 -1.357 1.355
1.128 -1.465 1.086
1.128 -1.52 0.801
1.128 -1.52 0.51
1.128 -1.465 0.225
1.128 -1.357 -0.044
1.128 1.285 -0.17
1.128 1.418 0.088
1.128 1.499 0.367
1.128 1.527 0.656
0.876 1.656 0.948
0.876 1.58 1.231
0.876 1.456 1.496
0.876 1.288 1.737
0.876 1.081 1.944
0.876 0.841 2.112
0.876 0.575 2.236
0.876 0.292 2.312
0.876 0.0 2.337
0.876 -0.292 2.312
0.876 -0.575 2.236
0.876 -0.841 2.112
0.876 -1.081 1.944
0.876 -1.288 1.737
0.876 -1.456 1.496
0.876 -1.58 1.231
0.876 -1.656 0.948
0.876 -1.682 0.656
0.876 -1.656 0.364
0.876 -1.58 0.08
0.876 1.58 0.08
0.876 1.656 0.364
0.876 1.682 0.656
0.602 1.771 0.951
0.602 1.698 1.238
0.602 1.579 1.51
0.602 1.417 1.758
0.602 1.216 1.976
0.602 0.982 2.158
0.602 0.721 2.3
0.602 0.441 2.396
0.602 0.148 2.445
0.602 -0.148 2.445
0.602 -0.441 2.396
0.602 -0.721 2.3
0.602 -0.982 2.158
0.602 -1.216 1.976
0.602 -1.417 1.758
0.602 -1.579 1.51
0.602 -1.698 1.238
0.602 -1.771 0.951
0.602 -1.795 0.656
0.602 -1.771 0.36
0.602 -1.698 0.073
0.602 1.698 0.073
0.602 1.771 0.36
0.602 1.795 0.656
0.314 1.841 0.947
0.314 1.773 1.232
0.314 1.661 1.502
0.314 1.508 1.751
0.314 1.318 1.974
0.314 1.096 2.164
0.314 0.846 2.317
0.314 0.576 2.429
0.314 0.292 2.497
0.314 -0.0 2.52
0.314 -0.292 2.497
0.314 -0.576 2.429
0.314 -0.846 2.317
0.314 -1.096 2.164
0.314 -1.318 1.974
0.314 -1.508 1.751
0.314 -1.661 1.502
0.314 -1.773 1.232
0.314 -1.841 0.947
0.314 -1.864 0.656
0.314 -1.841 0.364
0.314 -1.773 0.08
0.314 1.773 0.08
0.314 1.841 0.364
0.314 1.864 0.656
0.019 1.865 0.944
0.019 1.8 1.225
0.019 1.692 1.493
0.019 1.544 1.742
0.019 1.36 1.964
0.019 1.144 2.157
0.019 0.902 2.314
0.019 0.638 2.432
0.019 0.359 2.509
0.019 0.072 2.542
0.019 -0.216 2.531
0.019 -0.5 2.476
0.019 -0.772 2.378
0.019 -1.026 2.24
0.019 -1.256 2.065
0.019 -1.456 1.857
0.019 -1.622 1.62
0.019 -1.751 1.361
0.019 -1.838 1.086
0.019 -1.882 0.8
0.019 -1.882 0.511
0.019 -1.838 0.226
0.019 -1.751 -0.05
0.019 1.8 0.086
0.019 1.865 0.367
0.019 1.888 0.656
-0.276 1.864 0.656
-0.276 1.841 0.947
-0.276 1.773 1.232
-0.276 1.661 1.502
-0.276 1.508 1.751
-0.276 1.318 1.974
-0.276 1.096 2.164
-0.276 0.846 2.317
-0.276 0.576 2.429
-0.276 0.292 2.497
-0.276 -0.0 2.52
-0.276 -0.292 2.497
-0.276 -0.576 2.429
-0.276 -0.846 2.317
-0.276 -1.096 2.164
-0.276 -1.318 1.974
-0.276 -1.508 1.751
-0.276 -1.661 1.502
-0.276 -1.773 1.232
-0.276 -1.841 0.947
-0.276 -1.864 0.656
-0.276 -1.841 0.364
-0.276 -1.773 0.08
-0.276 1.773 0.08
-0.276 1.841 0.364
-0.564 1.795 0.656
-0.564 1.771 0.951
-0.564 1.698 1.238
-0.564 1.579 1.51
-0.564 1.417 1.758
-0.564 1.216 1.976
-0.564 0.982 2.158
-0.564 0.721 2.3
-0.564 0.441 2.396
-0.564 0.148 2.445
-0.564 -0.148 2.445
-0.564 -0.441 2.396
-0.564 -0.721 2.3
-0.564 -0.982 2.158
-0.564 -1.216 1.976
-0.564 -1.417 1.758
-0.564 -1.579 1.51
-0.564 -1.698 1.238
-0.564 -1.771 0.951
-0.564 -1.795 0.656
-0.564 -1.771 0.36
-0.564 -1.698 0.073
-0.564 1.698 0.073
-0.564 1.771 0.36
-0.838 1.682 0.656
-0.838 1.656 0.948
-0.838 1.58 1.231
-0.838 1.456 1.496
-0.838 1.288 1.737
-0.838 1.081 1.944
-0.838 0.841 2.112
-0.838 0.575 2.236
-0.838 0.292 2.312
-0.838 0.0 2.337
-0.838 -0.292 2.312
-0.838 -0.575 2.236
-0.838 -0.841 2.112
-0.838 -1.081 1.944
-0.838 -1.288 1.737
-0.838 -1.456 1.496
-0.838 -1.58 1.231
-0.838 -1.656 0.948
-0.838 -1.682 0.656
-0.838 -1.656 0.364
-0.838 -1.58 0.08
-0.838 1.58 0.08
-0.838 1.656 0.364
-1.09 1.527 0.656
-1.09 1.499 0.945
-1.09 1.418 1.223
-1.09 1.285 1.481
-1.09 1.105 1.709
-1.09 0.886 1.899
-1.09 0.634 2.045
-1.09 0.36 2.14
-1.09 0.073 2.181
-1.09 -0.217 2.167
-1.09 -0.499 2.099
-1.09 -0.764 1.978
-1.09 -1.0 1.81
-1.09 -1.2 1.6
-1.09 -1.357 1.355
-1.09 -1.465 1.086
-1.09 -1.52 0.801
-1.09 -1.52 0.51
-1.09 -1.465 0.225
-1.09 1.418 0.088
-1.09 1.499 0.367
-1.316 1.335 0.656
-1.316 1.301 0.953
-1.316 1.202 1.235
-1.316 1.043 1.488
-1.316 0.832 1.699
-1.316 0.579 1.858
-1.316 0.297 1.957
-1.316 0.0 1.99
-1.316 -0.297 1.957
-1.316 -0.579 1.858
-1.316 -0.832 1.699
-1.316 -1.043 1.488
-1.316 -1.202 1.235
-1.316 -1.301 0.953
-1.316 -1.335 0.656
-1.316 -1.301 0.359
-1.316 -1.202 0.077
-1.316 1.202 0.077
-1.316 1.301 0.359
-1.508 1.109 0.656
-1.508 1.072 0.943
-1.508 0.961 1.21
-1.508 0.784 1.44
-1.508 0.555 1.616
-1.508 0.287 1.727
-1.508 0.0 1.765
-1.508 -0.287 1.727
-1.508 -0.555 1.616
-1.508 -0.784 1.44
-1.508 -0.961 1.21
-1.508 -1.072 0.943
-1.508 -1.109 0.656
-1.508 -1.072 0.368
-1.508 -0.961 0.101
-1.508 0.961 0.101
-1.508 1.072 0.368
-1.663 0.857 0.656
-1.663 0.805 0.949
-1.663 0.656 1.206
-1.663 0.428 1.398
-1.663 0.149 1.499
-1.663 -0.149 1.499
-1.663 -0.428 1.398
-1.663 -0.656 1.206
-1.663 -0.805 0.949
-1.663 -0.857 0.656
-1.663 -0.805 0.363
-1.663 0.805 0.363
-1.776 0.583 0.656
-1.776 0.505 0.947
-1.776 0.292 1.161
-1.776 -0.0 1.239
-1.776 -0.292 1.161
-1.776 -0.505 0.947
-1.776 -0.583 0.656
-1.776 -0.505 0.364
-1.776 0.505 0.364
-1.845 0.295 0.656
-1.845 0.148 0.911
-1.845 -0.148 0.911
-1.845 -0.295 0.656
-1.845 -0.148 0.4
-1.776 -0.292 0.15
-1.776 0.292 0.15
-1.845 0.148 0.4
-1.868 -0.0 0.656
1.157 0.426 -1.476
1.157 0.148 -1.577
0.966 0.499 -1.701
0.966 0.741 -1.53
1.157 0.653 -1.285
0.966 0.927 -1.301
0.966 -0.626 -1.624
0.966 -0.842 -1.422
0.733 -0.876 -1.666
0.733 -0.638 -1.843
0.966 -0.363 -1.76
0.733 -0.366 -1.96
0.966 -0.074 -1.82
0.733 -0.074 -2.011
0.733 0.222 -1.994
0.966 0.221 -1.8
0.733 0.506 -1.909
0.733 0.762 -1.761
0.733 0.978 -1.558
0.733 1.141 -1.31
0.733 -1.199 -1.174
0.468 -1.387 -1.032
0.468 -1.296 -1.314
0.733 -1.066 -1.439
0.468 -1.147 -1.571
0.468 -0.949 -1.791
0.468 -0.709 -1.965
0.468 -0.438 -2.086
0.468 -0.148 -2.148
0.468 0.148 -2.148
0.468 0.438 -2.086
0.468 0.709 -1.965
0.468 0.949 -1.791
0.468 1.147 -1.571
0.468 1.296 -1.314
0.733 1.242 -1.032
0.468 1.387 -1.032
0.18 -1.477 -1.031
0.18 -1.391 -1.313
0.18 -1.252 -1.574
0.18 -1.065 -1.802
0.18 -0.836 -1.989
0.18 -0.576 -2.128
0.18 -0.294 -2.214
0.18 0.0 -2.243
0.18 0.294 -2.214
0.18 0.576 -2.128
0.18 0.836 -1.989
0.18 1.065 -1.802
0.18 1.252 -1.574
0.18 1.391 -1.313
0.18 1.477 -1.031
-0.12 -1.473 -1.17
-0.12 -1.364 -1.441
-0.12 -1.207 -1.686
-0.12 -1.005 -1.897
-0.12 -0.767 -2.067
-0.12 -0.502 -2.188
-0.12 -0.218 -2.257
-0.12 0.073 -2.27
-0.12 0.362 -2.229
-0.12 0.638 -2.133
-0.12 0.89 -1.988
-0.12 1.111 -1.796
[...]
CELL_DATA 1342
SCALARS cell_data_0 double
LOOKUP_TABLE default
3.39582950467e-07
2.20497449255e-06
1.05279882384e-07
2.69475942478e-07
2.32036145844e-06
1.55011085678e-06
2.23420984672e-06
2.36935231349e-07
3.52878389324e-08
1.41071743937e-08
1.34074053105e-07
1.95309300462e-08
1.59568830995e-07
4.15743228193e-08
3.25745906422e-08
1.57973913556e-07
1.35906316915e-07
1.61940402295e-07
1.89965476179e-08
3.34738951255e-10
5.05473217368e-09
8.13395734361e-09
8.8599390408e-09
2.38843400813e-09
6.61562767823e-09
2.34770264582e-09
3.09382598228e-09
6.57946720232e-09
8.62181175062e-09
1.52831766737e-09
1.80260113496e-09
1.12819787785e-08
9.61247392695e-09
1.27346927893e-09
4.4761739364e-09
1.44177209885e-08
9.72314368201e-09
3.33816945228e-10
1.93405388534e-09
1.77148376834e-08
1.14875701147e-08
2.55442533446e-09
4.62593414244e-10
2.06322590239e-08
1.13051239027e-08
1.7087742405e-09
3.85663249457e-09
2.26002156742e-08
1.26705425179e-08
3.72218243381e-09
6.01567514054e-09
2.48486661433e-08
1.21387142744e-08
4.34196947211e-09
2.89242822342e-11
2.38520986561e-08
7.30302642742e-09
2.80230527014e-09
1.11276667664e-08
2.2819190309e-08
8.94597802452e-09
6.7531389621e-09
8.30738160635e-09
2.5988148999e-08
5.93121156987e-09
1.32701535959e-08
4.50714749833e-09
2.38692804441e-08
2.11750109401e-08
1.1761963853e-08
2.08182422873e-07
3.37674881107e-07
1.60729997287e-07
1.63060113446e-07
3.31920335648e-07
1.22579926331e-07
1.22630998117e-07
4.06708377504e-09
2.92177674475e-08
1.29983842764e-08
1.28278776386e-09
3.19189107177e-09
2.90764731442e-08
1.20926143455e-08
3.25599813845e-09
5.40804596945e-09
2.79970041968e-08
1.28785527313e-08
2.61881144274e-09
3.06136023102e-09
2.76667228396e-08
1.37120891618e-08
3.99526856431e-09
1.8625041473e-09
2.55623515999e-08
1.43686505243e-08
4.64437776657e-09
1.34088373838e-09
2.380234689e-08
1.47111248181e-08
5.06637326364e-09
1.82961505902e-09
2.14592720637e-08
1.44538868002e-08
5.91897637311e-09
3.64707745379e-09
1.80274130873e-08
1.36780329101e-08
6.71478955688e-09
6.24094495372e-09
1.37688019912e-08
1.29379369884e-08
7.23378853226e-09
9.52952899858e-09
7.07997999467e-09
1.13092239723e-08
8.33410432125e-09
1.68859762872e-08
1.98369601419e-09
1.01951900121e-08
4.22119422704e-09
4.76413959643e-08
1.34852510025e-09
1.37319499506e-08
2.23229803744e-08
7.10038017095e-08
2.30246490648e-08
1.8145016716e-08
3.81939268889e-09
1.36192854653e-07
6.10231419302e-08
1.93658570832e-08
2.25110199797e-07
1.22221830367e-06
4.6674814066e-10
4.28391863411e-10
4.0262855857e-10
2.26192678497e-10
2.86482867224e-10
3.20293090176e-10
4.81642813639e-10
6.89034208345e-11
2.8605230115e-10
9.63550043269e-10
6.78866023145e-10
2.51572679528e-10
4.46247932262e-10
4.65138819455e-09
9.33522297156e-09
6.04102218049e-09
8.58303870358e-09
1.8360284584e-10
4.35752269537e-09
9.67111703498e-09
1.0498773793e-08
5.45328247337e-09
5.46792930152e-09
9.8799281558e-10
1.88274286015e-10
2.12395374773e-09
1.1083673308e-09
1.49358278629e-09
5.50824842423e-10
5.15279567176e-10
9.61677555067e-10
1.72636613719e-09
2.1804880165e-09
2.64913056e-09
9.56078217988e-10
9.16025128036e-11
4.83393454795e-09
5.8125598602e-09
1.04634690162e-08
1.48136436199e-08
2.00584151793e-08
1.8909149805e-08
2.63063244783e-08
1.80152316334e-08
1.6964372911e-09
1.22209328794e-08
1.94203978773e-08
2.29816957136e-08
2.12283418522e-08
1.8842403585e-08
1.24339678982e-08
8.90820270498e-09
4.47821692491e-09
5.67555927796e-10
2.45086372631e-09
4.31116710454e-09
3.82674456176e-09
4.09789135241e-09
2.79579625822e-09
2.56646563894e-09
1.62905719835e-09
6.22817000808e-10
9.37775434094e-11
1.48808493127e-09
2.01701946055e-09
3.17167825771e-09
3.73850818968e-09
4.62468983362e-09
4.45999825958e-09
4.53676941359e-09
3.01518536624e-09
2.45556785644e-09
1.47462578275e-09
1.90023056906e-09
4.73063295341e-09
9.65461892696e-09
1.3328320135e-08
2.34567817798e-08
1.63089774214e-08
2.15696678177e-08
2.35095999927e-08
1.55271096926e-08
1.27849805133e-08
6.6683449925e-09
4.04253883576e-09
7.92554421286e-10
2.06667283386e-09
5.24103095847e-09
6.90187096038e-09
6.13592018004e-09
6.5551068346e-09
5.4347817045e-09
5.27683015746e-09
3.97162454319e-09
3.71882342053e-09
2.18565875312e-09
1.6915922673e-09
8.32102972243e-11
7.58931305184e-10
2.19018749499e-09
2.84247303666e-09
4.09755339952e-09
4.6109430997e-09
5.55586554298e-09
5.77667962134e-09
6.59941173142e-09
6.30357618159e-09
6.81963185173e-09
5.10120979193e-09
5.4027417018e-09
1.978067396e-09
2.22898676181e-09
9.27556918738e-11
3.30842345364e-09
4.72410395302e-09
1.13334509784e-08
7.51327260953e-09
6.56701129272e-09
1.32484521057e-08
7.86778598771e-09
5.04711877244e-09
1.14398557962e-09
7.47007720553e-10
3.27336883818e-09
5.43293269388e-09
8.61461868776e-09
9.05298545797e-09
8.74928331615e-09
8.55580897794e-09
7.93490182223e-09
7.31276192471e-09
6.33506386254e-09
5.65961633026e-09
4.46091992931e-09
3.74052780868e-09
2.14886345734e-09
1.44204441958e-09
4.36603577043e-10
5.99321524827e-10
1.55791739496e-09
2.66767969211e-09
3.34440146975e-09
4.64517122149e-09
5.1917399345e-09
6.44958453023e-09
6.78220338069e-09
7.66332916961e-09
8.1364149772e-09
8.93340093366e-09
8.85587144375e-09
8.74959336425e-09
7.97663513795e-09
7.32434880844e-09
5.34666778601e-09
4.25055492853e-09
1.38217410216e-09
8.58218689932e-10
2.20819831288e-09
7.96030618626e-10
2.07830405356e-09
3.93257509585e-09
9.16450728325e-11
1.43526700852e-09
4.47374050353e-09
5.5419791346e-09
7.35611833416e-09
8.6344127768e-09
1.13260923208e-08
1.17979173696e-08
1.08170473808e-08
1.06034775642e-08
9.74493159702e-09
9.22563639549e-09
8.1056498259e-09
7.37304579039e-09
6.34456664102e-09
5.50507168896e-09
4.36428751525e-09
3.49002503732e-09
2.37322276218e-09
1.72467960818e-09
5.97067749669e-10
3.15400624186e-10
1.66640413511e-09
2.37830445665e-09
3.49613320137e-09
4.29163474539e-09
5.42769949341e-09
6.34235125776e-09
7.47273293599e-09
7.78922554409e-09
8.99343491446e-09
9.12514186091e-09
1.0237983273e-08
1.00907322168e-08
1.08790682803e-08
1.01949562015e-08
1.03786198036e-08
8.97417113247e-09
8.14514233404e-09
5.8337682653e-09
3.99628178737e-09
1.67741804272e-09
8.54452442127e-10
6.24363715338e-10
6.63190818428e-09
9.05425146954e-09
9.37416402151e-09
1.10507273188e-08
1.19035052707e-08
1.43473898185e-08
1.4427249767e-08
1.34408114857e-08
1.29131848627e-08
1.17980936718e-08
1.11126590487e-08
9.98698756422e-09
9.12607680573e-09
8.02746267481e-09
7.00738006287e-09
5.89889540306e-09
4.97971792804e-09
3.83703435759e-09
2.75126910587e-09
1.82282604366e-09
9.51247297741e-10
7.48973827038e-11
1.1868951781e-09
2.15269941918e-09
3.14596672855e-09
4.14714849318e-09
5.2340777038e-09
6.09618279849e-09
7.20796834005e-09
7.96750853735e-09
9.19271072142e-09
9.73716457137e-09
1.09670912163e-08
1.12979944154e-08
1.24323333457e-08
1.21659563781e-08
1.31931019553e-08
1.19542237006e-08
1.23454613211e-08
9.68557002161e-09
8.89161077926e-09
3.94958803161e-09
2.0250947777e-09
7.24177946391e-10
1.17729614411e-10
1.01061639957e-08
1.24146497991e-08
1.31402833653e-08
1.47287144891e-08
1.49062227351e-08
1.6754990155e-08
1.62111900936e-08
1.55988178184e-08
1.45341346553e-08
1.38445155337e-08
1.24881093755e-08
1.16913610154e-08
1.03059599432e-08
9.49650682179e-09
8.18699562827e-09
7.27882202908e-09
5.99432359469e-09
5.10019554722e-09
4.07461304984e-09
2.94322505103e-09
1.8662704923e-09
8.18995955468e-10
1.20392429492e-10
1.20286248672e-09
2.20699996316e-09
3.33615203525e-09
4.17338117398e-09
5.28207287864e-09
6.14994906185e-09
7.44210336965e-09
8.28311885992e-09
9.45105355691e-09
1.02804079765e-08
1.13464664021e-08
1.21830012627e-08
1.29044927945e-08
1.36394940981e-08
1.39882123371e-08
1.44348003492e-08
1.36648427397e-08
1.34426395307e-08
1.07914155699e-08
8.87577164604e-09
1.25809844692e-09
1.73345454503e-09
4.62693452085e-09
1.73567358019e-09
1.20404466836e-08
1.43308137065e-08
1.61588985595e-08
1.69917664292e-08
1.70456390334e-08
1.84236741095e-08
1.76774365655e-08
1.71972928139e-08
1.59068717669e-08
1.52175087114e-08
1.38676928062e-08
1.29217785349e-08
1.14102734322e-08
1.04670709637e-08
9.06866975114e-09
8.20480151553e-09
6.91471062999e-09
6.06294401195e-09
4.6869417039e-09
3.7917583238e-09
2.63928993949e-09
1.73757947757e-09
5.71990478996e-10
3.17160568542e-10
1.47292524615e-09
2.43226521019e-09
3.5374958089e-09
4.41851533982e-09
5.57343146889e-09
6.50566957383e-09
7.70302234633e-09
8.60205416136e-09
9.70494067675e-09
1.05731168111e-08
1.16953022574e-08
1.25972651705e-08
1.35931614479e-08
1.41722918963e-08
1.48054163629e-08
1.49888563008e-08
1.46561647601e-08
1.40787498692e-08
1.23295033145e-08
9.86439567167e-09
3.81671298701e-09
2.70551227222e-09
1.88549471658e-08
1.48839478397e-08
5.48397737417e-09
1.18666955743e-08
1.41418305689e-08
1.73871151721e-08
1.83140087439e-08
1.87319596265e-08
1.18308896927e-08
5.82978440709e-09
1.14637580061e-08
5.50849422869e-09
1.04233596631e-08
4.79587076705e-09
9.08281381603e-09
4.12124442938e-09
7.53337181355e-09
3.28813826223e-09
5.96615213234e-09
2.51930686729e-09
4.50645341106e-09
1.83756201889e-09
3.13202729521e-09
1.07758435171e-09
1.67016523052e-09
3.15577800816e-10
2.86577757232e-10
3.38598511794e-10
1.00806942527e-09
1.02299236549e-09
2.44158970774e-09
1.71045621257e-09
3.83238030164e-09
2.44978800657e-09
5.29650211166e-09
3.21445059596e-09
6.69053010832e-09
3.88298858924e-09
8.0556844013e-09
4.6032414143e-09
9.42441257571e-09
5.25286681213e-09
1.03891775083e-08
5.60192784873e-09
1.03844621964e-08
5.54560800131e-09
9.23639138395e-09
4.46323433459e-09
3.8744905858e-09
4.88225780121e-10
1.13616664038e-08
1.01365329322e-08
5.1605726397e-09
7.1713153956e-10
6.25300464741e-09
4.81193672276e-09
1.15753416748e-08
5.69833435809e-10
5.98440322511e-10
3.55034254086e-10
3.08296177351e-10
1.37928644e-10
1.05075509135e-10
5.81122124609e-11
2.80612749982e-11
2.51405997956e-11
1.86897501186e-11
1.76198825889e-11
6.40311516254e-11
1.84567708277e-12
1.04698612533e-10
3.44105667406e-12
7.00834008899e-11
6.29600605772e-11
7.02956223344e-11
3.76129607265e-11
4.67098499435e-11
2.22445131825e-11
1.45065122348e-10
3.03401639342e-12
6.4377300468e-11
6.62452136783e-12
1.36838784946e-10
8.48582502377e-11
7.44191254934e-11
4.27232013587e-11
2.79361412261e-11
4.83971967593e-11
4.07039520766e-11
1.21204321899e-11
8.42634256298e-11
9.30717381358e-12
2.97276928525e-10
2.26620871251e-10
6.15760384128e-10
5.51979604115e-10
5.11707352167e-10
1.1050507923e-09
1.06975169777e-09
2.37617974495e-09
2.50260800604e-09
1.1589004527e-09
1.04884487934e-09
5.2774391975e-10
7.16112700774e-10
6.89037623847e-10
4.05942240094e-10
3.65742711536e-10
1.48580368766e-10
1.85631903506e-10
6.93567974491e-11
5.71640426001e-11
4.19468869525e-11
1.67989701589e-14
9.80550563935e-12
3.56905211259e-11
2.7535936858e-11
7.35990692469e-11
1.22273417118e-11
3.24903161992e-11
1.3303777948e-10
1.47103598542e-11
7.66699592631e-11
1.01552488769e-10
3.25394797174e-12
7.57765112295e-12
5.13295577813e-11
4.29617018524e-14
3.7262946598e-12
6.81099256305e-11
3.40980354564e-11
4.30119799442e-11
2.9497199114e-11
1.57450571023e-12
5.78107006841e-11
9.72586783152e-11
1.57167620242e-10
3.5786723801e-10
4.57437463294e-10
6.4804210007e-10
7.39732556283e-10
6.91314121209e-10
1.41931736404e-09
1.61087371534e-09
2.93767539831e-09
2.9434933972e-09
1.80627782107e-09
1.33193659159e-09
6.68719954666e-10
8.57838191232e-10
7.68591658732e-10
4.79106760398e-10
3.94827529549e-10
2.42517563907e-10
1.87468171272e-10
1.76982994983e-10
8.46703793334e-11
8.1446452492e-11
2.96270364165e-11
7.46292706539e-11
1.83473760584e-12
9.76429258229e-11
2.96085757335e-11
4.52268423229e-11
2.20635926049e-11
6.21834127547e-11
5.1853370403e-11
1.3340555369e-11
7.99870032638e-11
2.53113532457e-11
9.10597372142e-11
4.77712752831e-11
1.35554128562e-10
3.28685742889e-11
1.54605752867e-10
2.49259906023e-11
1.58303056758e-10
2.77456773996e-11
2.19999127677e-10
1.84953070797e-10
3.02856458832e-10
3.84211959731e-10
4.5645457685e-10
8.39778125241e-10
1.02225903962e-09
1.73446396547e-09
2.86742131727e-09
3.53936705969e-09
2.02792104269e-09
1.5466250846e-09
7.81393699754e-10
9.58692638043e-10
8.75432648823e-10
4.98353516125e-10
4.4905349808e-10
2.65425747291e-10
2.25419028453e-10
2.00904498294e-10
8.37674390418e-11
1.59242424553e-10
3.25353608754e-11
1.38112317527e-10
8.71023813817e-11
6.56593192935e-11
1.103114355e-10
4.46460387098e-12
1.73273447805e-10
1.34078141438e-11
1.64569542408e-10
1.93312197159e-12
2.08263199481e-10
7.96826417217e-11
2.08174354053e-10
5.94867451197e-11
1.90006389905e-11
1.79262695546e-10
2.12040058242e-10
2.19024977909e-10
4.20519137833e-10
3.61810261544e-10
8.37469457129e-10
7.89029705131e-10
1.35788642494e-09
1.91957911418e-09
3.28343496221e-09
3.98591989046e-09
2.86662888333e-09
1.73084104159e-09
8.822980885e-10
1.15092074732e-09
9.22367692725e-10
5.70229948033e-10
4.71817020937e-10
3.24964588576e-10
2.80851409563e-10
1.88888533548e-10
9.21073144987e-11
1.72318611763e-10
7.49362803328e-11
2.5665626085e-10
9.1283249114e-11
1.55911610391e-10
1.02323820588e-10
7.106992604e-11
1.75477708308e-10
5.23641374304e-11
1.74438658675e-10
1.30826369413e-10
2.75808702068e-10
2.92538148288e-10
3.40723145405e-10
4.63041645535e-10
5.52498215859e-10
7.64525505766e-10
1.09251254037e-09
1.11194511135e-09
2.24207522414e-09
3.322124007e-09
4.03410706671e-09
4.32824378869e-09
3.58951104808e-09
1.92538208632e-09
1.08486900588e-09
1.15415419459e-09
1.05719819585e-09
5.38060433407e-10
5.10184616769e-10
3.11055352312e-10
2.95851811927e-10
2.64337808165e-10
1.66550297377e-10
2.0005755324e-10
3.59298237854e-10
2.89783369476e-10
3.48528790106e-10
2.15859649191e-10
1.77493849801e-10
2.65541123966e-10
2.73336562567e-10
2.75870334286e-10
5.14602430692e-10
5.5918272018e-10
1.06186745106e-09
1.07781935975e-09
1.39785814962e-09
2.15636664307e-09
4.78455010273e-09
4.88372678822e-09
2.1186721195e-09
1.20010088543e-09
1.23768440149e-09
1.14630732013e-09
5.26215107501e-10
5.87543047534e-10
3.23253069604e-10
3.05426122188e-10
4.10665928958e-10
4.5115224089e-10
4.73918061114e-10
3.58314535491e-10
3.4689233767e-10
5.92734234868e-10
5.24091663507e-10
1.18502447549e-09
1.27426668684e-09
1.34436127795e-09
2.91228000425e-09
6.30090954333e-09
1.45847895412e-09
5.54774650129e-09
1.33527266938e-09
3.59320124863e-09
3.91346289031e-09
6.26318565095e-10
3.01732849381e-09
2.21490951529e-09
4.07877783314e-08
2.05900821066e-08
2.59155116593e-08
6.70093804744e-08
6.46222829083e-09
8.05645511805e-09
1.36622629735e-08
1.51334502453e-08
8.28409380701e-10
3.28339983832e-09
3.44208393882e-08
4.8128514882e-08
1.59692596858e-08
3.56438513188e-09
1.49272329209e-08
5.56250160641e-08
1.42481927491e-08
1.54459424451e-08
1.46296650885e-08
1.27500790882e-08
1.92415460316e-08
1.33605053343e-08
3.60299553806e-10
2.1889364541e-10
4.1603121734e-10
1.11922145965e-09
6.70146337885e-09
7.79742688944e-09
1.38071454594e-09
3.59973098021e-09
2.46968967664e-09
4.98224910072e-09
5.02817770285e-09
1.9268868147e-09
4.49900417544e-09
1.28175022206e-10
6.26492091606e-09
5.60903689527e-09
5.62726337123e-09
4.1894336358e-09
4.73025534576e-09
1.61203877805e-10
5.0867899168e-09
2.84737018961e-09
3.33273987786e-10
6.02516036898e-10
1.11533704999e-09
1.31837049294e-08
2.16629419728e-07
1.75126383069e-07
1.14225406085e-07
5.71578333168e-09
1.09397651247e-08
1.35346423401e-08
8.89379123221e-09
1.74630312323e-08
3.38677776725e-09
5.46383978283e-09
6.17487507551e-10
4.64537812651e-10
1.5346153661e-09
2.43141953512e-09
3.97833249691e-09
2.37954440909e-09
4.7136446934e-09
6.90683308381e-10
3.39972083794e-09
1.6815688453e-09
7.77446786735e-10
4.81850938436e-09
5.90301662412e-10
3.20141225954e-09
4.80174889281e-09
2.12220585953e-09
3.06441058492e-09
3.79578794715e-10
3.18271554265e-10
8.56772340102e-10
9.76455040184e-10
5.71051015815e-10
2.75684273395e-10
7.70323459216e-08
2.08875612419e-07
1.45859351277e-07
5.2838165404e-08
3.61974658471e-08
2.4514985894e-08
3.16978156954e-06
1.1876315185e-06
1.41593317681e-06
6.10258727177e-07
3.34042060082e-07
5.24054928901e-08
2.91132877154e-08
1.05334886074e-06
3.46197975406e-07
4.55799801618e-07
2.4728848342e-07
7.72529985006e-07
7.77447138589e-09
2.97450624646e-08
1.48658495684e-07
1.74930409796e-07
1.69347028125e-08
9.4428998625e-08
2.4360819658e-08
3.87326822122e-08
6.2570696069e-08
4.05647726077e-07
4.76143112922e-07
5.32235525499e-07
7.87327245819e-07
6.38074190174e-07
6.1563503363e-07
6.94593864197e-07
7.00790170806e-07
1.1097800884e-06
7.90148606574e-07
7.73787386239e-07
3.92163363977e-07
4.21792766812e-07
1.34920194873e-07
1.84343002586e-07
5.13594838994e-08
5.80268212738e-08
4.61015377021e-08
5.33782070587e-09
1.25552195646e-07
4.0002151136e-08
1.34215778515e-07
7.9276235847e-08
8.78994224198e-08
7.98115540051e-09
4.49405691898e-08
1.79995855579e-07
2.45490096606e-07
2.81815796799e-07
3.13263703573e-07
4.58758143982e-07
6.09598828644e-07
8.87816295014e-07
9.57879786565e-07
1.16477587854e-06
9.73486340278e-07
9.18252244571e-07
7.37527201312e-07
6.21350908862e-07
4.91952229169e-07
3.49839458972e-07
2.67321440019e-07
1.38064598861e-07
9.61097987368e-08
1.34908470306e-10
1.25042566817e-08
2.53429254904e-07
2.42786724629e-07
2.12425546305e-07
1.79109614263e-07
1.30266458856e-07
7.79965390632e-08
2.98911489526e-09
5.95830430544e-08
1.62299132627e-07
2.12435978333e-07
3.35870729876e-07
3.56469623095e-07
4.79440352143e-07
4.38852760159e-07
6.51313300711e-07
6.66958396205e-07
8.23193288165e-07
6.97859573778e-07
6.84315793516e-07
5.72656184507e-07
5.03050069342e-07
4.16656860558e-07
3.17542950003e-07
2.63610944604e-07
1.65393807688e-07
1.44046679526e-07
5.85718250005e-08
6.59358207314e-08
2.03322970181e-07
2.19553700865e-07
1.7276534204e-07
1.60951541035e-07
1.00082641431e-07
6.99867146086e-08
4.73900207542e-09
4.24917398851e-08
1.01066842993e-07
1.60653130222e-07
1.9741859131e-07
2.6383351933e-07
2.58432799476e-07
3.09474110016e-07
3.48216857513e-07
4.9088668878e-07
5.1620085954e-07
5.6041678525e-07
4.71947649498e-07
4.84378794138e-07
3.8766993685e-07
3.74233053489e-07
2.87687640365e-07
2.60770538377e-07
2.04276786546e-07
1.72972801384e-07
1.51306854526e-07
1.17985282993e-07
1.40246891041e-07
1.06581155052e-07
1.22645277827e-07
8.23345170025e-08
6.92512079507e-08
2.89428881297e-08
3.54092176115e-09
3.45067962252e-08
7.87949528805e-08
9.21450776485e-08
1.41410451368e-07
1.22600144979e-07
1.6257070561e-07
1.67902349708e-07
2.91566376741e-07
3.21212580046e-07
3.86580042423e-07
3.27484636988e-07
3.5283610868e-07
2.91504693097e-07
2.99010237915e-07
2.44940615388e-07
2.37379492821e-07
2.03562955607e-07
1.89548662038e-07
1.83581820875e-07
1.70166928457e-07
1.47745477446e-09
4.2609128455e-08
2.46401944204e-08
4.07456303403e-08
1.68756545102e-08
1.45954218627e-08
1.31430964581e-09
1.5221711485e-08
3.975378568e-08
1.73591744093e-08
4.17429193007e-08
4.94574304642e-08
1.29379189415e-07
1.60650731625e-07
2.15231282567e-07
2.059493129e-07
2.3822241018e-07
2.05905519542e-07
2.20360416769e-07
1.87564823346e-07
1.95545269479e-07
1.81447766174e-07
1.89967861183e-07
1.93004223634e-07
1.96057351252e-07
5.14943730747e-08
4.7352482738e-08
1.27862369589e-08
3.74853865781e-09
4.42183494718e-09
2.75458471149e-08
1.67337733396e-08
9.23827721919e-09
7.4026466252e-09
3.35037013226e-08
5.28648961041e-08
1.1098045084e-07
1.27094753682e-07
1.55831731227e-07
1.60263773696e-07
1.65136026911e-07
1.57375617532e-07
1.53080138829e-07
1.37909940846e-07
1.49926831381e-07
1.63149168895e-07
1.92753422595e-07
5.68671109279e-08
3.69129467618e-08
2.69399194752e-08
5.21317936285e-09
3.29713723458e-09
6.41278273847e-10
4.61044932846e-07
4.13458927584e-07
2.91373403559e-07
3.44270520288e-07
4.7925875673e-06
1.550717552e-05
3.30642292708e-06
4.71681460608e-06
2.30874518656e-06
2.97076752433e-06
5.64445707812e-06
5.99369395595e-06
6.69084339128e-08
1.54990596375e-07
7.49013675649e-08
1.52556632314e-07
6.85469607583e-08
1.2620105823e-07
5.28121573044e-08
8.02448098088e-08
2.78310942709e-08
2.33573831051e-08
1.71958578298e-10
2.28429518983e-08
1.75421663326e-08
1.30130097204e-08
3.31015548964e-09
8.89333318153e-09
7.11156755289e-08
8.24211642873e-08
3.8501292749e-08
7.92966319842e-07