# vtk DataFile Version 3.0
File Name: Molecule/methanol/methanol_5.0-4.vtk
ASCII
DATASET UNSTRUCTURED_GRID
FIELD FieldData 1
TIME 1 1 double
0.0
POINTS 252 double
1.543 -0.475 -0.352
1.345 -0.911 -0.332
1.341 -0.432 -0.927
1.16 -0.83 -0.909
1.032 -1.273 -0.301
0.876 -1.16 -0.88
0.631 -1.532 -0.261
0.51 -1.396 -0.844
0.173 -1.667 -0.216
0.093 -1.519 -0.802
-0.304 -1.667 -0.168
-0.341 -1.519 -0.759
-0.762 -1.532 -0.123
-0.758 -1.396 -0.718
-1.163 -1.273 -0.083
-1.124 -1.16 -0.681
-1.475 -0.911 -0.051
-1.408 -0.83 -0.653
-1.674 -0.475 -0.032
-1.589 -0.432 -0.635
-1.742 -0.0 -0.025
-1.651 -0.0 -0.629
-1.674 0.475 -0.032
-1.589 0.432 -0.635
-1.475 0.911 -0.051
-1.408 0.83 -0.653
-1.163 1.273 -0.083
-1.124 1.16 -0.681
-0.762 1.532 -0.123
-0.758 1.396 -0.718
-0.304 1.667 -0.168
-0.341 1.519 -0.759
0.173 1.667 -0.216
0.093 1.519 -0.802
0.631 1.532 -0.261
0.51 1.396 -0.844
1.032 1.273 -0.301
0.876 1.16 -0.88
1.345 0.911 -0.332
1.16 0.83 -0.909
1.543 0.475 -0.352
1.341 0.432 -0.927
1.907 0.0 0.656
1.852 0.452 0.656
1.852 0.226 1.047
1.852 -0.226 1.047
1.852 -0.452 0.656
1.852 -0.226 0.264
1.852 0.226 0.264
1.69 0.76 1.094
1.69 0.439 1.415
1.69 -0.0 1.533
1.69 -0.439 1.415
1.69 -0.76 1.094
1.69 -0.877 0.656
1.69 -0.76 0.217
1.69 -0.439 -0.104
1.69 0.439 -0.104
1.69 0.76 0.217
1.69 0.877 0.656
1.432 1.167 1.108
1.432 0.925 1.499
1.432 0.558 1.776
1.432 0.115 1.902
1.432 -0.343 1.859
1.432 -0.754 1.654
1.432 -1.064 1.315
1.432 -1.23 0.886
1.432 -1.23 0.426
1.432 -1.064 -0.003
1.432 1.167 0.203
1.432 1.252 0.656
1.091 1.484 1.113
1.091 1.283 1.531
1.091 0.969 1.87
1.091 0.568 2.102
1.091 0.116 2.205
1.091 -0.346 2.17
1.091 -0.777 2.001
1.091 -1.139 1.712
1.091 -1.4 1.33
1.091 -1.536 0.887
1.091 -1.536 0.424
1.091 -1.4 -0.018
1.091 1.484 0.198
1.091 1.553 0.656
0.688 1.705 1.112
0.688 1.528 1.538
0.688 1.248 1.904
0.688 0.882 2.184
0.688 0.457 2.36
0.688 0.0 2.42
0.688 -0.457 2.36
0.688 -0.882 2.184
0.688 -1.248 1.904
0.688 -1.528 1.538
0.688 -1.705 1.112
0.688 -1.765 0.656
0.688 -1.705 0.199
0.688 1.705 0.199
0.688 1.765 0.656
0.247 1.815 1.122
0.247 1.642 1.558
0.247 1.366 1.938
0.247 1.004 2.238
0.247 0.579 2.438
0.247 0.118 2.526
0.247 -0.351 2.496
0.247 -0.798 2.351
0.247 -1.194 2.099
0.247 -1.516 1.757
0.247 -1.742 1.345
0.247 -1.859 0.89
0.247 -1.859 0.421
0.247 1.815 0.19
0.247 1.874 0.656
-0.209 1.815 1.122
-0.209 1.642 1.558
-0.209 1.366 1.938
-0.209 1.004 2.238
-0.209 0.579 2.438
-0.209 0.118 2.526
-0.209 -0.351 2.496
-0.209 -0.798 2.351
-0.209 -1.194 2.099
-0.209 -1.516 1.757
-0.209 -1.742 1.345
-0.209 -1.859 0.89
-0.209 -1.859 0.421
-0.209 1.815 0.19
-0.209 1.874 0.656
-0.65 1.765 0.656
-0.65 1.705 1.112
-0.65 1.528 1.538
-0.65 1.248 1.904
-0.65 0.882 2.184
-0.65 0.457 2.36
-0.65 0.0 2.42
-0.65 -0.457 2.36
-0.65 -0.882 2.184
-0.65 -1.248 1.904
-0.65 -1.528 1.538
-0.65 -1.705 1.112
-0.65 -1.765 0.656
-0.65 -1.705 0.199
-0.65 1.705 0.199
-1.053 1.553 0.656
-1.053 1.484 1.113
-1.053 1.283 1.531
-1.053 0.969 1.87
-1.053 0.568 2.102
-1.053 0.116 2.205
-1.053 -0.346 2.17
-1.053 -0.777 2.001
-1.053 -1.139 1.712
-1.053 -1.4 1.33
-1.053 -1.536 0.887
-1.053 -1.536 0.424
-1.053 1.484 0.198
-1.394 1.252 0.656
-1.394 1.167 1.108
-1.394 0.925 1.499
-1.394 0.558 1.776
-1.394 0.115 1.902
-1.394 -0.343 1.859
-1.394 -0.754 1.654
-1.394 -1.064 1.315
-1.394 -1.23 0.886
-1.394 -1.23 0.426
-1.394 1.167 0.203
-1.652 0.877 0.656
-1.652 0.76 1.094
-1.652 0.439 1.415
-1.652 -0.0 1.533
-1.652 -0.439 1.415
-1.652 -0.76 1.094
-1.652 -0.877 0.656
-1.652 -0.76 0.217
-1.652 0.76 0.217
-1.814 0.452 0.656
-1.814 0.226 1.047
-1.814 -0.226 1.047
-1.814 -0.452 0.656
-1.814 -0.226 0.264
-1.814 0.226 0.264
-1.868 -0.0 0.656
1.611 0.0 -0.359
1.122 -0.781 -1.188
0.783 -1.147 -1.212
0.783 -0.878 -1.615
1.122 -0.451 -1.519
0.783 -0.475 -1.885
1.122 -0.0 -1.639
0.783 0.0 -1.979
0.783 0.475 -1.885
1.122 0.451 -1.519
0.783 0.878 -1.615
1.122 0.781 -1.188
0.783 1.147 -1.212
0.355 -1.284 -1.432
0.355 -0.989 -1.811
0.355 -0.586 -2.074
0.355 -0.121 -2.192
0.355 0.358 -2.152
0.355 0.798 -1.959
0.355 1.152 -1.634
0.355 1.381 -1.211
-0.12 -1.383 -1.403
-0.12 -1.125 -1.781
-0.12 -0.767 -2.067
-0.12 -0.342 -2.234
-0.12 0.115 -2.268
-0.12 0.561 -2.166
-0.12 0.957 -1.937
-0.12 1.268 -1.602
-0.12 1.467 -1.19
-0.594 -1.44 -0.977
-0.594 -1.284 -1.432
-0.594 -0.989 -1.811
-0.594 -0.586 -2.074
-0.594 -0.121 -2.192
-0.594 0.358 -2.152
-0.594 0.798 -1.959
-0.594 1.152 -1.634
-0.594 1.381 -1.211
-1.022 -1.147 -1.212
-1.022 -0.878 -1.615
-1.022 -0.475 -1.885
-1.022 0.0 -1.979
-1.022 0.475 -1.885
-1.022 0.878 -1.615
-1.022 1.147 -1.212
-1.362 -0.781 -1.188
-1.362 -0.451 -1.519
-1.362 -0.0 -1.639
-1.362 0.451 -1.519
-1.362 0.781 -1.188
-1.58 -0.237 -1.148
-1.58 0.237 -1.148
1.403 0.0 -0.933
1.507 0.0 -0.646
1.476 0.216 -0.643
1.372 0.216 -0.93
1.424 0.216 -0.7865
1.4915 0.108 -0.6445
1.4395 0.108 -0.788
1.47325 0.054 -0.717
1.42125 0.054 -0.8605
1.455 0.0 -0.7895
1.473 -0.2375 -0.6425
1.429 0.0 -0.86125
1.499 -0.2375 -0.57075

CELLS 500 2000
3 0 1 2
3 2 1 3
3 1 4 3
3 3 4 5
3 4 6 5
3 5 6 7
3 6 8 7
3 7 8 9
3 8 10 9
3 9 10 11
3 10 12 11
3 11 12 13
3 12 14 13
3 13 14 15
3 14 16 15
3 15 16 17
3 16 18 17
3 17 18 19
3 18 20 19
3 19 20 21
3 20 22 21
3 21 22 23
3 22 24 23
3 23 24 25
3 24 26 25
3 25 26 27
3 26 28 27
3 27 28 29
3 28 30 29
3 29 30 31
3 30 32 31
3 31 32 33
3 32 34 33
3 33 34 35
3 34 36 35
3 35 36 37
3 36 38 37
3 37 38 39
3 38 40 39
3 39 40 41
3 42 43 44
3 42 44 45
3 42 45 46
3 42 46 47
3 42 47 48
3 42 48 43
3 44 43 49
3 44 49 50
3 44 50 51
3 45 44 51
3 45 51 52
3 45 52 53
3 46 45 53
3 46 53 54
3 46 54 55
3 47 46 55
3 47 55 56
3 48 57 58
3 43 48 58
3 43 58 59
3 43 59 49
3 49 59 60
3 49 60 61
3 50 49 61
3 50 61 62
3 50 62 63
3 51 50 63
3 51 63 64
3 52 51 64
3 52 64 65
3 53 52 65
3 53 65 66
3 53 66 67
3 54 53 67
3 54 67 68
3 55 54 68
3 55 68 69
3 59 58 70
3 59 70 71
3 59 71 60
3 60 71 72
3 60 72 73
3 61 60 73
3 61 73 74
3 62 61 74
3 62 74 75
3 63 62 75
3 63 75 76
3 63 76 77
3 64 63 77
3 64 77 78
3 65 64 78
3 65 78 79
3 66 65 79
3 66 79 80
3 67 66 80
3 67 80 81
3 67 81 82
3 68 67 82
3 68 82 83
3 69 68 83
3 71 70 84
3 71 84 85
3 71 85 72
3 72 85 86
3 72 86 87
3 73 72 87
3 73 87 88
3 74 73 88
3 74 88 89
3 75 74 89
3 75 89 90
3 76 75 90
3 76 90 91
3 77 76 91
3 77 91 92
3 78 77 92
3 78 92 93
3 78 93 94
3 79 78 94
3 79 94 95
3 80 79 95
3 80 95 96
3 81 80 96
3 81 96 97
3 82 81 97
3 82 97 98
3 83 82 98
3 85 84 99
3 85 99 100
3 85 100 86
3 86 100 101
3 86 101 102
3 87 86 102
3 87 102 103
3 88 87 103
3 88 103 104
3 89 88 104
3 89 104 105
3 90 89 105
3 90 105 106
3 91 90 106
3 91 106 107
3 92 91 107
3 92 107 108
3 93 92 108
3 93 108 109
3 94 93 109
3 94 109 110
3 95 94 110
3 95 110 111
3 96 95 111
3 96 111 112
3 97 96 112
3 97 112 113
3 98 97 113
3 100 99 114
3 100 114 115
3 100 115 101
3 101 115 116
3 101 116 117
3 102 101 117
3 102 117 118
3 103 102 118
3 103 118 119
3 104 103 119
3 104 119 120
3 105 104 120
3 105 120 121
3 106 105 121
3 106 121 122
3 107 106 122
3 107 122 123
3 108 107 123
3 108 123 124
3 109 108 124
3 109 124 125
3 110 109 125
3 110 125 126
3 111 110 126
3 111 126 127
3 112 111 127
3 112 127 128
3 113 112 128
3 115 114 129
3 115 129 130
3 115 130 116
3 116 130 131
3 116 131 132
3 117 116 132
3 117 132 133
3 118 117 133
3 118 133 134
3 119 118 134
3 119 134 135
3 120 119 135
3 120 135 136
3 121 120 136
3 121 136 137
3 122 121 137
3 122 137 138
3 123 122 138
3 123 138 139
3 124 123 139
3 124 139 140
3 125 124 140
3 125 140 141
3 126 125 141
3 126 141 142
3 127 126 142
3 127 142 143
3 128 127 143
3 128 143 144
3 131 129 145
3 130 129 131
3 132 131 146
3 132 146 147
3 133 132 147
3 133 147 148
3 134 133 148
3 134 148 149
3 135 134 149
3 135 149 150
3 136 135 150
3 136 150 151
3 137 136 151
3 137 151 152
3 138 137 152
3 138 152 153
3 139 138 153
3 140 139 153
3 140 153 154
3 141 140 154
3 141 154 155
3 142 141 155
3 142 155 156
3 143 142 156
3 143 156 157
3 144 143 157
3 146 145 158
3 131 145 146
3 147 146 159
3 147 159 160
3 148 147 160
3 148 160 161
3 149 148 161
3 149 161 162
3 150 149 162
3 150 162 163
3 151 150 163
3 152 151 163
3 152 163 164
3 153 152 164
3 153 164 165
3 154 153 165
3 154 165 166
3 155 154 166
3 155 166 167
3 156 155 167
3 156 167 168
3 157 156 168
3 159 158 169
3 146 158 159
3 160 159 170
3 160 170 171
3 161 160 171
3 161 171 172
3 162 161 172
3 163 162 172
3 163 172 173
3 164 163 173
3 164 173 174
3 165 164 174
3 165 174 175
3 166 165 175
3 167 166 175
3 167 175 176
3 168 167 176
3 168 176 177
3 170 169 178
3 159 169 170
3 171 170 179
3 171 179 180
3 172 171 180
3 173 172 180
3 173 180 181
3 174 173 181
3 175 174 181
3 175 181 182
3 176 175 182
3 177 176 182
3 177 182 183
3 179 178 184
3 170 178 179
3 180 179 185
3 181 180 185
3 182 181 185
3 183 182 185
3 184 183 185
3 179 184 185
3 184 178 22
3 184 22 20
3 184 20 183
3 183 20 18
3 183 18 177
3 177 18 16
3 177 16 168
3 168 16 14
3 168 14 157
3 157 14 12
3 157 12 144
3 144 12 10
3 144 10 128
3 128 10 8
3 128 8 113
3 113 8 98
3 98 8 6
3 98 6 83
3 83 6 4
3 83 4 69
3 69 4 1
3 69 1 56
3 69 56 55
3 56 1 0
3 56 0 186
3 56 186 47
3 47 186 48
3 48 186 57
3 57 186 40
3 57 40 38
3 57 38 58
3 58 38 70
3 70 38 36
3 70 36 84
3 84 36 34
3 84 34 99
3 99 34 114
3 114 34 32
3 114 32 129
3 129 32 30
3 129 30 145
3 145 30 28
3 145 28 158
3 158 28 26
3 158 26 169
3 169 26 24
3 169 24 178
3 178 24 22
3 187 188 189
3 190 187 189
3 190 189 191
3 192 190 191
3 192 191 193
3 192 193 194
3 195 192 194
3 195 194 196
3 197 195 196
3 197 196 198
3 189 188 199
3 189 199 200
3 191 189 200
3 191 200 201
3 191 201 202
3 193 191 202
3 193 202 203
3 194 193 203
3 194 203 204
3 196 194 204
3 196 204 205
3 198 196 205
3 198 205 206
3 199 207 208
3 200 199 208
3 200 208 209
3 201 200 209
3 201 209 210
3 202 201 210
3 202 210 211
3 203 202 211
3 203 211 212
3 204 203 212
3 204 212 213
3 205 204 213
3 205 213 214
3 206 205 214
3 206 214 215
3 207 216 217
3 208 207 217
3 208 217 218
3 209 208 218
3 209 218 219
3 210 209 219
3 210 219 220
3 211 210 220
3 211 220 221
3 212 211 221
3 212 221 222
3 213 212 222
3 213 222 223
3 214 213 223
3 214 223 224
3 215 214 224
3 217 216 225
3 217 225 226
3 218 217 226
3 218 226 227
3 219 218 227
3 220 219 227
3 220 227 228
3 221 220 228
3 221 228 229
3 222 221 229
3 222 229 230
3 223 222 230
3 223 230 231
3 224 223 231
3 226 225 232
3 226 232 233
3 227 226 233
3 227 233 234
3 228 227 234
3 229 228 234
3 229 234 235
3 230 229 235
3 230 235 236
3 231 230 236
3 233 232 237
3 234 233 237
3 234 237 238
3 235 234 238
3 236 235 238
3 236 238 23
3 236 23 25
3 236 25 27
3 236 27 231
3 231 27 29
3 231 29 224
3 224 29 31
3 224 31 215
3 215 31 33
3 215 33 206
3 206 33 35
3 206 35 198
3 198 35 37
3 198 37 197
3 197 37 39
3 197 39 41
3 197 41 195
3 195 239 192
3 192 239 190
3 190 239 2
3 190 2 187
3 187 2 3
3 187 3 5
3 187 5 188
3 188 5 7
3 188 7 199
3 199 7 9
3 199 9 207
3 207 9 11
3 207 11 216
3 216 11 13
3 216 13 225
3 225 13 15
3 225 15 232
3 232 15 17
3 232 17 19
3 232 19 237
3 237 19 21
3 237 21 238
3 238 21 23
3 186 240 0
3 186 241 40
3 40 241 41
3 41 242 195
3 195 242 239
3 241 243 41
3 41 243 242
3 241 244 243
3 244 245 243
3 243 245 242
3 240 244 186
3 241 244 186
3 240 246 244
3 244 246 245
3 245 247 242
3 242 247 239
3 245 246 247
3 246 248 247
3 246 240 248
3 239 249 2
3 249 0 2
3 239 250 249
3 250 251 249
3 250 248 251
3 249 251 0
3 0 251 240
3 248 251 240
3 248 250 247
3 247 250 239

CELL_TYPES 500
5
5
5
5
5
5
5
5
5
5
5
5
5
5
5
5
5
5
5
5
5
5
5
5
5
5
5
5
5
5
5
5
5
5
5
5
5
5
5
5
5
5
5
5
5
5
5
5
5
5
5
5
5
5
5
5
5
5
5
5
5
5
5
5
5
5
5
5
5
5
5
5
5
5
5
5
5
5
5
5
5
5
5
5
5
5
5
5
5
5
5
5
5
5
5
5
5
5
5
5
5
5
5
5
5
5
5
5
5
5
5
5
5
5
5
5
5
5
5
5
5
5
5
5
5
5
5
5
5
5
5
5
5
5
5
5
5
5
5
5
5
5
5
5
5
5
5
5
5
5
5
5
5
5
5
5
5
5
5
5
5
5
5
5
5
5
5
5
5
5
5
5
5
5
5
5
5
5
5
5
5
5
5
5
5
5
5
5
5
5
5
5
5
5
5
5
5
5
5
5
5
5
5
5
5
5
5
5
5
5
5
5
5
5
5
5
5
5
5
5
5
5
5
5
5
5
5
5
5
5
5
5
5
5
5
5
5
5
5
5
5
5
5
5
5
5
5
5
5
5
5
5
5
5
5
5
5
5
5
5
5
5
5
5
5
5
5
5
5
5
5
5
5
5
5
5
5
5
5
5
5
5
5
5
5
5
5
5
5
5
5
5
5
5
5
5
5
5
5
5
5
5
5
5
5
5
5
5
5
5
5
5
5
5
5
5
5
5
5
5
5
5
5
5
5
5
5
5
5
5
5
5
5
5
5
5
5
5
5
5
5
5
5
5
5
5
5
5
5
5
5
5
5
5
5
5
5
5
5
5
5
5
5
5
5
5
5
5
5
5
5
5
5
5
5
5
5
5
5
5
5
5
5
5
5
5
5
5
5
5
5
5
5
5
5
5
5
5
5
5
5
5
5
5
5
5
5
5
5
5
5
5
5
5
5
5
5
5
5
5
5
5
5
5
5
5
5
5
5
5
5
5
5
5
5
5
5
5
5
5
5
5
5
5
5
5
5
5
5
5
5
5
5
5
5
5
5
5
5
5
5
5
5
5
5
5
5
5
5
5
5
5
5
5
5
5
5
5
5
5
5
5
5
5
5
5
5
5
5
5
5
5
5
5
5
5
5
5
5
5

CELL_DATA 500
SCALARS cell_data_0 double
LOOKUP_TABLE default
3.33026303086e-09
1.15787355397e-09
2.78766604014e-10
5.64981671573e-10
7.57019656736e-10
1.15338101582e-09
9.41128520962e-10
9.02759783202e-10
4.23941351314e-10
6.48152100023e-10
5.04038106724e-10
6.27839407766e-10
3.1126453644e-10
1.02462238117e-09
8.58255727975e-10
1.08935518279e-09
3.52372602487e-10
7.60724287332e-12
4.37873485114e-11
1.96694934928e-10
1.29130209967e-10
8.52650725728e-10
7.23827650405e-10
1.07152683947e-09
1.34360684522e-10
4.07219005873e-10
2.57516690741e-10
5.54570225604e-10
4.25665280307e-10
7.52238623437e-10
6.19899653991e-10
9.4171576988e-10
5.53857047602e-10
3.02001739596e-10
2.24005912351e-10
1.65234283758e-09
1.06952301234e-08
4.93211746184e-09
2.03121896505e-09
7.57829322572e-09
1.63782466329e-10
6.21141795038e-10
1.60747221808e-09
9.58921956441e-10
2.49760102921e-10
3.64309652577e-10
2.03173023741e-11
7.31851299155e-12
4.68494232551e-11
5.14341888056e-10
1.45154451727e-09
1.21303338499e-09
1.38240390182e-09
2.83167685613e-09
3.24361400424e-10
1.02307484145e-09
1.58254678566e-10
1.53505075153e-10
3.81832684555e-10
3.51360343007e-10
2.59897027969e-10
1.38731288324e-10
1.33662272454e-10
2.67106525153e-10
3.33183386594e-10
2.98531971694e-10
1.70379201222e-10
5.6501716248e-11
8.14346814574e-10
9.59015980329e-10
1.72761028083e-09
3.34753196098e-09
3.32233284948e-09
3.57915633371e-09
1.71281010551e-10
5.24494614793e-10
8.11142674129e-11
1.96882922519e-10
1.5443687952e-10
1.88540161454e-10
1.87027527286e-10
1.35892796895e-10
1.50535331921e-10
1.10004773303e-10
1.95133173431e-10
1.70013065216e-10
1.52990145763e-10
9.81468207891e-11
1.57977900736e-10
2.06662522746e-10
1.2915953379e-10
2.0498479165e-10
2.18025481888e-10
3.4610159758e-10
3.3916230763e-10
3.28976937655e-10
2.40176763652e-10
2.42584199321e-10
3.53778550473e-10
1.81512413237e-10
1.21896675314e-10
1.41565410381e-10
1.49064985533e-10
1.59918381547e-10
1.3416269945e-10
1.12477731116e-10
9.65582373724e-11
8.57077888062e-11
9.77096308719e-11
1.29857684844e-10
1.35504102621e-10
1.01083726739e-10
9.25401074077e-11
9.03402925434e-11
1.81475197512e-10
2.07315960924e-10
1.22236301554e-10
2.32153628964e-11
1.13361215507e-10
2.05724499593e-10
1.34897498168e-10
1.05096492677e-10
2.94114068738e-11
6.22170755602e-11
1.45637446977e-11
9.53736312914e-11
1.48612620287e-10
1.62252438437e-10
1.05910045043e-10
9.4532067212e-11
1.11735069297e-10
9.02174365077e-11
9.83094772664e-11
9.99327452476e-11
1.06761480462e-10
1.1092268175e-10
1.04971703927e-10
1.1508596126e-10
8.96104361296e-11
7.62934697239e-11
6.92170470232e-11
9.49351993451e-11
1.24258251352e-10
1.53649695638e-10
1.08573159275e-10
6.1889706192e-11
8.19091926094e-11
1.86422265382e-10
1.23213077923e-10
6.41615421487e-11
6.60876480353e-11
2.68363464824e-11
3.54047735619e-11
6.35942020902e-11
6.42398615621e-11
6.16057697018e-11
6.85244792336e-11
8.31933674051e-11
9.08179786397e-11
5.53822121229e-11
5.91346879592e-11
1.02032161692e-10
7.09530247989e-11
7.2117730892e-11
3.2999811149e-11
5.97168515008e-11
6.69781435062e-11
8.60278794798e-11
7.84534877263e-11
7.45290171023e-11
5.37027837309e-11
7.74168635426e-11
6.83478226087e-11
7.1979765601e-11
5.6632043967e-11
8.95511086341e-11
6.09404939055e-11
7.53325427643e-11
9.11063299267e-11
7.33779249422e-11
2.30737901654e-11
3.47550023571e-11
1.55847220603e-11
3.35119224204e-11
5.5344831545e-11
5.96963115886e-11
5.6075267675e-11
5.89078834457e-11
5.67370760788e-11
5.93454003559e-11
6.94879079726e-11
4.29389139488e-11
3.56033338568e-11
2.59677607979e-11
5.88206612375e-11
7.46221445735e-11
9.00644176875e-11
7.684721776e-11
3.99473858042e-11
2.2605550776e-11
1.84768662279e-11
4.2259631471e-11
8.20594624399e-11
7.95398715503e-11
4.12256610339e-11
4.84790141713e-11
1.77625584985e-11
1.07645683179e-10
3.74592948288e-11
1.4742516813e-10
1.8817526446e-10
8.06799261772e-12
2.98823815055e-11
3.7340069091e-11
5.79268112521e-11
6.10829243999e-11
7.15848745207e-11
7.6087808485e-11
6.75115637362e-11
4.93914880672e-11
3.6205818951e-11
4.9539333135e-11
3.93302725809e-11
6.03720222885e-11
6.43250090268e-11
5.46497996709e-11
4.7949754968e-11
2.93950642551e-11
2.51099538727e-11
5.23514932982e-11
2.5819948857e-11
1.33128908282e-11
6.0020026085e-11
1.13926775684e-10
6.62252266816e-11
3.09323228633e-10
2.00766371949e-10
2.88525981507e-11
1.42406338175e-12
3.15762767058e-11
3.8711548526e-11
4.28615347904e-11
2.44758911915e-11
3.7545603768e-11
2.82070326375e-11
3.90763708875e-11
3.22869994973e-11
1.69476339539e-11
4.13136404808e-11
6.260778636e-11
6.11999150689e-11
3.10690358729e-11
1.908767057e-11
1.77527082302e-11
1.52048396387e-11
2.46619517564e-11
9.04318600605e-11
2.58628124363e-10
1.31400340054e-10
2.15310849464e-11
5.78909798538e-11
2.6715820003e-11
2.85303595452e-11
1.65759177271e-11
2.05151579702e-11
2.19704555353e-11
3.08142097661e-11
2.87239135946e-11
2.94719837369e-11
2.67811736759e-11
2.622615962e-11
1.37050306518e-11
4.54406260913e-11
3.56124251336e-11
1.41835858716e-10
2.78977870396e-10
2.28250478458e-10
3.29463393435e-11
4.14487208271e-11
1.60563193846e-11
2.45681737614e-11
1.69340192202e-11
1.3376382984e-11
7.89016246425e-12
8.80183638629e-12
7.15937189352e-11
1.26898840693e-11
1.16793797819e-10
3.83610695762e-10
2.39159900908e-10
4.09885328743e-11
3.88288505328e-11
4.10752131438e-09
8.70075787857e-12
1.65184311898e-10
2.5697324249e-10
3.33469904577e-10
2.54487384273e-10
4.80672053339e-09
5.17166715788e-09
2.07800318923e-09
1.30674376442e-09
1.57771846967e-09
9.95510546384e-11
4.97853391859e-11
9.74762803189e-11
1.78893539284e-10
1.7504288036e-10
2.15363751665e-11
6.84168718525e-11
9.19472436294e-12
1.06825965455e-10
2.12129766313e-10
3.3256635833e-10
2.96024483724e-11
1.09092603596e-11
1.36679565391e-10
7.7443656098e-12
1.11047352068e-10
2.35601794582e-11
2.9286529711e-10
5.26145317427e-10
1.19167752544e-10
6.61425924551e-10
1.95212164465e-09
4.50976504781e-09
5.83987053103e-09
4.4865245879e-09
2.9799309011e-09
3.02466132777e-09
6.5231024782e-09
6.6471338654e-09
6.85924660101e-09
7.79111433949e-11
2.65315643714e-11
1.01858072606e-10
8.28474070665e-11
2.64243967338e-11
3.47938720217e-12
8.20395147697e-11
2.01306159947e-12
3.80070527161e-11
3.36931738843e-12
9.44718574926e-12
1.34278479584e-11
3.28450376292e-11
1.673053444e-11
6.4542765783e-11
1.4701353497e-08
1.10622664409e-08
1.81437560566e-08
1.01353729871e-08
6.69550605487e-09
1.08758085742e-08
1.88854118116e-08
1.02309895586e-08
1.20216237285e-08
2.80397010207e-09
1.33678331682e-08
3.952202898e-09
8.87631790638e-09
3.6041165675e-09
3.87541359273e-09
1.76190011218e-10
7.2280001162e-10
3.28399184111e-09
1.00792285119e-09
1.89309222774e-09
6.13457852824e-10
5.5856885468e-10
6.21864893833e-10
4.66815737604e-10
9.80500281774e-11
7.71406846585e-10
5.72473406772e-10
8.8678433113e-10
6.88135017537e-10
9.80830297715e-10
3.45699964838e-10
6.43217481707e-10
2.10969381515e-10
1.0822551188e-09
6.76565035905e-10
6.70414207879e-10
8.66589538342e-10
8.472104374e-10
7.95477503957e-10
1.54355132946e-09
1.00263331949e-09
1.76593499043e-09
6.37197760598e-10
1.63719075567e-09
3.56509341569e-10
1.80061002678e-09
6.02931651436e-10
1.91216474978e-09
8.15450365845e-10
1.15980516881e-09
4.33490879372e-10
5.74817754558e-10
4.27040776761e-10
5.03573160026e-10
1.79284513943e-10
3.83563008472e-10
1.5577924469e-10
1.15262572157e-09
3.11324510989e-10
2.61528043797e-10
7.87798003957e-10
5.14518633497e-10
3.21869132297e-10
2.25536026201e-10
3.25391388143e-10
4.19538148265e-10
3.68072067626e-10
1.26599246716e-10
6.17023814706e-10
7.59467420754e-11
8.73971434983e-10
6.32829003791e-10
1.64545729781e-09
7.87736866674e-10
5.86562423456e-11
1.94878548207e-10
3.39389635909e-10
3.62877562277e-10
1.5109485061e-10
1.81739552869e-11
1.40959464928e-08
1.23647097588e-08
1.19296567837e-08
1.77814416292e-08
1.40867767033e-09
7.22462321934e-10
4.64247973985e-10
3.74701862023e-10
1.30228480009e-10
5.79068669457e-10
7.06725354825e-10
9.41686988776e-10
1.0308620145e-09
6.66997430331e-10
5.39659576282e-10
3.63447184113e-10
4.29681938403e-09
5.16672807877e-10
1.4694095976e-09
1.3701037374e-08
3.12391149564e-08
2.33168022271e-08
1.33249004386e-08
3.63191618073e-09
6.53120960314e-10
2.26377917348e-10
2.61501529642e-09
1.63917470027e-09
2.73675835902e-09
3.38271346446e-10
3.95609530189e-10
1.23759167647e-09
1.004499477e-09
3.3719278963e-10
4.62707605765e-10
1.10442037032e-09
1.06192669365e-09
9.96630059416e-10
3.13609965941e-10
7.78583436668e-10
4.02108399819e-10
1.36490439703e-08
1.32492255937e-08
7.20337884747e-08
2.79940926672e-09
1.35148384124e-09
1.92693286647e-09
8.04091610784e-09
9.97744605855e-09
1.00285918596e-08
1.47902623272e-08
6.89951871568e-09
3.51669576017e-09
1.83369786515e-09
1.38572797667e-08
1.04424161583e-08
1.17316250207e-08
3.90306132301e-08
2.33384483603e-08
6.10658263365e-09
1.88861541679e-08
2.57475522902e-08
2.81177125492e-08
3.47486996507e-08
2.64759980893e-08
1.74553921235e-08
5.61140336174e-08
5.92394139308e-09
4.00621467274e-08
3.65143387057e-08
1.03309816866e-08
1.83274019318e-10

