# vtk DataFile Version 3.0
File Name: Molecule/methanol/methanol_6.0-1.vtk
ASCII
DATASET UNSTRUCTURED_GRID
FIELD FieldData 1
TIME 1 1 double
0.0
POINTS 314 double
1.611 0.0 -0.359
1.554 -0.436 -0.353
1.403 0.0 -0.933
1.386 -0.842 -0.336
1.12 -1.191 -0.31
1.198 -0.767 -0.912
0.956 -1.085 -0.888
0.773 -1.459 -0.275
0.639 -1.329 -0.857
0.368 -1.627 -0.235
0.271 -1.482 -0.82
-0.065 -1.684 -0.192
-0.124 -1.534 -0.781
-0.499 -1.627 -0.149
-0.519 -1.482 -0.741
-0.903 -1.459 -0.108
-0.887 -1.329 -0.705
-1.251 -1.191 -0.074
-1.204 -1.085 -0.673
-1.517 -0.842 -0.047
-1.446 -0.767 -0.649
-1.684 -0.436 -0.031
-1.599 -0.397 -0.634
-1.742 0.0 -0.025
-1.651 0.0 -0.629
-1.684 0.436 -0.031
-1.599 0.397 -0.634
-1.517 0.842 -0.047
-1.446 0.767 -0.649
-1.251 1.191 -0.074
-1.204 1.085 -0.673
-0.903 1.459 -0.108
-0.887 1.329 -0.705
-0.499 1.627 -0.149
-0.519 1.482 -0.741
-0.065 1.684 -0.192
-0.124 1.534 -0.781
0.368 1.627 -0.235
0.271 1.482 -0.82
0.773 1.459 -0.275
0.639 1.329 -0.857
1.12 1.191 -0.31
0.956 1.085 -0.888
1.386 0.842 -0.336
1.198 0.767 -0.912
1.554 0.436 -0.353
1.351 0.397 -0.928
1.907 0.0 0.656
1.859 0.42 0.656
1.859 0.21 1.019
1.859 -0.21 1.019
1.859 -0.42 0.656
1.859 -0.21 0.292
1.859 0.21 0.292
1.72 0.709 1.065
1.72 0.409 1.365
1.72 -0.0 1.475
1.72 -0.409 1.365
1.72 -0.709 1.065
1.72 -0.819 0.656
1.72 -0.709 0.246
1.72 -0.409 -0.054
1.72 -0.0 -0.163
1.72 0.409 -0.054
1.72 0.709 0.246
1.72 0.819 0.656
1.495 1.106 1.058
1.495 0.902 1.412
1.495 0.588 1.675
1.495 0.204 1.815
1.495 -0.204 1.815
1.495 -0.588 1.675
1.495 -0.902 1.412
1.495 -1.106 1.058
1.495 -1.177 0.656
1.495 -1.106 0.253
1.495 -0.902 -0.101
1.495 0.902 -0.101
1.495 1.106 0.253
1.495 1.177 0.656
1.196 1.416 1.071
1.196 1.241 1.453
1.196 0.966 1.771
1.196 0.613 1.998
1.196 0.21 2.116
1.196 -0.21 2.116
1.196 -0.613 1.998
1.196 -0.966 1.771
1.196 -1.241 1.453
1.196 -1.416 1.071
1.196 -1.476 0.656
1.196 -1.416 0.24
1.196 1.416 0.24
1.196 1.476 0.656
0.838 1.651 1.063
0.838 1.506 1.446
0.838 1.273 1.783
0.838 0.966 2.055
0.838 0.603 2.246
0.838 0.205 2.344
0.838 -0.205 2.344
0.838 -0.603 2.246
0.838 -0.966 2.055
0.838 -1.273 1.783
0.838 -1.506 1.446
0.838 -1.651 1.063
0.838 -1.701 0.656
0.838 -1.651 0.249
0.838 1.651 0.249
0.838 1.701 0.656
0.439 1.794 1.065
0.439 1.658 1.454
0.439 1.439 1.803
0.439 1.147 2.094
0.439 0.798 2.314
0.439 0.409 2.45
0.439 0.0 2.496
0.439 -0.409 2.45
0.439 -0.798 2.314
0.439 -1.147 2.094
0.439 -1.439 1.803
0.439 -1.658 1.454
0.439 -1.794 1.065
0.439 -1.84 0.656
0.439 -1.794 0.246
0.439 1.794 0.246
0.439 1.84 0.656
0.019 1.843 1.061
0.019 1.713 1.448
0.019 1.503 1.798
0.019 1.222 2.094
0.019 0.884 2.323
0.019 0.505 2.474
0.019 0.102 2.54
0.019 -0.305 2.518
0.019 -0.699 2.409
0.019 -1.059 2.218
0.019 -1.37 1.954
0.019 -1.617 1.629
0.019 -1.789 1.258
0.019 -1.876 0.86
0.019 -1.876 0.452
0.019 -1.789 0.053
0.019 1.843 0.25
0.019 1.888 0.656
-0.401 1.84 0.656
-0.401 1.794 1.065
-0.401 1.658 1.454
-0.401 1.439 1.803
-0.401 1.147 2.094
-0.401 0.798 2.314
-0.401 0.409 2.45
-0.401 0.0 2.496
-0.401 -0.409 2.45
-0.401 -0.798 2.314
-0.401 -1.147 2.094
-0.401 -1.439 1.803
-0.401 -1.658 1.454
-0.401 -1.794 1.065
-0.401 -1.84 0.656
-0.401 -1.794 0.246
-0.401 1.794 0.246
-0.8 1.701 0.656
-0.8 1.651 1.063
-0.8 1.506 1.446
-0.8 1.273 1.783
-0.8 0.966 2.055
-0.8 0.603 2.246
-0.8 0.205 2.344
-0.8 -0.205 2.344
-0.8 -0.603 2.246
-0.8 -0.966 2.055
-0.8 -1.273 1.783
-0.8 -1.506 1.446
-0.8 -1.651 1.063
-0.8 -1.701 0.656
-0.8 -1.651 0.249
-0.8 1.651 0.249
-1.158 1.476 0.656
-1.158 1.416 1.071
-1.158 1.241 1.453
-1.158 0.966 1.771
-1.158 0.613 1.998
-1.158 0.21 2.116
-1.158 -0.21 2.116
-1.158 -0.613 1.998
-1.158 -0.966 1.771
-1.158 -1.241 1.453
-1.158 -1.416 1.071
-1.158 -1.476 0.656
-1.158 -1.416 0.24
-1.158 1.416 0.24
-1.457 1.177 0.656
-1.457 1.106 1.058
-1.457 0.902 1.412
-1.457 0.588 1.675
-1.457 0.204 1.815
-1.457 -0.204 1.815
-1.457 -0.588 1.675
-1.457 -0.902 1.412
-1.457 -1.106 1.058
-1.457 -1.177 0.656
-1.457 -1.106 0.253
-1.457 1.106 0.253
-1.682 0.819 0.656
-1.682 0.709 1.065
-1.682 0.409 1.365
-1.682 -0.0 1.475
-1.682 -0.409 1.365
-1.682 -0.709 1.065
-1.682 -0.819 0.656
-1.682 -0.709 0.246
-1.682 0.709 0.246
-1.821 0.42 0.656
-1.821 0.21 1.019
-1.821 -0.21 1.019
-1.821 -0.42 0.656
-1.821 -0.21 0.292
-1.821 0.21 0.292
-1.868 -0.0 0.656
1.172 0.415 -1.456
0.886 0.517 -1.776
0.886 0.857 -1.519
1.172 0.719 -1.152
0.886 1.082 -1.156
0.886 0.107 -1.892
0.518 0.0 -2.133
0.518 0.431 -2.065
0.518 0.821 -1.867
0.518 1.13 -1.558
0.518 1.328 -1.169
0.518 -1.328 -1.169
0.099 -1.458 -1.165
0.099 -1.278 -1.559
0.518 -1.13 -1.558
0.099 -0.995 -1.885
0.518 -0.821 -1.867
0.099 -0.631 -2.119
0.518 -0.431 -2.065
0.099 -0.216 -2.241
0.099 0.216 -2.241
0.099 0.631 -2.119
0.099 0.995 -1.885
0.099 1.278 -1.559
0.099 1.458 -1.165
-0.338 -1.458 -1.165
-0.338 -1.278 -1.559
-0.338 -0.995 -1.885
-0.338 -0.631 -2.119
-0.338 -0.216 -2.241
-0.338 0.216 -2.241
-0.338 0.631 -2.119
-0.338 0.995 -1.885
-0.338 1.278 -1.559
-0.338 1.458 -1.165
-0.757 -1.328 -1.169
-0.757 -1.13 -1.558
-0.757 -0.821 -1.867
-0.757 -0.431 -2.065
-0.757 0.0 -2.133
-0.757 0.431 -2.065
-0.757 0.821 -1.867
-0.757 1.13 -1.558
-0.757 1.328 -1.169
-1.125 -1.14 -0.95
-1.125 -0.986 -1.348
-1.125 -0.699 -1.663
-1.125 -0.317 -1.853
-1.125 0.107 -1.892
-1.125 0.517 -1.776
-1.125 0.857 -1.519
-1.125 1.082 -1.156
-1.411 -0.719 -1.152
-1.411 -0.415 -1.456
-1.411 -0.0 -1.567
-1.411 0.415 -1.456
-1.411 0.719 -1.152
-1.593 -0.216 -1.112
-1.593 0.216 -1.112
1.172 -0.719 -1.152
1.351 -0.397 -0.928
1.4525 -0.4165 -0.6405
1.47 -0.639 -0.3445
1.3685 -0.6195 -0.632
1.029 -0.8525 -1.25
1.029 -0.709 -1.4075
0.886 -0.8425 -1.5055
0.886 -0.986 -1.348
0.886 -0.699 -1.663
1.172 -0.415 -1.456
1.172 -0.567 -1.304
1.029 -0.557 -1.5595
1.029 -0.366 -1.6545
0.886 -0.508 -1.758
0.886 -0.317 -1.853
1.172 -0.0 -1.567
1.172 -0.2075 -1.5115
1.029 -0.1585 -1.71
1.029 0.0535 -1.7295
0.886 -0.105 -1.8725
1.172 0.2075 -1.5115
1.029 0.261 -1.674
0.702 -1.157 -1.2585
0.702 -1.058 -1.453
0.518 -1.229 -1.3635
0.702 -0.9145 -1.6105
0.702 -0.565 -1.864
0.702 -0.374 -1.959
1.2875 0.2075 -1.1945
1.2875 0.0 -1.25
1.2875 -0.2075 -1.1945
1.064 -0.902 -1.02
0.921 -1.0355 -1.118
0.737 -1.2065 -1.0285

CELLS 624 2496
3 0 1 2
3 3 4 5
3 5 4 6
3 4 7 6
3 6 7 8
3 7 9 8
3 8 9 10
3 9 11 10
3 10 11 12
3 11 13 12
3 12 13 14
3 13 15 14
3 14 15 16
3 15 17 16
3 16 17 18
3 17 19 18
3 18 19 20
3 19 21 20
3 20 21 22
3 21 23 22
3 22 23 24
3 23 25 24
3 24 25 26
3 25 27 26
3 26 27 28
3 27 29 28
3 28 29 30
3 29 31 30
3 30 31 32
3 31 33 32
3 32 33 34
3 33 35 34
3 34 35 36
3 35 37 36
3 36 37 38
3 37 39 38
3 38 39 40
3 39 41 40
3 40 41 42
3 41 43 42
3 42 43 44
3 43 45 44
3 44 45 46
3 45 0 46
3 46 0 2
3 47 48 49
3 47 49 50
3 47 50 51
3 47 51 52
3 47 52 53
3 47 53 48
3 49 48 54
3 49 54 55
3 49 55 56
3 50 49 56
3 50 56 57
3 50 57 58
3 51 50 58
3 51 58 59
3 51 59 60
3 52 51 60
3 52 60 61
3 52 61 62
3 53 52 62
3 53 62 63
3 53 63 64
3 48 53 64
3 48 64 65
3 48 65 54
3 54 65 66
3 54 66 67
3 55 54 67
3 55 67 68
3 55 68 69
3 56 55 69
3 56 69 70
3 57 56 70
3 57 70 71
3 57 71 72
3 58 57 72
3 58 72 73
3 59 58 73
3 59 73 74
3 59 74 75
3 60 59 75
3 60 75 76
3 61 60 76
3 64 63 77
3 64 77 78
3 65 64 78
3 65 78 79
3 65 79 66
3 66 79 80
3 66 80 81
3 67 66 81
3 67 81 82
3 68 67 82
3 68 82 83
3 69 68 83
3 69 83 84
3 69 84 85
3 70 69 85
3 70 85 86
3 71 70 86
3 71 86 87
3 72 71 87
3 72 87 88
3 73 72 88
3 73 88 89
3 74 73 89
3 74 89 90
3 74 90 91
3 75 74 91
3 79 78 92
3 79 92 93
3 79 93 80
3 80 93 94
3 80 94 95
3 81 80 95
3 81 95 96
3 82 81 96
3 82 96 97
3 83 82 97
3 83 97 98
3 84 83 98
3 84 98 99
3 84 99 100
3 85 84 100
3 85 100 101
3 86 85 101
3 86 101 102
3 87 86 102
3 87 102 103
3 88 87 103
3 88 103 104
3 89 88 104
3 89 104 105
3 90 89 105
3 90 105 106
3 90 106 107
3 91 90 107
3 93 92 108
3 93 108 109
3 93 109 94
3 94 109 110
3 94 110 111
3 95 94 111
3 95 111 112
3 96 95 112
3 96 112 113
3 97 96 113
3 97 113 114
3 98 97 114
3 98 114 115
3 99 98 115
3 99 115 116
3 100 99 116
3 100 116 117
3 101 100 117
3 101 117 118
3 102 101 118
3 102 118 119
3 103 102 119
3 103 119 120
3 104 103 120
3 104 120 121
3 105 104 121
3 105 121 122
3 106 105 122
3 106 122 123
3 106 123 124
3 107 106 124
3 109 108 125
3 109 125 126
3 109 126 110
3 110 126 127
3 110 127 128
3 111 110 128
3 111 128 129
3 112 111 129
3 112 129 130
3 113 112 130
3 113 130 131
3 114 113 131
3 114 131 132
3 115 114 132
3 115 132 133
3 116 115 133
3 116 133 134
3 117 116 134
3 117 134 135
3 118 117 135
3 118 135 136
3 119 118 136
3 119 136 137
3 120 119 137
3 120 137 138
3 121 120 138
3 121 138 139
3 122 121 139
3 122 139 140
3 123 122 140
3 123 140 141
3 124 123 141
3 124 141 142
3 126 125 143
3 126 143 144
3 126 144 127
3 127 144 145
3 127 145 146
3 128 127 146
3 128 146 147
3 129 128 147
3 129 147 148
3 130 129 148
3 130 148 149
3 131 130 149
3 131 149 150
3 132 131 150
3 132 150 151
3 133 132 151
3 133 151 152
3 134 133 152
3 134 152 153
3 135 134 153
3 135 153 154
3 136 135 154
3 136 154 155
3 137 136 155
3 137 155 156
3 138 137 156
3 138 156 157
3 139 138 157
3 139 157 158
3 140 139 158
3 140 158 159
3 141 140 159
3 141 159 160
3 142 141 160
3 145 143 161
3 144 143 145
3 146 145 162
3 146 162 163
3 147 146 163
3 147 163 164
3 148 147 164
3 148 164 165
3 149 148 165
3 149 165 166
3 150 149 166
3 150 166 167
3 151 150 167
3 151 167 168
3 152 151 168
3 152 168 169
3 153 152 169
3 153 169 170
3 154 153 170
3 154 170 171
3 155 154 171
3 155 171 172
3 156 155 172
3 156 172 173
3 157 156 173
3 157 173 174
3 158 157 174
3 158 174 175
3 159 158 175
3 160 159 175
3 160 175 176
3 162 161 177
3 145 161 162
3 163 162 178
3 163 178 179
3 164 163 179
3 164 179 180
3 165 164 180
3 165 180 181
3 166 165 181
3 166 181 182
3 167 166 182
3 167 182 183
3 168 167 183
3 168 183 184
3 169 168 184
3 170 169 184
3 170 184 185
3 171 170 185
3 171 185 186
3 172 171 186
3 172 186 187
3 173 172 187
3 173 187 188
3 174 173 188
3 174 188 189
3 175 174 189
3 176 175 189
3 176 189 190
3 178 177 191
3 162 177 178
3 179 178 192
3 179 192 193
3 180 179 193
3 180 193 194
3 181 180 194
3 181 194 195
3 182 181 195
3 182 195 196
3 183 182 196
3 183 196 197
3 184 183 197
3 185 184 197
3 185 197 198
3 186 185 198
3 186 198 199
3 187 186 199
3 187 199 200
3 188 187 200
3 188 200 201
3 189 188 201
3 190 189 201
3 190 201 202
3 192 191 203
3 178 191 192
3 193 192 204
3 193 204 205
3 194 193 205
3 194 205 206
3 195 194 206
3 196 195 206
3 196 206 207
3 197 196 207
3 197 207 208
3 198 197 208
3 199 198 208
3 199 208 209
3 200 199 209
3 200 209 210
3 201 200 210
3 202 201 210
3 202 210 211
3 204 203 212
3 192 203 204
3 205 204 213
3 205 213 214
3 206 205 214
3 207 206 214
3 207 214 215
3 208 207 215
3 209 208 215
3 209 215 216
3 210 209 216
3 211 210 216
3 211 216 217
3 213 212 218
3 204 212 213
3 214 213 219
3 215 214 219
3 216 215 219
3 217 216 219
3 218 217 219
3 213 218 219
3 218 212 25
3 218 25 23
3 218 23 217
3 217 23 21
3 217 21 211
3 211 21 19
3 211 19 202
3 202 19 17
3 202 17 190
3 190 17 15
3 190 15 176
3 176 15 13
3 176 13 160
3 160 13 11
3 160 11 142
3 142 11 9
3 142 9 124
3 124 9 107
3 107 9 7
3 107 7 91
3 91 7 4
3 91 4 75
3 75 4 76
3 76 4 3
3 76 1 61
3 61 1 62
3 62 1 0
3 62 0 45
3 62 45 63
3 63 45 77
3 77 45 43
3 77 43 41
3 77 41 78
3 78 41 92
3 92 41 39
3 92 39 108
3 108 39 37
3 108 37 125
3 125 37 143
3 143 37 35
3 143 35 161
3 161 35 33
3 161 33 177
3 177 33 31
3 177 31 191
3 191 31 29
3 191 29 203
3 203 29 27
3 203 27 212
3 212 27 25
3 220 221 222
3 223 220 222
3 223 222 224
3 225 226 227
3 221 225 227
3 221 227 228
3 222 221 228
3 222 228 229
3 224 222 229
3 224 229 230
3 231 232 233
3 234 233 235
3 236 234 235
3 236 235 237
3 238 236 237
3 238 237 239
3 226 238 239
3 226 239 240
3 227 226 240
3 227 240 241
3 228 227 241
3 228 241 242
3 229 228 242
3 229 242 243
3 230 229 243
3 230 243 244
3 232 245 246
3 233 232 246
3 233 246 247
3 235 233 247
3 235 247 248
3 237 235 248
3 239 237 248
3 239 248 249
3 239 249 250
3 240 239 250
3 240 250 251
3 241 240 251
3 241 251 252
3 242 241 252
3 242 252 253
3 243 242 253
3 243 253 254
3 244 243 254
3 246 245 255
3 246 255 256
3 247 246 256
3 247 256 257
3 248 247 257
3 248 257 258
3 249 248 258
3 249 258 259
3 250 249 259
3 250 259 260
3 251 250 260
3 251 260 261
3 252 251 261
3 252 261 262
3 253 252 262
3 253 262 263
3 254 253 263
3 255 264 265
3 256 255 265
3 256 265 266
3 257 256 266
3 258 257 266
3 258 266 267
3 259 258 267
3 259 267 268
3 260 259 268
3 260 268 269
3 261 260 269
3 261 269 270
3 262 261 270
3 262 270 271
3 263 262 271
3 265 264 272
3 266 265 272
3 266 272 273
3 267 266 273
3 267 273 274
3 268 267 274
3 268 274 275
3 269 268 275
3 270 269 275
3 270 275 276
3 271 270 276
3 273 272 277
3 274 273 277
3 274 277 278
3 275 274 278
3 276 275 278
3 276 278 26
3 276 26 28
3 276 28 30
3 276 30 271
3 271 30 32
3 271 32 263
3 263 32 34
3 263 34 254
3 254 34 36
3 254 36 244
3 244 36 38
3 244 38 230
3 230 38 40
3 230 40 224
3 224 40 42
3 224 42 223
3 223 42 44
3 223 44 46
3 223 46 220
3 279 280 5
3 231 8 10
3 231 10 232
3 232 10 12
3 232 12 245
3 245 12 14
3 245 14 255
3 255 14 16
3 255 16 264
3 264 16 18
3 264 18 20
3 264 20 272
3 272 20 22
3 272 22 277
3 277 22 24
3 277 24 278
3 278 24 26
3 1 281 2
3 2 281 280
3 1 282 281
3 282 283 281
3 282 3 283
3 281 283 280
3 280 283 5
3 283 3 5
3 3 282 76
3 76 282 1
3 279 284 285
3 284 286 285
3 284 287 286
3 285 286 288
3 289 290 291
3 290 285 291
3 290 279 285
3 291 285 288
3 289 291 292
3 291 293 292
3 291 288 293
3 292 293 294
3 295 296 297
3 296 292 297
3 296 289 292
3 297 292 294
3 295 297 298
3 297 299 298
3 297 294 299
3 298 299 225
3 220 300 301
3 300 298 301
3 300 295 298
3 301 298 225
3 220 301 221
3 301 225 221
3 287 302 303
3 302 304 303
3 302 231 304
3 303 304 234
3 288 286 305
3 286 303 305
3 286 287 303
3 305 303 234
3 288 305 236
3 305 234 236
3 238 306 236
3 288 306 236
3 294 293 307
3 293 306 307
3 293 288 306
3 307 306 238
3 294 307 226
3 307 238 226
3 225 299 226
3 299 294 226
3 234 304 233
3 304 231 233
3 2 308 46
3 220 308 46
3 220 308 300
3 308 309 300
3 308 2 309
3 300 309 295
3 295 309 296
3 309 310 296
3 309 2 310
3 296 310 289
3 289 310 280
3 310 2 280
3 279 290 280
3 289 290 280
3 6 311 5
3 279 311 5
3 279 311 284
3 311 312 284
3 311 6 312
3 284 312 287
3 287 312 302
3 312 313 302
3 312 6 313
3 302 313 231
3 231 313 8
3 313 6 8

CELL_TYPES 624
5
5
5
5
5
5
5
5
5
5
5
5
5
5
5
5
5
5
5
5
5
5
5
5
5
5
5
5
5
5
5
5
5
5
5
5
5
5
5
5
5
5
5
5
5
5
5
5
5
5
5
5
5
5
5
5
5
5
5
5
5
5
5
5
5
5
5
5
5
5
5
5
5
5
5
5
5
5
5
5
5
5
5
5
5
5
5
5
5
5
5
5
5
5
5
5
5
5
5
5
5
5
5
5
5
5
5
5
5
5
5
5
5
5
5
5
5
5
5
5
5
5
5
5
5
5
5
5
5
5
5
5
5
5
5
5
5
5
5
5
5
5
5
5
5
5
5
5
5
5
5
5
5
5
5
5
5
5
5
5
5
5
5
5
5
5
5
5
5
5
5
5
5
5
5
5
5
5
5
5
5
5
5
5
5
5
5
5
5
5
5
5
5
5
5
5
5
5
5
5
5
5
5
5
5
5
5
5
5
5
5
5
5
5
5
5
5
5
5
5
5
5
5
5
5
5
5
5
5
5
5
5
5
5
5
5
5
5
5
5
5
5
5
5
5
5
5
5
5
5
5
5
5
5
5
5
5
5
5
5
5
5
5
5
5
5
5
5
5
5
5
5
5
5
5
5
5
5
5
5
5
5
5
5
5
5
5
5
5
5
5
5
5
5
5
5
5
5
5
5
5
5
5
5
5
5
5
5
5
5
5
5
5
5
5
5
5
5
5
5
5
5
5
5
5
5
5
5
5
5
5
5
5
5
5
5
5
5
5
5
5
5
5
5
5
5
5
5
5
5
5
5
5
5
5
5
5
5
5
5
5
5
5
5
5
5
5
5
5
5
5
5
5
5
5
5
5
5
5
5
5
5
5
5
5
5
5
5
5
5
5
5
5
5
5
5
5
5
5
5
5
5
5
5
5
5
5
5
5
5
5
5
5
5
5
5
5
5
5
5
5
5
5
5
5
5
5
5
5
5
5
5
5
5
5
5
5
5
5
5
5
5
5
5
5
5
5
5
5
5
5
5
5
5
5
5
5
5
5
5
5
5
5
5
5
5
5
5
5
5
5
5
5
5
5
5
5
5
5
5
5
5
5
5
5
5
5
5
5
5
5
5
5
5
5
5
5
5
5
5
5
5
5
5
5
5
5
5
5
5
5
5
5
5
5
5
5
5
5
5
5
5
5
5
5
5
5
5
5
5
5
5
5
5
5
5
5
5
5
5
5
5
5
5
5
5
5
5
5
5
5
5
5
5
5
5
5
5
5
5
5
5
5
5
5
5
5
5
5
5
5
5
5
5
5
5
5
5
5
5
5
5
5
5
5
5
5
5
5
5
5
5
5
5
5
5
5
5
5
5
5
5
5
5
5
5
5
5
5
5
5
5
5
5
5
5
5
5
5
5
5
5
5
5

CELL_DATA 624
SCALARS cell_data_0 double
LOOKUP_TABLE default
1.79463413871e-06
2.22084739256e-07
2.0969746808e-07
3.03302970375e-07
3.85864972929e-07
6.06561813805e-07
2.33585174222e-07
8.47025726379e-07
4.37596577321e-08
9.92107743448e-07
1.21171892306e-07
1.08031386001e-06
2.58197951635e-07
1.12103303607e-06
3.66202874014e-07
1.16049765563e-06
4.32228950411e-07
1.18299537398e-06
5.00508217814e-07
1.14601032324e-06
5.62292990453e-07
1.12059020377e-06
5.96324792315e-07
1.06432145378e-06
6.34929638156e-07
9.79476652649e-07
6.54759642375e-07
8.79325264446e-07
6.74806925064e-07
7.18907344836e-07
6.70127735929e-07
5.17055706878e-07
6.35099404405e-07
2.65118758887e-07
5.44211021573e-07
6.98120068728e-09
3.49642445668e-07
1.22174570135e-07
4.24156543011e-08
6.07865352374e-07
2.93966450383e-07
4.14926969574e-06
5.25572760409e-08
9.16036403183e-07
3.43014652414e-07
5.47971626343e-09
7.26248109098e-10
8.77137980933e-09
3.0924383888e-09
2.41808687299e-08
2.62206272524e-08
1.01619393422e-09
3.05496794608e-09
4.35137569419e-09
2.80146351943e-09
3.51293662694e-09
8.52526219654e-09
2.02989647444e-08
4.41637897945e-08
1.28047405797e-07
9.10502870899e-08
7.75589727375e-08
3.67449258759e-08
7.2834199398e-08
1.06525992737e-07
8.81643801257e-08
6.10732794511e-08
2.37792042323e-08
3.87893962971e-09
1.99823839865e-08
2.26035844492e-08
1.17757680781e-08
9.52033569888e-09
4.43239832884e-10
8.49632242175e-09
1.31740325292e-08
1.60699152184e-08
1.98665264665e-08
2.14470199439e-08
4.29118187329e-09
7.16490590903e-10
3.95962007986e-08
4.71060749808e-08
6.12954037051e-08
1.5133862093e-07
7.6442650859e-08
6.19182098716e-08
9.2990805655e-08
5.16400266836e-08
3.49289745064e-08
4.0545018867e-10
2.49041968919e-08
4.15367252566e-08
4.32718952224e-08
3.35486475661e-08
3.05704585933e-08
1.95851065665e-08
1.41362890641e-08
1.93826552995e-09
3.17705393691e-09
1.54893933531e-08
1.94949798678e-08
2.86954222696e-08
3.11467115454e-08
3.84178166492e-08
3.49148325118e-08
3.6983566798e-08
2.22157843729e-08
2.26403304806e-08
1.02027763874e-08
5.45153131043e-09
1.68850910614e-08
3.85394403918e-08
2.21799838595e-10
3.04092117545e-08
5.01944676261e-08
6.56946210534e-08
6.10441487127e-08
5.32506979726e-08
4.56702754482e-08
3.74000637686e-08
2.95683747071e-08
1.97048631479e-08
1.32376787124e-08
2.11169638689e-09
3.35985301502e-09
1.4691667234e-08
2.04440090152e-08
2.89083525199e-08
3.55394595606e-08
4.15122666725e-08
4.72234785644e-08
5.1277183693e-08
5.11697940911e-08
4.95526058419e-08
4.10023101058e-08
3.8990724437e-08
2.62544351366e-08
2.29932287439e-08
3.47664216343e-09
9.56243412639e-09
3.56294257451e-08
5.93424840658e-08
7.19081198953e-08
8.32362294494e-08
7.79323328088e-08
6.74994359617e-08
5.9080568201e-08
4.97105935006e-08
4.11557866342e-08
3.22087758501e-08
2.3790873039e-08
1.57484802285e-08
7.91019914564e-09
2.86997504766e-10
8.20583980654e-09
1.61185171016e-08
2.37625923762e-08
3.13927769252e-08
3.88994812101e-08
4.56584091129e-08
5.26810553109e-08
5.72835010867e-08
6.3395501573e-08
6.05329868998e-08
6.12505199471e-08
5.02461162037e-08
4.31386225063e-08
2.98231127334e-08
2.19696644079e-08
5.11338221328e-09
1.40856453026e-08
6.63399978948e-08
8.88996097104e-08
9.43610683038e-08
1.02998667594e-07
9.08635048232e-08
8.16555600284e-08
6.99042526827e-08
6.10699154541e-08
4.96621021792e-08
4.15182870626e-08
3.08570630914e-08
2.34579462665e-08
1.34119152652e-08
6.39053571797e-09
3.44590760297e-09
1.02429235823e-08
1.97067386483e-08
2.62946853228e-08
3.58292661602e-08
4.21558300396e-08
5.12178058944e-08
5.72228539148e-08
6.4826101375e-08
6.84324747892e-08
7.21337979857e-08
6.95472755998e-08
5.79122901316e-08
4.1661727715e-08
5.43375823552e-09
6.54282450337e-09
1.10863916246e-08
1.02115919838e-09
2.59289175571e-08
6.59646357074e-08
7.93437319282e-08
1.12760285614e-07
9.77722566703e-08
7.73981848418e-08
8.01162403678e-08
6.30645938636e-08
6.22042210352e-08
4.83639097145e-08
4.50408956907e-08
3.38543433747e-08
2.84034988642e-08
2.01799119413e-08
1.31481104747e-08
7.48409572167e-09
1.59774657895e-09
4.94241953149e-09
1.5921951295e-08
1.70263243027e-08
3.0190891744e-08
2.90788389802e-08
4.39421620948e-08
4.11396561035e-08
5.66124692897e-08
5.14334765246e-08
6.46756425968e-08
5.72680999693e-08
5.6831554737e-08
4.37736381697e-08
3.99357583663e-09
1.23403849769e-08
2.31616498868e-08
5.26128973295e-09
8.98798358874e-09
3.73650894867e-08
6.72210484006e-08
6.75400265654e-08
6.5544140836e-08
5.73200293786e-08
5.42337627604e-08
4.53489780277e-08
4.15373097118e-08
3.30683678794e-08
2.85219077929e-08
2.13494023779e-08
1.6832517417e-08
1.06881483601e-08
5.24470794667e-09
1.33939715496e-10
5.92005576308e-09
1.0263266448e-08
1.68431465613e-08
2.05760430517e-08
2.77898203927e-08
3.1103779159e-08
3.8209287323e-08
4.05119739194e-08
4.55550220151e-08
4.62610642503e-08
4.29511262779e-08
3.77791215945e-08
8.7874419418e-09
7.40892293884e-09
1.53817269243e-08
1.36372014217e-08
4.13995109895e-08
5.50706377672e-08
7.07845137917e-08
7.14644656905e-08
5.95265911117e-08
5.82022651042e-08
4.5550123131e-08
4.17996068184e-08
3.10824741581e-08
2.51940863538e-08
1.76186796529e-08
9.54624530818e-09
4.0025515809e-09
6.58790295131e-09
1.00554968029e-08
1.67264040743e-08
2.47243273984e-08
2.88602672081e-08
3.82254692989e-08
3.99109933785e-08
4.83179676172e-08
4.65842236593e-08
4.41460715971e-08
3.51983924328e-08
4.67662759686e-09
2.8015128484e-08
3.5174925059e-08
2.5649718939e-08
4.61209562492e-08
5.83902408257e-08
7.3645670062e-08
6.86133885662e-08
6.0445870295e-08
5.35908511755e-08
4.25635308462e-08
3.36772359701e-08
2.42400078508e-08
1.30367090071e-08
6.20517567612e-09
7.38106741368e-09
1.29845823694e-08
2.25086282304e-08
3.059796995e-08
3.72999203664e-08
4.39477099613e-08
4.64820839246e-08
4.0685836104e-08
3.30709060269e-08
1.42140400723e-08
4.84922452215e-08
5.57731253438e-08
3.28322961137e-08
4.33514716971e-08
6.08907092241e-08
6.95286927855e-08
7.01338653531e-08
5.18836434934e-08
4.2332541024e-08
2.82129512933e-08
1.38832185902e-08
5.06225463509e-10
1.15973530565e-08
2.96820581199e-08
3.36170465141e-08
4.08793851688e-08
3.89756513427e-08
2.81281383335e-08
3.0031198999e-08
6.5148887966e-08
7.16194996942e-08
4.59301682041e-08
4.64502373405e-08
5.83606106299e-08
6.54236899575e-08
4.39914016258e-08
2.36071732493e-08
1.33784561799e-09
1.83945243961e-08
2.83920283411e-08
2.56913589455e-08
2.64517448091e-08
6.99107897074e-08
7.87584701561e-08
3.94606393303e-08
4.21277760113e-08
5.73979394656e-08
6.8720291735e-06
6.35830536544e-06
6.00513255368e-06
6.23765845465e-06
6.91492015334e-06
7.21014147457e-06
2.9046216068e-07
9.61489030389e-07
3.235128808e-07
1.1282019472e-06
4.80213004878e-07
1.01250881306e-06
4.1347877689e-07
1.06360446975e-06
3.91606298604e-07
1.03865971753e-06
4.0055834683e-07
1.07551438714e-06
3.98949369069e-07
9.97446915933e-07
1.60326085246e-07
3.4250036943e-07
1.30851638028e-07
2.34075869777e-07
5.14560377474e-07
1.09094944629e-07
1.09164621865e-07
3.86266255806e-09
3.63857610108e-09
2.58424378501e-08
3.09890265289e-06
2.308344851e-06
1.3713885086e-06
9.42888834184e-07
1.46670969849e-06
2.02839295825e-06
2.15831518422e-06
2.31246080286e-07
9.10607863339e-09
8.46779992159e-12
8.02810200247e-08
8.87335450826e-08
4.47557051025e-07
2.19290512562e-07
1.74839255916e-07
7.07295782122e-07
2.71797212666e-07
8.73051639846e-07
2.9068520785e-07
9.41527108287e-07
2.80193984434e-07
9.11677865045e-07
2.61118804342e-07
9.03761092325e-07
2.43062969084e-07
8.33754804363e-07
1.93612692635e-06
1.61311732298e-06
5.13381148388e-07
7.20730091781e-07
9.04825720368e-07
7.85593907526e-07
2.0723657477e-06
1.16348369876e-06
1.91822417014e-06
1.23330069182e-06
1.96293778671e-07
2.05585983894e-07
6.84945427277e-07
1.43229260983e-06
1.18751780744e-06
1.32887996759e-06
1.27846462956e-06
2.04192605794e-06
9.63858058463e-07
9.30017633528e-07
6.9482433333e-07
1.2101166456e-06
8.91548628836e-07
7.72877635433e-07
5.59935279896e-07
5.66446654485e-07
2.01485185333e-07
1.32683674225e-07
1.21908429412e-07
2.80413315282e-07
7.00038266757e-07
1.26218928032e-06
1.84336662532e-06
1.63861820692e-06
1.62604244356e-06
1.79067264101e-06
1.41950015095e-06
1.50456292731e-06
1.15075478588e-06
1.11059478301e-06
8.46470361582e-07
7.87406293609e-07
6.96577206647e-07
6.46327194729e-07
5.8056088539e-08
5.54566562235e-09
9.27262577101e-08
2.51940525296e-07
6.79338431752e-07
8.52033989747e-07
1.1152066467e-06
9.95634390356e-07
1.15886831872e-06
9.68775575875e-07
1.02894941462e-06
8.58765918951e-07
8.78068066645e-07
7.24252719462e-07
7.18834189358e-07
6.4596546823e-07
6.74020670464e-07
1.7413015665e-07
1.41348678099e-07
2.3922938687e-07
2.75502187692e-07
5.00139104296e-07
4.71052455365e-07
6.56217836392e-07
5.55422326187e-07
6.62569291615e-07
5.15392420775e-07
6.07582880186e-07
5.32514167186e-07
6.06023289721e-07
5.70178577295e-07
6.04134137487e-07
8.54288944952e-07
9.06714217508e-07
1.20504687406e-05
3.91354076144e-06
8.23939879447e-06
1.00442063752e-06
7.60704108903e-08
9.48565562367e-07
8.88556549522e-07
7.4561305754e-08
7.57738989477e-07
2.0558627897e-05
1.57789349352e-05
1.28946513604e-05
8.58261275865e-06
8.58992185328e-06
8.16413870046e-06
3.61919647793e-07
3.30930750244e-07
8.42731327772e-07
7.68705150368e-07
2.41051192086e-07
6.59173581831e-07
1.31698961418e-07
4.82425038513e-07
5.78597146308e-08
3.27097511285e-07
3.18758028088e-08
1.54810409183e-07
4.49936236577e-07
2.15123565321e-07
5.28520392837e-07
3.26897872718e-07
7.69785156528e-07
3.70211235505e-06
8.88092139434e-07
1.623937815e-07
6.56782417346e-08
2.42803298169e-07
3.20265106204e-07
3.89262314398e-07
3.43344262245e-07
5.42656274052e-07
2.99065048979e-07
3.45647217985e-07
4.28206699493e-07
1.86263499257e-06
2.25670683709e-06
8.60849923068e-06
6.66568061515e-07
8.09878804227e-06
3.06475423122e-06
3.10532711771e-07
8.84476528022e-07
1.15500009029e-06
5.55821475121e-08
2.85675880302e-08
3.72774980363e-07
6.52446241694e-07
4.54057761738e-08
1.29276435181e-08
1.02399957923e-06
2.24644007101e-06
3.40496200497e-06
1.96645141102e-06
8.41413282987e-07
1.26985568206e-06
4.74620814884e-07
8.31939523678e-07
2.23707172975e-08
1.2211630211e-06
9.14707237788e-07
1.09169189682e-06
4.20953093235e-07
2.03110245839e-06
7.92769788247e-07
1.6961769198e-06
1.07343514682e-06
1.78110958124e-06
1.50695451544e-08
6.01218886793e-07
7.25418548607e-07
1.81733950656e-06
2.24263778827e-07
1.95901744057e-06
1.04494726594e-06
2.24436257012e-06
1.48873374921e-06
8.94595325627e-09
8.75423893124e-09
7.31546135587e-08
8.8019068711e-09
2.21640271302e-07
4.5178928145e-07
4.17670728389e-07
9.21230349568e-09
1.02443151619e-07
1.62545011775e-07
1.21448999406e-07
1.41160359361e-08
1.01441631515e-06
1.99259723728e-06
1.43484641927e-06
9.55158859243e-09
1.30988337287e-07
3.4731772311e-08
3.51269940074e-07
4.2313768258e-07
2.24647231554e-08
1.75447169896e-07
3.93085060778e-06
5.14105210808e-06
3.1232531903e-06
2.94028365151e-07
2.20219223265e-06
4.02816256211e-06
3.97398809498e-06
6.90336896065e-07
2.64021998428e-06
2.93395011932e-06
5.20649428768e-06
3.95767055503e-06
1.40101307391e-06
2.57805693167e-06
7.74019262001e-09
4.05835792768e-09
1.3189894653e-06
1.26676615651e-06
1.0390827184e-08
1.13802424891e-06
5.95276126429e-09
1.38257597899e-08
3.23513634839e-08
8.29257852579e-08
1.12469214994e-07
6.25670418516e-08

