# vtk DataFile Version 3.0
File Name: Molecule/methanol/methanol_2.0-test-4.vtk
ASCII
DATASET UNSTRUCTURED_GRID
FIELD FieldData 1
TIME 1 1 double
0.0
POINTS 108 double
1.611 0.0 -0.359
1.445 -0.731 -0.342
1.403 0.0 -0.933
1.252 -0.666 -0.918
0.98 -1.317 -0.296
0.828 -1.2 -0.876
0.308 -1.642 -0.229
0.216 -1.496 -0.815
-0.438 -1.642 -0.155
-0.464 -1.496 -0.747
-1.11 -1.317 -0.088
-1.076 -1.2 -0.686
-1.576 -0.731 -0.042
-1.5 -0.666 -0.644
-1.742 0.0 -0.025
-1.651 0.0 -0.629
-1.576 0.731 -0.042
-1.5 0.666 -0.644
-1.11 1.317 -0.088
-1.076 1.2 -0.686
-0.438 1.642 -0.155
-0.464 1.496 -0.747
0.308 1.642 -0.229
0.216 1.496 -0.815
0.98 1.317 -0.296
0.828 1.2 -0.876
1.445 0.731 -0.342
1.252 0.666 -0.918
1.907 0.0 0.656
1.763 0.722 0.656
1.763 0.361 1.281
1.763 -0.361 1.281
1.763 -0.722 0.656
1.763 -0.361 0.03
1.763 0.361 0.03
1.354 1.123 1.377
1.354 0.554 1.87
1.354 -0.19 1.977
1.354 -0.874 1.664
1.354 -1.281 1.032
1.354 -1.281 0.28
1.354 1.335 0.656
0.741 1.571 1.412
0.741 1.087 2.019
0.741 0.388 2.356
0.741 -0.388 2.356
0.741 -1.087 2.019
0.741 -1.571 1.412
0.741 -1.744 0.656
0.741 1.744 0.656
0.019 1.744 1.378
0.019 1.335 1.99
0.019 0.722 2.399
0.019 -0.0 2.543
0.019 -0.722 2.399
0.019 -1.335 1.99
0.019 -1.744 1.378
0.019 -1.888 0.656
0.019 1.888 0.656
-0.703 1.744 0.656
-0.703 1.571 1.412
-0.703 1.087 2.019
-0.703 0.388 2.356
-0.703 -0.388 2.356
-0.703 -1.087 2.019
-0.703 -1.571 1.412
-0.703 -1.744 0.656
-1.316 1.335 0.656
-1.316 1.123 1.377
-1.316 0.554 1.87
-1.316 -0.19 1.977
-1.316 -0.874 1.664
-1.316 -1.281 1.032
-1.725 0.722 0.656
-1.725 0.361 1.281
-1.725 -0.361 1.281
-1.725 -0.722 0.656
-1.868 0.0 0.656
1.21 0.384 -1.402
0.648 0.552 -1.946
0.648 1.118 -1.456
0.648 -0.871 -1.742
-0.12 -1.149 -1.755
-0.12 -0.544 -2.172
0.648 -0.189 -2.053
-0.12 0.185 -2.261
-0.12 0.872 -2.0
-0.12 1.359 -1.451
-0.887 -1.276 -1.112
-0.887 -0.871 -1.742
-0.887 -0.189 -2.053
-0.887 0.552 -1.946
-0.887 1.118 -1.456
-1.449 -0.384 -1.402
-1.449 0.384 -1.402
1.21 -0.384 -1.402
0.929 -0.2865 -1.7275
0.929 0.0975 -1.7275
1.0695 -0.33525 -1.56475
1.21 0.0 -1.402
1.0695 -0.14325 -1.56475
1.21 -0.192 -1.402
1.3065 0.192 -1.1675
1.21 0.192 -1.402
1.3065 0.0 -1.1675
1.25825 0.192 -1.28475
1.25825 0.096 -1.28475
1.3065 0.096 -1.1675

CELLS 212 848
3 0 1 2
3 2 1 3
3 1 4 3
3 3 4 5
3 4 6 5
3 5 6 7
3 6 8 7
3 7 8 9
3 8 10 9
3 9 10 11
3 10 12 11
3 11 12 13
3 12 14 13
3 13 14 15
3 14 16 15
3 15 16 17
3 16 18 17
3 17 18 19
3 18 20 19
3 19 20 21
3 20 22 21
3 21 22 23
3 22 24 23
3 23 24 25
3 24 26 25
3 25 26 27
3 26 0 27
3 27 0 2
3 28 29 30
3 28 30 31
3 28 31 32
3 28 32 33
3 28 33 34
3 28 34 29
3 30 29 35
3 30 35 36
3 30 36 37
3 31 30 37
3 31 37 38
3 31 38 39
3 32 31 39
3 32 39 40
3 33 32 40
3 29 41 35
3 35 41 42
3 35 42 43
3 36 35 43
3 36 43 44
3 37 36 44
3 37 44 45
3 38 37 45
3 38 45 46
3 38 46 47
3 39 38 47
3 39 47 48
3 40 39 48
3 41 49 42
3 42 49 50
3 42 50 51
3 43 42 51
3 43 51 52
3 44 43 52
3 44 52 53
3 45 44 53
3 45 53 54
3 46 45 54
3 46 54 55
3 47 46 55
3 47 55 56
3 48 47 56
3 48 56 57
3 49 58 50
3 50 58 59
3 50 59 60
3 51 50 60
3 51 60 61
3 52 51 61
3 52 61 62
3 53 52 62
3 53 62 63
3 54 53 63
3 54 63 64
3 55 54 64
3 55 64 65
3 56 55 65
3 56 65 66
3 57 56 66
3 60 59 67
3 60 67 68
3 61 60 68
3 61 68 69
3 62 61 69
3 62 69 70
3 63 62 70
3 63 70 71
3 64 63 71
3 65 64 71
3 65 71 72
3 66 65 72
3 68 67 73
3 68 73 74
3 69 68 74
3 70 69 74
3 70 74 75
3 71 70 75
3 72 71 75
3 72 75 76
3 74 73 77
3 75 74 77
3 76 75 77
3 76 77 14
3 76 14 12
3 76 12 10
3 76 10 72
3 72 10 66
3 66 10 8
3 66 8 57
3 57 8 6
3 57 6 48
3 48 6 4
3 48 4 40
3 40 4 1
3 40 1 33
3 33 1 0
3 33 0 34
3 34 0 26
3 34 26 29
3 29 26 41
3 41 26 24
3 41 24 49
3 49 24 22
3 49 22 58
3 58 22 20
3 58 20 59
3 59 20 18
3 59 18 67
3 67 18 16
3 67 16 73
3 73 16 14
3 73 14 77
3 78 79 80
3 81 82 83
3 84 81 83
3 84 83 85
3 79 84 85
3 79 85 86
3 80 79 86
3 80 86 87
3 82 88 89
3 83 82 89
3 83 89 90
3 85 83 90
3 85 90 91
3 86 85 91
3 86 91 92
3 87 86 92
3 89 88 93
3 90 89 93
3 90 93 94
3 91 90 94
3 92 91 94
3 92 94 17
3 92 17 19
3 92 19 21
3 92 21 87
3 87 21 23
3 87 23 80
3 80 23 25
3 80 25 27
3 80 27 78
3 95 2 3
3 95 3 81
3 81 3 5
3 81 5 7
3 81 7 82
3 82 7 9
3 82 9 88
3 88 9 11
3 88 11 13
3 88 13 93
3 93 13 15
3 93 15 94
3 94 15 17
3 84 96 81
3 97 96 84
3 78 97 79
3 97 84 79
3 95 98 81
3 98 96 81
3 99 100 97
3 100 96 97
3 99 101 100
3 101 98 100
3 101 95 98
3 100 98 96
3 95 101 2
3 2 102 27
3 78 102 27
3 78 103 97
3 103 99 97
3 99 104 101
3 101 104 2
3 103 105 78
3 78 105 102
3 103 106 105
3 106 107 105
3 106 104 107
3 105 107 102
3 104 106 99
3 103 106 99
3 102 107 2
3 107 104 2

CELL_TYPES 212
5
5
5
5
5
5
5
5
5
5
5
5
5
5
5
5
5
5
5
5
5
5
5
5
5
5
5
5
5
5
5
5
5
5
5
5
5
5
5
5
5
5
5
5
5
5
5
5
5
5
5
5
5
5
5
5
5
5
5
5
5
5
5
5
5
5
5
5
5
5
5
5
5
5
5
5
5
5
5
5
5
5
5
5
5
5
5
5
5
5
5
5
5
5
5
5
5
5
5
5
5
5
5
5
5
5
5
5
5
5
5
5
5
5
5
5
5
5
5
5
5
5
5
5
5
5
5
5
5
5
5
5
5
5
5
5
5
5
5
5
5
5
5
5
5
5
5
5
5
5
5
5
5
5
5
5
5
5
5
5
5
5
5
5
5
5
5
5
5
5
5
5
5
5
5
5
5
5
5
5
5
5
5
5
5
5
5
5
5
5
5
5
5
5
5
5
5
5
5
5
5
5
5
5
5
5
5
5
5
5
5
5

CELL_DATA 212
SCALARS cell_data_0 double
LOOKUP_TABLE default
3.01493349577e-07
4.35205381858e-07
4.70732926954e-07
4.65923748404e-08
1.76703029745e-08
2.45071380894e-08
1.78946722405e-08
2.39259045288e-08
1.35463972579e-08
1.8024018523e-08
1.12392926626e-08
1.51067107767e-08
1.06355959227e-08
1.27305487773e-08
7.77514349744e-09
1.21058318477e-08
9.78072352038e-09
1.64185653988e-08
1.26413815372e-08
2.1016773159e-08
1.73430789493e-08
2.40251039673e-08
1.98762307037e-08
2.62306605639e-08
1.57849460411e-08
4.59737596304e-08
3.76080426802e-08
1.41566701533e-08
5.72713237897e-09
5.13776835842e-09
4.91966065945e-09
6.7840989226e-09
6.69606521464e-09
5.39488781773e-09
7.13792385184e-09
5.42267092484e-09
5.62049099317e-09
5.99779276271e-09
5.3454479495e-09
6.4559269659e-09
6.27997377944e-09
6.07695258451e-09
9.28535017918e-09
6.00140456438e-09
4.88523538733e-09
4.31004715331e-09
4.87878996642e-09
4.32383505672e-09
4.81972186611e-09
4.16349623725e-09
5.17198177225e-09
5.23158512476e-09
5.40054660346e-09
6.28625197912e-09
5.76328110833e-09
6.47007613142e-09
4.89513095303e-09
4.0783069257e-09
3.36311070432e-09
3.99767343934e-09
3.20583264545e-09
3.52257429124e-09
3.30238715901e-09
3.99076217241e-09
3.28089954537e-09
3.88307243742e-09
3.64224468314e-09
4.71972442731e-09
3.9331148461e-09
4.58176527323e-09
3.98415713152e-09
3.85750966305e-09
3.10259750553e-09
2.95040383754e-09
2.92833607251e-09
3.05808872078e-09
2.80787157227e-09
2.90064519325e-09
3.09949298505e-09
3.30835059512e-09
2.88340403313e-09
2.61352780563e-09
2.8971168639e-09
3.21818138991e-09
3.19963871451e-09
3.21278025463e-09
3.58716288937e-09
2.43810397265e-09
2.2201459495e-09
2.61349676351e-09
2.48691485998e-09
2.52389735217e-09
2.3425661576e-09
2.47994543268e-09
2.36080305868e-09
2.59319259763e-09
2.67171090582e-09
2.61401314841e-09
2.82968247227e-09
1.75436997438e-09
1.8992304506e-09
2.00391207171e-09
2.02722345654e-09
1.9953871152e-09
1.97557142283e-09
2.16805409424e-09
2.21705781639e-09
1.49636271778e-09
1.16743146919e-09
1.49981811635e-09
1.46993191252e-10
2.22122412708e-09
2.50436468019e-09
3.36674978211e-10
2.5469310625e-10
3.41546477701e-09
8.28131827867e-10
3.76199486029e-09
1.13744696816e-09
7.90100378318e-09
9.1025993497e-10
3.27371382448e-07
3.86550766655e-07
2.49549515413e-07
1.1656438925e-08
1.94761749617e-08
1.42856760955e-09
4.76553513506e-09
3.52403713849e-09
3.30136865649e-09
5.20997354354e-09
7.07848252664e-10
5.69438066916e-09
4.17771256235e-10
3.42255316824e-09
7.05894826085e-11
2.30022482259e-09
1.25225701085e-10
2.72175078628e-09
4.57325463032e-10
3.02351733567e-08
6.69243982671e-09
2.50807606562e-08
4.11678506986e-08
4.62608017663e-08
3.49488652463e-08
3.924177575e-08
3.61022659663e-08
3.03426244515e-08
2.88690806924e-08
4.34223833762e-08
4.01902979705e-08
3.68014684658e-08
3.24394659069e-08
3.26269560522e-08
3.15983428726e-08
3.39177469327e-08
3.16021481728e-08
2.67846028728e-07
2.36518087363e-07
2.28472713308e-07
2.88148005466e-07
3.0094624178e-08
3.38422066468e-08
3.9599070366e-08
3.34053313824e-08
3.8821371704e-08
3.33696248783e-08
2.11398922354e-08
5.22226765621e-08
2.37645324322e-07
3.7082222318e-07
9.25123327697e-08
4.5945742531e-08
2.21255878985e-08
4.45337293534e-08
3.26577351618e-08
1.67740065478e-08
1.60319342763e-08
4.15190711549e-08
2.27900995556e-08
2.46515322939e-07
2.03441555295e-07
3.82073356736e-09
8.20339794883e-07
9.56631424836e-07
9.03346730676e-07
2.44300764292e-07
1.23198874516e-07
3.33143347203e-08
1.32175154107e-07
4.9016367501e-07
5.15929883975e-07
2.84803399638e-07
2.82179158586e-07
4.15732519732e-07
4.7649720276e-07
4.49352066604e-07
2.05721191123e-07
1.57014086235e-07
6.89269878304e-08
4.77516607441e-09
2.38340102249e-07
4.03379631794e-07
3.00334913625e-07
5.45163164702e-07
3.93437047699e-07
4.44954131994e-07
3.61169667508e-07
1.58967855288e-07
4.01869050844e-07
3.9992753322e-07

