# vtk DataFile Version 3.0
File Name: Molecule/sphere_cent/sphere_cent_0-s30.vtk
ASCII
DATASET UNSTRUCTURED_GRID
FIELD FieldData 1
TIME 1 1 double
0.0
POINTS 3083 double
0.43023425341 0.60929709673 0.66600054502
0.514721632 0.57232427597 0.63838618994
0.46449527144 0.66385996342 0.58604222536
0.3501496017 0.68871170282 0.63484758139
-0.58228570223 -0.15806433558 0.79735696316
-0.51229244471 -0.20160222054 0.8347607851
-0.53482443094 -0.095669679344 0.83934032917
-0.69568055868 0.3842754662 0.60689097643
-0.70602828264 0.30139157176 0.64084017277
-0.65082061291 0.35297590494 0.67213571072
-0.6491844058 -0.53549277782 0.54012680054
-0.64108181 -0.4502735436 0.62150466442
-0.69386929274 -0.47304210067 0.54290419817
0.96548980474 0.2119563818 0.15128476918
0.9837025404 0.14750796556 0.10216702521
0.97074049711 0.23196472228 0.061519898474
0.32688480616 -0.90553098917 -0.27031236887
0.23942381144 -0.92301535606 -0.30107522011
0.33497169614 -0.87187868357 -0.35722604394
0.35870721936 -0.82559847832 -0.43548586965
0.27284029126 -0.85039591789 -0.44988489151
0.32731765509 -0.7998945713 -0.50295448303
-0.14129033685 -0.88797414303 0.43762049079
-0.22094020247 -0.90432649851 0.36520242691
-0.12973712385 -0.93218004704 0.33782103658
0.97055053711 -0.23765023053 -0.039796780795
0.98908501863 -0.1461905539 -0.012821869925
0.97386962175 -0.22027420998 0.055232420564
0.98545098305 -0.14094521105 -0.094462014735
0.98922914267 -0.055214695632 -0.13542984426
0.99598807096 -0.072384260595 -0.051749866456
0.97691917419 0.057091306895 -0.20582549274
0.95521533489 0.057378508151 -0.29016122222
0.96503406763 0.1287997663 -0.2274004221
-0.33025285602 -0.47544303536 0.8154078126
-0.25122767687 -0.42908221483 0.86761558056
-0.34511241317 -0.39521944523 0.85128837824
0.71633702517 0.66966021061 0.19435086846
0.71404063702 0.64331364632 0.27620106936
0.76704734564 0.60073506832 0.22519564629
0.34136348963 -0.29225671291 -0.8933480382
0.38875177503 -0.36590841413 -0.84551298618
0.30477592349 -0.39117205143 -0.86831045151
0.44413736463 -0.27344092727 -0.85309070349
-0.81872606277 -0.38705971837 -0.42407557368
-0.85307133198 -0.39443147182 -0.34143346548
-0.86717122793 -0.30601096153 -0.39237171412
-0.931206882 -0.31027793884 -0.19122685492
-0.90968233347 -0.30661842227 -0.27966815233
-0.88764858246 -0.37961900234 -0.26032793522
-0.94436502457 -0.22996085882 -0.23400196433
-0.88826459646 -0.31564447284 -0.33320060372
0.50594645739 -0.85873627663 -0.080036461353
0.54804611206 -0.83560729027 0.030028250068
0.47670769691 -0.8788626194 0.015665613115
0.82784378529 0.14626131952 -0.54137390852
0.83775150776 0.22710068524 -0.49652203918
0.87664180994 0.13994807005 -0.46032711864
-0.14498133957 -0.41339197755 0.89893573523
-0.20913179219 -0.34984490275 0.91315287352
-0.10407856852 -0.32617494464 0.93940287828
-0.092481091619 -0.50244235992 0.85963010788
-0.057606142014 -0.42921769619 0.9012940526
-0.0027446139138 -0.49050685763 0.87138581276
0.83400219679 -0.40636384487 -0.37322184443
0.86865156889 -0.3309058547 -0.36864608526
0.87319761515 -0.38332113624 -0.30066215992
0.83049291372 -0.32969677448 -0.44891580939
0.051406625658 -0.98409461975 0.16976365447
0.05584616214 -0.96508973837 0.25589823723
-0.018675586209 -0.97240620852 0.23255863786
0.029316304252 -0.94701212645 0.31983235478
0.1087776348 -0.93657022715 0.33315101266
-0.64636236429 -0.10481346399 -0.75544768572
-0.61700320244 -0.16144745052 -0.77025389671
-0.67792135477 -0.1795373708 -0.71287488937
0.79598009586 -0.29826012254 -0.52673316002
0.74524611235 -0.2911272645 -0.59966790676
0.79389953613 -0.22820228338 -0.56357342005
0.72261857986 0.3592799902 -0.59052830935
0.72235947847 0.40981402993 -0.55699831247
0.75874137878 0.34982395172 -0.54918885231
0.56676459312 -0.44206896424 -0.69517236948
0.54114997387 -0.53308409452 -0.65033972263
0.49725264311 -0.49009159207 -0.71588671207
-0.31120657921 -0.81595134735 0.48712134361
-0.22317205369 -0.85218065977 0.47324818373
-0.25178918242 -0.80080872774 0.54340988398
-0.16357958317 -0.82546252012 0.54021453857
0.58023756742 -0.79134386778 0.19266077876
0.6392621398 -0.75786572695 0.12724889815
0.65148979425 -0.72694182396 0.21700750291
0.65751743317 0.70936125517 0.25384640694
-0.47615841031 -0.38737356663 -0.78937184811
-0.52356958389 -0.34221664071 -0.78008008003
-0.45320799947 -0.33995056152 -0.82405090332
-0.78806394339 -0.46917289495 -0.39812242985
-0.76432722807 -0.4428242147 -0.46847033501
-0.78506791592 -0.3722153604 -0.49508783221
-0.83468621969 -0.2992413342 -0.46233800054
-0.8712348938 -0.22636435926 -0.43528729677
0.56026744843 -0.81980633736 0.11829446256
0.49509778619 -0.86386674643 0.092621825635
0.51416993141 -0.8416031599 0.16522982717
0.7627004981 0.25645381212 -0.59364497662
0.7975936532 0.2786064744 -0.53473848104
0.79798197746 0.20732329786 -0.5657453537
0.79434144497 -0.41217711568 -0.44623354077
0.86724174023 -0.26407563686 -0.42197880149
0.83643203974 -0.24934180081 -0.48803535104
0.75521349907 -0.34033378959 -0.56018590927
0.78200376034 -0.36727711558 -0.50356757641
0.50221729279 0.397593081 -0.7679002285
0.46332770586 0.47988677025 -0.74498069286
0.53819143772 0.44778266549 -0.7140185833
0.53747105598 -0.14130577445 0.83135980368
0.5835943222 -0.20823934674 0.78478389978
0.61816698313 -0.11836499721 0.77707916498
0.65632200241 -0.19343629479 0.72925758362
-0.5970607996 -0.71613335609 -0.36124044657
-0.60383754969 -0.7455176115 -0.28188923001
-0.6531034112 -0.68689584732 -0.31820106506
0.59116494656 -0.067291207612 -0.80347287655
0.68393450975 -0.019216381013 -0.72928446531
0.65817034245 -0.1134596169 -0.74421083927
0.75430250168 -0.078531637788 -0.65179443359
0.74553233385 0.037250164896 -0.66541707516
0.68280315399 0.0930275172 -0.72467571497
-0.4454292953 -0.62721121311 -0.63889092207
-0.45581623912 -0.69542777538 -0.5554562211
-0.52919793129 -0.63403874636 -0.56388491392
0.039533670992 -0.021415829659 0.99882870913
0.15149338543 0.0021763341501 0.98829323053
0.091809868813 0.067080892622 0.99351012707
0.19002594054 0.095996312797 0.97707521915
0.25478583574 0.029186874628 0.96655184031
0.95201724768 -0.065970435739 0.29881939292
0.9391631484 -0.15690129995 0.3051096797
0.97037726641 -0.10186677426 0.21900676191
0.67434793711 0.73828393221 -0.009492485784
0.66613388062 0.74202507734 0.071880340576
0.72122496367 0.69162732363 0.034306794405
0.83900159597 0.53357201815 -0.10653190315
0.7847058177 0.61025416851 -0.10872863978
0.82033461332 0.57111316919 -0.029172562063
0.47667896748 0.84663051367 0.23632410169
0.39957484603 0.89823436737 0.18294635415
0.39331910014 0.88204461336 0.25929364562
0.4912352562 0.85869818926 0.14595933259
0.31114473939 0.92700427771 0.20930159092
0.32637912035 0.93841832876 0.11321380734
0.41152584553 0.90533709526 0.10490561277
0.72045397758 0.30487000942 -0.62279057503
0.75063037872 0.3238710463 -0.57547712326
0.71836316586 0.24496866763 -0.65105015039
0.73681807518 0.14260596037 -0.66081398726
0.68567669392 0.20395818353 -0.6987093091
0.64468234777 0.36709058285 -0.6705313921
0.6188659668 0.319747895 -0.71745991707
0.57703644037 0.37896564603 -0.72347974777
0.55813771486 0.30905687809 -0.76997691393
0.59122955799 -0.33309295774 0.73443883657
0.53242146969 -0.33443465829 0.77752256393
0.54945850372 -0.40583506227 0.73025143147
0.53595995903 0.79561883211 0.28232115507
0.55394423008 0.80731034279 0.20333778858
0.62010335922 0.76092356443 0.19076211751
0.5947625041 0.75916939974 0.26443007588
0.57685649395 0.8070923686 0.12476486713
0.53126430511 0.84494692087 0.061372727156
0.45752626657 -0.57745462656 -0.67613536119
0.50116032362 -0.61606246233 -0.60768002272
0.58138006926 -0.57823544741 -0.57236516476
0.63566571474 -0.50549036264 -0.5831746459
-0.52583163977 -0.551877141 -0.64725005627
-0.60156571865 -0.49857777357 -0.62411898375
-0.5488909483 -0.46707493067 -0.69316989183
0.81621098518 0.49390390515 -0.29934847355
0.76542025805 0.53351527452 -0.35954618454
0.76234906912 0.58900421858 -0.26800513268
0.70095205307 0.63841915131 -0.31789439917
0.70743966103 0.66162103415 -0.24817691743
0.59809541702 0.74080085754 -0.30574941635
0.57951533794 0.71293771267 -0.39479628205
0.54206883907 0.76698988676 -0.34330415726
-0.79335302114 0.5087506175 -0.33427742124
-0.84270340204 0.45111063123 -0.29381731153
-0.80092966557 0.53944683075 -0.25972929597
-0.81877046824 0.42792126536 -0.38266578317
0.76898139715 -0.39329999685 0.50355446339
0.69549870491 -0.44547280669 0.5635946393
0.73599207401 -0.48053023219 0.47683864832
0.14202296734 0.69478774071 -0.7049638629
0.10540527105 0.75922060013 -0.64223450422
0.21075637639 0.75026601553 -0.62661445141
-0.063057124615 0.021127743647 -0.99777591228
0.018947985023 0.11433712393 -0.9932488203
0.053154107183 0.037170227617 -0.99784892797
0.10304576904 0.1251924783 -0.98676586151
0.45062494278 0.075969219208 -0.88946324587
0.40393805504 0.18692854047 -0.89547848701
0.4847176075 0.16306905448 -0.85932976007
0.46440905333 0.2550906539 -0.84802889824
-0.8185262084 -0.4735968709 -0.32480400801
-0.67682492733 -0.2614479959 0.68813300133
-0.73428201675 -0.25195351243 0.63025915623
-0.68734872341 -0.33737272024 0.64318358898
-0.75487178564 -0.31520569324 0.57514214516
-0.61327451468 -0.30774825811 0.72741085291
-0.71702325344 -0.39668256044 0.57317298651
-0.77925413847 -0.36591845751 0.50881046057
0.5747256875 -0.77050441504 0.27569243312
0.49589332938 -0.83332771063 0.24415896833
0.81746637821 0.4345292449 -0.37699475884
0.45558017492 -0.87530988455 0.16185209155
-0.10340868682 -0.56926751137 0.8155553937
-0.012917838059 -0.55961322784 0.8286370039
0.37129512429 -0.061671160161 0.92641818523
0.43934547901 -0.057921022177 0.89643466473
0.4179109931 0.0074511650018 0.90845322609
0.74613898993 0.63971960545 -0.18441939354
0.71446686983 0.68794095516 -0.12706071138
0.64996868372 0.74438613653 -0.15295393765
0.68368798494 0.70255273581 -0.19738288224
0.79773139954 0.57524228096 -0.18079552054
0.50551772118 -0.47231283784 0.72204566002
[...]
CELL_DATA 6162
SCALARS cell_data_0 double
LOOKUP_TABLE default
9.59884389593e-10
4.7748614835e-09
5.13896119626e-11
2.93955581117e-10
2.56050547227e-09
9.94013314462e-10
1.49301763724e-09
1.48739230942e-10
4.74963465892e-10
1.23601488679e-09
1.03054301515e-09
9.5060114314e-10
1.84925454938e-09
1.8402900143e-09
5.2190313505e-10
8.48538966586e-10
1.92001991577e-10
1.268579676e-09
4.43386171665e-11
2.12588201126e-10
2.05504133582e-09
3.04801439906e-09
8.9745384579e-11
7.65695024839e-11
2.31715776076e-09
7.71179879358e-10
6.55482536438e-10
2.16361695539e-10
5.42681515306e-10
8.61250098568e-10
8.06578203425e-10
1.53254911792e-09
6.25580095298e-10
7.48897618469e-11
1.65539642822e-09
9.12898601793e-10
4.35463185031e-10
1.29499093258e-09
2.62544343269e-11
7.33103750177e-10
1.22545416485e-09
1.72619337505e-09
7.19173384687e-10
1.6434444887e-10
5.12702851233e-10
1.76824626707e-10
8.60828615447e-10
5.5855628744e-10
2.74467688632e-09
1.65030391642e-09
3.07249915596e-10
6.7237762456e-10
2.27006021112e-09
1.52450322704e-09
9.39291658919e-11
7.27688444531e-10
1.8250293556e-10
5.73658999783e-10
5.14915199856e-10
7.57075066782e-10
8.87473680867e-10
6.77804903719e-10
3.21017436329e-10
1.66758042277e-09
8.56748337922e-10
1.81644420786e-09
9.8518288013e-10
8.37986558363e-10
8.71602775988e-10
1.77592979856e-09
8.67049438381e-10
4.47602334757e-10
4.42790226113e-10
2.12501956727e-09
1.39327993776e-09
6.37657655306e-10
7.01956146173e-10
8.69518737111e-11
9.39943391391e-11
1.08124567488e-10
3.71093287708e-10
3.53698930804e-10
1.19920679308e-09
8.00695150902e-10
5.57470631265e-10
9.95724461133e-10
6.1676744988e-10
8.40162193132e-10
1.17652780237e-09
1.83254431518e-10
1.80515504521e-09
8.01322877926e-10
6.25457851277e-11
1.09854751716e-09
1.00579946892e-09
2.14731662239e-09
1.12681863386e-09
3.3555184354e-11
1.72187216794e-09
7.30477714417e-10
9.12059817489e-10
6.11024519889e-10
2.7955207629e-10
1.91852965889e-09
4.27453045026e-09
2.66614593909e-09
9.30895399185e-10
4.34465075622e-10
8.00393172034e-10
3.91184674157e-09
1.07640259965e-09
2.5283567603e-10
2.00049011943e-09
2.44421233841e-09
2.68196671721e-09
1.94953575153e-09
1.47613507165e-09
9.3901999705e-10
5.18961332315e-10
2.98034718217e-11
7.86308217932e-10
8.65342702479e-10
1.25908736482e-09
4.9339582219e-10
1.56712749793e-09
7.76242568413e-10
8.88454233055e-10
2.84766782171e-10
1.03879516487e-09
1.51860650919e-09
7.69616613754e-10
7.89064561926e-10
1.25130475901e-09
1.11336554838e-09
5.89581826604e-10
1.25769690119e-09
1.51010722855e-09
1.01056203473e-09
1.63583537507e-09
2.00042660384e-09
1.87690128345e-09
8.15182812146e-10
2.39625026557e-10
2.57140582396e-09
5.45848439099e-10
3.08138819095e-10
2.12214639625e-09
1.34126226877e-09
6.94213197666e-10
1.48818321931e-10
2.25175624601e-09
3.07448902659e-09
2.55043068865e-10
2.00013051097e-10
7.53729972212e-10
6.61699280503e-10
5.3724476581e-10
1.78271450741e-09
5.09322074486e-10
1.53206538158e-09
1.57567772458e-10
8.12474881307e-10
1.06206442442e-09
1.76480241367e-10
1.49837633729e-10
9.14231187675e-10
2.79964213865e-11
5.63078134005e-10
7.7103081582e-10
5.17800727632e-10
1.29614075036e-10
6.63218330327e-10
1.14176640635e-10
1.02367826922e-10
5.44384941286e-10
5.47930031916e-11
1.12036430382e-09
5.13633784759e-10
1.30955875934e-09
2.78219287475e-10
9.59642525517e-10
7.65415735078e-10
2.11148822929e-10
8.92219595351e-10
1.9037174076e-09
1.0504415827e-10
4.25323220871e-10
5.19764032108e-10
2.47796273575e-09
7.20352737994e-10
1.41382879663e-09
6.33810266324e-10
1.4734575309e-09
1.75663021956e-09
7.2433297005e-10
9.408666214e-10
4.71274258352e-10
2.46952658428e-10
1.90188284239e-09
4.97570297085e-10
9.200623262e-11
1.49284632101e-09
5.51162013279e-11
2.75856099803e-10
3.72597593317e-11
3.0580114186e-10
9.46672094227e-10
7.28154921098e-10
1.20839770214e-09
5.34322184055e-10
3.31829561896e-09
6.38648003018e-10
7.2547159624e-10
1.15279489956e-09
1.44581888079e-09
1.14520173158e-09
1.01280383015e-09
7.48636475342e-10
3.78596502131e-10
1.54573042539e-09
5.70876324575e-10
2.36199541279e-09
1.30407770517e-09
2.89811465259e-09
3.99750925822e-11
2.64021923899e-09
2.83168877288e-10
2.29637393868e-09
2.23909313573e-09
7.52862032116e-10
3.26066524059e-12
1.63848186637e-09
1.45785130625e-10
3.0466384215e-09
7.75474701725e-10
1.1098231782e-09
7.2587918892e-10
4.77273995003e-10
1.61597330989e-09
1.74871607967e-09
6.06299201217e-10
1.55249675317e-09
4.68676226208e-10
2.24936682737e-09
1.09332557203e-09
2.09233506585e-09
9.69843493255e-10
1.91627728624e-09
9.18648189069e-10
7.40893257279e-10
1.44938132592e-09
1.49343465114e-09
1.11874169081e-09
1.63824941721e-10
1.5447972009e-10
8.54852738817e-10
1.96621029489e-09
1.13436966414e-09
4.14521115754e-11
7.75780817531e-10
2.10578254175e-10
1.27164479815e-09
2.44768962264e-11
5.49278908178e-10
7.62548508024e-10
2.68758940986e-09
8.50624698665e-10
1.52170644032e-09
2.47071352097e-10
1.40454205775e-09
1.57096347026e-09
1.99341632843e-11
5.77693273589e-10
7.95396373735e-10
2.00159210651e-09
1.59147765988e-09
1.92056403349e-10
7.57735255777e-10
1.28765691196e-09
1.25423710265e-09
7.78724173717e-10
1.16536587401e-09
1.0354549655e-09
5.87223826222e-10
9.9288281068e-10
5.09134933737e-10
5.272717944e-10
7.80942475147e-10
4.49608994062e-10
2.30265919659e-09
2.21761144338e-09
8.73642862973e-10
1.48910547263e-09
6.77331518131e-10
8.09659192512e-10
1.52562727258e-09
1.51964271562e-10
3.41416795615e-10
1.48273441435e-09
3.16021824677e-09
5.02055040572e-10
1.98710088366e-09
2.21155992378e-09
5.72431935833e-10
1.0236439843e-09
7.04997260525e-10
2.64086818477e-10
5.57521573839e-10
4.52832917742e-10
7.89929081803e-10
2.61845023421e-09
4.68380162509e-10
1.41958342807e-09
3.53709545588e-09
1.97739163035e-09
9.15791710003e-10
2.36784793131e-09
9.00875679138e-10
3.00070295306e-09
1.34816391989e-09
8.7637882896e-10
1.68734352152e-09
1.45138131175e-10
1.19042108699e-10
8.5821511992e-10
3.86886249025e-11
6.96750419303e-10
1.87259373416e-09
2.45641710132e-11
7.18538736452e-10
3.98848284258e-10
6.79931933667e-10
7.16334158977e-10
1.95799626551e-10
1.06126465016e-09
6.68387210128e-10
9.78761027414e-11
6.81403690344e-10
4.95096927939e-10
2.61702232241e-09
1.44051186246e-09
5.27008086568e-10
1.22772527986e-10
9.5424184873e-10
1.64285824945e-09
3.11424318017e-10
1.1562229889e-09
1.64029051796e-09
8.13545869168e-10
1.03946451411e-09
8.78635185442e-12
3.44033267074e-10
3.20690140174e-10
8.28686448125e-10
1.09054295082e-09
9.09067653804e-10
1.08039623687e-09
3.30172070363e-10
6.15442200236e-10
8.84978988017e-10
2.22580016013e-09
1.94153179018e-10
2.34345697001e-10
8.09292182376e-10
1.19426250694e-09
1.20990591751e-09
3.08946183621e-11
4.98084772337e-10
1.28038345573e-09
8.29481018778e-10
6.89062149433e-10
1.39011737963e-10
1.29788981324e-09
1.13173097098e-09
1.54416758732e-09
2.20409195602e-10
4.54597850446e-10
5.46862216793e-10
7.78849580028e-10
2.93788527728e-10
1.46305800549e-09
2.59281103215e-10
8.11468641855e-10
6.15795504704e-10
6.17935124939e-11
2.51141473726e-10
3.14151225063e-10
6.79083775832e-10
1.14404213058e-09
1.90883401332e-09
3.47809956893e-11
3.99987183559e-10
4.75210890461e-10
1.53405456012e-09
1.04233827289e-09
2.8529051344e-10
1.2419962994e-09
1.77806835187e-10
1.86783561754e-09
1.29011823283e-09
3.1396891743e-10
2.56865865002e-09
1.03973809322e-09
6.14182503446e-11
3.14919413832e-10
8.05246284157e-10
4.38794198136e-10
1.36172981253e-09
2.46336407052e-10
1.36966722958e-09
9.2609290996e-10
2.41290486575e-09
1.09381950628e-09
2.97832910953e-10
1.18070533611e-09
5.04239526674e-10
3.35785944105e-10
8.44033294862e-10
1.09385876471e-09
2.1866737578e-10
2.511385906e-10
1.98193094636e-09
2.89955856219e-10
4.06927194264e-11
1.38549471405e-10
1.44273234983e-09
1.47486323639e-09
7.5131355013e-10
1.46419115184e-10
1.21281147495e-09
4.17473800696e-10
1.05919567478e-09
1.84251194973e-10
6.1132307099e-10
2.05132961533e-10
5.22510415174e-10
1.5118023673e-09
4.19737892883e-10
9.32032164663e-11
2.39373142263e-10
2.36742270761e-11
5.61737925512e-10
2.8176736518e-10
1.18162504708e-09
9.14254727104e-10
1.33105084724e-09
1.70134480988e-11
4.79596354543e-12
9.72612492464e-10
1.13393732101e-09
3.01098189696e-10
5.90899327541e-10
6.92660947482e-10
2.69719793338e-10
2.1029183759e-10
2.13277991989e-10
1.10689003873e-09
5.58990381749e-10
3.02142412244e-10
2.66813753087e-10
4.70316597445e-10
7.20104923976e-10
9.03046307776e-11
1.95478241062e-09
1.33631975214e-09
9.28794691754e-10
6.32917753538e-10
1.98912680632e-09
5.20241945005e-10
1.22654132061e-09
1.6319573826e-09
2.138648483e-09
8.96641513303e-10
8.36790945143e-10
3.44511163471e-09
8.29076275576e-10
8.66920807856e-11
9.06421797014e-11
5.67504941663e-10
1.85737677274e-09
2.63821582875e-09
7.89658341984e-10
1.055002386e-09
7.46969912792e-10
1.65891710611e-09
5.7485343772e-10
1.69134594683e-09
7.79935493209e-10
4.43195161107e-11
1.47903519145e-09
1.34339971686e-09
1.50976913968e-09
1.76435551496e-09
2.64670778526e-10
5.71024296604e-10
1.02506670946e-10
2.53936352865e-10
1.58923988677e-09
4.4417942332e-10
2.27938251561e-10
2.34798577084e-10
2.89385049453e-09
8.52433944668e-10
1.8433860976e-09
1.30361491348e-10
7.4048393904e-10
2.69093429837e-10
8.52099262348e-10
2.12351428437e-10
6.23363725777e-10
1.83370090018e-10
5.62879210268e-10
2.93687560546e-10
2.16012276353e-09
2.07855597184e-09
8.87793232879e-10
1.02929355806e-09
2.43061419403e-09
1.50816000538e-09
5.75183038651e-10
6.00519840841e-10
1.50377609313e-09
3.24415360686e-10
4.5146126108e-10
1.50062846451e-09
2.96848696801e-09
2.10148425415e-09
1.76898066559e-09
5.43785671017e-10
4.60787682637e-10
1.31909697892e-09
1.53077803475e-09
1.03792099135e-09
2.03157322148e-10
8.07501879138e-10
8.17471806234e-10
1.23806297739e-09
2.29817284929e-09
1.99429983444e-09
6.60930199704e-10
1.28110242253e-10
1.93204052039e-09
7.82449298518e-10
4.5843537263e-10
1.20015140414e-09
3.28092767002e-11
4.00882506801e-10
5.62444921847e-10
1.10000935933e-09
1.09358286548e-09
3.2688441887e-10
1.61363852351e-09
3.22782574249e-10
3.61559102675e-10
6.77616510447e-10
6.41489938595e-11
1.91734055136e-11
5.22160564663e-11
7.86251649107e-10
7.55614357383e-10
1.14458156838e-09
1.05279674543e-09
1.5317070406e-09
1.57052032155e-09
2.68196200652e-09
8.88447828659e-10
1.79347793238e-10
1.01980556703e-09
1.37091917863e-10
2.1952312449e-10
4.20064021789e-10
9.53516396081e-11
4.22548448772e-10
5.11603889076e-10
6.67825923549e-11
1.13386778243e-09
1.6542384657e-10
7.96416167888e-10
1.07146131634e-09
1.29028591991e-09
1.81364503266e-09
1.03616699672e-09
3.5948771456e-11
3.16512181237e-10
3.67510833262e-10
4.86777788542e-10
2.37335691969e-09
1.47759583451e-09
1.08847708545e-09
8.03228267823e-10
1.40238605344e-11
1.72897886036e-09
8.59212102853e-10
1.72468275648e-09
2.24369204322e-09
1.31014181523e-09
1.300416836e-09
6.39776749756e-10
5.44186880449e-10
9.94683305892e-10
2.76860184498e-10
3.55212178511e-10
1.84550545081e-09
1.0405269234e-09
7.93404173957e-10
1.8977131416e-10
1.54958198224e-09
1.0655809135e-09
7.58520786439e-11
3.74720687402e-10
7.29914888633e-10
7.82525599453e-10
4.94026666136e-10
1.1095284172e-09
1.23921449227e-10
3.19317008734e-10
8.97014325222e-10
2.40724311088e-09
8.16238436673e-10
1.24327784125e-09
4.74028857465e-10
1.26799677456e-09
1.28772364976e-09
4.67763442938e-10
3.11375493193e-11
5.54803721944e-11
4.64152794388e-10
2.48771244808e-10
2.02509286428e-09
2.50208208758e-10
1.22623475329e-09
2.25443348782e-09
1.48777249651e-09
2.56634924327e-10
7.31739103794e-11
6.97247815682e-10
2.21435956165e-10
1.68039690026e-09
8.01193261119e-10
1.00430384177e-09
1.33528254757e-10
4.4952729331e-10
1.51979177904e-09
2.32705974284e-10
6.94772453493e-10
3.85262887568e-10
1.05889248133e-11
2.78412750141e-10
2.36530433809e-09
2.37180609191e-10
1.4743139539e-09
1.13945399654e-09
8.91658210676e-10
5.25857128374e-10
7.89365540415e-10
8.75016501601e-11
9.69159292922e-10
9.3593047323e-11
7.0701395367e-10
5.46099304138e-10
2.87762704146e-09
2.03213512797e-10
6.27365831607e-11
8.37401167285e-10
4.90058447827e-10
1.29666982823e-09
8.81239327839e-10
1.50968624973e-09
9.36637743865e-10
1.58650902831e-09
1.11864623856e-09
1.8697738379e-09
1.48485017213e-09
1.33707034623e-09
3.89908758658e-10
1.23585989111e-10
2.65218506071e-09
1.36775113587e-09
4.54012558134e-10
1.71541618832e-09
6.90268655933e-10
2.06650640233e-10
1.57855611515e-09
2.77316335335e-10
4.31491925583e-10
3.97303777352e-10
1.12369871798e-09
2.14848183941e-10
3.46200071056e-10
3.795992583e-11
4.67105709608e-10
9.04507828105e-10
2.05423760824e-10
7.48053892693e-10
4.92585637151e-10
2.03254897957e-09
1.09769379387e-09
1.63487377312e-10
5.99178287044e-13
4.21566736352e-10
9.09511695552e-10
1.11711187474e-10
6.00356046716e-12
6.55930151084e-10
4.17897064037e-10
1.87067561625e-09
4.97650088398e-10
6.16776277006e-10
6.22622390364e-10
5.0024653839e-10
2.69391229235e-10
1.4963366184e-09
7.08124274299e-10
5.07197723674e-10
5.62598376297e-11
5.10304993672e-10
9.19593503077e-10
6.88468738181e-10
1.5825626921e-09
1.48586963873e-09
1.02752793809e-09
1.76333194745e-09
3.85965648613e-10
8.17198007024e-10
1.12232428421e-09
1.05696911136e-09
1.75223979074e-10
1.32957018764e-09
7.36835337965e-11
4.35109824469e-10
1.39909924096e-09
1.32606438627e-09
1.06615700899e-09
1.02307805577e-09
1.01969706513e-09
8.94264897149e-10
1.01665751222e-09
1.07814744722e-10
2.79666826394e-09
9.6713583212e-10
4.84573850365e-11
2.56665560421e-09
1.26894804252e-09
1.70530245371e-09
1.20845050216e-09
3.55713564576e-10
1.23104378921e-09
1.60171423804e-09
5.37098201911e-10
1.62842475912e-09
1.53867935462e-10
8.20742883123e-10
4.67475506901e-10
1.27982519836e-09
1.57954495933e-09
7.45573126398e-10
6.06850170943e-10
9.59396073646e-10
4.97990199931e-10
8.72484769371e-10
1.38033491068e-09
1.9374183717e-09
1.57890170004e-12
1.02642893935e-09
1.21653971385e-09
1.1388385983e-09
2.11261955563e-09
9.77448068688e-10
1.13603757406e-09
1.1126925192e-10
9.70312882569e-11
1.30511921623e-09
6.66575889744e-10
1.16583904036e-09
1.26029192481e-09
1.31045674771e-09
6.12398089412e-10
9.65763184934e-11
1.29769412337e-09
1.90926114735e-09
5.70054075358e-10
1.27009917617e-09
3.86630384337e-10
7.24752710081e-10
5.44416090545e-10
5.53035496277e-10
1.10291056414e-09
9.37416254076e-10
9.8968663033e-10
4.33190492209e-10
1.03965738825e-10
3.76090385479e-10
8.91788430137e-10
5.21290618504e-10
3.70068743903e-10
6.24057610731e-10
6.52884403621e-10
4.56412761446e-10
1.42966355096e-09
6.88978106674e-10
3.81915791606e-11
2.86893491471e-10
4.34794809639e-10
3.64589932909e-11
9.05166866979e-10
3.73920481633e-10
4.03063294881e-10
6.05225613804e-11
2.06500209392e-10
8.74468442868e-10
7.69487228428e-10
3.91937332951e-10
4.67230140927e-10
1.09177894696e-09
1.09484006277e-09
5.00525410886e-10
1.37275303123e-09
7.76259917761e-10
2.10700890195e-09
1.29747329654e-09
5.47167302167e-10
8.79776201765e-11
7.15933843311e-10
1.38584978952e-09
1.19437180557e-09
2.10413248578e-09
1.17745237768e-10
1.39593761371e-09
8.32024233957e-10
3.73325698982e-10
2.48425154824e-10
3.01906564002e-11
1.20432538928e-11
7.18041445067e-10
8.86251780494e-10
4.15713377615e-10
3.08155261162e-10
9.43847953222e-10
9.53810259517e-11
4.11407540792e-10
8.63343968426e-10
1.12505174649e-09
3.36324923655e-10
2.17908220056e-10
1.05562084414e-09
5.05227946098e-10
1.65540156201e-09
8.26245995038e-10
4.03601200583e-10
9.6601566815e-11
4.09260374581e-10
6.99872944597e-10
4.62726130861e-10
3.36050083883e-10
1.01661505211e-09
6.48796893444e-10
4.24668812423e-10
1.28914346708e-09
3.34637171808e-10
2.26526118607e-10
9.44451214947e-10
1.01003966435e-09
3.18120316051e-10
8.8196088613e-10
3.78690844578e-10
1.15073988583e-10
8.5461067518e-10
6.95058184897e-11
1.05885005443e-09
7.49368554702e-11
1.35723568815e-10
8.32635658614e-11
1.0281826817e-10
1.28710183132e-09
7.89275530089e-11
4.09409103594e-10
8.59680288815e-10
9.54423012004e-10
1.19519871112e-10
6.39908275263e-10
5.04475616385e-11
2.15857592377e-09
2.03179450602e-09
6.53487531546e-10
1.08812897836e-09
1.97348177215e-09
8.92702299801e-10
1.79072742869e-09
5.30940921395e-10
5.33500984124e-10
6.58891632591e-10
7.72881335051e-10
1.48662256133e-09
3.82591433564e-10
2.30470463074e-09
9.3791245889e-10
9.57383575188e-11
2.95451203068e-09
4.07892174074e-10
1.01331547819e-09
7.33610247675e-10
1.2994225782e-09
7.40125769947e-10
5.82541729004e-10
1.93383083322e-10
4.85412732035e-10
8.95994117489e-11
1.2238832772e-10
1.3699317634e-09
6.58398161658e-10
4.83173997008e-10
8.40763845861e-10
9.58069040711e-10
6.08074550855e-10
1.52196911575e-11
9.93933104647e-10
4.37508215184e-10
2.11469678928e-10
2.03371138881e-09
6.32156230811e-11
9.42372981164e-10
8.92707511012e-10
3.87746759727e-10
1.08201281641e-09
2.61584801661e-10
4.62229575216e-10
7.46615858641e-10
2.78042510157e-11
9.62961347735e-10
2.33910586857e-11
8.58551543194e-10
1.86594745904e-09
2.85121942289e-10
1.16938505799e-09
2.05420844468e-11
1.84994245561e-09
1.22636172026e-09
1.37283736634e-10
2.78901657801e-09
1.51375967891e-09
1.67659668942e-09
7.22982375882e-10
2.23471227464e-10
8.77459862365e-10
6.5446268932e-10
1.19018671777e-09
1.34622544708e-09
1.47202555832e-10
2.51238663019e-11
1.57446603685e-10
3.03613290938e-11
1.20450317359e-09
7.54511600787e-10
2.9444753002e-10
1.25004855781e-09
3.75516990017e-10
4.67953105521e-10
2.00574330937e-09
1.51700739178e-09
1.96044591255e-09
1.3977805373e-09
3.12899849087e-10
1.29122352346e-10
2.32274301933e-11
1.98515368666e-10
1.97344235061e-09
8.03219029253e-10
4.91211635097e-10
2.68655491771e-09
6.15149073223e-10
5.2627143355e-10
1.40615415217e-09
1.0300451634e-10
1.37154817255e-09
1.27471404397e-09
5.70935554912e-10
1.37800401354e-09
7.85203850214e-10
1.14549535977e-09
2.32089424584e-10
1.44930431173e-09
4.8922221693e-10
7.11790833688e-10
1.23188877619e-10
1.13448314487e-09
1.97596988168e-11
7.90294400442e-10
8.23674706153e-10
2.15564176255e-09
1.86958908651e-09
1.2459620331e-09
2.07371743381e-09
4.61199847547e-10
1.21716620036e-10
7.50710031372e-10
1.6807061522e-10
2.15692702572e-09
7.56044764921e-10
2.06207071703e-09
1.12722489616e-09
6.05182273897e-10
1.83535325612e-10
7.60824849593e-10
1.32249287891e-10
5.71184104658e-10
1.75934200574e-10
2.68988532312e-10
2.19911495966e-09
1.74891702343e-09
2.84776354329e-10
2.92509014289e-10
6.74694854854e-10
9.45309416548e-10
7.09586900638e-10
4.60142001846e-10
8.67714401002e-10
1.63782356823e-10
4.88002954612e-12
1.98165680058e-10
7.25631210443e-10
7.64569035786e-10
3.41324213645e-10
1.53612292405e-10
1.90040016404e-09
1.31047463184e-09
2.00919787285e-10
2.3522570129e-10
6.78334967638e-10
2.24318866145e-11
1.19839898574e-09
5.43143807638e-10
3.5854088715e-10
8.30472320479e-10
9.30609967662e-10
3.25162222058e-10
6.52254184955e-10
1.09167597246e-09
4.62309373779e-10
3.24772850185e-10
1.34126112976e-09
1.26936743535e-09
5.00047050476e-10
2.27271354478e-10
2.91110446817e-10
1.89913177037e-10
3.12379150007e-10
8.09367213264e-10
7.2431471527e-11
8.43713637756e-10
7.13824739285e-10
9.67534962445e-10
1.13301283588e-09
9.06610128812e-10
1.38986809565e-10
6.31239385095e-10
1.2155603764e-09
9.62411189279e-10
4.48878376808e-10
7.31590530825e-10
7.52290014428e-10
1.41462158324e-09
1.82267223614e-09
2.95552723402e-10
1.74947119746e-09
5.69541472911e-10
8.78903030287e-11
2.48815741367e-09
6.39682974457e-10
3.49202886374e-10
4.2486492332e-10
1.06976892798e-09
1.72907685155e-09
1.16175896357e-09
2.74416225241e-10
3.31297386739e-12
1.13313327452e-09
2.39701141883e-10
9.11241690171e-10
9.79766374235e-10
5.00542196901e-10
1.62821072135e-10
6.12620186534e-10
5.36405883208e-10
5.88342560587e-10
2.16488623626e-10
3.61128606207e-09
2.25847797553e-10
1.16505365301e-10
3.26308180127e-10
6.04833494382e-10
2.31282512745e-09
1.54689154478e-09
1.84901500755e-09
8.20684070514e-10
4.61466852106e-10
3.18119969651e-10
2.23383685383e-09
2.70723381898e-09
1.87621984169e-09
9.97587336458e-10
7.47241918418e-10
1.47626150011e-10
1.42264870187e-09
4.61115707685e-10
2.2407090834e-09
1.06816471414e-10
1.38929505852e-09
1.9438410583e-10
4.90301886481e-10
1.95998837108e-10
1.52148452551e-09
3.71594373039e-10
7.94576987528e-10
1.60461058029e-09