# vtk DataFile Version 3.0
File Name: Molecule/sphere_cent/sphere_cent_0-s14.vtk
ASCII
DATASET UNSTRUCTURED_GRID
FIELD FieldData 1
TIME 1 1 double
0.0
POINTS 331 double
0.51066422462 0.79684513807 -0.32274898887
0.30315080285 0.93938928843 -0.16006430984
0.52467781305 0.85127305984 0.0034472639672
0.29169258475 0.94288492203 0.16066968441
0.093625314534 0.99545842409 -0.0064078043215
0.49545773864 0.80625998974 0.32316812873
-0.52315348387 0.76970249414 0.36565637589
-0.66412949562 0.62025123835 0.41716232896
-0.42423936725 0.68122977018 0.59571743011
-0.50578695536 0.48636689782 0.71192097664
-0.2896002233 0.53227782249 0.79463028908
-0.5138720274 -0.81074994802 -0.28054749966
-0.31645059586 -0.92655527592 -0.20334458351
-0.48706555367 -0.87186568975 -0.039382442832
0.51849722862 -0.78987151384 -0.32732319832
0.52257966995 -0.8519127965 -0.01127043087
0.33547711372 -0.91384094954 -0.22797979414
-0.0035990877077 -0.52551048994 0.84980559349
0.30972743034 -0.50893777609 0.80314153433
0.16778603196 -0.27026200294 0.94803541899
-0.12997314334 -0.22570149601 0.96411687136
0.04692639038 -0.023633368313 0.99847948551
0.32329121232 -0.50544184446 -0.79996520281
0.060642663389 -0.51278924942 -0.85637128353
0.16178618371 -0.29241746664 -0.94249629974
-0.15451827645 -0.30811604857 -0.93864142895
-0.0012853147928 -0.086762152612 -0.99605101347
0.91613215208 -0.23607595265 0.32170164585
0.8576566577 -0.052718807012 0.51067590714
0.79272311926 -0.33439135551 0.50969427824
-0.79004323483 -0.31632396579 -0.52493572235
-0.90979886055 -0.20371487737 -0.36094245315
-0.85317033529 0.0049129780382 -0.52150958776
-0.92222779989 0.21614968777 -0.32036536932
-0.79545122385 0.32236611843 -0.5131675601
-0.21518698335 0.31653222442 -0.92385810614
-0.32122224569 0.51482307911 -0.79485011101
-0.00071426131763 0.52204978466 -0.852873981
0.21351851523 0.31746813655 -0.92392480373
0.31940767169 0.51685369015 -0.79425656796
0.78353148699 0.31910803914 -0.53229045868
0.68403315544 0.15399485826 -0.71298509836
0.58822691441 0.44091525674 -0.67793166637
0.45833036304 0.27027150989 -0.84669911861
0.51751875877 0.0013663970167 -0.85567414761
0.53336912394 0.0061295502819 0.84573096037
0.45147699118 -0.26142936945 0.85297238827
0.67662459612 -0.20055162907 0.7084878087
0.58346700668 -0.44913455844 0.67662554979
0.88885462284 0.45709499717 0.0010744035244
0.71557319164 0.68128734827 0.15371672809
0.83324939013 0.47120893002 0.28911182284
0.67237240076 0.60952353477 0.41995939612
0.76050752401 0.36086073518 0.53951108456
-0.45931822062 0.2687599957 -0.84664565325
-0.58943289518 0.4394415617 -0.67782837152
-0.68446201086 0.15477015078 -0.71241492033
-0.51788812876 0.00027845881414 -0.85544574261
-0.53102225065 -0.77364087105 0.34439712763
-0.30644053221 -0.8236567378 0.47538048029
-0.46716991067 -0.68989288807 0.55260926485
-0.46436870098 -0.276994735 -0.84124314785
-0.68425285816 -0.15214492381 -0.71315568686
-0.59373766184 -0.43451035023 -0.67728000879
-0.35396227241 -0.4952031672 -0.79334658384
-0.44388496876 -0.63921588659 -0.62783026695
-0.66912919283 -0.58802205324 -0.45442661643
-0.84612238407 -0.41580811143 -0.33341160417
-0.68514740467 -0.69304919243 -0.22347706556
0.68420916796 -0.15380755067 -0.71285939217
0.4611902535 -0.27868679166 -0.84237778187
0.59034657478 -0.44031503797 -0.67647194862
0.78423571587 -0.31977522373 -0.53163009882
0.71871560812 0.67764425278 -0.15525633097
-0.64532971382 -0.76125127077 -0.05304517597
-0.3595059514 -0.89839535952 0.24694167078
0.85525089502 -0.00038729660446 -0.51819819212
-0.19482134283 0.023197608069 0.98041033745
-0.11690410972 -0.73092705011 0.6717364192
0.15381099284 -0.71839773655 0.67835891247
0.29285809398 -0.0021132901311 0.95605683327
0.90361332893 0.25231567025 0.34291177988
-0.8757404089 -0.45216339827 -0.16681197286
-0.95805591345 -0.21060447395 -0.1929294318
0.31412568688 0.096747860312 -0.94440549612
-0.31559485197 0.095918737352 -0.94400632381
0.82641208172 0.48139691353 -0.28777524829
0.67402690649 0.58873641491 -0.44621315598
0.67499446869 -0.58812445402 0.44551852345
0.83493196964 -0.47221404314 0.28276288509
0.7114969492 -0.67846494913 0.17382152379
0.52157318592 -0.77788585424 0.34758529067
0.0003104659263 0.85401058197 -0.5202485919
-0.15564247966 0.71255666018 -0.68409490585
-0.26489254832 0.84395116568 -0.4665132165
-0.44105437398 0.67450743914 -0.59203106165
-0.50704914331 0.79708391428 -0.32797175646
-0.67689043283 0.58445709944 -0.44746401906
-0.71781688929 0.67118626833 -0.18506529927
-0.84752964973 0.45742052794 -0.26927906275
-0.86004203558 0.51011687517 0.0072059091181
0.67522245646 -0.58747804165 -0.44598594308
0.70425981283 -0.68891334534 -0.1653200984
0.4490083456 -0.66961061954 -0.59158277512
0.19958332181 -0.68991231918 -0.69541275501
0.31734779477 -0.82957828045 -0.45829099417
-0.080429755151 0.94351345301 -0.32134827971
-0.27404227853 0.93096292019 -0.24113729596
-0.57632946968 0.81561225653 -0.050736118108
-0.71393150091 0.69656920433 0.071088969707
-0.94485872984 0.31174173951 -0.10067730397
0.15404167771 0.71357911825 -0.68339669704
0.44088473916 0.67355036736 -0.59322351217
0.4392901361 -0.67223244905 0.59592300653
0.28203833103 0.83855050802 -0.46606835723
0.29408705235 -0.82893919945 0.47423580289
0.99971622229 0.0046702278778 0.013039423153
0.98591142893 0.12950615585 -0.098355397582
0.98717236519 0.12780675292 0.093328900635
-0.00011104764417 -0.89875882864 0.43660655618
0.98592615128 -0.11488884687 0.11849280447
0.9812681675 0.047873068601 0.18622733653
0.9553450346 -0.038236267865 0.2904663682
-0.95576059818 -0.0097438050434 -0.29369533062
-0.97843396664 0.13286960125 -0.15880161524
-0.10559699684 0.11731071025 -0.98746371269
0.10289958864 0.11754010618 -0.98771995306
-0.00090924429242 0.2878010869 -0.95767903328
-0.24522902071 0.95554786921 0.16370792687
-0.35203644633 0.88372457027 0.30733114481
-0.088511817157 0.95138317347 0.29454308748
-0.099956512451 0.98864710331 -0.11210884154
-0.08770147711 0.99199056625 0.090603172779
-0.2590700686 0.96566528082 -0.017374292016
-0.4121940136 0.90450638533 -0.10894297808
-0.40684980154 0.90985357761 0.081428289413
-0.54725950956 0.8191177249 0.17193281651
-0.2906627059 -0.95599585772 -0.02714064531
-0.11456720531 -0.9878886342 -0.10408241302
-0.0049213822931 -0.99975216389 0.010472113267
-0.18944633007 -0.98037642241 0.052380833775
0.10126786679 -0.9903357625 -0.093249313533
-0.0896666646 -0.98718190193 0.13056337833
0.073085799813 -0.98554593325 0.13741096854
-0.10070095211 -0.94220077991 0.31816357374
0.29678171873 -0.95416915417 -0.02389584668
0.18646009266 -0.98077404499 0.053283885121
0.33983248472 -0.11709528416 -0.93317008018
0.17991754413 -0.059107325971 -0.98190027475
-0.18175046146 -0.060940857977 -0.98146098852
-0.34192314744 -0.11990223825 -0.93207299709
0.26710096002 0.83989500999 0.47218263149
0.46069267392 0.69475454092 0.55198580027
-0.94856965542 0.13658815622 0.28533867002
-0.97574949265 -0.058563627303 0.21041125059
-0.87888467312 -0.036001123488 0.47500541806
-0.86407893896 0.21272726357 0.45546379685
-0.88881790638 0.37180665135 0.26778617501
-0.95444989204 0.28058165312 0.10154870152
-0.99451059103 0.096754133701 0.038674861193
0.069527342916 0.98021286726 -0.1853106916
-0.63834440708 0.51034533978 0.57613277435
-0.78348392248 0.43864780664 0.44013345242
-0.71470266581 0.37278622389 0.59161299467
-0.78794139624 0.56616485119 0.24202384055
-0.65809261799 0.70652472973 0.26029497385
-0.14567452669 -0.54377871752 -0.82648259401
-0.2265072763 -0.66959679127 -0.70714253187
-0.027090217918 -0.7002427578 -0.71310293674
0.12449450046 0.93037772179 -0.3448330462
-0.99167436361 -0.0097103342414 -0.12758944929
-0.99823063612 -0.054316721857 -0.020720411092
-0.064497828484 0.86584299803 0.49547091126
0.10268323123 0.93112385273 0.34935444593
0.072697512805 0.98196691275 0.17415682971
-0.30798336864 -0.85908037424 -0.40907517076
0.039274930954 0.52182674408 0.85201007128
-0.090276867151 0.65099340677 0.7519004941
-0.16169640422 0.41314703226 0.89593857527
0.13502810895 0.36171731353 0.92228186131
-0.022621039301 0.32020694017 0.94706338644
0.30577257276 0.44063138962 0.84398132563
-0.17913241684 0.23694048822 0.95484465361
-0.33668571711 0.28699532151 0.89661109447
0.55077934265 0.39299759269 0.73627209663
0.41240340471 0.56533503532 0.71438527107
0.5945187211 0.5297036171 0.6049566865
-0.4569850564 -0.75424742699 -0.47140404582
-0.26804959774 -0.78174877167 -0.56167411804
0.22345687449 0.5996325016 0.76843339205
0.036101557314 0.69095993042 0.72161197662
0.15019607544 0.72387158871 0.67248052359
0.30407699943 0.69740784168 0.64870357513
0.054742969573 0.80882626772 0.58437001705
0.11663355678 0.18462252617 0.97559124231
0.28832879663 0.23853377998 0.92733347416
0.81722766161 0.15648080409 0.55430704355
0.93638682365 0.10184857994 0.33393532038
0.71579277515 0.018650732934 0.69787061214
0.67377501726 0.19787210226 0.71185785532
-0.3249463439 0.13364620507 0.93621569872
-0.47786396742 0.12620820105 0.86923152208
-0.39337748289 -0.016407331452 0.91903418303
-0.54910242558 -0.063245393336 0.83312135935
-0.045343868434 0.14897486567 0.98777043819
-0.3179114759 -0.69720101357 0.64247721434
-0.44392639399 -0.59271776676 0.67173844576
-0.22894527018 -0.61480796337 0.75420492887
-0.78664368391 -0.56749987602 -0.24288478494
-0.75421261787 -0.65100324154 -0.085492089391
-0.64089405537 0.039593763649 0.76639205217
-0.47635507584 0.34446716309 0.80897349119
-0.58417189121 0.22038534284 0.78103399277
-0.6140639782 0.36884573102 0.69776976109
-0.68516457081 0.15024414659 0.71224790812
-0.70016431808 0.26053246856 0.66476023197
-0.59681081772 -0.34164971113 0.72559279203
-0.49230161309 -0.25355044007 0.83231759071
-0.68017607927 -0.19326271117 0.7069568634
-0.34437599778 -0.38624250889 0.85563278198
-0.46236875653 -0.46263164282 0.75591617823
-0.78536647558 0.13197740912 0.60407447815
-0.7699098587 -0.05866413936 0.63535320759
-0.82233536243 -0.29545143247 0.48499238491
-0.54427134991 -0.82610929012 0.14416965842
[...]
CELL_DATA 658
SCALARS cell_data_0 double
LOOKUP_TABLE default
1.88009709647e-09
1.52303804131e-08
5.14678748706e-08
8.98769736566e-09
5.29148243348e-08
2.1851655094e-08
5.61606982209e-09
2.6012112174e-08
6.80761667165e-08
2.41602367268e-08
3.20946502405e-08
2.45674237127e-08
4.1112740682e-08
2.7316455188e-09
3.39737343145e-08
2.82476484913e-08
3.64669464651e-08
3.93851190546e-08
3.37257686835e-08
1.31961809914e-08
6.59764002525e-10
7.3230995028e-09
6.0122519499e-09
2.15092032819e-08
9.55287639945e-09
2.73719131248e-08
3.49181125733e-08
5.70636048168e-08
2.39823251095e-10
2.0301544858e-08
7.67662159671e-09
4.57826214974e-09
6.30097769813e-09
7.76043612955e-09
1.73519105039e-08
1.30815420126e-08
1.01166723877e-08
4.30645284047e-08
2.06667713063e-08
3.24580733353e-09
1.25206789323e-08
1.30188137593e-08
1.86964383602e-08
3.05884004993e-08
1.51656035223e-08
5.47247951882e-09
3.09737091925e-08
4.03267840183e-08
1.97178440162e-08
4.48086599828e-08
1.07971352381e-08
3.7972346104e-08
1.45569980588e-08
1.83931920955e-08
1.75274970719e-08
7.2152709444e-09
2.8964967223e-08
2.59794443236e-08
4.42735315691e-08
3.18796128021e-08
4.95626861384e-08
6.14101290952e-08
2.36744859508e-08
3.64199633358e-08
8.52063922459e-09
1.53597105724e-08
1.32511853328e-09
7.5304923053e-10
5.3065940043e-08
4.68465161922e-08
2.79177982019e-08
3.13956603243e-09
6.01072705004e-09
2.69524904678e-08
2.08403779805e-08
1.46470723911e-08
1.9682949986e-08
1.80209208912e-08
2.44104482689e-08
1.00334513612e-08
7.6736834741e-09
1.48987726186e-08
7.27943811319e-09
4.56209662194e-09
2.2954746572e-08
1.9815029221e-08
2.51473625275e-08
1.20932231227e-09
5.28249151058e-09
1.56026850892e-08
6.88296326794e-08
1.52580919879e-08
1.75043383203e-08
9.59590221132e-09
1.40618506363e-08
2.54724992855e-08
2.88878518988e-08
3.64563077953e-08
9.84686345942e-09
6.9915592888e-09
8.82200760841e-09
2.72858041466e-08
1.8060929131e-09
9.37039433248e-09
1.33401246282e-08
3.11692555246e-08
4.34276232155e-09
2.16494046027e-08
1.63434256537e-08
8.77701432319e-09
4.41412644892e-09
1.00958729755e-08
6.22707693508e-10
3.66489278062e-08
3.13382517923e-08
2.70439579095e-08
3.52566203397e-08
2.27081419255e-09
9.54543201419e-09
1.36560139574e-08
9.97278923339e-09
3.92045580966e-09
1.38966120271e-08
2.4170848624e-08
3.09133581122e-09
7.96926998328e-08
1.57183134276e-08
1.98716719684e-08
1.93749783753e-08
1.20111838714e-08
1.27262898546e-08
2.15844986941e-08
7.32177630004e-09
2.68190148714e-08
1.22174921151e-08
1.31830181206e-08
1.47645200596e-08
3.47628288321e-09
7.76138220041e-09
7.03361271732e-09
3.47666858994e-09
4.29429275601e-09
1.43984567765e-08
2.2318314102e-09
1.16033452443e-08
2.21401395035e-08
1.49127776859e-08
1.36186036375e-09
1.18437473366e-08
3.04775475023e-10
1.18976064101e-08
4.25918839172e-09
9.6278404518e-09
4.14483948738e-09
3.90422536705e-09
6.75825049034e-10
9.8017264608e-09
1.30287984282e-08
1.78299351697e-09
1.08556501805e-08
3.70857591377e-09
1.13083939274e-08
4.77718919204e-09
9.76739051309e-09
2.34818539073e-08
2.11760738419e-08
4.00419577867e-09
2.39898318301e-08
4.08929005399e-09
5.03524464291e-09
1.23730973444e-08
5.67764314843e-09
1.77502695111e-08
1.59230657457e-08
5.75538181208e-09
2.14722776096e-08
2.75643040058e-08
1.25465921165e-08
1.39235812875e-08
1.90874911102e-08
3.6880252243e-09
4.23844174947e-09
9.57984266472e-09
4.35137427597e-09
2.90698483368e-09
9.84502555228e-09
2.7234307022e-09
1.04332885883e-08
2.52945594117e-08
2.21485318097e-08
7.99916805979e-09
2.12899259868e-08
2.40774568117e-08
1.28368026132e-09
1.80013522537e-08
1.29080547171e-08
3.12279315328e-08
3.1177981819e-08
5.89850725594e-09
2.78246418599e-08
1.1775202802e-09
2.31019617364e-08
2.59953059409e-08
1.54709431984e-08
2.40857407385e-08
1.32958973258e-08
2.30356932531e-11
1.19147421329e-08
6.54628657102e-09
1.28903498315e-08
3.4649178058e-12
2.38334886247e-08
1.1911095308e-08
1.34536272636e-08
9.9014642487e-09
2.39596845881e-09
3.18798682034e-08
1.69831499602e-08
1.87440123828e-08
2.03529188352e-08
1.58371973834e-08
7.42471633576e-11
3.82646531727e-09
2.31970640464e-08
6.95156844687e-09
2.67507784008e-08
3.90791766062e-09
7.54675772922e-09
1.70188996304e-08
1.45126199336e-09
1.98952495767e-08
8.97494398416e-09
5.34039580565e-09
6.99101941374e-09
1.29520182549e-08
1.36733127676e-08
3.21834181183e-08
1.62843388345e-08
5.02218965742e-09
5.21332136081e-09
1.79765690437e-08
1.7598880959e-08
1.49594204251e-08
2.13833372124e-08
3.64559096999e-08
1.43671372895e-08
1.68803279543e-08
5.29723059396e-09
9.76522485524e-09
3.57761040339e-08
2.76330640902e-08
3.11893912579e-10
1.34376723971e-08
1.34626027745e-08
2.66290178436e-08
2.80342442306e-08
9.50007617522e-10
1.2730823708e-08
1.1892974338e-08
2.05069750001e-08
1.14709727369e-08
1.60351897174e-08
2.28453226831e-08
1.91387726243e-08
1.51844853379e-08
6.69745535818e-10
9.22327563599e-09
4.7173667598e-09
1.65828968825e-08
2.65580573089e-08
1.8880407963e-08
1.65151156467e-09
9.52829888061e-09
2.49550898241e-09
1.77843357969e-08
9.10435687741e-09
1.75343778621e-08
1.46694422557e-08
2.96493562583e-08
3.47922240639e-08
2.73742488602e-09
1.38692459925e-08
1.60030759244e-08
1.77513724375e-08
3.04067380851e-08
7.61866030062e-09
1.29696417678e-08
9.33553650376e-09
3.68807693547e-09
1.27172556915e-08
1.09344852856e-08
1.84575538369e-10
1.21745537674e-08
6.41011136876e-09
3.1311828507e-08
1.67132295577e-08
3.63077804195e-09
3.76666023899e-08
1.91272011742e-08
1.09445571512e-08
3.44269146773e-08
3.09681363727e-09
5.22164310174e-09
3.30547929797e-09
3.18023859818e-09
1.16571061164e-09
3.36325203171e-09
2.83818415585e-08
8.36843984182e-09
6.39056729678e-09
1.69376240174e-08
3.10872592034e-09
2.62799049996e-09
9.74342776177e-09
2.20932515668e-08
5.71655816616e-09
5.04253972151e-08
1.16587407018e-08
6.48576177469e-09
6.043316455e-10
1.92392003984e-08
5.02079386673e-09
1.79574889069e-09
1.28411060875e-09
1.00345285204e-08
1.8911928818e-08
2.99841481419e-08
2.0078585071e-08
3.47311776073e-08
1.73724755507e-08
1.5306641964e-08
1.87774823745e-08
1.29941276905e-08
1.17604319643e-08
3.02023270712e-10
4.74570624771e-09
2.53741189679e-09
1.14829613927e-08
1.35473894388e-09
7.42318311071e-09
4.0976529984e-10
1.58378003049e-08
2.64285470929e-09
2.27579772779e-08
5.48018266544e-09
2.72579902484e-09
5.17371615607e-09
6.52173410444e-09
1.2022651139e-09
1.18237900291e-09
7.19960159364e-09
2.10899627837e-09
1.05369642774e-08
1.3375895397e-08
9.92311061374e-09
1.00163343601e-09
9.15517331374e-09
6.78351948076e-10
5.68372022738e-09
9.22256974825e-10
1.8292225028e-08
1.47605469473e-08
9.81570612179e-09
2.62108931448e-09
7.27391865576e-09
3.12730445827e-09
1.21634903373e-08
1.68480257039e-08
1.5391486574e-08
9.79630058754e-10
2.14098814028e-08
7.6075240029e-09
3.1672672093e-08
2.50239032035e-08
8.77826948499e-09
1.02368506836e-08
7.53726785027e-09
2.63876030771e-08
2.39701909646e-08
9.42629200036e-09
1.36956239832e-08
5.95274439144e-09
1.12610732685e-08
4.67590359661e-09
9.97221662759e-09
1.80148775694e-08
1.90187661672e-08
3.49748190528e-09
1.46726341798e-09
8.44403460234e-09
1.05560847818e-08
2.07577096928e-08
8.67307950347e-09
2.64107148132e-08
1.49999931426e-09
6.42442432428e-09
4.61417184019e-10
5.93107404971e-09
5.48933623514e-09
3.35389304752e-09
8.21215697236e-09
1.54065933717e-09
4.26403038816e-09
3.1527577705e-09
1.07758902274e-08
4.23635233604e-09
1.70183967942e-09
3.30695916741e-09
5.98446031884e-09
8.36935558265e-09
4.52760908996e-09
8.35999045249e-09
1.10115023655e-08
1.85337772839e-08
1.91503184886e-08
1.41210844207e-08
1.35879795318e-08
3.35328916843e-09
1.53108707355e-08
1.35769913649e-08
5.01639191117e-10
1.03790565183e-08
1.36940887026e-09
6.76888739705e-09
1.02986923026e-08
1.0345632225e-10
5.02545827557e-09
3.10614455833e-08
8.72254000558e-09
7.76792089989e-09
7.34519449726e-12
6.07389351341e-09
5.2945445356e-09
4.04420930258e-09
4.56428836141e-09
9.93168190158e-09
3.35586961984e-09
9.25605910873e-09
9.62009750482e-09
1.22341212269e-08
1.98723075938e-08
2.29583615245e-09
1.47345508203e-08
1.75807526476e-09
2.27327808657e-08
8.23758404933e-10
9.19232114122e-09
4.92357096767e-10
2.10466938014e-08
6.18442765524e-09
1.343538399e-08
1.06037978791e-08
8.74011458111e-09
4.3729175169e-09
8.61857124363e-09
8.82747832764e-09
2.60632696955e-08
1.91073644156e-08
9.95387693768e-09
2.25283863645e-08
8.56135553237e-09
9.32512985221e-10
1.35631465743e-09
1.023358728e-08
2.16809757651e-08
5.87084192623e-09
5.18461173509e-10
9.17240413932e-09
3.01635957681e-09
1.10506486704e-09
1.92439701859e-08
2.68051712007e-09
5.45830640712e-09
1.70563819161e-08
6.74362540308e-09
5.63422979251e-09
1.53551589527e-08
7.63752039505e-09
1.65999017609e-08
3.08106205558e-09
4.77857283616e-09
6.08592968693e-09
1.43268411599e-08
2.71567917422e-09
2.28089163458e-09
7.94081166693e-09
1.7072820889e-08
8.59725298379e-09
3.76181366481e-09
6.66453208636e-09
7.5196417233e-09
2.0204092856e-08
1.44701426055e-08
1.96897799546e-09
2.75517523695e-08
1.99341771588e-08
4.37677379343e-09
1.04956302541e-08
1.00053420609e-08
2.13593162549e-08
2.50997622809e-08
3.32169830639e-10
1.52446912794e-08
2.25134032852e-09
1.2244242856e-08
7.44752926285e-09
2.4820304145e-09
1.20587245551e-09
5.76550625367e-09
2.38047041341e-09
6.75720719222e-09
5.95865841173e-09
1.86034077467e-08
9.32895736424e-09
2.34207523235e-09
2.43138298358e-09
1.40201302465e-08
3.15653423061e-10
2.07760639507e-09
2.08999712192e-09
9.59353295263e-09
5.5258971248e-09
4.49766411957e-09
4.37159499764e-09
5.09727129348e-09
5.25164531652e-09
4.62452257188e-08
1.23572289391e-08
3.58455058161e-08
4.80387113672e-09
1.28491357781e-08
1.64759273403e-08
2.09481609251e-08
3.11373477111e-08
1.14139913201e-08
1.31885625448e-08
4.65422517568e-08
2.00674929706e-08
2.74838934642e-09
1.59138239689e-09
2.30938037388e-08
8.51941315371e-09
3.62360450983e-08
1.39514126411e-08
2.75257598761e-08
9.62069148261e-09
2.3206850587e-09
1.65800117271e-08
1.13167403851e-08
1.96317939291e-08
7.71382534563e-09
4.36145506898e-09
1.49455720088e-08
9.99041655006e-09
2.60781909702e-09
9.21966660518e-09
1.44202738776e-08
7.61919104745e-09
2.4561041275e-09
2.09763198049e-08
3.9795962691e-09
9.63749311508e-09
3.49034416594e-08
1.3231374815e-08
2.37846581746e-09
1.71373522541e-08
2.07727832862e-08
3.34822816331e-08
3.66140311797e-09
1.85605956054e-09
8.07914493805e-09
8.01220155924e-09
5.89809560037e-09
6.51941996038e-09
1.48286864273e-08
5.5423105694e-08
5.2746349688e-08
7.56446535624e-09
9.17820726171e-09
5.14219768774e-09
4.20578226418e-09
5.86344323963e-09
2.65447749109e-09
2.84855477624e-08
2.66287689956e-08
9.01384029127e-09
2.07812957075e-08
1.40920766594e-08
8.2704017675e-09
3.45197125209e-09
1.98457656894e-08
2.65609688131e-09
1.17870550806e-08
2.72914088676e-09
1.19552390032e-08
8.24753501639e-10
1.5295583894e-09
7.56999608148e-10
2.73378964342e-09
1.94656698961e-09
1.76900143491e-08
8.01600981887e-09
5.56228757113e-09
3.09303200125e-08
1.41563232967e-08
2.46951170339e-09
9.11199233943e-09
4.2897222882e-09
8.19196500646e-09
3.93395939962e-09
4.5162734611e-09
2.14713903407e-09
9.55005649375e-09
1.68700346283e-09
1.23400967352e-08
3.34636435904e-09
1.06823140563e-09
7.46188564664e-09
6.16970746219e-09
5.72187951484e-10
1.57970920401e-08
2.05848638653e-09
1.28585597033e-08
3.41190739301e-09
6.57923778049e-09
3.64482975854e-09
1.32323953561e-08
1.58381723193e-08
1.59099610143e-08
2.88042695291e-09
4.29405610913e-09
8.96384895594e-09
4.9885198668e-09
1.61210407132e-09
7.07037254646e-09
7.45905819666e-09
1.47500392413e-09
5.19278399096e-09
1.82494994014e-08
8.65073566183e-10
3.13297523166e-09
1.42455285002e-08
8.66278181755e-09
5.15284026326e-09
2.54650184282e-08
6.19359536077e-10
4.33096670898e-09
3.96655057848e-09
5.06809299569e-09
4.90320533167e-08
4.10775855663e-08
1.1796403451e-08
4.25939094765e-09
2.44130269613e-08
3.04986031892e-09
5.47402131875e-09
1.01520731513e-08
5.96182921157e-09

