# vtk DataFile Version 3.0
File Name: Molecule/sphere_cent/sphere_cent_0-s13.vtk
ASCII
DATASET UNSTRUCTURED_GRID
FIELD FieldData 1
TIME 1 1 double
0.0
POINTS 289 double
0.51005107164 0.79650044441 -0.32456681132
0.30123227835 0.94004821777 -0.15981832147
0.5238135457 0.8518320322 0.0035276259296
0.28846660256 0.94387769699 0.16065014899
0.089373037219 0.9958165884 -0.0067204972729
0.49329549074 0.80604171753 0.32717466354
-0.52399742603 0.76997721195 0.36386367679
-0.66571050882 0.61899316311 0.41648501158
-0.41408839822 0.6878259778 0.59481996298
-0.5111734271 0.47866255045 0.71266633272
-0.27906277776 0.53510212898 0.79733473063
-0.51293110847 -0.80969828367 -0.28457900882
-0.31379112601 -0.9277433753 -0.20213976502
-0.49444779754 -0.86759197712 -0.034207783639
0.51602166891 -0.79131162167 -0.32805663347
0.52211350203 -0.85282295942 0.0013297338737
0.32901597023 -0.91655361652 -0.22623233497
0.51553082466 -0.78954821825 0.33273950219
0.32587450743 -0.91313153505 0.24653212726
0.79564750195 -0.32210323215 -0.51297515631
0.85546088219 -0.00021114607807 -0.51778095961
0.92218148708 -0.22927066684 -0.31155660748
0.79583877325 0.32133868337 -0.51315313578
0.92233282328 0.22791185975 -0.31209129095
-0.34265273809 -0.38739731908 0.85506922007
-0.010523294099 -0.51588600874 0.85647785664
-0.14125335217 -0.24302101135 0.95934987068
0.16824232042 -0.26860874891 0.94842600822
0.31001359224 -0.50945293903 0.80266213417
0.048100575805 -0.017839938402 0.99841034412
0.32145872712 -0.50634086132 -0.800149858
0.057478182018 -0.51202428341 -0.85703885555
0.1603744179 -0.29154756665 -0.9429975152
-0.15457345545 -0.305462569 -0.93947917223
-0.0018839215627 -0.083426870406 -0.99629873037
0.92175215483 -0.23347207904 0.30984020233
0.85799717903 -0.044238381088 0.51138353348
0.79442602396 -0.33209937811 0.50853139162
-0.79261267185 -0.31688779593 -0.52069920301
-0.91239494085 -0.20495587587 -0.35338383913
-0.85410827398 0.0038265525363 -0.51999133825
-0.923576653 0.21509288251 -0.31716021895
-0.79654312134 0.32204568386 -0.51167094707
-0.21410115063 0.3151448667 -0.92458319664
-0.32071444392 0.51429480314 -0.7953979373
-0.00068218132947 0.52192986012 -0.85294979811
0.21240796149 0.31602859497 -0.9246724844
0.3188636899 0.51663929224 -0.7946125865
0.68475174904 0.15514068305 -0.71204930544
0.58914083242 0.44052541256 -0.67737793922
0.45743468404 0.27025386691 -0.84718763828
0.5164526701 0.001670373138 -0.85631358624
0.53022778034 0.013259895146 0.84749829769
0.45302024484 -0.26291781664 0.85165286064
0.67684221268 -0.19950217009 0.70857471228
0.5843449235 -0.4490160048 0.67594766617
0.89549738169 0.44409435987 -0.010576528497
0.71502584219 0.68146133423 0.1552940309
0.83485758305 0.46849659085 0.28892186284
0.67280441523 0.6075746417 0.42205795646
0.76163077354 0.35478359461 0.54182106256
-0.45836031437 0.26865446568 -0.84719717503
-0.58950436115 0.43927434087 -0.67787498236
-0.68461459875 0.15490041673 -0.7122387886
-0.51676332951 0.00024229148403 -0.85612642765
-0.541020751 -0.76808398962 0.34011399746
-0.29270750284 -0.83128720522 0.4724817574
-0.46750286222 -0.68623697758 0.55679267645
0.0011426904239 -0.89705842733 0.44089177251
-0.12440440059 -0.72625243664 0.6755284071
-0.46310850978 -0.27728292346 -0.84184354544
-0.68446737528 -0.1529366374 -0.71278578043
-0.59312832355 -0.43567925692 -0.67705976963
-0.35204035044 -0.49702745676 -0.79299855232
-0.44270867109 -0.64305150509 -0.62464690208
-0.66999435425 -0.5880048871 -0.45316928625
-0.84608137608 -0.42125967145 -0.32631760836
-0.68708115816 -0.69207972288 -0.22033715248
0.68484860659 -0.15476052463 -0.71204018593
0.46044400334 -0.27870300412 -0.84277951717
0.59093117714 -0.44002446532 -0.67614614964
0.71794641018 0.67826372385 -0.15617871284
-0.65201348066 -0.7557695508 -0.048150874674
-0.21524696052 -0.95354896784 0.19789423048
-0.3432687223 -0.90536606312 0.23715777695
-0.20096354187 0.025941282511 0.97899639606
0.15315945446 -0.71793586016 0.67903161049
0.29239350557 0.0032977988012 0.95625650883
0.90977603197 0.24039809406 0.33250439167
-0.87327557802 -0.45771476626 -0.16399890184
-0.95998483896 -0.20536473393 -0.18813484907
0.31279167533 0.094869978726 -0.9450250268
-0.31425324082 0.094292119145 -0.94460630417
0.8370668292 0.46740502119 -0.28448817134
0.67506414652 0.58791875839 -0.44562160969
0.67539399862 -0.58846008778 0.44440025091
0.83567041159 -0.47137656808 0.28204849362
0.71690118313 -0.67962545156 0.15507479012
0.89843583107 -0.43809646368 0.0011138044065
-0.00024301145459 0.8547706604 -0.51899856329
-0.15621691942 0.71270734072 -0.68380492926
-0.26544678211 0.84449148178 -0.4652146101
-0.44100931287 0.67445462942 -0.5921240449
-0.50696253777 0.7972137332 -0.32777941227
-0.67723912001 0.58428347111 -0.44716119766
-0.71700638533 0.67217683792 -0.18458966911
-0.84795314074 0.45723110437 -0.26826372743
-0.85943961143 0.51111847162 0.0077405180782
0.83680862188 -0.46890953183 -0.28280079365
0.67527443171 -0.58766531944 -0.4456422925
0.71801710129 -0.67866826057 -0.15402625501
0.44828474522 -0.67014425993 -0.59159034491
0.1987259835 -0.69861221313 -0.6863283515
0.30211883783 -0.83148723841 -0.4640237391
-0.079544909298 0.94425427914 -0.31936013699
-0.27357110381 0.93174552917 -0.23861221969
-0.57476353645 0.81681317091 -0.049068935215
-0.71312046051 0.69717311859 0.07323102653
-0.94532364607 0.31093454361 -0.098800316453
0.15423044562 0.71391266584 -0.68300449848
0.44038337469 0.67374354601 -0.59339749813
0.43932965398 -0.67279165983 0.59525388479
0.28135535121 0.83883273602 -0.46598064899
0.28140071034 -0.83645659685 0.46969455481
0.21122220159 -0.95352303982 0.20212674141
0.98528420925 -0.1261125952 -0.11485800892
0.98507201672 -0.12678201497 0.11536375433
0.95889097452 -0.00090923334938 -0.28383368254
0.98508286476 0.12599042058 -0.11555469781
0.99978458881 0.0010311970254 0.0060152043588
0.98625993729 0.12567403913 0.10201735795
0.97996938229 0.051355041564 0.19133615494
0.95629632473 -0.02496224083 0.28713348508
-0.95683985949 -0.0086864903569 -0.2901263237
-0.97903299332 0.13110692799 -0.15672639012
-0.10509089381 0.11678984016 -0.98757970333
0.10229970515 0.11688475311 -0.98786020279
-0.00090167904273 0.28632351756 -0.95811879635
-0.24600660801 0.95519971848 0.16456779838
-0.34882608056 0.88225322962 0.31450781226
-0.085633195937 0.95132303238 0.29547071457
-0.10086777806 0.98875486851 -0.11033182591
-0.087724857032 0.99175578356 0.093014895916
-0.25917851925 0.96566337347 -0.015632612631
-0.41117379069 0.90520900488 -0.10688308626
-0.40652379394 0.9099624753 0.081793166697
-0.54635453224 0.81964486837 0.17232693732
-0.28750365973 -0.95668107271 -0.015936894342
-0.1136308834 -0.98775428534 -0.10573651642
-0.0045378534123 -0.99975919724 0.0065461574122
-0.19297897816 -0.97936886549 0.056271042675
0.104119353 -0.98941475153 -0.097105547786
-0.091843754053 -0.98643118143 0.12612079084
0.095631450415 -0.98616337776 0.12584705651
0.28999114037 -0.95557808876 -0.016570154577
0.19342294335 -0.97914391756 0.054755248129
0.33818891644 -0.1177168861 -0.9336873889
0.17850399017 -0.059677764773 -0.98212391138
-0.18098123372 -0.061244454235 -0.98159229755
-0.34051465988 -0.12012956291 -0.93256115913
0.26283791661 0.84085595608 0.47293445468
0.45659890771 0.69307893515 0.55735492706
-0.94802111387 0.13457648456 0.28813177347
-0.97738921642 -0.061364941299 0.20078617334
-0.873898983 -0.039084922522 0.48345479369
-0.86028498411 0.21048124135 0.46323031187
-0.8888528347 0.37228706479 0.2669993341
-0.95504915714 0.27850228548 0.10169609636
-0.994612813 0.096716538072 0.035957597196
0.069383524358 0.98046857119 -0.18402740359
-0.64057588577 0.50901669264 0.57482862473
-0.78361552954 0.43757075071 0.44097208977
-0.71690881252 0.36778691411 0.59192079306
-0.78775405884 0.56640481949 0.24206888676
-0.65722072124 0.70684486628 0.26162949204
-0.14587403834 -0.54371416569 -0.82649791241
-0.21969595551 -0.67534869909 -0.70332050323
-0.030236026272 -0.70799899101 -0.70518523455
-0.2527680099 -0.78803575039 -0.56101167202
0.12476731092 0.93086284399 -0.34342470765
-0.99191331863 -0.0075135547668 -0.12591169775
-0.99787014723 -0.058972600847 -0.018968828022
-0.060603503138 0.86105632782 0.50343555212
0.10407401621 0.93264752626 0.34468835592
0.073750391603 0.98219543695 0.17227268219
-0.3043756485 -0.85974484682 -0.41017401218
0.036604668945 0.52261978388 0.8516343236
-0.080556020141 0.66205048561 0.74410641193
-0.16504432261 0.40754032135 0.89782255888
0.12967006862 0.36435297132 0.92188888788
-0.02346239984 0.32031080127 0.94700992107
0.3061543107 0.44022709131 0.84406685829
-0.1763549298 0.23863911629 0.95487928391
-0.34246581793 0.2818056941 0.89600479603
0.55005300045 0.39348116517 0.7365424633
0.40940311551 0.56562101841 0.71586173773
0.59541267157 0.52743387222 0.60604357719
-0.45658385754 -0.75504004955 -0.47058615088
-0.050144486129 -0.87684011459 -0.47657054663
0.22598041594 0.59785175323 0.76902592182
0.033321402967 0.69580751657 0.71681147814
0.14152757823 0.72170192003 0.6765756011
0.29955378175 0.6975864768 0.6506254673
0.044485699385 0.80331814289 0.5919148922
0.11371528357 0.18917833269 0.97498434782
0.2915224731 0.23670350015 0.92677026987
0.81420785189 0.15637254715 0.55853950977
0.94014459848 0.10473059118 0.3205434382
0.71301048994 0.020489793271 0.70062100887
0.6714631319 0.19612070918 0.71448028088
-0.32648664713 0.13490897417 0.93548381329
-0.47712439299 0.12461848557 0.86987948418
-0.39563754201 -0.022103814408 0.91765797138
-0.55280971527 -0.059204414487 0.8308801055
-0.044690072536 0.15055423975 0.98755145073
-0.31769561768 -0.69624143839 0.64356929064
-0.43954476714 -0.5908344388 0.67619937658
-0.23566435277 -0.61852216721 0.74906414747
-0.78627467155 -0.56904643774 -0.24047806859
-0.75845509768 -0.64619398117 -0.083677008748
-0.63978457451 0.044045690447 0.7670519352
-0.47664129734 0.34327936172 0.8093085885
-0.58143317699 0.21919314563 0.78336060047
-0.6177302599 0.36754155159 0.69515258074
-0.6805999279 0.1539067924 0.71572941542
[...]
CELL_DATA 574
SCALARS cell_data_0 double
LOOKUP_TABLE default
3.99137385578e-10
1.7847046209e-08
5.40941071434e-08
4.74762378213e-09
6.04537410726e-08
3.69662489806e-08
6.61464058559e-09
3.39508855628e-08
7.31699329284e-08
3.30499717602e-08
2.92252880806e-08
8.34873577115e-08
2.61388730005e-08
1.66191905351e-08
8.13718736387e-09
4.09060229926e-08
2.12638016324e-08
4.36280156964e-08
2.1836933018e-09
3.61187040642e-08
3.24668453986e-08
3.73750692095e-08
3.98701321301e-08
1.05402804176e-08
3.5213928158e-09
4.83040578887e-09
6.7171171657e-09
9.5564066022e-09
3.31362269415e-08
6.94239457893e-09
2.63271035261e-08
4.15934333282e-08
5.95327203467e-08
1.67827213082e-09
1.88148278609e-08
7.22941294693e-09
4.39554122545e-09
5.40474549912e-09
8.62457598541e-09
2.15645102512e-08
1.09045686711e-08
1.33791279387e-08
1.13571304275e-08
4.50453541792e-08
1.48448134764e-08
7.22757714993e-09
1.14336266206e-08
1.03274724091e-08
1.61738728151e-08
2.91674569656e-08
1.729190782e-08
3.98099926417e-10
4.06756217308e-09
3.73263657947e-08
1.814678677e-08
4.27741758849e-08
6.07842969414e-09
6.63882508491e-08
2.69021800968e-08
1.17716163954e-08
3.75487611434e-09
2.67955940054e-09
5.19815974898e-09
4.91000916485e-08
8.18538721341e-09
2.77619163164e-08
4.43191398412e-08
5.12521857509e-08
6.09747205952e-08
3.50543219694e-08
3.7971740745e-08
9.46625069556e-09
1.35309320411e-08
2.63902977761e-09
3.65888432237e-10
5.08564000175e-08
5.37055786643e-08
2.67828941946e-08
3.21024745319e-09
4.10292439499e-09
2.69425297201e-08
3.6878942908e-08
1.28585989401e-08
1.31853707085e-08
5.8788221828e-09
7.88553444872e-10
9.80479216803e-09
1.02607201977e-08
3.46010249358e-08
6.14175586668e-09
6.41197140074e-09
1.65041132101e-08
9.24638653414e-09
1.29983845092e-09
2.26580513035e-08
1.49733894734e-08
2.10795395103e-08
1.23467973917e-08
1.28445378872e-08
3.65849566605e-08
1.90811423691e-09
1.084220533e-08
1.9177203177e-08
5.15252928144e-08
1.8647505721e-08
2.15481965852e-08
1.38768401892e-08
1.47281363126e-08
2.27773253782e-08
2.24432988316e-08
6.27901475709e-08
7.56380961796e-09
1.09138291992e-08
4.99573118472e-08
2.09675043343e-08
7.1353161693e-08
7.22645899255e-08
1.9843477793e-08
2.3821083067e-09
4.93567945963e-08
2.37116834453e-08
6.3431909042e-09
2.77969680226e-08
7.11832355701e-10
1.03001380723e-08
1.56558847136e-08
1.22378778231e-08
6.3589829432e-09
3.06469474921e-08
1.28974328446e-08
7.28365180658e-09
2.32485663171e-09
1.21054991334e-08
1.50705366318e-10
3.52112417479e-08
1.4501941223e-08
2.35475620897e-08
3.81124652315e-08
3.41653393903e-10
8.90492091913e-09
1.4484930543e-08
4.8282629333e-10
1.80158553898e-08
2.28376815952e-08
5.64892928236e-09
2.76388687477e-08
5.3499732041e-08
3.14016519295e-08
7.63604629615e-08
1.76689852771e-08
9.8701586212e-09
1.26489701964e-08
7.14029075773e-08
2.34699848187e-08
8.10253231629e-08
3.92180747838e-09
8.84420448943e-09
1.24063398068e-07
2.03334585819e-08
4.52920987417e-09
5.16365882125e-08
6.80773419489e-08
1.95484930481e-08
5.74432053123e-08
1.55578487632e-08
1.12452504761e-08
9.33700466222e-09
2.84981570718e-08
8.57104813085e-09
2.50146481705e-08
9.47965072584e-09
1.23806907791e-08
1.51153451535e-08
8.37752062903e-09
5.03803840969e-09
6.81749849939e-09
1.6524059062e-09
7.61490801214e-09
1.45250096033e-08
9.15266858542e-09
1.08279838908e-08
1.94523772512e-08
1.46761151215e-08
2.79623072218e-09
1.31106163211e-08
2.77973124296e-10
1.35674378996e-08
4.96835993744e-09
8.75774156359e-09
8.16835744759e-09
7.02629248204e-09
4.74419254265e-09
9.39598428416e-09
2.0508239386e-08
4.72957330883e-09
9.61310872463e-09
3.95828089185e-10
8.75867169882e-09
3.02891826835e-08
1.77838242016e-08
5.70808022619e-08
1.80227297771e-08
4.35533436081e-09
4.88497028671e-08
8.45700617014e-09
4.86824711089e-09
1.75902951838e-08
3.17795776314e-09
1.84211745483e-08
1.48616732449e-08
9.27140199664e-09
2.04575011799e-08
2.73291233285e-08
1.11498937496e-08
1.38584337566e-08
1.72942433703e-08
5.87421044278e-09
9.44237596283e-09
1.1069343194e-08
3.66076206588e-09
3.23472373855e-09
8.97345837566e-09
3.30107709916e-09
1.17087966848e-08
2.42254363298e-08
3.41009440727e-08
2.89332531151e-09
2.45282003123e-08
2.37237181455e-08
3.36769307324e-09
1.88849023832e-08
1.40509626938e-08
3.13646594242e-08
3.85095322968e-08
8.77811864606e-11
3.81729595235e-08
7.09294926287e-10
2.72483916057e-08
2.53763858231e-08
1.67018858039e-08
2.0647059165e-08
1.27615043659e-08
4.16029187221e-09
1.1525352294e-08
8.17469727843e-09
1.45493758982e-08
3.41604811644e-10
1.74076996333e-08
1.14791751229e-08
2.01534508586e-08
2.85983027772e-08
1.63031140475e-08
1.51527795872e-08
3.98443559728e-08
1.21793777341e-08
1.5636941364e-08
1.89382327325e-08
1.64337465791e-08
2.58326743988e-09
1.64100253319e-09
2.19842808187e-08
9.56729903308e-09
2.49979959617e-08
6.00627864776e-09
1.04478265357e-08
1.23868165836e-08
1.75776077123e-09
1.75348995443e-08
1.56622691622e-08
7.58743538687e-09
9.81308968325e-09
1.18476137402e-08
1.63809980044e-08
3.68234118944e-08
1.16354685471e-08
3.52921971295e-09
4.72186320699e-09
2.21314748701e-08
1.92181846191e-08
1.44280847615e-08
2.01223593984e-08
4.60267097169e-08
1.71797482077e-08
1.06471974378e-08
4.25224164032e-09
1.49767114439e-08
3.57356830206e-08
2.46185359998e-08
3.92359657417e-09
1.61651414872e-08
1.29189228631e-08
2.77590187022e-08
2.81209928301e-08
1.94806651554e-08
3.32601171511e-09
9.78838436557e-09
1.02094221456e-08
1.97007665487e-08
1.2524900739e-08
1.66486356132e-08
3.59468956016e-08
1.58695220388e-08
1.62450643745e-08
6.03059140516e-09
1.20868597728e-08
1.10495841645e-09
1.97140954335e-08
3.09417781617e-08
7.24140884802e-09
7.7849032992e-09
1.18255881772e-08
6.91872970378e-09
7.40600225211e-08
1.18952624941e-09
2.55360661792e-09
2.03332629127e-08
1.12910535874e-08
3.61291182503e-08
3.3388627289e-08
1.51278324653e-09
1.88016723997e-08
2.53632258518e-08
1.35359818318e-08
3.97310496101e-08
7.08996367947e-09
8.31004092046e-09
8.02031601857e-09
6.98645205682e-09
3.84155074815e-09
1.44947287168e-08
2.69034742119e-09
1.75075152118e-08
4.50766809082e-09
3.71978092501e-09
1.9613499027e-08
8.14431931053e-09
3.01273298034e-08
1.50057437678e-08
1.13395588413e-08
4.03319217674e-08
6.23632016585e-09
7.85938421934e-09
3.53863833174e-11
2.07916323014e-09
2.80436145284e-09
9.44115725279e-09
3.1054724196e-08
1.66920161365e-08
8.10238429219e-09
1.11792307512e-08
4.93485741418e-09
4.50295007694e-09
2.03024718688e-08
2.0552565834e-08
5.64274034359e-09
5.39019946868e-08
1.52468789328e-08
9.57498134862e-09
1.04594254964e-08
2.30094591674e-08
5.75190964514e-09
1.28995914812e-09
1.80463477445e-09
1.0644388365e-08
7.43588375508e-09
3.37144966263e-08
2.15838961743e-08
3.92635431982e-08
1.62535361222e-08
2.32096613106e-08
2.80361113061e-08
1.25930500264e-08
1.29978349252e-08
1.69072625834e-08
1.40721974425e-08
9.89568789612e-09
8.31357768239e-09
7.68591309859e-10
8.12726005751e-09
3.48567214407e-09
1.62553646097e-08
8.39691775493e-10
2.80703384785e-08
7.22430460782e-09
3.72238881886e-09
1.06132509635e-08
2.33957718113e-08
9.55514856366e-09
5.72312457895e-09
4.18013109646e-09
1.88147768958e-09
2.40084481399e-08
5.81433103438e-08
1.05078357922e-08
9.31715546027e-10
8.58595406559e-09
4.69589486094e-11
7.47758431265e-09
1.81226773951e-09
1.74976463565e-08
1.91291999583e-08
1.51021650313e-08
3.75134338778e-08
7.6299976898e-09
1.04888599749e-08
2.67760464241e-09
1.6806099375e-08
1.89625292716e-08
1.47220018272e-08
3.52984197018e-09
2.23097606816e-08
9.26320059453e-09
3.125896097e-08
2.94055027837e-08
4.97943906453e-09
1.32690662654e-08
7.23135387931e-09
2.35643368909e-08
2.18657864152e-08
1.06252647717e-08
9.18667654125e-09
5.59944971449e-09
1.10351225146e-08
6.7722626384e-09
1.36978885202e-08
1.578219165e-08
2.46862491712e-08
6.12357816482e-09
8.91133132133e-10
9.7486630205e-09
1.19240757972e-08
2.40214101763e-08
3.84740839082e-09
2.42683934601e-08
1.17588850144e-09
5.84465000178e-09
8.48384903362e-10
1.35159431718e-08
4.90674477992e-09
8.25358957164e-10
1.4979213265e-08
1.97973396048e-09
5.31201628466e-09
4.22629484769e-09
1.19457961493e-08
4.40899307823e-09
3.77477978075e-09
6.49977304921e-09
7.26360540988e-09
2.50174569419e-09
1.04092719571e-09
2.17435083858e-08
3.81926014206e-09
2.28540166093e-08
1.95908324007e-08
1.39757414463e-08
2.59132107278e-08
5.39202453464e-10
1.70076736073e-08
1.54269697361e-08
2.06079640457e-09
1.61053109741e-08
9.70401678968e-11
1.22489402814e-08
1.41693937639e-08
4.40715095199e-10
8.55482707422e-09
3.35753071207e-08
1.21418161816e-08
1.21780838239e-08
7.44872294504e-10
4.49837762766e-09
3.96898104217e-09
8.23573989716e-09
7.19128994746e-09
1.02446749785e-08
3.38579202099e-09
1.19404919917e-08
1.16785686845e-08
1.45414523589e-08
1.78583301387e-08
5.42533811634e-09
1.66834250848e-08
6.0074195278e-09
1.60246243297e-08
9.96434444035e-09
1.7496230309e-08
6.04024633301e-09
9.96815102724e-09
5.75486855747e-09
3.86134681969e-09
7.76872269868e-09
8.1357677147e-09
1.87577346618e-09
9.31320138764e-09
3.31777992057e-09
3.06760108134e-08
1.71123724006e-08
1.08754938106e-10
2.36418690996e-08
9.97969491785e-09
1.51172117617e-08
6.17775138262e-09
5.86138723397e-08
5.36691782513e-09
6.16594922058e-09
8.39883357838e-09
5.82547719713e-09
8.35358960983e-09
1.06962673192e-08
2.57611296417e-10
3.19774615976e-08
3.20537570504e-09
3.05370329309e-09
1.64726960836e-08
3.586555601e-09
3.83776165123e-08
4.78057269182e-08
4.81334271184e-09
1.32168415804e-08
3.34753389235e-08
4.8866450459e-09
2.41301549662e-08
1.10880533987e-08
1.07113453733e-08
2.3927108404e-08
1.56297023467e-08
8.23526123733e-09
5.10508801783e-08
3.73761578934e-08
2.57091133981e-09
7.13559002643e-08
2.20207563299e-08
1.33239537435e-08
2.42334859488e-08
2.8040373105e-10
1.41536019644e-08
1.28157125522e-08
1.29716902403e-08
1.21585121563e-08
9.4011723876e-10
3.3268693088e-08
2.12369465904e-08
1.06721997678e-09
1.45134392389e-08
8.06950040665e-09
2.52032259375e-08
3.1488189066e-08
4.60385665357e-09
1.76337046567e-08
3.54439564845e-08
1.0470882241e-08
1.89629365411e-08
1.06702472898e-08
3.68256986333e-09
1.52577979122e-08
5.73025572691e-09
2.42462935182e-08
5.77253451635e-09
8.63518869701e-09
1.3791900059e-08
2.63840582999e-09
4.53382114207e-09
5.05784940744e-10
1.40566301351e-08
8.5180034279e-10
3.2782900072e-09
1.81968669166e-09
9.58669088439e-09
1.32678353571e-08
9.01373383492e-09
6.51876152791e-10
1.08144658159e-08
6.24589007365e-09

