# vtk DataFile Version 3.0
File Name: Molecule/sphere_cent/sphere_cent_0-s4.vtk
ASCII
DATASET UNSTRUCTURED_GRID
FIELD FieldData 1
TIME 1 1 double
0.0
POINTS 120 double
0.850650808352 -0.525731112119 0.0
0.809016994375 -0.309016994375 -0.5
1.0 0.0 0.0
0.809016994375 0.309016994375 -0.5
0.525731112119 0.0 -0.850650808352
0.850650808352 0.525731112119 0.0
0.688190960236 0.587785252292 -0.425325404176
0.5 0.809016994375 -0.309016994375
0.587785252292 0.425325404176 -0.688190960236
0.425325404176 0.688190960236 -0.587785252292
0.309016994375 0.5 -0.809016994375
0.0 0.850650808352 -0.525731112119
0.525731112119 0.850650808352 0.0
0.5 0.809016994375 0.309016994375
0.26286555606 0.951056516295 -0.162459848116
0.26286555606 0.951056516295 0.162459848116
0.0 1.0 0.0
0.0 0.850650808352 0.525731112119
-0.26286555606 0.951056516295 0.162459848116
-0.26286555606 0.951056516295 -0.162459848116
-0.525731112119 0.850650808352 0.0
-0.5 0.809016994375 -0.309016994375
-0.5 0.809016994375 0.309016994375
-0.850650808352 0.525731112119 0.0
0.0 0.525731112119 0.850650808352
0.309016994375 0.5 0.809016994375
-0.309016994375 0.5 0.809016994375
-0.162459848116 0.26286555606 0.951056516295
0.162459848116 0.26286555606 0.951056516295
0.0 0.0 1.0
-0.525731112119 0.0 0.850650808352
0.525731112119 0.0 0.850650808352
0.309016994375 -0.5 -0.809016994375
0.162459848116 -0.26286555606 -0.951056516295
0.0 0.0 -1.0
0.0 -0.525731112119 -0.850650808352
-0.162459848116 -0.26286555606 -0.951056516295
-0.309016994375 -0.5 -0.809016994375
0.0 -0.850650808352 -0.525731112119
-0.525731112119 0.0 -0.850650808352
0.688190960236 0.587785252292 0.425325404176
0.809016994375 0.309016994375 0.5
0.425325404176 0.688190960236 0.587785252292
0.587785252292 0.425325404176 0.688190960236
-0.309016994375 0.5 -0.809016994375
-0.425325404176 0.688190960236 -0.587785252292
-0.587785252292 0.425325404176 -0.688190960236
-0.688190960236 0.587785252292 -0.425325404176
-0.809016994375 0.309016994375 -0.5
-0.850650808352 0.0 0.525731112119
-0.809016994375 -0.309016994375 0.5
-0.809016994375 0.309016994375 0.5
-0.951056516295 0.162459848116 0.26286555606
-0.951056516295 -0.162459848116 0.26286555606
-1.0 0.0 0.0
0.587785252292 -0.425325404176 -0.688190960236
0.688190960236 -0.587785252292 -0.425325404176
0.425325404176 -0.688190960236 -0.587785252292
0.5 -0.809016994375 -0.309016994375
0.162459848116 0.26286555606 -0.951056516295
-0.162459848116 0.26286555606 -0.951056516295
0.0 0.525731112119 -0.850650808352
0.951056516295 -0.162459848116 0.26286555606
0.951056516295 0.162459848116 0.26286555606
0.850650808352 0.0 0.525731112119
0.809016994375 -0.309016994375 0.5
-0.69378047756 -0.16062203564 -0.702046444776
-0.69378047756 0.16062203564 -0.702046444776
-0.850650808352 0.0 -0.525731112119
-0.809016994375 -0.309016994375 -0.5
-0.951056516295 -0.162459848116 -0.26286555606
-0.951056516295 0.162459848116 -0.26286555606
-0.862668480416 -0.433888564553 -0.259891913008
-0.961938357784 -0.273266528913 0.0
-0.850650808352 -0.525731112119 0.0
-0.862668480416 0.433888564553 -0.259891913008
-0.961938357784 0.273266528913 0.0
-0.702046444776 -0.69378047756 -0.16062203564
-0.702046444776 -0.69378047756 0.16062203564
-0.525731112119 -0.850650808352 0.0
-0.5 -0.809016994375 -0.309016994375
-0.5 -0.809016994375 0.309016994375
-0.26286555606 -0.951056516295 -0.162459848116
-0.26286555606 -0.951056516295 0.162459848116
0.0 -1.0 0.0
0.0 -0.850650808352 0.525731112119
-0.862668480416 -0.433888564553 0.259891913008
-0.688190960236 -0.587785252292 0.425325404176
-0.425325404176 -0.688190960236 0.587785252292
-0.587785252292 -0.425325404176 0.688190960236
-0.309016994375 -0.5 0.809016994375
-0.433888564553 -0.259891913008 -0.862668480416
-0.587785252292 -0.425325404176 -0.688190960236
-0.425325404176 -0.688190960236 -0.587785252292
-0.688190960236 -0.587785252292 -0.425325404176
0.26286555606 -0.951056516295 -0.162459848116
0.525731112119 -0.850650808352 0.0
0.26286555606 -0.951056516295 0.162459848116
0.5 -0.809016994375 0.309016994375
-0.259891913008 0.862668480416 0.433888564553
-0.16062203564 0.702046444776 0.69378047756
-0.425325404176 0.688190960236 0.587785252292
-0.688190960236 0.587785252292 0.425325404176
-0.587785252292 0.425325404176 0.688190960236
-0.702046444776 0.69378047756 0.16062203564
-0.862668480416 0.433888564553 0.259891913008
-0.433888564553 0.259891913008 0.862668480416
-0.69378047756 0.16062203564 0.702046444776
-0.162459848116 -0.26286555606 0.951056516295
0.0 -0.525731112119 0.850650808352
0.162459848116 -0.26286555606 0.951056516295
0.309016994375 -0.5 0.809016994375
-0.16062203564 -0.702046444776 0.69378047756
0.16062203564 -0.702046444776 0.69378047756
0.587785252292 -0.425325404176 0.688190960236
0.425325404176 -0.688190960236 0.587785252292
0.688190960236 -0.587785252292 0.425325404176
0.259891913008 -0.862668480416 0.433888564553
0.862668480416 -0.433888564553 0.259891913008
0.702046444776 -0.69378047756 0.16062203564

CELLS 236 944
3 0 1 2
3 1 3 2
3 1 4 3
3 2 3 5
3 3 6 5
3 5 6 7
3 3 8 6
3 8 9 6
3 8 10 9
3 6 9 7
3 10 8 4
3 4 8 3
3 7 9 11
3 9 10 11
3 7 12 5
3 5 12 13
3 7 14 12
3 14 15 12
3 14 16 15
3 12 15 13
3 16 14 11
3 11 14 7
3 13 15 17
3 15 16 17
3 16 18 17
3 16 19 18
3 19 20 18
3 19 21 20
3 18 20 22
3 21 19 11
3 11 19 16
3 20 21 23
3 17 24 25
3 26 27 24
3 27 28 24
3 27 29 28
3 24 28 25
3 29 27 30
3 25 28 31
3 28 29 31
3 32 33 4
3 4 33 34
3 32 35 33
3 35 36 33
3 35 37 36
3 33 36 34
3 37 35 38
3 38 35 32
3 34 36 39
3 13 40 5
3 5 40 41
3 13 42 40
3 42 43 40
3 42 25 43
3 40 43 41
3 25 42 17
3 17 42 13
3 41 43 31
3 43 25 31
3 44 45 11
3 11 45 21
3 44 46 45
3 46 47 45
3 46 48 47
3 45 47 21
3 39 46 44
3 21 47 23
3 30 49 50
3 51 52 49
3 52 53 49
3 52 54 53
3 49 53 50
3 1 55 4
3 4 55 32
3 1 56 55
3 56 57 55
3 56 58 57
3 55 57 32
3 58 56 0
3 0 56 1
3 32 57 38
3 57 58 38
3 34 59 4
3 4 59 10
3 34 60 59
3 60 61 59
3 60 44 61
3 59 61 10
3 44 60 39
3 39 60 34
3 10 61 11
3 61 44 11
3 2 62 0
3 2 63 62
3 63 64 62
3 63 41 64
3 62 64 65
3 41 63 5
3 5 63 2
3 65 64 31
3 64 41 31
3 39 66 67
3 66 68 67
3 66 69 68
3 67 68 48
3 69 70 68
3 70 71 68
3 70 54 71
3 68 71 48
3 69 72 70
3 72 73 70
3 72 74 73
3 70 73 54
3 48 71 75
3 71 76 75
3 71 54 76
3 75 76 23
3 74 77 78
3 77 79 78
3 77 80 79
3 78 79 81
3 80 82 79
3 82 83 79
3 82 84 83
3 79 83 81
3 84 82 38
3 38 82 80
3 81 83 85
3 83 84 85
3 74 78 86
3 78 87 86
3 78 81 87
3 86 87 50
3 81 88 87
3 88 89 87
3 88 90 89
3 87 89 50
3 85 88 81
3 50 89 30
3 89 90 30
3 39 91 66
3 91 92 66
3 91 37 92
3 66 92 69
3 37 93 92
3 93 94 92
3 93 80 94
3 92 94 69
3 80 93 38
3 38 93 37
3 69 94 72
3 94 77 72
3 94 80 77
3 72 77 74
3 58 95 38
3 38 95 84
3 58 96 95
3 96 97 95
3 96 98 97
3 95 97 84
3 0 96 58
3 84 97 85
3 37 91 36
3 36 91 39
3 39 67 46
3 46 67 48
3 48 75 47
3 47 75 23
3 23 76 52
3 52 76 54
3 74 86 53
3 53 86 50
3 54 73 53
3 53 73 74
3 17 99 100
3 99 101 100
3 99 22 101
3 100 101 26
3 22 102 101
3 102 103 101
3 102 51 103
3 101 103 26
3 22 104 102
3 104 105 102
3 104 23 105
3 102 105 51
3 26 103 106
3 103 107 106
3 103 51 107
3 106 107 30
3 90 108 30
3 30 108 29
3 90 109 108
3 109 110 108
3 109 111 110
3 108 110 29
3 90 112 109
3 112 113 109
3 112 85 113
3 109 113 111
3 29 110 31
3 110 111 31
3 111 114 31
3 31 114 65
3 111 115 114
3 115 116 114
3 115 98 116
3 114 116 65
3 111 113 115
3 113 117 115
3 113 85 117
3 115 117 98
3 65 116 118
3 116 119 118
3 116 98 119
3 118 119 0
3 22 99 18
3 18 99 17
3 23 104 20
3 20 104 22
3 17 100 24
3 24 100 26
3 26 106 27
3 27 106 30
3 30 107 49
3 49 107 51
3 51 105 52
3 52 105 23
3 65 118 62
3 62 118 0
3 85 112 88
3 88 112 90
3 0 119 96
3 96 119 98
3 98 117 97
3 97 117 85

CELL_TYPES 236
5
5
5
5
5
5
5
5
5
5
5
5
5
5
5
5
5
5
5
5
5
5
5
5
5
5
5
5
5
5
5
5
5
5
5
5
5
5
5
5
5
5
5
5
5
5
5
5
5
5
5
5
5
5
5
5
5
5
5
5
5
5
5
5
5
5
5
5
5
5
5
5
5
5
5
5
5
5
5
5
5
5
5
5
5
5
5
5
5
5
5
5
5
5
5
5
5
5
5
5
5
5
5
5
5
5
5
5
5
5
5
5
5
5
5
5
5
5
5
5
5
5
5
5
5
5
5
5
5
5
5
5
5
5
5
5
5
5
5
5
5
5
5
5
5
5
5
5
5
5
5
5
5
5
5
5
5
5
5
5
5
5
5
5
5
5
5
5
5
5
5
5
5
5
5
5
5
5
5
5
5
5
5
5
5
5
5
5
5
5
5
5
5
5
5
5
5
5
5
5
5
5
5
5
5
5
5
5
5
5
5
5
5
5
5
5
5
5
5
5
5
5
5
5
5
5
5
5
5
5
5
5
5
5
5
5

CELL_DATA 236
SCALARS cell_data_0 double
LOOKUP_TABLE default
4.68394087987e-06
9.80330778856e-06
6.57048710026e-06
6.87332265213e-06
1.5444740647e-06
1.89223507013e-06
3.03709345212e-07
2.24560600684e-07
8.80637341404e-07
6.07168197644e-07
8.54407467264e-07
9.62772976341e-07
8.36756014886e-08
5.94591171748e-07
1.94718197117e-06
1.05038377734e-06
2.65250943842e-07
2.79011233377e-08
4.02191169023e-07
9.26787475339e-07
3.62865080576e-07
3.80956969624e-07
6.27949257095e-07
3.79107517328e-07
7.52057077169e-07
3.44755737956e-07
1.27173589034e-07
5.8677921555e-07
5.61362722503e-08
2.72065029901e-07
3.3663362443e-07
1.66182975e-06
7.85817982158e-08
3.29722528244e-07
1.70843805776e-08
3.99617660159e-07
7.4562157258e-07
9.10915587923e-07
4.38990274847e-09
6.54510608575e-07
8.84533440336e-07
2.87844463189e-07
3.76198489036e-07
3.76688876642e-07
5.42922870877e-07
7.98909522533e-07
4.02568005155e-07
2.97406846564e-07
1.4146160017e-06
9.68839586972e-07
1.4568686974e-06
1.26411400021e-06
2.40713160079e-07
1.03177958582e-06
5.50771558841e-07
7.46821861041e-07
1.08937637242e-06
2.95285547167e-07
8.55174105813e-08
4.15216034666e-07
3.20818711741e-07
2.76111759115e-07
2.55807753447e-07
7.64465723095e-08
2.29195610229e-07
2.25859110069e-06
2.12300650458e-06
1.28533913497e-06
1.85506800243e-07
4.83494653323e-08
1.23193352405e-07
8.89233775566e-08
1.07937604453e-06
1.04327126002e-06
7.36270492144e-08
3.25020888273e-07
4.56921114801e-07
4.95941170732e-07
5.1036980308e-07
5.93178184401e-07
2.05001124381e-08
4.59950354039e-08
2.43450451519e-07
7.94263999821e-07
9.71770672625e-07
1.1475544323e-08
3.53493957572e-07
6.38167497722e-07
1.98715423884e-06
1.00621984212e-06
1.31888522824e-07
3.7430373201e-07
1.25318625114e-07
5.80453935364e-07
7.89071746852e-08
6.3741386797e-07
1.89044061425e-07
1.56549133942e-06
1.16226822025e-06
5.73566617091e-07
1.09703445054e-07
1.58723053037e-07
2.55586441397e-07
1.02315630018e-07
2.11527051562e-07
2.55171963134e-07
3.74059637059e-07
2.50698293453e-07
4.87047682e-08
1.59569749899e-07
3.21715355215e-07
7.23611156248e-07
2.44609804937e-07
3.08256260489e-07
3.23232058496e-08
8.41891198097e-08
3.01720983187e-07
1.08538645308e-06
7.31045130282e-07
4.32291441065e-07
1.17614671845e-06
7.25566939198e-08
2.3877110661e-07
7.88218814977e-07
7.80867152047e-07
2.24797439084e-07
4.45343409219e-07
2.48551218235e-07
1.09503081488e-08
9.66519493986e-07
7.75168317802e-07
1.40544327922e-06
3.23856837271e-07
7.70295361704e-07
1.44305597115e-07
2.09722401848e-07
2.5565091197e-07
3.93751929269e-07
8.0609045995e-07
3.30576945418e-07
5.36754712861e-09
6.35825140589e-08
7.64552594927e-07
7.25976187339e-08
7.32497191259e-07
1.71453789312e-07
2.24516246949e-07
1.40440959835e-07
3.38616534637e-07
5.93820507713e-07
2.32910530059e-07
4.48800521451e-07
5.10751660921e-07
7.20909031165e-07
1.74286330745e-08
4.525363003e-07
6.17330622929e-07
2.41968058587e-07
2.55067135567e-07
6.92972344703e-07
4.40275008168e-07
6.04595332013e-07
7.53029596028e-07
3.06505963924e-07
3.93511269138e-07
3.06854249914e-07
3.38931508845e-07
2.70362410202e-07
2.31695222671e-07
2.6388290274e-07
1.12351563928e-07
3.71667727891e-07
4.93429298716e-07
2.28395725049e-07
8.40405407148e-07
5.24201655853e-08
5.90245363853e-08
4.7836029086e-07
5.31494474801e-08
1.91109129648e-07
2.0371940361e-07
1.34915333609e-07
1.01221644408e-08
1.85062511676e-07
2.92741819488e-08
2.58944955094e-08
1.07046777175e-07
2.13849201863e-07
1.00526014732e-08
6.85734727284e-07
4.17955898277e-07
8.25784272866e-07
3.58903015945e-07
4.7937014337e-08
2.68319218017e-07
4.29654391801e-07
2.10783263527e-07
2.51145537282e-07
3.41859405642e-07
2.04032825548e-09
4.41167646056e-07
5.1341300968e-07
6.70106431316e-07
6.12134836888e-07
1.41364198138e-07
5.55098606267e-08
1.33470112118e-07
1.78677084148e-07
2.09332572311e-08
2.39449642343e-07
3.69647129386e-07
5.59971730811e-08
1.42639596844e-08
2.67042843463e-07
5.33281420734e-08
5.80421012916e-07
3.53527702237e-08
3.6031557134e-07
1.27673284451e-07
1.83581913926e-07
5.81698174927e-07
5.00996706132e-07
3.42330290332e-07
2.70876577861e-07
3.04100097343e-07
6.84333058037e-08
2.60120918099e-08
4.46018868505e-07
1.47282580957e-08
2.28721119269e-07
4.08489635471e-08
8.61993815963e-08
3.13544429558e-07
1.41394900671e-08
1.33556921121e-07
9.11507150539e-09

