# vtk DataFile Version 3.0
File Name: Molecule/sphere_cent/sphere_cent_0-s2.vtk
ASCII
DATASET UNSTRUCTURED_GRID
FIELD FieldData 1
TIME 1 1 double
0.0
POINTS 72 double
0.850650808352 -0.525731112119 0.0
0.809016994375 -0.309016994375 -0.5
1.0 0.0 0.0
0.809016994375 0.309016994375 -0.5
0.525731112119 0.0 -0.850650808352
0.850650808352 0.525731112119 0.0
0.0 0.850650808352 0.525731112119
-0.5 0.809016994375 0.309016994375
-0.309016994375 0.5 0.809016994375
-0.809016994375 0.309016994375 0.5
-0.850650808352 0.525731112119 0.0
-0.525731112119 0.0 0.850650808352
-0.309016994375 -0.5 0.809016994375
0.0 0.0 1.0
0.309016994375 -0.5 0.809016994375
0.0 -0.850650808352 0.525731112119
0.525731112119 0.0 0.850650808352
0.809016994375 -0.309016994375 0.5
0.5 -0.809016994375 0.309016994375
0.809016994375 0.309016994375 0.5
-0.525731112119 0.0 -0.850650808352
-0.809016994375 -0.309016994375 -0.5
-0.809016994375 0.309016994375 -0.5
-1.0 0.0 0.0
-0.850650808352 -0.525731112119 0.0
-0.5 -0.809016994375 -0.309016994375
-0.5 -0.809016994375 0.309016994375
0.0 -1.0 0.0
0.0 -0.850650808352 -0.525731112119
-0.809016994375 -0.309016994375 0.5
-0.309016994375 -0.5 -0.809016994375
0.5 -0.809016994375 -0.309016994375
0.688190960236 0.587785252292 -0.425325404176
0.5 0.809016994375 -0.309016994375
0.587785252292 0.425325404176 -0.688190960236
0.425325404176 0.688190960236 -0.587785252292
0.309016994375 0.5 -0.809016994375
0.0 0.850650808352 -0.525731112119
0.525731112119 0.850650808352 0.0
0.5 0.809016994375 0.309016994375
0.26286555606 0.951056516295 -0.162459848116
0.26286555606 0.951056516295 0.162459848116
0.0 1.0 0.0
-0.26286555606 0.951056516295 0.162459848116
-0.26286555606 0.951056516295 -0.162459848116
-0.525731112119 0.850650808352 0.0
-0.5 0.809016994375 -0.309016994375
0.0 0.525731112119 0.850650808352
0.309016994375 0.5 0.809016994375
-0.162459848116 0.26286555606 0.951056516295
0.162459848116 0.26286555606 0.951056516295
0.309016994375 -0.5 -0.809016994375
0.162459848116 -0.26286555606 -0.951056516295
0.0 0.0 -1.0
0.0 -0.525731112119 -0.850650808352
-0.162459848116 -0.26286555606 -0.951056516295
0.688190960236 0.587785252292 0.425325404176
0.425325404176 0.688190960236 0.587785252292
0.587785252292 0.425325404176 0.688190960236
-0.309016994375 0.5 -0.809016994375
-0.425325404176 0.688190960236 -0.587785252292
-0.587785252292 0.425325404176 -0.688190960236
-0.688190960236 0.587785252292 -0.425325404176
-0.850650808352 0.0 0.525731112119
-0.951056516295 0.162459848116 0.26286555606
-0.951056516295 -0.162459848116 0.26286555606
0.587785252292 -0.425325404176 -0.688190960236
0.688190960236 -0.587785252292 -0.425325404176
0.425325404176 -0.688190960236 -0.587785252292
0.162459848116 0.26286555606 -0.951056516295
-0.162459848116 0.26286555606 -0.951056516295
0.0 0.525731112119 -0.850650808352

CELLS 140 560
3 0 1 2
3 1 3 2
3 1 4 3
3 2 3 5
3 6 7 8
3 7 9 8
3 7 10 9
3 8 9 11
3 11 12 13
3 12 14 13
3 12 15 14
3 13 14 16
3 16 14 17
3 14 18 17
3 14 15 18
3 17 18 0
3 0 2 17
3 2 19 17
3 2 5 19
3 17 19 16
3 20 21 22
3 21 23 22
3 21 24 23
3 22 23 10
3 24 25 26
3 25 27 26
3 25 28 27
3 26 27 15
3 24 26 29
3 26 12 29
3 26 15 12
3 29 12 11
3 20 30 21
3 30 25 21
3 30 28 25
3 21 25 24
3 28 31 27
3 31 18 27
3 31 0 18
3 27 18 15
3 3 32 5
3 5 32 33
3 3 34 32
3 34 35 32
3 34 36 35
3 32 35 33
3 36 34 4
3 4 34 3
3 33 35 37
3 35 36 37
3 33 38 5
3 5 38 39
3 33 40 38
3 40 41 38
3 40 42 41
3 38 41 39
3 42 40 37
3 37 40 33
3 39 41 6
3 41 42 6
3 42 43 6
3 6 43 7
3 42 44 43
3 44 45 43
3 44 46 45
3 43 45 7
3 46 44 37
3 37 44 42
3 7 45 10
3 45 46 10
3 8 47 6
3 6 47 48
3 8 49 47
3 49 50 47
3 49 13 50
3 47 50 48
3 13 49 11
3 11 49 8
3 48 50 16
3 50 13 16
3 51 52 4
3 4 52 53
3 51 54 52
3 54 55 52
3 54 30 55
3 52 55 53
3 30 54 28
3 28 54 51
3 53 55 20
3 55 30 20
3 39 56 5
3 5 56 19
3 39 57 56
3 57 58 56
3 57 48 58
3 56 58 19
3 48 57 6
3 6 57 39
3 19 58 16
3 58 48 16
3 59 60 37
3 37 60 46
3 59 61 60
3 61 62 60
3 61 22 62
3 60 62 46
3 22 61 20
3 20 61 59
3 46 62 10
3 62 22 10
3 9 63 11
3 11 63 29
3 9 64 63
3 64 65 63
3 64 23 65
3 63 65 29
3 23 64 10
3 10 64 9
3 29 65 24
3 65 23 24
3 1 66 4
3 4 66 51
3 1 67 66
3 67 68 66
3 67 31 68
3 66 68 51
3 31 67 0
3 0 67 1
3 51 68 28
3 68 31 28
3 53 69 4
3 4 69 36
3 53 70 69
3 70 71 69
3 70 59 71
3 69 71 36
3 59 70 20
3 20 70 53
3 36 71 37
3 71 59 37

CELL_TYPES 140
5
5
5
5
5
5
5
5
5
5
5
5
5
5
5
5
5
5
5
5
5
5
5
5
5
5
5
5
5
5
5
5
5
5
5
5
5
5
5
5
5
5
5
5
5
5
5
5
5
5
5
5
5
5
5
5
5
5
5
5
5
5
5
5
5
5
5
5
5
5
5
5
5
5
5
5
5
5
5
5
5
5
5
5
5
5
5
5
5
5
5
5
5
5
5
5
5
5
5
5
5
5
5
5
5
5
5
5
5
5
5
5
5
5
5
5
5
5
5
5
5
5
5
5
5
5
5
5
5
5
5
5
5
5
5
5
5
5
5
5

CELL_DATA 140
SCALARS cell_data_0 double
LOOKUP_TABLE default
1.11937557753e-07
1.60559584953e-06
6.36040951128e-07
5.54507131852e-07
9.8616169149e-08
2.23927448845e-06
3.80002012819e-07
2.53145847268e-07
8.43641390921e-07
2.49768291197e-06
5.73248093723e-07
7.44115874381e-07
1.0515188178e-06
2.14248132653e-06
4.80085697031e-07
3.63875881533e-07
1.90782143426e-07
5.33284301643e-06
2.67522035803e-06
2.6891525972e-06
4.50804442383e-06
9.80814416036e-06
4.16492025613e-06
5.18195036494e-06
2.70297641425e-06
7.23590840025e-06
1.28277187594e-06
4.03506035641e-06
5.11208260519e-06
7.49413801017e-06
2.24443572622e-06
2.47253037495e-06
1.94790897107e-06
4.77723224945e-06
3.82476556881e-07
1.77642367884e-06
3.86494588613e-06
7.61734450709e-06
3.57095387502e-06
2.3224993583e-06
1.91310854693e-06
8.19413612508e-07
1.40306162027e-06
1.00345624702e-07
6.90828167732e-07
1.03874464874e-06
2.00025692126e-07
1.13536516747e-06
5.38085261479e-07
7.2950991297e-07
9.35139595838e-08
8.02317384664e-07
8.89491298344e-07
1.67796842454e-08
1.373345776e-06
8.53378836243e-07
1.86504479559e-06
1.06740722016e-06
7.37015582719e-07
7.89384458859e-07
1.58362903795e-06
1.66355897941e-06
1.26668613362e-06
7.79012586132e-08
5.20445502994e-07
1.32938571609e-06
3.58568420952e-07
8.57553151546e-07
1.01844761553e-06
4.3190672027e-07
2.09338818499e-06
1.39812861134e-06
1.68694834261e-06
6.11690917534e-07
1.15819853017e-06
1.78715428877e-06
3.6808302951e-07
1.20802903745e-06
1.15919094714e-06
9.74247895769e-07
5.67063082888e-07
5.05442961647e-07
7.51330822707e-07
4.44279634665e-07
8.16367336664e-07
7.22705654773e-07
8.31440345087e-07
5.12241344118e-07
2.36281033919e-07
6.06620343054e-07
1.03771782653e-06
2.92797994533e-07
1.01623186658e-06
1.21359557017e-07
1.25594378801e-06
5.26235201508e-07
6.119679049e-07
7.43212674884e-07
6.88695029517e-08
1.15099000439e-06
2.91874727575e-07
7.8855046217e-07
4.51314130095e-07
3.28921381826e-07
3.24682644914e-08
7.36879690249e-07
7.96430693934e-07
4.47782081429e-07
3.63848760093e-07
4.35662497268e-07
5.02707836218e-07
7.96103540659e-07
6.3233044227e-07
7.11351787244e-07
4.32022048659e-08
6.29543086901e-08
3.75250743733e-07
8.15364483091e-07
7.48905931793e-07
6.82683762716e-07
1.25615220386e-06
5.42618747479e-07
8.96813425485e-07
5.16699195332e-07
2.0691465143e-08
7.91237294506e-07
8.63837790677e-07
6.27535436235e-07
5.71009858287e-07
3.42628762795e-07
6.81153424502e-07
4.30711024259e-07
9.53620370228e-07
1.26992540784e-07
5.32953919469e-07
7.72223046251e-07
2.35716665478e-07
4.5283335067e-07
6.60501783194e-07
2.3077037516e-07

