# vtk DataFile Version 3.0
File Name: Molecule/sphere_cent/sphere_cent_0-s2.vtk
ASCII
DATASET UNSTRUCTURED_GRID
FIELD FieldData 1
TIME 1 1 double
0.0
POINTS 122 double
0.525393188 0.00028676434886 0.85082149506
0.32157284021 -0.50307554007 0.80023211241
0.8089632988 -0.30898606777 0.49997255206
0.49991488457 -0.80918830633 0.30854144692
-0.00016847962979 -0.85064834356 0.52578872442
0.85069191456 -0.52560502291 -0.00045654579299
0.99868601561 2.9226805054e-05 0.016446720809
0.81584811211 0.29554396868 0.49464190006
0.85052973032 0.52592593431 -0.00016052485444
-0.48976743221 -0.80905103683 0.3198377192
-0.32238930464 -0.50312256813 0.79811060429
-0.80069458485 -0.30715966225 0.51020079851
-0.52566444874 0.00025649991585 0.8507027626
0.5089956522 -0.80610573292 -0.29708743095
0.0051238923334 -0.9983394146 0.013520065695
0.80887335539 -0.30894631147 -0.49994370341
0.95139950514 -0.16108344495 -0.26272428036
0.85139346123 1.8562945115e-05 -0.52479976416
0.95142197609 0.16134890914 -0.26265195012
0.80888444185 0.30897369981 -0.4999333322
0.52573108673 7.2549064534e-09 -0.85065078735
0.68760722876 0.58782070875 -0.42641094327
0.50218629837 0.80795890093 -0.30753493309
0.58786356449 0.42631855607 -0.68766796589
0.42832654715 0.68642300367 -0.5878264308
0.31020399928 0.49776941538 -0.80958884954
0.25770196319 0.86275476217 -0.43497696519
0.15931233764 0.70364052057 -0.69243866205
-3.0830786812e-08 0.85065078735 -0.52573114634
0.52476769686 0.8513070941 -2.1418694814e-05
0.50213110447 0.80792629719 0.30766403675
0.26460799575 0.95107662678 -0.15968067944
0.26462766528 0.95105803013 0.15974387527
-5.5655925735e-07 0.99998730421 1.5547563237e-11
9.8219039501e-05 0.96110183001 -0.27603763342
0.25761473179 0.86290198565 0.43473875523
9.5452938695e-05 0.96110361814 0.27603167295
-1.6001819869e-09 0.85065078735 0.52573108673
-0.25719642639 0.8628154397 0.43510013819
-0.26447579265 0.95103603601 0.15984404087
-0.49999383092 0.80900639296 0.30901360512
-0.26450943947 0.95102006197 -0.15988023579
-0.52313035727 0.852232337 -7.2789055139e-07
-0.49999392033 0.80900639296 -0.30901372433
-0.25721058249 0.86287945509 -0.43496200442
-0.70382028818 0.69231808186 0.15889376402
-0.70384657383 0.69228088856 -0.15892745554
-0.85065078735 0.52573114634 -2.7074471554e-09
-0.15913197398 0.70362579823 0.6924957633
-0.42809268832 0.68648773432 0.58782124519
-0.31038790941 0.49755132198 0.80972385406
-0.6865618825 0.58773934841 0.42808043957
-0.58779150248 0.42626282573 0.68767625093
-0.80805301666 0.30747047067 0.50205469131
-0.86279684305 0.43491777778 0.25765964389
0.1591848582 0.70365983248 0.692453444
1.6133950339e-05 0.52284234762 0.85253399611
0.3106123209 0.4974565208 0.80977928638
-0.16142806411 0.26345291734 0.951156497
0.16135196388 0.26347771287 0.95111966133
-1.3703373043e-05 2.5106728572e-05 0.99983477592
-0.16216006875 -0.2639914155 0.95089125633
-9.1597670689e-05 -0.52521157265 0.85102945566
0.16207273304 -0.26399067044 0.95091277361
0.31021466851 -0.49778175354 -0.80957859755
0.16156490147 -0.26345482469 -0.95113122463
0.0025452766567 -4.3667860439e-08 -0.99972057343
-1.6365371266e-05 -0.52291470766 -0.85242038965
-0.15967926383 -0.26452720165 -0.95109826326
-0.30901354551 -0.49999380112 -0.80900645256
0.15910804272 -0.70354306698 -0.69257986546
-0.1589089334 -0.70382916927 -0.69230294228
-1.2875223554e-08 -0.85065078735 -0.52573108673
-0.27561080456 -0.00014182362065 -0.96124744415
-0.43493697047 -0.2572067976 -0.86289542913
-0.52573114634 6.0572089011e-11 -0.85065078735
0.68825858831 0.58713960648 0.42633700371
0.42819195986 0.68646895885 0.5878559947
0.58858454227 0.42575135827 0.68736857176
-0.69224733114 -0.15889245272 -0.70388650894
-0.69218313694 0.15899834037 -0.70392596722
-0.85225039721 4.8999477258e-06 -0.52310270071
-0.809006989 -0.30901277065 -0.49999350309
-0.80900675058 0.30901309848 -0.49999368191
-0.95105946064 -0.15976212919 -0.26443576813
-0.95103627443 0.15986716747 -0.26445794106
-0.99998724461 -3.7297951394e-08 6.33909508e-07
-0.86291217804 -0.43488675356 -0.25722265244
-0.96109992266 -0.27602958679 -8.7960979727e-05
-0.85065078735 -0.52573108673 1.6497288868e-08
-0.86294549704 0.43485602736 -0.25716981292
-0.96109712124 0.27605968714 -0.00010196926451
-0.15891222656 0.70391887426 -0.69221305847
-0.42793121934 0.68655979633 -0.58777320385
-0.30901291966 0.4999935329 -0.80900681019
-0.58784562349 0.42789247632 -0.68652075529
-0.68664836884 0.58776909113 -0.4277973175
-0.43511393666 0.25723972917 -0.86279761791
-0.70388907194 -0.69223463535 -0.15891757607
-0.70342248678 -0.69258379936 0.15960286558
-0.52289301157 -0.85243713856 0.00039980644942
-0.49999329448 -0.80900716782 -0.30901217461
-0.26430904865 -0.9511988759 -0.15939117968
-0.26327094436 -0.95104968548 0.16189283133
-0.25718140602 -0.86293888092 -0.43485322595
6.4502339228e-05 -0.96137523651 -0.27515280247
-0.86273539066 -0.43484997749 0.25794947147
-0.68674451113 -0.58781307936 0.42744332552
-0.85118442774 -0.00015681027435 0.52498215437
-0.95108771324 0.15974338353 0.26451015472
-0.95095348358 -0.15992352366 0.26491805911
-0.58777189255 -0.42793023586 -0.68656116724
-0.42788386345 -0.68664604425 -0.58770853281
-0.68664366007 -0.58777725697 -0.42779475451
0.25797981024 -0.8628718257 -0.43457433581
0.26412713528 -0.95101052523 -0.16033270955
0.58788049221 -0.42632368207 -0.68765163422
0.68756753206 -0.58783715963 -0.42630571127
0.42847114801 -0.68657875061 -0.58753091097
0.16156418622 0.2634537518 -0.95113158226
-0.1597494185 0.26457157731 -0.95107364655
6.0502105043e-05 0.52308982611 -0.85231268406

CELLS 240 960
3 0 1 2
3 1 3 2
3 1 4 3
3 2 3 5
3 5 6 2
3 6 7 2
3 6 8 7
3 2 7 0
3 9 4 10
3 11 10 12
3 13 5 3
3 14 3 4
3 15 16 5
3 5 16 6
3 15 17 16
3 17 18 16
3 17 19 18
3 16 18 6
3 19 17 20
3 20 17 15
3 6 18 8
3 18 19 8
3 19 21 8
3 8 21 22
3 19 23 21
3 23 24 21
3 23 25 24
3 21 24 22
3 25 23 20
3 20 23 19
3 22 24 26
3 24 27 26
3 24 25 27
3 26 27 28
3 22 29 8
3 8 29 30
3 22 31 29
3 31 32 29
3 31 33 32
3 29 32 30
3 22 26 31
3 26 34 31
3 26 28 34
3 31 34 33
3 30 32 35
3 32 36 35
3 32 33 36
3 35 36 37
3 37 36 38
3 36 39 38
3 36 33 39
3 38 39 40
3 33 41 39
3 41 42 39
3 41 43 42
3 39 42 40
3 33 34 41
3 34 44 41
3 34 28 44
3 41 44 43
3 40 42 45
3 42 46 45
3 42 43 46
3 45 46 47
3 37 38 48
3 38 49 48
3 38 40 49
3 48 49 50
3 40 51 49
3 51 52 49
3 51 53 52
3 49 52 50
3 40 45 51
3 45 54 51
3 45 47 54
3 51 54 53
3 50 52 12
3 52 53 12
3 37 48 55
3 48 56 55
3 48 50 56
3 55 56 57
3 50 58 56
3 58 59 56
3 58 60 59
3 56 59 57
3 60 58 12
3 12 58 50
3 57 59 0
3 59 60 0
3 10 61 12
3 12 61 60
3 10 62 61
3 62 63 61
3 62 1 63
3 61 63 60
3 1 62 4
3 4 62 10
3 60 63 0
3 63 1 0
3 64 65 20
3 20 65 66
3 64 67 65
3 67 68 65
3 67 69 68
3 65 68 66
3 64 70 67
3 70 71 67
3 70 72 71
3 67 71 69
3 66 68 73
3 68 74 73
3 68 69 74
3 73 74 75
3 30 76 8
3 8 76 7
3 30 77 76
3 77 78 76
3 77 57 78
3 76 78 7
3 30 35 77
3 35 55 77
3 35 37 55
3 77 55 57
3 7 78 0
3 78 57 0
3 75 79 80
3 79 81 80
3 79 82 81
3 80 81 83
3 82 84 81
3 84 85 81
3 84 86 85
3 81 85 83
3 82 87 84
3 87 88 84
3 87 89 88
3 84 88 86
3 83 85 90
3 85 91 90
3 85 86 91
3 90 91 47
3 28 92 44
3 92 93 44
3 92 94 93
3 44 93 43
3 94 95 93
3 95 96 93
3 95 83 96
3 93 96 43
3 94 97 95
3 97 80 95
3 97 75 80
3 95 80 83
3 43 96 46
3 96 90 46
3 96 83 90
3 46 90 47
3 89 98 99
3 98 100 99
3 98 101 100
3 99 100 9
3 101 102 100
3 102 103 100
3 102 14 103
3 100 103 9
3 101 104 102
3 104 105 102
3 104 72 105
3 102 105 14
3 9 103 4
3 103 14 4
3 89 99 106
3 99 107 106
3 99 9 107
3 106 107 11
3 11 107 10
3 10 107 9
3 53 108 12
3 12 108 11
3 53 109 108
3 109 110 108
3 109 86 110
3 108 110 11
3 53 54 109
3 54 91 109
3 54 47 91
3 109 91 86
3 11 110 106
3 110 88 106
3 110 86 88
3 106 88 89
3 75 74 79
3 74 111 79
3 74 69 111
3 79 111 82
3 69 112 111
3 112 113 111
3 112 101 113
3 111 113 82
3 69 71 112
3 71 104 112
3 71 72 104
3 112 104 101
3 82 113 87
3 113 98 87
3 113 101 98
3 87 98 89
3 72 114 105
3 114 115 105
3 114 13 115
3 105 115 14
3 14 115 3
3 3 115 13
3 15 116 20
3 20 116 64
3 15 117 116
3 117 118 116
3 117 13 118
3 116 118 64
3 13 117 5
3 5 117 15
3 64 118 70
3 118 114 70
3 118 13 114
3 70 114 72
3 66 119 20
3 20 119 25
3 66 120 119
3 120 121 119
3 120 94 121
3 119 121 25
3 66 73 120
3 73 97 120
3 73 75 97
3 120 97 94
3 25 121 27
3 121 92 27
3 121 94 92
3 27 92 28

CELL_TYPES 240
5
5
5
5
5
5
5
5
5
5
5
5
5
5
5
5
5
5
5
5
5
5
5
5
5
5
5
5
5
5
5
5
5
5
5
5
5
5
5
5
5
5
5
5
5
5
5
5
5
5
5
5
5
5
5
5
5
5
5
5
5
5
5
5
5
5
5
5
5
5
5
5
5
5
5
5
5
5
5
5
5
5
5
5
5
5
5
5
5
5
5
5
5
5
5
5
5
5
5
5
5
5
5
5
5
5
5
5
5
5
5
5
5
5
5
5
5
5
5
5
5
5
5
5
5
5
5
5
5
5
5
5
5
5
5
5
5
5
5
5
5
5
5
5
5
5
5
5
5
5
5
5
5
5
5
5
5
5
5
5
5
5
5
5
5
5
5
5
5
5
5
5
5
5
5
5
5
5
5
5
5
5
5
5
5
5
5
5
5
5
5
5
5
5
5
5
5
5
5
5
5
5
5
5
5
5
5
5
5
5
5
5
5
5
5
5
5
5
5
5
5
5
5
5
5
5
5
5
5
5
5
5
5
5
5
5
5
5
5
5

CELL_DATA 240
SCALARS cell_data_0 double
LOOKUP_TABLE default
5.21411754462e-06
1.05862887098e-05
5.35138052318e-06
5.45538811275e-06
4.28523476997e-06
8.34152435299e-06
4.02798280054e-06
5.19431227167e-06
5.26565568179e-06
5.40379270487e-06
5.75060682411e-06
5.31802942558e-06
2.39304499673e-07
2.77822407353e-08
1.00889065113e-06
5.98556254649e-08
7.13241718202e-07
7.50441371778e-07
1.0633789995e-07
5.17890526971e-07
2.91116025134e-07
2.16072966355e-08
5.09795194082e-08
2.32058669298e-07
7.03412539038e-07
1.555425693e-07
8.98063618701e-08
3.13108664864e-07
8.49979084082e-07
7.29939194562e-08
2.58585329146e-07
9.28682653964e-08
8.05264586641e-08
7.62344589586e-07
7.19365532409e-08
3.99166599979e-07
5.14186141783e-07
1.342558409e-07
1.73537616241e-07
3.22741689285e-07
2.69585909188e-07
9.41999070019e-08
9.33844035823e-07
8.31220583334e-08
9.26662651728e-08
1.32258235075e-08
6.76635098078e-09
5.72476895107e-07
5.39149121588e-07
6.60765336133e-08
1.01425421056e-07
4.08596872772e-07
3.39281318489e-09
1.52810516878e-07
6.63769871945e-07
4.11922765063e-07
1.20133698366e-07
4.3747771003e-07
1.23269116822e-06
9.8159746182e-07
2.28661297444e-07
2.64538163609e-07
5.0695243404e-07
1.84015746489e-07
5.12609440884e-07
9.70504042024e-09
3.74851155125e-07
1.83221706836e-07
4.23217542779e-07
3.22800320884e-07
4.78742244506e-07
4.29105318186e-07
2.71895658506e-07
5.81247477441e-08
3.47611311354e-07
2.59628390617e-07
5.10066312663e-07
2.94875612677e-07
5.73279323635e-07
6.34670351447e-08
5.47129137452e-08
9.06606713401e-08
9.76616229369e-08
1.17982595307e-07
1.27472976394e-07
8.56791506489e-08
9.80698407437e-07
7.92690292362e-07
7.09482851198e-07
9.07083050252e-07
3.98393214007e-07
9.68090829339e-07
2.89857678553e-07
1.14920772375e-07
1.3789649393e-07
1.64225027526e-07
7.50324977765e-07
4.14670951106e-07
8.80308215247e-07
6.4899511206e-07
6.05821801136e-07
4.33698147444e-07
3.04896939027e-08
2.67550708172e-07
2.62167864185e-07
1.58902555476e-07
8.55678761598e-09
1.432993823e-07
7.7011900808e-07
4.48558939635e-08
1.59709130435e-07
4.1264395524e-08
2.08744846053e-08
6.79155082569e-07
6.94921771495e-07
5.4776004736e-07
6.91764041749e-08
6.17877670125e-08
1.20737196456e-07
2.3680037267e-07
2.31562201274e-08
7.12687080171e-08
5.90264072834e-07
7.45851989545e-08
5.82435401029e-07
6.35033881e-07
6.95422583011e-07
1.59736617282e-08
4.91952352693e-08
1.63105971058e-08
1.48827713665e-07
1.69878302661e-07
1.7400303802e-07
1.78688959418e-07
4.34955751511e-08
3.3532519721e-08
7.50594394007e-07
7.05796393595e-09
2.92947004863e-08
2.59690978503e-09
2.74845595011e-08
4.87076235933e-07
1.08270795841e-06
2.87008580747e-07
7.43081636286e-08
9.87983975693e-07
7.33559546171e-08
7.87391046318e-08
1.08762200809e-07
6.25535462037e-07
7.5127208032e-08
2.41505476381e-08
6.7317785592e-07
7.61242826122e-08
4.74754958019e-07
2.16163306077e-07
2.90679274672e-08
2.71936569756e-07
6.31228484522e-07
1.40587993294e-07
8.19047402697e-08
3.36520366091e-08
1.72884788003e-07
2.07013344506e-07
7.40693574904e-08
7.7294065402e-08
6.30249183998e-10
1.37508546547e-07
7.32240125149e-07
1.16240792988e-07
5.74692320723e-07
5.82728641019e-07
6.3568601515e-07
3.90795287717e-08
2.55225146769e-07
1.87297892851e-07
2.47909132633e-06
2.5132407745e-06
5.72759210903e-07
5.24304929694e-07
2.22964522647e-07
1.63269421336e-07
2.18597682914e-07
4.58233164789e-08
1.86004497151e-07
1.13562508985e-08
4.71059692553e-07
3.62275217157e-08
1.55399321246e-07
1.67737953854e-07
3.93272890693e-08
6.60732766404e-07
7.20181235328e-07
6.39793984726e-08
8.04202633478e-08
1.04493765678e-07
1.03073588805e-07
5.69225603802e-08
1.14086885046e-07
6.57124859055e-08
3.31698681821e-08
9.87601984711e-09
8.32889559678e-07
3.90457850745e-08
6.31015145542e-08
1.24202709009e-07
6.89189350177e-08
6.40615460357e-07
6.28093056373e-07
1.08962759611e-07
2.17116907668e-07
1.91088643553e-07
2.97504673505e-06
2.946458913e-06
5.97794460513e-07
4.49523642806e-07
9.73561572232e-07
1.76315698141e-07
8.44642632151e-08
8.42554433166e-08
6.70705252505e-07
1.29921482962e-07
1.40982353684e-08
2.38862854567e-07
1.57968522536e-07
6.89492875591e-07
2.17617712813e-07
6.76603733896e-07
3.16237183391e-07
6.871672718e-08
1.76391218339e-07
2.03093476544e-08
1.83914268131e-07
4.65271453176e-08
6.51684999148e-07
3.24846075246e-08
7.28110589822e-08
4.97921491323e-08
3.12098010492e-08
7.95937197622e-07

