# vtk DataFile Version 3.0
File Name: Molecule/sphere_dip/sphere_dip_0-s3.vtk
ASCII
DATASET UNSTRUCTURED_GRID
FIELD FieldData 1
TIME 1 1 double
0.0
POINTS 53 double
0.850650808352 -0.525731112119 0.0
0.809016994375 -0.309016994375 -0.5
1.0 0.0 0.0
0.809016994375 0.309016994375 -0.5
0.525731112119 0.0 -0.850650808352
0.850650808352 0.525731112119 0.0
0.5 0.809016994375 -0.309016994375
0.309016994375 0.5 -0.809016994375
0.0 0.850650808352 -0.525731112119
0.0 0.850650808352 0.525731112119
-0.5 0.809016994375 0.309016994375
-0.309016994375 0.5 0.809016994375
-0.809016994375 0.309016994375 0.5
-0.850650808352 0.525731112119 0.0
-0.525731112119 0.0 0.850650808352
0.309016994375 0.5 0.809016994375
0.0 0.0 1.0
0.525731112119 0.0 0.850650808352
-0.309016994375 -0.5 0.809016994375
0.309016994375 -0.5 0.809016994375
0.0 -0.850650808352 0.525731112119
0.309016994375 -0.5 -0.809016994375
0.0 0.0 -1.0
-0.309016994375 -0.5 -0.809016994375
0.0 -0.850650808352 -0.525731112119
-0.525731112119 0.0 -0.850650808352
0.809016994375 -0.309016994375 0.5
0.809016994375 0.309016994375 0.5
0.5 0.809016994375 0.309016994375
-0.809016994375 -0.309016994375 -0.5
-0.809016994375 0.309016994375 -0.5
-1.0 0.0 0.0
-0.850650808352 -0.525731112119 0.0
-0.309016994375 0.5 -0.809016994375
-0.5 0.809016994375 -0.309016994375
-0.5 -0.809016994375 -0.309016994375
-0.5 -0.809016994375 0.309016994375
0.0 -1.0 0.0
-0.809016994375 -0.309016994375 0.5
0.5 -0.809016994375 -0.309016994375
0.5 -0.809016994375 0.309016994375
-0.25 0.904508497187 0.154508497188
0.0 1.0 0.0
-0.25 0.904508497187 -0.154508497188
-0.5 0.809016994375 0.0
0.559016994375 -0.404508497188 0.654508497187
0.404508497188 -0.654508497187 0.559016994375
0.654508497187 -0.559016994375 0.404508497188
0.5 0.809016994375 0.0
0.25 0.904508497187 -0.154508497188
0.25 0.904508497187 0.154508497188
0.25 0.829833901363 0.417374053247
0.0 0.925325404176 0.26286555606

CELLS 102 408
3 0 1 2
3 1 3 2
3 1 4 3
3 2 3 5
3 5 3 6
3 3 7 6
3 3 4 7
3 6 7 8
3 9 10 11
3 10 12 11
3 10 13 12
3 11 12 14
3 9 11 15
3 11 16 15
3 11 14 16
3 15 16 17
3 14 18 16
3 18 19 16
3 18 20 19
3 16 19 17
3 4 21 22
3 21 23 22
3 21 24 23
3 22 23 25
3 0 2 26
3 2 27 26
3 2 5 27
3 26 27 17
3 5 28 27
3 28 15 27
3 27 15 17
3 25 29 30
3 29 31 30
3 29 32 31
3 30 31 13
3 8 33 34
3 33 30 34
3 33 25 30
3 34 30 13
3 32 35 36
3 35 37 36
3 35 24 37
3 36 37 20
3 32 36 38
3 36 18 38
3 36 20 18
3 38 18 14
3 14 12 38
3 12 31 38
3 12 13 31
3 38 31 32
3 25 23 29
3 23 35 29
3 23 24 35
3 29 35 32
3 24 39 37
3 39 40 37
3 39 0 40
3 37 40 20
3 4 1 21
3 1 39 21
3 1 0 39
3 21 39 24
3 4 22 7
3 22 33 7
3 22 25 33
3 7 33 8
3 9 41 10
3 42 43 41
3 43 44 41
3 43 34 44
3 41 44 10
3 34 43 8
3 8 43 42
3 10 44 13
3 44 34 13
3 19 45 17
3 17 45 26
3 19 46 45
3 46 47 45
3 46 40 47
3 45 47 26
3 40 46 20
3 20 46 19
3 26 47 0
3 47 40 0
3 6 48 5
3 5 48 28
3 6 49 48
3 49 50 48
3 49 42 50
3 48 50 28
3 42 49 8
3 8 49 6
3 28 50 51
3 50 52 51
3 50 42 52
3 51 52 9
3 28 51 15
3 51 9 15
3 9 52 41
3 41 52 42

CELL_TYPES 102
5
5
5
5
5
5
5
5
5
5
5
5
5
5
5
5
5
5
5
5
5
5
5
5
5
5
5
5
5
5
5
5
5
5
5
5
5
5
5
5
5
5
5
5
5
5
5
5
5
5
5
5
5
5
5
5
5
5
5
5
5
5
5
5
5
5
5
5
5
5
5
5
5
5
5
5
5
5
5
5
5
5
5
5
5
5
5
5
5
5
5
5
5
5
5
5
5
5
5
5
5
5

CELL_DATA 102
SCALARS cell_data_0 double
LOOKUP_TABLE default
8.38373084325e-05
7.94834896201e-05
8.39815996615e-05
9.05579151729e-05
0.000198292564775
0.000737540862039
0.00043951858132
0.000421861681632
0.000104807773833
0.000711098499477
0.000592902615032
0.000250637593678
8.85154398655e-06
0.000260654056184
0.000222208980286
0.000207072785398
0.000221184025724
0.000268051317687
5.33407968946e-05
0.000218627486863
0.000225195999438
0.000256072350805
8.6143310513e-05
0.000199628372908
8.47256574535e-05
1.72536543916e-05
7.08212698812e-07
4.16672058365e-06
8.09675214623e-05
9.76053629913e-05
8.46741797826e-06
1.75441830596e-05
5.73182915938e-05
7.2942318679e-05
7.16832760634e-06
4.03564248704e-05
5.04489374228e-05
8.7503214546e-05
9.7509595823e-06
1.10687309397e-05
9.33781686768e-06
1.7251097269e-06
6.49080298145e-07
3.72029506375e-06
2.3512118488e-05
2.00249982091e-05
6.49220350951e-05
0.000225904221494
0.000437313452097
0.000436638523884
5.54845729333e-07
6.94716115549e-05
8.51295399956e-06
4.28368260122e-05
6.13613325966e-05
6.02985789191e-06
1.46011228504e-06
8.18207669469e-05
1.02130785521e-05
5.13259797625e-05
4.30377034789e-05
8.58092683875e-05
3.08272502872e-05
6.42746445029e-05
0.000183834452347
0.00020022979015
0.000139240370035
3.09198020409e-05
2.1376894488e-05
3.32345830421e-06
4.42952198974e-06
1.9250162308e-05
6.95303146414e-07
3.42394553026e-05
4.62178473804e-05
1.10483739813e-05
2.67716159959e-05
6.94909540028e-06
1.06697961016e-05
2.86445142077e-06
1.06213165967e-06
3.43115875885e-06
8.07634885549e-06
2.37551781083e-05
4.60180927061e-05
4.04440694269e-05
4.761099791e-05
5.28276856087e-05
2.49272964103e-05
8.35106493333e-07
2.64163454073e-05
2.7142010121e-05
3.42762141322e-05
2.97794310202e-05
2.27456700818e-05
1.52941036713e-06
2.20427792598e-05
1.5846587639e-06
5.9824231927e-05
8.1519777909e-06
1.6861166147e-06
1.76453696873e-05

