# vtk DataFile Version 3.0
File Name: Molecule/sphere_dip/sphere_dip_0-s4.vtk
ASCII
DATASET UNSTRUCTURED_GRID
FIELD FieldData 1
TIME 1 1 double
0.0
POINTS 59 double
0.850650808352 -0.525731112119 0.0
0.809016994375 -0.309016994375 -0.5
1.0 0.0 0.0
0.809016994375 0.309016994375 -0.5
0.525731112119 0.0 -0.850650808352
0.850650808352 0.525731112119 0.0
0.0 0.850650808352 0.525731112119
-0.309016994375 0.5 0.809016994375
0.309016994375 0.5 0.809016994375
0.0 0.0 1.0
-0.525731112119 0.0 0.850650808352
0.525731112119 0.0 0.850650808352
-0.309016994375 -0.5 0.809016994375
0.309016994375 -0.5 0.809016994375
0.0 -0.850650808352 0.525731112119
0.309016994375 -0.5 -0.809016994375
0.0 0.0 -1.0
-0.309016994375 -0.5 -0.809016994375
0.0 -0.850650808352 -0.525731112119
-0.525731112119 0.0 -0.850650808352
0.809016994375 -0.309016994375 0.5
0.809016994375 0.309016994375 0.5
0.5 0.809016994375 0.309016994375
-0.809016994375 -0.309016994375 -0.5
-0.809016994375 0.309016994375 -0.5
-1.0 0.0 0.0
-0.850650808352 -0.525731112119 0.0
-0.850650808352 0.525731112119 0.0
0.0 0.850650808352 -0.525731112119
-0.309016994375 0.5 -0.809016994375
-0.5 0.809016994375 -0.309016994375
-0.5 -0.809016994375 -0.309016994375
-0.5 -0.809016994375 0.309016994375
0.0 -1.0 0.0
-0.809016994375 -0.309016994375 0.5
-0.809016994375 0.309016994375 0.5
0.5 -0.809016994375 -0.309016994375
0.5 -0.809016994375 0.309016994375
0.309016994375 0.5 -0.809016994375
-0.25 0.904508497187 0.154508497188
-0.5 0.809016994375 0.309016994375
0.0 1.0 0.0
-0.25 0.904508497187 -0.154508497188
-0.5 0.809016994375 0.0
0.559016994375 -0.404508497188 0.654508497187
0.404508497188 -0.654508497187 0.559016994375
0.654508497187 -0.559016994375 0.404508497188
0.5 0.809016994375 -0.309016994375
0.5 0.809016994375 0.0
0.25 0.904508497187 -0.154508497188
0.25 0.904508497187 0.154508497188
0.25 0.829833901363 0.417374053247
0.0 0.925325404176 0.26286555606
0.654508497187 0.559016994375 -0.404508497188
0.559016994375 0.404508497188 -0.654508497187
0.404508497188 0.654508497187 -0.559016994375
-0.404508497188 0.654508497187 0.559016994375
-0.654508497187 0.559016994375 0.404508497188
-0.559016994375 0.404508497188 0.654508497187

CELLS 114 456
3 0 1 2
3 1 3 2
3 1 4 3
3 2 3 5
3 6 7 8
3 7 9 8
3 7 10 9
3 8 9 11
3 10 12 9
3 12 13 9
3 12 14 13
3 9 13 11
3 4 15 16
3 15 17 16
3 15 18 17
3 16 17 19
3 0 2 20
3 2 21 20
3 2 5 21
3 20 21 11
3 5 22 21
3 22 8 21
3 21 8 11
3 19 23 24
3 23 25 24
3 23 26 25
3 24 25 27
3 28 29 30
3 29 24 30
3 29 19 24
3 30 24 27
3 26 31 32
3 31 33 32
3 31 18 33
3 32 33 14
3 26 32 34
3 32 12 34
3 32 14 12
3 34 12 10
3 10 35 34
3 35 25 34
3 35 27 25
3 34 25 26
3 19 17 23
3 17 31 23
3 17 18 31
3 23 31 26
3 18 36 33
3 36 37 33
3 36 0 37
3 33 37 14
3 4 1 15
3 1 36 15
3 1 0 36
3 15 36 18
3 4 16 38
3 16 29 38
3 16 19 29
3 38 29 28
3 6 39 40
3 41 42 39
3 42 43 39
3 42 30 43
3 39 43 40
3 30 42 28
3 28 42 41
3 40 43 27
3 43 30 27
3 13 44 11
3 11 44 20
3 13 45 44
3 45 46 44
3 45 37 46
3 44 46 20
3 37 45 14
3 14 45 13
3 20 46 0
3 46 37 0
3 47 48 5
3 5 48 22
3 47 49 48
3 49 50 48
3 49 41 50
3 48 50 22
3 41 49 28
3 28 49 47
3 22 50 51
3 50 52 51
3 50 41 52
3 51 52 6
3 22 51 8
3 51 6 8
3 6 52 39
3 39 52 41
3 3 53 5
3 5 53 47
3 3 54 53
3 54 55 53
3 54 38 55
3 53 55 47
3 38 54 4
3 4 54 3
3 47 55 28
3 55 38 28
3 40 56 6
3 6 56 7
3 40 57 56
3 57 58 56
3 57 35 58
3 56 58 7
3 35 57 27
3 27 57 40
3 7 58 10
3 58 35 10

CELL_TYPES 114
5
5
5
5
5
5
5
5
5
5
5
5
5
5
5
5
5
5
5
5
5
5
5
5
5
5
5
5
5
5
5
5
5
5
5
5
5
5
5
5
5
5
5
5
5
5
5
5
5
5
5
5
5
5
5
5
5
5
5
5
5
5
5
5
5
5
5
5
5
5
5
5
5
5
5
5
5
5
5
5
5
5
5
5
5
5
5
5
5
5
5
5
5
5
5
5
5
5
5
5
5
5
5
5
5
5
5
5
5
5
5
5
5
5

CELL_DATA 114
SCALARS cell_data_0 double
LOOKUP_TABLE default
0.000329988430619
0.000193076113962
7.0473377918e-05
0.000197259383147
8.00614327186e-05
0.000264289768027
0.000209950539974
0.000223102068195
0.00020214344176
0.000246437349506
9.02878816095e-05
0.000224261973195
0.00021410773086
0.00026938225684
5.54914343042e-05
0.000195548939369
0.000181020384567
5.07730386043e-05
0.000178559911343
1.48546758085e-05
0.000167768238545
1.29121477913e-05
5.34630351721e-05
5.15747135646e-05
2.34173445682e-06
9.39774875146e-05
0.000470212223108
4.09097748913e-05
4.40038276675e-05
8.65922178261e-05
0.000451962335744
0.000199158345942
9.24608301025e-05
4.41389338036e-06
6.04743551268e-05
0.000173250723298
6.16275824945e-06
3.29588329543e-06
8.93126003921e-05
5.76150540949e-05
1.28033249161e-05
0.000434249916244
9.27681264836e-05
9.12492276825e-05
5.94985744808e-05
3.82664378974e-05
7.28436886282e-05
2.76515060598e-06
4.33661484387e-06
8.91421093703e-05
1.27034815321e-07
7.74007437276e-05
7.90890220975e-05
0.000160745170208
7.89955503321e-06
8.06340534703e-05
0.000195853603835
0.000195273829866
0.00014042181071
4.46674554062e-05
5.12207368684e-06
1.09214269409e-05
1.67407133844e-05
4.64398799259e-05
1.59241367774e-06
1.48275552566e-06
0.000376954705322
0.000280692456818
3.87104975165e-05
1.05569574296e-05
1.90753645992e-05
1.26155806839e-05
2.50210652281e-06
7.59326316905e-06
8.97323446545e-06
3.00847434645e-05
2.98003364118e-05
4.38372809043e-05
9.54640268701e-05
9.57559690211e-05
2.50470830347e-05
6.90809282805e-07
5.48349134082e-06
2.42941854966e-05
2.40740478141e-06
2.96383159518e-05
2.01053849561e-05
1.60646782429e-06
4.45399324918e-06
1.59405000636e-06
1.63413121195e-05
1.65497451863e-05
5.98992019043e-07
4.50838583039e-06
4.49937108422e-05
9.70487118035e-05
3.08863439911e-06
2.56761359724e-06
9.73256294855e-05
2.59564646087e-05
0.000145385218566
1.59996769466e-06
2.85859096982e-05
0.00013815555933
4.45703635501e-05
1.75551326342e-05
2.92984141405e-05
2.57717106802e-06
3.38661476486e-07
1.02126535465e-05
0.000206404951511
0.000317060447775
5.22299442884e-05
3.27878673196e-05

