# vtk DataFile Version 3.0
File Name: Molecule/arg/arg_3.0-4.vtk
ASCII
DATASET UNSTRUCTURED_GRID
FIELD FieldData 1
TIME 1 1 double
0.0
POINTS 486 double
-3.403 0.327 1.604
-3.398 0.034 0.803
-2.981 -0.361 1.858
-2.976 -0.654 1.057
-2.971 0.024 0.066
-2.549 -0.664 0.32
-2.984 0.046 0.042
-2.471 -0.12 -0.363
-2.484 -0.099 -0.385
-2.2 -0.483 -0.862
-2.216 -0.458 -0.889
-3.255 0.893 -0.375
-2.57 0.022 -0.532
-2.781 0.681 -0.857
-2.39 -0.269 -1.153
-2.621 0.454 -1.509
-2.776 1.74 -0.497
-2.407 1.34 -0.951
-2.211 1.177 -1.613
-2.622 1.932 -0.429
-2.287 1.501 -0.894
-2.142 1.682 -0.83
-1.982 1.439 -1.492
-1.81 1.654 -1.416
-2.655 2.421 0.048
-2.046 2.135 -0.548
-2.075 2.574 -0.12
-1.615 2.438 -0.879
-1.647 2.927 -0.402
-2.495 2.657 0.67
-1.932 2.785 0.438
-1.488 3.163 0.22
-3.186 2.284 1.521
-2.137 2.872 1.156
-2.739 2.546 1.897
-1.863 3.333 1.507
-2.53 2.972 2.328
-3.419 1.801 1.788
-2.717 2.558 2.345
-2.979 2.017 2.644
-3.567 1.179 1.827
-3.133 1.725 2.369
-3.262 1.186 2.403
-3.107 1.793 3.017
-3.25 1.192 3.055
-3.408 0.559 1.798
-3.123 0.649 2.378
-3.095 0.593 3.027
-3.105 0.348 2.085
-3.1 0.088 1.867
-2.97 0.105 2.152
-2.978 0.383 3.085
-2.865 -0.346 2.113
-2.52 -0.7 2.425
-2.794 0.071 2.575
-2.491 -0.24 2.849
-2.645 0.041 3.387
-2.41 -1.24 2.09
-2.148 -0.9 2.844
-2.042 -1.418 2.522
-2.003 -1.142 3.367
-1.882 -1.734 2.999
-2.078 -1.605 1.676
-1.723 -1.769 2.124
-1.517 -2.136 2.544
-1.592 -1.721 1.268
-1.257 -1.88 1.733
-0.984 -2.263 2.097
-2.203 -1.444 0.759
-1.237 -1.838 0.739
-1.813 -1.578 0.259
-0.96 -2.23 0.303
-1.631 -1.926 -0.256
-2.487 -0.785 0.321
-2.08 -0.956 -0.154
-1.943 -1.202 -0.738
-2.189 -0.632 -0.224
-2.248 -0.516 -0.225
-2.131 -0.618 -0.861
-2.114 -0.682 -1.181
-1.927 -1.264 -1.052
-2.312 -0.441 -1.376
-2.121 -0.506 -1.916
-1.682 -1.348 -1.746
-1.897 0.192 -2.527
-1.864 -0.768 -1.888
-1.57 0.147 -2.691
-2.011 1.039 -2.18
-1.198 0.386 -3.152
-1.348 1.496 -2.696
-1.72 1.257 -2.235
-1.479 1.817 -1.75
-1.107 2.057 -2.211
-1.319 2.584 -1.178
-0.816 3.013 -1.267
-1.111 2.259 -1.642
-0.623 2.675 -1.729
-0.543 2.537 -2.312
0.466 3.148 -0.891
-0.306 2.923 -1.738
0.315 2.988 -1.555
-0.026 3.04 -2.368
0.4 3.085 -2.243
-0.048 3.337 -3.001
0.699 3.415 -2.782
1.057 2.557 -0.305
0.619 2.806 -1.364
1.192 2.232 -0.796
0.892 2.689 -1.891
1.553 2.026 -1.234
0.737 2.845 0.68
1.539 1.918 0.039
1.22 2.206 1.024
0.406 3.093 0.833
0.756 2.48 1.392
0.466 2.698 1.526
1.112 2.426 2.108
0.748 2.699 2.276
-0.152 3.531 0.588
0.05 3.076 1.433
-0.422 3.446 1.225
-0.034 3.266 2.099
-0.572 3.688 1.862
-0.865 3.557 0.357
-1.026 3.468 1.03
-1.261 3.713 1.639
-1.554 3.135 0.914
-0.08 3.426 2.677
0.695 2.881 2.933
-0.313 3.4 3.231
0.431 2.852 3.563
-0.687 3.194 3.654
0.006 2.617 4.044
-1.359 3.167 3.763
-0.58 2.815 3.881
-1.359 2.784 4.008
-1.995 3.111 3.523
-2.096 2.719 3.73
-2.423 3.039 2.998
-2.593 2.636 3.121
-0.832 2.373 4.277
-0.242 2.183 4.431
-1.061 1.806 4.483
-0.466 1.628 4.634
-1.543 2.398 4.242
-1.452 1.611 4.604
-1.868 2.121 4.396
-2.128 2.66 3.763
-2.373 2.347 3.982
-2.655 2.52 3.176
-2.827 2.227 3.476
-1.464 1.095 4.666
-0.48 1.041 4.705
-1.655 0.731 4.634
-0.882 0.784 4.614
-1.066 0.434 4.582
-0.333 0.517 4.869
-0.555 0.096 4.831
-2.14 0.383 4.441
-1.246 0.178 4.538
-1.7 -0.148 4.358
-0.878 -0.357 4.785
-1.429 -0.753 4.566
-2.498 0.133 3.99
-2.035 -0.382 3.936
-1.836 -1.037 4.053
-2.172 -0.468 3.371
-0.383 -0.749 5.065
-0.05 -0.304 5.117
0.164 -1.171 5.088
0.507 -0.734 5.141
0.44 -1.748 4.904
1.043 -0.806 5.264
1.319 -1.383 5.081
0.709 -2.198 4.495
1.588 -1.833 4.672
0.93 -2.454 3.923
1.809 -2.089 4.099
1.07 -2.477 3.273
1.949 -2.112 3.449
1.108 -2.263 2.644
1.987 -1.899 2.82
1.037 -1.846 2.131
1.916 -1.481 2.307
0.482 -2.37 2.114
0.798 -1.688 1.555
0.356 -2.104 1.542
0.806 -1.676 0.912
0.365 -2.092 0.898
1.061 -1.813 0.337
0.505 -2.337 0.32
-0.266 -2.524 2.101
-0.238 -2.226 1.532
-0.229 -2.214 0.888
-0.243 -2.491 0.308
-0.808 -2.019 1.528
-0.8 -2.007 0.885
1.48 -1.078 0.031
1.043 -1.422 0.814
1.323 -0.93 0.61
1.205 -1.217 1.373
1.436 -0.812 1.205
1.517 -1.238 1.905
1.797 -0.747 1.701
2.335 -0.746 2.002
1.639 -0.712 -0.547
1.476 -0.549 0.311
1.615 -0.229 -0.195
1.697 -0.118 0.66
1.842 0.216 0.134
1.684 -1.288 -0.895
1.805 -0.426 -1.067
1.846 -0.941 -1.379
2.201 -0.141 -1.444
2.245 -0.694 -1.778
1.488 -1.753 -1.343
1.67 -1.358 -1.78
2.057 -1.14 -2.207
1.085 -2.024 -1.812
1.309 -1.6 -2.199
1.67 -1.4 -2.657
0.547 -2.053 -2.217
0.827 -1.627 -2.562
1.154 -1.428 -3.046
-0.032 -1.836 -2.488
0.31 -1.432 -2.805
0.599 -1.22 -3.306
-0.548 -1.409 -2.576
-0.152 -1.05 -2.884
0.104 -0.811 -3.39
-0.822 -1.287 -2.506
-0.336 -0.591 -3.197
-0.616 -0.466 -3.125
-1.31 -1.347 -2.194
-0.988 -0.705 -2.664
-1.485 -0.767 -2.346
-0.251 0.008 -3.791
0.185 -0.248 -3.95
0.101 0.716 -4.098
0.516 0.418 -4.238
-0.398 1.946 -3.588
-0.106 2.463 -3.53
-0.202 2.855 -2.684
0.028 3.029 -3.665
0.9 3.106 -3.671
0.173 2.486 -3.833
0.85 2.546 -3.838
0.117 1.987 -4.134
0.989 2.064 -4.14
0.819 3.383 -2.845
1.267 2.733 -3.406
1.204 2.948 -2.765
1.749 2.404 -3.353
1.668 2.681 -2.526
0.902 2.914 -2.485
0.749 2.956 -2.405
1.123 2.627 -2.01
2.133 1.624 -1.992
2.194 2.159 -2.516
2.042 0.907 -1.262
2.428 1.273 -2.257
2.342 0.599 -1.57
1.855 0.911 -0.632
1.44 1.861 -0.608
1.976 0.918 0.014
1.861 0.778 -0.544
1.751 0.201 -0.446
1.991 0.665 -1.105
1.878 0.074 -1.004
2.497 1.237 -3.182
2.232 2.14 -3.028
1.83 1.363 -3.817
1.863 2.209 -3.379
1.382 0.739 -4.338
1.103 1.869 -4.167
0.855 1.524 -4.455
0.377 1.347 -4.4
1.404 2.01 -3.684
1.315 2.161 -3.664
2.073 0.663 0.819
1.861 -0.287 1.473
2.18 0.376 1.607
2.748 0.111 2.175
1.884 1.434 1.198
2.02 1.032 1.93
2.541 0.959 2.592
1.755 1.469 1.75
1.11 2.216 1.58
1.842 1.579 2.299
1.881 1.886 2.857
2.58 1.266 3.15
1.754 2.03 3.466
2.452 1.41 3.759
1.478 1.99 4.04
2.177 1.37 4.333
1.093 1.773 4.5
1.791 1.153 4.793
0.651 1.408 4.781
1.35 0.788 5.074
0.073 1.245 4.841
0.82 0.891 4.947
0.23 0.725 5.008
0.613 0.111 5.233
1.146 0.023 5.355
-1.909 1.923 -0.799
1.099 -1.46 1.828
-3.022 2.038 -0.231
-3.504 1.618 -0.113
-3.504 2.066 0.275
-3.022 2.419 0.247
-3.504 2.232 0.843
-3.504 2.066 1.411
-3.827 1.75 0.843
-3.827 1.466 1.336
-3.504 1.031 -0.198
-3.504 0.492 0.048
-3.827 0.896 0.35
-3.827 1.466 0.35
-3.94 1.181 0.843
-3.827 0.896 1.336
-3.827 0.612 0.843
-2.634 -1.246 1.071
-2.634 -1.246 1.663
-2.419 0.645 -2.059
-2.419 -0.001 -2.059
0.193 3.598 -0.086
-0.376 3.598 -0.655
-0.376 3.711 -0.086
-0.945 3.598 -0.086
-0.945 3.462 -0.682
-1.427 3.109 -0.654
0.675 3.275 -0.086
-0.333 3.709 2.497
-0.889 3.977 2.497
-0.889 3.843 3.084
-1.507 3.843 3.084
-1.507 3.468 3.554
-0.889 3.468 3.554
-1.507 3.843 1.91
-1.507 3.977 2.497
-2.063 3.709 2.497
-2.063 3.537 3.083
-2.204 1.508 4.671
-2.76 1.657 4.339
-2.76 1.053 4.426
-2.204 0.906 4.671
-2.76 0.497 4.173
-2.76 2.119 3.939
-3.145 1.508 3.874
-3.145 0.906 3.874
0.732 -2.729 3.297
0.137 -2.837 3.911
0.137 -2.945 3.297
0.137 -2.837 2.683
0.732 -2.608 2.693
0.137 -2.047 4.853
-0.497 -2.047 4.853
-0.497 -2.525 4.452
0.137 -2.525 4.452
-0.497 -2.837 3.911
-0.497 -2.945 3.297
-0.497 -2.837 2.683
-0.497 -1.461 5.066
-1.092 -1.149 4.877
-1.092 -1.753 4.756
-1.092 -2.266 4.414
-1.092 -2.608 3.901
-1.092 -2.729 3.297
-1.092 -2.608 2.693
-1.577 -1.735 4.312
-1.577 -2.164 3.883
-1.577 -2.321 3.297
-1.894 -1.461 3.837
1.271 -2.245 -0.834
1.271 -2.088 -0.248
0.786 -2.532 -0.23
0.786 -2.653 -0.834
0.786 -2.532 -1.438
0.191 -2.761 -0.22
0.191 -2.869 -0.834
0.191 -2.761 -1.448
0.191 -2.449 -1.989
-0.443 -2.761 -0.22
-0.443 -2.869 -0.834
-0.443 -2.761 -1.448
-0.443 -2.449 -1.989
-1.038 -2.532 -0.23
-1.038 -2.653 -0.834
-1.038 -2.532 -1.438
-1.038 -2.19 -1.951
-0.443 -1.971 -2.39
-1.038 -1.677 -2.293
-1.523 -2.245 -0.834
-1.523 -2.088 -1.42
1.588 -1.385 -0.294
-1.152 1.82 -2.825
-1.152 1.343 -3.239
-0.729 0.877 -3.763
-0.729 0.286 -3.645
0.159 3.677 -3.268
1.993 1.475 0.623
1.632 2.291 3.029
1.147 2.699 3.029
1.147 2.578 3.633
1.147 2.236 4.146
0.552 2.495 4.184
0.552 2.017 4.585
0.025 0.329 5.098
3.668 -0.309 3.703
3.558 0.315 3.703
3.558 0.003 4.243
3.558 -0.621 4.243
3.558 -0.933 3.703
3.558 -0.621 3.163
3.558 0.003 3.163
3.241 0.706 4.289
3.241 0.277 4.718
3.241 -0.309 4.875
3.241 -0.895 4.718
3.241 -1.324 4.289
3.241 -1.481 3.703
3.241 -1.324 3.117
3.241 -0.895 2.688
3.241 -0.309 2.531
3.241 0.277 2.688
3.241 0.706 3.117
3.241 0.863 3.703
2.756 1.15 4.307
2.756 0.808 4.82
2.756 0.295 5.162
2.756 -0.309 5.283
2.756 -0.913 5.162
2.756 -1.426 4.82
2.756 -1.768 4.307
2.756 -1.889 3.703
2.756 -1.768 3.099
2.756 -1.426 2.586
2.756 -0.913 2.244
2.161 1.067 4.858
2.161 0.589 5.259
2.161 0.003 5.472
2.161 -0.621 5.472
2.161 -1.207 5.259
2.161 -1.685 4.858
2.161 -1.997 4.317
1.527 0.003 5.472
1.527 -0.621 5.472
2.923 0.206 -2.769
2.823 0.774 -2.769
2.823 0.49 -2.277
2.823 -0.078 -2.277
2.823 -0.362 -2.769
2.823 -0.078 -3.261
2.823 0.49 -3.261
2.535 0.054 -1.712
2.535 -0.493 -1.962
2.535 -0.819 -2.468
2.535 -0.819 -3.07
2.535 -0.493 -3.576
2.535 0.054 -3.826
2.535 0.65 -3.74
2.093 -1.201 -3.068
2.093 -0.958 -3.615
2.093 -0.513 -4.015
2.093 0.056 -4.2
2.093 0.651 -4.137
1.55 -1.185 -3.63
1.55 -0.78 -4.075
1.55 -0.242 -4.343
1.55 0.357 -4.398
0.974 -1.185 -3.63
0.974 -0.78 -4.075
0.974 -0.242 -4.343
0.431 -0.513 -4.015
-0.314 0.7965 -3.9305
-0.5635 1.4115 -3.6755
-0.0105 1.6465 -3.994
0.11425 1.339 -4.1215
-0.1485 1.331 -3.843
-0.27325 1.6385 -3.7155
-0.43875 1.104 -3.803
-0.23125 1.06375 -3.88675
-0.356 1.37125 -3.75925
-0.02375 1.0235 -3.9705
-0.065125 0.889875 -3.992375
-0.189875 1.197375 -3.864875

CELLS 968 3872
3 0 1 2
3 2 1 3
3 1 4 3
3 3 4 5
3 4 6 7
3 7 6 8
3 7 8 9
3 9 8 10
3 6 11 12
3 12 11 13
3 12 13 14
3 14 13 15
3 11 16 13
3 13 16 17
3 13 17 15
3 15 17 18
3 16 19 20
3 20 19 21
3 20 21 22
3 22 21 23
3 19 24 25
3 25 24 26
3 25 26 27
3 27 26 28
3 24 29 26
3 26 29 30
3 26 30 28
3 28 30 31
3 29 32 33
3 33 32 34
3 33 34 35
3 35 34 36
3 32 37 38
3 38 37 39
3 37 40 41
3 41 40 42
3 41 42 43
3 43 42 44
3 40 45 42
3 42 45 46
3 42 46 44
3 44 46 47
3 45 0 48
3 48 0 49
3 48 50 47
3 47 50 51
3 50 49 52
3 52 49 2
3 52 53 54
[...]
CELL_DATA 968
SCALARS cell_data_0 double
LOOKUP_TABLE default
4.65406523415e-09
1.29064994144e-08
6.38426615231e-08
5.44654624243e-08
7.85636307708e-09
5.25710869004e-09
1.989242721e-09
3.43794387183e-09
1.77063980085e-07
3.6037659965e-09
6.36717260512e-08
8.36259796229e-08
6.15679914671e-08
6.15539445522e-08
5.95634683463e-10
9.83483553283e-08
2.21933872649e-08
6.29164799412e-10
2.26214392253e-09
3.85679631024e-09
4.02041019584e-09
3.53001077785e-09
6.9847069891e-09
8.13361554959e-09
4.35775546119e-10
3.80627304951e-10
3.29295662266e-09
3.3159499287e-09
3.43835135953e-09
3.93577534382e-09
5.22426651167e-09
1.26997576715e-08
3.71952833197e-08
4.11493944953e-08
1.05479702247e-08
1.06878866947e-09
6.55985441074e-09
1.28987153895e-08
3.95177395928e-09
3.17818454764e-10
2.16643434068e-09
3.04242345022e-09
1.05945884205e-09
1.17793941829e-10
1.51115072363e-09
3.17491098329e-11
7.51469174456e-11
5.8322498831e-10
4.97126279256e-10
1.79768972264e-10
8.59758794103e-10
4.65362005357e-09
8.74655263145e-10
2.07293663766e-09
2.00434201667e-09
5.19168131496e-09
1.40967412732e-09
2.17580605638e-09
3.51931034823e-09
5.2819469624e-09
1.32714705795e-09
1.20497005508e-10
5.61215302238e-11
1.58980193388e-09
1.62048236602e-09
2.27009882711e-09
2.01427706737e-09
1.09906546784e-09
3.87007992246e-09
6.78212945517e-09
7.33700202866e-09
7.86251260609e-09
1.04255760127e-09
8.30674027896e-10
3.45795961052e-10
5.80151325691e-09
4.18853754521e-10
1.84712549591e-09
6.6643156911e-09
2.11871712538e-08
6.59368228154e-09
4.83205727903e-09
3.01499541079e-10
1.81852189066e-09
1.69929119236e-08
1.91054732705e-08
4.74885761506e-08
6.50533661281e-08
6.63369832915e-09
1.15260993156e-08
1.96849853578e-08
1.20698563434e-08
3.3102793245e-08
2.234137964e-08
6.83339067528e-09
1.17553362287e-08
1.16213807398e-08
1.34204147578e-08
1.61418003875e-09
3.31983746021e-10
2.56814566138e-09
2.23533977029e-08
1.71131277707e-08
9.55707207983e-09
8.43814673767e-09
4.19564641335e-08
2.53112213293e-08
3.90129764327e-09
8.98120255934e-09
2.87839529315e-08
2.5396423833e-08
1.64931843935e-08
5.43309935299e-08
8.44582392181e-08
3.28753002196e-08
4.71313206306e-08
1.00533197502e-07
4.99705371672e-08
5.57254446379e-08
1.4292323858e-08
7.75221798704e-09
3.34628313848e-09
6.02806231454e-09
9.7044737207e-09
9.19643170445e-09
3.42944078144e-09
8.02957812582e-09
1.18744730252e-08
1.0745955642e-08
5.22642033899e-09
8.32777610434e-10
2.46845167006e-09
1.24591942246e-09
7.88814121457e-10
1.14642804452e-10
3.9045637732e-10
8.42470299669e-09
1.71999179419e-08
1.77822686759e-09
4.82412761075e-09
5.58543254116e-09
2.81186969194e-09
5.12314583946e-09
2.86215245176e-09
3.47107966275e-09
1.33637460036e-09
2.36272678768e-09
3.83357103305e-09
8.72096674028e-09
1.1639033801e-08
4.42769891237e-08
8.87282515005e-08
2.67883953869e-08
5.35867134694e-08
5.29637347533e-08
5.31356706145e-08
7.73184372246e-08
1.48653759792e-08
1.25890269996e-08
1.09118183936e-08
1.33565937329e-08
1.03348003704e-08
8.37608630024e-09
4.45881150638e-09
6.2371020997e-09
1.00465746368e-08
2.71267653249e-09
2.43829342861e-09
2.13136949114e-08
2.31141739562e-08
3.29877240996e-09
8.78809336344e-09
1.3384496601e-08
5.89912764875e-09
1.05753788213e-09
1.30916974545e-09
3.35546926768e-09
3.14583145974e-09
4.86432749034e-09
1.53972518227e-09
1.94272377284e-09
2.96801383052e-09
1.37435488476e-08
1.15375638929e-09
1.34874818896e-08
2.47275015136e-09
5.80489603394e-09
8.55799270888e-09
2.29539310744e-09
8.2070176055e-09
4.95210830207e-09
4.93478946329e-09
5.51377059356e-09
4.7167925538e-08
5.15897022037e-08
6.93087058624e-08
1.01306031901e-08
3.38504239689e-09
4.50034123086e-08
5.65552381418e-08
6.09972460442e-08
1.38934216198e-08
1.57254155334e-07
1.59506285815e-07
7.92731470302e-08
1.09976387172e-07
1.10568410199e-07
1.03275574151e-07
2.15306816297e-07
1.00337975419e-08
1.10424309701e-07
1.97672208651e-08
1.90474899095e-08
6.99279579153e-09
1.08573542113e-08
1.66479229892e-07
1.14609629389e-07
7.2956644788e-08
3.15831196647e-07
3.08961137139e-07
2.13100609526e-07
1.34902091915e-07
2.88686479178e-07
4.1685198292e-07
3.77715268202e-07
1.78486406001e-07
1.12580184993e-07
2.0097074263e-07
5.20728316902e-07
7.60119565949e-08
2.57466929003e-07
3.82070008985e-08
2.11289461354e-08
3.32954051908e-08
1.03068955055e-08
2.38391406476e-08
1.99821161973e-08
1.67314769982e-08
1.55837163693e-08
4.90424802417e-08
2.50373250605e-08
1.24832872337e-08
6.48584380471e-09
2.07220777029e-09
5.88715293315e-08
4.68702962158e-08
3.32263611359e-08
2.58099937973e-08
3.12728823876e-08
1.45461791031e-08
3.99351129494e-07
1.32206184749e-08
2.45360779981e-07
1.6856123646e-07
2.53943394808e-07
2.32617033554e-08
1.72878120852e-08
4.78667380098e-08
6.73941594477e-08
1.99671107962e-08
2.24529109223e-08
4.26746771682e-10
1.4091203784e-09
7.10796186383e-08
6.64272695209e-08
1.00459026959e-07
1.07970859773e-07
5.94005464449e-08
4.48552501908e-09
7.62675570339e-09
7.15625002769e-08
2.86167087882e-07
2.80794379389e-07
2.17957149186e-07
1.84460047223e-09
1.10296793673e-07
1.1492804535e-07
2.24300731119e-07
9.02176692381e-08
1.79860136271e-07
6.15379436075e-09
1.9887142394e-09
1.45951364049e-09
9.81943645154e-09
2.57176135625e-09
7.83271679455e-09
1.37446429629e-08
6.82848077114e-09
7.48907118233e-10
2.9406746904e-09
4.81860835474e-09
1.39735662325e-08
3.60665376372e-08
1.13474243257e-08
3.40077500434e-08
9.08082625646e-08
5.41170833465e-09
8.48312398011e-08
6.05109315668e-08
8.08932656962e-08
4.21626929348e-09
1.0370483837e-07
8.69080712936e-08
1.0194411143e-07
3.01082723648e-08
7.6666902453e-09
5.51102342919e-08
2.66158739536e-08
3.95609328615e-08
9.78666727976e-09
2.39251726741e-09
8.34527324932e-09
2.69411905455e-09
4.49323714026e-10
2.87982572421e-09
1.73503546673e-09
9.21055933304e-09
5.08814915951e-08
3.94976477771e-09
1.54625576223e-09
4.92109221591e-09
1.05046454066e-08
2.79219129728e-10
5.42662441584e-09
2.625037259e-08
2.81990775344e-08
4.45848545528e-08
3.74494869386e-09
3.88629365888e-08
5.1029695138e-08
3.65080795198e-09
1.68762221217e-08
1.7666087249e-08
2.07889584843e-09
2.36788231702e-10
3.22982999399e-09
1.00991487154e-08
7.22271480843e-09
5.71574058807e-09
7.27147641849e-09
6.44379569172e-09
8.42699171744e-09
7.46898465421e-09
6.85383844758e-09
7.85238608584e-09
1.10999666436e-09
9.85475998058e-10
6.28977394734e-10
1.37671907643e-09
7.9384097214e-09
4.39555073252e-09
3.64338510734e-09
9.91902954426e-11
8.89796978269e-10
4.56487998145e-10
4.74743781017e-10
4.461686466e-09
5.64964701342e-09
5.57263724035e-09
1.50969401284e-09
1.12675794295e-09
1.65051602198e-09
2.72907729897e-10
1.0336195628e-09
4.73633870794e-09
3.93292124231e-09
1.6745165659e-08
2.51021516374e-09
1.71211073377e-09
4.37386611545e-09
2.7841496054e-09
3.34838916638e-09
1.46627229895e-07
1.45612292627e-07
3.31416253088e-09
7.12505202137e-11
5.68531489719e-09
7.52858608416e-08
7.79711379102e-08
1.59328558397e-07
5.97880668638e-08
5.29927463063e-08
1.92585463876e-08
2.90524866762e-08
1.5980574275e-08
2.09784450857e-08
3.24979481058e-09
4.98343216234e-09
4.41357478942e-08
4.43487133577e-08
1.88448063003e-08
1.09533556834e-08
3.69734169951e-08
1.00248459402e-08
2.60154525913e-07
1.14358273601e-07
1.42361880785e-07
1.49528578386e-08
1.52929751366e-08
1.98492734347e-08
3.69578342865e-08
5.28761254756e-09
5.97623590352e-09
1.41119581498e-07
2.25654741139e-07
3.03414167198e-07
1.05793017658e-07
1.18842039554e-07
7.29382925139e-08
2.33069334251e-07
5.70192167737e-08
1.18790549212e-07
2.87799017036e-07
1.28070976586e-08
6.07547533035e-09
5.73215765013e-08
2.95076059435e-08
3.49641989399e-09
1.12291004386e-07
2.13776537652e-07
6.14777012026e-09
5.30489592725e-08
7.22020085489e-08
5.03361502973e-08
6.15682339819e-08
4.60973111873e-09
4.56318283373e-08
2.93304607383e-09
8.4287841015e-09
6.0380252939e-09
1.04387126706e-08
6.44567384631e-09
8.93959139522e-09
9.21574771204e-10
7.8433250594e-08
3.91421253258e-08
3.76240919458e-08
2.95819886108e-10
8.19238866871e-10
1.98526524782e-09
3.11967968589e-09
1.76426399537e-09
5.71362104686e-10
1.20398565081e-09
1.64663566609e-09
3.51625106994e-10
1.2585155358e-09
1.14400533865e-09
1.61426342688e-09
3.00621613394e-10
4.15742596262e-10
1.30667298199e-09
7.35843228775e-10
3.25699409309e-10
1.10147707656e-09
1.32317289165e-09
7.53330927348e-09
5.78654167082e-09
2.85041140716e-09
5.54742589811e-10
1.74985842272e-09
9.49160587596e-10
1.18452241294e-08
8.94390179016e-09
6.84690365373e-09
2.51384661414e-09
2.54972728801e-09
1.0064810241e-08
4.95990192942e-09
1.42110360746e-09
3.06074154404e-09
1.68146476795e-08
3.56522622262e-08
6.13318124666e-08
1.94590784337e-09
1.1768968725e-09
9.07552439524e-08
1.36321818641e-07
9.38974396159e-09
6.57619381385e-10
2.19682575674e-09
1.18776810578e-09
6.84850691811e-09
1.023959551e-09
4.27656655237e-09
9.30950174428e-10
3.42130430042e-10
5.11618732228e-09
1.1359065127e-08
4.38242506892e-09
9.44259633928e-09
3.02288800457e-09
5.07532276092e-10
7.17008158812e-08
7.67143101115e-08
8.12541920394e-09
7.57038409178e-08
2.79172167082e-08
7.48796241428e-09
8.79739029676e-09
1.36207625557e-08
1.04293275913e-08
3.55384934729e-09
1.74463920466e-08
3.86819794637e-09
6.05860359396e-09
1.08219690409e-09
1.13179286823e-08
8.84690760437e-09
9.35721179756e-10
2.752590787e-11
3.65444806345e-08
3.43097161896e-08
6.42119039329e-08
1.01670074244e-08
3.61382760106e-09
1.11099489752e-08
6.74387870461e-09
1.25329012311e-08
1.94351623692e-08
2.52150205874e-08
1.18365595196e-08
5.75968297625e-09
1.32580427518e-09
1.6554351264e-08
8.77175175162e-09
8.41814837159e-10
1.98863399017e-09
1.53234306088e-09
1.27901939928e-09
2.22895341725e-10
1.87747494006e-09
1.76109319919e-09
2.08901468928e-09
1.98721977031e-09
1.3055439811e-09
1.44065038236e-09
4.28599036696e-09
1.70677433537e-08
1.4207576821e-08
1.67618266432e-09
2.07502599827e-09
1.12311486969e-09
8.06517734921e-10
8.20556954707e-10
1.04439149812e-09
4.73811091762e-09
3.20943313922e-09
5.35413068031e-10
1.16202072851e-09
3.66049246649e-09
6.0738361843e-10
1.89267048704e-09
1.6652290684e-09
3.82856759063e-09
5.30944031397e-09
4.44483205507e-09
3.18493810111e-09
5.27118417844e-10
5.28914708545e-10
6.76900519142e-10
1.02586663742e-09
4.03675709278e-09
2.29144231219e-08
2.6216147394e-09
1.94584551415e-09
1.95040283509e-09
1.78255436185e-09
1.03017219633e-09
1.23897903108e-09
2.25473512601e-09
2.37064612511e-09
3.06442044249e-09
3.13975726014e-09
3.46833506931e-09
3.11446034314e-09
5.16021897623e-08
1.82386723326e-08
3.8632901691e-08
3.06988851182e-08
6.22719062008e-09
5.28532842043e-09
8.61977483798e-09
8.33776899085e-10
3.31665918332e-10
1.011599593e-10
1.26085273763e-08
1.81435832875e-08
7.0712525563e-09
7.31364224557e-09
1.66225491242e-09
7.90280533644e-09
3.99338088249e-11
5.3705456516e-08
4.44607057545e-08
8.91728788986e-08
4.65325912097e-08
8.53140224107e-08
6.66503399799e-08
2.76928938699e-08
1.94693402855e-09
6.66397407651e-09
1.42400981295e-10
4.67913835646e-09
3.86951117193e-09
1.47305263574e-08
1.70999786315e-08
1.39044511586e-08
2.10530246067e-08
3.55090587845e-08
9.8315225721e-09
7.66077422327e-09
1.72323540444e-08
9.67606439712e-09
2.66045378658e-09
3.59177197098e-09
8.19233945501e-09
2.19395294368e-09
9.05215239267e-09
9.8777284836e-10
1.12616995477e-08
3.61821354207e-08
1.8169918935e-08
2.11302456229e-08
1.73533140312e-08
2.24688520024e-09
2.30062938476e-09
7.72058717235e-09
6.71279728242e-09
9.89392716513e-09
2.62067859429e-08
1.68650497807e-08
1.36984907064e-08
4.74321306179e-08
2.38791778365e-08
7.68359910529e-08
1.79823732896e-08
1.71074573605e-08
4.15422050674e-08
1.77247674872e-08
1.53401394534e-08
4.19718390416e-08
1.37232559498e-08
5.1988726006e-09
1.31134733376e-08
1.02098299538e-08
3.5734636916e-09
1.04890302533e-09
2.23761439313e-09
1.03047994943e-08
7.29785628578e-09
8.88058679639e-09
2.2778264743e-08
1.21584840338e-08
2.25946608344e-09
3.5513008856e-09
1.00081447658e-08
2.71487355676e-09
1.19898573148e-09
3.30373754513e-09
5.37775464999e-09
4.81813154835e-09
7.53963287275e-10
2.33020591206e-09
1.69581573036e-09
9.33613193451e-10
1.51446611691e-09
5.709087764e-09
3.38981536092e-09
1.50125861527e-09
1.82989234416e-09
9.07339148544e-11
2.4001647068e-09
6.41158109864e-09
3.77929701754e-09
8.37844113258e-10
1.84172363244e-09
4.68755769702e-09
8.3697528754e-09
6.74871104267e-09
7.53570525231e-09
6.86637054667e-09
2.53166243343e-09
9.56715405254e-09
4.82540065484e-09
3.87699962231e-09
2.28266979515e-08
3.30963793263e-08
4.11974035876e-09
2.61066288095e-07
2.45506712375e-07
5.55547648832e-07
3.01263538053e-07
1.57817302285e-08
1.25921045944e-07
4.1655125811e-07
9.31665893434e-09
3.78324686762e-09
1.02916051947e-08
1.67335323246e-09
1.62579363284e-09
1.12456547717e-08
4.59046050185e-10
2.14951962276e-09
3.54921373751e-09
5.58523515599e-10
2.202049193e-09
3.87248906374e-09
5.29556337314e-09
1.66027845043e-08
1.14898501579e-08
3.21807910528e-08
4.13950654856e-08
2.94454631756e-07
1.30096835944e-08
4.15917679885e-09
6.34361583662e-08
8.59139394102e-08
3.28536826356e-07
4.48072791683e-07
4.01510386138e-09
4.51577000128e-08
6.29497269101e-08
3.8320127117e-08
3.35727222153e-08
6.2093328403e-07
2.24536923363e-07
1.266971671e-07
2.1705226539e-07
6.76732770574e-07
5.79578841658e-07
1.22537818464e-06
1.67727515335e-06
1.73565725575e-08
2.18575555482e-08
8.5323801145e-09
1.71006736001e-08
2.30260151666e-08
3.74244168607e-09
5.82608418905e-09
2.18051513527e-08
3.97989899106e-08
6.26101134736e-09
1.00309251984e-07
1.05622761434e-08
7.28981294563e-09
2.89375007863e-09
2.87707993964e-09
1.89761085864e-08
9.59965272126e-09
9.5467720396e-08
3.85537626775e-08
1.41546022416e-07
1.22186264754e-07
2.56002759839e-08
2.49828789275e-08
2.66270474647e-08
7.25986267966e-09
1.77548858179e-08
6.73034672e-09
1.11167487256e-08
1.3425408263e-08
2.76603761592e-09
5.73548328861e-09
3.41985385948e-09
1.38496316353e-09
9.21885929773e-09
2.94788391598e-08
6.41518361057e-11
3.3878543108e-09
1.45087919859e-08
3.49025340588e-08
3.43495315326e-08
1.17611712732e-10
1.84116624314e-09
1.75868874777e-08
1.40835883167e-08
2.29864751583e-09
6.72681567825e-09
5.38408958344e-09
3.27780563904e-08
2.57547018647e-08
1.62834692033e-08
8.60466028583e-09
6.42141160859e-09
2.74997987157e-09
1.56415966573e-08
2.32779118356e-08
1.33836928378e-08
1.2853561064e-09
2.97722750718e-10
1.19140143572e-09
1.80190875958e-09
3.18750691519e-09
7.62675173153e-09
6.8034668038e-08
7.00486775669e-09
3.40930026132e-08
7.49280526079e-08
1.22268209606e-08
3.95266367865e-08
3.80111751217e-09
8.32582832684e-09
2.33038953835e-09
2.50242383177e-10
2.37121301472e-09
2.0976075324e-09
7.23979649561e-09
5.7738743382e-09
4.4611383675e-08
4.87022680353e-08
7.81189469378e-09
2.82682227804e-08
3.17802185085e-09
2.99342203102e-09
2.21247194408e-10
2.77053237965e-09
2.6870947064e-09
2.02361862436e-08
1.67526386182e-08
4.25035570321e-09
2.6397148112e-09
1.37697465134e-09
1.98057579884e-09
7.8190191005e-10
1.56946895957e-10
9.74999668082e-10
3.53013534536e-09
3.8114019141e-08
3.13819863371e-08
7.06172189317e-08
9.47099074482e-10
1.64902694579e-09
4.99398452834e-10
5.00103837289e-10
8.3750283983e-10
6.4996209016e-09
5.10787589631e-09
5.15103273353e-08
3.63577870155e-08
3.84690269077e-08
1.65129751821e-07
3.49486924094e-08
4.33503525563e-09
3.80539714986e-09
1.72831102624e-08
1.38249484237e-08
3.64147273694e-08
4.76337924232e-08
2.26364043807e-08
3.05253574285e-08
4.21308769296e-08
9.27835614343e-08
1.08677528831e-07
5.9751336609e-08
2.66667898079e-08
6.78049290709e-09
3.49170149225e-08
2.36517321112e-08
7.39124381952e-09
5.2433850864e-09
2.05758391333e-10
5.31755925051e-10
8.41164056252e-11
6.86224722065e-10
2.10378547092e-09
2.87513663826e-09
8.80482473846e-09
2.14625153265e-11
3.97301912208e-09
2.90236978793e-09
5.99932083669e-09
1.64488355221e-08
1.948197487e-09
5.47793536459e-09
4.3190275114e-09
5.3432209431e-09
4.55912596623e-09
4.60992834417e-09
5.59220622978e-09
5.82102748964e-09
9.12621543823e-09
1.49346964341e-08
5.97025077334e-09
7.03400252786e-09
7.6874822437e-09
8.62106553922e-09
9.19132971904e-09
1.21039626019e-08
1.67359288587e-08
6.66510633527e-09
8.31200864917e-09
9.34288260519e-09
9.30159364037e-09
9.19265126091e-09
1.88773728349e-08
2.62133605908e-08
9.22439466625e-09
1.00865504013e-08
2.24474230358e-08
2.02906773445e-08
2.5281630197e-08
1.66299520332e-08
4.19654874203e-08
8.48283401649e-08
3.33791225711e-08
2.79635267602e-08
2.27755425594e-08
1.20328064935e-08
2.085721643e-08
1.58801541189e-08
1.85344764575e-08
2.69122565104e-08
3.17854575333e-08
1.56173823144e-08
2.11316567192e-08
6.21221083134e-09
1.73087045434e-08
1.27377643078e-08
5.92066052801e-08
5.47502873012e-08
9.7403536431e-08
1.85824505469e-07
5.09835376754e-09
1.75767480142e-07
1.12452257085e-08
5.44237649775e-08
3.4924164461e-08
3.91082358603e-08
4.4457847387e-09
1.19631205872e-08
8.75744131632e-09
2.79063570699e-09
5.67417186645e-08
3.3577905592e-08
1.05809768191e-09
4.18411178071e-08
8.95716525434e-08
7.55892187738e-09
4.73988846038e-08
5.50805641417e-08
6.70943492446e-07
3.81045646055e-07
1.85857444701e-07
2.6887604855e-08
1.55507689303e-07
1.04517862762e-07
1.81691658452e-07
5.27334575285e-08
1.31431338068e-07
4.26627355024e-08
1.44051874621e-07
5.90693709881e-08
1.9779024289e-07
1.57136283373e-07
1.41984793794e-07
9.71609177662e-08
8.62122756173e-08
3.28555024658e-07
2.97370418789e-07
3.90015654854e-07
6.14579921921e-07
2.31444556282e-07
4.19070762555e-07
4.48886459255e-07
6.80965588491e-07
5.86038563941e-07
7.01174994361e-07

