# vtk DataFile Version 3.0
File Name: Molecule/arg/arg_2.0-R2.vtk
ASCII
DATASET UNSTRUCTURED_GRID
FIELD FieldData 1
TIME 1 1 double
0.0
POINTS 4994 double
-3.403 0.327 1.604
-3.40175 0.25375 1.40375
-3.2975 0.155 1.6675
-3.29625 0.08175 1.46725
-3.4005 0.1805 1.2035
-3.192 -0.017 1.731
-3.295 0.0085 1.267
-3.19075 -0.09025 1.53075
-3.1895 -0.1635 1.3305
-3.39925 0.10725 1.00325
-3.29375 -0.06475 1.06675
-3.398 0.034 0.803
-3.0865 -0.189 1.7945
-3.08525 -0.26225 1.59425
-2.981 -0.361 1.858
-2.97975 -0.43425 1.65775
-3.084 -0.3355 1.394
-2.9785 -0.5075 1.4575
-3.18825 -0.23675 1.13025
-3.08275 -0.40875 1.19375
-3.187 -0.31 0.93
-3.2925 -0.138 0.8665
-2.97725 -0.58075 1.25725
-3.0815 -0.482 0.9935
-2.976 -0.654 1.057
-3.29125 0.0315 0.61875
-3.18575 -0.1405 0.68225
-3.1845 0.029 0.4345
-3.079 -0.143 0.498
-3.08025 -0.3125 0.74575
-2.9735 -0.315 0.5615
-3.07775 0.0265 0.25025
-2.97225 -0.1455 0.31375
-2.971 0.024 0.066
-2.97475 -0.4845 0.80925
-2.86925 -0.6565 0.87275
-2.868 -0.487 0.625
-2.7625 -0.659 0.6885
-2.86675 -0.3175 0.37725
-2.76125 -0.4895 0.44075
-2.76 -0.32 0.193
-2.8655 -0.148 0.1295
-2.65575 -0.6615 0.50425
-2.6545 -0.492 0.2565
-2.549 -0.664 0.32
-2.97425 0.0295 0.06
-2.77825 -0.10275 -0.166
-2.7815 -0.09725 -0.172
-2.9775 0.035 0.054
-2.5855 -0.2295 -0.398
-2.78475 -0.09175 -0.178
-2.58875 -0.224 -0.404
-2.592 -0.2185 -0.41
-2.98075 0.0405 0.048
-2.788 -0.08625 -0.184
-2.984 0.046 0.042
-2.39275 -0.35625 -0.63
-2.396 -0.35075 -0.636
-2.2 -0.483 -0.862
-2.204 -0.47675 -0.86875
-2.4 -0.3445 -0.64275
-2.208 -0.4705 -0.8755
-2.596 -0.21225 -0.41675
-2.404 -0.33825 -0.6495
-2.6 -0.206 -0.4235
-2.792 -0.08 -0.19075
-2.212 -0.46425 -0.88225
-2.408 -0.332 -0.65625
-2.216 -0.458 -0.889
-3.05175 0.25775 -0.06225
-2.8805 0.04 -0.1015
-2.94825 0.25175 -0.20575
-3.1195 0.4695 -0.1665
-2.777 0.034 -0.245
-3.016 0.4635 -0.31
-2.84475 0.24575 -0.34925
-2.9125 0.4575 -0.4535
-3.18725 0.68125 -0.27075
-3.08375 0.67525 -0.41425
-3.255 0.893 -0.375
-2.6735 0.028 -0.3885
-2.74125 0.23975 -0.49275
-2.57 0.022 -0.532
-2.62275 0.18675 -0.61325
-2.794 0.4045 -0.574
-2.6755 0.3515 -0.6945
-2.96525 0.62225 -0.53475
-2.84675 0.56925 -0.65525
-3.018 0.787 -0.616
-3.1365 0.84 -0.4955
-2.72825 0.51625 -0.77575
-2.8995 0.734 -0.7365
-2.781 0.681 -0.857
-2.525 -0.05075 -0.68725
-2.57775 0.114 -0.7685
-2.48 -0.1235 -0.8425
-2.6305 0.27875 -0.84975
-2.53275 0.04125 -0.92375
-2.5855 0.206 -1.005
-2.68325 0.4435 -0.931
-2.435 -0.19625 -0.99775
-2.48775 -0.0315 -1.079
-2.39 -0.269 -1.153
-2.44775 -0.08825 -1.242
-2.5455 0.14925 -1.168
-2.5055 0.0925 -1.331
-2.64325 0.38675 -1.094
-2.60325 0.33 -1.257
-2.701 0.5675 -1.183
-2.741 0.62425 -1.02
-2.56325 0.27325 -1.42
-2.661 0.51075 -1.346
-2.621 0.454 -1.509
-3.13525 1.10475 -0.4055
-3.01675 1.05175 -0.526
-3.0155 1.3165 -0.436
-2.897 1.2635 -0.5565
-2.89825 0.99875 -0.6465
-2.7785 1.2105 -0.677
-2.89575 1.52825 -0.4665
-2.77725 1.47525 -0.587
-2.776 1.74 -0.497
-2.77975 0.94575 -0.767
-2.6875 0.84575 -0.8805
-2.68625 1.1105 -0.7905
-2.594 1.0105 -0.904
-2.685 1.37525 -0.7005
-2.59275 1.27525 -0.814
-2.5915 1.54 -0.724
-2.68375 1.64 -0.6105
-2.5005 1.17525 -0.9275
-2.49925 1.44 -0.8375
-2.407 1.34 -0.951
-2.6475 0.789 -1.0435
-2.554 0.95375 -1.067
-2.6075 0.73225 -1.2065
-2.514 0.897 -1.23
-2.4605 1.1185 -1.0905
-2.5675 0.6755 -1.3695
-2.5185 0.63475 -1.535
-2.465 0.85625 -1.3955
-2.416 0.8155 -1.561
-2.4115 1.07775 -1.256
-2.3625 1.037 -1.4215
-2.309 1.2585 -1.282
-2.358 1.29925 -1.1165
-2.3135 0.99625 -1.587
-2.26 1.21775 -1.4475
-2.211 1.177 -1.613
-2.7375 1.788 -0.48
-2.5775 1.66475 -0.74575
-2.539 1.71275 -0.72875
-2.699 1.836 -0.463
-2.379 1.5895 -0.9945
-2.5005 1.76075 -0.71175
-2.3405 1.6375 -0.9775
-2.302 1.6855 -0.9605
-2.6605 1.884 -0.446
-2.462 1.80875 -0.69475
-2.622 1.932 -0.429
-2.1805 1.51425 -1.24325
-2.142 1.56225 -1.22625
-1.982 1.439 -1.492
-1.939 1.49275 -1.473
-2.099 1.616 -1.20725
-1.896 1.5465 -1.454
-2.259 1.73925 -0.9415
-2.056 1.66975 -1.18825
-2.216 1.793 -0.9225
-2.419 1.8625 -0.67575
-1.853 1.60025 -1.435
-2.013 1.7235 -1.16925
-1.81 1.654 -1.416
-2.59025 2.11325 -0.15425
-2.37025 2.0585 -0.5415
-2.3385 2.23975 -0.26675
-2.5585 2.2945 0.1205
-2.1185 2.185 -0.654
-2.30675 2.421 0.008
-2.08675 2.36625 -0.37925
-2.055 2.5475 -0.1045
-2.52675 2.47575 0.39525
-2.275 2.60225 0.28275
-2.495 2.657 0.67
-1.86675 2.3115 -0.7665
-1.835 2.49275 -0.49175
-1.615 2.438 -0.879
-1.58325 2.61925 -0.60425
-1.80325 2.674 -0.217
-1.5515 2.8005 -0.3295
-2.02325 2.72875 0.17025
-1.7715 2.85525 0.05775
-1.9915 2.91 0.445
-2.24325 2.7835 0.5575
-1.51975 2.98175 -0.05475
-1.73975 3.0365 0.3325
-1.488 3.163 0.22
-2.66775 2.56375 0.88275
-2.337 2.826 0.87925
-2.50975 2.73275 1.092
-2.8405 2.4705 1.0955
-2.179 2.995 1.0885
-2.6825 2.6395 1.30475
-2.35175 2.90175 1.30125
-2.5245 2.8085 1.514
-3.01325 2.37725 1.30825
-2.85525 2.54625 1.5175
-3.186 2.284 1.521
-2.021 3.164 1.29775
-2.19375 3.07075 1.5105
-1.863 3.333 1.507
-2.02975 3.24275 1.71225
-2.3605 2.9805 1.71575
-2.1965 3.1525 1.9175
-2.69125 2.71825 1.71925
-2.52725 2.89025 1.921
-2.858 2.628 1.9245
-3.022 2.456 1.72275
-2.36325 3.06225 2.12275
-2.694 2.8 2.12625
-2.53 2.972 2.328
-3.24425 2.16325 1.58775
-3.06875 2.3525 1.727
-3.127 2.23175 1.79375
-3.3025 2.0425 1.6545
-2.9515 2.421 1.933
-3.18525 2.111 1.8605
-3.00975 2.30025 1.99975
-3.068 2.1795 2.0665
-3.36075 1.92175 1.72125
-3.2435 1.99025 1.92725
-3.419 1.801 1.788
-2.83425 2.4895 2.139
-2.8925 2.36875 2.20575
-2.717 2.558 2.345
-2.7825 2.42275 2.41975
-2.958 2.2335 2.2805
-2.848 2.2875 2.4945
-3.1335 2.04425 2.14125
-3.0235 2.09825 2.35525
-3.199 1.909 2.216
-3.309 1.855 2.002
-2.9135 2.15225 2.56925
-3.089 1.963 2.43
-2.979 2.017 2.644
-3.41625 1.4905 1.7905
-3.341 1.799 2.09525
-3.33825 1.4885 2.09775
-3.4135 1.18 1.793
-3.263 1.797 2.4025
-3.3355 1.178 2.10025
-3.26025 1.4865 2.405
-3.2575 1.176 2.4075
-3.41075 0.8695 1.7955
-3.33275 0.8675 2.10275
-3.408 0.559 1.798
-3.185 1.795 2.70975
-3.18225 1.4845 2.71225
-3.107 1.793 3.017
-3.104 1.493 3.0195
-3.17925 1.1845 2.71475
-3.101 1.193 3.022
-3.2545 0.876 2.41
-3.17625 0.8845 2.71725
-3.2515 0.576 2.4125
-3.32975 0.5675 2.10525
-3.098 0.893 3.0245
-3.17325 0.5845 2.71975
-3.095 0.593 3.027
-3.40675 0.501 1.7495
-3.33225 0.50625 1.86975
-3.331 0.44825 1.82125
-3.4055 0.443 1.701
-3.2565 0.4535 1.9415
-3.32975 0.39025 1.77275
-3.25525 0.3955 1.893
-3.254 0.3375 1.8445
-3.40425 0.385 1.6525
-3.3285 0.33225 1.72425
-3.18075 0.40075 2.01325
-3.1795 0.34275 1.96475
-3.105 0.348 2.085
-3.10375 0.283 2.0305
-3.17825 0.27775 1.91025
-3.1025 0.218 1.976
-3.25275 0.2725 1.79
-3.177 0.21275 1.85575
-3.2515 0.2075 1.7355
-3.32725 0.26725 1.66975
-3.10125 0.153 1.9215
-3.17575 0.14775 1.80125
-3.1 0.088 1.867
-3.07125 0.28725 2.10175
-3.1025 0.40925 2.3205
-3.06875 0.3485 2.33725
-3.0375 0.2265 2.1185
-3.1 0.4705 2.556
-3.035 0.28775 2.354
-3.06625 0.40975 2.57275
-3.0325 0.349 2.5895
-3.00375 0.16575 2.13525
-3.00125 0.227 2.37075
-2.97 0.105 2.152
-3.0975 0.53175 2.7915
-3.06375 0.471 2.80825
-3.06575 0.5405 3.0415
-3.0345 0.4185 2.82275
-3.0365 0.488 3.056
-3.00325 0.2965 2.604
-3.00525 0.366 2.83725
-2.974 0.244 2.6185
-2.972 0.1745 2.38525
-3.00725 0.4355 3.0705
-2.976 0.3135 2.85175
-2.978 0.383 3.085
-3.0025 0.10075 2.08075
-2.94375 -0.00775 2.14225
-2.97625 -0.012 2.071
-3.035 0.0965 2.0095
-2.9175 -0.1205 2.1325
-3.00875 -0.01625 1.99975
-2.95 -0.12475 2.06125
-2.9825 -0.129 1.99
-3.0675 0.09225 1.93825
-3.04125 -0.0205 1.9285
-2.89125 -0.23325 2.12275
-2.92375 -0.2375 2.0515
-2.865 -0.346 2.113
-2.894 -0.34975 2.04925
-2.95275 -0.24125 1.98775
-2.923 -0.3535 1.9855
-3.0115 -0.13275 1.92625
-2.98175 -0.245 1.924
-3.0405 -0.1365 1.8625
-3.07025 -0.02425 1.86475
-2.952 -0.35725 1.92175
-3.01075 -0.24875 1.86025
-2.77875 -0.4345 2.191
-2.89325 -0.16375 2.356
-2.807 -0.25225 2.434
-2.6925 -0.523 2.269
-2.9215 0.0185 2.599
-2.72075 -0.34075 2.512
-2.83525 -0.07 2.677
-2.749 -0.1585 2.755
-2.60625 -0.6115 2.347
-2.6345 -0.42925 2.59
-2.52 -0.7 2.425
-2.94975 0.20075 2.842
-2.8635 0.11225 2.92
-2.89475 0.2975 3.1605
-2.78025 0.02675 2.9955
-2.8115 0.212 3.236
-2.66575 -0.244 2.8305
-2.697 -0.05875 3.071
-2.5825 -0.3295 2.906
-2.55125 -0.51475 2.6655
-2.72825 0.1265 3.3115
-2.61375 -0.14425 3.1465
-2.645 0.041 3.387
-2.457 -0.8875 2.29075
-2.39075 -0.8105 2.6605
-2.32775 -0.998 2.52625
-2.394 -1.075 2.1565
-2.2615 -0.921 2.896
-2.26475 -1.1855 2.392
-2.1985 -1.1085 2.76175
-2.1355 -1.296 2.6275
-2.331 -1.2625 2.02225
-2.20175 -1.373 2.25775
-2.268 -1.45 1.888
-2.13225 -1.0315 3.1315
-2.06925 -1.219 2.99725
-2.003 -1.142 3.367
-1.93375 -1.34775 3.2195
-2.0 -1.42475 2.84975
-1.8645 -1.5535 3.072
-2.06625 -1.50175 2.48
-1.93075 -1.6305 2.70225
-1.997 -1.7075 2.3325
-2.1325 -1.57875 2.11025
-1.79525 -1.75925 2.9245
-1.8615 -1.83625 2.55475
-1.726 -1.965 2.777
-2.099 -1.51775 1.733
-1.9635 -1.6465 1.95525
-1.93 -1.5855 1.578
-1.7945 -1.71425 1.80025
-1.828 -1.77525 2.1775
-1.659 -1.843 2.0225
-1.761 -1.65325 1.423
-1.6255 -1.782 1.64525
-1.592 -1.721 1.268
-1.6925 -1.904 2.39975
-1.5405 -2.0395 2.607
-1.507 -1.9785 2.22975
-1.355 -2.114 2.437
-1.4735 -1.9175 1.8525
-1.3215 -2.053 2.05975
-1.288 -1.992 1.6825
-1.44 -1.8565 1.47525
-1.1695 -2.1885 2.267
-1.136 -2.1275 1.88975
-0.984 -2.263 2.097
-1.74475 -1.65175 1.14075
-1.434 -1.84825 1.02675
-1.58675 -1.779 0.8995
-1.8975 -1.5825 1.0135
-1.276 -1.9755 0.7855
-1.7395 -1.70975 0.77225
-1.42875 -1.90625 0.65825
-1.5815 -1.837 0.531
-2.05025 -1.51325 0.88625
-1.89225 -1.6405 0.645
-2.203 -1.444 0.759
-1.118 -2.10275 0.54425
-1.27075 -2.0335 0.417
-0.96 -2.23 0.303
-1.12775 -2.154 0.16325
-1.4385 -1.9575 0.27725
-1.2955 -2.078 0.0235
-1.74925 -1.761 0.39125
-1.60625 -1.8815 0.1375
-1.917 -1.685 0.2515
-2.06 -1.5645 0.50525
-1.46325 -2.002 -0.11625
-1.774 -1.8055 -0.00225
-1.631 -1.926 -0.256
-2.274 -1.27925 0.6495
-2.131 -1.39975 0.39575
-2.345 -1.1145 0.54
-2.202 -1.235 0.28625
-1.988 -1.52025 0.142
-2.059 -1.3555 0.0325
-2.416 -0.94975 0.4305
-2.273 -1.07025 0.17675
-2.487 -0.785 0.321
[...]
CELL_DATA 9984
SCALARS cell_data_0 double
LOOKUP_TABLE default
1.29191573005e-08
2.51682941586e-08
2.31563760496e-08
1.67335517951e-08
1.52446741851e-08
2.50351195871e-08
2.10016135498e-08
2.58995257365e-09
1.16118766522e-08
1.06422933289e-08
8.13948318045e-08
4.27462244859e-08
2.12850330771e-08
2.69388994041e-08
1.8748318433e-08
2.80265770711e-08
3.7513018719e-08
5.42867179373e-08
1.07167012253e-07
7.13785894372e-08
1.80327860103e-07
3.64893012437e-07
3.04102662308e-07
3.1117120499e-07
1.00599799447e-07
1.71884987665e-07
2.09737845506e-07
2.28903391736e-07
2.43341263144e-07
3.62885744648e-07
3.80921773619e-07
2.14694081418e-07
7.31946744395e-07
9.28139149304e-07
7.28870346989e-07
3.98054379687e-07
7.43712691741e-07
7.32552876452e-07
4.2535677907e-07
2.76462926614e-07
5.27060544013e-07
6.480039164e-07
6.53872404666e-08
4.9463420374e-07
1.84315857879e-07
4.01904649531e-07
2.56347307236e-07
4.59485804287e-07
4.9267541176e-07
6.30923779526e-07
4.02625120997e-07
2.89720507068e-07
2.88028968333e-07
4.54741209101e-07
2.07830117712e-07
2.88455504647e-07
2.09230629582e-07
6.87145452784e-07
3.59098004868e-07
4.5640827113e-07
2.43893941277e-07
7.00440982015e-07
4.20524556619e-07
3.25937442403e-07
3.58518802288e-07
9.19673487614e-08
4.36153391806e-07
4.00938555093e-07
1.58253963721e-07
4.06325027433e-07
1.23872992999e-07
9.69530512899e-08
5.22457852033e-07
1.79286128183e-07
2.66382008793e-07
6.4118982874e-07
4.07964995854e-07
6.35057455133e-08
8.5430528814e-08
2.9840277447e-07
4.46980336467e-08
8.22122575726e-08
7.89289933615e-08
8.80862624884e-08
6.5281843748e-07
1.40823087899e-07
4.03559250153e-07
5.73833517105e-07
1.4207096607e-07
4.53756682089e-07
1.79235044351e-07
6.23456006563e-08
8.13534800029e-08
5.42843158498e-07
7.87491198325e-08
7.48693491148e-09
1.12261673555e-06
1.80828068113e-06
4.71178561251e-07
1.16564390386e-06
8.74300693089e-07
1.85607772131e-06
1.26911152253e-06
7.98892724702e-07
1.01815215459e-06
1.83042857892e-06
9.42881214867e-07
1.10640099013e-06
6.57673848444e-07
1.07939719981e-06
7.42044306878e-07
2.34652287688e-07
1.2412261692e-07
3.87619922543e-07
2.58569663936e-07
1.02713201066e-07
2.28058674312e-07
3.30155775131e-07
1.47279646357e-07
1.19027331544e-07
4.3307997273e-07
8.84092000615e-07
7.60499087721e-07
3.70719731776e-07
3.34339166896e-07
7.35522155254e-07
2.00491424533e-07
7.15692341815e-07
2.1667675117e-07
3.24283442797e-07
1.06213499134e-08
1.00340384475e-07
4.25172580303e-09
3.62176971666e-08
6.0111999549e-08
6.78881553578e-08
3.117634461e-07
4.52622315728e-07
4.7578628041e-07
3.39045181592e-08
4.56792660697e-08
3.04957211969e-09
1.01907865713e-07
7.90675515681e-08
1.47352892553e-07
7.07893924729e-08
1.19267303427e-07
1.39120857658e-07
9.75172758743e-08
3.02386025365e-08
5.21468344274e-08
1.08086504762e-07
6.61199129742e-08
1.19635913976e-08
8.82388469605e-08
6.57140406019e-09
1.04342337635e-07
2.98025989873e-08
2.03021614498e-08
1.45475380783e-08
3.92376413373e-07
3.30563539999e-07
8.33041394789e-08
3.32823489262e-07
5.92363498157e-08
3.9630098222e-08
1.36832545233e-08
5.22776781375e-08
1.10840796425e-07
6.45132262936e-08
4.22552135375e-08
2.91906316605e-09
2.23153783299e-07
1.84258236588e-07
1.27954879664e-09
2.51556046393e-07
6.91115432459e-09
2.41815468753e-08
2.89054706672e-08
6.7390727207e-08
2.78759939819e-08
2.08428281382e-08
6.89018934426e-09
4.80069147825e-08
1.17776011007e-08
2.24608093065e-09
2.21855966896e-11
5.72770575101e-09
8.02772215543e-08
3.73762879945e-08
3.88172368355e-08
7.08592743854e-08
5.43865315376e-08
1.00422282706e-08
5.02778715765e-08
2.57687164333e-09
4.66575074542e-08
1.95870982265e-08
6.00543540838e-08
3.32325283934e-08
7.11705190107e-08
3.23890137002e-08
4.68265638382e-08
6.19806604831e-08
1.29250687196e-08
1.87298003114e-08
6.37139456635e-08
1.64216754887e-08
2.52408166146e-08
4.10176557516e-08
9.18336013485e-08
1.03819610452e-07
9.96754626655e-08
5.54262664772e-08
1.09157702584e-07
1.21430404411e-07
8.0593973404e-08
3.30402301952e-08
3.49753379063e-08
8.34027859897e-08
1.30275077413e-07
6.70406524295e-08
1.02642179054e-07
1.29079399832e-07
1.06502400635e-07
2.43609126212e-07
1.5215337746e-07
2.08967339662e-07
1.1655434634e-07
1.85398989492e-07
6.62183309495e-08
1.68012270475e-07
3.15958573824e-08
2.23113324479e-08
7.72194198122e-09
2.5448578829e-08
3.15954720184e-08
2.06328772756e-09
4.29740603424e-09
2.00298631062e-08
1.2584980517e-07
4.03291137434e-08
5.63616235352e-08
1.51278816361e-07
3.09937778537e-08
1.23504706747e-08
3.30623701052e-08
7.68392671757e-08
1.35634670065e-08
1.179283279e-07
9.88917861883e-08
3.50984355763e-08
1.1617943014e-07
3.91199526428e-08
3.2339939166e-08
1.6243793032e-07
1.55370767986e-06
2.46935460268e-06
1.35327229134e-06
8.68195030575e-07
1.11406868066e-06
2.32635134565e-06
1.46981924669e-06
9.46214191695e-07
1.40154550162e-06
3.26464342516e-06
2.17755145057e-06
1.88085726706e-06
1.05061282903e-06
2.67619884583e-06
1.58899800548e-06
8.56413423045e-07
5.97057985734e-07
1.99216274072e-06
1.29690617798e-06
6.09513512363e-07
7.42995062954e-07
1.04289517931e-06
5.70671590525e-07
5.04178282605e-07
1.36365068827e-06
2.83381331424e-06
2.40688279474e-06
1.40495192022e-06
1.55121186096e-07
6.41713318584e-07
6.65567149283e-07
4.58537476521e-07
4.29677573706e-08
8.40596153291e-08
1.1593647722e-07
2.71583970274e-07
1.59495799534e-07
1.71319427903e-09
5.12607206574e-07
3.49012465452e-07
3.06070988026e-07
1.07602472076e-07
2.32648919548e-07
4.84564208413e-07
4.59545670596e-07
2.4423387636e-07
6.90763620798e-07
3.49207734751e-07
7.75402757993e-07
8.43573897718e-07
8.129435742e-07
8.04679021428e-07
1.30201618766e-06
9.11184852405e-07
1.09596508049e-06
4.60780034275e-07
1.09658806968e-06
8.61253064232e-07
3.76757307378e-07
1.26432690918e-06
4.73955845947e-07
4.67603186167e-07
6.33533060412e-07
4.23507943745e-07
4.23491482918e-07
6.8644814515e-07
6.4434742103e-07
6.5586637438e-07
6.26529030739e-07
8.82991189773e-07
1.00656800318e-06
8.6638947422e-07
6.89965011946e-07
1.03063794604e-06
7.47497626862e-07
1.08111324984e-06
8.71439820123e-07
9.60391081742e-07
1.07684922089e-06
5.67594362986e-07
7.70859251821e-07
1.34031589226e-06
1.29876537931e-06
1.39867286137e-06
1.42586201648e-06
1.35043383381e-06
1.18271907014e-06
1.29213256302e-06
1.41706223743e-06
1.36248252351e-06
8.32013377803e-07
1.20588332777e-06
1.12503363331e-06
9.28621248955e-07
9.23926791814e-07
4.71554789381e-07
1.79822558443e-06
3.45416038626e-06
4.62389854597e-06
3.47365796873e-06
4.93886843065e-06
4.87961937096e-06
5.19666541069e-06
4.60989014819e-06
4.77046871776e-06
4.24838814773e-06
2.47275876807e-06
4.70064255191e-06
4.6932060259e-06
5.40196286978e-06
5.6539213006e-06
3.1478044265e-06
2.85875882089e-06
4.65163887438e-06
5.08552484409e-06
4.68610311261e-06
4.67696246627e-06
3.59809156547e-06
2.5317276866e-06
4.00549541993e-06
4.56625959756e-06
3.70776674377e-06
2.09966430769e-06
2.77184969247e-06
3.95731703492e-06
3.40374486143e-06
2.44007895624e-06
2.17870054579e-06
2.02142746454e-07
3.45517507635e-07
2.89211812301e-07
2.14604882819e-07
2.81992151728e-07
3.32392766241e-07
4.43681251983e-07
2.09392504871e-07
2.7003130414e-07
3.11244154454e-07
1.59715596449e-07
4.36409441351e-07
1.96449799739e-07
2.87144107005e-07
4.11262393823e-07
1.49550265918e-07
1.52774421044e-07
2.17389752304e-07
3.59571919086e-07
3.82682989652e-07
3.0777785144e-07
9.92758048567e-08
3.22839180198e-07
3.01697432315e-07
3.94928837879e-07
1.9983361137e-07
1.28065101617e-07
3.59365058872e-07
2.91604222916e-07
8.56019530545e-08
2.9628819922e-07
4.1646460885e-08
7.83374452353e-08
1.25024078066e-07
6.21344341091e-07
4.02656225225e-07
5.60107918815e-07
1.02360647702e-07
4.65705121634e-07
4.17097866144e-07
5.32763465239e-07
9.49444851199e-08
4.73948034005e-08
4.47472061852e-07
4.75023997704e-07
1.46511333986e-07
5.00711775534e-07
1.12778113177e-07
8.64642487058e-08
1.4962899551e-07
4.91421433942e-07
2.6969699559e-07
4.65533105735e-07
1.28151904842e-07
2.21880491926e-07
2.43367417098e-07
3.9824507565e-07
7.75890153975e-08
4.88830020378e-08
2.09426555134e-07
1.80092100022e-07
4.45220192039e-08
1.99584019307e-07
3.21595806634e-08
5.71232986277e-10
3.11347428442e-09
1.50677424926e-08
6.69901741329e-09
1.51279458864e-08
5.17160505516e-09
8.3076132781e-08
1.0876491962e-08
1.2490283795e-08
3.40949603225e-09
6.61289302185e-09
7.45167803981e-08
1.67961972202e-10
5.32628059928e-09
7.36915380986e-08
9.51803587879e-09
4.23535671547e-09
5.21045891142e-09
5.82315305438e-08
7.2897321731e-09
5.93157105824e-08
2.22008895417e-09
1.31164271544e-08
1.44095020202e-08
5.79255179818e-08
3.11241460782e-09
1.93915898342e-09
1.86672969224e-08
7.47815326624e-09
9.07356812904e-09
1.72386502493e-08
8.9483362883e-10
1.14253781829e-07
3.39066002834e-07
1.18192852566e-07
6.60542801766e-07
4.24164403663e-07
6.86354773604e-07
5.32187543846e-07
6.20084326892e-07
3.06221106636e-07
4.33180960947e-07
8.62498974813e-08
3.99632111254e-07
6.81014139299e-07
7.7381248037e-07
5.60906231624e-07
4.48133871054e-07
4.72636801992e-07
7.13923977329e-07
4.73857523945e-07
6.33477458901e-07
3.96113608054e-07
4.68447582427e-07
3.5974487871e-07
4.61132627084e-07
3.32479111835e-07
3.10177466578e-07
5.30711413221e-08
2.58667875464e-07
4.41595811607e-07
4.14779167212e-07
3.40923067518e-07
2.64710986799e-07
1.13724726426e-07
1.40413720019e-08
5.00137226586e-08
2.4612835566e-07
3.33070460716e-08
2.11189205857e-07
3.75011192749e-07
4.01858923069e-07
6.41672758299e-08
6.59911912775e-08
1.41608674236e-07
1.79607786197e-07
5.97810543806e-07
6.72171575825e-07
6.18991938287e-07
8.11990904343e-07
1.15967459809e-06
1.04124291791e-06
7.87204296334e-07
1.12619272854e-06
6.66819856551e-07
7.18643685072e-07
4.64852551639e-07
8.59170364203e-07
3.70609654511e-07
2.29961766936e-07
1.36084515669e-08
2.37584461209e-07
8.21277101457e-07
5.65067820132e-07
3.66743771634e-07
3.32863501676e-07
1.0106239704e-07
2.34721261184e-07
2.43392701131e-07
1.14627536322e-07
2.51739223815e-07
3.43380798587e-07
3.02923743734e-07
2.65381518694e-07
2.68835891088e-07
1.54417136155e-07
1.68705168266e-07
2.53422832317e-07
2.44886962085e-07
1.68051675817e-07
2.39199026789e-07
9.52216157525e-08
6.34440243508e-08
4.50304582003e-07
1.27368381792e-07
2.12118991977e-08
3.8361618924e-08
3.22064117065e-07
1.93014822351e-08
2.07332233097e-07
4.65509242519e-09
4.47879296861e-07
8.15115888078e-08
1.41034975646e-07
2.31250880509e-07
1.64787588912e-07
1.96230864844e-07
1.7845498624e-07
2.27604396376e-07
7.82439623212e-07
3.19141485319e-07
1.14907937661e-07
1.47648578259e-07
1.54812529975e-07
2.77454962923e-07
6.55618984855e-08
2.61110272037e-07
3.76885132352e-07
1.91204669115e-07
2.52085009341e-07
2.49636918175e-07
2.22161813234e-07
2.49721446345e-07
2.2849197506e-07
4.32813542214e-07
4.16911759374e-07
2.74769494829e-07
4.24067668574e-07
3.06529293344e-07
1.83729656959e-07
1.23806357082e-07
1.63511300756e-07
2.74544379401e-07
9.71391030943e-08
6.24313285003e-08
1.10686617273e-07
4.56776771926e-08
8.96726612822e-07
4.20588994255e-07
2.83679376393e-07
1.34013194583e-07
5.53757279711e-07
1.45034928956e-08
3.54537282317e-07
2.21713812295e-08
3.28542381332e-08
2.14573499141e-07
5.32950880664e-08
2.86622300817e-07
6.15605131324e-07
3.10941164414e-07
1.20621060327e-07
2.0273530707e-07
7.6484515881e-07
1.60934157466e-08
4.37437881132e-07
1.55087505694e-07
9.10463845684e-08
5.70569070176e-08
3.99426793066e-07
4.00761826282e-07
4.98936986361e-07
4.21311045371e-07
3.43209138285e-07
2.97147848009e-07
1.84604518013e-07
1.1079259295e-07
3.44501781734e-07
3.1119264735e-07
4.24658385931e-07
4.35397269934e-07
4.38865794184e-07
5.54499310548e-08
2.56490423264e-08
2.1610381811e-08
3.21756241551e-08
5.43797078342e-08
1.64133663221e-07
5.83486151547e-08
7.05076242185e-09
1.04426620459e-07
1.88856639822e-07
3.53052781925e-08
3.14631475636e-08
6.36850181489e-09
5.85881299575e-08
1.01749423853e-08
1.55138803425e-08
8.60468735203e-08
8.7486199551e-08
2.94553829276e-08
1.56935303176e-08
5.52227852852e-08
2.17025725623e-07
1.04164350634e-08
9.80264650755e-08
2.00208081543e-08
3.91637814896e-08
6.15487423915e-08
5.72637862931e-08
4.5105263424e-08
2.74706203819e-08
4.35367101493e-08
1.16301470987e-07
9.59905480214e-08
5.04563077748e-08
8.98019308572e-08
6.44433686774e-08
1.02481347693e-07
9.87555345302e-08
9.8659134833e-08
8.08154693174e-08
1.24279393584e-07
7.18803726259e-08
6.16675494711e-08
5.55962469867e-08
2.0701593176e-09
9.99025075065e-08
3.55983884883e-08
7.27472519821e-08
7.16771640622e-08
1.24525620902e-07
1.71824180342e-08
1.76538876659e-08
2.47500932976e-08
1.59688538204e-09
4.47108228228e-08
5.84348445349e-08
1.49853729423e-08
3.01008596786e-08
3.99117385497e-08
6.28653963446e-08
1.05094140273e-08
8.8652436e-08
7.28696919324e-08
1.72374698493e-08
4.76069900736e-08
2.99749503085e-08
4.20710167653e-08
9.10772720716e-08
8.42646424792e-08
8.55703492981e-08
7.98414999063e-08
7.87164440148e-08
8.3531173432e-08
7.02514153932e-08
6.3909431847e-08
7.72423291693e-08
9.00223269222e-08
7.81789700855e-08
7.18333436984e-08
1.08973948471e-07
3.96536352637e-08
4.05715792342e-08
3.91704098986e-08
4.1071104769e-08
1.18321042064e-08
6.05882858747e-08
1.12409339763e-08
2.89533472799e-08
8.74558687056e-09
6.93323290606e-08
5.85669984042e-09
4.10666182304e-08
4.04231357282e-08
1.90273077326e-08
2.76956772564e-08
3.48129742217e-08
2.08930687525e-07
8.33565140705e-08
9.82025891641e-08
8.04937131637e-08
7.00233722806e-08
1.07232586155e-07
6.29792983849e-08
5.42761789524e-08
2.15525947453e-07
2.38048254721e-07
2.1732392171e-07
1.67422920373e-07
1.27677476782e-07
1.53399235364e-07
1.08499939101e-07
1.96313966774e-07
1.8861398273e-07
2.19338184445e-07
1.84557450549e-07
1.53429952052e-07
1.85222652068e-07
2.00677646331e-07
1.54535685652e-07
1.28174829662e-07
2.10329270435e-07
2.67045602954e-07
2.5640909561e-07
2.00008628654e-07
9.40436127459e-08
1.34890152576e-07
1.40049824912e-07
9.4968054179e-08
1.37383714536e-07
1.60343081562e-07
1.6996843038e-07
1.72087504469e-07
1.82282151303e-07
1.958015306e-07
1.80063081352e-07
1.32663856535e-07
1.88119407277e-07
2.07546348316e-07
1.67401800265e-07
1.90849278953e-07
1.2948177228e-07
1.40984477725e-07
1.52524112489e-07
1.12141991403e-07
1.79466783874e-07
2.31310425589e-07
2.19771002878e-07
2.53703138425e-07
2.37298480589e-07
2.59469071033e-07
2.23732233951e-07
2.7075291578e-07
2.2665555939e-07
2.52548923752e-07
2.03540228449e-07
2.10337298208e-07
2.73363354186e-07
2.76424308689e-07
2.22945604996e-07
2.14019518574e-07
4.22952230096e-07
5.32100014501e-07
5.75478101102e-07
4.3742028742e-07
5.96840765547e-07
6.08823398959e-07
6.47948530962e-07
4.89515302788e-07
6.19144136511e-07
6.80818503694e-07
5.62344488468e-07
6.8251139263e-07
4.41392338674e-07
5.26277670266e-07
6.28483790982e-07
3.26150213745e-07
5.34384435802e-07
9.49136793459e-07
9.12433888636e-07
1.11118979145e-06
9.59217170263e-07
1.00243421003e-06
9.48939168566e-07
1.09129873409e-06
9.13226817358e-07
8.64637156476e-07
6.60050131231e-07
7.82329743866e-07
1.2044361375e-06
1.09605534298e-06
8.7440116343e-07
1.07489108886e-06
9.71816541192e-08
1.27711291934e-07
1.0850351452e-07
1.60913915307e-07
1.18147950969e-07
1.35297091286e-07
1.43249793986e-07
1.50802349826e-07
9.26569010979e-08
7.17886424588e-08
1.07005846388e-07
1.11719465162e-07
1.78509428728e-07
1.61649802749e-07
1.50771632049e-07
1.87011201626e-07
2.43950722282e-07
1.85235750625e-07
1.76630723931e-07
2.28720180173e-07
1.47925193576e-07
9.11343475607e-08
1.05130739505e-07
1.73778284015e-07
1.23299790967e-07
1.00144043655e-07
1.65064511098e-07
1.29053910367e-07
1.91383806072e-07
1.42983147571e-07
1.30653748007e-07
2.07452901292e-07
4.54919841566e-07
3.80971627718e-07
4.3155778788e-07
3.95091956147e-07
4.20756976946e-07
3.59144897503e-07
4.23539354462e-07
3.68342864871e-07
4.10992353686e-07
3.70077934389e-07
4.64246683752e-07
4.57364742241e-07
3.42089121998e-07
4.17956461416e-07
4.63017019188e-07
4.47116545901e-07
4.553221782e-07
4.42425063322e-07
4.39320103908e-07
5.03922188211e-07
4.37909339666e-07
3.9167371899e-07
4.35930421271e-07
4.67996578363e-07
5.12341481207e-07
5.10031969093e-07
5.53653918974e-07
4.45594072348e-07
4.1592259465e-07
1.57514925825e-07
3.0256636549e-07
6.92242216192e-08
4.5986961773e-07
2.88528585073e-07
3.56803476322e-07
2.73851092719e-07
2.51104372482e-07
6.30143419283e-08
1.12090482419e-07
1.80445409992e-07
1.35559611425e-07
1.39185743069e-07
1.5356948931e-08
1.05989383002e-07
2.84219318862e-08
8.23547862761e-08
1.30923220573e-07
1.38763882192e-07
1.46422849987e-07
2.24138672041e-08
1.32988386781e-07
7.88791925371e-08
1.44794994697e-07
4.25303489448e-09
8.47768432732e-08
5.47996980333e-08
1.2347569689e-07
1.5294979146e-08
4.64507508549e-08
1.36021252338e-07
7.53500506088e-09
3.2883040411e-09
1.0681254412e-07
9.42184456001e-08
3.4638439262e-07
2.6414935392e-07
2.61105817933e-07
3.4410289584e-07
2.70331433502e-07
2.03416865182e-07
3.1254480735e-07
3.419919361e-07
2.36674123252e-07
2.43016314397e-07
2.26354205286e-07
3.35041409462e-07
3.84680577514e-07
2.47556758541e-07
2.88530324373e-07
4.05224423528e-08
5.21146621146e-07
3.49939286449e-07
2.55114964715e-07
1.99973412083e-07
1.4536798133e-07
8.72302143111e-08
2.54559189952e-07
4.70117659225e-07
2.98007328226e-07
4.85107217369e-08
2.24604790974e-07
1.21798048321e-07
7.18808356018e-07
6.00499650138e-07
6.16781134248e-07
1.25104967109e-06
1.02072099463e-07
6.46876840842e-08
1.66840549127e-07
3.19891071987e-07
1.57302088101e-07
3.58055329849e-08
2.13696793756e-08
4.41171041675e-07
1.41874943862e-06
4.04081336299e-06
3.08132142081e-06
1.60719959177e-06
2.93936686461e-07
1.10839603009e-06
6.42060583285e-07
4.14566761222e-07
5.59903615232e-07
2.40240735876e-06
1.18659985859e-06
8.83498987522e-07
1.12100192079e-06
1.99117442939e-06
7.18736249096e-07
8.23464504442e-07
8.3956526004e-07
1.54394983318e-06
9.35410184802e-07
7.03919042078e-07
4.59520447701e-08
1.81253841383e-06
1.65779085297e-06
6.43036317952e-07
1.46850892097e-07
9.59312346974e-07
4.97770586646e-07
2.44582998919e-08
1.29260254397e-06
2.97195025879e-06
1.2265414654e-06
4.27099420703e-07
6.86998548394e-07
1.82087794199e-06
4.64590147331e-08
9.22482521809e-07
6.02892260381e-07
1.29085228653e-06
4.18969539905e-09
3.06289321142e-07
7.94986371853e-07
2.72232840296e-07
4.43080238986e-07
1.29972678127e-06
1.54067665057e-07
7.8472853386e-07
3.07284698414e-07
1.23273470855e-06
5.92385433485e-08
1.37151374111e-06
3.15809272457e-07
6.28072886348e-08
1.01633871971e-06
3.52622471727e-07
4.41837221658e-07
3.25881322933e-07
2.10696739914e-06
2.90315166079e-06
1.91752725148e-06
7.82492212523e-07
1.39453233045e-06
2.16590753876e-06
1.12320482265e-06
6.92341348992e-07
1.85035228572e-06
2.78893722258e-06
2.1579876169e-06
1.1729149711e-06
2.13635204696e-07
1.71888215665e-06
1.29515515951e-06
2.26103416753e-07
1.08297844766e-07
8.2450267468e-07
6.72644588152e-07
9.39341149374e-07
8.90565855511e-07
3.85840302994e-06
4.06261573875e-06
9.59209069695e-07
1.83002713931e-06
3.14782286231e-06
1.8557827911e-06
2.3135186335e-06
7.31345396061e-07
2.32233278666e-06
2.573415427e-06
2.71372694507e-07
5.28853350544e-06
4.96360420674e-06
2.19425240554e-08
4.41415914025e-06
2.46548897866e-08
2.60906861655e-07
1.05718012814e-06
1.45636251273e-07
2.10885398186e-06
5.95575747602e-06
4.58441066355e-06
4.12781778982e-06
7.67084514256e-07
1.34548139075e-06
1.53125914344e-06
1.09902310435e-06
1.77660207658e-06
3.4446203594e-06
2.58316481023e-06
2.44022054016e-06
8.12002798557e-06
9.22912077507e-06
6.79137368965e-06
1.77239613487e-06
1.10715403424e-05
1.60011568895e-05
5.74077401552e-06
9.50101603547e-06
1.12128571419e-06
3.06853219021e-06
2.34833353065e-06
3.23694901448e-06
3.07193141992e-06
8.70409718985e-06
6.59855319999e-06
4.60098690804e-06
4.30304458108e-06
5.72237537284e-06
1.41009959808e-06
4.37905859431e-06
8.8566667224e-07
9.63483740625e-07
2.49185938149e-07
8.72432444075e-07
2.72523652233e-06
3.40898023187e-06
1.15198090633e-06
2.29489250683e-06
8.81106220148e-07
1.86355238351e-06
1.22614897205e-06
1.43157502752e-06
9.66115114581e-07
1.37423575648e-06
7.07120564643e-07
1.32743280986e-06
3.14609851479e-07
1.13387489062e-06