# vtk DataFile Version 3.0
File Name: Molecule/arg/arg_13.5-1.vtk
ASCII
DATASET UNSTRUCTURED_GRID
FIELD FieldData 1
TIME 1 1 double
0.0
POINTS 2465 double
-3.403 0.327 1.604
-3.452 0.202 1.348
-3.215 0.119 1.662
-3.262 -0.0 1.417
-3.073 -0.113 1.748
-3.12 -0.233 1.503
-2.981 -0.361 1.858
-3.03 -0.485 1.602
-3.45 0.103 1.078
-3.261 -0.095 1.158
-3.118 -0.328 1.244
-3.028 -0.584 1.332
-3.398 0.034 0.803
-3.211 -0.162 0.894
-3.068 -0.394 0.98
-2.976 -0.654 1.057
-3.298 -0.003 0.536
-3.114 -0.197 0.638
-2.972 -0.43 0.724
-2.876 -0.691 0.79
-3.153 -0.007 0.286
-2.976 -0.201 0.399
-2.833 -0.433 0.485
-2.731 -0.694 0.541
-2.971 0.024 0.066
-2.801 -0.171 0.187
-2.658 -0.404 0.273
-2.549 -0.664 0.32
-2.984 0.046 0.042
-2.75 -0.004 -0.09
-2.763 0.017 -0.113
-2.556 -0.072 -0.268
-2.569 -0.051 -0.29
-2.396 -0.177 -0.461
-2.409 -0.155 -0.484
-2.276 -0.316 -0.661
-2.29 -0.293 -0.686
-2.2 -0.483 -0.862
-2.216 -0.458 -0.889
-3.158 0.288 -0.115
-2.796 0.071 -0.172
-2.948 0.283 -0.31
-2.637 0.05 -0.409
-2.775 0.243 -0.534
-2.512 -0.016 -0.658
-2.645 0.17 -0.779
-2.429 -0.124 -0.909
-2.565 0.066 -1.033
-2.39 -0.269 -1.153
-2.537 -0.063 -1.287
-3.25 0.578 -0.258
-3.029 0.537 -0.435
-2.849 0.475 -0.648
-2.717 0.393 -0.888
-2.638 0.295 -1.145
-2.617 0.185 -1.409
-3.255 0.893 -0.375
-3.034 0.813 -0.538
-2.853 0.726 -0.742
-2.721 0.635 -0.979
-2.642 0.542 -1.238
-2.621 0.454 -1.509
-3.173 1.207 -0.458
-2.961 1.09 -0.611
-2.787 0.978 -0.808
-2.657 0.877 -1.042
-2.577 0.79 -1.303
-2.55 0.723 -1.58
-3.008 1.498 -0.5
-2.817 1.344 -0.647
-2.656 1.21 -0.842
-2.531 1.1 -1.074
-2.448 1.019 -1.336
-2.41 0.97 -1.615
-2.776 1.74 -0.497
-2.613 1.557 -0.645
-2.47 1.404 -0.839
-2.352 1.286 -1.072
-2.264 1.21 -1.334
-2.211 1.177 -1.613
-2.622 1.932 -0.429
-2.565 1.626 -0.624
-2.419 1.808 -0.56
-2.373 1.536 -0.795
-2.23 1.716 -0.731
-2.208 1.473 -1.002
-2.061 1.658 -0.936
-2.076 1.44 -1.237
-1.919 1.637 -1.168
-1.982 1.439 -1.492
-1.81 1.654 -1.416
-2.663 2.202 -0.218
-2.323 2.018 -0.459
-2.36 2.267 -0.264
-2.046 2.135 -0.548
-2.083 2.377 -0.358
-1.806 2.278 -0.69
-1.844 2.526 -0.495
-1.615 2.438 -0.879
-1.656 2.708 -0.668
-2.655 2.421 0.048
-2.352 2.47 -0.019
-2.075 2.574 -0.12
-1.836 2.729 -0.25
-1.647 2.927 -0.402
-2.597 2.577 0.351
-2.3 2.613 0.261
-2.024 2.713 0.152
-1.783 2.872 0.03
-1.59 3.083 -0.1
-2.495 2.657 0.67
-2.205 2.687 0.555
-1.932 2.785 0.438
-1.689 2.947 0.324
-1.488 3.163 0.22
-2.727 2.643 0.859
-2.31 2.73 0.924
-2.521 2.716 1.096
-2.137 2.872 1.156
-2.339 2.859 1.321
-1.986 3.077 1.354
-2.192 3.064 1.522
-1.863 3.333 1.507
-2.087 3.319 1.689
-2.925 2.572 1.071
-2.701 2.653 1.288
-2.512 2.798 1.506
-2.369 3.001 1.711
-2.279 3.251 1.894
-3.081 2.451 1.295
-2.843 2.542 1.492
-2.648 2.692 1.701
-2.508 2.893 1.911
-2.43 3.133 2.111
-3.186 2.284 1.521
-2.937 2.39 1.697
-2.739 2.546 1.897
-2.601 2.744 2.112
-2.53 2.972 2.328
-3.324 2.06 1.667
-2.975 2.319 1.779
-3.111 2.099 1.924
-2.815 2.412 2.059
-2.958 2.183 2.21
-2.717 2.558 2.345
-2.872 2.307 2.509
-3.419 1.801 1.788
-3.205 1.843 2.043
-3.055 1.917 2.334
-2.979 2.017 2.644
-3.531 1.499 1.816
-3.277 1.754 2.004
-3.38 1.477 2.029
-3.171 1.729 2.243
-3.269 1.465 2.268
-3.106 1.727 2.498
-3.203 1.466 2.522
-3.084 1.749 2.759
-3.185 1.478 2.784
-3.107 1.793 3.017
-3.215 1.501 3.044
-3.567 1.179 1.827
-3.413 1.182 2.04
-3.3 1.185 2.277
-3.235 1.188 2.532
-3.217 1.19 2.794
-3.25 1.192 3.055
-3.525 0.859 1.821
-3.374 0.888 2.034
-3.264 0.905 2.272
-3.198 0.91 2.527
-3.18 0.902 2.789
-3.209 0.883 3.049
-3.408 0.559 1.798
-3.266 0.612 2.013
-3.161 0.643 2.252
-3.096 0.65 2.507
-3.074 0.633 2.768
-3.095 0.593 3.027
-3.105 0.348 2.085
-3.1 0.088 1.867
-2.97 0.105 2.152
-3.031 0.459 2.387
-2.908 0.238 2.449
-3.027 0.542 2.707
-2.911 0.332 2.766
-2.978 0.383 3.085
-2.865 -0.346 2.113
-2.719 -0.541 2.278
-2.797 -0.13 2.332
-2.664 -0.308 2.482
-2.794 0.071 2.575
-2.666 -0.1 2.72
-2.855 0.244 2.83
-2.724 0.07 2.978
-2.837 0.195 3.245
-2.52 -0.7 2.425
-2.482 -0.453 2.616
-2.491 -0.24 2.849
-2.546 -0.073 3.11
-2.645 0.041 3.387
-2.502 -0.946 2.296
-2.309 -0.792 2.616
-2.292 -1.028 2.493
-2.148 -0.9 2.844
-2.131 -1.136 2.72
-2.044 -1.018 3.098
-2.027 -1.266 2.968
-2.003 -1.142 3.367
-1.984 -1.412 3.226
-2.44 -1.171 2.145
-2.233 -1.243 2.347
-2.072 -1.352 2.575
-1.964 -1.493 2.815
-1.915 -1.659 3.059
-2.335 -1.366 1.976
-2.132 -1.43 2.186
-1.971 -1.539 2.413
-1.858 -1.689 2.646
-1.8 -1.873 2.874
-2.192 -1.524 1.797
-1.995 -1.581 2.015
-1.833 -1.691 2.241
-1.714 -1.848 2.466
-1.642 -2.046 2.678
-2.015 -1.638 1.615
-1.826 -1.69 1.841
-1.664 -1.801 2.066
-1.536 -1.964 2.282
-1.449 -2.172 2.478
-1.813 -1.704 1.437
-1.632 -1.754 1.669
-1.469 -1.865 1.895
-1.332 -2.031 2.102
-1.226 -2.245 2.282
-1.592 -1.721 1.268
-1.42 -1.77 1.508
-1.257 -1.88 1.733
-1.109 -2.047 1.932
-0.984 -2.263 2.097
-1.82 -1.681 1.103
-1.41 -1.742 0.999
-1.625 -1.705 0.842
-1.237 -1.838 0.739
-1.452 -1.801 0.583
-1.085 -2.004 0.503
-1.311 -1.964 0.338
-0.96 -2.23 0.303
-1.211 -2.186 0.121
-2.026 -1.588 0.931
-1.819 -1.616 0.68
-1.646 -1.713 0.421
-1.517 -1.871 0.167
-1.437 -2.084 -0.068
-2.203 -1.444 0.759
-1.986 -1.481 0.518
-1.813 -1.578 0.259
-1.692 -1.729 -0.004
-1.631 -1.926 -0.256
-2.342 -1.257 0.596
-2.117 -1.305 0.364
-1.944 -1.402 0.106
-1.83 -1.543 -0.166
-1.784 -1.721 -0.435
-2.438 -1.034 0.448
-2.208 -1.094 0.224
-2.034 -1.191 -0.034
-1.926 -1.321 -0.313
-1.889 -1.476 -0.598
-2.487 -0.785 0.321
-2.254 -0.858 0.104
-2.08 -0.956 -0.154
-1.974 -1.073 -0.44
-1.943 -1.202 -0.738
-2.311 -0.692 0.068
-2.37 -0.577 0.067
-2.189 -0.632 -0.224
-2.248 -0.516 -0.225
-2.128 -0.607 -0.539
-2.191 -0.484 -0.54
-2.131 -0.618 -0.861
-2.114 -0.682 -1.181
-2.003 -0.9 -0.803
-1.987 -0.962 -1.114
-1.927 -1.264 -1.052
-2.312 -0.441 -1.376
-2.242 -0.501 -1.651
-2.116 -0.68 -1.269
-2.044 -0.743 -1.552
-1.985 -0.96 -1.159
-1.906 -1.028 -1.469
-1.837 -1.343 -1.406
-2.121 -0.506 -1.916
-1.92 -0.747 -1.824
-1.77 -1.033 -1.766
-1.682 -1.348 -1.746
-2.018 -0.367 -2.203
-1.864 -0.768 -1.888
-1.729 -0.586 -2.265
-1.939 -0.122 -2.418
-1.625 -0.265 -2.547
-1.897 0.192 -2.527
-1.57 0.147 -2.691
-1.956 0.421 -2.508
-1.62 0.271 -2.677
-1.681 0.509 -2.657
-1.383 0.337 -2.889
-1.45 0.6 -2.867
-1.198 0.386 -3.152
-1.276 0.687 -3.126
-1.996 0.646 -2.441
-1.722 0.743 -2.587
-1.496 0.856 -2.79
-1.328 0.981 -3.039
-2.015 0.855 -2.33
-1.742 0.96 -2.472
-1.517 1.096 -2.663
-1.352 1.255 -2.893
-2.011 1.039 -2.18
-1.739 1.151 -2.316
-1.514 1.306 -2.491
-1.348 1.496 -2.696
-2.106 1.164 -1.908
-1.72 1.257 -2.235
-1.844 1.421 -1.879
-1.668 1.465 -2.085
-1.505 1.361 -2.45
-1.453 1.565 -2.303
-1.296 1.704 -2.546
-1.587 1.653 -1.922
-1.374 1.749 -2.143
-1.215 1.892 -2.383
-1.479 1.817 -1.75
-1.268 1.91 -1.974
-1.107 2.057 -2.211
-1.379 2.028 -1.517
-1.683 1.878 -1.211
-1.325 2.288 -1.323
-1.617 2.145 -1.029
-1.319 2.584 -1.178
-1.091 2.821 -1.245
-1.192 2.409 -1.391
-0.972 2.637 -1.456
-1.111 2.259 -1.642
-0.89 2.489 -1.707
-1.083 2.139 -1.92
-0.849 2.382 -1.989
-0.852 2.322 -2.287
-0.816 3.013 -1.267
-0.707 2.822 -1.477
-0.623 2.675 -1.729
-0.568 2.578 -2.012
-0.543 2.537 -2.312
-0.463 3.323 -1.084
-0.576 2.949 -1.44
-0.315 3.179 -1.304
-0.367 2.923 -1.657
-0.177 3.089 -1.559
-0.198 2.935 -1.908
-0.057 3.059 -1.834
-0.077 2.986 -2.18
0.041 3.09 -2.119
-0.01 3.073 -2.462
0.111 3.18 -2.399
-0.0 3.192 -2.74
0.151 3.324 -2.662
-0.048 3.337 -3.001
0.158 3.517 -2.895
0.018 3.374 -0.943
0.042 3.216 -1.2
0.081 3.117 -1.483
0.136 3.08 -1.778
0.202 3.107 -2.072
0.276 3.197 -2.351
0.356 3.346 -2.601
0.438 3.547 -2.812
0.466 3.148 -0.891
0.373 3.049 -1.162
0.322 2.995 -1.455
0.315 2.989 -1.757
0.352 3.031 -2.055
0.43 3.12 -2.333
0.548 3.25 -2.579
0.699 3.415 -2.782
0.725 3.006 -0.709
0.525 2.952 -1.115
0.774 2.816 -0.939
0.619 2.806 -1.364
0.87 2.668 -1.187
0.743 2.717 -1.627
1.008 2.572 -1.44
0.892 2.689 -1.891
1.182 2.53 -1.686
0.926 2.805 -0.509
0.968 2.622 -0.748
1.065 2.473 -0.994
1.214 2.366 -1.236
1.407 2.305 -1.463
1.057 2.557 -0.305
1.094 2.383 -0.551
1.192 2.232 -0.796
1.348 2.112 -1.027
1.553 2.026 -1.234
1.04 2.677 -0.058
1.165 2.316 -0.174
1.149 2.431 0.062
1.328 2.1 -0.057
1.312 2.215 0.179
1.539 1.918 0.039
1.523 2.038 0.286
0.979 2.767 0.195
1.091 2.517 0.304
1.254 2.301 0.421
1.462 2.128 0.539
0.877 2.824 0.444
0.993 2.571 0.542
1.156 2.355 0.659
1.36 2.185 0.788
0.737 2.845 0.68
0.859 2.592 0.768
1.023 2.375 0.884
1.22 2.206 1.024
0.406 3.093 0.833
0.703 2.695 0.902
0.398 2.923 1.043
0.71 2.572 1.142
0.419 2.789 1.277
0.756 2.48 1.392
0.466 2.698 1.526
0.841 2.425 1.643
0.539 2.651 1.783
0.961 2.407 1.884
0.634 2.652 2.036
1.112 2.426 2.108
0.748 2.699 2.276
0.2 3.324 0.732
0.235 3.06 1.055
0.049 3.27 0.963
0.102 3.062 1.303
-0.074 3.26 1.216
0.01 3.098 1.567
-0.164 3.294 1.481
-0.036 3.167 1.836
-0.218 3.371 1.746
-0.034 3.266 2.099
-0.232 3.489 2.002
-0.057 3.491 0.624
-0.185 3.421 0.865
-0.295 3.402 1.124
-0.383 3.436 1.389
-0.446 3.519 1.65
-0.481 3.65 1.897
-0.35 3.583 0.516
-0.45 3.505 0.768
-0.545 3.481 1.032
-0.632 3.514 1.298
-0.705 3.601 1.555
-0.764 3.739 1.794
-0.659 3.595 0.416
-0.731 3.515 0.677
-0.81 3.491 0.946
-0.894 3.523 1.213
-0.979 3.611 1.466
-1.063 3.75 1.697
-0.965 3.525 0.33
-1.008 3.452 0.598
-1.072 3.431 0.872
-1.154 3.464 1.139
-1.25 3.549 1.39
-1.358 3.682 1.613
-1.247 3.378 0.263
-1.264 3.318 0.538
-1.313 3.305 0.815
-1.393 3.339 1.082
-1.5 3.418 1.331
-1.631 3.54 1.549
-1.482 3.124 0.498
-1.519 3.122 0.778
-1.598 3.157 1.046
-1.714 3.228 1.292
-0.032 3.368 2.384
0.177 3.023 2.187
0.179 3.124 2.469
0.443 2.83 2.247
0.444 2.936 2.542
0.75 2.815 2.6
-0.08 3.426 2.677
0.131 3.181 2.758
0.395 2.996 2.845
0.695 2.881 2.933
-0.175 3.437 2.964
0.038 3.192 3.042
0.296 3.007 3.142
0.587 2.894 3.259
-0.313 3.4 3.231
-0.099 3.156 3.306
0.154 2.97 3.419
0.431 2.852 3.563
-0.486 3.318 3.465
-0.27 3.074 3.537
-0.025 2.884 3.661
0.234 2.758 3.828
-0.687 3.194 3.654
-0.468 2.951 3.724
-0.233 2.756 3.857
0.006 2.617 4.044
-0.948 3.187 3.74
-0.58 2.815 3.881
-0.883 2.808 3.981
-1.222 3.175 3.77
-1.2 2.794 4.016
-1.495 3.158 3.743
-1.517 2.774 3.984
[...]
CELL_DATA 4926
SCALARS cell_data_0 double
LOOKUP_TABLE default
7.35824467993e-08
1.281724371e-07
1.60138758956e-07
1.78638414561e-07
1.79541306572e-07
1.72576079073e-07
1.07670077304e-07
1.44893510487e-07
1.63024735875e-07
1.87814090435e-07
1.82974849604e-07
2.00158590115e-07
1.23267700709e-07
1.70562899136e-07
1.99996424731e-07
2.33982929441e-07
2.22973748864e-07
2.40909182425e-07
1.48224439186e-07
1.9865332386e-07
2.43640050992e-07
2.70071121955e-07
2.68919625564e-07
2.77603794073e-07
2.27597555884e-07
2.93037840241e-07
2.95467775841e-07
3.29278553329e-07
3.13486401904e-07
3.30155645462e-07
2.71937146756e-07
3.36868247819e-07
3.87248967903e-07
4.60368153576e-07
4.10243561742e-07
4.2238559112e-07
2.79636365878e-08
4.96512633936e-08
5.94140307153e-08
7.22477572485e-08
7.77821718875e-08
9.10756281466e-08
9.32224889667e-08
1.14240902631e-07
1.16049000285e-07
1.08320248561e-07
3.30498136251e-07
3.79098304518e-07
5.17753328979e-07
4.6720894515e-07
5.70058208483e-07
5.5272985948e-07
5.75240782984e-07
5.84876017335e-07
5.447520367e-07
5.46145084674e-07
2.65440695887e-07
2.61248538863e-07
3.51939558771e-07
3.55181695984e-07
4.53759026011e-07
4.69902284013e-07
5.37995000654e-07
5.55633440737e-07
5.29665440692e-07
5.09061613778e-07
1.72900280862e-07
1.8479162062e-07
2.75608105077e-07
2.98997191525e-07
3.85383970488e-07
4.25698273211e-07
4.86006962457e-07
5.17303159649e-07
4.89628931841e-07
5.16809709981e-07
6.78023218794e-08
7.25677466669e-08
1.92308021698e-07
2.31186080888e-07
3.56024717958e-07
3.80992561954e-07
4.5273313228e-07
5.1587014166e-07
5.34027012084e-07
5.86202370979e-07
3.86171225757e-08
8.23868979703e-08
1.29889931008e-07
1.49978228526e-07
2.46489043733e-07
2.73267154053e-07
4.45003211431e-07
4.81657312351e-07
5.43567649948e-07
5.79015964127e-07
1.11617747683e-07
8.41128122505e-08
6.2979237222e-08
2.06381081641e-07
2.91734000941e-07
4.49863391271e-07
4.35113454356e-07
5.91362377016e-07
6.16791158088e-07
7.47455716444e-07
3.38605119794e-08
9.11236232571e-08
6.8149499435e-09
1.2528820548e-07
1.23460180415e-07
1.11725669092e-07
3.52734645399e-07
3.78582590164e-07
7.02342816834e-07
7.85005418513e-07
4.07468723165e-06
7.07919876239e-06
5.05542652886e-06
4.11775300655e-06
4.86538680764e-06
3.25218618191e-06
1.07892543901e-06
7.12557212213e-08
7.23188065925e-06
5.56023105881e-06
5.18728824546e-06
3.82601775863e-06
1.71247140689e-06
6.81778768431e-07
3.4324495208e-07
6.56871529044e-07
5.04671119216e-06
4.33477534455e-06
4.0404148649e-06
2.45768707704e-06
1.21852844625e-06
5.53941892293e-07
4.36196211986e-07
7.26512118508e-07
2.09199746575e-06
1.52172409427e-06
2.33864587425e-06
1.70195495701e-06
1.09608859529e-06
8.55302132071e-07
6.04798670088e-07
4.75254732181e-07
5.82698854934e-07
7.91563625419e-07
6.27778396958e-07
6.6488356856e-07
9.36242866373e-07
1.01299111576e-06
8.02022769639e-07
8.6994540114e-07
1.1543084506e-06
6.20816333988e-07
5.07412391784e-07
6.05708774395e-07
8.61208861432e-07
1.1274070296e-06
1.25874710201e-06
1.522844451e-06
8.06024678993e-07
4.14083676996e-07
4.8675182674e-07
5.73011016106e-07
9.65139425771e-07
1.12728979359e-06
1.39831428945e-06
1.45163205626e-06
4.96462885035e-07
7.33302198769e-07
8.62567808204e-07
1.21774417384e-06
1.08079295533e-06
1.6407136492e-06
1.58468578027e-06
1.27433603752e-06
1.21608035622e-06
1.29874924568e-06
1.39268916481e-06
1.17280440282e-06
9.45457523445e-07
9.148514882e-07
9.2578406596e-07
9.15405959682e-07
1.06361330264e-06
1.25776039957e-06
1.19688429381e-06
1.04904978461e-06
6.66153730445e-07
5.90116002401e-07
5.29732745697e-07
5.97870898654e-07
7.46423310557e-07
8.2250547826e-07
9.38664054156e-07
1.06240771656e-06
8.54197968336e-07
8.78348749004e-07
6.77796564363e-07
5.84262740737e-07
6.58450496684e-07
7.96474222825e-07
8.46060900899e-07
9.87578278922e-07
1.03058102083e-06
1.0591387563e-06
9.76036991978e-07
8.92737099538e-07
8.57330073056e-07
1.05721003081e-06
1.0370887326e-06
1.20809071265e-06
1.14933609322e-06
1.20487927337e-06
1.0143367575e-06
1.0314078548e-06
8.52323772071e-07
1.02023132534e-06
1.00102147041e-06
1.00467213316e-06
1.3802928529e-06
1.2752718887e-06
1.22173511096e-06
1.2787485145e-06
1.2155309247e-06
1.45522878694e-06
1.27683256728e-06
1.05193365262e-06
4.76926664836e-07
1.79522132762e-07
6.5030417724e-07
8.64743611435e-07
1.59359254511e-06
1.34270870899e-06
9.59400236808e-07
5.9905366956e-07
1.26196582597e-07
2.99048471347e-08
5.45451958159e-07
6.76439927201e-07
6.3151204995e-07
7.5236911671e-07
8.41698994179e-07
8.28462889346e-07
7.35434140099e-07
6.55105132601e-07
5.87796385352e-07
2.49951146831e-07
4.84888156733e-07
3.96900321999e-07
5.82191191141e-07
5.43913095938e-07
5.69499434164e-07
4.92829345956e-07
1.16796088486e-07
1.85001749707e-07
6.51868195602e-07
6.93364784889e-07
1.30560921256e-06
1.31007318906e-06
1.43757547771e-06
8.96543956065e-07
4.6299234592e-07
4.91521752063e-07
4.73011393549e-09
3.7538266071e-09
5.68032178864e-07
4.58200026735e-07
5.55066169712e-07
1.83446321272e-07
1.0584481844e-06
1.00217775814e-06
6.88914346703e-07
3.75672779563e-07
4.24739379633e-08
1.20635738214e-07
3.19623544011e-07
9.72776218163e-07
1.42111680239e-06
1.12683120667e-06
6.12900862976e-07
6.01273847056e-07
5.36817643187e-07
1.01892509885e-06
1.10479857572e-06
1.79668417931e-06
1.31138667442e-06
1.21058476633e-06
1.18849105861e-06
1.5823767936e-06
1.48271541083e-06
1.86238868673e-06
1.81273340098e-06
1.882719338e-06
1.79714598323e-06
1.71961517472e-06
1.68069123415e-06
1.57984416266e-06
1.78428428085e-06
2.02609708579e-06
1.88819643579e-06
2.46544130164e-06
1.2248528782e-06
1.10759849803e-06
1.58288152136e-06
1.6218617053e-06
1.76675747554e-06
2.24561950316e-06
2.777991505e-06
2.24253963248e-06
1.94029125789e-06
2.36510795296e-06
1.79970158792e-06
1.27024980038e-06
1.5167769481e-06
1.30898461805e-06
1.20553732212e-06
7.2013636387e-07
1.74477612249e-06
6.63993762733e-07
8.37157325877e-07
5.96513532653e-07
7.87662833294e-07
7.71608744724e-07
6.62603014423e-07
1.22869397979e-06
8.22280023583e-07
1.64491846103e-06
1.27713849572e-06
2.24235776425e-06
1.34870094144e-06
2.16570383833e-06
1.92543797626e-06
1.92387688455e-06
2.28750653305e-06
2.13824983342e-06
2.77375181265e-06
2.75190017159e-06
3.11276400235e-06
3.76054269764e-06
2.31374497674e-06
1.31519579796e-06
1.42004611236e-06
9.77729841549e-07
1.75812542422e-06
1.38606898312e-06
2.74649657623e-06
1.74243952957e-06
1.24887700572e-06
6.92767647108e-07
7.97414042993e-07
7.00440867349e-07
6.53470178417e-07
1.04422668653e-06
9.53104964403e-07
9.0095109109e-07
8.78204423895e-07
1.24377311789e-06
4.85009987413e-07
1.11934311083e-06
1.65193431928e-06
3.33428658519e-06
3.47420707276e-06
6.05256956711e-06
3.10314816091e-06
1.15121563643e-06
2.54511453763e-07
1.63085223338e-07
1.05344878565e-07
4.25880758787e-08
8.19335994624e-07
6.80667027202e-07
2.38910536123e-07
8.58517181198e-07
7.35254210368e-07
2.94867381803e-06
1.68761764775e-06
6.90762333082e-06
6.60743914319e-07
2.93582347682e-07
2.23455667362e-06
1.98697066729e-06
7.39271083988e-06
4.76221965109e-06
1.89690495077e-07
1.20853871674e-06
1.66808464226e-06
3.19954326424e-06
1.94496056186e-06
7.44220401606e-07
1.3376996211e-06
1.34215700485e-06
5.01495119358e-06
2.49371814095e-06
2.14081634737e-06
1.28213874475e-08
1.95479201711e-07
7.20649724693e-07
4.16849216628e-07
8.02742999994e-07
4.64353987629e-07
1.76368284707e-06
1.53600879394e-06
8.36273850462e-07
5.21787990393e-07
8.74383595466e-08
9.17989621666e-07
6.47028085949e-07
1.35988485864e-07
3.09596930815e-07
1.69522124957e-07
1.31825907154e-07
3.37420182694e-08
3.68801430385e-07
9.03036442475e-07
9.25015060848e-07
5.57585925526e-07
1.21317886513e-06
6.30288341082e-07
7.96152975459e-08
6.19136571864e-07
8.35149642489e-07
1.98096515175e-07
6.19986442221e-07
6.91294636424e-07
7.17711247626e-07
7.38541088986e-07
8.54533908593e-07
7.9521087642e-07
9.21180640634e-07
1.39332843739e-06
9.79245662213e-07
7.56049999357e-07
5.99893824735e-07
5.99632425982e-07
6.64015191512e-07
4.08233513741e-07
4.34819859465e-07
5.80071599237e-07
6.42101914651e-07
7.59954650953e-07
8.7598683653e-07
1.06321633109e-06
1.22798618222e-06
4.34468900265e-07
6.05570665183e-07
5.67182144262e-07
7.13660802125e-07
7.68300097978e-07
9.86249027358e-07
1.07729162373e-06
1.83120497536e-06
5.27344527206e-07
3.18563981151e-07
5.51495239345e-07
4.00477444472e-07
5.3690114963e-07
4.08808942737e-07
4.85074128552e-07
5.73126368969e-07
6.26247565856e-07
8.21825569127e-07
7.33167641534e-07
1.04772960125e-06
9.18352238855e-07
1.30325259997e-06
2.795149641e-07
3.8785628801e-07
3.83941256957e-07
4.25550408433e-07
4.22829177651e-07
4.12500713512e-07
5.68413179947e-07
5.93679860993e-07
7.20884711986e-07
7.12019571178e-07
7.12680827489e-07
8.34604667494e-07
9.00873460017e-07
1.43599725322e-06
6.37696974556e-07
6.77248873119e-07
6.49899342251e-07
5.50215066957e-07
5.50685004995e-07
4.90763306294e-07
5.11578813291e-07
4.7743206614e-07
5.03343957688e-07
5.97912269408e-07
6.25169477929e-07
9.62189707041e-07
1.04079539999e-06
1.6560364176e-06
6.60514241004e-07
6.9537590469e-07
7.92112163654e-07
9.01857616243e-07
1.01144439779e-06
1.2098964089e-06
1.66591785973e-06
1.7873661938e-06
5.84048598864e-07
6.57828680331e-07
7.9023569698e-07
8.86279405116e-07
1.02105133522e-06
1.16982948629e-06
1.18884494555e-06
1.32670687056e-06
7.23109138791e-07
8.17341766691e-07
7.10478184784e-07
8.15599083342e-07
9.47700133852e-07
1.07630076853e-06
1.15534293494e-06
1.71607186954e-06
5.54856884093e-07
4.14713918481e-07
4.47956838991e-07
4.0296310912e-07
4.07021265152e-07
3.46574267762e-07
3.54076021418e-07
3.46626485867e-07
3.49555173689e-07
3.92308423979e-07
3.60158160315e-07
3.63518524961e-07
3.25830948757e-07
3.4207946206e-07
3.94294249107e-07
4.13081277566e-07
3.90789663317e-07
3.28059499164e-07
2.14846238362e-07
1.84870760728e-07
2.93003749018e-07
2.43163444345e-07
2.691533563e-07
2.13029868812e-07
1.54496133669e-07
1.11019581222e-07
1.00951981818e-07
4.08089104842e-09
1.34792779912e-07
7.50460860015e-08
3.21738831088e-07
3.29490898023e-07
3.09092007753e-07
3.26889983781e-07
3.87784924085e-07
3.06163380786e-07
2.94030546211e-07
9.80008259379e-08
2.06678780275e-07
1.95319509053e-07
1.75557954473e-07
1.24422043174e-07
1.13174441441e-07
9.75775180948e-08
7.50449301196e-08
9.84833622954e-08
1.84786645074e-07
1.41546688676e-07
1.36301810798e-07
8.24465449087e-08
8.9279029943e-08
1.16157456455e-07
1.27970706993e-07
1.42936550869e-07
1.25185161199e-07
1.50351926067e-07
1.73598988994e-07
1.93369330157e-07
1.10362055842e-07
1.81654331667e-07
1.80443995098e-07
2.60781959037e-07
1.94309400866e-07
2.05061706382e-07
1.64956824569e-07
2.08417925165e-07
3.2626654928e-07
3.29977111089e-07
3.21801038977e-07
3.1947078217e-07
2.86283323826e-07
2.85202586666e-07
2.70062728996e-07
2.64648964943e-07
2.3407366785e-07
2.13254983809e-07
3.78718854908e-07
3.39973284125e-07
3.45867056116e-07
2.89866910778e-07
2.92581841714e-07
2.52061055514e-07
2.44798205214e-07
1.67184705469e-07
1.65615446674e-07
8.72855878571e-08
2.2389793615e-07
9.3293207665e-08
1.95928320205e-07
1.12026569174e-07
2.05858843696e-07
1.06433644595e-07
1.01629975615e-07
6.48767833589e-09
3.92140725925e-08
3.39787601616e-08
4.9228737195e-08
4.77828996582e-08
1.05486803691e-08
2.14390823318e-08
1.01009533299e-08
7.78065901028e-09
2.27183749504e-08
2.42505335096e-08
2.3083949142e-08
4.6205761214e-08
1.31759957686e-07
2.21920444625e-07
2.0834355818e-07
4.92144396052e-07
4.89490519331e-07
7.28801013045e-07
3.36246047515e-07
3.92012780456e-07
4.4466315277e-07
5.60399190165e-07
6.65944664286e-07
8.77081649032e-07
3.3055568487e-07
3.80598018057e-07
4.54690700004e-07
5.55746266853e-07
7.01640373763e-07
8.4626175921e-07
2.73599928253e-07
2.98091082393e-07
3.88125693802e-07
4.30009189333e-07
5.74681589839e-07
6.45198388893e-07
1.48806469567e-07
1.63786122569e-07
2.44880536197e-07
2.37799482087e-07
3.37968137816e-07
3.08502188443e-07
2.19625119198e-07
1.48634882691e-07
1.06720114559e-07
6.35477162316e-08
7.39583618853e-08
4.92432355783e-08
6.87164922736e-07
2.75059764517e-07
1.31454265757e-08
1.77084451371e-08
6.13372976208e-08
1.33654307276e-08
3.34838348044e-08
8.67049841819e-08
1.90979145245e-07
1.87058909758e-07
2.12014357104e-07
1.58645993706e-07
1.96158499069e-07
1.67677389876e-07
2.13725887192e-07
1.99347444749e-07
1.81662128671e-07
9.59367665392e-08
2.09591853177e-07
2.7986544963e-07
4.88513434974e-07
1.4654725002e-07
2.68189532904e-07
3.07100629147e-07
2.20272341563e-07
2.38796502154e-07
2.32583422454e-07
1.85489304979e-07
1.99265120121e-07
8.77407288987e-08
9.76831594363e-08
1.73238757492e-08
5.68910746753e-07
5.89148782561e-07
3.21654851851e-08
5.9041578567e-07
1.40968269383e-06
4.80573190581e-07
5.0454236441e-07
4.17054181108e-07
2.32119090771e-07
1.35046489684e-07
2.14536571842e-07
4.67267247965e-07
7.69127731505e-07
7.58622191258e-07
5.68664857477e-07
3.37531743184e-07
3.35723493882e-07
5.93975943727e-07
1.04410619645e-06
1.24383637702e-06
1.14610534004e-06
6.71753483572e-07
4.81343529552e-07
5.18588196851e-07
8.68178944831e-07
1.41052193063e-06
1.16548056247e-06
1.57500298126e-06
1.62206231505e-06
1.44394837273e-06
1.72575631527e-06
1.27293073037e-06
1.33732243307e-06
1.16021852112e-06
1.03333383721e-06
8.95894717598e-07
2.97012519162e-06
3.29335362317e-06
3.75980917634e-06
4.5470145276e-06
4.95016574918e-06
6.95748474835e-06
4.91522528892e-06
2.75558391681e-06
7.10656588335e-07
1.34154456808e-06
4.6364855048e-07
3.03215556345e-08
3.80272900999e-08
3.40455818142e-08
3.43362593695e-08
2.68557336286e-08
2.62891445346e-08
1.43901217276e-08
4.7913825662e-08
7.93040676674e-08
2.67443738957e-08
4.05378479543e-08
3.91802057975e-08
1.7783787382e-08
3.20575411776e-09
1.97437213973e-08
4.29195707134e-08
3.70272947816e-08
1.67077137078e-08
1.20661586635e-09
3.05676046409e-08
3.80841832878e-08
3.8681324413e-08
3.87977136987e-08
3.16389105609e-08
4.95308265324e-08
5.06433743831e-08
3.54304448786e-08
2.6458051247e-08
7.66997711503e-09
2.09349672551e-08
1.99484439686e-08
4.08368884957e-08
4.95469802231e-08
6.34877181248e-08
7.71134419195e-08
6.4645228116e-08
5.80134838667e-08
3.36262880603e-08
6.3101827248e-08
6.68241862205e-08
9.51616961721e-08
4.77160076108e-09
1.26625952329e-07
1.33330828637e-08
7.86380056252e-08
3.73415957281e-08
8.26716222437e-08
8.30799308951e-08
2.84666878415e-07
7.92719077859e-07
9.87831656837e-07
4.84175865961e-07
6.94866131671e-07
3.98827640194e-07
5.51762265413e-07
2.94153010108e-07
9.22571345456e-07
7.38974354206e-07
1.22888424668e-06
1.13999763983e-06
8.67954550191e-07
1.08947751264e-06
1.69964434636e-06
1.42263629958e-06
2.03538974305e-06
1.71161986148e-06
1.27632599069e-06
7.67320145026e-07
2.71768662246e-07
4.24899368352e-06
7.84655208715e-06
5.00482142372e-06
5.0303723631e-06
8.13511130697e-06
7.9442123132e-06
7.62977591542e-06
6.81922623389e-06
6.0328948884e-06
5.53174095817e-06
6.48279847952e-06
5.60251380802e-06
3.60628120678e-06
3.10901727652e-06
4.02790209637e-06
3.66298154153e-06
2.11291912327e-06
2.05418053637e-06
2.64104064814e-06
1.98583667421e-06
1.37811213996e-06
1.61520358031e-06
1.62999573997e-06
1.22406950423e-06
1.06134409268e-06
9.18559625363e-07
1.14958370437e-06
8.15807553156e-07
8.79265531035e-07
4.41873712194e-07
4.7886263033e-07
3.86314585418e-07
3.42776248692e-07
1.70528331213e-07
1.77783657066e-07
6.49287908248e-08
9.99973071703e-08
1.15090903611e-07
3.93357516987e-09
2.8992534933e-08
3.92630522095e-08
2.56284068099e-08
3.10107982633e-08
2.79577616035e-08
1.12364596327e-07
9.58405682752e-08
9.20529161571e-08
9.69868147215e-08
1.19899479154e-07
1.38169948706e-07
3.47480859149e-07
3.63596696402e-07
1.94294835832e-07
2.36027446867e-07
3.0807068661e-07
3.83939953551e-07
8.95102986647e-07
6.00394000317e-07
2.55886387768e-07
3.73926483474e-07
5.50499094092e-07
1.10212103633e-06
1.38656139619e-06
1.12094414061e-06
7.74554809966e-07
7.17803828198e-07
1.11744122023e-06
1.07146882449e-06
1.05309589809e-06
6.87883963124e-07
4.93624792709e-07
6.68959228655e-07
7.46668768876e-07
1.17641428641e-06
8.42378234303e-07
6.08758807567e-07
5.21619638604e-07
4.14496944578e-07
6.59746540999e-07
6.00458945352e-07
4.26174817166e-07
2.57916122029e-07
2.35535107606e-07
1.55625095701e-07
2.78182395105e-07
1.23978440093e-07
2.12093325861e-08
4.3327477672e-08
1.68684386029e-08
4.04737865974e-08
1.4869919656e-07
3.1416581782e-08
2.92714100201e-08
4.31939257393e-08
1.82896091823e-08
2.35537189637e-07
9.33270605977e-08
5.65048683718e-07
3.62163133441e-07
4.52315823052e-07
5.44499740496e-07
2.74377666674e-07
4.86870586619e-07
3.96235188619e-07
1.98605203946e-07
2.32883797079e-09
4.53765418743e-08
5.89841301151e-08
9.68487292929e-08
1.22332164276e-07
2.12102195208e-07
2.56668935233e-07
4.4411590524e-07
4.92004796106e-07
7.18302086237e-07
7.07806531385e-07
6.50373298195e-07
4.51461059607e-07
1.33756414879e-07
4.68617357779e-08
1.77799094005e-08
1.24440391788e-08
4.40273907554e-08
4.654691088e-08
1.17342628691e-07
1.3607285437e-07
2.66103636252e-07
3.07767631403e-07
4.45887623556e-07
4.55203397571e-07
4.49881502461e-07
1.47290993869e-07
9.09404390445e-07
1.41656826683e-06
5.16119781864e-07
1.16804218745e-06
5.18036968472e-07
8.87492883654e-07
3.02980668913e-07
4.59022298812e-07
7.10203153171e-08
1.18923442264e-07
1.54096094398e-07
1.12046365354e-07
8.74527712971e-08
1.05507534726e-07
1.95961246634e-06
8.50732486215e-07
1.50642617174e-06
6.53937527216e-07
1.00221848231e-06
2.86115797419e-07
4.63129790077e-07
2.49633686336e-08
8.91840038691e-08
1.51520753211e-07
1.26848942237e-07
2.13773962621e-07
1.52388228712e-07
1.41186612457e-07
1.89105744274e-07
3.3836928492e-07
4.78828336233e-07
8.53453687713e-07
4.14102316693e-07
7.21891938116e-07
1.55147648504e-07
2.80233211213e-07
7.11875345082e-08
4.52590015253e-08
1.66869572002e-07
1.62192103169e-07
1.59548329453e-07
1.3035763014e-07
3.03953073847e-07
2.56078113936e-07
7.68064993293e-07
2.03080775525e-07
5.98277666323e-07
3.36316684451e-07
7.28417722518e-07
6.83724403458e-07
4.16684206552e-07
5.56599308287e-07
1.41514424076e-07
3.32648289396e-07
1.33224291527e-08
2.3292158726e-07
1.75751779038e-07
2.11014060608e-07
3.4670336799e-08
2.14673481913e-08
9.37203057406e-08
7.32417643138e-08
3.6089023064e-07
1.98333874355e-08
2.5685630391e-07
1.08984911186e-07
6.0130097046e-08
1.47344755752e-07
2.38360874931e-07
2.67532102681e-07
4.17472236247e-07
4.55507063698e-07
5.05606624826e-07
4.1492075862e-07
2.85342727424e-07
1.47720193165e-07
4.3128114367e-08
4.88454598908e-08
3.77279177546e-08
2.40340927265e-08
6.63731421104e-08
1.33847490437e-08
1.45917832249e-07
6.21009433986e-08
1.32037575251e-07
7.56266890052e-08
2.1252556962e-07
1.11821337949e-07
5.75751460841e-07
3.38561069469e-07
5.74703524541e-07
9.31406978763e-08
2.99674558664e-07
1.58748554314e-07
1.08442260435e-07
1.03312541123e-07
2.2657432214e-07
3.02980161089e-07
2.05765861828e-07
2.2633359557e-07
1.56002851475e-07
6.57882871627e-08
5.50044997206e-08
2.73261732119e-07
9.1604072384e-08
6.67617777459e-08
2.36395885083e-07
5.15587216672e-07
9.78105521615e-08
1.30026668941e-07
5.32559976128e-07
4.63478770658e-07
1.74548231034e-07
2.53022480825e-07
1.07035224998e-07
8.48314470983e-08
3.03587524156e-07
3.24271815846e-07
7.52097063643e-08
4.83976159268e-08
3.7439875169e-07
5.30955402711e-07
2.65685755219e-07
1.99838776914e-07
1.35909928194e-08
1.36494555872e-06
8.52460560701e-07
8.54859748912e-07
8.73175444502e-08
4.55505463053e-08
8.18187722835e-07
7.43840465739e-07
1.61662917428e-07
1.32000386843e-07
1.45445842846e-06
1.40590509993e-06
8.92586012117e-07
8.79867316546e-07
1.76028215331e-08
8.74954461121e-08
1.36249348974e-07
6.71973066412e-07
1.45750840475e-08
4.4359423142e-08
2.90051041316e-07
1.79434114229e-07
4.47215973435e-08
1.55417879e-07
1.56941518057e-06
1.63078623018e-06
7.80190317711e-07
3.16079119956e-08
1.70054684758e-07
2.61414146205e-08
8.62248639554e-10
4.11008060877e-08
1.26971185692e-06
1.30856295702e-06
6.10167849923e-07
4.84575099014e-08
6.42959436349e-09
1.55196730214e-07
1.30265153889e-07
1.4295722951e-07
9.51403868029e-07
9.76064301212e-07
4.42420389983e-07
7.02194363397e-08
1.96956019085e-07
3.71649822109e-07