# vtk DataFile Version 3.0
File Name: Molecule/sphere_dip/sphere_dip_0-s2.vtk
ASCII
DATASET UNSTRUCTURED_GRID
FIELD FieldData 1
TIME 1 1 double
0.0
POINTS 95 double
0.809016994375 -0.309016994375 -0.5
0.809016994375 0.309016994375 -0.5
1.0 0.0 0.0
0.525731112119 0.0 -0.850650808352
0.850650808352 0.525731112119 0.0
0.5 0.809016994375 -0.309016994375
0.309016994375 0.5 -0.809016994375
0.0 0.850650808352 -0.525731112119
-0.525731112119 0.0 -0.850650808352
-0.809016994375 -0.309016994375 -0.5
-0.809016994375 0.309016994375 -0.5
-1.0 0.0 0.0
-0.850650808352 -0.525731112119 0.0
-0.850650808352 0.525731112119 0.0
-0.309016994375 0.5 -0.809016994375
-0.5 0.809016994375 -0.309016994375
-0.5 -0.809016994375 -0.309016994375
-0.5 -0.809016994375 0.309016994375
0.0 -1.0 0.0
0.0 -0.850650808352 -0.525731112119
0.0 -0.850650808352 0.525731112119
-0.809016994375 -0.309016994375 0.5
-0.309016994375 -0.5 0.809016994375
-0.809016994375 0.309016994375 0.5
-0.309016994375 -0.5 -0.809016994375
0.5 -0.809016994375 -0.309016994375
0.5 -0.809016994375 0.309016994375
0.309016994375 -0.5 -0.809016994375
0.850650808352 -0.525731112119 0.0
0.961938357784 -0.273266528913 0.0
0.525731112119 0.850650808352 0.0
0.5 0.809016994375 0.309016994375
0.26286555606 0.951056516295 -0.162459848116
0.26286555606 0.951056516295 0.162459848116
0.0 1.0 0.0
0.259891913008 0.862668480416 0.433888564553
0.0 0.961938357784 0.273266528913
0.0 0.850650808352 0.525731112119
-0.259891913008 0.862668480416 0.433888564553
-0.26286555606 0.951056516295 0.162459848116
-0.5 0.809016994375 0.309016994375
-0.26286555606 0.951056516295 -0.162459848116
-0.525731112119 0.850650808352 0.0
-0.702046444776 0.69378047756 0.16062203564
-0.702046444776 0.69378047756 -0.16062203564
-0.16062203564 0.702046444776 0.69378047756
-0.425325404176 0.688190960236 0.587785252292
-0.309016994375 0.5 0.809016994375
-0.688190960236 0.587785252292 0.425325404176
-0.587785252292 0.425325404176 0.688190960236
-0.862668480416 0.433888564553 0.259891913008
-0.433888564553 0.259891913008 0.862668480416
-0.69378047756 0.16062203564 0.702046444776
-0.525731112119 0.0 0.850650808352
0.16062203564 0.702046444776 0.69378047756
0.0 0.525731112119 0.850650808352
0.309016994375 0.5 0.809016994375
-0.162459848116 0.26286555606 0.951056516295
0.162459848116 0.26286555606 0.951056516295
0.0 0.0 1.0
-0.273266528913 0.0 0.961938357784
0.433888564553 0.259891913008 0.862668480416
0.273266528913 0.0 0.961938357784
0.525731112119 0.0 0.850650808352
-0.433888564553 -0.259891913008 0.862668480416
-0.162459848116 -0.26286555606 0.951056516295
0.0 -0.525731112119 0.850650808352
0.162459848116 -0.26286555606 0.951056516295
0.309016994375 -0.5 0.809016994375
0.433888564553 -0.259891913008 0.862668480416
0.69378047756 -0.16062203564 0.702046444776
0.587785252292 -0.425325404176 0.688190960236
0.809016994375 -0.309016994375 0.5
0.425325404176 -0.688190960236 0.587785252292
0.688190960236 -0.587785252292 0.425325404176
0.862668480416 -0.433888564553 0.259891913008
0.702046444776 -0.69378047756 0.16062203564
0.162459848116 -0.26286555606 -0.951056516295
0.0 0.0 -1.0
0.0 -0.525731112119 -0.850650808352
-0.162459848116 -0.26286555606 -0.951056516295
-0.273266528913 0.0 -0.961938357784
-0.433888564553 -0.259891913008 -0.862668480416
0.951056516295 -0.162459848116 0.26286555606
0.951056516295 0.162459848116 0.26286555606
0.850650808352 0.0 0.525731112119
0.809016994375 0.309016994375 0.5
0.69378047756 0.16062203564 0.702046444776
0.688190960236 0.587785252292 0.425325404176
0.425325404176 0.688190960236 0.587785252292
0.587785252292 0.425325404176 0.688190960236
-0.433888564553 0.259891913008 -0.862668480416
0.162459848116 0.26286555606 -0.951056516295
-0.162459848116 0.26286555606 -0.951056516295
0.0 0.525731112119 -0.850650808352

CELLS 186 744
3 0 1 2
3 0 3 1
3 2 1 4
3 4 1 5
3 1 6 5
3 1 3 6
3 5 6 7
3 8 9 10
3 9 11 10
3 9 12 11
3 10 11 13
3 7 14 15
3 14 10 15
3 12 16 17
3 16 18 17
3 16 19 18
3 17 18 20
3 12 17 21
3 17 22 21
3 17 20 22
3 23 11 21
3 21 11 12
3 24 16 9
3 24 19 16
3 9 16 12
3 19 25 18
3 25 26 18
3 18 26 20
3 3 0 27
3 0 25 27
3 0 28 25
3 27 25 19
3 2 29 0
3 0 29 28
3 5 30 4
3 4 30 31
3 5 32 30
3 32 33 30
3 32 34 33
3 30 33 31
3 34 32 7
3 7 32 5
3 31 33 35
3 33 36 35
3 33 34 36
3 35 36 37
3 37 36 38
3 36 39 38
3 36 34 39
3 38 39 40
3 34 41 39
3 41 42 39
3 41 15 42
3 39 42 40
3 15 41 7
3 7 41 34
3 40 42 43
3 42 44 43
3 42 15 44
3 43 44 13
3 37 38 45
3 38 46 45
3 38 40 46
3 45 46 47
3 40 48 46
3 48 49 46
3 48 23 49
3 46 49 47
3 40 43 48
3 43 50 48
3 43 13 50
3 48 50 23
3 47 49 51
3 49 52 51
3 49 23 52
3 51 52 53
3 37 45 54
3 45 55 54
3 45 47 55
3 54 55 56
3 47 57 55
3 57 58 55
3 57 59 58
3 55 58 56
3 47 51 57
3 51 60 57
3 51 53 60
3 57 60 59
3 56 58 61
3 58 62 61
3 58 59 62
3 61 62 63
3 53 64 60
3 64 65 60
3 64 22 65
3 60 65 59
3 22 66 65
3 66 67 65
3 66 68 67
3 65 67 59
3 68 66 20
3 20 66 22
3 59 67 62
3 67 69 62
3 67 68 69
3 62 69 63
3 63 69 70
3 69 71 70
3 69 68 71
3 70 71 72
3 68 73 71
3 73 74 71
3 73 26 74
3 71 74 72
3 26 73 20
3 20 73 68
3 72 74 75
3 74 76 75
3 74 26 76
3 75 76 28
3 27 77 3
3 3 77 78
3 27 79 77
3 79 80 77
3 79 24 80
3 77 80 78
3 24 79 19
3 19 79 27
3 78 80 81
3 80 82 81
3 80 24 82
3 81 82 8
3 28 29 75
3 29 83 75
3 29 2 83
3 75 83 72
3 2 84 83
3 84 85 83
3 84 86 85
3 83 85 72
3 86 84 4
3 4 84 2
3 72 85 70
3 85 87 70
3 85 86 87
3 70 87 63
3 31 88 4
3 4 88 86
3 31 89 88
3 89 90 88
3 89 56 90
3 88 90 86
3 31 35 89
3 35 54 89
3 35 37 54
3 89 54 56
3 86 90 87
3 90 61 87
3 90 56 61
3 87 61 63
3 14 91 10
3 91 8 10
3 13 44 10
3 10 44 15
3 22 64 21
3 21 64 53
3 53 52 21
3 52 23 21
3 23 50 11
3 50 13 11
3 8 82 9
3 82 24 9
3 28 76 25
3 25 76 26
3 78 92 3
3 3 92 6
3 78 93 92
3 93 94 92
3 93 14 94
3 92 94 6
3 78 81 93
3 81 91 93
3 81 8 91
3 93 91 14
3 6 94 7
3 94 14 7

CELL_TYPES 186
5
5
5
5
5
5
5
5
5
5
5
5
5
5
5
5
5
5
5
5
5
5
5
5
5
5
5
5
5
5
5
5
5
5
5
5
5
5
5
5
5
5
5
5
5
5
5
5
5
5
5
5
5
5
5
5
5
5
5
5
5
5
5
5
5
5
5
5
5
5
5
5
5
5
5
5
5
5
5
5
5
5
5
5
5
5
5
5
5
5
5
5
5
5
5
5
5
5
5
5
5
5
5
5
5
5
5
5
5
5
5
5
5
5
5
5
5
5
5
5
5
5
5
5
5
5
5
5
5
5
5
5
5
5
5
5
5
5
5
5
5
5
5
5
5
5
5
5
5
5
5
5
5
5
5
5
5
5
5
5
5
5
5
5
5
5
5
5
5
5
5
5
5
5
5
5
5
5
5
5
5
5
5
5
5
5

CELL_DATA 186
SCALARS cell_data_0 double
LOOKUP_TABLE default
3.2669219005e-05
2.04002719004e-05
0.000165969318314
0.000166750802065
8.64234890449e-06
7.47647253406e-05
5.06770136183e-05
4.02530072898e-05
2.94602375088e-05
7.78753668273e-06
5.75346466218e-06
4.90858829617e-05
6.44844738319e-05
2.6843927042e-05
4.48767275255e-06
9.09171291732e-05
6.51064046308e-07
5.14354111497e-06
6.37832716378e-05
4.012263884e-05
4.42737715034e-05
1.1456432778e-05
6.57127591934e-05
2.51369722774e-05
7.55121835885e-06
7.00268770371e-05
1.71725342382e-05
7.90303076234e-06
9.81176613506e-05
6.7843150467e-05
1.74463779571e-05
1.79183514283e-06
5.62364063854e-06
3.87921342557e-06
4.49736162478e-05
4.42273012516e-05
1.7557147389e-06
9.45666731026e-06
1.04282359585e-05
1.11411036806e-05
4.66761216149e-06
5.13663852265e-06
1.3140231579e-05
3.31970684915e-05
2.81541718727e-05
2.09564840283e-05
1.61761328635e-05
2.65622432094e-05
2.73980763015e-05
1.1282599128e-05
1.06685394685e-05
4.23073395337e-05
3.36434025086e-05
4.68506973322e-05
3.69918992276e-07
3.6863009521e-06
4.16943823815e-05
7.51350436629e-05
6.25612774565e-05
4.401556628e-05
1.29932392125e-06
1.64471546346e-05
1.97613410424e-05
5.71520020889e-06
4.68831474255e-05
0.000105778166014
0.000101893250477
4.96904791827e-05
3.08548885628e-05
9.29046308626e-05
7.14500810301e-05
0.000102438965775
7.05419195196e-05
0.000164044457532
0.000118977862728
5.72097481714e-05
1.36072561483e-05
4.23873011058e-05
9.10877939007e-06
2.36564471697e-05
1.15983017008e-05
2.18934272424e-05
7.74025910244e-05
1.13826521845e-05
6.10886276765e-06
1.68956888852e-05
1.06232605259e-05
5.57489488072e-05
2.48312041457e-05
2.12439539081e-05
5.382405689e-05
2.40305469916e-05
2.4885654943e-05
2.58639086817e-05
2.81751096776e-05
5.46119347427e-05
3.91937312934e-05
5.96529203358e-05
4.53375720388e-05
8.26943761553e-05
3.83366357065e-05
3.65029454432e-05
6.28493497357e-05
4.71715040537e-05
3.87392664097e-05
3.58551823151e-05
2.63470631511e-05
2.0303142867e-05
2.48997219485e-05
5.71598794999e-06
2.00888247877e-05
1.19465965317e-05
6.28012432066e-06
7.43294619752e-06
9.81528892274e-06
2.89862538509e-05
6.85479168365e-05
0.000163584032201
7.41019554011e-05
0.000166526042486
8.14419517492e-05
0.000127959145723
2.14579505572e-05
3.30635706731e-06
2.7040973787e-08
7.75883666148e-05
4.47334058699e-05
3.84097249377e-05
6.50495554314e-05
4.01069198459e-05
2.97481559122e-05
3.35451410915e-05
4.60170549933e-05
4.61877280315e-05
7.52080730756e-07
7.41786315778e-05
3.86157942003e-06
3.24345094699e-06
3.13594822201e-07
1.85791076739e-05
4.29409990011e-05
5.16008226344e-05
1.26256325843e-05
3.9590823528e-06
2.93906964472e-06
1.70581735553e-05
4.53889374272e-05
3.50929429695e-05
1.50090625373e-06
9.20487201373e-08
1.13453475679e-05
2.89819054581e-06
4.40047912892e-06
1.74956105249e-05
1.79950309625e-05
1.73796606037e-06
2.74903292243e-06
1.92410264352e-07
1.09636817127e-05
1.76113404032e-05
3.67870043943e-05
1.09289107358e-05
4.47123091833e-05
3.84913328865e-05
3.77523672132e-05
3.96010288926e-05
1.0732240838e-05
9.25537231605e-05
0.000145622885762
0.000107517885055
3.89242118274e-05
4.87422785395e-05
0.000151662212146
0.000147888317193
0.000133287797783
6.92437461848e-05
7.01199828616e-05
2.58640123055e-06
2.18854187976e-05
1.45705083431e-05
6.57407737799e-05
2.18367480309e-05
1.70848060375e-05
1.6217934948e-05
3.20193922021e-05
3.45630204007e-05

