# vtk DataFile Version 3.0
File Name: Molecule/sphere_dip/sphere_dip_0-s3.vtk
ASCII
DATASET UNSTRUCTURED_GRID
FIELD FieldData 1
TIME 1 1 double
0.0
POINTS 247 double
-0.525731112119 0.0 -0.850650808352
-0.809016994375 -0.309016994375 -0.5
-0.809016994375 0.309016994375 -0.5
-0.850650808352 -0.525731112119 0.0
-1.0 0.0 0.0
-0.5 -0.809016994375 -0.309016994375
-0.5 -0.809016994375 0.309016994375
0.0 -1.0 0.0
0.0 -0.850650808352 0.525731112119
0.26286555606 0.951056516295 -0.162459848116
0.26286555606 0.951056516295 0.162459848116
0.525731112119 0.850650808352 0.0
0.0 1.0 0.0
0.0 0.850650808352 -0.525731112119
0.5 0.809016994375 0.309016994375
0.259891913008 0.862668480416 0.433888564553
0.0 0.961938357784 0.273266528913
0.0 0.850650808352 0.525731112119
-0.259891913008 0.862668480416 0.433888564553
-0.26286555606 0.951056516295 0.162459848116
-0.26286555606 0.951056516295 -0.162459848116
-0.16062203564 0.702046444776 0.69378047756
-0.425325404176 0.688190960236 0.587785252292
0.16062203564 0.702046444776 0.69378047756
0.0 0.525731112119 0.850650808352
-0.309016994375 0.5 0.809016994375
0.309016994375 0.5 0.809016994375
-0.162459848116 0.26286555606 0.951056516295
0.162459848116 0.26286555606 0.951056516295
0.433888564553 0.259891913008 0.862668480416
0.273266528913 0.0 0.961938357784
0.525731112119 0.0 0.850650808352
-0.525731112119 0.0 0.850650808352
-0.433888564553 -0.259891913008 0.862668480416
-0.273266528913 0.0 0.961938357784
-0.309016994375 -0.5 0.809016994375
-0.162459848116 -0.26286555606 0.951056516295
0.0 -0.525731112119 0.850650808352
0.433888564553 -0.259891913008 0.862668480416
0.69378047756 -0.16062203564 0.702046444776
0.587785252292 -0.425325404176 0.688190960236
0.809016994375 -0.309016994375 0.5
0.309016994375 -0.5 0.809016994375
0.425325404176 -0.688190960236 0.587785252292
0.688190960236 -0.587785252292 0.425325404176
0.5 -0.809016994375 0.309016994375
0.951056516295 0.162459848116 0.26286555606
0.809016994375 0.309016994375 0.5
0.850650808352 0.0 0.525731112119
0.69378047756 0.16062203564 0.702046444776
0.425325404176 0.688190960236 0.587785252292
0.587785252292 0.425325404176 0.688190960236
0.688190960236 0.587785252292 0.425325404176
-0.433888564553 0.259891913008 -0.862668480416
-0.162459848116 0.26286555606 -0.951056516295
-0.309016994375 0.5 -0.809016994375
0.0 0.525731112119 -0.850650808352
-0.273266528913 0.0 -0.961938357784
0.809016994375 -0.309016994375 -0.5
0.850650808352 0.0 -0.525731112119
0.951056516295 -0.162459848116 -0.26286555606
0.951056516295 0.162459848116 -0.26286555606
0.809016994375 0.309016994375 -0.5
1.0 0.0 0.0
0.69378047756 -0.16062203564 -0.702046444776
0.69378047756 0.16062203564 -0.702046444776
0.525731112119 0.0 -0.850650808352
0.961938357784 0.273266528913 0.0
0.862668480416 0.433888564553 -0.259891913008
0.850650808352 0.525731112119 0.0
0.702046444776 0.69378047756 -0.16062203564
0.688190960236 0.587785252292 -0.425325404176
0.5 0.809016994375 -0.309016994375
0.587785252292 0.425325404176 -0.688190960236
0.425325404176 0.688190960236 -0.587785252292
0.309016994375 0.5 -0.809016994375
0.433888564553 0.259891913008 -0.862668480416
0.259891913008 0.862668480416 -0.433888564553
0.16062203564 0.702046444776 -0.69378047756
-0.951056516295 0.162459848116 -0.26286555606
-0.862668480416 0.433888564553 -0.259891913008
-0.961938357784 0.273266528913 0.0
-0.850650808352 0.525731112119 0.0
-0.16062203564 0.702046444776 -0.69378047756
-0.259891913008 0.862668480416 -0.433888564553
-0.425325404176 0.688190960236 -0.587785252292
-0.5 0.809016994375 -0.309016994375
-0.587785252292 0.425325404176 -0.688190960236
-0.688190960236 0.587785252292 -0.425325404176
-0.26286555606 -0.951056516295 -0.162459848116
-0.259891913008 -0.862668480416 -0.433888564553
0.0 -0.961938357784 -0.273266528913
0.0 -0.850650808352 -0.525731112119
-0.688190960236 -0.587785252292 0.425325404176
-0.809016994375 -0.309016994375 0.5
-0.425325404176 -0.688190960236 0.587785252292
-0.587785252292 -0.425325404176 0.688190960236
-0.809016994375 0.309016994375 0.5
-0.951056516295 0.162459848116 0.26286555606
-0.850650808352 0.0 0.525731112119
-0.951056516295 -0.162459848116 0.26286555606
-0.309016994375 -0.5 -0.809016994375
-0.425325404176 -0.688190960236 -0.587785252292
-0.587785252292 -0.425325404176 -0.688190960236
-0.688190960236 -0.587785252292 -0.425325404176
-0.16062203564 -0.702046444776 -0.69378047756
0.259891913008 -0.862668480416 -0.433888564553
0.26286555606 -0.951056516295 -0.162459848116
0.5 -0.809016994375 -0.309016994375
0.525731112119 -0.850650808352 0.0
0.26286555606 -0.951056516295 0.162459848116
0.433888564553 -0.259891913008 -0.862668480416
0.587785252292 -0.425325404176 -0.688190960236
0.309016994375 -0.5 -0.809016994375
0.688190960236 -0.587785252292 -0.425325404176
0.425325404176 -0.688190960236 -0.587785252292
0.862668480416 -0.433888564553 -0.259891913008
0.702046444776 -0.69378047756 -0.16062203564
0.850650808352 -0.525731112119 0.0
0.16062203564 -0.702046444776 -0.69378047756
0.990438881957 -0.137952242128 0.0
0.917539630891 -0.301683612961 -0.259052163504
0.961938357784 -0.273266528913 0.0
0.915043421233 -0.403355348617 0.0
0.519258489728 0.840177885327 -0.15643446504
0.707106781187 0.707106781187 0.0
0.702046444776 0.69378047756 0.16062203564
0.519258489728 0.840177885327 0.15643446504
-0.386187385588 0.891006524188 0.238676930319
-0.5 0.809016994375 0.309016994375
-0.525731112119 0.850650808352 0.0
-0.399607051702 0.912982492932 0.0823235800317
-0.519258489728 0.840177885327 -0.15643446504
-0.519258489728 0.840177885327 0.15643446504
-0.606825149272 0.758652300163 0.237086325351
-0.620239582613 0.78020437071 0.08114185162
-0.702046444776 0.69378047756 0.16062203564
-0.620239582613 0.78020437071 -0.08114185162
-0.711281734962 0.702907030488 0.0
-0.702046444776 0.69378047756 -0.16062203564
-0.606825149272 0.758652300163 -0.237086325351
-0.78384304242 0.615642020874 0.0810862934433
-0.78384304242 0.615642020874 -0.0810862934433
-0.468429850867 0.757935420048 0.453990499739
-0.37174803446 0.601500955008 0.707106781186
-0.601500955008 0.707106781186 0.37174803446
-0.564254211766 0.646577791798 0.51337544123
-0.688190960236 0.587785252292 0.425325404176
-0.646577791798 0.51337544123 0.564254211766
-0.51337544123 0.564254211766 0.646577791798
-0.587785252292 0.425325404176 0.688190960236
-0.757935420048 0.453990499739 0.468429850867
-0.707106781186 0.37174803446 0.601500955008
-0.453990499739 0.468429850867 0.757935420048
-0.702309846744 0.647411893882 0.296004592578
-0.792649229259 0.571251659136 0.213022865649
-0.783451698363 0.516121620051 0.346153014789
-0.862668480416 0.433888564553 0.259891913008
-0.864929335863 0.484441642061 0.131200378813
-0.843911474622 0.375038567478 0.383613732685
-0.375038567478 0.383613732685 0.843911474622
-0.516121620051 0.346153014789 0.783451698363
-0.433888564553 0.259891913008 0.862668480416
-0.647411893882 0.296004592578 0.702309846744
-0.571251659136 0.213022865649 0.792649229259
-0.69378047756 0.16062203564 0.702046444776
-0.758652300163 0.237086325351 0.606825149272
-0.484441642061 0.131200378813 0.864929335863
-0.615642020874 0.0810862934433 0.78384304242
0.0 0.266404701135 0.963861263467
-0.0822424652791 0.133071104141 0.987688340595
0.0822424652791 0.133071104141 0.987688340595
0.0 0.0 1.0
-0.220117027473 0.132792476828 0.966392597402
-0.137952242128 0.0 0.990438881957
0.220117027473 0.132792476828 0.966392597402
0.137952242128 0.0 0.990438881957
-0.220117027473 -0.132792476828 0.966392597402
-0.0822424652791 -0.133071104141 0.987688340595
-0.0823235800317 -0.399607051702 0.912982492932
0.0823235800317 -0.399607051702 0.912982492932
0.0 -0.266404701135 0.963861263467
0.162459848116 -0.26286555606 0.951056516295
0.15643446504 -0.519258489728 0.840177885327
0.238676930319 -0.386187385588 0.891006524188
0.0822424652791 -0.133071104141 0.987688340595
0.220117027473 -0.132792476828 0.966392597402
0.301258879093 -0.264082750659 0.916244175191
0.358228793487 -0.131655371352 0.924304600611
0.375038567478 -0.383613732685 0.843911474622
0.601500955008 -0.707106781186 0.37174803446
0.757935420048 -0.453990499739 0.468429850867
0.843911474622 -0.375038567478 0.383613732685
0.783451698363 -0.516121620051 0.346153014789
0.862668480416 -0.433888564553 0.259891913008
0.702309846744 -0.647411893882 0.296004592578
0.792649229259 -0.571251659136 0.213022865649
0.702046444776 -0.69378047756 0.16062203564
0.606825149272 -0.758652300163 0.237086325351
0.864929335863 -0.484441642061 0.131200378813
0.78384304242 -0.615642020874 0.0810862934433
0.238676930319 -0.386187385588 -0.891006524188
0.353553390593 -0.135045378369 -0.925614793411
0.162459848116 -0.26286555606 -0.951056516295
0.273266528913 0.0 -0.961938357784
0.0822424652791 -0.133071104141 -0.987688340595
0.0 0.0 -1.0
0.15643446504 -0.519258489728 -0.840177885327
0.0823235800317 -0.399607051702 -0.912982492932
0.0 -0.525731112119 -0.850650808352
-0.0823235800317 -0.399607051702 -0.912982492932
0.0 -0.266404701135 -0.963861263467
-0.162459848116 -0.26286555606 -0.951056516295
-0.15643446504 -0.519258489728 -0.840177885327
-0.238676930319 -0.386187385588 -0.891006524188
-0.0822424652791 -0.133071104141 -0.987688340595
0.0 -0.707106781187 -0.707106781187
-0.137952242128 0.0 -0.990438881957
-0.220117027473 -0.132792476828 -0.966392597402
-0.301258879093 -0.264082750659 -0.916244175191
-0.358228793487 -0.131655371352 -0.924304600611
-0.433888564553 -0.259891913008 -0.862668480416
-0.375038567478 -0.383613732685 -0.843911474622
0.924304600611 -0.358228793487 0.131655371352
0.966392597402 -0.220117027473 0.132792476828
0.916244175191 -0.301258879093 0.264082750659
0.951056516295 -0.162459848116 0.26286555606
0.987688340595 -0.0822424652791 0.133071104141
0.891006524188 -0.238676930319 0.386187385588
0.987688340595 0.0822424652791 0.133071104141
0.963861263467 0.0 0.266404701135
0.925614793411 0.353553390593 0.135045378369
0.601500955008 0.707106781186 0.37174803446
0.790569415042 0.572061402817 0.218508012224
-0.782888506207 0.519553709322 -0.342271135182
-0.69378047756 -0.16062203564 0.702046444776
-0.778605872826 -0.0768840702267 0.622785464303
-0.965056599484 0.224799542734 0.134651124684
-0.643954748142 -0.294754166588 -0.70600443598
0.622785464303 -0.778605872826 -0.0768840702267
0.0822424652791 0.133071104141 -0.987688340595
0.353553390593 0.135045378369 -0.925614793411
0.162459848116 0.26286555606 -0.951056516295
0.238676930319 0.386187385588 -0.891006524188
-0.0822424652791 0.133071104141 -0.987688340595
0.0 0.266404701135 -0.963861263467
-0.220117027473 0.132792476828 -0.966392597402

CELLS 490 1960
3 0 1 2
3 1 3 4
3 3 5 6
3 6 7 8
3 9 10 11
3 9 12 10
3 12 9 13
3 14 10 15
3 10 16 15
3 10 12 16
3 15 16 17
3 17 16 18
3 16 19 18
3 16 12 19
3 12 20 19
3 13 20 12
3 17 18 21
3 18 22 21
3 17 21 23
3 21 24 23
3 21 25 24
3 23 24 26
3 25 27 24
3 24 28 26
3 26 28 29
3 29 30 31
3 32 33 34
3 33 35 36
3 8 37 35
3 31 38 39
3 38 40 39
3 39 40 41
3 42 43 40
3 43 44 40
3 45 43 8
3 8 43 42
3 46 47 48
3 41 48 39
3 48 49 39
3 48 47 49
3 39 49 31
3 50 51 52
3 50 26 51
3 52 51 47
3 14 15 50
3 15 23 50
3 15 17 23
3 50 23 26
3 47 51 49
3 51 29 49
3 51 26 29
3 49 29 31
3 53 0 2
3 54 55 56
3 57 0 53
3 54 53 55
3 58 59 60
3 59 61 60
3 59 62 61
3 60 61 63
3 58 64 59
3 64 65 59
3 64 66 65
3 59 65 62
3 63 61 67
3 61 68 67
3 61 62 68
3 67 68 69
3 69 68 70
3 68 71 70
3 68 62 71
3 70 71 72
3 62 73 71
3 73 74 71
3 73 75 74
3 71 74 72
3 62 65 73
3 65 76 73
3 65 66 76
3 73 76 75
3 72 74 77
3 74 78 77
3 74 75 78
3 77 78 13
3 4 79 1
3 1 79 2
3 2 79 80
3 79 81 80
3 79 4 81
3 80 81 82
3 13 83 84
3 83 85 84
3 83 55 85
3 84 85 86
3 55 87 85
3 87 88 85
3 87 2 88
3 85 88 86
3 5 89 6
3 89 7 6
3 5 90 89
3 90 91 89
3 90 92 91
3 89 91 7
3 6 93 3
3 3 93 94
3 6 95 93
3 95 96 93
3 95 35 96
3 93 96 94
3 35 95 8
3 8 95 6
3 97 98 99
3 98 100 99
3 98 4 100
3 99 100 94
3 94 100 3
3 100 4 3
3 101 102 103
3 102 104 103
3 102 5 104
3 103 104 1
3 101 105 102
3 105 90 102
3 105 92 90
3 102 90 5
3 1 104 3
3 104 5 3
3 92 106 91
3 106 107 91
3 106 108 107
3 91 107 7
3 108 109 107
3 109 110 107
3 109 45 110
3 107 110 7
3 7 110 8
3 110 45 8
3 66 64 111
3 64 112 111
3 64 58 112
3 111 112 113
3 58 114 112
3 114 115 112
3 114 108 115
3 112 115 113
3 58 116 114
3 116 117 114
3 116 118 117
3 114 117 108
3 113 115 119
3 115 106 119
3 115 108 106
3 119 106 92
3 63 120 60
3 120 121 60
3 120 122 121
3 60 121 58
3 58 121 116
3 121 123 116
3 121 122 123
3 116 123 118
3 72 124 70
3 124 125 70
3 124 11 125
3 70 125 69
3 69 125 126
3 125 127 126
3 125 11 127
3 126 127 14
3 11 124 9
3 9 124 72
3 14 127 10
3 10 127 11
3 72 77 9
3 9 77 13
3 19 128 18
3 18 128 129
3 130 131 20
3 20 131 19
3 86 132 20
3 20 132 130
3 19 131 128
3 131 133 128
3 131 130 133
3 128 133 129
3 13 84 20
3 20 84 86
3 129 133 134
3 133 135 134
3 133 130 135
3 134 135 136
3 130 137 135
3 137 138 135
3 137 139 138
3 135 138 136
3 130 132 137
3 132 140 137
3 132 86 140
3 137 140 139
3 136 138 141
3 138 142 141
3 138 139 142
3 141 142 82
3 129 143 18
3 18 143 22
3 22 144 21
3 21 144 25
3 129 145 143
3 145 146 143
3 145 147 146
3 143 146 22
3 147 148 146
3 148 149 146
3 148 150 149
3 146 149 22
3 147 151 148
3 151 152 148
3 151 97 152
3 148 152 150
3 22 149 144
3 149 153 144
3 149 150 153
3 144 153 25
3 129 134 145
3 134 154 145
3 134 136 154
3 145 154 147
3 136 155 154
3 155 156 154
3 155 157 156
3 154 156 147
3 136 141 155
3 141 158 155
3 141 82 158
3 155 158 157
3 147 156 151
3 156 159 151
3 156 157 159
3 151 159 97
3 25 153 160
3 153 161 160
3 153 150 161
3 160 161 162
3 150 163 161
3 163 164 161
3 163 165 164
3 161 164 162
3 150 152 163
3 152 166 163
3 152 97 166
3 163 166 165
3 162 164 167
3 164 168 167
3 164 165 168
3 167 168 32
3 27 169 24
3 169 28 24
3 27 170 169
3 170 171 169
3 170 172 171
3 169 171 28
3 25 160 27
3 160 162 27
3 34 173 162
3 162 173 27
3 162 167 34
3 167 32 34
3 27 173 170
3 173 174 170
3 173 34 174
3 170 174 172
3 28 175 29
3 175 30 29
3 28 171 175
3 171 176 175
3 171 172 176
3 175 176 30
3 36 177 33
3 33 177 34
3 34 177 174
3 177 178 174
3 177 36 178
3 174 178 172
3 37 179 35
3 35 179 36
3 37 180 179
3 180 181 179
3 180 182 181
3 179 181 36
3 37 183 180
3 183 184 180
3 183 42 184
3 180 184 182
3 36 181 178
3 181 185 178
3 181 182 185
3 178 185 172
3 42 183 8
3 183 37 8
3 172 185 176
3 185 186 176
3 185 182 186
3 176 186 30
3 182 187 186
3 187 188 186
3 187 38 188
3 186 188 30
3 182 184 187
3 184 189 187
3 184 42 189
3 187 189 38
3 30 188 31
3 188 38 31
3 38 189 40
3 189 42 40
3 45 190 43
3 43 190 44
3 44 191 40
3 40 191 41
3 41 191 192
3 191 193 192
3 191 44 193
3 192 193 194
3 44 195 193
3 195 196 193
3 195 197 196
3 193 196 194
3 44 190 195
3 190 198 195
3 190 45 198
3 195 198 197
3 194 196 199
3 196 200 199
3 196 197 200
3 199 200 118
3 113 201 111
3 201 202 111
3 201 203 202
3 111 202 66
3 66 202 204
3 202 205 204
3 202 203 205
3 204 205 206
3 113 207 201
3 207 208 201
3 207 209 208
3 201 208 203
3 209 210 208
3 210 211 208
3 210 212 211
3 208 211 203
3 209 213 210
3 213 214 210
3 213 101 214
3 210 214 212
3 203 211 205
3 211 215 205
3 211 212 215
3 205 215 206
3 101 213 105
3 213 216 105
3 213 209 216
3 105 216 92
3 92 216 119
3 216 207 119
3 216 209 207
3 119 207 113
3 206 215 217
3 215 218 217
3 215 212 218
3 217 218 57
3 212 219 218
3 219 220 218
3 219 221 220
3 218 220 57
3 212 214 219
3 214 222 219
3 214 101 222
3 219 222 221
3 57 220 0
3 220 221 0
3 118 123 199
3 123 223 199
3 123 122 223
3 199 223 194
3 122 224 223
3 224 225 223
3 224 226 225
3 223 225 194
3 122 120 224
3 120 227 224
3 120 63 227
3 224 227 226
3 194 225 192
3 225 228 192
3 225 226 228
3 192 228 41
3 63 229 227
3 229 230 227
3 229 46 230
3 227 230 226
3 226 230 48
3 48 230 46
3 41 228 48
3 48 228 226
3 46 231 47
3 47 231 69
3 69 231 67
3 231 229 67
3 231 46 229
3 67 229 63
3 14 232 126
3 232 233 126
3 232 52 233
3 126 233 69
3 69 233 47
3 233 52 47
3 52 232 50
3 50 232 14
3 2 87 53
3 53 87 55
3 82 142 80
3 142 234 80
3 142 139 234
3 80 234 2
3 2 234 88
3 234 140 88
3 234 139 140
3 88 140 86
3 94 96 33
3 33 96 35
3 32 235 33
3 33 235 94
3 32 168 235
3 168 236 235
3 168 165 236
3 235 236 94
3 165 166 236
3 166 99 236
3 166 97 99
3 236 99 94
3 97 159 98
3 159 237 98
3 159 157 237
3 98 237 4
3 157 158 237
3 158 81 237
3 158 82 81
3 237 81 4
3 221 238 0
3 0 238 1
3 221 222 238
3 222 103 238
3 222 101 103
3 238 103 1
3 118 200 117
3 200 239 117
3 200 197 239
3 117 239 108
3 108 239 109
3 239 198 109
3 239 197 198
3 109 198 45
3 206 240 204
3 240 241 204
3 240 242 241
3 204 241 66
3 66 241 76
3 241 243 76
3 241 242 243
3 76 243 75
3 206 244 240
3 244 245 240
3 244 54 245
3 240 245 242
3 242 245 56
3 56 245 54
3 75 243 56
3 56 243 242
3 206 217 244
3 217 246 244
3 217 57 246
3 244 246 54
3 54 246 53
3 53 246 57
3 13 78 56
3 56 78 75
3 55 83 56
3 56 83 13

CELL_TYPES 490
5
5
5
5
5
5
5
5
5
5
5
5
5
5
5
5
5
5
5
5
5
5
5
5
5
5
5
5
5
5
5
5
5
5
5
5
5
5
5
5
5
5
5
5
5
5
5
5
5
5
5
5
5
5
5
5
5
5
5
5
5
5
5
5
5
5
5
5
5
5
5
5
5
5
5
5
5
5
5
5
5
5
5
5
5
5
5
5
5
5
5
5
5
5
5
5
5
5
5
5
5
5
5
5
5
5
5
5
5
5
5
5
5
5
5
5
5
5
5
5
5
5
5
5
5
5
5
5
5
5
5
5
5
5
5
5
5
5
5
5
5
5
5
5
5
5
5
5
5
5
5
5
5
5
5
5
5
5
5
5
5
5
5
5
5
5
5
5
5
5
5
5
5
5
5
5
5
5
5
5
5
5
5
5
5
5
5
5
5
5
5
5
5
5
5
5
5
5
5
5
5
5
5
5
5
5
5
5
5
5
5
5
5
5
5
5
5
5
5
5
5
5
5
5
5
5
5
5
5
5
5
5
5
5
5
5
5
5
5
5
5
5
5
5
5
5
5
5
5
5
5
5
5
5
5
5
5
5
5
5
5
5
5
5
5
5
5
5
5
5
5
5
5
5
5
5
5
5
5
5
5
5
5
5
5
5
5
5
5
5
5
5
5
5
5
5
5
5
5
5
5
5
5
5
5
5
5
5
5
5
5
5
5
5
5
5
5
5
5
5
5
5
5
5
5
5
5
5
5
5
5
5
5
5
5
5
5
5
5
5
5
5
5
5
5
5
5
5
5
5
5
5
5
5
5
5
5
5
5
5
5
5
5
5
5
5
5
5
5
5
5
5
5
5
5
5
5
5
5
5
5
5
5
5
5
5
5
5
5
5
5
5
5
5
5
5
5
5
5
5
5
5
5
5
5
5
5
5
5
5
5
5
5
5
5
5
5
5
5
5
5
5
5
5
5
5
5
5
5
5
5
5
5
5
5
5
5
5
5
5
5
5
5
5
5
5
5
5
5
5
5
5
5
5
5
5
5
5
5
5
5
5
5
5
5
5
5
5
5
5
5
5
5
5
5
5
5
5
5
5
5
5
5
5
5
5
5
5
5
5

CELL_DATA 490
SCALARS cell_data_0 double
LOOKUP_TABLE default
0.000143585491556
0.000155380315691
0.000179341869601
0.000241999602973
1.09113250465e-05
7.20361970736e-06
8.27643543679e-06
2.18651257416e-06
2.29346136799e-06
6.74002874774e-06
2.18319143791e-06
5.63984677874e-06
1.45494919436e-05
1.53242486029e-05
2.17174240301e-05
1.4566074099e-05
3.6003796832e-05
5.35573080307e-05
2.05045776438e-05
8.75801969169e-07
2.66696937694e-06
2.34707874346e-05
4.8844390626e-05
4.63109397459e-05
3.12171369209e-05
4.38822912809e-05
4.40741070387e-05
4.03744373246e-05
1.01322836388e-05
2.78090736938e-05
1.94675110876e-05
3.56108117477e-05
9.85649617613e-06
3.93171946436e-05
0.000188481825734
6.6270747638e-05
2.2668245872e-05
3.48880721218e-05
4.483425122e-06
1.25538705354e-05
1.62979405926e-05
1.11983972372e-05
1.71532157055e-05
1.09761911048e-05
3.07700845285e-06
1.08052791543e-05
6.55691488918e-06
1.47452239149e-05
8.7645030369e-06
8.52984857251e-06
1.36555447012e-05
1.91207090546e-05
1.33717477711e-05
3.79083427312e-05
4.13776710979e-05
3.2815814322e-05
5.78596131418e-06
1.47824372102e-05
1.69132212989e-06
1.81120768941e-05
7.85127116666e-06
1.05390700045e-05
2.19007496722e-05
4.86504918211e-06
7.86353364217e-06
2.09539852519e-05
1.63982921742e-05
2.3509054867e-05
3.02771894821e-05
3.32752668276e-05
2.07031916924e-05
1.33037613118e-05
3.03415710347e-06
3.30977720807e-06
1.71318814959e-05
1.34602721283e-05
1.06767350887e-05
2.18564770674e-05
2.85588102408e-05
2.56896518815e-05
2.64279230568e-06
5.61854125471e-06
1.46195763825e-05
6.20637248446e-06
9.39252033301e-05
0.000156464780106
4.11201002789e-05
2.15002800928e-05
4.94483512784e-05
2.18517330108e-05
1.66011146259e-05
1.1706122276e-05
1.77006809759e-05
9.81417109362e-06
1.4787863857e-05
8.20754513297e-06
4.46033659094e-05
5.17223279069e-06
0.0001149682802
7.67964175783e-05
1.75187313384e-05
5.05664800716e-06
1.78472319499e-06
1.95539519374e-05
3.38143420761e-05
3.17646795913e-06
1.53066216413e-05
1.43072612843e-05
1.39199218733e-05
5.38026296384e-06
2.19329984546e-05
7.63242561414e-05
3.68949486611e-06
5.68741793677e-06
1.81324597714e-05
1.1654674939e-08
5.80338997456e-06
2.97852194865e-05
1.18630487627e-05
1.39897787194e-05
1.35536773405e-05
8.65766640798e-06
8.77456111343e-06
1.155651615e-05
9.81680608777e-06
1.09827147264e-05
3.20457929724e-05
3.25636051468e-05
1.83321167691e-06
4.42803125488e-06
4.28120980015e-07
1.82321888739e-05
1.55885121764e-06
9.82944243446e-07
4.9618150903e-05
1.00272090775e-05
6.47641785303e-05
0.00014187905499
2.86179497766e-05
2.40648376481e-05
1.39703402205e-05
2.12932694141e-05
1.23208071824e-05
1.47358598263e-05
5.46133983701e-06
1.10678600392e-05
5.08880699941e-06
2.81269154266e-06
1.10587440552e-06
2.55993933617e-08
8.27774790167e-06
1.18734528097e-05
4.39184707991e-06
1.0013722523e-05
5.99380830795e-06
3.1951776125e-06
8.35704132988e-06
1.80154865832e-06
1.69112241306e-06
4.89174732145e-07
1.03634649773e-05
7.90185481192e-07
8.26860327865e-06
8.3878170769e-06
8.34581903489e-06
6.64037247963e-06
5.20865741559e-06
3.24346998949e-06
4.56444877004e-06
3.94956647259e-06
1.06154064441e-05
7.34357963727e-06
3.52203769972e-06
5.35722286856e-06
1.42592488581e-06
7.24665153966e-07
8.20191344579e-06
2.26088539013e-06
1.50004714166e-05
1.53128579255e-05
7.76873299716e-06
1.54161043396e-05
7.0315554332e-06
4.30956488456e-06
6.15573435982e-06
1.69171072086e-06
2.21150411219e-05
1.96033938427e-05
1.54744961946e-06
5.2145512764e-06
6.71429377352e-06
5.08293213644e-06
6.33833202216e-06
3.3744735252e-06
6.42263517169e-06
3.78460885681e-06
5.13100590556e-06
2.50589568562e-06
2.2070046927e-06
6.36105492494e-06
7.92985322716e-07
3.4488915999e-07
5.91515822863e-06
4.33886395746e-07
4.37179692889e-08
6.00053359492e-06
3.23596812824e-05
1.83326542793e-05
2.92426982745e-06
1.04786213898e-05
2.07248470752e-05
1.01767293336e-05
1.73907593283e-05
1.12941288215e-05
1.64568684788e-05
1.47330662296e-05
1.09324428228e-05
3.60491693059e-06
2.85891451724e-06
1.25586008826e-05
9.61482004388e-06
8.28755343979e-06
1.77725764944e-05
3.60372440021e-06
4.11053782651e-06
9.10206600529e-06
5.48642648038e-06
1.50347472928e-05
1.89052552637e-05
4.2290235501e-05
3.48034695545e-05
3.10060241397e-05
1.22767252168e-05
3.27059354059e-05
1.41158705533e-05
3.403055928e-05
2.61775756032e-05
4.26127024316e-05
3.94421792956e-05
2.00781640263e-05
6.81197527704e-06
2.13023474531e-05
2.59469543698e-05
1.05365860968e-05
3.82099159303e-05
3.87785655422e-05
1.68757636139e-05
1.47668832068e-05
2.07521815595e-05
2.19917129157e-05
1.05926515064e-05
1.72335167346e-05
1.18255821777e-05
2.52833582139e-05
1.01594231483e-05
5.25458297194e-06
3.15771257729e-05
2.9332333156e-05
1.61100575834e-05
9.63611229483e-06
1.4828518985e-05
1.38465861735e-05
1.19584507147e-05
1.64791978669e-05
2.73901760943e-05
2.69093351835e-05
1.3203239658e-05
1.26600644293e-05
1.43827377631e-05
1.25409893723e-05
1.46429860374e-05
1.43171376192e-05
1.27449847276e-05
2.06149981381e-05
8.09467436594e-06
3.34118001616e-06
1.22388402641e-05
1.15876877128e-05
2.68442685727e-05
2.68164002985e-05
1.3763958315e-05
1.23808253684e-05
1.4266799795e-05
1.55491596205e-05
1.57955996136e-05
2.2640524581e-05
1.16113354962e-05
1.48368053212e-05
1.502401285e-05
1.62727477674e-05
9.74080228013e-06
1.05847261083e-05
8.372875399e-06
1.264881396e-05
1.86794627236e-05
2.06141134161e-05
1.67123531047e-05
2.23229950917e-05
1.61630664995e-06
1.50579733142e-05
1.82315046002e-05
1.7714535011e-05
1.37544655336e-05
1.63027941652e-05
1.26542290078e-05
1.19953761917e-05
1.02138091546e-05
1.25680407245e-05
1.0829584067e-05
9.09173028185e-06
7.18605087587e-06
8.59013692316e-06
2.10786016679e-05
1.84065114052e-05
1.30530919776e-05
8.82435488303e-06
3.58055180302e-05
1.96564201686e-05
8.22868606952e-06
1.845634247e-05
1.86588503054e-05
1.66853704676e-05
1.53023271196e-05
1.89019429737e-05
3.68275985928e-05
4.98642673277e-05
3.54791819297e-05
2.78982140855e-05
1.79998541911e-05
3.11905204202e-05
3.21904585703e-05
3.81478106221e-05
3.7946209803e-05
5.04005391473e-05
2.5034797223e-05
2.57671822578e-05
7.47486727994e-06
1.59926677319e-05
2.06921206732e-05
1.92727914724e-05
1.95616287404e-05
1.79715353525e-05
2.68781488831e-05
1.96452857375e-05
1.05877962081e-05
3.94382136171e-06
4.02466252207e-06
1.08856442037e-05
9.47798341557e-06
2.76936404778e-06
1.17781316006e-05
1.24130480512e-05
8.13431715695e-06
2.38598374671e-06
5.81134750933e-06
7.0250146712e-06
1.23641882186e-05
2.91265031573e-06
1.31415624627e-05
8.25092763539e-06
5.88696748101e-06
5.73240436694e-08
5.27944465732e-06
3.09217815869e-06
2.83409760741e-06
1.49285821127e-05
7.36256456817e-06
7.01672668674e-06
9.36440610949e-06
1.105029594e-05
1.42140179128e-05
1.55306317131e-05
1.34382385028e-05
1.26472104482e-05
1.0077810906e-05
1.47065957518e-05
6.79931049957e-06
2.78848309812e-06
1.23521321342e-06
7.8276274708e-06
2.16855047366e-05
1.84924754377e-05
1.77746429768e-05
1.8099045576e-05
5.7791445376e-06
1.73974403465e-05
5.31850208861e-06
1.19327806591e-07
3.75903081611e-07
3.35211401114e-07
4.92256767714e-06
5.0968776673e-07
1.55301614513e-06
9.30113114681e-07
6.38049671299e-06
5.26485726354e-06
5.15022336703e-08
1.92343793526e-05
2.01087917734e-06
4.69658926551e-07
1.56383143472e-06
8.22092829831e-07
9.30572887631e-07
1.06606570649e-06
1.86414401151e-05
1.50662501927e-06
2.51234309992e-05
2.49379624211e-05
4.12589821788e-06
1.183122539e-06
3.21881356503e-06
2.73614846899e-06
2.43235130261e-06
1.21028179444e-06
1.03266525914e-07
5.02918359667e-06
2.4104564902e-05
1.67797789388e-05
2.75540873307e-06
1.3064360293e-06
1.33363280656e-05
5.93768934972e-06
9.92343279317e-08
3.40255090258e-06
1.6733097589e-05
2.87228081705e-05
2.80326739136e-05
3.21261040688e-06
1.68558691099e-05
6.26724448703e-07
1.87736858784e-05
2.26946349833e-05
2.71595878371e-05
1.52419209095e-05
4.1422919845e-06
1.11559242727e-06
1.82241915359e-06
6.8679625353e-07
7.06595141291e-06
1.01691634812e-05
1.61455234174e-05
2.07709273135e-06
3.13970297163e-05
3.80340219204e-05
4.02557054733e-05
1.39454525024e-05
3.64078417145e-05
5.87957907471e-05
4.82544490721e-05
3.3032584888e-05
2.70608081052e-05
8.86911307179e-06
1.29349673035e-05
1.12976523036e-05
9.84934394382e-06
1.30547698274e-06
9.18499867398e-06
4.82707211272e-05
5.65969558007e-05
3.222022955e-05
3.27822684171e-05
7.98004531247e-05
8.8549874951e-05
6.59513018159e-05
2.28068183072e-05
1.27754934942e-05
2.27807741169e-05
1.39234444474e-05
1.57043778062e-05
9.03109318896e-06
1.45508912199e-05
1.42089532943e-05
8.84624632101e-06
5.70027308217e-06
1.18720318316e-05
1.37875175663e-05
2.88163230201e-05
2.88975473102e-05
1.67541711511e-05
2.4498561674e-05
8.09468359478e-06
5.47225906205e-06
1.37047327351e-05
9.75213142743e-06
2.4446743295e-05
2.72427982928e-05
1.67685430917e-05
2.60919381991e-05
1.74130612401e-06
1.20986366411e-05

