# vtk DataFile Version 3.0
File Name: Molecule/sphere_dip/sphere_dip_0-s4.vtk
ASCII
DATASET UNSTRUCTURED_GRID
FIELD FieldData 1
TIME 1 1 double
0.0
POINTS 639 double
0.26286555606 0.951056516295 -0.162459848116
0.26286555606 0.951056516295 0.162459848116
0.525731112119 0.850650808352 0.0
0.0 1.0 0.0
0.5 0.809016994375 0.309016994375
0.259891913008 0.862668480416 0.433888564553
0.0 0.961938357784 0.273266528913
0.0 0.850650808352 0.525731112119
-0.26286555606 0.951056516295 0.162459848116
-0.259891913008 0.862668480416 0.433888564553
0.425325404176 0.688190960236 0.587785252292
0.809016994375 -0.309016994375 -0.5
0.850650808352 0.0 -0.525731112119
0.951056516295 -0.162459848116 -0.26286555606
0.69378047756 -0.16062203564 -0.702046444776
0.69378047756 0.16062203564 -0.702046444776
0.809016994375 0.309016994375 -0.5
0.688190960236 0.587785252292 -0.425325404176
0.425325404176 0.688190960236 -0.587785252292
0.5 0.809016994375 -0.309016994375
0.259891913008 0.862668480416 -0.433888564553
0.16062203564 0.702046444776 -0.69378047756
0.0 0.850650808352 -0.525731112119
-0.309016994375 -0.5 -0.809016994375
-0.425325404176 -0.688190960236 -0.587785252292
-0.587785252292 -0.425325404176 -0.688190960236
-0.688190960236 -0.587785252292 -0.425325404176
-0.16062203564 -0.702046444776 -0.69378047756
-0.259891913008 -0.862668480416 -0.433888564553
0.0 -0.850650808352 -0.525731112119
0.259891913008 -0.862668480416 -0.433888564553
0.0 -0.961938357784 -0.273266528913
0.688190960236 -0.587785252292 -0.425325404176
0.587785252292 -0.425325404176 -0.688190960236
0.425325404176 -0.688190960236 -0.587785252292
0.5 -0.809016994375 -0.309016994375
0.862668480416 -0.433888564553 -0.259891913008
0.702046444776 -0.69378047756 -0.16062203564
0.309016994375 -0.5 -0.809016994375
0.16062203564 -0.702046444776 -0.69378047756
0.990438881957 -0.137952242128 0.0
0.917539630891 -0.301683612961 -0.259052163504
0.961938357784 -0.273266528913 0.0
0.915043421233 -0.403355348617 0.0
0.519258489728 0.840177885327 -0.15643446504
0.702046444776 0.69378047756 -0.16062203564
0.707106781187 0.707106781187 0.0
0.850650808352 0.525731112119 0.0
0.702046444776 0.69378047756 0.16062203564
0.519258489728 0.840177885327 0.15643446504
-0.386187385588 0.891006524188 0.238676930319
-0.5 0.809016994375 0.309016994375
-0.525731112119 0.850650808352 0.0
-0.399607051702 0.912982492932 0.0823235800317
-0.26286555606 0.951056516295 -0.162459848116
-0.519258489728 0.840177885327 -0.15643446504
-0.519258489728 0.840177885327 0.15643446504
-0.606825149272 0.758652300163 0.237086325351
-0.620239582613 0.78020437071 0.08114185162
-0.702046444776 0.69378047756 0.16062203564
-0.620239582613 0.78020437071 -0.08114185162
-0.711281734962 0.702907030488 0.0
-0.702046444776 0.69378047756 -0.16062203564
-0.606825149272 0.758652300163 -0.237086325351
-0.5 0.809016994375 -0.309016994375
-0.78384304242 0.615642020874 -0.0810862934433
-0.78384304242 0.615642020874 0.0810862934433
-0.468429850867 0.757935420048 0.453990499739
-0.601500955008 0.707106781186 0.37174803446
-0.564254211766 0.646577791798 0.51337544123
-0.425325404176 0.688190960236 0.587785252292
-0.51337544123 0.564254211766 0.646577791798
-0.0822424652791 0.133071104141 0.987688340595
0.0822424652791 0.133071104141 0.987688340595
0.0 0.266404701135 0.963861263467
0.0 0.0 1.0
-0.220117027473 0.132792476828 0.966392597402
-0.137952242128 0.0 0.990438881957
0.137952242128 0.0 0.990438881957
0.220117027473 0.132792476828 0.966392597402
0.0 -0.525731112119 0.850650808352
0.0823235800317 -0.399607051702 0.912982492932
-0.0823235800317 -0.399607051702 0.912982492932
0.162459848116 -0.26286555606 0.951056516295
0.0 -0.266404701135 0.963861263467
0.15643446504 -0.519258489728 0.840177885327
0.238676930319 -0.386187385588 0.891006524188
0.309016994375 -0.5 0.809016994375
0.0 -0.850650808352 0.525731112119
0.301258879093 -0.264082750659 0.916244175191
0.220117027473 -0.132792476828 0.966392597402
0.358228793487 -0.131655371352 0.924304600611
0.375038567478 -0.383613732685 0.843911474622
0.433888564553 -0.259891913008 0.862668480416
0.15643446504 -0.519258489728 -0.840177885327
0.0823235800317 -0.399607051702 -0.912982492932
0.238676930319 -0.386187385588 -0.891006524188
0.0 -0.525731112119 -0.850650808352
-0.0823235800317 -0.399607051702 -0.912982492932
0.0 -0.266404701135 -0.963861263467
-0.162459848116 -0.26286555606 -0.951056516295
0.162459848116 -0.26286555606 -0.951056516295
-0.15643446504 -0.519258489728 -0.840177885327
-0.238676930319 -0.386187385588 -0.891006524188
-0.0822424652791 -0.133071104141 -0.987688340595
0.0822424652791 -0.133071104141 -0.987688340595
0.0 -0.707106781187 -0.707106781187
0.0 0.0 -1.0
-0.137952242128 0.0 -0.990438881957
-0.220117027473 -0.132792476828 -0.966392597402
-0.273266528913 0.0 -0.961938357784
-0.301258879093 -0.264082750659 -0.916244175191
-0.358228793487 -0.131655371352 -0.924304600611
-0.375038567478 -0.383613732685 -0.843911474622
-0.433888564553 -0.259891913008 -0.862668480416
0.966392597402 -0.220117027473 0.132792476828
0.924304600611 -0.358228793487 0.131655371352
0.916244175191 -0.301258879093 0.264082750659
0.951056516295 -0.162459848116 0.26286555606
0.987688340595 -0.0822424652791 0.133071104141
1.0 0.0 0.0
0.891006524188 -0.238676930319 0.386187385588
0.987688340595 0.0822424652791 0.133071104141
0.963861263467 0.0 0.266404701135
0.951056516295 0.162459848116 0.26286555606
0.850650808352 0.0 0.525731112119
0.601500955008 0.707106781186 0.37174803446
0.790569415042 0.572061402817 0.218508012224
0.688190960236 0.587785252292 0.425325404176
-0.782888506207 0.519553709322 -0.342271135182
-0.688190960236 0.587785252292 -0.425325404176
-0.615642020874 0.0810862934433 0.78384304242
-0.778605872826 -0.0768840702267 0.622785464303
-0.69378047756 -0.16062203564 0.702046444776
-0.758652300163 0.237086325351 0.606825149272
-0.850650808352 0.0 0.525731112119
-0.809016994375 0.309016994375 0.5
-0.809016994375 -0.309016994375 0.5
-0.643954748142 -0.294754166588 -0.70600443598
-0.0822424652791 0.133071104141 -0.987688340595
-0.220117027473 0.132792476828 -0.966392597402
-0.525731112119 0.0 -0.850650808352
-0.69378047756 -0.16062203564 -0.702046444776
-0.69378047756 0.16062203564 -0.702046444776
-0.850650808352 0.0 -0.525731112119
-0.809016994375 -0.309016994375 -0.5
-0.809016994375 0.309016994375 -0.5
-0.862668480416 -0.433888564553 -0.259891913008
-0.951056516295 -0.162459848116 -0.26286555606
-0.961938357784 -0.273266528913 0.0
-0.850650808352 -0.525731112119 0.0
-1.0 0.0 0.0
-0.702046444776 -0.69378047756 -0.16062203564
-0.702046444776 -0.69378047756 0.16062203564
-0.525731112119 -0.850650808352 0.0
-0.5 -0.809016994375 -0.309016994375
-0.5 -0.809016994375 0.309016994375
-0.26286555606 -0.951056516295 0.162459848116
-0.259891913008 -0.862668480416 0.433888564553
0.0 -0.961938357784 0.273266528913
0.0 -1.0 0.0
0.0 0.961938357784 -0.273266528913
-0.131200378813 0.864929335863 0.484441642061
-0.133071104141 0.987688340595 0.0822424652791
-0.133071104141 0.987688340595 -0.0822424652791
-0.266404701135 0.963861263467 0.0
-0.135045378369 0.925614793411 -0.353553390593
-0.0810862934433 0.78384304242 0.615642020874
-0.213022865649 0.792649229259 0.571251659136
-0.16062203564 0.702046444776 0.69378047756
-0.346153014789 0.783451698363 0.516121620051
-0.296004592578 0.702309846744 0.647411893882
0.0810862934433 0.78384304242 0.615642020874
0.0 0.711281734962 0.702907030488
0.16062203564 0.702046444776 0.69378047756
-0.08114185162 0.620239582613 0.78020437071
0.08114185162 0.620239582613 0.78020437071
0.0 0.525731112119 0.850650808352
-0.237086325351 0.606825149272 0.758652300163
-0.15643446504 0.519258489728 0.840177885327
-0.309016994375 0.5 0.809016994375
0.237086325351 0.606825149272 0.758652300163
0.15643446504 0.519258489728 0.840177885327
0.309016994375 0.5 0.809016994375
-0.238676930319 0.386187385588 0.891006524188
-0.0823235800317 0.399607051702 0.912982492932
-0.162459848116 0.26286555606 0.951056516295
0.0823235800317 0.399607051702 0.912982492932
0.238676930319 0.386187385588 0.891006524188
0.162459848116 0.26286555606 0.951056516295
0.375038567478 0.383613732685 0.843911474622
0.301258879093 0.264082750659 0.916244175191
0.433888564553 0.259891913008 0.862668480416
0.358228793487 0.131655371352 0.924304600611
0.484441642061 0.131200378813 0.864929335863
0.403355348617 0.0 0.915043421233
0.273266528913 0.0 0.961938357784
0.525731112119 0.0 0.850650808352
-0.525731112119 0.0 0.850650808352
-0.484441642061 -0.131200378813 0.864929335863
-0.403355348617 0.0 0.915043421233
-0.358228793487 -0.131655371352 0.924304600611
-0.433888564553 -0.259891913008 0.862668480416
-0.273266528913 0.0 0.961938357784
-0.375038567478 -0.383613732685 0.843911474622
-0.301258879093 -0.264082750659 0.916244175191
-0.238676930319 -0.386187385588 0.891006524188
-0.309016994375 -0.5 0.809016994375
-0.162459848116 -0.26286555606 0.951056516295
-0.16062203564 -0.702046444776 0.69378047756
0.484441642061 -0.131200378813 0.864929335863
0.615642020874 -0.0810862934433 0.78384304242
0.571251659136 -0.213022865649 0.792649229259
0.69378047756 -0.16062203564 0.702046444776
0.516121620051 -0.346153014789 0.783451698363
0.647411893882 -0.296004592578 0.702309846744
0.587785252292 -0.425325404176 0.688190960236
0.758652300163 -0.237086325351 0.606825149272
0.707106781186 -0.37174803446 0.601500955008
0.809016994375 -0.309016994375 0.5
0.37174803446 -0.601500955008 0.707106781186
0.453990499739 -0.468429850867 0.757935420048
0.51337544123 -0.564254211766 0.646577791798
0.425325404176 -0.688190960236 0.587785252292
0.564254211766 -0.646577791798 0.51337544123
0.646577791798 -0.51337544123 0.564254211766
0.688190960236 -0.587785252292 0.425325404176
0.5 -0.809016994375 0.309016994375
0.468429850867 -0.757935420048 0.453990499739
0.259891913008 -0.862668480416 0.433888564553
0.218508012224 -0.790569415042 0.572061402817
0.16062203564 -0.702046444776 0.69378047756
0.891006524188 0.238676930319 0.386187385588
[...]
CELL_DATA 1274
SCALARS cell_data_0 double
LOOKUP_TABLE default
8.91185803986e-07
5.35029106542e-06
1.08890797985e-06
3.08781830411e-06
3.93477925068e-06
5.69256376003e-06
3.24113682798e-06
2.16330707319e-05
7.51920326668e-05
5.38358413853e-05
8.23752000451e-05
0.000122590863
0.000157812317297
0.000115644326634
2.27468532826e-05
1.23211410676e-05
1.85671566892e-05
1.04579965775e-05
1.00384602235e-05
4.20286456144e-06
3.01625935039e-06
6.57371654977e-06
1.72718991551e-06
1.05867071601e-05
7.8245790497e-05
1.4187691888e-05
3.07370660916e-05
2.11561790786e-06
2.55369320425e-05
3.99526781568e-05
1.70454938309e-05
2.18179913809e-05
1.10195875036e-05
1.75495853294e-05
1.02690497845e-05
1.87342272584e-05
1.52488623055e-05
3.62294262991e-06
3.40144954778e-06
3.66992146133e-06
1.91386266025e-06
2.53755543383e-06
1.98367356328e-06
7.13516195713e-06
1.001869952e-06
2.36195816722e-07
7.29001190375e-05
4.9251270039e-05
6.81886882934e-07
7.87365722165e-07
4.67232373834e-07
2.1310018821e-07
2.22599199301e-07
1.14040255827e-07
3.99906028032e-07
1.90196846635e-07
3.91062613582e-08
4.22575650357e-08
3.68954690915e-07
3.5907956432e-08
4.31411446178e-07
4.0110880486e-07
2.64570031416e-07
3.53367315147e-07
3.40681680265e-07
1.56420760355e-07
5.47764381003e-07
2.04894483929e-07
9.89381229966e-07
8.81347192368e-07
1.70713915307e-06
4.92744277759e-07
1.77851600709e-06
3.07510670454e-06
1.06004608407e-07
2.07928129232e-05
2.29130849158e-05
1.70035843265e-05
1.90400763202e-05
1.31201001091e-05
5.76662220235e-06
1.44628932555e-05
5.76885094688e-06
4.54654674821e-07
2.21582168747e-06
9.65379515915e-06
1.67024190701e-05
8.69012345173e-06
3.80536020093e-06
4.09797174738e-06
4.73504788413e-06
2.23744385166e-06
1.13507482046e-05
4.22926224278e-06
5.96444048151e-06
9.19242369295e-06
1.5477678842e-05
1.459076372e-05
1.39408561587e-05
6.24775577304e-06
1.04474758351e-05
9.36967244799e-06
1.12118227118e-05
2.12464285514e-05
1.85502530931e-05
1.20891320923e-05
9.55762646135e-06
7.0641831789e-06
6.36239835943e-06
9.80341457999e-06
1.0471125254e-05
4.70090984426e-06
6.55645834202e-06
1.8277715384e-05
1.76474671754e-05
1.51764674593e-05
1.57312500695e-05
1.25501333647e-05
1.35064721211e-05
1.02362197315e-05
9.67522336881e-06
8.05069930509e-06
5.56683714096e-06
1.67281205507e-06
1.78341459748e-06
1.31282241497e-05
6.15690723554e-06
7.30360682208e-06
6.77883249035e-06
1.38583520963e-05
1.20315522104e-05
2.49950381603e-06
5.00222698263e-06
1.18844445797e-05
1.9887480152e-05
6.16487783536e-05
2.46176916194e-06
3.1008170526e-06
2.57902031673e-06
1.58933254754e-05
1.58923847402e-05
1.95477056456e-06
8.29527366863e-07
3.42092380978e-07
1.31522560436e-06
4.14489621094e-06
4.74237457721e-06
3.30725547051e-06
1.00473856243e-05
1.28975604243e-05
1.87386375014e-05
1.8047931666e-05
2.026603249e-05
2.16123385478e-06
6.4002613908e-06
4.12093715023e-06
3.93398356064e-05
6.77744329578e-05
5.02662291876e-05
4.37452092235e-05
4.39845873208e-05
0.000102357206223
7.58628525468e-05
8.6613893374e-05
9.80554567553e-05
0.000105602705252
7.06122199382e-05
4.59277770234e-05
8.95716776242e-06
2.17065745899e-05
6.73152955772e-06
6.21128734288e-06
1.92763019242e-05
1.43220136087e-05
2.85677145325e-05
4.4298857309e-05
2.47539505035e-05
2.33847167275e-05
1.65955914367e-05
4.77333703588e-05
3.02533051559e-05
3.5314179855e-05
1.94173123459e-06
1.71915471082e-06
2.62613868064e-06
3.11352374474e-06
1.57467010935e-06
2.48786888707e-06
2.63424352065e-06
3.53688080344e-06
2.59531287352e-06
2.29996536987e-06
2.77687829486e-06
2.89850678019e-06
2.03415628124e-06
1.4171996602e-07
4.45978073884e-06
2.15099302169e-06
5.60326534273e-07
2.90766297346e-06
4.22443964449e-06
6.838638931e-06
4.20536094798e-06
5.82796338456e-06
6.86195942084e-06
5.90676451182e-06
9.63495244837e-06
1.11148758433e-05
1.30267441517e-05
1.03661539402e-05
1.0468219693e-05
1.12513922327e-05
1.33358530868e-05
9.2417099386e-06
7.64386321459e-06
9.29199098462e-06
1.1062646906e-05
8.79508756809e-06
9.0418383093e-06
9.84859479198e-06
1.16638156328e-05
8.99830989443e-06
8.97327423696e-06
1.04902925902e-05
9.66108668233e-06
1.24878975744e-05
8.75671758395e-06
8.60049294919e-06
6.64219116061e-06
1.15613880279e-05
1.58507605963e-05
1.05335732883e-05
6.0947530454e-06
2.80701360892e-06
2.98770177769e-06
1.1345850209e-05
1.01258870875e-05
5.64989177091e-06
1.76513391537e-05
1.67510403474e-05
2.22768148129e-05
7.73062056706e-06
1.38561633503e-05
5.55780253796e-06
5.31758836336e-06
3.63416981603e-06
1.5372985157e-05
3.24976705138e-06
1.28709034766e-05
2.5952160199e-06
1.07639531146e-05
6.94313791531e-06
7.96752203365e-07
3.03910249675e-06
2.14997951458e-05
3.68690901933e-06
5.40959502608e-06
4.85734799661e-06
2.48637747497e-05
8.3031369219e-06
4.57434601551e-06
1.73931676846e-06
1.49664669129e-06
3.79260267051e-06
3.75016906989e-06
3.69821951084e-07
2.07057328196e-06
1.30255685573e-05
1.39889664471e-06
3.67318645704e-06
1.8188967677e-06
5.75645178341e-06
1.9972668565e-06
2.41683056543e-06
1.45335134555e-06
7.87000792867e-07
8.41016396517e-06
2.66129138481e-06
1.35158248404e-06
4.76618537082e-06
1.69074532819e-05
2.34151750139e-05
6.16037236684e-06
1.15437406193e-06
1.05079011327e-06
1.06794699165e-05
2.55687544789e-05
2.30356852601e-06
6.22645618515e-06
7.05398407047e-06
4.33743928151e-06
6.08358726062e-06
3.35367245036e-06
3.94083548345e-06
4.25382750756e-06
3.41880002342e-06
7.67096463967e-08
8.97943912755e-07
1.16285216296e-05
1.52196610889e-06
7.96502762821e-06
2.28946801648e-06
6.56640057434e-06
9.64287981752e-07
6.66857649994e-06
5.25088654945e-06
4.20631737803e-06
7.37030840079e-06
9.6545946358e-07
6.08148295749e-06
7.69960465722e-06
7.32872510941e-06
7.20162962597e-06
9.53646219914e-06
1.31638618268e-05
2.21222956742e-06
1.36237122245e-05
1.15273581489e-05
9.68237040087e-06
1.01536138427e-05
1.269517405e-05
1.02358689138e-05
9.06526758826e-06
8.15919368886e-06
1.165593397e-05
9.50184482697e-06
8.00013302119e-06
7.87316050099e-06
3.40586768246e-05
3.91781724281e-05
1.94053499162e-05
3.16813999274e-05
7.84659955195e-06
4.23742589579e-08
5.81902449112e-06
2.44480190966e-07
2.10099065942e-05
2.9580305251e-05
9.86999316149e-07
5.42474479481e-06
6.56035500617e-06
2.00312371602e-06
3.66260692345e-07
7.5952523154e-07
5.79274852286e-06
1.20705771733e-05
6.9171234095e-06
2.07956228918e-06
1.31235225523e-05
1.3866762111e-05
5.58055819429e-06
1.25912900122e-06
2.4207590712e-06
1.27480685892e-05
1.5235503481e-05
3.99201768606e-06
1.36979110829e-05
3.0127664739e-06
3.48465644161e-06
6.42855376963e-06
1.64178830105e-05
1.16011238574e-05
2.01704765598e-05
7.27821206972e-06
1.19415644383e-05
1.04114579264e-05
1.6564203212e-05
4.35495145268e-06
3.27647638602e-06
1.05947540582e-05
1.88689150419e-05
2.09389241165e-05
5.06500487164e-05
3.37210092084e-05
4.36835077347e-05
4.69350135913e-05
5.67310045097e-06
5.21460087574e-06
6.48361595672e-06
7.90331645466e-06
1.48338345885e-05
1.92330605545e-05
9.74180167433e-07
5.84220917738e-06
6.93953946431e-06
3.08020515891e-06
1.93471944658e-07
6.9322256263e-06
7.50912890184e-06
7.53765433715e-06
2.10390182798e-06
6.55089046613e-06
7.29839862953e-06
6.71707137674e-06
6.317296132e-05
6.0339280197e-05
6.53714575899e-06
4.03579774943e-06
5.10030127003e-06
5.55487575152e-06
8.80199727797e-06
6.98223930814e-06
2.46308135357e-05
1.12333466305e-05
4.94566097521e-06
6.42283906417e-07
2.26147419257e-05
2.81252929224e-06
5.17975447053e-08
6.49288321457e-07
1.04968752737e-05
9.98825202927e-06
1.13600430196e-05
1.88471765574e-07
8.08688964362e-06
1.09435296805e-05
1.15551615792e-05
9.58494925399e-08
4.38247017664e-07
7.7888640707e-06
1.07287428356e-05
4.78406827133e-08
7.66147195892e-06
5.57407965099e-07
2.01978154097e-05
6.33030153097e-06
1.7970185463e-05
1.38484985181e-05
1.08984802491e-07
4.5353205041e-06
5.56461940066e-06
5.09014359647e-07
8.02179429936e-06
1.82709679664e-05
4.31399505883e-06
1.6531317255e-06
1.94443436807e-06
3.69572157456e-06
4.58856521285e-06
1.0980435875e-05
6.35631950823e-06
1.03450248252e-05
4.68441083025e-06
1.56891871198e-05
9.15240601073e-06
1.0255796394e-05
1.38241741568e-05
1.91807244114e-06
3.53629932538e-05
3.74881735667e-05
6.40289004615e-06
4.16533032509e-05
7.78514251336e-09
1.60766879068e-05
2.4096175035e-05
3.06935302468e-05
2.3487763632e-06
2.04479163871e-06
6.51276629724e-07
2.57823254068e-06
6.78232605751e-07
3.78524809747e-07
2.33976286786e-07
3.13685907579e-08
2.12583125083e-06
2.52637743228e-06
2.87692037548e-07
7.57923605295e-08
9.42320440435e-08
2.23361091793e-06
1.23297226677e-05
6.95433154241e-06
7.40006229586e-07
1.22513497239e-05
1.16866259257e-05
1.24542017002e-05
5.03706851629e-06
5.62568373525e-06
7.64028254247e-06
1.68187877649e-06
1.25554135592e-06
1.24006824762e-06
2.46263990753e-06
2.14068905094e-06
3.67309165395e-06
1.42310191709e-06
3.51251752688e-06
4.74607267625e-06
5.27707833015e-06
4.8106425551e-06
5.9905068158e-07
8.54869773128e-07
2.71946677674e-06
4.90991894179e-07
3.66591098874e-06
6.47953507914e-07
4.7379407843e-06
1.77575071231e-06
1.14006744895e-05
2.1314997118e-05
2.21253796013e-06
3.46160480085e-05
1.79717563163e-06
1.53399251048e-06
1.7550506206e-06
3.91564935607e-06
2.74940358337e-06
3.97265319359e-06
2.0640529842e-06
4.52537304027e-06
4.15575980407e-07
3.25732972635e-06
2.77239490112e-06
8.01721174948e-06
4.99110702708e-06
1.09803806822e-05
6.0916691028e-06
1.83450901369e-05
1.45348588314e-05
2.01445032464e-05
1.52323292999e-06
1.13947295337e-06
1.8631303747e-06
4.63492702901e-07
2.48530659132e-06
2.19583694436e-06
1.34554495201e-05
1.5525446573e-05
6.83754162362e-06
1.66950615831e-05
5.0400397854e-06
1.89580115374e-05
1.15960001527e-05
2.28718167105e-05
1.62050317194e-05
5.24676830131e-06
4.09487318655e-06
1.36684697504e-05
2.64239582203e-06
3.14276153896e-06
8.26649216327e-06
2.45590017923e-06
2.81467953428e-06
3.07012737903e-06
2.32716629488e-06
8.32122469569e-06
2.57754443107e-06
5.92629457596e-07
3.24452993895e-06
4.89710868379e-06
2.40080690032e-06
4.1605290318e-07
5.02720880674e-07
2.99832308025e-06
4.87700724878e-06
5.64539031887e-07
2.96318227209e-06
3.32823784119e-06
1.57784709341e-05
9.18947164815e-06
4.35041559838e-06
6.67979376649e-06
3.64943327754e-06
1.07738400327e-06
3.70641064662e-07
2.34688756449e-06
7.56158428271e-06
6.94537261692e-06
2.3460786993e-06
7.84580575487e-06
1.31024599437e-06
5.8347353471e-06
4.67154440563e-06
7.23324673986e-06
4.74521087215e-06
5.21975456081e-06
7.55131580305e-06
6.55644476944e-06
4.98700371022e-06
6.60937707999e-06
1.10181234156e-05
8.68074495239e-06
6.00074953063e-06
3.56919032054e-05
2.91567057591e-05
4.88047805782e-08
1.46163959833e-05
5.78538885443e-06
5.00037322079e-06
3.10933188209e-06
3.26278245779e-06
9.65866892267e-06
9.91227005004e-06
9.95163256694e-06
2.35228396318e-07
2.14083849342e-07
2.56836531439e-06
3.29133757269e-06
3.27062746926e-06
4.23610346849e-06
1.21274479997e-07
3.03772981284e-07
4.07272866143e-06
2.57932391793e-07
4.23408789219e-07
3.52891773758e-07
8.3812591329e-07
5.35889833136e-07
1.62045027116e-06
1.13795114049e-06
1.47490334282e-06
1.76412037174e-06
1.91698718815e-06
1.97006789633e-06
1.06533435017e-06
1.36447354907e-06
2.36303180589e-06
1.25766423208e-06
3.3410881131e-07
3.23874144184e-07
8.48199399151e-07
2.54476632893e-06
2.29768213364e-06
1.20812433526e-06
2.0610418435e-06
3.80370588596e-06
1.29645591702e-06
2.53603981964e-06
4.79680025815e-07
2.13072604879e-07
1.01943187276e-06
9.03163016841e-07
1.2009069827e-06
3.29698866066e-06
1.82286134133e-06
1.73090584291e-06
9.43784634893e-07
1.2291316495e-06
3.1962803942e-07
2.80993151924e-07
7.16854452591e-07
1.12379443449e-06
2.21885999416e-06
1.79790928317e-06
2.01664205743e-06
2.04951559867e-06
9.56113013801e-08
5.70351381861e-07
9.80003939525e-08
3.13595518901e-07
2.8592194501e-06
2.86431148565e-06
2.14240913054e-06
1.4421665287e-06
1.72052345408e-06
2.33038372064e-06
1.74280655377e-06
2.51145571034e-06
1.69417440683e-06
1.13809489329e-06
1.85411826887e-06
2.8217115585e-06
2.24454179466e-06
2.1045973364e-06
1.85354584607e-06
1.41618571538e-06
8.50843908339e-07
1.18476858269e-06
1.57277306811e-06
1.42641209871e-06
8.09000989806e-07
1.07911495478e-06
1.00288431363e-06
1.96939458512e-06
1.52661271649e-06
1.38892698157e-06
7.91291986626e-07
2.68335986356e-06
1.67788773255e-06
3.4172319176e-06
2.76974235844e-06
4.51630444577e-06
2.8635648064e-06
3.96171511396e-06
9.55008697194e-07
1.86255945382e-06
1.02945229583e-06
2.43507546079e-06
2.27694999311e-06
5.16320870668e-06
5.29153047135e-06
3.19187945008e-06
1.46680940798e-06
4.35860358493e-06
3.57326474294e-06
2.26814993492e-06
5.83611721985e-06
9.3148970985e-06
6.15642309729e-06
4.03828829437e-06
3.57409989607e-06
7.81682483635e-06
3.32351172516e-06
7.38501017703e-06
1.97729897498e-06
5.27570243249e-06
5.16738524436e-06
2.59433956573e-06
4.30869229165e-08
3.18355131143e-07
2.39267217819e-06
5.28044380193e-06
3.16342532433e-06
1.97519399333e-06
1.24776657693e-06
3.50001696048e-06
6.66334569486e-07
2.91914786665e-06
1.51121214234e-06
9.39180195544e-07
3.06190588485e-06
8.60081279307e-06
6.64134685777e-06
4.23902308289e-06
6.2222534893e-06
7.69660197483e-06
3.43390082973e-06
3.98128480232e-06
5.52717905167e-06
8.43801391503e-06
3.75942962746e-06
4.56219988326e-06
1.52128267002e-06
1.13189390517e-06
1.7137902971e-06
6.2862576492e-06
2.48143652309e-06
6.31871137004e-06
6.17943974965e-06
1.16379601372e-05
8.69881147901e-06
6.69326295564e-06
9.31544951766e-06
5.1702267393e-06
6.07260861587e-06
1.08519493452e-05
8.62018785633e-06
4.94082171738e-06
2.18042587705e-06
2.91499893309e-06
1.54824690619e-06
3.02280096821e-06
3.18920878217e-06
8.4199667317e-07
3.5198411013e-06
6.40740584037e-06
3.08542899272e-06
4.02316785212e-06
1.42672500321e-06
3.13722260917e-07
8.07233144467e-06
2.90528604235e-06
1.12930165747e-06
5.1862701155e-06
4.50297467736e-07
2.15690643761e-06
7.82912288825e-06
5.1000161854e-06
7.56047130355e-06
8.72027024615e-06
8.04155801239e-06
6.47091455094e-06
1.09767696599e-05
7.36924790146e-06
4.29339197789e-06
8.09728149209e-06
3.00786768242e-06
6.44001051392e-06
6.33493243535e-07
2.34821225692e-07
4.36995084287e-07
6.0598368947e-06
1.03896337292e-06
2.64359591183e-06
9.1657312869e-06
4.47791485303e-06
8.76934302208e-06
1.20246393275e-05
7.26274561332e-06
6.26599891362e-06
4.97951101221e-06
6.77571853848e-06
6.9625874845e-06
4.99035075533e-06
2.67096923968e-06
4.99461485514e-06
2.97144915717e-06
5.37253441213e-06
7.3192048015e-06
5.12010532486e-06
6.0297311591e-06
7.66441288029e-06
9.34660563795e-06
9.20850659916e-06
7.203877703e-06
4.78079303989e-06
6.8866403865e-06
6.55516347047e-06
7.28372252951e-06
5.43357508507e-06
5.63929282763e-06
6.87082512002e-06
7.4809442954e-06
7.18981221461e-06
8.17693927915e-06
7.85250997066e-06
8.27280113303e-06
8.91224618945e-06
3.84746909462e-06
3.66011060359e-06
3.47688962097e-06
4.18709714936e-06
9.21029155664e-06
9.56497952564e-06
7.70921041608e-06
9.50158485104e-06
4.336519775e-06
6.10965529785e-06
5.46594025963e-06
7.14163205937e-06
7.29537053078e-06
5.39472827742e-06
3.47867951818e-06
3.92735128097e-06
4.49037256027e-06
4.04302669216e-06
4.20089877147e-06
4.28649007897e-06
4.63376584164e-06
4.98111490711e-06
4.87009536553e-06
4.49425190773e-06
5.3081716548e-06
5.31147425594e-06
9.94596145613e-06
9.32519854371e-06
5.50254595522e-06
4.83967275262e-06
5.44131782673e-06
5.06219495096e-06
6.43651411675e-06
8.91034633573e-06
4.10451287063e-06
3.85817746288e-06
4.5094148221e-06
4.69943906678e-06
4.39141127292e-06
3.70409439121e-06
4.16408828683e-06
4.62254293654e-06
7.82970611731e-06
8.33469931713e-06
8.67989960739e-06
8.11146884119e-06
1.02126816947e-06
3.48837357186e-06
6.38638078667e-06
7.83376242512e-06
6.07373994836e-06
5.422641683e-06
5.82554969921e-06
4.61277164888e-06
5.17940242764e-06
4.75401134727e-06
1.71061796608e-06
4.32947047693e-06
1.21646439637e-05
1.03987261899e-05
5.17351651513e-06
4.22598907334e-06
2.83428601529e-08
4.63626768904e-07
2.38122525163e-06
7.27487307461e-06
6.75044984711e-06
7.70950549729e-07
2.22909181742e-06
5.39046078727e-06
5.3461250587e-06
1.09376957362e-06
2.59411847494e-06
3.3477277631e-06
4.19199892817e-06
8.18470574571e-07
2.42316756224e-06
5.53951847532e-07
5.74193287848e-08
2.89928686027e-07
1.36733672824e-06
1.63278409208e-06
1.53091082622e-06
1.55135639076e-07
1.12348293968e-06
1.75598509027e-06
1.43839055836e-06
2.12731611291e-07
2.38678608463e-06
1.09635026724e-06
1.7801506075e-06
9.78421311704e-08
1.14142731304e-06
3.39723924068e-06
2.55530069784e-06
1.69932083158e-07
2.6937395056e-06
1.14347127124e-06
2.80385444101e-06
1.15110036726e-07
1.09006288678e-06
1.17931714014e-06
2.81724014547e-06
6.84421681215e-08
3.63086429224e-06
1.12210272628e-06
1.19864352229e-06
9.55930508905e-08
1.08270112346e-06
3.54464652416e-06
2.43875783038e-06
1.96800956863e-07
1.03661650803e-06
2.53047463486e-06
1.05069642925e-06
9.09450411199e-07
3.64255707375e-06
4.66971887815e-06
1.12207141242e-06
1.31556919843e-06
1.61401801678e-06
4.12950885101e-06
4.75660411925e-06
3.68538323857e-06
7.44547109706e-06
6.9978981039e-06
6.44519881882e-06
4.60397752319e-06
3.85668303767e-06
8.00489546378e-06
7.80344250857e-06
1.01245527461e-05
8.25392963668e-06
9.37371388636e-06
3.80019789815e-06
4.5246264859e-06
6.544248895e-06
6.94349259542e-06
9.02870245245e-06
1.05581186175e-05
8.91055290138e-06
6.19067775502e-06
1.56997316941e-06
1.78559569961e-06
7.66966836648e-06
2.29583349945e-06
7.24068657024e-06
7.99029356411e-06
9.6388192222e-07
1.94481393652e-06
7.20828029458e-06
7.81851762506e-06
5.83371085511e-06
8.33095731181e-07
2.74283344005e-06
1.19289839883e-06
9.49821435404e-07
3.82395234805e-06
1.48127553725e-06
5.5560481406e-07
3.67140182651e-06
2.78646463268e-06
5.58973090035e-06
7.67076894218e-06
8.75938374787e-06
7.53737987128e-06
3.34054495149e-06
5.87397108229e-06
3.85643520171e-06
8.12561355503e-06
8.31965305569e-06
7.18946225711e-06
8.36079231504e-06
7.75443542144e-06
4.54449635261e-06
1.7394285344e-07
1.29771325114e-07
1.14204904118e-06
9.61636396175e-06
8.64258043787e-06
9.94959022474e-06
1.065926589e-05
3.73636248163e-06
5.68692192585e-06
6.96178475921e-06
7.26950192572e-06
6.4177818599e-06
5.46507134817e-06
5.65535348703e-06
4.61500911515e-06
5.1365863699e-06
4.67200921153e-06
3.46677760748e-06
4.28536014585e-06
2.34975954732e-06
2.05785166748e-06
7.2111482061e-07
4.53796091637e-06
7.27207381344e-07
1.15483648824e-07
3.38904966993e-07
1.78105232108e-06
5.73795204273e-07
1.28079855915e-06
4.14298209397e-06
1.68164395123e-06
2.91471681628e-07
6.46114710365e-06
7.33742286435e-06
5.69171210763e-07
3.77581355864e-06
7.00652109681e-06
4.14734565772e-08
3.60716343445e-06
1.56951381971e-06
2.88437488531e-07
1.49706840425e-07
8.36738552643e-08
9.01941907684e-06
9.03992333426e-06
9.40288855243e-08
8.23614499991e-07
3.65921557772e-07
2.21604079883e-06
2.37622721859e-05
1.35269012596e-05
9.1345521369e-06
2.73078566999e-06
3.7087380298e-06
4.93958090204e-07
2.67053937738e-08
6.66512502471e-07
5.83845335913e-07
7.06753941574e-07
1.18960350643e-06
2.58053649569e-06
1.72855668949e-06
9.48825475203e-06
1.75971889613e-05
4.12636678862e-06
5.27379231222e-06
1.20272729421e-05
1.58840414853e-06
1.29877810907e-05
5.84844497904e-06
4.71158415144e-06
4.08262180855e-06
8.14199636795e-06
8.68893654369e-06
3.30484476473e-06
6.09254789502e-06
9.03697205261e-06
1.17591003634e-06
8.857078543e-07
2.94903243614e-07
8.21595482511e-07
2.21941995487e-06
2.07294968373e-06
2.77428239841e-08
4.9768394358e-06
1.18482712591e-05
1.24670766269e-06
2.31999145189e-06
1.44749425406e-05
6.36029520103e-06
2.28646980748e-07
7.02127381574e-07
2.91558326605e-08
2.27497656907e-06
1.65815286648e-06
3.20948872842e-08
1.56978937962e-06
5.95966316064e-07
1.92953096504e-07
2.75752193939e-06
4.35122739533e-06
4.30588449873e-06
6.72549570135e-06
7.30926353647e-06
6.10532194868e-06
5.0894903486e-06
5.31639086478e-06
7.41937029258e-06
6.8423821643e-06
5.19584912177e-06
7.51110458927e-06
6.64371061701e-06
4.72391959247e-06
4.39330555074e-06
3.18884120307e-06
3.4404872692e-06
5.30300373551e-06
8.08718787703e-06
3.01286024651e-06
1.92356667966e-06
2.07367362761e-06
7.18775836144e-06