# vtk DataFile Version 3.0
File Name: Molecule/sphere_dip/sphere_dip_0-s5.vtk
ASCII
DATASET UNSTRUCTURED_GRID
FIELD FieldData 1
TIME 1 1 double
0.0
POINTS 110 double
0.809016994375 -0.309016994375 0.5
0.809016994375 0.309016994375 0.5
0.525731112119 0.0 0.850650808352
0.5 0.809016994375 0.309016994375
0.0 0.850650808352 0.525731112119
0.309016994375 0.5 0.809016994375
-0.525731112119 0.0 -0.850650808352
-0.809016994375 -0.309016994375 -0.5
-0.809016994375 0.309016994375 -0.5
-1.0 0.0 0.0
-0.850650808352 -0.525731112119 0.0
-0.850650808352 0.525731112119 0.0
-0.5 -0.809016994375 -0.309016994375
-0.5 -0.809016994375 0.309016994375
0.0 -1.0 0.0
0.0 -0.850650808352 -0.525731112119
0.0 -0.850650808352 0.525731112119
-0.809016994375 -0.309016994375 0.5
-0.309016994375 -0.5 0.809016994375
-0.309016994375 -0.5 -0.809016994375
0.5 -0.809016994375 -0.309016994375
0.5 -0.809016994375 0.309016994375
0.0 0.925325404176 0.26286555606
-0.25 0.829833901363 0.417374053247
-0.25 0.904508497187 0.154508497188
0.0 1.0 0.0
-0.5 0.809016994375 0.309016994375
-0.25 0.904508497187 -0.154508497188
-0.5 0.809016994375 0.0
-0.5 0.809016994375 -0.309016994375
0.0 0.850650808352 -0.525731112119
-0.675325404176 0.667374053247 0.154508497188
-0.675325404176 0.667374053247 -0.154508497188
-0.154508497188 0.675325404176 0.667374053247
-0.404508497188 0.654508497187 0.559016994375
-0.309016994375 0.5 0.809016994375
-0.654508497187 0.559016994375 0.404508497188
-0.559016994375 0.404508497188 0.654508497187
-0.809016994375 0.309016994375 0.5
-0.829833901363 0.417374053247 0.25
-0.525731112119 0.0 0.850650808352
0.309016994375 -0.5 0.809016994375
0.559016994375 -0.404508497188 0.654508497187
0.404508497188 -0.654508497187 0.559016994375
0.654508497187 -0.559016994375 0.404508497188
0.829833901363 -0.417374053247 0.25
0.675325404176 -0.667374053247 0.154508497188
0.850650808352 -0.525731112119 0.0
1.0 0.0 0.0
0.829833901363 -0.417374053247 -0.25
0.925325404176 -0.26286555606 0.0
0.904508497187 -0.154508497188 -0.25
0.809016994375 -0.309016994375 -0.5
0.809016994375 0.0 -0.5
0.904508497187 0.154508497188 -0.25
0.667374053247 -0.154508497188 -0.675325404176
0.667374053247 0.154508497188 -0.675325404176
0.525731112119 0.0 -0.850650808352
0.809016994375 0.309016994375 -0.5
0.309016994375 0.5 -0.809016994375
0.417374053247 -0.25 -0.829833901363
0.0 0.0 -1.0
-0.309016994375 0.5 -0.809016994375
-0.404508497188 0.654508497187 -0.559016994375
-0.559016994375 0.404508497188 -0.654508497187
-0.654508497187 0.559016994375 -0.404508497188
0.559016994375 -0.404508497188 -0.654508497187
0.309016994375 -0.5 -0.809016994375
0.654508497187 -0.559016994375 -0.404508497188
0.404508497188 -0.654508497187 -0.559016994375
0.675325404176 -0.667374053247 -0.154508497188
0.675325404176 0.667374053247 -0.154508497188
0.5 0.809016994375 0.0
0.675325404176 0.667374053247 0.154508497188
0.5 0.809016994375 -0.309016994375
0.25 0.904508497187 -0.154508497188
0.25 0.904508497187 0.154508497188
0.904508497187 0.154508497188 0.25
0.925325404176 0.26286555606 0.0
0.829833901363 0.417374053247 0.25
0.850650808352 0.525731112119 0.0
0.654508497187 0.559016994375 0.404508497188
0.559016994375 0.404508497188 -0.654508497187
0.654508497187 0.559016994375 -0.404508497188
0.404508497188 0.654508497187 -0.559016994375
-0.154508497188 0.25 0.904508497187
0.0 0.5 0.809016994375
0.154508497188 0.25 0.904508497187
0.0 0.0 1.0
-0.154508497188 -0.25 0.904508497187
0.0 -0.5 0.809016994375
0.154508497188 -0.25 0.904508497187
0.0 -0.5 -0.809016994375
0.154508497188 -0.25 -0.904508497187
-0.154508497188 -0.25 -0.904508497187
-0.26286555606 0.0 -0.925325404176
-0.417374053247 -0.25 -0.829833901363
-0.667374053247 -0.154508497188 0.675325404176
-0.667374053247 0.154508497188 0.675325404176
-0.809016994375 0.0 0.5
0.154508497188 0.25 -0.904508497187
-0.154508497188 0.25 -0.904508497187
0.0 0.5 -0.809016994375
-0.417374053247 0.25 -0.829833901363
0.856762745781 0.231762745782 -0.375
0.87757965277 0.340119804654 -0.125
0.829833901363 0.417374053247 -0.25
0.587662702088 0.738195523811 -0.231762745782
0.742171199276 0.488195523811 -0.327254248594
0.762988106264 0.596552582683 -0.077254248594

CELLS 216 864
3 0 1 2
3 3 4 5
3 1 5 2
3 6 7 8
3 7 9 8
3 7 10 9
3 8 9 11
3 10 12 13
3 12 14 13
3 12 15 14
3 13 14 16
3 10 13 17
3 13 18 17
3 13 16 18
3 17 9 10
3 19 12 7
3 19 15 12
3 7 12 10
3 15 20 14
3 20 21 14
3 14 21 16
3 3 22 4
3 4 22 23
3 22 24 23
3 22 25 24
3 23 24 26
3 25 27 24
3 27 28 24
3 27 29 28
3 24 28 26
3 29 27 30
3 30 27 25
3 26 28 31
3 28 32 31
3 28 29 32
3 31 32 11
3 4 23 33
3 23 34 33
3 23 26 34
3 33 34 35
3 26 36 34
3 36 37 34
3 36 38 37
3 34 37 35
3 26 31 36
3 31 39 36
3 31 11 39
3 36 39 38
3 35 37 40
3 4 33 5
3 41 42 2
3 2 42 0
3 41 43 42
3 43 44 42
3 43 21 44
3 42 44 0
3 21 43 16
3 16 43 41
3 0 44 45
3 44 46 45
3 44 21 46
3 45 46 47
3 0 45 48
3 11 32 8
3 38 39 9
3 39 11 9
3 20 46 21
3 47 49 50
3 49 51 50
3 49 52 51
3 50 51 48
3 52 53 51
3 53 54 51
3 51 54 48
3 52 55 53
3 55 56 53
3 55 57 56
3 53 56 58
3 56 57 59
3 57 60 61
3 62 63 30
3 30 63 29
3 62 64 63
3 64 65 63
3 64 8 65
3 63 65 29
3 8 64 6
3 57 55 60
3 55 66 60
3 55 52 66
3 60 66 67
3 52 68 66
3 68 69 66
3 68 20 69
3 66 69 67
3 52 49 68
3 49 70 68
3 49 47 70
3 68 70 20
3 67 69 15
3 69 20 15
3 47 50 45
3 45 50 48
3 29 65 32
3 32 65 8
3 20 70 46
3 46 70 47
3 71 72 73
3 73 72 3
3 74 75 72
3 75 76 72
3 75 25 76
3 72 76 3
3 25 75 30
3 30 75 74
3 48 77 0
3 77 1 0
3 48 78 77
3 78 79 77
3 78 80 79
3 77 79 1
3 80 73 79
3 73 81 79
3 73 3 81
3 79 81 1
3 1 81 5
3 5 81 3
3 3 76 22
3 22 76 25
3 54 78 48
3 58 82 83
3 82 84 83
3 82 59 84
3 83 84 74
3 74 84 30
3 84 59 30
3 35 85 86
3 85 87 86
3 85 88 87
3 86 87 5
3 88 85 40
3 40 85 35
3 5 87 2
3 87 88 2
3 18 89 40
3 40 89 88
3 18 90 89
3 90 91 89
3 90 41 91
3 89 91 88
3 41 90 16
3 16 90 18
3 88 91 2
3 91 41 2
3 67 92 93
3 92 94 93
3 92 19 94
3 93 94 61
3 19 92 15
3 15 92 67
3 61 94 95
3 94 96 95
3 94 19 96
3 95 96 6
3 40 97 18
3 18 97 17
3 40 98 97
3 98 99 97
3 98 38 99
3 97 99 17
3 17 99 9
3 9 99 38
3 6 96 7
3 96 19 7
3 61 100 57
3 57 100 59
3 61 101 100
3 101 102 100
3 101 62 102
3 100 102 59
3 61 95 101
3 95 103 101
3 95 6 103
3 101 103 62
3 59 102 30
3 102 62 30
3 38 98 37
3 37 98 40
3 35 86 33
3 33 86 5
3 58 104 53
3 53 104 54
3 54 104 105
3 104 106 105
3 104 58 106
3 105 106 80
3 59 82 56
3 56 82 58
3 67 93 60
3 60 93 61
3 62 103 64
3 64 103 6
3 74 107 83
3 107 108 83
3 107 71 108
3 83 108 58
3 58 108 106
3 108 109 106
3 108 71 109
3 106 109 80
3 80 109 73
3 109 71 73
3 71 107 72
3 107 74 72
3 54 105 78
3 78 105 80

CELL_TYPES 216
5
5
5
5
5
5
5
5
5
5
5
5
5
5
5
5
5
5
5
5
5
5
5
5
5
5
5
5
5
5
5
5
5
5
5
5
5
5
5
5
5
5
5
5
5
5
5
5
5
5
5
5
5
5
5
5
5
5
5
5
5
5
5
5
5
5
5
5
5
5
5
5
5
5
5
5
5
5
5
5
5
5
5
5
5
5
5
5
5
5
5
5
5
5
5
5
5
5
5
5
5
5
5
5
5
5
5
5
5
5
5
5
5
5
5
5
5
5
5
5
5
5
5
5
5
5
5
5
5
5
5
5
5
5
5
5
5
5
5
5
5
5
5
5
5
5
5
5
5
5
5
5
5
5
5
5
5
5
5
5
5
5
5
5
5
5
5
5
5
5
5
5
5
5
5
5
5
5
5
5
5
5
5
5
5
5
5
5
5
5
5
5
5
5
5
5
5
5
5
5
5
5
5
5
5
5
5
5
5
5
5
5
5
5
5
5

CELL_DATA 216
SCALARS cell_data_0 double
LOOKUP_TABLE default
5.70483990576e-05
2.73613742494e-05
9.0067644825e-05
5.06055527657e-05
0.000128759027426
8.7331472085e-05
6.96880460703e-05
5.26042905216e-05
7.15990054119e-05
4.41412632767e-05
8.36949760666e-06
7.46380402831e-05
7.99027303784e-06
3.55549690487e-05
0.000140556924674
2.0504247485e-05
1.69132293522e-05
8.81903818324e-05
4.15516410158e-05
6.41889900885e-05
4.90018530462e-06
2.71851526078e-05
1.90755261527e-05
1.83443899636e-05
3.65208330551e-05
2.47326727178e-05
2.4692832033e-05
7.94011685495e-07
1.33477045193e-06
1.95662581054e-05
3.92151119068e-05
9.11543333016e-05
1.18156534831e-05
3.50070201679e-06
2.3841276262e-07
1.40693790858e-06
1.17750494585e-06
1.05187105653e-05
1.47109610982e-05
1.78236376868e-05
7.46147131803e-06
1.64354110962e-05
9.19157558999e-06
2.03117815029e-05
1.05939824466e-05
2.10458544073e-07
3.19944916804e-06
3.17396308377e-06
4.45418869775e-05
3.38620372429e-05
5.13187196517e-05
3.73225151404e-05
1.72899373388e-05
4.05603674149e-07
1.61678230566e-05
1.09853344158e-07
2.39538086169e-06
1.86234679944e-05
3.4493095524e-05
3.1617534658e-05
1.06803986288e-05
1.90321062239e-05
4.15417016723e-05
5.69996551392e-06
3.40194249854e-05
3.48406307488e-05
2.41022474572e-05
4.98185125476e-05
0.000151973207704
8.76503010999e-05
0.000128395606876
8.90810218072e-05
0.00010944059072
0.000100695195131
7.84113123942e-06
1.90071319367e-06
1.50688305309e-05
1.61622963583e-06
5.30092017161e-05
0.000114166302144
2.4946590449e-05
4.74964613224e-05
1.200285815e-05
4.709761314e-07
4.50960337534e-06
1.22187226711e-05
7.31454734757e-06
1.97813928373e-05
2.22973148096e-05
8.00598968934e-06
2.39629104338e-05
1.16096038789e-05
1.85709202283e-05
5.00795339712e-06
2.15102184828e-05
8.47238600265e-06
7.65371411105e-06
1.16226142938e-05
1.06531997364e-05
2.84187549028e-05
4.35773689711e-06
6.19508820042e-05
6.4336398496e-05
4.01477177323e-06
6.77899427005e-06
1.09665080866e-05
3.38992255932e-07
2.43097255372e-08
5.28669226331e-06
6.53318690971e-06
3.69829924914e-07
2.21297955299e-05
3.46829294507e-06
9.55289693972e-05
5.10536831972e-05
3.07071785499e-06
1.30977069445e-05
4.84186972792e-07
8.43502850222e-07
5.33931797437e-06
1.17827468686e-06
8.36886701794e-06
1.17806462376e-05
1.50994434015e-05
1.09962962046e-05
1.55413071003e-05
9.16985837667e-07
1.12225241316e-05
3.17630342003e-05
7.63555347015e-06
4.4648697535e-06
6.24274119339e-05
3.66518650733e-05
9.17007076323e-05
0.000201424499017
0.000145193727031
1.22836919439e-05
7.48500102116e-07
8.64668997256e-05
3.36296820974e-05
0.000135431424963
7.62653829786e-05
5.59388369844e-05
0.000126878974388
4.77212268862e-05
0.000125282146356
1.54604020663e-05
4.81654359129e-06
1.19973569102e-05
7.78729406258e-05
2.27362812025e-05
2.49565269457e-05
0.000138759410449
6.49994702066e-05
1.28701668989e-05
9.83537316951e-06
1.54305708681e-05
7.42340698821e-05
2.63364935448e-05
2.45275739634e-05
5.65043164904e-05
7.5113549115e-06
1.05091664393e-05
6.2732536864e-06
4.04265845535e-05
1.01971243733e-06
1.89845296828e-06
2.32573924347e-06
8.76610175976e-08
2.64770218115e-05
9.17844503559e-05
2.9075910654e-05
2.60439714429e-05
1.264812727e-05
0.000136848445479
6.00545979498e-05
7.26178129349e-05
6.27083441895e-06
1.01220782726e-05
3.75674607582e-06
5.64332338873e-05
6.91342451373e-06
7.40457837493e-06
5.22138142732e-06
2.2967448594e-05
2.26246730023e-05
7.66118317356e-06
1.25151200708e-05
1.84686305987e-06
3.3917552547e-06
2.93404373223e-06
8.19238390821e-06
3.62254180609e-06
2.4490986087e-07
4.95174719459e-08
2.35006648966e-06
2.2566672175e-05
1.19404891368e-05
2.15133740399e-05
7.25337868988e-05
1.49277545301e-05
1.02419645286e-05
4.75011807405e-06
1.83085334451e-06
2.97115212608e-07
1.69628265382e-06
4.59614164722e-07
2.00902804164e-07
1.21733029892e-07
2.35252273228e-06
2.94575819141e-06
1.38673568097e-07
1.87112542164e-07
2.40859186599e-06
2.18044774161e-06
1.59781738856e-06

