# vtk DataFile Version 3.0
File Name: Molecule/sphere_dip/sphere_dip_0-s3.vtk
ASCII
DATASET UNSTRUCTURED_GRID
FIELD FieldData 1
TIME 1 1 double
0.0
POINTS 74 double
0.850650808352 0.525731112119 0.0
0.809016994375 0.309016994375 -0.5
0.5 0.809016994375 -0.309016994375
0.309016994375 0.5 -0.809016994375
0.0 0.850650808352 -0.525731112119
0.5 0.809016994375 0.309016994375
0.0 1.0 0.0
-0.309016994375 0.5 0.809016994375
0.0 0.0 1.0
0.309016994375 0.5 0.809016994375
-0.525731112119 0.0 0.850650808352
0.525731112119 0.0 0.850650808352
-0.309016994375 -0.5 0.809016994375
0.309016994375 -0.5 0.809016994375
0.0 -0.850650808352 0.525731112119
0.309016994375 -0.5 -0.809016994375
-0.309016994375 -0.5 -0.809016994375
0.0 0.0 -1.0
0.0 -0.850650808352 -0.525731112119
-0.525731112119 0.0 -0.850650808352
1.0 0.0 0.0
0.809016994375 0.309016994375 0.5
0.809016994375 -0.309016994375 0.5
0.0 0.850650808352 0.525731112119
-0.809016994375 -0.309016994375 -0.5
-0.809016994375 0.309016994375 -0.5
-1.0 0.0 0.0
-0.850650808352 -0.525731112119 0.0
-0.850650808352 0.525731112119 0.0
-0.5 -0.809016994375 -0.309016994375
-0.5 -0.809016994375 0.309016994375
0.0 -1.0 0.0
-0.809016994375 -0.309016994375 0.5
-0.809016994375 0.309016994375 0.5
0.5 -0.809016994375 -0.309016994375
0.5 -0.809016994375 0.309016994375
0.525731112119 0.0 -0.850650808352
-0.309016994375 0.5 -0.809016994375
0.0 0.925325404176 0.26286555606
-0.25 0.829833901363 0.417374053247
-0.25 0.904508497187 0.154508497188
-0.5 0.809016994375 0.309016994375
-0.25 0.904508497187 -0.154508497188
-0.5 0.809016994375 0.0
-0.5 0.809016994375 -0.309016994375
-0.675325404176 0.667374053247 0.154508497188
-0.675325404176 0.667374053247 -0.154508497188
-0.154508497188 0.675325404176 0.667374053247
-0.404508497188 0.654508497187 0.559016994375
-0.654508497187 0.559016994375 0.404508497188
-0.559016994375 0.404508497188 0.654508497187
-0.829833901363 0.417374053247 0.25
0.559016994375 -0.404508497188 0.654508497187
0.404508497188 -0.654508497187 0.559016994375
0.654508497187 -0.559016994375 0.404508497188
0.829833901363 -0.417374053247 0.25
0.675325404176 -0.667374053247 0.154508497188
0.850650808352 -0.525731112119 0.0
0.829833901363 -0.417374053247 -0.25
0.925325404176 -0.26286555606 0.0
0.904508497187 -0.154508497188 -0.25
0.809016994375 -0.309016994375 -0.5
0.809016994375 0.0 -0.5
0.904508497187 0.154508497188 -0.25
0.667374053247 -0.154508497188 -0.675325404176
0.667374053247 0.154508497188 -0.675325404176
0.417374053247 -0.25 -0.829833901363
-0.404508497188 0.654508497187 -0.559016994375
-0.559016994375 0.404508497188 -0.654508497187
-0.654508497187 0.559016994375 -0.404508497188
0.559016994375 -0.404508497188 -0.654508497187
0.654508497187 -0.559016994375 -0.404508497188
0.404508497188 -0.654508497187 -0.559016994375
0.675325404176 -0.667374053247 -0.154508497188

CELLS 144 576
3 0 1 2
3 1 3 2
3 2 3 4
3 0 2 5
3 2 6 5
3 2 4 6
3 7 8 9
3 7 10 8
3 9 8 11
3 10 12 8
3 12 13 8
3 12 14 13
3 8 13 11
3 15 16 17
3 15 18 16
3 17 16 19
3 20 21 22
3 20 0 21
3 22 21 11
3 0 5 21
3 5 9 21
3 5 23 9
3 21 9 11
3 19 24 25
3 24 26 25
3 24 27 26
3 25 26 28
3 27 29 30
3 29 31 30
3 29 18 31
3 30 31 14
3 27 30 32
3 30 12 32
3 30 14 12
3 32 12 10
3 10 33 32
3 33 26 32
3 32 26 27
3 19 16 24
3 16 29 24
3 16 18 29
3 24 29 27
3 18 34 31
3 34 35 31
3 31 35 14
3 36 17 3
3 17 37 3
3 17 19 37
3 3 37 4
3 6 38 5
3 5 38 23
3 23 38 39
3 38 40 39
3 38 6 40
3 39 40 41
3 6 42 40
3 42 43 40
3 42 44 43
3 40 43 41
3 44 42 4
3 4 42 6
3 41 43 45
3 43 46 45
3 43 44 46
3 45 46 28
3 23 39 47
3 39 48 47
3 39 41 48
3 47 48 7
3 41 49 48
3 49 50 48
3 49 33 50
3 48 50 7
3 41 45 49
3 45 51 49
3 45 28 51
3 49 51 33
3 7 50 10
3 50 33 10
3 23 47 9
3 47 7 9
3 13 52 11
3 11 52 22
3 13 53 52
3 53 54 52
3 53 35 54
3 52 54 22
3 35 53 14
3 14 53 13
3 22 54 55
3 54 56 55
3 54 35 56
3 55 56 57
3 22 55 20
3 28 46 25
3 33 51 26
3 51 28 26
3 34 56 35
3 57 58 59
3 58 60 59
3 58 61 60
3 59 60 20
3 61 62 60
3 62 63 60
3 62 1 63
3 60 63 20
3 61 64 62
3 64 65 62
3 64 36 65
3 62 65 1
3 20 63 0
3 63 1 0
3 1 65 3
3 65 36 3
3 36 66 17
3 66 15 17
3 37 67 4
3 4 67 44
3 37 68 67
3 68 69 67
3 68 25 69
3 67 69 44
3 25 68 19
3 19 68 37
3 36 64 66
3 64 70 66
3 64 61 70
3 66 70 15
3 61 71 70
3 71 72 70
3 71 34 72
3 70 72 15
3 61 58 71
3 58 73 71
3 58 57 73
3 71 73 34
3 15 72 18
3 72 34 18
3 57 59 55
3 55 59 20
3 44 69 46
3 46 69 25
3 34 73 56
3 56 73 57

CELL_TYPES 144
5
5
5
5
5
5
5
5
5
5
5
5
5
5
5
5
5
5
5
5
5
5
5
5
5
5
5
5
5
5
5
5
5
5
5
5
5
5
5
5
5
5
5
5
5
5
5
5
5
5
5
5
5
5
5
5
5
5
5
5
5
5
5
5
5
5
5
5
5
5
5
5
5
5
5
5
5
5
5
5
5
5
5
5
5
5
5
5
5
5
5
5
5
5
5
5
5
5
5
5
5
5
5
5
5
5
5
5
5
5
5
5
5
5
5
5
5
5
5
5
5
5
5
5
5
5
5
5
5
5
5
5
5
5
5
5
5
5
5
5
5
5
5
5

CELL_DATA 144
SCALARS cell_data_0 double
LOOKUP_TABLE default
0.000592273904308
0.000107911452683
8.4996681007e-05
0.001417608832
0.000725995865961
7.445630843e-05
0.000250711014006
0.000211418900872
0.000202011142423
0.000209245761838
0.00025583211472
8.96651577696e-05
0.000208452523259
0.000242396295652
6.48861250415e-05
0.0001959233353
6.68058902189e-05
0.000625289693417
5.20864299854e-05
0.0011573557798
0.00036937644992
0.000315155917334
8.11352967866e-05
5.60810202496e-05
1.08578039059e-05
9.64584180572e-05
7.35014965582e-05
0.000209536089541
0.00010978269494
0.00018376604207
9.7738800485e-07
8.41340710484e-05
5.05976544149e-05
4.07127569424e-05
9.08307721249e-05
5.49145178407e-05
9.46542397559e-06
8.59920631748e-05
9.16318135511e-05
6.80393996638e-06
8.48301072585e-05
0.000195358080579
7.04986075671e-05
1.55240980446e-06
7.55789281598e-06
0.000214766692464
0.000259678330097
0.000214159600462
1.20838919725e-06
0.00022370343589
0.000203514823183
7.2670424855e-07
3.47267289786e-06
3.51465889478e-06
1.8552497087e-05
3.01959981358e-06
3.02701599616e-06
7.97364680683e-07
2.3702773996e-05
6.20139247431e-06
2.8455958235e-06
3.86430830626e-05
1.63515598236e-05
5.40393044301e-06
4.82035612441e-05
5.03293849075e-06
5.79733759837e-06
2.78827342924e-05
9.16801265228e-06
3.19231806558e-05
4.43763546444e-07
3.3085133705e-07
6.27906163774e-06
3.58791127955e-05
1.38926331357e-05
4.79652299117e-05
5.11442288139e-06
5.12672272317e-05
2.83432414728e-05
3.04540530035e-05
4.86931598548e-05
5.29300882136e-05
3.55917458637e-05
2.16410174297e-05
1.68823025839e-05
7.656966693e-06
1.03558037684e-05
1.65249088641e-05
3.22925149296e-05
4.78856834214e-06
4.45111662671e-06
1.50246182333e-06
2.06489599783e-05
2.38803952452e-05
5.15213872956e-05
1.37628211225e-05
5.92309523786e-05
1.52395926226e-06
2.47117686543e-05
6.97844253628e-07
1.56152987258e-05
2.29286463063e-05
2.03815361984e-05
1.47435149452e-06
1.79798941946e-06
2.409368178e-05
1.9921923202e-05
1.69460136221e-06
4.06981719136e-06
4.03347217604e-06
0.000309394505225
0.000220791301161
3.97120499933e-06
1.02010331912e-06
0.000107935927341
0.000111752495072
3.38486163547e-06
6.71666667209e-06
7.58369207654e-06
2.46565246922e-06
1.29175713366e-07
5.94120013364e-07
3.27896254879e-05
3.49367050284e-05
5.52750739357e-06
3.06232217668e-06
2.05886036969e-05
9.83004700458e-06
2.3023843865e-05
2.44397342319e-06
7.90293614336e-07
1.3430891655e-05
1.66194156478e-05
1.73371868992e-06
2.2061101287e-05
7.85678638005e-07
2.76558962126e-06
2.84524928662e-05
2.14376422974e-05
1.70302596164e-05
5.6278789403e-06
2.85885856993e-06
2.041025124e-07
2.49239066488e-05

