# vtk DataFile Version 3.0
File Name: Molecule/sphere_dip/sphere_dip_0-s3.vtk
ASCII
DATASET UNSTRUCTURED_GRID
FIELD FieldData 1
TIME 1 1 double
0.0
POINTS 642 double
0.850650808352 -0.525731112119 0.0
0.864929335863 -0.484441642061 -0.131200378813
0.915043421233 -0.403355348617 0.0
0.924304600611 -0.358228793487 -0.131655371352
0.862668480416 -0.433888564553 -0.259891913008
0.961938357784 -0.273266528913 0.0
0.916244175191 -0.301258879093 -0.264082750659
0.966392597402 -0.220117027473 -0.132792476828
0.951056516295 -0.162459848116 -0.26286555606
0.843911474622 -0.375038567478 -0.383613732685
0.891006524188 -0.238676930319 -0.386187385588
0.809016994375 -0.309016994375 -0.5
0.990438881957 -0.137952242128 0.0
0.987688340595 -0.0822424652791 -0.133071104141
1.0 0.0 0.0
0.840177885327 -0.15643446504 -0.519258489728
0.912982492932 -0.0823235800317 -0.399607051702
0.850650808352 0.0 -0.525731112119
0.912982492932 0.0823235800317 -0.399607051702
0.963861263467 0.0 -0.266404701135
0.951056516295 0.162459848116 -0.26286555606
0.840177885327 0.15643446504 -0.519258489728
0.891006524188 0.238676930319 -0.386187385588
0.809016994375 0.309016994375 -0.5
0.987688340595 0.0822424652791 -0.133071104141
0.758652300163 -0.237086325351 -0.606825149272
0.78020437071 -0.08114185162 -0.620239582613
0.69378047756 -0.16062203564 -0.702046444776
0.702907030488 0.0 -0.711281734962
0.78020437071 0.08114185162 -0.620239582613
0.69378047756 0.16062203564 -0.702046444776
0.615642020874 -0.0810862934433 -0.78384304242
0.615642020874 0.0810862934433 -0.78384304242
0.525731112119 0.0 -0.850650808352
0.758652300163 0.237086325351 -0.606825149272
0.990438881957 0.137952242128 0.0
0.966392597402 0.220117027473 -0.132792476828
0.961938357784 0.273266528913 0.0
0.916244175191 0.301258879093 -0.264082750659
0.924304600611 0.358228793487 -0.131655371352
0.862668480416 0.433888564553 -0.259891913008
0.843911474622 0.375038567478 -0.383613732685
0.915043421233 0.403355348617 0.0
0.864929335863 0.484441642061 -0.131200378813
0.850650808352 0.525731112119 0.0
0.78384304242 0.615642020874 -0.0810862934433
0.792649229259 0.571251659136 -0.213022865649
0.702046444776 0.69378047756 -0.16062203564
0.783451698363 0.516121620051 -0.346153014789
0.702309846744 0.647411893882 -0.296004592578
0.688190960236 0.587785252292 -0.425325404176
0.757935420048 0.453990499739 -0.468429850867
0.606825149272 0.758652300163 -0.237086325351
0.601500955008 0.707106781186 -0.37174803446
0.5 0.809016994375 -0.309016994375
0.707106781186 0.37174803446 -0.601500955008
0.646577791798 0.51337544123 -0.564254211766
0.587785252292 0.425325404176 -0.688190960236
0.51337544123 0.564254211766 -0.646577791798
0.564254211766 0.646577791798 -0.51337544123
0.425325404176 0.688190960236 -0.587785252292
0.453990499739 0.468429850867 -0.757935420048
0.37174803446 0.601500955008 -0.707106781186
0.309016994375 0.5 -0.809016994375
0.468429850867 0.757935420048 -0.453990499739
0.647411893882 0.296004592578 -0.702309846744
0.571251659136 0.213022865649 -0.792649229259
0.516121620051 0.346153014789 -0.783451698363
0.433888564553 0.259891913008 -0.862668480416
0.484441642061 0.131200378813 -0.864929335863
0.375038567478 0.383613732685 -0.843911474622
0.383613732685 0.843911474622 -0.375038567478
0.346153014789 0.783451698363 -0.516121620051
0.259891913008 0.862668480416 -0.433888564553
0.296004592578 0.702309846744 -0.647411893882
0.213022865649 0.792649229259 -0.571251659136
0.16062203564 0.702046444776 -0.69378047756
0.237086325351 0.606825149272 -0.758652300163
0.131200378813 0.864929335863 -0.484441642061
0.0810862934433 0.78384304242 -0.615642020874
0.0 0.850650808352 -0.525731112119
0.78384304242 0.615642020874 0.0810862934433
0.711281734962 0.702907030488 0.0
0.702046444776 0.69378047756 0.16062203564
0.620239582613 0.78020437071 -0.08114185162
0.620239582613 0.78020437071 0.08114185162
0.525731112119 0.850650808352 0.0
0.519258489728 0.840177885327 -0.15643446504
0.606825149272 0.758652300163 0.237086325351
0.519258489728 0.840177885327 0.15643446504
0.5 0.809016994375 0.309016994375
0.386187385588 0.891006524188 -0.238676930319
0.399607051702 0.912982492932 -0.0823235800317
0.26286555606 0.951056516295 -0.162459848116
0.266404701135 0.963861263467 0.0
0.399607051702 0.912982492932 0.0823235800317
0.26286555606 0.951056516295 0.162459848116
0.133071104141 0.987688340595 -0.0822424652791
0.133071104141 0.987688340595 0.0822424652791
0.0 1.0 0.0
0.386187385588 0.891006524188 0.238676930319
0.264082750659 0.916244175191 -0.301258879093
0.131655371352 0.924304600611 -0.358228793487
0.132792476828 0.966392597402 -0.220117027473
0.0 0.961938357784 -0.273266528913
0.0 0.915043421233 -0.403355348617
0.0 0.990438881957 -0.137952242128
0.383613732685 0.843911474622 0.375038567478
0.264082750659 0.916244175191 0.301258879093
0.259891913008 0.862668480416 0.433888564553
0.132792476828 0.966392597402 0.220117027473
0.131655371352 0.924304600611 0.358228793487
0.0 0.961938357784 0.273266528913
0.0 0.990438881957 0.137952242128
0.131200378813 0.864929335863 0.484441642061
0.0 0.915043421233 0.403355348617
0.0 0.850650808352 0.525731112119
-0.131200378813 0.864929335863 0.484441642061
-0.131655371352 0.924304600611 0.358228793487
-0.259891913008 0.862668480416 0.433888564553
-0.132792476828 0.966392597402 0.220117027473
-0.264082750659 0.916244175191 0.301258879093
-0.26286555606 0.951056516295 0.162459848116
-0.133071104141 0.987688340595 0.0822424652791
-0.383613732685 0.843911474622 0.375038567478
-0.386187385588 0.891006524188 0.238676930319
-0.5 0.809016994375 0.309016994375
-0.133071104141 0.987688340595 -0.0822424652791
-0.266404701135 0.963861263467 0.0
-0.26286555606 0.951056516295 -0.162459848116
-0.399607051702 0.912982492932 -0.0823235800317
-0.399607051702 0.912982492932 0.0823235800317
-0.525731112119 0.850650808352 0.0
-0.386187385588 0.891006524188 -0.238676930319
-0.519258489728 0.840177885327 -0.15643446504
-0.5 0.809016994375 -0.309016994375
-0.519258489728 0.840177885327 0.15643446504
-0.132792476828 0.966392597402 -0.220117027473
-0.131655371352 0.924304600611 -0.358228793487
-0.264082750659 0.916244175191 -0.301258879093
-0.259891913008 0.862668480416 -0.433888564553
-0.131200378813 0.864929335863 -0.484441642061
-0.383613732685 0.843911474622 -0.375038567478
-0.606825149272 0.758652300163 0.237086325351
-0.620239582613 0.78020437071 0.08114185162
-0.702046444776 0.69378047756 0.16062203564
-0.620239582613 0.78020437071 -0.08114185162
-0.711281734962 0.702907030488 0.0
-0.702046444776 0.69378047756 -0.16062203564
-0.606825149272 0.758652300163 -0.237086325351
-0.78384304242 0.615642020874 0.0810862934433
-0.78384304242 0.615642020874 -0.0810862934433
-0.850650808352 0.525731112119 0.0
-0.0810862934433 0.78384304242 0.615642020874
-0.213022865649 0.792649229259 0.571251659136
-0.16062203564 0.702046444776 0.69378047756
-0.346153014789 0.783451698363 0.516121620051
-0.296004592578 0.702309846744 0.647411893882
-0.425325404176 0.688190960236 0.587785252292
-0.468429850867 0.757935420048 0.453990499739
-0.237086325351 0.606825149272 0.758652300163
-0.37174803446 0.601500955008 0.707106781186
-0.309016994375 0.5 0.809016994375
-0.601500955008 0.707106781186 0.37174803446
-0.564254211766 0.646577791798 0.51337544123
-0.688190960236 0.587785252292 0.425325404176
-0.646577791798 0.51337544123 0.564254211766
-0.51337544123 0.564254211766 0.646577791798
-0.587785252292 0.425325404176 0.688190960236
-0.757935420048 0.453990499739 0.468429850867
-0.707106781186 0.37174803446 0.601500955008
-0.809016994375 0.309016994375 0.5
-0.453990499739 0.468429850867 0.757935420048
-0.702309846744 0.647411893882 0.296004592578
-0.792649229259 0.571251659136 0.213022865649
-0.783451698363 0.516121620051 0.346153014789
-0.862668480416 0.433888564553 0.259891913008
-0.864929335863 0.484441642061 0.131200378813
-0.843911474622 0.375038567478 0.383613732685
-0.375038567478 0.383613732685 0.843911474622
-0.516121620051 0.346153014789 0.783451698363
-0.433888564553 0.259891913008 0.862668480416
-0.647411893882 0.296004592578 0.702309846744
-0.571251659136 0.213022865649 0.792649229259
-0.69378047756 0.16062203564 0.702046444776
-0.758652300163 0.237086325351 0.606825149272
-0.484441642061 0.131200378813 0.864929335863
-0.615642020874 0.0810862934433 0.78384304242
-0.525731112119 0.0 0.850650808352
0.0810862934433 0.78384304242 0.615642020874
0.0 0.711281734962 0.702907030488
0.16062203564 0.702046444776 0.69378047756
-0.08114185162 0.620239582613 0.78020437071
0.08114185162 0.620239582613 0.78020437071
0.0 0.525731112119 0.850650808352
-0.15643446504 0.519258489728 0.840177885327
0.237086325351 0.606825149272 0.758652300163
0.15643446504 0.519258489728 0.840177885327
0.309016994375 0.5 0.809016994375
-0.238676930319 0.386187385588 0.891006524188
-0.0823235800317 0.399607051702 0.912982492932
-0.162459848116 0.26286555606 0.951056516295
0.0 0.266404701135 0.963861263467
0.0823235800317 0.399607051702 0.912982492932
0.162459848116 0.26286555606 0.951056516295
-0.0822424652791 0.133071104141 0.987688340595
0.0822424652791 0.133071104141 0.987688340595
0.0 0.0 1.0
0.238676930319 0.386187385588 0.891006524188
-0.301258879093 0.264082750659 0.916244175191
-0.358228793487 0.131655371352 0.924304600611
-0.220117027473 0.132792476828 0.966392597402
-0.273266528913 0.0 0.961938357784
-0.403355348617 0.0 0.915043421233
-0.137952242128 0.0 0.990438881957
0.375038567478 0.383613732685 0.843911474622
0.301258879093 0.264082750659 0.916244175191
0.433888564553 0.259891913008 0.862668480416
0.220117027473 0.132792476828 0.966392597402
0.358228793487 0.131655371352 0.924304600611
0.273266528913 0.0 0.961938357784
0.137952242128 0.0 0.990438881957
0.484441642061 0.131200378813 0.864929335863
0.403355348617 0.0 0.915043421233
0.525731112119 0.0 0.850650808352
-0.484441642061 -0.131200378813 0.864929335863
-0.358228793487 -0.131655371352 0.924304600611
-0.433888564553 -0.259891913008 0.862668480416
[...]
CELL_DATA 1280
SCALARS cell_data_0 double
LOOKUP_TABLE default
5.64606228988e-06
5.74655599e-06
4.79091379674e-06
1.24772903176e-06
1.01954304665e-06
2.56427034861e-06
1.29564984944e-06
2.10061049379e-06
1.40053099975e-06
3.62093273023e-06
2.08771264978e-06
1.78398969393e-06
1.86130370614e-06
3.47084656588e-06
2.30815017524e-06
2.10745987427e-06
7.29507869871e-07
5.44212243092e-06
1.5563804586e-06
5.02214402727e-06
1.38779490112e-06
2.59487082979e-06
4.1671470741e-07
2.60928734765e-06
1.72398043848e-06
1.09527381767e-06
1.65744462004e-06
5.8422787027e-07
1.16121717212e-06
1.42030889175e-06
1.47109031211e-07
1.53123860526e-06
1.58401717183e-06
1.84166071179e-06
3.73972518117e-07
1.84032551737e-06
1.69646894822e-06
1.02325388535e-05
2.70404611494e-06
6.46746958316e-06
2.23549979063e-06
2.365552694e-08
4.97469137297e-06
8.76961269059e-07
1.76890766141e-06
4.03589364591e-06
2.44965066745e-06
5.99678314508e-07
1.3980073834e-06
7.781519189e-06
5.43689795041e-06
8.12058167182e-06
1.06978929515e-05
2.04603675542e-05
1.09583196434e-05
1.40116427586e-05
2.82194572971e-06
4.2986676633e-06
7.60967623294e-08
5.13782443753e-06
8.79253317236e-06
1.22306470319e-05
8.79985017809e-06
5.08791512745e-06
6.44064416164e-06
1.14580866729e-05
6.61575761475e-06
8.83456778207e-06
1.05167851611e-05
1.814105896e-05
1.0671753907e-05
1.08343258943e-05
6.76010768244e-06
9.83771357237e-06
2.39528271264e-06
7.22381746565e-06
1.22621869675e-05
1.77766015982e-05
8.80241632779e-06
1.092049874e-05
7.93959514741e-06
2.16321950449e-05
1.25521275141e-05
1.06117254751e-05
1.75949880851e-05
4.56277358559e-05
2.52711301615e-05
2.41988029211e-05
1.31945491237e-05
3.21610673917e-05
9.24996371531e-06
1.90154802517e-05
1.84009492514e-05
4.73386196137e-05
3.24693389833e-05
2.54106754231e-05
4.80991043489e-06
2.08831064884e-05
8.90758686307e-06
1.53374205772e-05
2.23738674775e-05
3.42532256075e-05
9.43200450796e-06
1.24914589791e-05
7.50206622127e-06
1.43562844943e-05
3.2444040393e-06
7.77945891769e-06
5.19158119469e-06
1.26401969655e-05
1.5491791156e-06
3.15398270906e-06
3.31118592861e-05
5.3741504466e-05
2.6794912106e-05
2.8268242244e-05
1.73293848911e-05
4.33889586008e-05
2.3096342547e-05
3.11578643924e-05
1.32134572886e-05
1.90784885479e-05
4.88369593714e-06
8.22936503947e-06
2.52060646433e-05
3.26038201653e-05
1.91451765547e-05
1.05583178218e-05
1.82750757776e-05
3.46696716039e-05
1.5468737951e-05
3.01963758888e-05
2.83466239155e-05
5.72108659944e-05
3.79457902168e-05
3.5660909643e-05
2.1181341233e-05
3.18551524312e-05
1.37405314135e-05
2.33655967885e-05
3.2823759062e-05
4.11661242749e-05
2.64699050903e-05
1.72003180393e-05
1.76294614494e-05
3.45315159983e-05
2.39090880948e-05
2.32350620602e-05
2.54640655121e-05
4.20352129746e-05
2.92598444805e-05
2.89424080039e-05
2.94692064856e-05
5.12603500787e-05
3.58417543839e-05
3.19749592615e-05
2.15417166297e-05
3.10177562237e-05
2.60881023804e-05
1.56632682073e-05
2.20070874436e-05
3.41185400598e-05
2.32017262798e-05
1.71469575024e-05
1.35444577726e-05
3.62120627849e-05
2.70716646391e-05
3.0038748612e-05
1.34578933113e-05
2.03048440945e-05
1.13155332702e-05
1.28378685752e-05
3.759785678e-05
5.36034576634e-05
3.36048805437e-05
2.63055123823e-05
1.24975499149e-05
2.42946112881e-05
2.12145526545e-05
2.14703888602e-05
3.27283240732e-05
4.67792684072e-05
2.96984560433e-05
3.08647044942e-05
3.62774383835e-05
4.07306309153e-05
1.98441108695e-05
2.10142765803e-05
2.6206401884e-05
2.66793503235e-05
1.65183675385e-05
9.00255148408e-06
1.70109103205e-05
2.51955665096e-05
7.54290726446e-06
2.13860456797e-05
7.71176413655e-06
1.03469446272e-05
1.17433605895e-05
7.79626982309e-06
1.02995078719e-05
1.38006960377e-05
8.94411807687e-06
1.19358561757e-05
7.97380379119e-06
8.63593721416e-06
9.45207224962e-06
5.46448313559e-06
5.59353017092e-06
7.40249590846e-06
9.09869414996e-06
1.08421156767e-05
8.51314371877e-06
7.93445497182e-06
1.48035204981e-05
1.27200262962e-05
2.3780240277e-05
3.28069405348e-05
2.90321280975e-05
2.23837818683e-05
1.32026361726e-05
2.12808108022e-05
2.8576233311e-05
1.39691461445e-05
1.12488122298e-05
1.98589109672e-05
2.09258997153e-05
1.32610219542e-05
1.65853043778e-05
2.25480859091e-05
2.1320651325e-05
2.04364993934e-05
1.41125199182e-05
1.51353491715e-05
6.29112143938e-06
1.58826474201e-05
2.86983100499e-05
2.83957370036e-05
1.83113950669e-05
1.70969832198e-05
1.18679170045e-05
1.88320971133e-05
2.49912209561e-05
1.37160700183e-05
1.56528671474e-05
1.0487472439e-05
5.57305425639e-06
1.43643934169e-05
2.17213838912e-05
1.7305548999e-05
1.24155287491e-05
6.27426407423e-06
1.0292591135e-05
5.69648204459e-06
4.16097060941e-06
3.39136016082e-06
1.00310591518e-05
1.40278030172e-05
1.8425072941e-05
7.05252948868e-07
4.19801642856e-06
1.66418991674e-06
2.93204145953e-07
5.43794544684e-07
6.38380915855e-06
4.44751077355e-06
3.17218177042e-06
3.7289929649e-07
2.91019936296e-06
3.28962106127e-06
2.37256996623e-06
4.90206787576e-06
4.62200495176e-07
1.7233887895e-08
1.04794414985e-06
9.97377934253e-07
3.02110295153e-07
2.48688042453e-06
2.95689614097e-06
2.31948646621e-06
1.48554520608e-06
1.10823149294e-07
4.71413228485e-07
2.07137773127e-06
3.33507726114e-06
4.57275234896e-06
3.90565634644e-06
6.07447487502e-06
2.28138951312e-06
2.81062646246e-06
8.46576824301e-06
1.77020913673e-06
6.52182659917e-06
1.04636828449e-06
2.8839541599e-06
1.58780253067e-06
7.8466764572e-06
2.51389504899e-06
2.22904449074e-06
3.13825911295e-06
2.30940478509e-06
9.34823704021e-07
1.90378712945e-06
4.87027505504e-07
6.53773539345e-06
6.50836191985e-06
4.62685315717e-06
7.17842836324e-06
4.72850771603e-06
5.95441843179e-06
5.14516432361e-06
6.87648606588e-06
2.67912023917e-06
2.88475659301e-06
1.56862395522e-06
3.62853365567e-06
7.61771653645e-06
7.02979449514e-06
5.51535944958e-06
7.46357673236e-06
1.81681731797e-06
9.24968577162e-06
2.52006779044e-06
9.27340783061e-06
9.11424485876e-06
1.49582348191e-05
1.89168441431e-06
7.00915899642e-06
5.72833811137e-07
8.30520022459e-06
5.12752388135e-07
5.36796795245e-06
5.79654942079e-06
1.50895439224e-05
2.93891061296e-06
6.71945069212e-06
5.56620614948e-06
7.95221129474e-06
1.05759296954e-05
2.31236994218e-06
1.62931490229e-05
1.10574124658e-05
1.66264202494e-05
1.04335787718e-05
1.59924512331e-05
5.38402849554e-06
1.81400242918e-05
1.61412306206e-05
2.92577323128e-06
1.30197275177e-05
8.40241981609e-06
1.13564430542e-05
5.02136074447e-06
5.001566652e-06
7.84549802371e-06
8.84889086186e-06
5.41800124392e-06
8.29074966363e-06
1.38865289905e-05
1.39258873542e-05
7.39446415624e-06
6.44851194695e-06
8.55668164129e-06
1.00517781478e-05
1.39449748975e-05
7.90861795786e-06
1.5442226572e-05
1.60738970918e-05
8.31509893613e-06
1.05627628394e-05
6.39882351569e-06
4.30160093547e-06
1.35806669516e-05
9.78954710138e-06
1.45405977195e-05
1.00333635951e-05
1.34027144962e-05
4.80466160264e-06
1.51573972883e-05
1.41706048406e-05
8.85645564514e-06
8.35067169378e-06
1.26136454756e-05
8.47395639904e-06
7.39391386407e-06
7.732542675e-06
9.48882621272e-06
1.21679674865e-05
1.08988147392e-05
1.33045954961e-05
1.43892627555e-05
1.48247761512e-05
8.93042279217e-06
9.07418195096e-06
7.60018929409e-06
1.18625550279e-05
1.63257063394e-05
1.74077186239e-05
1.53166067625e-05
1.95059926292e-05
8.40013837915e-06
2.90796616436e-06
3.41752018421e-06
1.11762968739e-05
1.66492993538e-06
1.23404395451e-05
1.02118040544e-05
8.40775039316e-06
6.2275590325e-07
1.02836874173e-05
1.44503596852e-06
7.34527358408e-06
1.93680403037e-05
1.94422274928e-05
1.76806791876e-05
2.25741055418e-05
2.34429291926e-06
4.32403962811e-06
3.16850297064e-06
3.03543893289e-06
4.94211746613e-06
1.07691732534e-05
2.18666551315e-06
1.53231172769e-07
8.13289672585e-07
3.90100590093e-07
2.80606591383e-06
9.23393707586e-07
1.382386467e-06
6.21334847915e-07
3.22776953452e-06
3.00041938194e-06
1.82610073599e-05
1.62347622021e-05
1.60578806871e-05
1.67389714499e-05
1.27438052193e-05
1.26389200603e-05
1.06194230984e-05
1.3309916321e-05
1.16646795006e-05
9.05533141914e-06
5.56572177817e-06
8.94633478794e-06
1.26826497795e-05
1.06590390801e-05
9.34888942847e-06
9.22324115554e-06
7.48460224379e-06
7.03026217693e-06
7.779828292e-06
5.52396349493e-06
7.34507832996e-06
5.53702669839e-06
4.7629474444e-06
4.94424349392e-06
7.50154345009e-06
6.55175719281e-06
6.54438599107e-06
5.15216074715e-06
3.14756195268e-06
2.00277641759e-06
3.11791354854e-06
3.52369259041e-07
5.81561783389e-06
5.04320028898e-06
3.95526311965e-06
5.25423720186e-06
3.55537258665e-06
3.35993811642e-06
2.3042518482e-06
4.31057608026e-06
2.42998406456e-06
1.65870082705e-06
1.31880412071e-06
1.64768951807e-06
3.36481254903e-06
1.82052791902e-06
1.69303409373e-06
6.04303083402e-07
4.91248148588e-06
3.54179487883e-06
3.81103045951e-06
2.39634745445e-06
1.74752259464e-06
1.73581224969e-06
1.15719518581e-06
1.05322603384e-07
2.50666939429e-06
2.84390345555e-07
8.88145981739e-07
1.13177704022e-06
3.39550164996e-07
1.98869904634e-06
1.81570830186e-06
2.706132055e-06
4.42400975779e-06
2.36648967403e-06
8.27570343994e-07
2.40375861595e-06
6.30765628844e-07
8.2322781862e-09
1.4588808589e-07
1.57740985857e-07
7.13956483529e-07
4.00190212724e-08
2.09054384712e-06
3.11815607133e-07
3.79137403313e-07
1.25781135676e-06
7.89267372963e-07
1.8979987841e-06
9.25756734248e-06
1.06407028499e-05
9.59254201578e-06
1.24243227985e-05
1.11291420507e-05
1.36408504917e-05
1.40422197035e-05
1.43168428098e-05
9.11898812318e-06
9.10931222587e-06
6.92912508489e-06
1.18441611442e-05
1.61299610259e-05
1.74971883677e-05
1.51663666091e-05
1.88309806423e-05
8.99006367708e-06
1.14735246069e-05
1.08316243916e-05
1.41923384705e-05
1.29577515357e-05
1.61964270285e-05
1.7150466577e-05
1.71491720787e-05
1.02298473657e-05
9.38346900395e-06
4.77710321106e-06
1.40752348413e-05
1.87509011122e-05
2.12428273336e-05
1.9225375286e-05
2.27239893688e-05
4.79890328183e-06
3.83829653603e-06
2.18434642502e-06
6.90364207345e-06
2.51757132543e-06
2.02093597476e-06
3.01249158675e-06
5.76065520434e-06
1.52225846213e-06
9.28650726939e-08
8.14995381003e-07
1.92769711671e-06
5.91076792506e-06
3.88451510179e-06
4.2468350393e-06
3.45191400699e-06
1.8927406759e-05
1.76117811764e-05
1.57474146686e-05
1.54900663325e-05
1.35800130426e-05
1.3537001823e-05
1.10919445726e-05
1.4369137927e-05
1.18160441974e-05
9.46934114469e-06
5.91250614941e-06
9.28315248798e-06
1.24466580692e-05
1.06107547526e-05
9.60775030844e-06
9.24406339508e-06
1.58685318967e-06
1.19063214817e-06
8.39728784853e-07
5.94767554554e-07
6.06665653257e-07
5.87189112184e-07
5.34345660814e-07
2.66194448589e-07
8.44913540399e-07
1.2857544453e-06
1.16421328636e-06
9.61753300226e-07
2.69952804452e-06
2.65809113495e-06
1.53780444004e-07
4.43119540342e-06
5.14811970741e-07
3.15763964091e-07
2.19461672348e-07
7.50901815599e-07
7.50826512704e-07
7.48999558242e-07
1.18390780479e-06
2.20356538762e-07
5.86281677795e-07
1.24989201322e-06
1.91505790296e-06
1.7639839192e-06
1.07695466453e-07
1.05827941816e-06
1.37588141065e-06
3.40568893052e-07
1.39665556123e-06
1.35226825224e-06
1.60985793485e-06
3.68248957557e-08
2.29444688005e-07
1.77104707447e-07
1.57406601479e-07
2.25642487186e-07
2.48118219565e-06
2.19402011624e-06
2.40630026033e-06
1.96253272646e-08
2.13814322283e-07
5.53882409384e-07
5.18169639664e-07
1.93502286846e-06
1.17189967803e-07
2.2568374953e-06
2.20361982722e-06
3.18259680207e-06
2.84841580746e-06
3.77390855672e-06
4.18876633529e-06
4.17860803163e-06
2.20096934477e-06
2.66945483177e-06
3.6798175482e-07
3.50565384163e-06
4.90630238268e-06
5.57127777761e-06
4.91335383439e-06
6.6850228671e-06
1.18636809912e-05
1.14725980014e-05
1.45995122711e-05
5.27876724277e-08
1.3412557276e-06
5.63023943943e-07
3.20412951893e-07
3.65154038817e-07
1.00565742957e-05
6.70154321666e-06
8.08172384064e-06
3.53286600401e-07
6.5246638878e-07
1.18778431349e-06
6.95828676326e-07
1.18528697383e-06
4.53799584518e-07
5.99025514992e-07
9.84853758348e-07
3.59677358194e-07
8.76765362502e-07
1.33636041313e-06
8.22951367029e-07
2.25482071143e-06
2.04799207013e-06
3.31821992152e-06
5.43519063076e-06
3.71588750305e-06
5.3887940134e-07
1.89858277383e-07
2.76508177226e-07
1.9407833336e-06
4.58691994817e-06
6.49746319401e-06
1.29872766622e-05
4.53677579389e-07
8.18417421868e-06
6.57486011591e-06
2.85278353951e-06
3.68896853641e-06
1.26531436023e-05
1.34186951967e-05
9.39592599834e-06
4.56345217834e-06
6.47809438676e-07
6.50153497401e-06
6.27454482261e-06
1.42377151274e-07
1.08021496357e-06
2.43376188187e-06
2.38255896803e-06
3.67531728793e-06
2.92957430923e-06
3.57012652346e-06
6.2605157745e-06
4.54145312398e-06
3.16292299534e-06
1.34304356667e-06
1.5482041198e-06
2.17927911785e-06
5.19403093294e-06
5.90692073013e-06
7.13200935646e-06
7.24865077697e-06
6.09980274091e-06
4.15094487202e-06
3.47783255163e-06
4.22493105665e-06
3.27223736299e-06
2.27477466549e-06
1.3509129632e-06
2.99887186203e-06
2.54578517071e-06
1.84051467862e-06
2.62608852456e-06
1.52259322612e-06
9.75357703041e-07
6.40788218099e-06
1.93299869464e-06
7.38433903414e-06
1.18040542373e-05
1.04627224846e-05
1.10903329857e-05
2.46409886699e-06
7.103833323e-06
1.683336049e-05
1.01369279717e-05
1.12092779697e-05
2.53993060829e-06
3.10729898863e-06
5.24190752255e-07
2.88302270623e-06
9.52561702631e-06
9.58454680877e-06
5.42358150997e-06
3.17871120509e-06
9.94040558446e-06
4.08364443151e-06
5.97704329205e-07
4.55819258168e-06
3.05526515313e-07
1.82300967637e-07
8.07151877964e-09
1.84635551276e-07
1.1744641419e-07
7.1929846022e-09
4.3769337977e-07
1.07012037894e-08
1.66445834916e-07
2.29636498538e-07
6.35243697335e-08
2.04160267863e-07
1.88994135229e-07
6.83514629127e-07
2.45385061949e-07
2.20515071202e-07
4.14001900456e-08
1.86495406401e-07
3.80042083969e-07
3.88881899763e-07
3.73719649754e-07
4.35220678959e-07
4.18059227382e-07
2.9460537414e-07
4.38357889622e-07
4.81596211757e-07
6.0793795339e-07
6.66851016098e-07
1.22396830388e-07
8.22283041315e-08
3.18225878761e-06
6.69027891664e-06
3.55754530627e-06
2.89815957011e-06
2.92545023163e-06
2.24513607787e-06
4.43550780917e-06
4.62432392915e-06
5.65122569204e-06
3.62187705852e-06
7.85649115524e-06
1.33789245578e-06
2.13489155632e-06
2.24434564636e-06
6.81695056656e-06
5.59245009093e-06
5.42823518043e-06
4.40428753134e-06
4.35264555823e-06
3.15714035973e-06
2.02446282189e-06
3.34583280793e-06
3.74021821074e-06
2.21834211943e-06
7.51203919765e-07
1.59734074569e-06
2.27707118499e-06
1.1908419416e-06
1.03221293982e-06
7.8870064505e-07
6.7398752835e-06
6.61312518982e-06
7.48329358198e-06
5.32330371017e-06
7.33578805456e-06
5.70750961795e-06
4.8773582703e-06
5.03262560456e-06
7.79791621882e-06
6.9258682458e-06
7.54199063597e-06
5.03601372179e-06
3.65177579204e-06
1.75184143533e-08
6.7359793907e-07
2.5485431164e-06
2.66485295858e-06
3.0099894138e-06
3.09287186613e-07
3.44807191826e-06
3.76916163796e-07
5.22037924976e-07
5.81613195547e-07
9.70607568432e-07
6.00312443948e-07
5.69776409703e-07
1.303073175e-08
2.69443764465e-07
2.18005492297e-06
1.81147069433e-06
6.51914869303e-07
1.74487693117e-06
8.69013265005e-07
6.44269042043e-07
2.6209033596e-07
4.61791963759e-07
1.8703290706e-07
9.76002172368e-07
9.22424489062e-07
8.62747599928e-07
3.00449626644e-07
3.10705893211e-07
4.35079714788e-08
1.58628147173e-07
6.07658588929e-07
8.16996508532e-07
1.00209522801e-06
3.73127001982e-08
2.37338974733e-07
4.18331460833e-07
4.34125641684e-07
4.91034827639e-07
1.0253196634e-06
1.58102250499e-06
1.3853351195e-06
1.04056937703e-06
1.08240092792e-06
2.00738762412e-06
1.3077653268e-06
1.69519582258e-06
7.52569269712e-07
1.39451683943e-06
1.46598619484e-06
7.86281290922e-07
5.24380958266e-08
9.43130329491e-07
3.34814665188e-07
6.85533882264e-07
1.02542495742e-06
3.62573068612e-06
2.61056774662e-06
2.34557195703e-06
7.2126937061e-07
3.11412508827e-06
9.91128685952e-07
2.48180285094e-06
1.99548732584e-06
4.85990900649e-06
4.11744167388e-06
2.77521446893e-06
3.26741759551e-06
4.95756640346e-06
2.04104757688e-06
3.69047149901e-06
2.20706221752e-06
3.03894951925e-06
1.68550051763e-06
1.79971557628e-06
1.67205347276e-06
3.40004440153e-06
2.44752424167e-06
2.55121478916e-06
1.22410879366e-06
3.47856736505e-06
2.65798249914e-06
1.33555073161e-06
3.06979430636e-06
6.82624355961e-06
3.60398042421e-06
6.84404377257e-06
7.9224357456e-06
1.3654555969e-05
8.13451308009e-06
8.45226199007e-06
3.14837367214e-06
5.9620910008e-06
1.76417035476e-06
6.34416004883e-06
5.02945814492e-06
5.73298012061e-06
4.44734777138e-06
1.17790234445e-06
2.54971770402e-06
2.84535391028e-06
6.04820374132e-07
2.6632306911e-06
1.80333870424e-06
1.64069833968e-06
3.47662349711e-06
5.42993227827e-07
3.36194905339e-06
4.93240004665e-06
6.23659140772e-06
4.90215846864e-06
3.32140412506e-07
1.19040960765e-06
3.50488233803e-06
1.13015463842e-06
2.82081790517e-06
2.48846739476e-06
1.85327314561e-06
8.50022424015e-07
1.40917619516e-06
2.53140417044e-06
3.47497797764e-06
2.43541701387e-06
5.05057989601e-07
1.5320071207e-06
1.47478536988e-06
3.15028985916e-06
3.27050738399e-06
1.99250927876e-06
2.03554039684e-06
2.54066815446e-06
2.43850102226e-06
3.28649806696e-06
3.61964238347e-06
3.85187261534e-06
5.01314412453e-06
5.93047514781e-06
7.32046772197e-06
5.26852116362e-06
5.26023654021e-06
6.42138197668e-06
6.21370735175e-06
7.48609451218e-06
5.60476181405e-06
6.88692376467e-06
7.74707818634e-06
7.48240682907e-06
6.70457409807e-06
5.65168731669e-06
4.82721202307e-06
4.98219355981e-06
3.95174886212e-06
3.80500799142e-06
2.95183494865e-06
4.24837968053e-06
3.1913692432e-06
3.60309189164e-07
7.62262763661e-07
2.69987200382e-08
3.56838216532e-06
6.02515331195e-07
1.16712985795e-07
2.02727952022e-07
5.17912078637e-06
8.80638554093e-06
4.02025386139e-06
4.06976442756e-06
5.73841783241e-06
7.93840264791e-06
4.567756358e-06
1.95872008591e-06
6.49021626188e-06
1.01803906602e-05
5.09875335716e-06
5.54862792088e-06
2.8378564243e-06
5.6447576914e-06
1.77843079138e-06
3.07979134457e-06
1.26018222476e-06
2.49224978187e-06
2.67610119256e-06
2.34201604241e-06
4.39370022432e-06
2.55617041736e-06
1.84405844987e-06
1.0360127111e-06
3.74623656683e-06
1.76791179656e-06
1.04067205284e-06
1.48302632331e-06
2.64355985541e-06
3.06354402978e-06
7.72258187353e-07
2.37469693194e-06
1.23339983369e-06
2.51790479528e-06
1.06293731552e-06
1.97019521915e-06
6.09031503565e-07
1.54609469895e-06
1.02769811105e-06
1.57848405151e-06
1.82416767532e-06
2.07054825749e-06
1.6232303076e-06
3.67025462528e-07
3.44467327794e-06
2.9383256497e-06
6.306813492e-07
2.63459812592e-06
7.36581428297e-06
6.14851570494e-06
7.7174053274e-06
3.81341977294e-06
6.85344199428e-06
4.56570582686e-06
4.42225201675e-06
3.93962034659e-06
7.37991609575e-06
6.2064105058e-06
5.56529514312e-06
4.92289304778e-06
2.85992751444e-06
2.61154096597e-06
3.42299725629e-06
1.89650082309e-06
5.35908168476e-06
5.13463927453e-06
3.9123235148e-06
4.94675067415e-06
2.68859480415e-06
2.18545296362e-06
1.73252678706e-06
3.5531054941e-06
2.01239750031e-06
1.22622253502e-06
9.74621262614e-07
1.34047771267e-06
3.44018580051e-06
2.2975017793e-06
1.72660973036e-06
2.21192152215e-06
4.02277762896e-06
4.15240368088e-06
4.0348851433e-06
3.40642405642e-06
3.42652066013e-06
2.45767651919e-06
1.82196462235e-06
2.50737637177e-06
2.50329190222e-06
5.69883736866e-07
4.55392287537e-07
1.00128363795e-06
1.73198050634e-06
6.87176422138e-07
7.80011939141e-07
3.71315636472e-07
2.63664854162e-06
1.14196045455e-06
1.22165069673e-06
7.27985754048e-07
9.11126785232e-07
5.51599577685e-07
2.89520393997e-07
4.82396095777e-07
8.30872022537e-07
1.05997023351e-07
1.7997339168e-07
9.7595627043e-08
1.61380426985e-07
4.07972169136e-08
1.87364963803e-08
5.26672429136e-07
1.44072931665e-07
3.48153417466e-07
1.3403188931e-06
1.04804868898e-06
1.01431637301e-06
5.93890492073e-07
3.47253954384e-07
4.37899856434e-07
9.55953782269e-07
5.16647172066e-07
1.50762975994e-07
2.69586732971e-07
2.0586696774e-06
2.1453928777e-06
1.05644738549e-07
2.24879564067e-06
2.544669925e-07
8.36505694095e-08
1.75680633183e-06
9.47887554388e-08
1.78590325569e-06
3.47162912372e-08
1.33999544055e-06
1.07015603364e-07
1.64918558038e-06
1.58873535469e-07