# vtk DataFile Version 3.0
File Name: Molecule/sphere_dip/sphere_dip_0-s2.vtk
ASCII
DATASET UNSTRUCTURED_GRID
FIELD FieldData 1
TIME 1 1 double
0.0
POINTS 162 double
0.850650808352 -0.525731112119 0.0
0.862668480416 -0.433888564553 -0.259891913008
0.961938357784 -0.273266528913 0.0
0.951056516295 -0.162459848116 -0.26286555606
0.809016994375 -0.309016994375 -0.5
1.0 0.0 0.0
0.850650808352 0.0 -0.525731112119
0.951056516295 0.162459848116 -0.26286555606
0.809016994375 0.309016994375 -0.5
0.69378047756 -0.16062203564 -0.702046444776
0.69378047756 0.16062203564 -0.702046444776
0.525731112119 0.0 -0.850650808352
0.961938357784 0.273266528913 0.0
0.862668480416 0.433888564553 -0.259891913008
0.850650808352 0.525731112119 0.0
0.702046444776 0.69378047756 -0.16062203564
0.688190960236 0.587785252292 -0.425325404176
0.5 0.809016994375 -0.309016994375
0.587785252292 0.425325404176 -0.688190960236
0.425325404176 0.688190960236 -0.587785252292
0.309016994375 0.5 -0.809016994375
0.433888564553 0.259891913008 -0.862668480416
0.259891913008 0.862668480416 -0.433888564553
0.16062203564 0.702046444776 -0.69378047756
0.0 0.850650808352 -0.525731112119
0.702046444776 0.69378047756 0.16062203564
0.525731112119 0.850650808352 0.0
0.5 0.809016994375 0.309016994375
0.26286555606 0.951056516295 -0.162459848116
0.26286555606 0.951056516295 0.162459848116
0.0 1.0 0.0
0.0 0.961938357784 -0.273266528913
0.259891913008 0.862668480416 0.433888564553
0.0 0.961938357784 0.273266528913
0.0 0.850650808352 0.525731112119
-0.259891913008 0.862668480416 0.433888564553
-0.26286555606 0.951056516295 0.162459848116
-0.5 0.809016994375 0.309016994375
-0.26286555606 0.951056516295 -0.162459848116
-0.525731112119 0.850650808352 0.0
-0.5 0.809016994375 -0.309016994375
-0.259891913008 0.862668480416 -0.433888564553
-0.702046444776 0.69378047756 0.16062203564
-0.702046444776 0.69378047756 -0.16062203564
-0.850650808352 0.525731112119 0.0
-0.16062203564 0.702046444776 0.69378047756
-0.425325404176 0.688190960236 0.587785252292
-0.309016994375 0.5 0.809016994375
-0.688190960236 0.587785252292 0.425325404176
-0.587785252292 0.425325404176 0.688190960236
-0.809016994375 0.309016994375 0.5
-0.862668480416 0.433888564553 0.259891913008
-0.433888564553 0.259891913008 0.862668480416
-0.69378047756 0.16062203564 0.702046444776
-0.525731112119 0.0 0.850650808352
0.16062203564 0.702046444776 0.69378047756
0.0 0.525731112119 0.850650808352
0.309016994375 0.5 0.809016994375
-0.162459848116 0.26286555606 0.951056516295
0.162459848116 0.26286555606 0.951056516295
0.0 0.0 1.0
-0.273266528913 0.0 0.961938357784
0.433888564553 0.259891913008 0.862668480416
0.273266528913 0.0 0.961938357784
0.525731112119 0.0 0.850650808352
-0.433888564553 -0.259891913008 0.862668480416
-0.162459848116 -0.26286555606 0.951056516295
-0.309016994375 -0.5 0.809016994375
0.0 -0.525731112119 0.850650808352
0.162459848116 -0.26286555606 0.951056516295
0.309016994375 -0.5 0.809016994375
-0.16062203564 -0.702046444776 0.69378047756
0.16062203564 -0.702046444776 0.69378047756
0.0 -0.850650808352 0.525731112119
0.433888564553 -0.259891913008 0.862668480416
0.69378047756 -0.16062203564 0.702046444776
0.587785252292 -0.425325404176 0.688190960236
0.809016994375 -0.309016994375 0.5
0.425325404176 -0.688190960236 0.587785252292
0.688190960236 -0.587785252292 0.425325404176
0.5 -0.809016994375 0.309016994375
0.259891913008 -0.862668480416 0.433888564553
0.862668480416 -0.433888564553 0.259891913008
0.702046444776 -0.69378047756 0.16062203564
0.433888564553 -0.259891913008 -0.862668480416
0.273266528913 0.0 -0.961938357784
0.162459848116 -0.26286555606 -0.951056516295
0.309016994375 -0.5 -0.809016994375
0.0 0.0 -1.0
0.0 -0.525731112119 -0.850650808352
-0.162459848116 -0.26286555606 -0.951056516295
-0.309016994375 -0.5 -0.809016994375
0.16062203564 -0.702046444776 -0.69378047756
-0.16062203564 -0.702046444776 -0.69378047756
0.0 -0.850650808352 -0.525731112119
-0.273266528913 0.0 -0.961938357784
-0.433888564553 -0.259891913008 -0.862668480416
-0.525731112119 0.0 -0.850650808352
0.951056516295 -0.162459848116 0.26286555606
0.951056516295 0.162459848116 0.26286555606
0.850650808352 0.0 0.525731112119
0.809016994375 0.309016994375 0.5
0.862668480416 0.433888564553 0.259891913008
0.69378047756 0.16062203564 0.702046444776
0.688190960236 0.587785252292 0.425325404176
0.425325404176 0.688190960236 0.587785252292
0.587785252292 0.425325404176 0.688190960236
-0.69378047756 -0.16062203564 -0.702046444776
-0.69378047756 0.16062203564 -0.702046444776
-0.850650808352 0.0 -0.525731112119
-0.809016994375 -0.309016994375 -0.5
-0.809016994375 0.309016994375 -0.5
-0.951056516295 -0.162459848116 -0.26286555606
-0.951056516295 0.162459848116 -0.26286555606
-1.0 0.0 0.0
-0.862668480416 -0.433888564553 -0.259891913008
-0.961938357784 -0.273266528913 0.0
-0.850650808352 -0.525731112119 0.0
-0.862668480416 0.433888564553 -0.259891913008
-0.961938357784 0.273266528913 0.0
-0.16062203564 0.702046444776 -0.69378047756
-0.425325404176 0.688190960236 -0.587785252292
-0.309016994375 0.5 -0.809016994375
-0.587785252292 0.425325404176 -0.688190960236
-0.688190960236 0.587785252292 -0.425325404176
-0.433888564553 0.259891913008 -0.862668480416
-0.702046444776 -0.69378047756 -0.16062203564
-0.702046444776 -0.69378047756 0.16062203564
-0.525731112119 -0.850650808352 0.0
-0.5 -0.809016994375 -0.309016994375
-0.5 -0.809016994375 0.309016994375
-0.26286555606 -0.951056516295 -0.162459848116
-0.26286555606 -0.951056516295 0.162459848116
0.0 -1.0 0.0
-0.259891913008 -0.862668480416 -0.433888564553
0.0 -0.961938357784 -0.273266528913
-0.259891913008 -0.862668480416 0.433888564553
0.0 -0.961938357784 0.273266528913
-0.862668480416 -0.433888564553 0.259891913008
-0.688190960236 -0.587785252292 0.425325404176
-0.809016994375 -0.309016994375 0.5
-0.425325404176 -0.688190960236 0.587785252292
-0.587785252292 -0.425325404176 0.688190960236
-0.69378047756 -0.16062203564 0.702046444776
-0.850650808352 0.0 0.525731112119
-0.951056516295 0.162459848116 0.26286555606
-0.951056516295 -0.162459848116 0.26286555606
-0.587785252292 -0.425325404176 -0.688190960236
-0.425325404176 -0.688190960236 -0.587785252292
-0.688190960236 -0.587785252292 -0.425325404176
0.259891913008 -0.862668480416 -0.433888564553
0.26286555606 -0.951056516295 -0.162459848116
0.5 -0.809016994375 -0.309016994375
0.525731112119 -0.850650808352 0.0
0.26286555606 -0.951056516295 0.162459848116
0.702046444776 -0.69378047756 -0.16062203564
0.587785252292 -0.425325404176 -0.688190960236
0.688190960236 -0.587785252292 -0.425325404176
0.425325404176 -0.688190960236 -0.587785252292
0.162459848116 0.26286555606 -0.951056516295
-0.162459848116 0.26286555606 -0.951056516295
0.0 0.525731112119 -0.850650808352

CELLS 320 1280
3 0 1 2
3 1 3 2
3 1 4 3
3 2 3 5
3 4 6 3
3 6 7 3
3 6 8 7
3 3 7 5
3 4 9 6
3 9 10 6
3 9 11 10
3 6 10 8
3 5 7 12
3 7 13 12
3 7 8 13
3 12 13 14
3 14 13 15
3 13 16 15
3 13 8 16
3 15 16 17
3 8 18 16
3 18 19 16
3 18 20 19
3 16 19 17
3 8 10 18
3 10 21 18
3 10 11 21
3 18 21 20
3 17 19 22
3 19 23 22
3 19 20 23
3 22 23 24
3 14 15 25
3 15 26 25
3 15 17 26
3 25 26 27
3 17 28 26
3 28 29 26
3 28 30 29
3 26 29 27
3 17 22 28
3 22 31 28
3 22 24 31
3 28 31 30
3 27 29 32
3 29 33 32
3 29 30 33
3 32 33 34
3 34 33 35
3 33 36 35
3 33 30 36
3 35 36 37
3 30 38 36
3 38 39 36
3 38 40 39
3 36 39 37
3 30 31 38
3 31 41 38
3 31 24 41
3 38 41 40
3 37 39 42
3 39 43 42
3 39 40 43
3 42 43 44
3 34 35 45
3 35 46 45
3 35 37 46
3 45 46 47
3 37 48 46
3 48 49 46
3 48 50 49
3 46 49 47
3 37 42 48
3 42 51 48
3 42 44 51
3 48 51 50
3 47 49 52
3 49 53 52
3 49 50 53
3 52 53 54
3 34 45 55
3 45 56 55
3 45 47 56
3 55 56 57
3 47 58 56
3 58 59 56
3 58 60 59
3 56 59 57
3 47 52 58
3 52 61 58
3 52 54 61
3 58 61 60
3 57 59 62
3 59 63 62
3 59 60 63
3 62 63 64
3 54 65 61
3 65 66 61
3 65 67 66
3 61 66 60
3 67 68 66
3 68 69 66
3 68 70 69
3 66 69 60
3 67 71 68
3 71 72 68
3 71 73 72
3 68 72 70
3 60 69 63
3 69 74 63
3 69 70 74
3 63 74 64
3 64 74 75
3 74 76 75
3 74 70 76
3 75 76 77
3 70 78 76
3 78 79 76
3 78 80 79
3 76 79 77
3 70 72 78
3 72 81 78
3 72 73 81
3 78 81 80
3 77 79 82
3 79 83 82
3 79 80 83
3 82 83 0
3 11 84 85
3 84 86 85
3 84 87 86
3 85 86 88
3 87 89 86
3 89 90 86
3 89 91 90
3 86 90 88
3 87 92 89
3 92 93 89
3 92 94 93
3 89 93 91
3 88 90 95
3 90 96 95
3 90 91 96
3 95 96 97
3 0 2 82
3 2 98 82
3 2 5 98
3 82 98 77
3 5 99 98
3 99 100 98
3 99 101 100
3 98 100 77
3 5 12 99
3 12 102 99
3 12 14 102
3 99 102 101
3 77 100 75
3 100 103 75
3 100 101 103
3 75 103 64
3 14 25 102
3 25 104 102
3 25 27 104
3 102 104 101
3 27 105 104
3 105 106 104
3 105 57 106
3 104 106 101
3 27 32 105
3 32 55 105
3 32 34 55
3 105 55 57
3 101 106 103
3 106 62 103
3 106 57 62
3 103 62 64
3 97 107 108
3 107 109 108
3 107 110 109
3 108 109 111
3 110 112 109
3 112 113 109
3 112 114 113
3 109 113 111
3 110 115 112
3 115 116 112
3 115 117 116
3 112 116 114
3 111 113 118
3 113 119 118
3 113 114 119
3 118 119 44
3 24 120 41
3 120 121 41
3 120 122 121
3 41 121 40
3 122 123 121
3 123 124 121
3 123 111 124
3 121 124 40
3 122 125 123
3 125 108 123
3 125 97 108
3 123 108 111
3 40 124 43
3 124 118 43
3 124 111 118
3 43 118 44
3 117 126 127
3 126 128 127
3 126 129 128
3 127 128 130
3 129 131 128
3 131 132 128
3 131 133 132
3 128 132 130
3 129 134 131
3 134 135 131
3 134 94 135
3 131 135 133
3 130 132 136
3 132 137 136
3 132 133 137
3 136 137 73
3 117 127 138
3 127 139 138
3 127 130 139
3 138 139 140
3 130 141 139
3 141 142 139
3 141 67 142
3 139 142 140
3 130 136 141
3 136 71 141
3 136 73 71
3 141 71 67
3 140 142 143
3 142 65 143
3 142 67 65
3 143 65 54
3 54 53 143
3 53 144 143
3 53 50 144
3 143 144 140
3 50 145 144
3 145 146 144
3 145 114 146
3 144 146 140
3 50 51 145
3 51 119 145
3 51 44 119
3 145 119 114
3 140 146 138
3 146 116 138
3 146 114 116
3 138 116 117
3 97 96 107
3 96 147 107
3 96 91 147
3 107 147 110
3 91 148 147
3 148 149 147
3 148 129 149
3 147 149 110
3 91 93 148
3 93 134 148
3 93 94 134
3 148 134 129
3 110 149 115
3 149 126 115
3 149 129 126
3 115 126 117
3 94 150 135
3 150 151 135
3 150 152 151
3 135 151 133
3 152 153 151
3 153 154 151
3 153 80 154
3 151 154 133
3 152 155 153
3 155 83 153
3 155 0 83
3 153 83 80
3 133 154 137
3 154 81 137
3 154 80 81
3 137 81 73
3 11 9 84
3 9 156 84
3 9 4 156
3 84 156 87
3 4 157 156
3 157 158 156
3 157 152 158
3 156 158 87
3 4 1 157
3 1 155 157
3 1 0 155
3 157 155 152
3 87 158 92
3 158 150 92
3 158 152 150
3 92 150 94
3 11 85 21
3 85 159 21
3 85 88 159
3 21 159 20
3 88 160 159
3 160 161 159
3 160 122 161
3 159 161 20
3 88 95 160
3 95 125 160
3 95 97 125
3 160 125 122
3 20 161 23
3 161 120 23
3 161 122 120
3 23 120 24

CELL_TYPES 320
5
5
5
5
5
5
5
5
5
5
5
5
5
5
5
5
5
5
5
5
5
5
5
5
5
5
5
5
5
5
5
5
5
5
5
5
5
5
5
5
5
5
5
5
5
5
5
5
5
5
5
5
5
5
5
5
5
5
5
5
5
5
5
5
5
5
5
5
5
5
5
5
5
5
5
5
5
5
5
5
5
5
5
5
5
5
5
5
5
5
5
5
5
5
5
5
5
5
5
5
5
5
5
5
5
5
5
5
5
5
5
5
5
5
5
5
5
5
5
5
5
5
5
5
5
5
5
5
5
5
5
5
5
5
5
5
5
5
5
5
5
5
5
5
5
5
5
5
5
5
5
5
5
5
5
5
5
5
5
5
5
5
5
5
5
5
5
5
5
5
5
5
5
5
5
5
5
5
5
5
5
5
5
5
5
5
5
5
5
5
5
5
5
5
5
5
5
5
5
5
5
5
5
5
5
5
5
5
5
5
5
5
5
5
5
5
5
5
5
5
5
5
5
5
5
5
5
5
5
5
5
5
5
5
5
5
5
5
5
5
5
5
5
5
5
5
5
5
5
5
5
5
5
5
5
5
5
5
5
5
5
5
5
5
5
5
5
5
5
5
5
5
5
5
5
5
5
5
5
5
5
5
5
5
5
5
5
5
5
5
5
5
5
5
5
5
5
5
5
5
5
5
5
5
5
5
5
5
5
5
5
5
5
5
5
5
5
5
5
5

CELL_DATA 320
SCALARS cell_data_0 double
LOOKUP_TABLE default
2.03304405489e-05
8.99230149002e-07
3.60055201007e-06
3.26812808631e-07
7.37679903901e-08
1.06052512273e-05
6.56617044924e-06
4.73353684394e-06
7.77885347473e-06
4.15716503659e-06
1.59049426101e-05
4.51148365202e-06
1.51801305444e-05
1.83505450495e-05
3.75666707668e-06
1.58608949696e-05
6.13370346749e-06
2.48973211161e-05
1.86047839868e-05
1.89359318553e-05
1.96295901463e-05
5.39654952917e-05
1.38294008351e-06
4.61032684581e-05
8.03777026397e-06
1.57640761934e-05
2.67002570185e-05
2.01382746842e-05
3.83122507907e-05
5.5281780383e-05
8.83446847502e-06
2.30270960025e-05
5.25982039214e-05
0.000125923006195
4.54920792657e-05
0.000120053915313
0.000180739787493
0.000338286005069
0.00022166174363
0.000146278584271
0.000107582151211
0.000168542452058
4.13686903441e-05
0.000139905262561
0.000120413087842
0.000178238137327
0.000105995906274
7.2137072207e-05
4.20411954557e-05
0.000128923606578
0.000102584913648
9.07522628175e-05
0.000113054081397
0.000151360315391
8.72519464902e-05
0.000112768593244
6.21879185814e-05
0.000119185412341
6.94187832019e-05
0.000102590178773
5.42287078923e-05
6.47198672907e-05
6.0784647086e-05
4.26687620656e-05
1.64756066498e-05
2.00285820821e-05
2.4681813958e-05
4.58693121762e-06
2.8906371889e-05
2.45795990636e-05
2.39468207651e-05
5.05105628031e-06
5.09026475148e-05
6.00968240397e-05
4.15723376355e-05
3.00666220263e-05
1.09235307375e-05
1.72889800281e-05
3.53615470337e-06
2.74292326839e-05
8.41406159306e-06
1.98652554147e-05
1.30938088012e-05
2.37348222621e-05
4.51220566768e-05
6.06641946882e-05
7.54606833753e-05
4.74202995414e-05
3.63239737974e-05
5.17102291616e-05
4.11341726635e-05
6.22034635311e-05
3.49379692887e-05
4.10725361759e-05
7.22020068332e-05
1.85738689253e-05
3.88752067365e-05
4.61746659493e-05
2.11897232119e-05
6.90629097097e-05
9.53717605251e-06
1.05563224008e-05
4.24960790875e-06
8.58962321724e-05
5.86702475685e-05
0.000112295443287
3.5824189849e-05
2.60037126585e-05
6.49578377747e-05
3.26513663801e-05
3.57283379166e-05
2.88176980911e-05
2.27540173627e-05
1.48982772877e-05
2.39825740163e-05
6.27218416872e-06
1.41108211031e-05
8.09720839657e-05
8.43097833727e-05
1.36326234058e-05
2.85486060684e-05
9.0392390674e-05
2.22682935293e-05
6.91845648536e-05
1.66643601785e-05
2.11150832558e-05
1.92398307233e-05
2.15806402214e-05
4.2470287718e-05
5.28037995069e-05
3.89092099741e-05
6.02017997879e-05
4.75857937152e-05
6.44671257202e-05
4.74851310484e-05
7.17026372934e-05
2.27678655516e-05
1.24110009294e-05
6.12689332042e-06
2.08296881147e-05
6.5459959789e-05
5.50582461294e-05
3.92894611924e-05
4.19678651791e-05
2.1197926862e-05
3.38095911819e-06
4.04372408733e-06
1.11539704315e-06
7.36927214095e-06
6.51798782503e-06
1.00549061366e-06
2.60978805133e-07
1.26707250302e-05
1.21775911305e-05
1.25524483139e-05
1.7157065677e-06
2.61929814861e-06
8.63715704401e-06
7.66655446132e-06
1.88614646858e-05
5.15498931311e-05
4.31018756075e-05
4.14907387996e-05
2.69420247329e-06
6.54913802849e-06
1.41744771749e-05
1.88369756095e-05
1.07911858712e-05
3.74787690174e-05
2.93411823206e-05
3.01484359515e-05
1.37530793998e-05
1.29408568854e-05
1.59215866416e-05
1.47230959025e-05
2.11560709931e-05
2.1920559682e-05
1.56400886985e-05
1.10568623321e-05
9.01432396753e-06
1.09553773555e-06
1.05408569628e-05
1.8958968826e-05
9.12663317036e-07
2.29214696708e-05
4.22131157967e-05
4.22992836925e-05
2.18592628809e-05
6.89273480488e-06
3.37083311162e-05
3.37289976097e-05
3.9487866605e-05
2.31419676173e-05
2.26008805264e-05
1.84435212065e-05
5.89153506762e-05
2.26815248925e-05
1.37600744781e-05
8.82090019087e-06
8.84571037481e-06
2.63146513793e-05
2.39818871018e-05
2.79302514777e-05
1.22294040934e-05
2.48495626383e-05
9.14901932272e-06
9.10774213939e-07
2.16506723522e-05
9.09192075499e-06
1.60496877165e-07
1.91953152485e-07
4.33134552047e-07
1.92848774647e-06
2.70018109844e-06
2.68427026077e-06
3.95576514322e-07
1.9811639048e-06
1.91560609223e-06
2.43339041515e-06
1.98395772061e-06
1.38038549429e-06
4.30708808316e-07
2.01228766558e-06
3.16941621031e-06
1.1982169107e-05
5.73461280256e-06
2.19254673427e-06
3.27328876274e-06
6.46940939607e-06
9.30048055263e-06
1.22526779802e-05
1.62389962289e-06
1.11639711718e-06
3.7487751743e-05
2.40102400297e-05
1.76129199825e-05
5.84390554301e-06
1.34491119827e-05
1.57272577081e-07
1.05296067915e-05
2.0503644358e-05
1.0628823913e-05
6.32081925075e-06
8.1706564716e-06
4.24945295442e-06
5.612785457e-06
1.21428408421e-05
2.41725650952e-06
6.9317693542e-06
3.6382439297e-05
5.09310536921e-05
2.6403296108e-05
8.43906409749e-06
2.3051021071e-05
2.18643568676e-05
2.368678618e-05
2.63940666175e-05
1.96012296495e-05
2.28076839238e-05
1.14111153564e-05
1.91606712313e-05
6.63356406322e-06
2.95192842036e-06
5.68451339405e-06
1.37423952252e-05
2.5289871827e-06
2.42452872835e-06
2.14611400789e-06
1.23682765687e-05
1.59902592201e-05
2.08246576652e-07
2.7605538593e-05
3.96396391914e-06
1.09944086665e-06
1.41859833731e-07
8.38791162821e-07
1.98873386416e-06
7.51706544258e-07
8.49884430125e-07
7.49077247685e-07
1.25771319404e-06
5.76760749062e-07
2.15682848611e-05
4.39837014127e-08
1.52532357435e-06
2.08156651592e-05
1.69744377519e-05
1.48679725946e-05
2.34824879438e-05
9.49562175761e-06
2.75754341002e-06
2.39762414021e-05
3.52137543889e-06
2.42388098828e-07
1.56037303563e-06
1.53525878577e-05
3.13246296724e-06
3.78515921978e-07
1.98238118557e-05
1.2853137558e-06
1.42309674222e-05
4.61231115561e-06
2.93020762856e-07
6.55287149734e-06
4.2886746067e-05
4.74837204143e-05
7.26582371242e-05
2.4413381867e-05
7.46558434405e-05
2.94137906771e-07
2.14214576174e-05
1.79855455601e-05
7.17548048248e-05
4.91210969073e-05
4.30493579345e-05
3.24155845668e-05
6.40296855495e-06
1.94782886635e-06
2.04314322596e-05
6.02527338944e-06

