# vtk DataFile Version 3.0
File Name: Molecule/sphere_dip_12/sphere_dip_12_0-s4.vtk
ASCII
DATASET UNSTRUCTURED_GRID
FIELD FieldData 1
TIME 1 1 double
0.0
POINTS 139 double
0.809016994375 -0.309016994375 -0.5
0.525731112119 0.0 -0.850650808352
0.809016994375 0.309016994375 -0.5
0.5 0.809016994375 -0.309016994375
0.309016994375 0.5 -0.809016994375
0.0 0.850650808352 -0.525731112119
0.0 1.0 0.0
-0.5 0.809016994375 0.309016994375
-0.850650808352 0.525731112119 0.0
-0.809016994375 0.309016994375 0.5
-0.809016994375 -0.309016994375 -0.5
-1.0 0.0 0.0
-0.809016994375 0.309016994375 -0.5
-0.850650808352 -0.525731112119 0.0
-0.309016994375 0.5 -0.809016994375
-0.5 0.809016994375 -0.309016994375
-0.5 -0.809016994375 -0.309016994375
-0.5 -0.809016994375 0.309016994375
0.0 -1.0 0.0
0.0 -0.850650808352 0.525731112119
-0.809016994375 -0.309016994375 0.5
-0.309016994375 -0.5 0.809016994375
-0.525731112119 0.0 0.850650808352
-0.309016994375 -0.5 -0.809016994375
0.5 -0.809016994375 -0.309016994375
0.5 -0.809016994375 0.309016994375
0.309016994375 -0.5 -0.809016994375
0.850650808352 -0.525731112119 0.0
0.0 -0.850650808352 -0.525731112119
0.925325404176 -0.26286555606 0.0
0.525731112119 0.0 0.850650808352
0.417374053247 -0.25 0.829833901363
0.667374053247 -0.154508497188 0.675325404176
0.559016994375 -0.404508497188 0.654508497187
0.309016994375 -0.5 0.809016994375
0.404508497188 -0.654508497187 0.559016994375
0.654508497187 -0.559016994375 0.404508497188
0.809016994375 -0.309016994375 0.5
0.675325404176 -0.667374053247 0.154508497188
0.829833901363 -0.417374053247 0.25
0.0 0.5 -0.809016994375
0.25 0.904508497187 0.154508497188
0.5 0.809016994375 0.309016994375
0.25 0.829833901363 0.417374053247
0.0 0.925325404176 0.26286555606
0.0 0.850650808352 0.525731112119
-0.25 0.829833901363 0.417374053247
-0.25 0.904508497187 0.154508497188
-0.25 0.904508497187 -0.154508497188
-0.5 0.809016994375 0.0
-0.154508497188 0.675325404176 0.667374053247
-0.404508497188 0.654508497187 0.559016994375
-0.309016994375 0.5 0.809016994375
-0.417374053247 0.25 0.829833901363
0.154508497188 0.675325404176 0.667374053247
0.0 0.5 0.809016994375
0.309016994375 0.5 0.809016994375
-0.154508497188 0.25 0.904508497187
0.154508497188 0.25 0.904508497187
0.0 0.0 1.0
-0.26286555606 0.0 0.925325404176
0.417374053247 0.25 0.829833901363
0.26286555606 0.0 0.925325404176
-0.417374053247 -0.25 0.829833901363
-0.154508497188 -0.25 0.904508497187
0.0 -0.5 0.809016994375
0.154508497188 -0.25 0.904508497187
0.417374053247 -0.25 -0.829833901363
0.154508497188 -0.25 -0.904508497187
0.0 -0.5 -0.809016994375
-0.154508497188 -0.25 -0.904508497187
-0.417374053247 -0.25 -0.829833901363
0.404508497188 0.654508497187 0.559016994375
0.809016994375 0.309016994375 0.5
-0.525731112119 0.0 -0.850650808352
0.667374053247 0.154508497188 0.675325404176
0.904508497187 0.154508497188 -0.25
1.0 0.0 0.0
0.925325404176 0.26286555606 0.0
0.829833901363 0.417374053247 -0.25
0.850650808352 0.525731112119 0.0
0.675325404176 0.667374053247 -0.154508497188
0.654508497187 0.559016994375 -0.404508497188
0.417374053247 0.25 -0.829833901363
0.829833901363 0.417374053247 0.25
-0.667374053247 0.154508497188 -0.675325404176
-0.559016994375 0.404508497188 -0.654508497187
-0.417374053247 0.25 -0.829833901363
-0.25 -0.904508497187 -0.154508497188
-0.25 -0.829833901363 -0.417374053247
0.0 -0.925325404176 -0.26286555606
0.962662702088 -0.13143277803 0.0
0.738195523811 -0.231762745782 0.587662702088
0.819425447869 -0.363195523811 0.375
0.877579652769 -0.340119804654 0.125
0.914916950682 -0.208687026624 0.125
0.867171199275 -0.285941275218 0.25
0.904508497187 -0.154508497188 0.25
0.952254248593 -0.077254248594 0.125
0.856762745781 -0.231762745782 0.375
0.952254248593 0.077254248594 0.125
0.904508497187 0.0 0.25
0.904508497187 0.154508497188 0.25
0.856762745781 0.077254248594 0.375
0.856762745781 -0.077254248594 0.375
0.809016994375 0.0 0.5
0.856762745781 0.231762745782 0.375
0.809016994375 0.154508497188 0.5
0.809016994375 -0.154508497188 0.5
0.87757965277 0.340119804654 0.125
0.738195523811 -0.077254248594 0.587662702088
0.738195523811 0.077254248594 0.587662702088
0.667374053247 0.0 0.675325404176
0.738195523811 0.231762745782 0.587662702088
0.488195523811 0.327254248594 0.742171199276
0.559016994375 0.404508497188 0.654508497187
0.340119804654 0.125 -0.87757965277
0.231762745782 0.375 -0.856762745781
0.154508497188 0.25 -0.904508497187
0.0 0.0 -1.0
-0.077254248594 0.125 -0.952254248593
0.077254248594 0.125 -0.952254248593
0.0 0.25 -0.904508497187
-0.154508497188 0.25 -0.904508497187
-0.231762745782 0.375 -0.856762745781
-0.340119804654 0.125 -0.87757965277
0.26286555606 0.0 -0.925325404176
0.394298334089 0.0 -0.887988106264
0.208687026624 -0.125 -0.914916950682
0.13143277803 0.0 -0.962662702088
0.077254248594 -0.125 -0.952254248593
0.0 -0.25 -0.904508497187
-0.077254248594 -0.125 -0.952254248593
-0.13143277803 0.0 -0.962662702088
-0.208687026624 -0.125 -0.914916950682
-0.26286555606 0.0 -0.925325404176
-0.394298334089 0.0 -0.887988106264
0.208687026624 0.125 -0.914916950682
-0.208687026624 0.125 -0.914916950682

CELLS 274 1096
3 0 1 2
3 3 4 5
3 3 5 6
3 7 8 9
3 10 11 12
3 10 13 11
3 12 11 8
3 5 14 15
3 15 12 8
3 13 16 17
3 17 18 19
3 13 17 20
3 17 21 20
3 17 19 21
3 22 9 20
3 9 11 20
3 9 8 11
3 20 11 13
3 23 16 10
3 10 16 13
3 24 25 18
3 18 25 19
3 0 24 26
3 0 27 24
3 26 24 28
3 0 29 27
3 30 31 32
3 31 33 32
3 31 34 33
3 34 35 33
3 35 36 33
3 35 25 36
3 33 36 37
3 25 35 19
3 19 35 34
3 36 38 39
3 36 25 38
3 39 38 27
3 27 38 24
3 24 38 25
3 4 40 5
3 40 14 5
3 6 41 3
3 3 41 42
3 42 41 43
3 41 44 43
3 41 6 44
3 43 44 45
3 45 44 46
3 44 47 46
3 44 6 47
3 46 47 7
3 6 48 47
3 48 49 47
3 48 15 49
3 47 49 7
3 15 48 5
3 5 48 6
3 7 49 8
3 49 15 8
3 45 46 50
3 46 51 50
3 46 7 51
3 50 51 52
3 52 51 9
3 9 51 7
3 22 53 9
3 9 53 52
3 45 50 54
3 50 55 54
3 50 52 55
3 54 55 56
3 52 57 55
3 57 58 55
3 57 59 58
3 55 58 56
3 52 53 57
3 53 60 57
3 53 22 60
3 57 60 59
3 56 58 61
3 58 62 61
3 58 59 62
3 61 62 30
3 22 63 60
3 63 64 60
3 63 21 64
3 60 64 59
3 21 65 64
3 65 66 64
3 65 34 66
3 64 66 59
3 34 65 19
3 19 65 21
3 67 26 68
3 26 69 68
3 69 23 70
3 23 69 28
3 28 69 26
3 70 23 71
3 42 72 73
3 42 43 72
3 43 54 72
3 43 45 54
3 72 54 56
3 21 63 20
3 20 63 22
3 74 71 10
3 71 23 10
3 26 67 0
3 0 67 1
3 59 66 31
3 31 66 34
3 30 62 31
3 31 62 59
3 75 61 30
3 2 76 0
3 0 76 77
3 77 76 78
3 76 79 78
3 76 2 79
3 78 79 80
3 80 79 81
3 79 82 81
3 79 2 82
3 81 82 3
3 3 82 4
3 4 82 2
3 1 83 2
3 2 83 4
3 80 81 42
3 81 3 42
3 73 84 42
3 42 84 80
3 12 85 10
3 10 85 74
3 14 86 15
3 86 12 15
3 14 87 86
3 87 85 86
3 87 74 85
3 86 85 12
3 16 88 17
3 88 18 17
3 16 89 88
3 89 90 88
3 89 28 90
3 88 90 18
3 28 89 23
3 23 89 16
3 18 90 24
3 24 90 28
3 77 91 0
3 91 29 0
3 37 92 33
3 33 92 32
3 39 93 36
3 36 93 37
3 29 94 27
3 27 94 39
3 29 95 94
3 95 96 94
3 95 97 96
3 94 96 39
3 29 91 95
3 91 98 95
3 91 77 98
3 95 98 97
3 39 96 93
3 96 99 93
3 96 97 99
3 93 99 37
3 77 100 98
3 100 101 98
3 100 102 101
3 98 101 97
3 102 103 101
3 103 104 101
3 103 105 104
3 101 104 97
3 102 106 103
3 106 107 103
3 106 73 107
3 103 107 105
3 97 104 99
3 104 108 99
3 104 105 108
3 99 108 37
3 73 106 84
3 106 109 84
3 106 102 109
3 84 109 80
3 80 109 78
3 109 100 78
3 109 102 100
3 78 100 77
3 37 108 92
3 108 110 92
3 108 105 110
3 92 110 32
3 105 111 110
3 111 112 110
3 111 75 112
3 110 112 32
3 105 107 111
3 107 113 111
3 107 73 113
3 111 113 75
3 32 112 30
3 112 75 30
3 56 114 115
3 114 113 115
3 114 75 113
3 115 113 73
3 1 116 83
3 116 117 83
3 116 118 117
3 83 117 4
3 119 120 121
3 120 122 121
3 120 123 122
3 121 122 118
3 118 122 40
3 40 122 123
3 123 124 40
3 124 14 40
3 4 117 40
3 40 117 118
3 14 124 87
3 124 125 87
3 124 123 125
3 87 125 74
3 126 127 67
3 67 127 1
3 68 128 67
3 67 128 126
3 126 128 129
3 128 130 129
3 128 68 130
3 129 130 119
3 70 131 69
3 69 131 68
3 68 131 130
3 131 132 130
3 131 70 132
3 130 132 119
3 119 132 133
3 132 134 133
3 132 70 134
3 133 134 135
3 135 134 71
3 71 134 70
3 74 136 71
3 71 136 135
3 56 115 72
3 72 115 73
3 75 114 61
3 61 114 56
3 1 127 116
3 127 137 116
3 127 126 137
3 116 137 118
3 118 137 121
3 137 129 121
3 137 126 129
3 121 129 119
3 119 133 120
3 133 138 120
3 133 135 138
3 120 138 123
3 123 138 125
3 138 136 125
3 138 135 136
3 125 136 74

CELL_TYPES 274
5
5
5
5
5
5
5
5
5
5
5
5
5
5
5
5
5
5
5
5
5
5
5
5
5
5
5
5
5
5
5
5
5
5
5
5
5
5
5
5
5
5
5
5
5
5
5
5
5
5
5
5
5
5
5
5
5
5
5
5
5
5
5
5
5
5
5
5
5
5
5
5
5
5
5
5
5
5
5
5
5
5
5
5
5
5
5
5
5
5
5
5
5
5
5
5
5
5
5
5
5
5
5
5
5
5
5
5
5
5
5
5
5
5
5
5
5
5
5
5
5
5
5
5
5
5
5
5
5
5
5
5
5
5
5
5
5
5
5
5
5
5
5
5
5
5
5
5
5
5
5
5
5
5
5
5
5
5
5
5
5
5
5
5
5
5
5
5
5
5
5
5
5
5
5
5
5
5
5
5
5
5
5
5
5
5
5
5
5
5
5
5
5
5
5
5
5
5
5
5
5
5
5
5
5
5
5
5
5
5
5
5
5
5
5
5
5
5
5
5
5
5
5
5
5
5
5
5
5
5
5
5
5
5
5
5
5
5
5
5
5
5
5
5
5
5
5
5
5
5
5
5
5
5
5
5
5
5
5
5
5
5
5
5
5
5
5
5
5
5
5
5
5
5

CELL_DATA 274
SCALARS cell_data_0 double
LOOKUP_TABLE default
0.000113652691641
0.000141759813087
2.32021720506e-07
5.79731025374e-05
8.35502980008e-05
7.85193621133e-05
7.80187511836e-06
0.000185256571675
5.61142838185e-05
3.83685361594e-05
7.34751298917e-05
0.000627067110155
0.000456343316633
2.82485570086e-05
0.000626027338564
0.00075181647481
8.38505623635e-05
0.000689847021249
0.000271539465413
1.6045938844e-07
4.45833892724e-05
0.000143293229172
0.000236181269762
1.81647965506e-05
0.000202727458342
1.91090490507e-06
2.37563781459e-05
2.81797900024e-05
2.42469822767e-05
4.46996916499e-05
1.67805184736e-05
1.64391675705e-05
8.63957457476e-06
6.40936313985e-05
0.000151315531335
6.03946666086e-06
2.21253282283e-05
1.10629710864e-05
1.68303847088e-06
3.32111045784e-05
0.000166091441587
0.000174554891122
0.000129919476083
0.000138838230504
0.000155494887089
0.000254940649317
0.00014188928645
0.000301296108146
0.000288697336923
0.000177022838321
8.92090853976e-05
9.65897805043e-05
0.000103625959212
0.000139071343079
8.58085976795e-05
6.1991340426e-05
7.37879745804e-05
0.000101174871802
4.504892876e-05
2.69143618598e-05
0.000286294133944
0.000166926610634
9.49618448536e-05
8.60858742025e-05
7.85987793378e-05
8.23850989364e-05
0.000133096667037
0.000110095665805
0.000365088148148
0.000507691339453
0.000299294156865
0.000527279719407
0.000382714862721
0.000695165136964
0.000237729210554
0.000715593355292
0.000133009548839
0.000220677701732
0.000142134859403
0.000111708155724
0.000246004047996
6.11260470092e-05
5.16920157721e-05
2.31228513389e-07
0.000158323692178
8.04916975353e-05
6.45033224711e-06
9.40555667648e-06
4.9555472642e-05
8.52497549979e-05
6.32694871459e-06
8.75768218058e-05
0.000152730394044
1.55797954347e-07
0.000126926180963
0.000163288020524
0.000233740527519
0.000210987730714
0.000179781291789
0.000196492662156
0.000132095764605
0.000139368249147
0.000314804095548
0.000390834889262
0.000305531665113
0.000345931344192
0.000438091094903
0.000215533038744
0.00024952332757
0.000177489437504
0.000174918211369
6.25288776575e-05
2.0164639007e-06
6.19662742582e-06
6.54074534677e-05
6.50642388324e-05
0.000218504449223
9.12503927948e-05
0.000179019172274
0.000169845956357
0.000101666929319
0.000105827345054
9.80983547525e-06
1.82256527466e-06
3.78149012325e-05
8.51816318862e-06
9.45429632394e-05
4.72365837057e-05
0.000169703649835
0.000159971762444
2.07859467307e-05
2.45249981291e-05
1.4906601795e-05
3.06697509584e-06
0.00011314591708
0.000164918982678
0.000163024268738
0.000107234294636
0.00010730946176
0.000105603871555
0.000102291201401
6.03532900193e-05
2.20235339007e-05
9.38067746778e-06
1.69001120046e-05
2.4327418154e-05
2.01755095518e-05
8.42142430664e-06
0.000110033099274
9.37793754345e-05
2.67497292098e-05
3.86919874725e-05
2.4761714076e-06
3.79111673043e-06
3.27213962377e-06
7.45595395919e-06
3.74382985651e-06
2.1336503972e-06
1.38590112916e-07
4.14016768091e-06
6.78691212446e-07
3.86373368949e-07
2.3309153335e-06
1.64366118279e-06
8.77409442731e-08
6.90513094444e-07
1.76504372614e-06
2.65863624994e-06
3.0547593409e-06
7.17142632534e-07
1.80921285951e-06
1.31941590277e-06
2.02511263581e-06
3.82972992364e-07
2.03119200549e-06
2.37365323628e-06
1.08799643889e-06
1.17467037651e-07
1.96384979774e-06
2.43902740152e-06
3.82624067822e-06
4.15306014703e-06
9.73787546111e-06
4.18953767409e-06
2.57896344815e-06
2.60790639069e-07
2.46466945504e-06
3.21879175836e-07
1.06735047727e-05
1.27045215933e-05
1.67552622458e-05
1.06812539532e-05
7.25826213063e-05
7.0009435174e-05
1.22628452818e-05
5.52087479979e-05
4.4151118732e-07
6.72346540133e-08
2.19438425116e-06
8.03117395582e-07
5.53562097432e-05
9.96739416984e-05
0.000109352140184
2.47794869574e-05
5.8946154904e-05
0.000160520089941
7.90291077907e-05
0.000168511412974
8.93557654727e-05
0.000118533806752
0.000332664002924
0.00051954204256
0.000274796800291
0.000374793290946
6.80584590045e-05
4.91268479945e-06
4.12354081353e-05
3.28902772103e-05
7.95495567622e-05
6.86373969003e-05
9.16324129336e-05
9.85797395994e-05
0.000178964913607
0.000184240211449
0.00012453320713
5.90991394932e-05
3.8369641428e-05
0.000124731233412
4.95813869338e-05
5.61529136427e-05
8.43122529105e-05
7.26987296092e-05
0.000106193597161
5.82013573508e-05
0.000126489133711
0.000126247204204
5.42654674527e-05
1.95695489546e-06
6.30355014201e-05
4.65655076038e-05
0.0001637235603
0.000163230350726
7.91737955245e-05
8.50796635599e-06
7.00681615904e-05
6.38747894582e-05
5.03992164644e-05
1.25679018579e-05
5.9154077672e-05
2.71522908233e-05
0.000121018978237
0.0001372757386
6.69075989283e-05
9.23635245637e-05
0.000610210746052
0.000464400986019
6.80941697745e-05
0.000104812279574
1.85790644847e-05
5.76977019398e-05
3.44839684523e-05
5.44039813505e-05
7.60815968815e-05
3.17298219674e-05
5.70340081353e-05
5.89088972687e-05
5.43654649224e-05
7.75516936442e-06
2.11933695136e-05
6.42354960026e-05
6.47428823014e-05
1.24673186231e-05
2.05180531273e-05
2.20598580674e-05

