# vtk DataFile Version 3.0
File Name: Molecule/sphere_dip_12/sphere_dip_12_0-s2.vtk
ASCII
DATASET UNSTRUCTURED_GRID
FIELD FieldData 1
TIME 1 1 double
0.0
POINTS 57 double
0.809016994375 -0.309016994375 -0.5
0.809016994375 0.309016994375 -0.5
1.0 0.0 0.0
0.525731112119 0.0 -0.850650808352
0.850650808352 0.525731112119 0.0
0.5 0.809016994375 -0.309016994375
0.309016994375 0.5 -0.809016994375
0.0 0.850650808352 -0.525731112119
0.5 0.809016994375 0.309016994375
0.0 1.0 0.0
0.0 0.850650808352 0.525731112119
-0.5 0.809016994375 0.309016994375
-0.5 0.809016994375 -0.309016994375
-0.850650808352 0.525731112119 0.0
-0.309016994375 0.5 0.809016994375
-0.809016994375 0.309016994375 0.5
-0.525731112119 0.0 0.850650808352
0.309016994375 0.5 0.809016994375
0.0 0.0 1.0
0.525731112119 0.0 0.850650808352
-0.309016994375 -0.5 0.809016994375
0.309016994375 -0.5 0.809016994375
0.0 -0.850650808352 0.525731112119
0.309016994375 -0.5 -0.809016994375
0.0 0.0 -1.0
-0.309016994375 -0.5 -0.809016994375
0.0 -0.850650808352 -0.525731112119
-0.525731112119 0.0 -0.850650808352
0.809016994375 0.309016994375 0.5
-0.809016994375 -0.309016994375 -0.5
-0.809016994375 0.309016994375 -0.5
-1.0 0.0 0.0
-0.850650808352 -0.525731112119 0.0
-0.309016994375 0.5 -0.809016994375
-0.5 -0.809016994375 -0.309016994375
-0.5 -0.809016994375 0.309016994375
0.0 -1.0 0.0
-0.809016994375 -0.309016994375 0.5
0.5 -0.809016994375 -0.309016994375
0.5 -0.809016994375 0.309016994375
0.850650808352 -0.525731112119 0.0
0.925325404176 -0.26286555606 0.0
0.417374053247 -0.25 0.829833901363
0.667374053247 -0.154508497188 0.675325404176
0.559016994375 -0.404508497188 0.654508497187
0.809016994375 -0.309016994375 0.5
0.404508497188 -0.654508497187 0.559016994375
0.654508497187 -0.559016994375 0.404508497188
0.829833901363 -0.417374053247 0.25
0.675325404176 -0.667374053247 0.154508497188
0.904508497187 -0.154508497188 0.25
0.904508497187 0.154508497188 0.25
0.809016994375 0.0 0.5
0.667374053247 0.154508497188 0.675325404176
0.154508497188 0.25 -0.904508497187
-0.154508497188 0.25 -0.904508497187
0.0 0.5 -0.809016994375

CELLS 110 440
3 0 1 2
3 0 3 1
3 2 1 4
3 4 1 5
3 1 6 5
3 1 3 6
3 5 6 7
3 4 5 8
3 5 9 8
3 5 7 9
3 8 9 10
3 10 9 11
3 9 12 11
3 9 7 12
3 11 12 13
3 10 11 14
3 11 15 14
3 11 13 15
3 14 15 16
3 10 14 17
3 14 18 17
3 14 16 18
3 17 18 19
3 16 20 18
3 20 21 18
3 20 22 21
3 3 23 24
3 23 25 24
3 23 26 25
3 24 25 27
3 4 8 28
3 8 17 28
3 8 10 17
3 27 29 30
3 29 31 30
3 29 32 31
3 30 31 13
3 7 33 12
3 33 30 12
3 33 27 30
3 12 30 13
3 32 34 35
3 34 36 35
3 34 26 36
3 35 36 22
3 32 35 37
3 35 20 37
3 35 22 20
3 37 20 16
3 16 15 37
3 15 31 37
3 15 13 31
3 37 31 32
3 27 25 29
3 25 34 29
3 25 26 34
3 29 34 32
3 26 38 36
3 38 39 36
3 36 39 22
3 3 0 23
3 0 38 23
3 0 40 38
3 23 38 26
3 2 41 0
3 0 41 40
3 21 42 18
3 18 42 19
3 19 42 43
3 42 44 43
3 42 21 44
3 43 44 45
3 21 46 44
3 46 47 44
3 46 39 47
3 44 47 45
3 39 46 22
3 22 46 21
3 45 47 48
3 47 49 48
3 47 39 49
3 48 49 40
3 40 41 48
3 41 50 48
3 41 2 50
3 48 50 45
3 2 51 50
3 51 52 50
3 51 28 52
3 50 52 45
3 28 51 4
3 4 51 2
3 45 52 43
3 52 53 43
3 52 28 53
3 43 53 19
3 19 53 17
3 17 53 28
3 40 49 38
3 38 49 39
3 24 54 3
3 3 54 6
3 24 55 54
3 55 56 54
3 55 33 56
3 54 56 6
3 33 55 27
3 27 55 24
3 6 56 7
3 56 33 7

CELL_TYPES 110
5
5
5
5
5
5
5
5
5
5
5
5
5
5
5
5
5
5
5
5
5
5
5
5
5
5
5
5
5
5
5
5
5
5
5
5
5
5
5
5
5
5
5
5
5
5
5
5
5
5
5
5
5
5
5
5
5
5
5
5
5
5
5
5
5
5
5
5
5
5
5
5
5
5
5
5
5
5
5
5
5
5
5
5
5
5
5
5
5
5
5
5
5
5
5
5
5
5
5
5
5
5
5
5
5
5
5
5
5
5

CELL_DATA 110
SCALARS cell_data_0 double
LOOKUP_TABLE default
6.80615054805e-05
0.00022179623866
9.7740874948e-06
4.37749215477e-05
0.000266856957328
0.000419134209737
0.000216016142561
3.73322881911e-05
0.000541013369058
0.000196620168523
0.000688337263681
0.000674358859321
0.00069000687688
0.000297142228357
0.00011508048805
0.000185040704286
8.47616815109e-05
6.48645707003e-05
2.55462027172e-05
0.000423121152272
0.00200419796178
0.00106246603983
0.00151596264576
0.00162607545252
0.0020237648413
0.000412978753708
0.000776562700832
0.000926745748754
0.000221222869874
0.000846877029127
6.07153019859e-05
0.000473165651758
0.000560581631621
0.000138417164275
0.000149766101646
0.00019201603472
2.71888919453e-05
0.000213731050929
0.000251784567275
0.000310553860704
7.1649229453e-06
7.32208185469e-06
7.68703897028e-06
0.000231940827714
8.7112089054e-05
2.29220395845e-05
0.000379548740535
0.000459206489417
0.000235269891966
2.29592017552e-05
1.85043623922e-05
1.81251371504e-06
7.98370842841e-06
0.000148068224585
0.000105177075395
1.1269443103e-05
0.00015724730251
0.000235754566428
3.24224788856e-05
5.65330186114e-05
0.00032823485908
0.000209159395298
5.32118754163e-05
7.4841634817e-05
2.32911156218e-05
2.29334334632e-05
0.00054633392802
0.000448777320301
1.75301207326e-05
2.3167433879e-05
7.1812293118e-06
9.09092544839e-05
1.56215462009e-06
1.37506723227e-05
4.32427846888e-06
0.000102202756198
3.57200504906e-05
4.91571869832e-05
0.000104175285324
1.88184850452e-06
4.02673961491e-06
1.07794229623e-06
2.10834416904e-05
1.78096697598e-05
2.29296356854e-05
0.000103733440387
2.00474203717e-06
2.67457566935e-06
2.73456684389e-06
0.000124328598599
5.59771867373e-07
2.30227076522e-06
0.00011132824903
2.09345835916e-06
5.26939669145e-06
8.15374312909e-06
0.000102630443212
0.000146454432076
1.0257862126e-05
5.01664818292e-06
0.000534047236506
0.000295450791485
0.000305994530252
4.8810198049e-05
8.63725783259e-05
6.27836259592e-05
0.00022732586183
0.000484236078529
0.000129782565151
0.000139057906528

