# vtk DataFile Version 3.0
File Name: Molecule/sphere_dip_12/sphere_dip_12_0-s5.vtk
ASCII
DATASET UNSTRUCTURED_GRID
FIELD FieldData 1
TIME 1 1 double
0.0
POINTS 223 double
0.5 0.809016994375 -0.309016994375
0.309016994375 0.5 -0.809016994375
0.0 0.850650808352 -0.525731112119
0.0 1.0 0.0
-0.5 0.809016994375 0.309016994375
-0.850650808352 0.525731112119 0.0
-0.809016994375 0.309016994375 0.5
-0.809016994375 -0.309016994375 -0.5
-1.0 0.0 0.0
-0.809016994375 0.309016994375 -0.5
-0.309016994375 0.5 -0.809016994375
-0.5 0.809016994375 -0.309016994375
-0.5 -0.809016994375 0.309016994375
0.0 -1.0 0.0
0.0 -0.850650808352 0.525731112119
0.5 -0.809016994375 -0.309016994375
0.5 -0.809016994375 0.309016994375
0.809016994375 -0.309016994375 -0.5
0.925325404176 -0.26286555606 0.0
0.850650808352 -0.525731112119 0.0
0.525731112119 0.0 0.850650808352
0.417374053247 -0.25 0.829833901363
0.667374053247 -0.154508497188 0.675325404176
0.559016994375 -0.404508497188 0.654508497187
0.309016994375 -0.5 0.809016994375
0.404508497188 -0.654508497187 0.559016994375
0.654508497187 -0.559016994375 0.404508497188
0.809016994375 -0.309016994375 0.5
0.675325404176 -0.667374053247 0.154508497188
0.829833901363 -0.417374053247 0.25
0.0 0.5 -0.809016994375
0.25 0.904508497187 0.154508497188
0.5 0.809016994375 0.309016994375
0.0 0.925325404176 0.26286555606
-0.25 0.904508497187 0.154508497188
-0.25 0.829833901363 0.417374053247
-0.25 0.904508497187 -0.154508497188
-0.5 0.809016994375 0.0
-0.404508497188 0.654508497187 0.559016994375
-0.309016994375 0.5 0.809016994375
0.417374053247 0.25 0.829833901363
0.26286555606 0.0 0.925325404176
-0.417374053247 -0.25 0.829833901363
-0.154508497188 -0.25 0.904508497187
-0.26286555606 0.0 0.925325404176
-0.309016994375 -0.5 0.809016994375
0.0 -0.5 0.809016994375
0.154508497188 -0.25 0.904508497187
0.0 0.0 1.0
0.417374053247 -0.25 -0.829833901363
0.309016994375 -0.5 -0.809016994375
0.154508497188 -0.25 -0.904508497187
0.525731112119 0.0 -0.850650808352
1.0 0.0 0.0
0.904508497187 0.154508497188 -0.25
0.925325404176 0.26286555606 0.0
0.829833901363 0.417374053247 -0.25
0.850650808352 0.525731112119 0.0
0.675325404176 0.667374053247 -0.154508497188
0.654508497187 0.559016994375 -0.404508497188
0.809016994375 0.309016994375 -0.5
0.417374053247 0.25 -0.829833901363
0.809016994375 0.309016994375 0.5
0.829833901363 0.417374053247 0.25
-0.667374053247 0.154508497188 -0.675325404176
-0.559016994375 0.404508497188 -0.654508497187
-0.417374053247 0.25 -0.829833901363
-0.525731112119 0.0 -0.850650808352
-0.5 -0.809016994375 -0.309016994375
-0.25 -0.904508497187 -0.154508497188
-0.25 -0.829833901363 -0.417374053247
0.0 -0.925325404176 -0.26286555606
0.0 -0.850650808352 -0.525731112119
0.962662702088 -0.13143277803 0.0
0.738195523811 -0.231762745782 0.587662702088
0.819425447869 -0.363195523811 0.375
0.877579652769 -0.340119804654 0.125
0.914916950682 -0.208687026624 0.125
0.867171199275 -0.285941275218 0.25
0.904508497187 -0.154508497188 0.25
0.952254248593 -0.077254248594 0.125
0.856762745781 -0.231762745782 0.375
0.952254248593 0.077254248594 0.125
0.904508497187 0.0 0.25
0.904508497187 0.154508497188 0.25
0.856762745781 0.077254248594 0.375
0.856762745781 -0.077254248594 0.375
0.809016994375 0.0 0.5
0.856762745781 0.231762745782 0.375
0.809016994375 0.154508497188 0.5
0.809016994375 -0.154508497188 0.5
0.87757965277 0.340119804654 0.125
0.738195523811 -0.077254248594 0.587662702088
0.738195523811 0.077254248594 0.587662702088
0.667374053247 0.0 0.675325404176
0.667374053247 0.154508497188 0.675325404176
0.738195523811 0.231762745782 0.587662702088
0.340119804654 0.125 -0.87757965277
0.231762745782 0.375 -0.856762745781
0.154508497188 0.25 -0.904508497187
0.0 0.0 -1.0
-0.077254248594 0.125 -0.952254248593
0.077254248594 0.125 -0.952254248593
0.0 0.25 -0.904508497187
-0.154508497188 0.25 -0.904508497187
-0.231762745782 0.375 -0.856762745781
-0.340119804654 0.125 -0.87757965277
0.26286555606 0.0 -0.925325404176
0.394298334089 0.0 -0.887988106264
0.208687026624 -0.125 -0.914916950682
0.13143277803 0.0 -0.962662702088
0.077254248594 -0.125 -0.952254248593
0.0 -0.5 -0.809016994375
0.0 -0.25 -0.904508497187
-0.077254248594 -0.125 -0.952254248593
-0.154508497188 -0.25 -0.904508497187
-0.13143277803 0.0 -0.962662702088
-0.208687026624 -0.125 -0.914916950682
-0.26286555606 0.0 -0.925325404176
-0.417374053247 -0.25 -0.829833901363
-0.394298334089 0.0 -0.887988106264
0.208687026624 0.125 -0.914916950682
-0.208687026624 0.125 -0.914916950682
0.809016994375 0.0 -0.5
-0.850650808352 -0.525731112119 0.0
-0.925325404176 -0.26286555606 0.0
-0.675325404176 -0.667374053247 0.154508497188
-0.829833901363 -0.417374053247 0.25
-0.654508497187 -0.559016994375 0.404508497188
-0.809016994375 -0.309016994375 0.5
-0.404508497188 -0.654508497187 0.559016994375
-0.559016994375 -0.404508497188 0.654508497187
-0.525731112119 0.0 0.850650808352
-0.667374053247 0.154508497188 0.675325404176
-0.667374053247 -0.154508497188 0.675325404176
-0.809016994375 0.0 0.5
-0.904508497187 0.154508497188 0.25
-0.904508497187 -0.154508497188 0.25
-0.309016994375 -0.5 -0.809016994375
-0.404508497188 -0.654508497187 -0.559016994375
-0.559016994375 -0.404508497188 -0.654508497187
-0.654508497187 -0.559016994375 -0.404508497188
0.654508497187 -0.559016994375 -0.404508497188
0.559016994375 -0.404508497188 -0.654508497187
0.404508497188 -0.654508497187 -0.559016994375
0.154508497188 -0.675325404176 -0.667374053247
0.25 -0.829833901363 -0.417374053247
0.25 0.867171199275 0.285941275218
0.25 0.829833901363 0.417374053247
0.125 0.914916950682 0.208687026624
0.125 0.877579652769 0.340119804654
0.125 0.840242354857 0.471552582683
0.0 0.887988106264 0.394298334089
0.0 0.850650808352 0.525731112119
-0.125 0.840242354857 0.471552582683
-0.125 0.877579652769 0.340119804654
-0.077254248594 0.762988106264 0.596552582683
-0.202254248594 0.752579652769 0.542374053247
-0.154508497188 0.675325404176 0.667374053247
-0.231762745782 0.587662702088 0.738195523811
-0.417374053247 0.25 0.829833901363
-0.363195523811 0.375 0.819425447869
0.077254248594 0.762988106264 0.596552582683
0.0 0.675325404176 0.667374053247
0.154508497188 0.675325404176 0.667374053247
-0.077254248594 0.587662702088 0.738195523811
0.077254248594 0.587662702088 0.738195523811
0.0 0.5 0.809016994375
-0.154508497188 0.5 0.809016994375
0.231762745782 0.587662702088 0.738195523811
0.154508497188 0.5 0.809016994375
0.309016994375 0.5 0.809016994375
-0.231762745782 0.375 0.856762745781
-0.077254248594 0.375 0.856762745781
-0.154508497188 0.25 0.904508497187
0.0 0.25 0.904508497187
0.077254248594 0.375 0.856762745781
0.154508497188 0.25 0.904508497187
-0.077254248594 0.125 0.952254248593
0.077254248594 0.125 0.952254248593
0.231762745782 0.375 0.856762745781
-0.285941275218 0.25 0.867171199275
-0.340119804654 0.125 0.877579652769
-0.208687026624 0.125 0.914916950682
-0.13143277803 0.0 0.962662702088
0.363195523811 0.375 0.819425447869
0.285941275218 0.25 0.867171199275
-0.471552582683 -0.125 0.840242354857
-0.363195523811 -0.375 0.819425447869
0.154508497188 -0.5 -0.809016994375
-0.154508497188 -0.5 -0.809016994375
-0.077254248594 -0.375 -0.856762745781
-0.231762745782 -0.375 -0.856762745781
-0.154508497188 -0.675325404176 -0.667374053247
0.0 -0.675325404176 -0.667374053247
-0.285941275218 -0.25 -0.867171199275
-0.363195523811 -0.375 -0.819425447869
0.404508497188 0.654508497187 0.559016994375
0.606762745782 0.481762745781 0.529508497187
0.327254248594 0.742171199275 0.488195523811
0.202254248594 0.752579652769 0.542374053247
0.279508497188 0.664916950682 0.613195523811
0.356762745782 0.577254248593 0.684016994375
-0.613195523811 -0.279508497188 0.664916950682
-0.471552582683 -0.125 -0.840242354857
-0.667374053247 -0.154508497188 -0.675325404176
-0.613195523811 -0.279508497188 -0.664916950682
0.542374053247 0.202254248594 0.752579652769
0.856762745781 0.231762745782 -0.375
0.856762745781 -0.0772542485935 -0.375
0.773606259093 0.270389870079 0.543831351044
0.702784788529 0.193135621485 0.631494053132
0.398606259093 0.413627124297 0.775594096825
0.434016994375 0.452254248594 0.731762745781
0.523606259093 0.365881372891 0.698339848231
0.488195523811 0.327254248594 0.742171199276
0.559016994375 0.404508497188 0.654508497187
0.613195523811 0.279508497188 0.664916950682
0.648606259093 0.318135621485 0.621085599637
0.577784788529 0.240881372891 0.708748301726
0.684016994375 0.356762745782 0.577254248593
0.481762745782 0.529508497188 0.606762745781
0.452784788529 0.288627124297 0.786002550319

CELLS 442 1768
3 0 1 2
3 0 2 3
3 4 5 6
3 7 8 9
3 9 8 5
3 2 10 11
3 11 9 5
3 12 13 14
3 15 16 13
3 13 16 14
3 17 18 19
3 20 21 22
3 21 23 22
3 21 24 23
3 24 25 23
3 25 26 23
3 25 16 26
3 23 26 27
3 16 25 14
3 14 25 24
3 26 28 29
3 26 16 28
3 29 28 19
3 19 28 15
3 15 28 16
3 1 30 2
3 30 10 2
3 3 31 0
3 0 31 32
3 33 3 34
3 35 34 4
3 3 36 34
3 36 37 34
3 36 11 37
3 34 37 4
3 11 36 2
3 2 36 3
3 4 37 5
3 37 11 5
3 35 4 38
3 39 38 6
3 6 38 4
3 40 41 20
3 42 43 44
3 45 46 43
3 46 47 43
3 46 24 47
3 43 47 48
3 24 46 14
3 14 46 45
3 49 50 51
3 17 49 52
3 48 47 21
3 21 47 24
3 20 41 21
3 21 41 48
3 53 54 55
3 54 56 55
3 55 56 57
3 57 56 58
3 56 59 58
3 56 60 59
3 58 59 0
3 0 59 1
3 1 59 60
3 52 61 60
3 60 61 1
3 57 58 32
3 58 0 32
3 62 63 32
3 32 63 57
3 9 64 7
3 10 65 11
3 65 9 11
3 10 66 65
3 66 64 65
3 66 67 64
3 65 64 9
3 68 69 12
3 69 13 12
3 68 70 69
3 70 71 69
3 70 72 71
3 69 71 13
3 13 71 15
3 53 73 17
3 73 18 17
3 27 74 23
3 23 74 22
3 29 75 26
3 26 75 27
3 18 76 19
3 19 76 29
3 18 77 76
3 77 78 76
3 77 79 78
3 76 78 29
3 18 73 77
3 73 80 77
3 73 53 80
3 77 80 79
3 29 78 75
3 78 81 75
3 78 79 81
3 75 81 27
3 53 82 80
3 82 83 80
3 82 84 83
3 80 83 79
3 84 85 83
3 85 86 83
3 85 87 86
3 83 86 79
3 84 88 85
3 88 89 85
3 88 62 89
3 85 89 87
3 79 86 81
3 86 90 81
3 86 87 90
3 81 90 27
3 62 88 63
3 88 91 63
3 88 84 91
3 63 91 57
3 57 91 55
3 91 82 55
3 91 84 82
3 55 82 53
3 27 90 74
3 90 92 74
3 90 87 92
3 74 92 22
3 87 93 92
3 93 94 92
3 93 95 94
3 92 94 22
3 87 89 93
3 89 96 93
3 22 94 20
3 94 95 20
3 52 97 61
3 97 98 61
3 97 99 98
3 61 98 1
3 100 101 102
3 101 103 102
3 101 104 103
3 102 103 99
3 99 103 30
3 30 103 104
3 104 105 30
3 105 10 30
3 1 98 30
3 30 98 99
3 10 105 66
3 105 106 66
3 105 104 106
3 66 106 67
3 107 108 49
3 49 108 52
3 51 109 49
3 49 109 107
3 107 109 110
3 109 111 110
3 109 51 111
3 110 111 100
3 112 113 51
3 51 113 111
3 113 114 111
3 113 115 114
3 111 114 100
3 100 114 116
3 114 117 116
3 114 115 117
3 116 117 118
3 118 117 119
3 119 120 118
3 52 108 97
3 108 121 97
3 108 107 121
3 97 121 99
3 99 121 102
3 121 110 102
3 121 107 110
3 102 110 100
3 100 116 101
3 116 122 101
3 116 118 122
3 101 122 104
3 104 122 106
3 122 120 106
3 122 118 120
3 106 120 67
3 60 123 52
3 52 123 17
3 124 125 7
3 7 125 8
3 12 126 68
3 68 126 124
3 124 126 127
3 126 128 127
3 126 12 128
3 127 128 129
3 12 130 128
3 130 131 128
3 130 45 131
3 128 131 129
3 45 130 14
3 14 130 12
3 132 133 134
3 133 135 134
3 133 6 135
3 134 135 129
3 6 136 135
3 136 137 135
3 136 8 137
3 135 137 129
3 8 136 5
3 5 136 6
3 129 137 127
3 137 125 127
3 137 8 125
3 127 125 124
3 138 139 140
3 139 141 140
3 139 68 141
3 140 141 7
3 7 141 124
3 141 68 124
3 17 142 143
3 142 144 143
3 142 15 144
3 143 144 50
3 15 142 19
3 19 142 17
3 50 144 145
3 144 146 145
3 144 15 146
3 145 146 72
3 31 147 32
3 32 147 148
3 31 149 147
3 149 150 147
3 149 33 150
3 147 150 148
3 33 149 3
3 3 149 31
3 148 150 151
3 150 152 151
3 150 33 152
3 151 152 153
3 153 152 154
3 152 155 154
3 152 33 155
3 154 155 35
3 35 155 34
3 34 155 33
3 153 154 156
3 154 157 156
3 154 35 157
3 156 157 158
3 158 157 38
3 38 157 35
3 39 159 38
3 38 159 158
3 6 133 160
3 160 133 132
3 160 161 6
3 6 161 39
3 153 156 162
3 156 163 162
3 156 158 163
3 162 163 164
3 158 165 163
3 165 166 163
3 165 167 166
3 163 166 164
3 158 159 165
3 159 168 165
3 159 39 168
3 165 168 167
3 164 166 169
3 166 170 169
3 166 167 170
3 169 170 171
3 39 172 168
3 172 173 168
3 172 174 173
3 168 173 167
3 174 175 173
3 175 176 173
3 175 177 176
3 173 176 167
3 174 178 175
3 178 179 175
3 178 48 179
3 175 179 177
3 167 176 170
3 176 180 170
3 176 177 180
3 170 180 171
3 39 161 172
3 161 181 172
3 161 160 181
3 172 181 174
3 160 182 181
3 182 183 181
3 182 44 183
3 181 183 174
3 44 182 132
3 132 182 160
3 174 183 178
3 183 184 178
3 183 44 184
3 178 184 48
3 171 180 185
3 180 186 185
3 180 177 186
3 185 186 40
3 40 186 41
3 41 186 177
3 177 179 41
3 179 48 41
3 132 187 44
3 187 42 44
3 42 188 43
3 188 45 43
3 48 184 43
3 43 184 44
3 50 189 51
3 189 112 51
3 112 190 191
3 190 192 191
3 190 138 192
3 191 192 115
3 138 190 193
3 190 194 193
3 190 112 194
3 193 194 72
3 72 194 145
3 194 189 145
3 194 112 189
3 145 189 50
3 115 192 195
3 192 196 195
3 192 138 196
3 195 196 119
3 197 198 32
3 32 198 62
3 148 199 32
3 32 199 197
3 148 200 199
3 200 201 199
3 200 164 201
3 199 201 197
3 148 151 200
3 151 162 200
3 151 153 162
3 200 162 164
3 197 201 202
3 201 169 202
3 201 164 169
3 202 169 171
3 45 188 131
3 188 203 131
3 188 42 203
3 131 203 129
3 129 203 134
3 203 187 134
3 203 42 187
3 134 187 132
3 67 204 205
3 204 206 205
3 204 119 206
3 205 206 7
3 119 196 206
3 196 140 206
3 196 138 140
3 206 140 7
3 17 143 49
3 49 143 50
3 95 207 20
3 207 40 20
3 60 208 123
3 208 209 123
3 208 54 209
3 123 209 17
3 17 209 53
3 209 54 53
3 54 208 56
3 208 60 56
3 67 205 64
3 64 205 7
3 138 193 70
3 70 193 72
3 68 139 70
3 70 139 138
3 72 146 71
3 71 146 15
3 62 210 89
3 89 210 96
3 96 211 93
3 93 211 95
3 171 212 213
3 212 214 213
3 212 215 214
3 213 214 216
3 215 217 214
3 217 218 214
3 217 96 218
3 214 218 216
3 215 219 217
3 219 211 217
3 219 95 211
3 217 211 96
3 216 218 220
3 218 210 220
3 218 96 210
3 220 210 62
3 112 191 113
3 113 191 115
3 115 195 117
3 117 195 119
3 119 204 120
3 120 204 67
3 171 213 202
3 213 221 202
3 213 216 221
3 202 221 197
3 197 221 198
3 221 220 198
3 221 216 220
3 198 220 62
3 95 219 207
3 219 222 207
3 219 215 222
3 207 222 40
3 40 222 185
3 222 212 185
3 222 215 212
3 185 212 171

CELL_TYPES 442
5
5
5
5
5
5
5
5
5
5
5
5
5
5
5
5
5
5
5
5
5
5
5
5
5
5
5
5
5
5
5
5
5
5
5
5
5
5
5
5
5
5
5
5
5
5
5
5
5
5
5
5
5
5
5
5
5
5
5
5
5
5
5
5
5
5
5
5
5
5
5
5
5
5
5
5
5
5
5
5
5
5
5
5
5
5
5
5
5
5
5
5
5
5
5
5
5
5
5
5
5
5
5
5
5
5
5
5
5
5
5
5
5
5
5
5
5
5
5
5
5
5
5
5
5
5
5
5
5
5
5
5
5
5
5
5
5
5
5
5
5
5
5
5
5
5
5
5
5
5
5
5
5
5
5
5
5
5
5
5
5
5
5
5
5
5
5
5
5
5
5
5
5
5
5
5
5
5
5
5
5
5
5
5
5
5
5
5
5
5
5
5
5
5
5
5
5
5
5
5
5
5
5
5
5
5
5
5
5
5
5
5
5
5
5
5
5
5
5
5
5
5
5
5
5
5
5
5
5
5
5
5
5
5
5
5
5
5
5
5
5
5
5
5
5
5
5
5
5
5
5
5
5
5
5
5
5
5
5
5
5
5
5
5
5
5
5
5
5
5
5
5
5
5
5
5
5
5
5
5
5
5
5
5
5
5
5
5
5
5
5
5
5
5
5
5
5
5
5
5
5
5
5
5
5
5
5
5
5
5
5
5
5
5
5
5
5
5
5
5
5
5
5
5
5
5
5
5
5
5
5
5
5
5
5
5
5
5
5
5
5
5
5
5
5
5
5
5
5
5
5
5
5
5
5
5
5
5
5
5
5
5
5
5
5
5
5
5
5
5
5
5
5
5
5
5
5
5
5
5
5
5
5
5
5
5
5
5
5
5
5
5
5
5
5
5
5
5
5
5
5
5
5
5
5
5
5
5
5
5
5
5
5
5
5
5
5
5
5
5
5
5
5
5
5
5
5
5
5
5
5
5
5
5
5
5
5
5
5
5
5
5

CELL_DATA 442
SCALARS cell_data_0 double
LOOKUP_TABLE default
0.000163921842382
1.06592010974e-05
9.97226874198e-05
0.000127336863848
9.27465124587e-06
0.000151312643129
7.48159549876e-06
0.00010551367937
0.000300262459567
6.82024094091e-05
2.36557689038e-05
6.41847452459e-05
8.4509767925e-05
2.33899604967e-05
1.37082370326e-05
0.000107560799239
0.000122128586039
6.72611392734e-05
6.14772243824e-05
3.64058956169e-05
0.000354563346311
0.000244435592103
0.00023822696249
0.000465937251536
0.000446651897757
0.000175629102477
0.000178808748286
2.68488910702e-06
2.51242632356e-05
0.000169229072173
0.000147558004273
0.000138273580382
0.000122532907301
4.54016044108e-06
0.000145790939439
6.93637453119e-06
1.89893356559e-06
3.17190219638e-05
3.56976406881e-05
6.5783914928e-05
0.000184707727987
0.000125852518069
3.47758645918e-05
6.41857648011e-05
5.47057323274e-05
8.2311437174e-05
5.11422468023e-05
8.83374610592e-05
2.97983684747e-05
2.53237331975e-05
0.000138534559395
0.000190006164009
6.52907837622e-05
1.95152776146e-05
2.75673505177e-05
6.39622526494e-05
1.27098466756e-06
1.40133985224e-05
4.1143064317e-06
7.9430341719e-06
2.36994018668e-05
2.57559568397e-05
1.0980799079e-05
0.000114191690672
0.000145688191313
0.000192205260265
0.000188892689455
1.98552634553e-05
2.30786300971e-05
3.08879044721e-05
3.92174051596e-05
0.000115018400649
0.000166425230052
0.000107591464971
0.000131724402235
0.000138731515252
0.000125143467643
7.44023316011e-05
2.45444120994e-06
3.22016894433e-05
0.000162876050034
0.000334280624408
0.000307439220676
0.00011639240623
0.000412591277503
0.000215005042595
0.000261000343301
6.79220498287e-05
0.000114079431605
0.000291816636571
0.000211367502482
0.000182647007743
0.000214648392228
0.00024093962472
0.000378994732138
0.000248679492006
0.000227828118689
0.000233498584361
0.000299161194015
0.000125448172417
0.000189751585662
0.000232304081025
0.00032500047958
0.000199494818345
0.000170746598688
0.000140635337672
0.000220523238259
0.000287996839447
0.000119616962663
0.000328624807082
0.000330059919408
0.000301656726212
0.000175479853299
0.000432560485328
0.000353133154332
0.00015411649768
0.000233867906596
0.000232810435013
0.000415443968119
0.000317713708186
0.00022834572896
0.000150932155772
0.000401611600596
0.00069342615041
0.000153400592281
0.000144940338714
0.000353903280627
0.000649817355114
0.000123286261102
0.000161653667576
0.000293263862929
0.000253366198743
0.00015363132938
0.000206362487965
0.000317518668807
0.000170696147146
0.000213927758199
0.000165325876767
0.000239465509305
0.000185177188842
0.000122266459927
6.21105235761e-05
4.45838974616e-06
4.55498550216e-05
4.67541448598e-05
8.90241303376e-05
7.79972413546e-05
7.62892760859e-05
6.37666335451e-05
0.000126080401904
0.00011779776055
0.000101602169998
7.89312810676e-05
5.51873863547e-05
0.000121455465257
6.78809011605e-05
9.04227859707e-05
9.14521239744e-05
7.62369683139e-05
8.83248620354e-05
7.05440548336e-05
8.53164944182e-05
9.11714206608e-05
5.2772213526e-05
6.63758060998e-05
5.30799856992e-05
8.00151578765e-05
0.000111543253041
7.33199529715e-05
9.02805030048e-05
7.32066551387e-05
9.86526123422e-05
7.91336845003e-05
7.39452780757e-05
6.155674073e-05
6.4786363268e-05
0.000107483072482
8.77598130903e-05
3.10192186101e-05
7.31593592704e-05
4.85606502164e-05
8.49452485873e-05
5.32962577627e-05
5.96825485256e-05
5.9156283102e-05
7.19429446333e-05
7.81508189274e-05
8.01831643526e-05
6.96834622772e-05
6.91170916336e-05
6.13242730729e-05
5.56396088689e-05
5.70686248638e-05
3.50441888376e-05
9.80436436584e-05
9.68432649194e-05
0.000216114925907
5.31830512933e-05
4.84207323043e-05
0.000167295637253
0.000121763741977
0.000100362534933
9.69265709976e-05
0.000118585752526
0.000136136535939
0.000181410283424
8.82381220869e-05
0.000181531560496
6.43356704494e-05
9.69498470912e-05
7.0906766917e-06
5.1961696695e-06
1.62186463752e-05
1.24925292481e-05
5.97499853343e-06
6.31147301233e-06
1.5065261247e-06
2.40348888844e-05
2.91591975876e-05
5.37103338348e-05
4.85528716411e-05
7.30300633177e-05
5.19374078722e-05
0.000174112585862
9.38382424149e-05
6.46872326653e-05
3.84053096342e-05
4.89076386383e-05
4.28489987882e-05
6.77061759235e-05
5.87505169185e-05
8.02488699024e-05
1.22364876488e-05
0.000100699581642
7.01915463466e-05
3.51459901584e-05
8.09022778627e-05
6.43201650524e-05
8.20643678926e-07
4.72500771435e-05
8.58725393843e-06
1.29031926127e-05
5.73454981211e-06
1.27575140968e-05
1.84756160454e-05
6.51848671596e-06
2.79022386272e-05
1.26571908235e-05
6.28140519026e-06
7.92586679054e-06
1.43662283444e-05
2.41197914887e-05
2.59329468097e-05
9.03426234693e-06
1.41718211166e-05
1.0126526662e-05
9.14278708607e-05
9.84472656645e-05
2.79647806009e-05
1.02734613171e-05
1.00604628759e-05
2.47448406569e-05
7.04587700043e-05
4.46813451495e-05
4.49714321767e-05
6.20731308796e-05
0.000117474222526
8.09547252794e-05
8.78101252439e-05
1.37587835636e-05
3.23673778605e-05
6.04312017361e-06
1.54723602162e-05
1.63632589831e-05
1.20788103494e-05
7.0083941319e-06
4.04248761158e-06
2.21215003064e-05
1.73217878218e-05
1.11669840466e-05
1.8010141663e-05
5.14162692839e-06
5.26349096712e-05
3.81877692165e-05
1.00246785537e-05
2.78372660429e-05
2.85466470859e-05
2.32255869848e-05
1.72670131765e-06
7.55653480171e-06
1.2098157774e-05
5.13663165064e-06
1.40303724973e-05
6.33931060977e-06
1.82401101149e-05
1.50662741233e-05
1.50099663084e-05
1.37074161749e-05
1.88036238417e-06
1.40080984453e-05
2.40621981692e-06
2.26969390696e-05
1.09792289328e-05
6.86118940783e-06
2.63407469678e-05
1.1151822634e-06
2.05773172191e-05
8.2471893397e-06
1.61380740535e-05
1.16312739783e-05
2.10047535144e-05
2.41643336883e-05
1.66089826522e-05
1.71504700367e-05
1.6281516187e-05
1.31901916624e-05
1.05953755973e-05
2.64367176875e-05
1.95801127857e-05
1.20496229923e-05
8.91004309643e-07
1.01439903925e-05
3.74724462551e-05
3.36537622252e-05
1.34852770248e-05
5.46296068517e-06
4.22958401946e-05
6.08166097112e-05
3.48920411024e-05
3.97626656455e-05
8.00945507467e-05
0.000102428161224
5.1284969668e-05
3.46144355269e-05
1.93133214623e-05
6.82739062283e-05
2.68284914908e-05
2.82320013711e-05
6.1943649536e-05
1.24633616115e-05
3.28523600907e-05
3.7846431529e-05
5.10847632226e-05
3.41776869927e-05
6.24313339512e-05
4.8153942471e-05
2.52185753413e-05
4.21642579146e-05
1.63770919717e-05
1.32616676031e-05
1.40485355219e-05
1.17670826718e-05
2.75460459768e-06
2.5682592309e-06
1.58279003556e-05
1.32603359956e-06
2.46379569255e-06
4.78016556e-06
2.57671304923e-05
2.01067702871e-05
2.5924299022e-05
5.3013133912e-05
3.95984928195e-05
5.36117315716e-05
0.000132667587215
0.000171819334564
0.000110140202244
6.78471400817e-05
3.23115399389e-05
5.26249524726e-05
4.69907168633e-05
2.28565413967e-05
6.03579576472e-05
5.34044894451e-05
6.13230267553e-05
3.02235966228e-05
5.88744056153e-05
4.95280613324e-05
4.99894780763e-05
2.81109341518e-05
9.25712094293e-05
0.000115544947839
5.75631282283e-06
4.11994275163e-06
6.50232483533e-06
1.23721187157e-05
1.6283626138e-05
9.83889399842e-06
2.58137112443e-05
1.71756175615e-05
1.05033734464e-05
9.41825705651e-06
0.000118518554303
8.34213108353e-05
0.000132113367812
0.000202401630128
0.000116749636714
3.18395377402e-05
6.46822010704e-05
0.000163438465683
1.88084787268e-05
6.34993361515e-05
8.24419522628e-05
2.86957214824e-05
1.29125527425e-06
4.01684797696e-08
1.18615991896e-05
1.62918589191e-05
1.20279499164e-05
5.36070801205e-07
3.03295049034e-05
1.41901341731e-05
1.31936236727e-05
5.35347790166e-07
1.42895166409e-07
3.22221422708e-05
1.46703032827e-05
1.67475542618e-06
3.47375007877e-05
2.20260658894e-06
6.86894952256e-05
7.97587691313e-05
6.06627361161e-05
5.50706430783e-05
4.21143271146e-05
3.41328306289e-05
3.58896837807e-05
3.41587033197e-05
4.1303937255e-05
2.95584033502e-05
1.41364322037e-06
1.06735421313e-06
3.46980239637e-05
8.47047044014e-08
6.82583727991e-07
2.91540711113e-07
1.34881963727e-05
1.87793714285e-07
5.78348259579e-08
3.10465448501e-07
1.31445458853e-05
7.12381977664e-07

