# vtk DataFile Version 3.0
File Name: Molecule/sphere_excent/sphere_excent_0-s4.vtk
ASCII
DATASET UNSTRUCTURED_GRID
FIELD FieldData 1
TIME 1 1 double
0.0
POINTS 360 double
0.85057497025 -0.52591699362 -0.00028660416137
0.99740236998 0.0038322354667 0.015739947557
0.82018435001 -0.31227949262 0.47691884637
-0.81762754917 -0.32458868623 -0.47431650758
-0.85047411919 -0.52597743273 0.0011366710532
-0.99748408794 0.0045654135756 -0.015485121869
-0.49955046177 -0.81130886078 -0.30322036147
-0.57073789835 -0.63889157772 -0.5142044425
0.50572735071 -0.81622326374 -0.27559363842
0.50438064337 -0.81654125452 0.27147614956
0.0173439309 -0.99783611298 0.0007946138503
0.86031126976 0.43748003244 -0.26076862216
0.86803668737 0.49208521843 0.014344288036
0.95295709372 0.1445377171 -0.26600986719
0.68578773737 0.58491760492 -0.43305879831
0.71321815252 0.67898035049 -0.16786433756
0.81210404634 0.26790094376 -0.51661032438
0.58663856983 0.42484954 -0.6894518137
0.44495561719 0.6658077836 -0.59622180462
0.3014985621 0.48937666416 -0.81826406717
0.53364443779 0.025431109592 -0.84429883957
5.0574511988e-05 0.85070443153 0.52564442158
-0.24658000469 0.85275453329 0.45713788271
-0.15637758374 0.72058469057 0.67273688316
-0.43070966005 0.68495130539 0.58764582872
-0.50428009033 0.79924064875 0.32178017497
-0.68599909544 0.58470934629 0.43316906691
-0.59648686647 0.44106668234 0.66753733158
-0.82145476341 0.28698846698 0.49232649803
-0.70151621103 0.6824657917 0.19811074436
-0.85979962349 0.43965053558 0.25865277648
0.15781493485 0.70742183924 0.68880003691
0.2392295897 0.8617348671 0.44391441345
-0.87039995193 0.48550802469 0.014316547662
-0.95415538549 0.150535658 0.25826507807
0.68982517719 -0.16674555838 -0.70411473513
0.85452789068 -0.017028590664 -0.51920586824
0.46761643887 -0.28281375766 0.83461523056
0.59706515074 -0.4321398735 0.67603486776
0.69265341759 -0.15848651528 0.70352864265
0.34453555942 -0.5122807622 0.78599441051
0.43798664212 -0.68774431944 0.57896572351
0.68771576881 -0.5893239975 0.42378759384
0.18650712073 -0.71022731066 0.67844331264
0.24773526192 -0.8663520813 0.43079423904
-0.001000253018 -0.85277199745 0.52204060555
0.43656504154 -0.25351691246 -0.86309760809
0.27830979228 -0.0006770392647 -0.96043854952
0.17063738406 -0.25741642714 -0.95018607378
0.81003755331 0.31118401885 0.49555823207
0.85694217682 0.0066027799621 0.51358628273
0.87483173609 0.4036013186 0.25617679954
0.7053232193 0.1594620198 0.6898009181
0.58331364393 0.40953272581 0.70129770041
0.73195958138 0.43062144518 0.52697730064
0.33769473433 0.4719222188 0.81221240759
0.44670733809 0.28226351738 0.84789156914
-0.69266915321 -0.15868891776 -0.70350569487
-0.85981702805 0.0097746625543 -0.50869297981
-0.70005059242 0.14394879341 -0.6978083849
-0.85755604506 0.33297881484 -0.38425004482
-0.51139384508 -0.80891799927 0.28681656718
-0.6880171299 -0.58801418543 0.42525428534
-0.81558120251 -0.30001401901 0.49455818534
-0.43499189615 -0.69183629751 0.57628244162
-0.58820706606 -0.45453158021 0.66828495264
-0.32983252406 -0.53450000286 0.77710694075
-0.24571792781 -0.85672575235 0.44983831048
-0.18294091523 -0.71397382021 0.67538273335
-0.59141987562 -0.43714818358 -0.67734652758
0.25443804264 -0.86349529028 -0.43516606092
-0.12510153651 -0.96086335182 0.24072596431
0.58901369572 -0.43007495999 -0.68417179585
0.8182746172 -0.30519551039 -0.48650023341
0.32849037647 -0.49531432986 -0.8023326993
0.6875692606 -0.58853828907 -0.42526963353
0.43079334497 -0.6864643693 -0.58603662252
0.17156143486 -0.70919084549 -0.68223679066
0.41566598415 0.25390067697 -0.87309467793
0.15132264793 0.25767219067 -0.95414340496
0.013616002165 0.0053047062829 -0.99886864424
-0.14421391487 0.27232530713 -0.94965797663
-0.00220512948 0.51853764057 -0.85502403975
0.0013138623908 0.53861302137 0.84157955647
0.17247356474 0.52402764559 0.83354699612
0.38324925303 0.59291309118 0.70801854134
0.00039766018745 0.26895365119 0.96315103769
0.081977896392 0.40182453394 0.91205823421
-0.070671156049 0.39577046037 0.91484475136
0.15719026327 0.27839717269 0.94682180882
-0.17332914472 0.26112213731 0.94929754734
-0.085765987635 0.14956387877 0.9844263792
0.25860828161 0.36972099543 0.89211952686
-0.22321528196 0.13379642367 0.96553093195
-0.29167920351 0.0029051508754 0.95648509264
-0.1613355577 0.00026935263304 0.98609435558
-0.43706268072 -0.24624057114 0.86485624313
-0.30205762386 -0.26453068852 0.91584146023
-0.36155954003 -0.13037319481 0.92318862677
-0.22203034163 -0.1335209161 0.96585172415
-0.15680815279 -0.26807439327 0.95053333044
-0.40433499217 -0.39261385798 0.82523500919
-0.24207060039 -0.40007388592 0.88386577368
-0.084655061364 -0.15043246746 0.98448723555
-0.15761552751 -0.54330199957 0.8243059516
-0.080795705318 -0.40275064111 0.91176241636
0.00063929602038 -0.52508497238 0.85104763508
0.083208650351 -0.40102407336 0.91229295731
0.0017811546568 -0.26990503073 0.96287971735
0.15054830909 -0.27283006907 0.94954377413
0.16359563172 -0.5369848609 0.82750910521
0.25074154139 -0.39711111784 0.88234370947
-6.9327114034e-05 -0.69571948051 0.71798956394
0.53726345301 0.61942565441 0.57158362865
0.42609876394 0.69508045912 0.57769495249
-0.64689731598 -0.27640473843 0.71037274599
-0.54266709089 -0.27180668712 0.79452008009
0.1719340086 0.68908596039 -0.70203697681
0.95389592648 -0.15775507689 -0.25537720323
-0.52486646175 -0.85118347406 -0.008731787093
-0.26420623064 -0.95128148794 -0.1588857919
-0.27292203903 -0.95138907433 0.14077875018
-0.25332486629 -0.87275457382 -0.41589003801
-0.014575729147 -0.96189755201 -0.27305930853
-0.008660517633 -0.86595654488 -0.49843674898
-0.85881644487 -0.0055834138766 0.51228839159
-0.95334720612 -0.15562641621 0.25863412023
0.79585498571 0.6013661623 -0.067690126598
0.49981698394 0.80823421478 -0.31111687422
0.60817819834 0.75315749645 -0.24790735543
0.48215764761 0.75168097019 -0.44848567247
0.38042780757 0.84432244301 -0.37730941176
0.34809195995 0.7810061574 -0.51846075058
0.25376820564 0.86298280954 -0.43680718541
0.30219629407 0.70051175356 -0.6464663744
0.21539372206 0.79181182384 -0.57151293755
0.12268475443 0.86324876547 -0.48936957121
0.080378770828 0.78517639637 -0.6140062809
-0.021505896002 0.84239524603 -0.53508943319
0.7946524024 0.59511733055 0.11202653497
0.71635073423 0.69753736258 0.014553187415
0.70308870077 0.68470394611 0.19107243419
0.62254494429 0.77859431505 -0.078534707427
0.62046658993 0.77869719267 0.092887192965
0.52018243074 0.85404860973 0.0014473015908
0.51552993059 0.84231066704 -0.15723648667
0.60442000628 0.75500607491 0.25343981385
0.51143598557 0.84471857548 0.15756395459
0.49113860726 0.81475704908 0.30796083808
0.38920989633 0.89068841934 -0.2349139303
0.39842802286 0.91377562284 -0.079179212451
0.26649132371 0.95103681087 -0.15650123358
0.26912689209 0.96310418844 -7.7371420048e-05
0.39784291387 0.91396641731 0.079905278981
0.26603963971 0.9512283802 0.15615525842
0.13514943421 0.98776692152 -0.077662967145
0.13508316875 0.98777633905 0.077733069658
-3.0341596357e-05 0.99999761581 -1.2732833966e-05
0.3851249218 0.89294165373 0.23311829567
0.26273295283 0.91688352823 -0.30048090219
0.12996964157 0.92351037264 -0.36090514064
0.13430711627 0.96599954367 -0.22090145946
0.000153787405 0.95999205112 -0.27991127968
-0.0017380522331 0.91130459309 -0.41147959232
0.00018192827702 0.98982471228 -0.14217437804
0.37447664142 0.84793174267 0.37506717443
0.26149603724 0.91716623306 0.30067718029
0.13403169811 0.96602207422 0.22098112106
0.12854772806 0.92326742411 0.36196869612
3.269809531e-05 0.95906400681 0.28259450197
0.00014661098248 0.98977702856 0.14239242673
-0.1296171248 0.92239797115 0.36375918984
-0.13413062692 0.96585804224 0.22162650526
-0.26250892878 0.91637605429 0.30217885971
-0.26640602946 0.95104843378 0.15664464235
-0.13506060839 0.9877679348 0.077884659171
-0.3780195117 0.84456062317 0.37888094783
-0.38950154185 0.89035910368 0.23560783267
-0.13525848091 0.98772698641 -0.077991001308
-0.26950743794 0.96299761534 -0.0001019889387
-0.2666746974 0.95097327232 -0.15659828484
-0.39860758185 0.91351163387 -0.081291012466
-0.39850363135 0.91373157501 0.07925400883
-0.52066582441 0.85378032923 -0.0013910846319
-0.38729304075 0.88964217901 -0.24194428325
-0.50311976671 0.84728986025 -0.16979879141
-0.48632788658 0.80907875299 -0.32948300242
-0.51493453979 0.84262675047 0.15762151778
-0.13429436088 0.96608829498 -0.22053079307
-0.1307810992 0.92508846521 -0.35650619864
-0.26272502542 0.91832429171 -0.29603409767
-0.25678798556 0.86964553595 -0.42129778862
-0.13333144784 0.86634480953 -0.48116442561
-0.37712216377 0.8440913558 -0.38110679388
-0.60594958067 0.75805979967 0.24129931629
-0.61438512802 0.78288906813 0.098000094295
-0.31123459339 0.49967184663 0.80836552382
-0.247814551 0.60948991776 0.75199729204
-0.44861003757 0.48065420985 0.75231075287
-0.37820571661 0.38035970926 0.84396719933
-0.51878553629 0.34638512135 0.78158122301
-0.43773025274 0.25243645906 0.86289596558
-0.64801853895 0.29047989845 0.70399016142
-0.57129383087 0.20534959435 0.79464733601
-0.70142799616 0.14167426527 0.69724398851
-0.48904287815 0.12282139063 0.86347258091
-0.6148250699 0.067839205265 0.78557652235
-0.52619743347 -0.0061332434416 0.85014724731
-0.084517888725 0.62798833847 0.77354925871
-0.15803849697 0.53242194653 0.83140736818
-0.2501873076 0.38162499666 0.88954645395
-0.30796390772 0.26370811462 0.91406393051
-0.36722406745 0.13122476637 0.92081260681
-0.4165943265 -0.00043365187594 0.90904980898
0.78307127953 0.51875728369 0.34259060025
0.68465304375 0.62299311161 0.37816542387
0.57875204086 0.6910290122 0.43268799782
0.63940697908 0.53140604496 0.55455744267
0.46406975389 0.76388823986 0.44817152619
0.34489828348 0.78826719522 0.50933068991
-0.34855264425 0.7877830267 -0.50758802891
-0.22977302969 0.78434085846 -0.57599759102
-0.42849749327 0.68466579914 -0.58955276012
-0.69020396471 -0.06609544903 0.71958380938
-0.59081733227 -0.14583931863 0.79354965687
-0.28796368837 0.52201414108 -0.80178016424
[...]
CELL_DATA 716
SCALARS cell_data_0 double
LOOKUP_TABLE default
5.24652753649e-06
1.01658815961e-06
5.76165839005e-05
0.000101108782087
2.96798418856e-05
2.81666444392e-06
2.57674521457e-05
1.15871906624e-05
1.80031768801e-05
1.39998138309e-05
7.30298196525e-06
1.35870080872e-05
4.29098130643e-06
1.10008808682e-05
7.54424602505e-07
1.29304658626e-05
1.30013120578e-05
8.39668142986e-06
7.83182964363e-06
1.14139076079e-05
8.28184561559e-06
4.51630631539e-06
2.61519194445e-06
1.91054863695e-05
1.83079072141e-05
2.11481457641e-06
1.12773689033e-05
4.588118713e-05
3.49652439734e-05
3.40267689947e-05
3.19204766451e-05
0.000107553597738
5.9585710678e-05
6.50922373048e-05
2.1836027605e-05
1.70694082857e-05
0.000138696879299
0.000264587328522
1.83412440671e-05
6.99463731227e-05
1.3056430647e-05
2.81533438352e-05
5.43371777839e-05
9.19526755028e-05
3.1419063674e-05
0.000221940809196
0.000155916802078
0.000150807249517
0.000128926143454
5.16453780234e-05
6.31810564694e-05
6.80089906079e-05
4.96288990583e-05
5.12716010434e-06
4.21389871581e-05
5.70954500846e-05
1.94118980012e-05
8.14044872941e-08
5.23720982652e-05
9.37740545027e-05
0.000112672034526
5.82012141488e-05
4.24150944136e-05
8.24254660736e-05
2.26434400773e-05
9.21854394354e-05
2.6321965089e-05
2.31456883873e-05
8.80039859553e-06
3.01828895695e-05
9.58173823972e-06
2.06717670024e-07
9.14574790069e-05
2.90225440247e-05
5.51436993773e-05
6.21599720606e-05
6.4550378454e-05
3.3931811238e-06
5.00101358058e-06
2.50904407548e-06
1.07219152974e-05
1.04397325194e-05
9.77322099636e-06
1.11362011391e-05
6.58434661207e-06
6.69983533064e-06
6.93811143449e-06
7.77533418695e-06
7.3822379003e-06
5.92096828388e-06
9.24242989663e-06
5.18045363301e-06
5.05095722869e-06
1.08076864435e-05
5.42577792515e-06
7.15121503698e-06
7.47732878563e-06
6.55199234111e-06
6.84986180204e-06
8.30233114183e-06
8.68712244222e-06
6.83387756062e-06
6.32077226994e-06
7.28021659586e-06
8.9106567003e-06
8.06489943441e-06
6.63873162146e-06
7.27073279956e-06
7.38328546197e-06
9.82317383382e-06
8.37370647239e-06
8.33774519064e-06
8.3228186646e-06
9.61136868976e-06
9.30427906978e-06
8.29600330577e-06
2.02858321274e-06
3.41946369732e-06
9.23317575779e-06
3.54545672068e-06
7.78781534363e-06
1.0071791217e-05
8.02201491963e-06
1.080479467e-05
2.5942485918e-05
3.62305319803e-06
8.65418158186e-06
6.93689916942e-06
1.11154801401e-05
5.91495429886e-06
7.94935647258e-07
6.1979023967e-07
2.42212742961e-06
1.99938355129e-06
5.92726397605e-06
3.69400282023e-06
2.72476640951e-06
5.86352290208e-08
5.23622259011e-06
4.61098527172e-05
4.34193089245e-05
1.04267101787e-05
2.4834603431e-05
2.35655610194e-06
7.76626487942e-06
3.53728517768e-06
2.42188381568e-05
3.17607621273e-06
3.23892111772e-06
1.4974946028e-05
3.35583605309e-06
2.01063175097e-06
7.18077735353e-07
8.22619083134e-06
2.33134700566e-05
1.97714853544e-06
3.13539667128e-06
4.16654314285e-06
1.11029178013e-05
2.82813310057e-06
1.54764389123e-06
1.14343181206e-05
5.50315604277e-06
9.25536959685e-06
1.84590813517e-06
3.25188836775e-06
2.21647272018e-06
1.22627703251e-06
1.57514011093e-06
2.28268491788e-06
1.025185894e-06
1.11252567025e-06
1.07302627674e-06
1.1829194449e-06
1.22298482934e-06
2.57983459398e-06
1.26073060705e-06
4.4148475677e-06
9.11084050709e-08
2.94548666283e-07
4.01175035446e-06
5.95879374247e-07
3.11710107866e-06
2.41538946065e-07
1.05417155198e-06
5.90521669684e-07
3.71941854089e-06
6.1084935969e-07
7.44432867622e-07
1.57287806717e-06
1.78726107915e-07
7.84506444922e-07
5.6244124144e-07
1.12217943377e-06
4.18663158957e-07
1.01947828381e-07
4.78263733302e-07
1.49076001886e-06
6.53869363801e-07
2.67253591511e-07
2.50231057571e-06
7.4185024725e-07
6.25057281288e-07
3.11354477387e-07
6.83262564213e-07
2.37408867584e-06
4.7105710956e-07
9.63097844465e-07
1.11092684008e-06
1.22460234877e-06
7.3797915947e-07
5.0184203632e-07
2.30026067369e-07
5.16393891226e-07
2.10177536112e-07
3.2772496452e-07
4.04810276775e-06
1.0457967071e-06
6.32722469813e-07
1.38913108715e-06
3.89771978592e-06
3.72811783261e-06
9.18169962639e-07
5.43603646869e-06
1.17619019737e-05
3.52606844768e-06
2.73498888084e-07
5.04924238932e-06
4.97426133022e-06
8.05858369213e-06
1.61028388554e-05
1.6790102505e-05
1.92774716164e-05
8.40459200977e-06
8.4604313133e-06
1.35629498249e-05
4.33911176773e-06
2.47244318483e-05
3.28950208218e-06
1.21146542076e-05
9.55010398907e-06
1.01094509004e-05
1.50560301021e-05
1.1345262204e-05
5.66905447547e-06
1.3765871046e-05
2.23254149112e-05
2.63417742446e-05
1.46361313514e-05
1.07594304958e-05
1.61703172132e-05
1.5802307676e-05
7.32246286568e-06
8.20120022319e-06
1.2987162843e-05
2.76255545077e-05
1.23303265269e-05
1.40798192774e-05
1.82080238506e-05
4.20333784871e-05
2.29954146693e-05
1.77491952681e-05
2.66851159688e-05
4.87806341746e-05
2.65605897975e-05
2.37349530414e-05
1.77911472483e-05
2.19149918059e-05
9.24266368714e-06
4.65076114665e-06
1.0203460287e-05
1.4365406746e-05
1.28348147954e-05
5.08516737699e-06
7.08818316392e-06
4.81877087951e-06
3.08244296729e-06
2.4583338966e-06
5.9166360385e-06
3.38804672249e-06
3.8067205522e-06
2.62211683906e-06
1.28266888224e-05
1.83494545822e-05
3.26122170556e-06
1.15834145939e-05
9.78854350526e-07
6.11701409273e-07
4.80729094182e-07
7.18845246798e-07
2.04180033494e-05
2.7327464456e-06
5.47045707865e-06
8.06384192762e-06
2.35701155074e-06
1.09584619241e-05
1.35981901774e-06
1.10476972733e-06
3.83626791038e-06
6.03618189058e-06
4.53474161932e-06
7.06477528809e-06
5.60573875726e-06
5.75143566784e-06
5.36729567615e-06
6.43825311427e-06
6.97799941345e-06
5.09610819992e-06
1.99009013621e-06
4.66609382538e-06
5.64557330561e-06
6.62687859996e-06
8.94127302715e-06
8.00161578386e-06
4.99048991459e-06
2.90649288129e-06
4.92108539906e-06
4.08010999385e-06
7.28278875545e-06
7.65297046334e-06
8.569242552e-06
3.92429438322e-06
8.68215227048e-06
9.1378946294e-06
7.57759095547e-06
3.95149804911e-06
1.54212082329e-06
2.44538043426e-06
9.87681458613e-07
3.20792741004e-06
9.12135718531e-07
1.90927984495e-06
1.88811153127e-06
2.58374017285e-06
4.59626979262e-07
1.07840887233e-06
5.82520956898e-07
1.58656142046e-06
4.33508642668e-06
5.21338521059e-06
9.4740270922e-08
1.21935341655e-06
3.28176133356e-06
6.78599486228e-06
3.77180878476e-06
4.68567701918e-06
3.36652860684e-06
4.46229753606e-06
9.88294488857e-06
8.52612765074e-06
3.28307012205e-07
2.14673888052e-06
7.52406398571e-07
2.56208579282e-07
5.27227815695e-06
3.69714657108e-06
7.67838314308e-06
6.42996062357e-06
2.74448406674e-05
7.04036357588e-05
7.70782481431e-05
3.21539392185e-05
9.10954929044e-07
3.41292835521e-08
1.99640817518e-05
1.66912928782e-05
2.04331238709e-05
1.16333995292e-08
1.06157158826e-05
1.70757043697e-05
1.98977331571e-05
2.18572673976e-08
3.44977787358e-06
1.03006335059e-05
1.64310792402e-05
8.68355444391e-08
1.06086717611e-05
1.07245500615e-06
6.40765481062e-07
7.12475056328e-08
1.52663475394e-05
1.78905195871e-05
1.70895347186e-05
5.04243374305e-06
2.87881371118e-05
3.31437558691e-05
2.85321989427e-05
1.74445152028e-05
1.82360977005e-05
3.2968110984e-05
3.11437171157e-05
4.79068752726e-06
2.57809320109e-05
3.20215349496e-06
1.14950819029e-06
2.32166662051e-07
9.85258331244e-06
1.95311231817e-05
1.08973348128e-05
7.37707399127e-07
9.73049909093e-06
2.10259947283e-05
1.01827288389e-05
2.49435516704e-07
3.1899992332e-06
8.17276091641e-06
1.96042981597e-05
4.70634203081e-07
8.49662265137e-06
3.09291981919e-07
9.10233379043e-06
7.43098577131e-06
8.99990417118e-06
1.32698087094e-05
4.94598045508e-06
3.20070030384e-06
7.24223645743e-06
4.13919615333e-06
3.99904549212e-05
1.27081377625e-05
3.77791539868e-05
6.7461905839e-05
1.58259146464e-05
4.11218623412e-05
1.06288485073e-06
1.31439160788e-05
2.013440878e-07
4.61485377609e-08
1.15199922434e-05
7.38515645549e-06
1.02186768324e-05
1.76780268521e-07
8.96887304977e-06
6.76068923003e-06
1.02603828161e-05
1.78242202784e-07
4.70870541339e-07
8.82116449159e-06
9.03844664508e-06
4.91823089128e-07
8.67232350588e-06
4.07933700548e-07
2.54140062753e-07
2.14030193125e-07
1.59497714234e-05
1.1406859272e-05
1.57325595376e-05
2.7880380317e-08
9.08400678062e-06
1.03175418954e-05
1.44043348711e-05
1.09110569117e-07
2.67659458191e-07
8.75721217025e-06
9.56309617287e-06
7.9315550202e-08
8.16992809709e-06
5.89546034427e-07
1.6208568081e-05
1.25032595515e-05
1.95738549335e-06
2.89626688627e-06
9.24975592551e-06
3.74120302723e-07
1.14123081153e-05
2.99147921224e-05
1.28654220126e-05
1.62699292551e-05
6.97908305816e-06
2.319260976e-05
6.95818623804e-06
2.28824371939e-07
3.78411182754e-06
2.76287637963e-06
1.43984597649e-05
7.8846285332e-06
2.59172597002e-05
2.93101378266e-06
9.81388417775e-06
4.47010835132e-05
5.94633975437e-06
4.85554460001e-06
1.74272272802e-05
4.35863508856e-06
5.60839891326e-05
1.73727086136e-05
1.40209911877e-05
1.82825758083e-05
4.18945750229e-05
1.6213700279e-05
2.96684688018e-05
1.71340868694e-06
2.14535455134e-05
7.57356226016e-05
4.45705216869e-06
3.68594635402e-06
3.27394310073e-06
1.70555189515e-06
1.85681373512e-06
9.05605774192e-07
2.03908421043e-05
1.66757158443e-06
2.18492700911e-05
9.09203127153e-07
1.82175558947e-05
1.42065826352e-06
1.95560199769e-05
3.32718320519e-07
2.17115693786e-07
1.57302054292e-05
1.85964931936e-06
8.53649552442e-07
1.69204232703e-05
6.73945880404e-07
4.52197052065e-07
6.36689005552e-08
1.09670493796e-07
8.48352071006e-08
4.01796789658e-07
2.13910734581e-07
8.77362724134e-08
2.06236360312e-07
5.77950792139e-06
6.66927769298e-06
7.79546507803e-08
5.91567078922e-06
5.12198192502e-08
2.27828190711e-07
2.52034957113e-08
6.74849325882e-07
1.32112022716e-08
7.66741285192e-08
6.32564977679e-08
2.06918474884e-07
5.99198585925e-08
2.71127850401e-06
3.5247372692e-06
3.50945375773e-06
7.36337532331e-08
2.22130215313e-06
2.43955055683e-06
2.39490189657e-06
7.54625078739e-06
1.81395499445e-05
1.2919008088e-05
1.2380455164e-05
4.52550881718e-07
1.45309044821e-06
1.06263753892e-05
9.78966372989e-06
8.04437738797e-06
1.92960363628e-06
1.68007937678e-06
4.50307110926e-06
3.60395686587e-06
1.98994962033e-06
5.38446358936e-07
4.31629909892e-06
8.89694997966e-06
1.10262993446e-05
6.3010339929e-06
7.13566548869e-06
1.24229926303e-05
1.07465241117e-05
6.55555035393e-06
1.78616661326e-07
4.34075739534e-06
5.55829542155e-06
5.61401577364e-06
1.13183390968e-05
7.78462061097e-06
4.96641317459e-06
4.61955532351e-06
4.78188608909e-06
9.51771873819e-06
9.224134025e-06
6.02749514429e-06
3.12889126472e-06
6.41908165703e-06
4.8527113696e-06
5.01879572378e-06
5.61586126399e-06
1.05218428882e-05
1.20834484559e-05
2.31282993581e-06
2.49962295074e-06
3.35045569228e-06
5.31161758358e-06
7.2174218524e-06
3.47536190945e-07
6.51992352117e-06
6.07338885207e-06
7.2339478167e-06
1.32419370776e-08
6.50424197594e-06
5.11798332639e-06
8.07489837836e-06
6.84810597087e-06
5.44593124699e-06
8.09243162147e-06
4.10142292911e-06
5.74144467956e-06
5.37370648794e-06
6.90415831774e-07
7.57423820622e-06
8.52915823805e-06
4.32190224743e-06
1.02522551765e-05
8.70985436834e-06
8.75568020929e-06
6.45472618331e-06
3.63457739986e-06
5.88768510348e-06
4.74858312036e-06
7.39555631237e-06
7.99587772247e-06
5.97645702082e-06
1.08694600933e-05
1.03602213152e-05
1.19971007075e-05
6.81692670967e-06
2.21475991878e-06
5.83299735123e-06
4.25484568222e-06
5.6385705385e-06
7.48158900751e-06
6.74034397376e-06
1.07572567236e-06
6.4230200894e-06
1.71573487901e-06
4.27918495171e-06
6.07573668176e-06
5.76643829439e-06
2.1885828762e-06
6.59547187529e-06
4.59455169004e-06
5.3491259991e-06
4.22886120703e-06
4.41799586901e-06
1.84829526299e-06
4.72577541656e-06
3.75266620338e-06
2.23540316998e-06
4.32065607487e-06
3.90534873306e-06
2.12980387508e-06
4.56685827978e-06
4.12764885188e-06
9.91734609682e-06
8.45910995467e-06
4.25466783175e-06
3.77149379825e-06
6.36263219466e-06
5.54857489825e-06
9.78825521312e-07
2.78619434323e-07
1.91747617869e-07
1.61014873058e-06
1.70371329245e-06
1.3931217797e-06
1.50620870191e-06
4.12952619634e-06
1.71708684418e-05
1.77924546459e-06
2.62618196712e-05
1.97371382844e-05
8.60495072319e-08
1.61334914879e-07
1.09746038259e-05
2.62589154881e-06
1.1242955882e-06
2.24026204376e-06
8.22894100606e-06
2.05646219955e-06
1.0857904934e-05
8.10953391496e-06
8.97538877081e-06
2.83555614687e-06
1.94547509016e-07
1.88878696941e-08
6.786839297e-08
2.96379182805e-06
3.35660622032e-06
2.6027826874e-06
3.31552528101e-06
5.18297758304e-08
3.56319773905e-06
2.21645706355e-08
1.10654764927e-07
5.41305573837e-07
4.66416056434e-07
3.31227319037e-08
1.39635648342e-07
6.2334598236e-06
5.22746257582e-08
1.56313093696e-08
6.21478294499e-08
5.87894891693e-06
2.97113502282e-08
1.43244529962e-08
4.37241399607e-07
3.7039453711e-08
5.71077604451e-06
4.65495939838e-08
1.14024699844e-07
8.44362528564e-08
5.10191052313e-06
1.13837697822e-05
9.78670382682e-06
8.03723510962e-06
3.52215636038e-06
5.93926260969e-06
6.53614895856e-06
6.13301247354e-06
4.65754991508e-06
1.16097556394e-06

