# vtk DataFile Version 3.0
File Name: Molecule/sphere_dip_12/sphere_dip_12_0-s2.vtk
ASCII
DATASET UNSTRUCTURED_GRID
FIELD FieldData 1
TIME 1 1 double
0.0
POINTS 45 double
0.850650808352 -0.525731112119 0.0
0.809016994375 -0.309016994375 -0.5
1.0 0.0 0.0
0.809016994375 0.309016994375 -0.5
0.525731112119 0.0 -0.850650808352
0.850650808352 0.525731112119 0.0
0.5 0.809016994375 -0.309016994375
0.309016994375 0.5 -0.809016994375
0.0 0.850650808352 -0.525731112119
0.5 0.809016994375 0.309016994375
0.0 1.0 0.0
0.0 0.850650808352 0.525731112119
-0.5 0.809016994375 0.309016994375
-0.5 0.809016994375 -0.309016994375
-0.850650808352 0.525731112119 0.0
-0.309016994375 0.5 0.809016994375
-0.809016994375 0.309016994375 0.5
-0.525731112119 0.0 0.850650808352
0.309016994375 0.5 0.809016994375
0.0 0.0 1.0
0.525731112119 0.0 0.850650808352
-0.309016994375 -0.5 0.809016994375
0.309016994375 -0.5 0.809016994375
0.0 -0.850650808352 0.525731112119
0.309016994375 -0.5 -0.809016994375
0.0 0.0 -1.0
-0.309016994375 -0.5 -0.809016994375
0.0 -0.850650808352 -0.525731112119
-0.525731112119 0.0 -0.850650808352
0.809016994375 -0.309016994375 0.5
0.809016994375 0.309016994375 0.5
-0.809016994375 -0.309016994375 -0.5
-0.809016994375 0.309016994375 -0.5
-1.0 0.0 0.0
-0.850650808352 -0.525731112119 0.0
-0.309016994375 0.5 -0.809016994375
-0.5 -0.809016994375 -0.309016994375
-0.5 -0.809016994375 0.309016994375
0.0 -1.0 0.0
-0.809016994375 -0.309016994375 0.5
0.5 -0.809016994375 -0.309016994375
0.5 -0.809016994375 0.309016994375
0.587785252292 -0.425325404176 0.688190960236
0.425325404176 -0.688190960236 0.587785252292
0.688190960236 -0.587785252292 0.425325404176

CELLS 86 344
3 0 1 2
3 1 3 2
3 1 4 3
3 2 3 5
3 5 3 6
3 3 7 6
3 3 4 7
3 6 7 8
3 5 6 9
3 6 10 9
3 6 8 10
3 9 10 11
3 11 10 12
3 10 13 12
3 10 8 13
3 12 13 14
3 11 12 15
3 12 16 15
3 12 14 16
3 15 16 17
3 11 15 18
3 15 19 18
3 15 17 19
3 18 19 20
3 17 21 19
3 21 22 19
3 21 23 22
3 19 22 20
3 4 24 25
3 24 26 25
3 24 27 26
3 25 26 28
3 0 2 29
3 2 30 29
3 2 5 30
3 29 30 20
3 5 9 30
3 9 18 30
3 9 11 18
3 30 18 20
3 28 31 32
3 31 33 32
3 31 34 33
3 32 33 14
3 8 35 13
3 35 32 13
3 35 28 32
3 13 32 14
3 34 36 37
3 36 38 37
3 36 27 38
3 37 38 23
3 34 37 39
3 37 21 39
3 37 23 21
3 39 21 17
3 17 16 39
3 16 33 39
3 16 14 33
3 39 33 34
3 28 26 31
3 26 36 31
3 26 27 36
3 31 36 34
3 27 40 38
3 40 41 38
3 40 0 41
3 38 41 23
3 4 1 24
3 1 40 24
3 1 0 40
3 24 40 27
3 4 25 7
3 25 35 7
3 25 28 35
3 7 35 8
3 22 42 20
3 20 42 29
3 22 43 42
3 43 44 42
3 43 41 44
3 42 44 29
3 41 43 23
3 23 43 22
3 29 44 0
3 44 41 0

CELL_TYPES 86
5
5
5
5
5
5
5
5
5
5
5
5
5
5
5
5
5
5
5
5
5
5
5
5
5
5
5
5
5
5
5
5
5
5
5
5
5
5
5
5
5
5
5
5
5
5
5
5
5
5
5
5
5
5
5
5
5
5
5
5
5
5
5
5
5
5
5
5
5
5
5
5
5
5
5
5
5
5
5
5
5
5
5
5
5
5

CELL_DATA 86
SCALARS cell_data_0 double
LOOKUP_TABLE default
3.16040595199e-05
0.000109930199165
0.00013945603039
3.18243595091e-05
2.70132826505e-05
0.000276144331821
0.000320528364586
0.000219519423731
0.000217154883474
0.000238964519911
1.32375512865e-05
0.000259216604702
0.000674912483093
0.000719067365918
2.09881868742e-05
0.000469762900751
0.000589354024083
0.000667041764422
0.000511340469538
3.03097529063e-06
2.25816124243e-05
2.9094699992e-05
5.6930369308e-06
0.000337247716651
0.00164895143079
0.00296552673526
0.00226381519182
0.000885890805587
0.000903081731877
0.000931086398716
0.000348342242958
0.0007493374236
8.69083953035e-05
0.00019248919706
0.000174027931269
0.000533418493384
0.000252809030419
0.000116883892692
0.000111461544726
0.000333693537552
0.000240777814374
0.000163584617756
0.000258092524318
0.000237197222626
0.000194313747764
0.000247435010257
0.000341323973756
3.83151479038e-05
1.21840292957e-05
2.88872100011e-05
3.04071637978e-05
8.39274538988e-06
3.78668103865e-05
0.00207615772725
0.0016834115375
0.00153627565487
3.21027902484e-05
0.000589761939147
0.000449575469423
0.000389972445842
0.00034759495135
0.000232392164584
0.000147136778586
7.30334703585e-05
3.07089016912e-05
0.000399009289693
0.000342044812455
0.000388967297028
0.000334483839664
0.000281632733592
8.38024190973e-05
0.000197729947257
0.000893062836979
0.000866677614225
0.000709144211213
0.0003502124189
0.000365219491808
0.000216804024822
9.16457326772e-05
3.22822825759e-06
0.000124489771295
2.15131849292e-05
0.000198326111985
0.000141032942897
3.27660647508e-05
0.000201407566241

