# vtk DataFile Version 3.0
File Name: Molecule/sphere_dip_12/sphere_dip_12_0-s3.vtk
ASCII
DATASET UNSTRUCTURED_GRID
FIELD FieldData 1
TIME 1 1 double
0.0
POINTS 50 double
0.850650808352 -0.525731112119 0.0
0.809016994375 -0.309016994375 -0.5
1.0 0.0 0.0
0.809016994375 0.309016994375 -0.5
0.525731112119 0.0 -0.850650808352
0.850650808352 0.525731112119 0.0
0.5 0.809016994375 -0.309016994375
0.309016994375 0.5 -0.809016994375
0.0 0.850650808352 -0.525731112119
0.5 0.809016994375 0.309016994375
0.0 1.0 0.0
0.0 0.850650808352 0.525731112119
-0.5 0.809016994375 0.309016994375
-0.5 0.809016994375 -0.309016994375
-0.850650808352 0.525731112119 0.0
-0.309016994375 0.5 0.809016994375
-0.809016994375 0.309016994375 0.5
-0.525731112119 0.0 0.850650808352
0.309016994375 0.5 0.809016994375
0.0 0.0 1.0
0.525731112119 0.0 0.850650808352
0.309016994375 -0.5 -0.809016994375
0.0 0.0 -1.0
-0.309016994375 -0.5 -0.809016994375
0.0 -0.850650808352 -0.525731112119
-0.525731112119 0.0 -0.850650808352
0.809016994375 -0.309016994375 0.5
0.809016994375 0.309016994375 0.5
-0.809016994375 -0.309016994375 -0.5
-0.809016994375 0.309016994375 -0.5
-1.0 0.0 0.0
-0.850650808352 -0.525731112119 0.0
-0.309016994375 0.5 -0.809016994375
-0.5 -0.809016994375 -0.309016994375
-0.5 -0.809016994375 0.309016994375
0.0 -1.0 0.0
0.0 -0.850650808352 0.525731112119
-0.809016994375 -0.309016994375 0.5
-0.309016994375 -0.5 0.809016994375
0.5 -0.809016994375 -0.309016994375
0.5 -0.809016994375 0.309016994375
0.309016994375 -0.5 0.809016994375
0.587785252292 -0.425325404176 0.688190960236
0.425325404176 -0.688190960236 0.587785252292
0.688190960236 -0.587785252292 0.425325404176
-0.162459848116 -0.26286555606 0.951056516295
0.0 -0.525731112119 0.850650808352
0.162459848116 -0.26286555606 0.951056516295
-0.16062203564 -0.702046444776 0.69378047756
0.16062203564 -0.702046444776 0.69378047756

CELLS 96 384
3 0 1 2
3 1 3 2
3 1 4 3
3 2 3 5
3 5 3 6
3 3 7 6
3 3 4 7
3 6 7 8
3 5 6 9
3 6 10 9
3 6 8 10
3 9 10 11
3 11 10 12
3 10 13 12
3 10 8 13
3 12 13 14
3 11 12 15
3 12 16 15
3 12 14 16
3 15 16 17
3 11 15 18
3 15 19 18
3 15 17 19
3 18 19 20
3 4 21 22
3 21 23 22
3 21 24 23
3 22 23 25
3 0 2 26
3 2 27 26
3 2 5 27
3 26 27 20
3 5 9 27
3 9 18 27
3 9 11 18
3 27 18 20
3 25 28 29
3 28 30 29
3 28 31 30
3 29 30 14
3 8 32 13
3 32 29 13
3 32 25 29
3 13 29 14
3 31 33 34
3 33 35 34
3 33 24 35
3 34 35 36
3 31 34 37
3 34 38 37
3 37 38 17
3 17 16 37
3 16 30 37
3 16 14 30
3 37 30 31
3 25 23 28
3 23 33 28
3 23 24 33
3 28 33 31
3 24 39 35
3 39 40 35
3 39 0 40
3 35 40 36
3 4 1 21
3 1 39 21
3 1 0 39
3 21 39 24
3 4 22 7
3 22 32 7
3 22 25 32
3 7 32 8
3 41 42 20
3 20 42 26
3 41 43 42
3 43 44 42
3 43 40 44
3 42 44 26
3 40 43 36
3 26 44 0
3 44 40 0
3 38 45 17
3 17 45 19
3 38 46 45
3 46 47 45
3 46 41 47
3 45 47 19
3 38 48 46
3 48 49 46
3 48 36 49
3 46 49 41
3 19 47 20
3 47 41 20
3 36 48 34
3 34 48 38
3 41 49 43
3 43 49 36

CELL_TYPES 96
5
5
5
5
5
5
5
5
5
5
5
5
5
5
5
5
5
5
5
5
5
5
5
5
5
5
5
5
5
5
5
5
5
5
5
5
5
5
5
5
5
5
5
5
5
5
5
5
5
5
5
5
5
5
5
5
5
5
5
5
5
5
5
5
5
5
5
5
5
5
5
5
5
5
5
5
5
5
5
5
5
5
5
5
5
5
5
5
5
5
5
5
5
5
5
5

CELL_DATA 96
SCALARS cell_data_0 double
LOOKUP_TABLE default
3.20941420649e-05
0.000110226178151
0.000139807114881
3.19766489474e-05
2.94119994996e-05
0.000276271221129
0.000320294774707
0.000219607104726
0.000228753411886
0.000256343483502
1.77609947264e-05
0.000271723153102
0.000651445195487
0.000703177164655
2.71080923941e-05
0.000452081921953
0.00101393352958
0.00427517702786
0.00270421991606
0.00225005354958
0.000805106180039
0.000469431839494
1.34156460741e-05
0.000464435995712
0.000866753659846
0.000863364878301
0.000331529702854
0.000668316528342
2.23303351274e-05
0.000439810310086
0.000495170609183
0.000805772005275
0.000620744992705
0.00115179287901
0.000557072293208
0.00135206069406
0.000238421070675
0.000108750886899
1.81496148097e-05
5.14820849157e-05
0.000227550654136
0.000294650846605
0.000372666814215
4.15377395933e-05
4.19767343014e-05
6.66157150653e-05
1.24204219607e-06
8.73627859304e-05
6.10642440389e-05
0.000495063171094
0.000209209596339
0.00159329189156
0.00208240913661
0.0017716868439
5.05196823976e-06
0.000341740585691
0.000247884279006
0.000183725923482
5.01272556055e-05
4.45039289169e-05
0.00015201257165
0.000100591006366
9.32211530415e-05
0.000274097235
0.000247316426319
5.95937389369e-05
0.000132180993607
0.000874141881484
0.000863608322784
0.0007117971618
0.000372793895421
0.000115529915446
0.000165981681243
8.72760634609e-06
1.73162243845e-06
2.45363675799e-05
3.34339362081e-06
3.38103393632e-05
1.58430284011e-06
3.50494015789e-05
0.00012157916081
9.46632027016e-05
0.000126143594603
7.96527695544e-06
1.27323466744e-05
3.21944010997e-05
9.56281846905e-05
1.67348954e-06
4.78372203171e-07
9.58680085217e-06
8.9043219411e-05
0.000123792092821
2.99520914095e-05
0.000234551424718
7.53274423994e-06
9.96974495175e-07

