# vtk DataFile Version 3.0
File Name: Molecule/sphere_dip_12/sphere_dip_12_0-s3.vtk
ASCII
DATASET UNSTRUCTURED_GRID
FIELD FieldData 1
TIME 1 1 double
0.0
POINTS 642 double
0.850650808352 -0.525731112119 0.0
0.864929335863 -0.484441642061 -0.131200378813
0.915043421233 -0.403355348617 0.0
0.924304600611 -0.358228793487 -0.131655371352
0.862668480416 -0.433888564553 -0.259891913008
0.961938357784 -0.273266528913 0.0
0.916244175191 -0.301258879093 -0.264082750659
0.966392597402 -0.220117027473 -0.132792476828
0.951056516295 -0.162459848116 -0.26286555606
0.843911474622 -0.375038567478 -0.383613732685
0.891006524188 -0.238676930319 -0.386187385588
0.809016994375 -0.309016994375 -0.5
0.990438881957 -0.137952242128 0.0
0.987688340595 -0.0822424652791 -0.133071104141
1.0 0.0 0.0
0.840177885327 -0.15643446504 -0.519258489728
0.912982492932 -0.0823235800317 -0.399607051702
0.850650808352 0.0 -0.525731112119
0.912982492932 0.0823235800317 -0.399607051702
0.963861263467 0.0 -0.266404701135
0.951056516295 0.162459848116 -0.26286555606
0.840177885327 0.15643446504 -0.519258489728
0.891006524188 0.238676930319 -0.386187385588
0.809016994375 0.309016994375 -0.5
0.987688340595 0.0822424652791 -0.133071104141
0.758652300163 -0.237086325351 -0.606825149272
0.78020437071 -0.08114185162 -0.620239582613
0.69378047756 -0.16062203564 -0.702046444776
0.702907030488 0.0 -0.711281734962
0.78020437071 0.08114185162 -0.620239582613
0.69378047756 0.16062203564 -0.702046444776
0.615642020874 -0.0810862934433 -0.78384304242
0.615642020874 0.0810862934433 -0.78384304242
0.525731112119 0.0 -0.850650808352
0.758652300163 0.237086325351 -0.606825149272
0.990438881957 0.137952242128 0.0
0.966392597402 0.220117027473 -0.132792476828
0.961938357784 0.273266528913 0.0
0.916244175191 0.301258879093 -0.264082750659
0.924304600611 0.358228793487 -0.131655371352
0.862668480416 0.433888564553 -0.259891913008
0.843911474622 0.375038567478 -0.383613732685
0.915043421233 0.403355348617 0.0
0.864929335863 0.484441642061 -0.131200378813
0.850650808352 0.525731112119 0.0
0.78384304242 0.615642020874 -0.0810862934433
0.792649229259 0.571251659136 -0.213022865649
0.702046444776 0.69378047756 -0.16062203564
0.783451698363 0.516121620051 -0.346153014789
0.702309846744 0.647411893882 -0.296004592578
0.688190960236 0.587785252292 -0.425325404176
0.757935420048 0.453990499739 -0.468429850867
0.606825149272 0.758652300163 -0.237086325351
0.601500955008 0.707106781186 -0.37174803446
0.5 0.809016994375 -0.309016994375
0.707106781186 0.37174803446 -0.601500955008
0.646577791798 0.51337544123 -0.564254211766
0.587785252292 0.425325404176 -0.688190960236
0.51337544123 0.564254211766 -0.646577791798
0.564254211766 0.646577791798 -0.51337544123
0.425325404176 0.688190960236 -0.587785252292
0.453990499739 0.468429850867 -0.757935420048
0.37174803446 0.601500955008 -0.707106781186
0.309016994375 0.5 -0.809016994375
0.468429850867 0.757935420048 -0.453990499739
0.647411893882 0.296004592578 -0.702309846744
0.571251659136 0.213022865649 -0.792649229259
0.516121620051 0.346153014789 -0.783451698363
0.433888564553 0.259891913008 -0.862668480416
0.484441642061 0.131200378813 -0.864929335863
0.375038567478 0.383613732685 -0.843911474622
0.383613732685 0.843911474622 -0.375038567478
0.346153014789 0.783451698363 -0.516121620051
0.259891913008 0.862668480416 -0.433888564553
0.296004592578 0.702309846744 -0.647411893882
0.213022865649 0.792649229259 -0.571251659136
0.16062203564 0.702046444776 -0.69378047756
0.237086325351 0.606825149272 -0.758652300163
0.131200378813 0.864929335863 -0.484441642061
0.0810862934433 0.78384304242 -0.615642020874
0.0 0.850650808352 -0.525731112119
0.78384304242 0.615642020874 0.0810862934433
0.711281734962 0.702907030488 0.0
0.702046444776 0.69378047756 0.16062203564
0.620239582613 0.78020437071 -0.08114185162
0.620239582613 0.78020437071 0.08114185162
0.525731112119 0.850650808352 0.0
0.519258489728 0.840177885327 -0.15643446504
0.606825149272 0.758652300163 0.237086325351
0.519258489728 0.840177885327 0.15643446504
0.5 0.809016994375 0.309016994375
0.386187385588 0.891006524188 -0.238676930319
0.399607051702 0.912982492932 -0.0823235800317
0.26286555606 0.951056516295 -0.162459848116
0.266404701135 0.963861263467 0.0
0.399607051702 0.912982492932 0.0823235800317
0.26286555606 0.951056516295 0.162459848116
0.133071104141 0.987688340595 -0.0822424652791
0.133071104141 0.987688340595 0.0822424652791
0.0 1.0 0.0
0.386187385588 0.891006524188 0.238676930319
0.264082750659 0.916244175191 -0.301258879093
0.131655371352 0.924304600611 -0.358228793487
0.132792476828 0.966392597402 -0.220117027473
0.0 0.961938357784 -0.273266528913
0.0 0.915043421233 -0.403355348617
0.0 0.990438881957 -0.137952242128
0.383613732685 0.843911474622 0.375038567478
0.264082750659 0.916244175191 0.301258879093
0.259891913008 0.862668480416 0.433888564553
0.132792476828 0.966392597402 0.220117027473
0.131655371352 0.924304600611 0.358228793487
0.0 0.961938357784 0.273266528913
0.0 0.990438881957 0.137952242128
0.131200378813 0.864929335863 0.484441642061
0.0 0.915043421233 0.403355348617
0.0 0.850650808352 0.525731112119
-0.131200378813 0.864929335863 0.484441642061
-0.131655371352 0.924304600611 0.358228793487
-0.259891913008 0.862668480416 0.433888564553
-0.132792476828 0.966392597402 0.220117027473
-0.264082750659 0.916244175191 0.301258879093
-0.26286555606 0.951056516295 0.162459848116
-0.133071104141 0.987688340595 0.0822424652791
-0.383613732685 0.843911474622 0.375038567478
-0.386187385588 0.891006524188 0.238676930319
-0.5 0.809016994375 0.309016994375
-0.133071104141 0.987688340595 -0.0822424652791
-0.266404701135 0.963861263467 0.0
-0.26286555606 0.951056516295 -0.162459848116
-0.399607051702 0.912982492932 -0.0823235800317
-0.399607051702 0.912982492932 0.0823235800317
-0.525731112119 0.850650808352 0.0
-0.386187385588 0.891006524188 -0.238676930319
-0.519258489728 0.840177885327 -0.15643446504
-0.5 0.809016994375 -0.309016994375
-0.519258489728 0.840177885327 0.15643446504
-0.132792476828 0.966392597402 -0.220117027473
-0.131655371352 0.924304600611 -0.358228793487
-0.264082750659 0.916244175191 -0.301258879093
-0.259891913008 0.862668480416 -0.433888564553
-0.131200378813 0.864929335863 -0.484441642061
-0.383613732685 0.843911474622 -0.375038567478
-0.606825149272 0.758652300163 0.237086325351
-0.620239582613 0.78020437071 0.08114185162
-0.702046444776 0.69378047756 0.16062203564
-0.620239582613 0.78020437071 -0.08114185162
-0.711281734962 0.702907030488 0.0
-0.702046444776 0.69378047756 -0.16062203564
-0.606825149272 0.758652300163 -0.237086325351
-0.78384304242 0.615642020874 0.0810862934433
-0.78384304242 0.615642020874 -0.0810862934433
-0.850650808352 0.525731112119 0.0
-0.0810862934433 0.78384304242 0.615642020874
-0.213022865649 0.792649229259 0.571251659136
-0.16062203564 0.702046444776 0.69378047756
-0.346153014789 0.783451698363 0.516121620051
-0.296004592578 0.702309846744 0.647411893882
-0.425325404176 0.688190960236 0.587785252292
-0.468429850867 0.757935420048 0.453990499739
-0.237086325351 0.606825149272 0.758652300163
-0.37174803446 0.601500955008 0.707106781186
-0.309016994375 0.5 0.809016994375
-0.601500955008 0.707106781186 0.37174803446
-0.564254211766 0.646577791798 0.51337544123
-0.688190960236 0.587785252292 0.425325404176
-0.646577791798 0.51337544123 0.564254211766
-0.51337544123 0.564254211766 0.646577791798
-0.587785252292 0.425325404176 0.688190960236
-0.757935420048 0.453990499739 0.468429850867
-0.707106781186 0.37174803446 0.601500955008
-0.809016994375 0.309016994375 0.5
-0.453990499739 0.468429850867 0.757935420048
-0.702309846744 0.647411893882 0.296004592578
-0.792649229259 0.571251659136 0.213022865649
-0.783451698363 0.516121620051 0.346153014789
-0.862668480416 0.433888564553 0.259891913008
-0.864929335863 0.484441642061 0.131200378813
-0.843911474622 0.375038567478 0.383613732685
-0.375038567478 0.383613732685 0.843911474622
-0.516121620051 0.346153014789 0.783451698363
-0.433888564553 0.259891913008 0.862668480416
-0.647411893882 0.296004592578 0.702309846744
-0.571251659136 0.213022865649 0.792649229259
-0.69378047756 0.16062203564 0.702046444776
-0.758652300163 0.237086325351 0.606825149272
-0.484441642061 0.131200378813 0.864929335863
-0.615642020874 0.0810862934433 0.78384304242
-0.525731112119 0.0 0.850650808352
0.0810862934433 0.78384304242 0.615642020874
0.0 0.711281734962 0.702907030488
0.16062203564 0.702046444776 0.69378047756
-0.08114185162 0.620239582613 0.78020437071
0.08114185162 0.620239582613 0.78020437071
0.0 0.525731112119 0.850650808352
-0.15643446504 0.519258489728 0.840177885327
0.237086325351 0.606825149272 0.758652300163
0.15643446504 0.519258489728 0.840177885327
0.309016994375 0.5 0.809016994375
-0.238676930319 0.386187385588 0.891006524188
-0.0823235800317 0.399607051702 0.912982492932
-0.162459848116 0.26286555606 0.951056516295
0.0 0.266404701135 0.963861263467
0.0823235800317 0.399607051702 0.912982492932
0.162459848116 0.26286555606 0.951056516295
-0.0822424652791 0.133071104141 0.987688340595
0.0822424652791 0.133071104141 0.987688340595
0.0 0.0 1.0
0.238676930319 0.386187385588 0.891006524188
-0.301258879093 0.264082750659 0.916244175191
-0.358228793487 0.131655371352 0.924304600611
-0.220117027473 0.132792476828 0.966392597402
-0.273266528913 0.0 0.961938357784
-0.403355348617 0.0 0.915043421233
-0.137952242128 0.0 0.990438881957
0.375038567478 0.383613732685 0.843911474622
0.301258879093 0.264082750659 0.916244175191
0.433888564553 0.259891913008 0.862668480416
0.220117027473 0.132792476828 0.966392597402
0.358228793487 0.131655371352 0.924304600611
0.273266528913 0.0 0.961938357784
0.137952242128 0.0 0.990438881957
0.484441642061 0.131200378813 0.864929335863
0.403355348617 0.0 0.915043421233
0.525731112119 0.0 0.850650808352
-0.484441642061 -0.131200378813 0.864929335863
-0.358228793487 -0.131655371352 0.924304600611
-0.433888564553 -0.259891913008 0.862668480416
[...]
CELL_DATA 1280
SCALARS cell_data_0 double
LOOKUP_TABLE default
6.25076926151e-06
1.04520721314e-06
1.7511658314e-10
3.77383615477e-07
3.24827560066e-06
2.56793851687e-06
3.12321766562e-06
4.25168151626e-07
4.30586825813e-06
4.98130036573e-06
6.89776902326e-06
4.13355669459e-06
2.28630976391e-08
7.5093570993e-07
1.79444400351e-06
1.71579225369e-07
1.05217544594e-05
8.67251978398e-06
1.05455873902e-05
4.78462099119e-06
9.33077067776e-06
6.89342700931e-06
5.43481365784e-06
4.85634900413e-06
1.092179421e-05
9.99904599503e-06
1.06475633387e-05
6.2235855176e-06
3.5459000744e-06
3.05329235299e-06
3.04197307888e-06
5.97256463984e-07
1.13429912363e-05
1.37546610409e-05
1.61504089174e-05
1.1504712032e-05
1.98266422573e-05
1.77438884123e-05
1.89203835145e-05
1.26272076459e-05
2.29671398607e-05
2.806496219e-05
3.03135838391e-05
2.2877932161e-05
1.13868303919e-05
1.34894581459e-05
1.53975769562e-05
1.14174576028e-05
9.2745283661e-08
2.97324603545e-06
2.08843775256e-06
6.03111993073e-06
4.19420588143e-06
9.19331150964e-06
6.36526921811e-06
1.02040912148e-05
2.53752248364e-06
4.42868231941e-06
7.42859686347e-06
1.36540067506e-07
6.55142393099e-06
5.28848504374e-06
5.66650560317e-06
3.15869922742e-06
3.93184262428e-06
3.77600540465e-06
3.34394616837e-06
6.64002672104e-06
4.71981781343e-06
4.63001790571e-06
7.23995384718e-07
6.77383245502e-06
6.47219265932e-07
3.54061478628e-06
7.5677356278e-06
3.00748408491e-06
7.83892547377e-06
4.22538255161e-06
5.26679500463e-07
5.57864571702e-06
1.05253759602e-05
7.57989306864e-06
1.29872541496e-05
5.89098802256e-06
1.32495039355e-05
9.59956798617e-07
5.06539547959e-06
2.71298261709e-07
2.1410230124e-05
2.08785798093e-05
3.11448638206e-05
1.36967234778e-05
1.24255024156e-06
1.45225691421e-05
5.7343192657e-06
1.32775487709e-05
1.17011334381e-05
1.2184200881e-05
1.59142372005e-05
1.2641405948e-05
1.97990511467e-05
2.51734245295e-05
3.42160842975e-05
2.15968106967e-05
2.63558307226e-05
3.86015692107e-05
3.73300838859e-05
3.85198700188e-05
2.44368334955e-05
3.51159011414e-05
3.63075929122e-05
3.33373906949e-05
2.04427393776e-05
2.15520755073e-05
4.59923340047e-06
1.45195258983e-05
6.0676991218e-06
3.76856064611e-06
5.44602171456e-07
1.22412524369e-05
1.25180202827e-05
2.00083303287e-05
2.61540693141e-05
1.42699384979e-05
9.18512839525e-06
5.99242522197e-07
1.24186057526e-06
7.86478460812e-06
1.53267255999e-05
2.46507866839e-05
1.38292393689e-05
3.54434212339e-05
2.54704264952e-05
4.32174268266e-05
3.73552730151e-05
4.11997661001e-05
1.72006756065e-05
1.85029061338e-05
9.79132238386e-06
2.18743199963e-05
3.96412722894e-05
3.31564209459e-05
2.79637623668e-05
2.1156873072e-05
1.26220628553e-05
1.92729192433e-05
2.21266141184e-05
2.17413522011e-05
2.58571000377e-05
2.94766925364e-05
4.21985338101e-05
2.90374433883e-05
2.95712016988e-05
3.74659510684e-05
3.29536849778e-05
4.45494700364e-05
2.35115320406e-05
2.38229119262e-05
3.98657316084e-05
2.01904983813e-05
1.44669348977e-05
1.53534041672e-05
1.4013612233e-05
1.41407545412e-05
6.41334668186e-06
1.69917690105e-05
2.51980437172e-05
2.55924133689e-05
4.31156687971e-06
1.78114204092e-06
3.97936881041e-06
1.04847454966e-05
3.4864341559e-05
3.6051880037e-05
3.38524799579e-05
2.27066574993e-05
1.70115535288e-05
2.03029434381e-05
3.38312868185e-05
3.93882640108e-05
4.68212006764e-05
4.02602882778e-05
3.32022196191e-05
5.09578125017e-05
4.89026561451e-05
3.25829213549e-05
1.95056006453e-05
2.3380312962e-05
4.55900852128e-05
2.36347437565e-05
2.03390324567e-05
1.03651152645e-05
1.85292828515e-05
2.24121683731e-05
1.09047762407e-05
3.340246337e-05
1.07481771991e-05
7.90890840856e-06
2.54617127494e-05
1.74587586783e-05
1.26346964218e-05
9.59648531013e-06
9.22342799741e-06
2.43584274039e-05
1.73965748368e-05
6.59768952341e-06
2.24222321853e-05
6.7135642585e-06
5.26526482482e-06
2.39233616545e-06
1.84146810633e-05
2.39940879443e-05
1.83269198576e-05
2.69375946853e-06
3.47322076298e-05
2.66830419355e-05
3.179213656e-05
1.84629264612e-05
1.79079723514e-05
4.06368851561e-05
2.78844845989e-05
1.56847706576e-05
5.13315230309e-05
1.46648422745e-05
9.40457017433e-06
9.84778899628e-06
2.19546440443e-05
1.98839942456e-05
1.57325570992e-05
7.34373525731e-06
2.751802646e-05
2.50806218214e-05
1.15888126094e-05
1.25028277371e-06
6.53491818261e-06
1.92548416229e-05
3.27582025525e-05
1.13305282133e-05
2.41313652267e-05
7.28029548756e-06
1.24503330752e-05
1.40023788199e-05
4.42908974553e-05
3.04126319659e-05
3.25391673683e-05
5.07889270433e-06
3.90154842578e-06
3.05710399398e-05
3.71081705758e-05
7.63277422701e-06
5.73916102074e-06
3.31499408315e-06
2.51868911179e-05
1.71776779389e-06
2.78472828775e-06
3.12756928534e-06
1.23268565997e-05
1.3541651305e-05
3.08627784838e-05
3.98430712652e-06
1.41561031384e-05
1.49528940543e-06
3.4006909463e-06
4.42905925931e-06
1.60779179279e-05
3.79703047662e-06
4.93640807566e-06
3.86491255162e-06
1.38746613463e-06
3.08417817246e-06
1.01417651481e-06
9.84497115359e-07
2.45769575203e-06
1.17301903238e-08
9.4050237107e-06
3.04437205173e-06
8.62942493822e-06
1.9627895843e-06
3.62496873019e-06
1.90557072819e-06
1.02889009855e-05
9.24306079445e-08
4.043390948e-06
4.36056781623e-06
5.56415007819e-07
4.30983519486e-06
2.08029484786e-06
1.54273997726e-06
3.66225687374e-06
1.90179219239e-06
2.52516856027e-05
8.56122600267e-06
2.34375413211e-05
4.12270852757e-07
1.09980949527e-05
8.58298413523e-06
2.33604401796e-05
7.75802649227e-07
2.92228758081e-06
1.03845096947e-05
9.47012658441e-06
8.10621703545e-07
1.00705221522e-05
3.45960146041e-06
3.04418515843e-06
6.3383815268e-06
1.69486189245e-07
1.80429620553e-06
3.85230202304e-07
5.4176637917e-06
1.25190208777e-06
2.95029597551e-06
2.76785940859e-06
2.16578294121e-06
1.59646695879e-06
3.77670391315e-07
1.41589891311e-06
6.59104076418e-06
1.80710355541e-06
6.97001383331e-06
2.3327161002e-05
6.98426159317e-05
3.72316079778e-05
8.55502861972e-05
9.74936878671e-05
0.00013950386552
7.49268718975e-05
8.52748938068e-05
3.653745876e-05
9.43090427979e-05
4.40614171033e-05
0.000102720234025
8.04563841427e-05
0.000150526956683
8.67456436428e-05
0.000103073057724
0.000130424663335
0.000169916706982
5.67613850073e-05
8.80696852364e-05
3.43781397318e-05
7.88223811177e-05
2.98486553516e-05
4.22490958766e-05
7.27438294529e-05
0.000195405980759
0.000107647421977
7.27424675883e-05
8.32845176788e-05
0.000203258189167
7.84885410079e-05
0.00016774700145
3.39172013008e-05
5.36997382016e-05
2.11696027557e-05
4.73810465393e-05
7.01700814588e-05
7.77019481951e-05
3.25815908044e-05
2.1466271901e-05
3.22500949416e-05
5.40387692212e-05
1.39638342482e-05
4.69454560568e-05
5.31800848132e-05
0.000136149238924
4.07520165031e-05
7.88292347235e-05
0.000132710680065
0.000168448695299
7.10458910077e-05
5.65044901844e-05
2.85000099809e-05
6.36830067135e-05
2.2846095661e-05
2.48757038198e-05
6.1182229607e-05
0.00016209022381
8.98265503596e-05
5.88000939665e-05
1.77762493779e-05
3.842229036e-05
1.19447591355e-05
1.77332685502e-05
2.91695716878e-05
4.50667679198e-05
6.47564378056e-06
2.07578793468e-05
1.00435889004e-05
1.96208563167e-05
4.68351111392e-06
1.81055420583e-06
8.81225535687e-06
1.79549043348e-05
1.17490009135e-05
5.12589367938e-06
2.53832716001e-05
3.38149743686e-05
7.26436093734e-06
1.51561553318e-05
2.29552377007e-05
9.42718469703e-05
7.34613701848e-05
5.360696442e-05
0.000133885653705
0.000255867935874
9.93068954412e-05
0.00011953660901
9.37126345706e-05
0.000185028056555
0.000102334354389
8.51277218505e-05
2.42174678283e-05
6.20830057378e-05
5.1035957164e-05
3.13241421987e-06
4.22303111154e-05
8.5373940471e-05
5.77890745044e-05
3.99551547028e-05
6.58799186494e-05
0.0001153337609
5.47412942693e-05
5.58306412356e-05
1.85005559474e-05
1.97287078199e-05
1.2472469563e-06
2.10722754647e-05
5.18874202032e-05
5.54848010523e-05
1.6043372059e-05
3.27024808813e-05
4.88200063373e-05
5.03242582973e-05
4.79844284542e-06
1.71584107464e-05
1.40986489143e-05
1.38374495381e-05
1.09108372622e-05
1.47429607469e-05
1.03987657773e-05
1.49855011372e-05
3.076217955e-05
8.79642356819e-06
5.21833624296e-06
2.28526300054e-06
9.47353722908e-06
1.76204979336e-06
6.49075735013e-06
6.98344733245e-06
7.42287930179e-06
4.35056682558e-06
6.76362913707e-06
5.35873575345e-06
3.92248955468e-06
3.6033415138e-06
6.93421638809e-06
6.29465721677e-06
1.29824204739e-06
4.40471489719e-06
1.69276837522e-06
1.81984875577e-06
2.19036839328e-06
9.23784513831e-06
8.47172303685e-07
4.33817937674e-06
2.68297820257e-06
3.94373610264e-06
1.81672911269e-06
1.96373053755e-06
1.02563187496e-06
2.66071087828e-06
9.7126893309e-07
4.41977652337e-07
1.27584644753e-05
3.06679563875e-07
2.08953784626e-06
1.32451004106e-06
8.78634659577e-07
1.11174813735e-05
7.44021956237e-07
3.16688565025e-06
1.92703657809e-06
1.62594298976e-06
2.86781152238e-07
1.55163264223e-06
2.31484107512e-06
6.66697773686e-07
2.42247972828e-07
8.19962165579e-07
5.00775643986e-07
2.18263360198e-06
6.29733031303e-07
1.9161416121e-06
2.70850274633e-06
1.20635817301e-05
1.40560061927e-05
2.42070149874e-06
2.04391360374e-07
2.78917090603e-06
7.03856328258e-08
1.81826658969e-08
3.26147756508e-07
1.77048478639e-07
1.04098291792e-08
1.7702959825e-07
1.12674530584e-05
4.61756213498e-07
1.44380579923e-07
1.05369438773e-08
3.65419733034e-07
3.92910979625e-06
3.3789993827e-05
3.90534797616e-05
3.50287306714e-05
4.40116165322e-05
4.14178959923e-05
4.95906268491e-05
5.02439468896e-05
4.98820889435e-05
3.73798880946e-05
4.2481475733e-05
3.55741149044e-05
4.58752596153e-05
5.66433818811e-05
6.08183415413e-05
5.23417121296e-05
7.04080598514e-05
4.13175708023e-05
4.73827471279e-05
4.10690223731e-05
5.37555117241e-05
4.91433295877e-05
6.20716893602e-05
6.25888043161e-05
6.24111770557e-05
4.59773682672e-05
5.44376563962e-05
4.32413566938e-05
5.64058616012e-05
6.61387458758e-05
8.25750785948e-05
7.41179791318e-05
8.81310804622e-05
2.29837312843e-05
1.99948651913e-05
8.97226078268e-06
2.8971149207e-05
1.02108253544e-05
8.0067910417e-06
1.26572001337e-05
2.29991752397e-05
6.26037078281e-06
3.85418930871e-07
3.8895198536e-06
8.33394575248e-06
3.03072501418e-05
2.46014360034e-05
1.71460462719e-05
2.39712535025e-05
7.27618932216e-05
6.73085273281e-05
5.98657388327e-05
5.70688968913e-05
5.04262422576e-05
5.1235995709e-05
4.21853535278e-05
5.35560605354e-05
4.64020842311e-05
4.08488197184e-05
3.23909172604e-05
3.53672478503e-05
4.67108556479e-05
4.02540958039e-05
3.65082177969e-05
3.46060350455e-05
3.4716441611e-06
2.40770615319e-06
2.97118981461e-06
2.94673101377e-06
5.37947569527e-06
7.02058354905e-06
3.67533511121e-06
5.13711390062e-06
1.90702164773e-06
4.53554001567e-06
3.27081638054e-06
4.85968491917e-06
4.86509930993e-06
6.81344070025e-06
3.61778940002e-06
1.70474031864e-05
5.07218501101e-06
5.71061621761e-06
1.98761850258e-06
4.76797630768e-06
1.43259143185e-06
5.01500896496e-06
3.21778542342e-06
4.78686260953e-06
3.48086059483e-06
5.29930639013e-06
2.60348743289e-05
1.38551528858e-06
5.56877586199e-06
7.26982213093e-06
4.36412724622e-06
1.70593084771e-05
1.74280568319e-06
2.04586972324e-06
2.81359888794e-06
1.58944025414e-06
3.27311840301e-06
2.03684198273e-06
1.17832145597e-06
1.19419018703e-06
3.67326647556e-06
2.83387886965e-06
3.37314446972e-06
1.51352968399e-06
3.07931017558e-06
3.43685999976e-06
6.91492428404e-07
2.00893385296e-05
1.1544819169e-05
4.52178025538e-07
4.78820999544e-07
1.07604776744e-06
1.18285834116e-06
3.6671565478e-07
5.69818622634e-07
4.44160535527e-07
4.96541551918e-07
1.74706534105e-06
1.88745058213e-05
7.82099741432e-07
1.33747092009e-06
1.69962583899e-06
6.89005361449e-07
4.15893612946e-06
1.32144446338e-05
1.27075190228e-05
2.37735604948e-05
1.5968875781e-06
1.09547682181e-05
2.23308559991e-06
1.45718659116e-06
1.23548349327e-06
1.95521828574e-05
8.66338330937e-06
1.42292495393e-05
1.40661451048e-06
6.59054928791e-07
1.33007309862e-06
1.17206202e-06
1.67190369209e-05
6.45442283196e-06
8.70114567762e-06
7.33738632354e-06
8.63350327021e-06
1.52482664564e-05
3.43989759946e-05
1.88374824384e-05
2.38955533461e-05
1.4081772241e-05
2.0336899634e-05
1.47233795944e-05
8.29691209716e-06
1.26247193289e-05
2.20649501565e-05
1.9079006908e-05
3.00312613385e-05
1.06326317279e-05
2.07546029689e-05
4.88039281388e-05
1.27685429332e-05
6.14388819415e-05
5.98729833819e-05
4.53619316327e-05
3.6865662333e-05
4.58778759999e-05
5.39435897795e-05
3.45886515904e-05
5.25548560359e-05
2.57913224852e-05
7.6498649093e-05
7.38708419833e-05
4.75321523909e-05
2.57853733154e-05
9.77964709602e-06
7.38204181584e-06
1.76122097661e-06
1.32797908934e-05
2.37836442338e-05
1.45550611051e-05
6.72933716896e-06
1.34151748597e-05
6.67667723195e-05
4.82797241809e-05
5.1793951576e-05
3.04258925023e-06
1.55041372148e-05
1.18370158695e-05
5.88845499273e-06
2.39339557644e-05
1.63844576943e-05
1.70138712861e-05
1.82640483743e-05
1.57559165557e-05
9.14840521466e-06
8.67579074813e-06
1.4136348304e-05
1.29974583674e-05
7.50194666597e-06
1.01417228163e-05
8.85783714599e-06
2.7532526278e-07
2.61489627496e-05
2.96740495123e-06
3.03791889906e-05
4.83644922865e-05
4.31626745654e-05
4.20348908209e-05
4.37725154482e-06
2.65363588227e-05
7.18344727608e-05
3.74866142485e-05
3.759288872e-05
8.78044318251e-06
1.4249525985e-05
2.89303629833e-06
9.4843964427e-06
3.10120108383e-05
3.87970163738e-05
1.75634788684e-05
1.2485466142e-05
3.95802088965e-05
1.41326819465e-05
4.35465923591e-06
1.45067116682e-05
3.23327308513e-06
1.75707533872e-06
5.41930165601e-07
2.77105593205e-06
2.53306028542e-06
9.54297000212e-07
1.72482499714e-06
3.8857379467e-07
4.49996507963e-07
9.60234913524e-07
2.19101687285e-07
7.86877334423e-07
1.78062989085e-06
3.53899122931e-06
2.96738625239e-06
3.67216789772e-06
1.6875831586e-06
1.08542966255e-06
8.51243236018e-07
7.07250413036e-07
8.88970653985e-08
1.13490495332e-06
1.00375132995e-06
6.26325964721e-07
1.23395088237e-06
9.96434864878e-08
3.08265205422e-07
1.00057862002e-06
1.00585022918e-05
1.0691515887e-05
1.37975356773e-05
9.55593987416e-06
1.51745989731e-05
1.21890777275e-05
1.22518406764e-05
6.36990713326e-06
1.7977464099e-05
1.82459387027e-05
2.14540423231e-05
1.48145730078e-05
1.28560658868e-05
7.0134606331e-06
9.4656578353e-06
3.51518113684e-06
2.57885205605e-05
2.20063000398e-05
2.12581336974e-05
1.80278465873e-05
1.83427451907e-05
1.43804097321e-05
1.00174241683e-05
1.41155690083e-05
1.61055830478e-05
1.06087690425e-05
3.25563507381e-06
8.36620877242e-06
9.95161372532e-06
5.39558928208e-06
4.56717111623e-06
3.75792117676e-06
2.4975366728e-05
2.47602866544e-05
2.76301006574e-05
2.04491293949e-05
2.77619691034e-05
2.20645304383e-05
2.02975991088e-05
1.96409161447e-05
2.91276705282e-05
2.66806820176e-05
2.86243850235e-05
2.10532140074e-05
1.47236434979e-05
7.38930162258e-07
6.49772714592e-06
9.74693770998e-06
3.49442817887e-08
1.71026267735e-06
3.82887295647e-06
1.24398360589e-07
5.72741397573e-06
5.09790253832e-06
4.79845264599e-06
1.57943045833e-06
4.56610821306e-06
4.75384244154e-06
9.0487423678e-07
5.39891084492e-06
3.4380297578e-07
1.92844531571e-06
3.26996606776e-06
1.46540695779e-06
1.46046685574e-06
1.11325992655e-06
1.67506227498e-06
1.91045215726e-07
1.69838929513e-06
9.10709523687e-07
6.09906816665e-07
2.27261025523e-09
2.5118700207e-06
2.61778432463e-06
3.44594797212e-06
3.5363740586e-07
4.2495860719e-07
4.93912141962e-08
1.12843883541e-06
1.60347210027e-06
4.25163377828e-06
3.36230295982e-06
2.45555053429e-06
5.79342559548e-07
1.19690004755e-06
1.32391046836e-06
1.87707045947e-06
3.32350051932e-07
1.09879647066e-06
1.03219765269e-06
1.3885102534e-07
2.03535329319e-06
1.02255886741e-06
1.13134675435e-07
2.53972206695e-06
2.2428160146e-06
4.85820239466e-06
5.12603363491e-06
6.39935698799e-06
2.90609227266e-06
6.42242634856e-06
4.17004847544e-06
2.78510155395e-06
2.14818431241e-06
7.60867612689e-06
7.04811432377e-06
8.20264598972e-06
3.88015227874e-06
1.0343571093e-06
5.6662833663e-07
2.4423211013e-07
4.67631022164e-07
4.59197132119e-06
3.60285066883e-06
3.23657561355e-06
6.04328606349e-06
3.38460575613e-06
1.85587367626e-06
3.16393276169e-06
4.12646694662e-06
2.43591955477e-06
1.3897169827e-06
1.52948123673e-06
3.50218550636e-06
3.67353330952e-06
2.7402696639e-06
4.35223152315e-06
2.01331155538e-06
3.76337536868e-06
4.1936343366e-06
2.80491310388e-06
8.80426105518e-06
6.85495444859e-06
1.06837428898e-05
1.22144660212e-05
1.11886820979e-05
3.21407176675e-06
4.96247008847e-06
3.50838778117e-06
1.02669308156e-05
8.0147603049e-06
4.66271568393e-06
8.55776315455e-06
2.98562175721e-06
4.47801890379e-06
2.32612478983e-06
2.70441821807e-06
7.43167579993e-06
1.72212817971e-06
1.38296610946e-06
2.86239530363e-06
4.3931880747e-06
9.58375090452e-08
4.45340895352e-06
9.26615962345e-09
4.2678129132e-06
5.10933822532e-06
7.13943579727e-07
2.73812180972e-06
1.42400104248e-06
4.50321504938e-06
2.21113163469e-06
4.6561679646e-06
1.97761389772e-06
1.49500642572e-06
1.67020750141e-06
2.60544364508e-06
8.06520791e-07
2.30442634756e-06
7.33501187823e-07
1.60338240796e-07
2.29498122146e-06
2.6300615735e-07
1.50815342134e-05
1.48903091583e-05
2.28733295979e-05
4.20169776515e-08
2.46336598479e-06
2.97664204678e-06
2.8324960713e-06
4.51065932226e-06
5.42497345022e-06
6.79808793396e-06
4.42121870961e-06
4.76458127174e-06
1.30330282529e-06
5.43916720849e-06
2.45988773897e-06
4.76097784744e-06
2.89457942009e-07
7.61571718982e-07
3.68823585332e-07
5.95721837166e-06
4.93926987149e-06
1.04582722816e-06
4.14121123482e-06
2.28828666656e-07
2.73770812498e-06
1.6636164072e-06
3.1721891773e-06
1.04548236645e-06
1.36976063866e-05
1.88003550927e-05
1.42026796286e-05
2.26760880181e-06
1.30355383935e-05
1.34002642789e-05
1.60977591324e-05
4.44756017722e-05
6.16425190848e-05
3.00604397508e-05
3.60584214561e-05
3.7236428251e-05
5.26946100449e-05
3.09356631241e-05
2.31496222312e-05
3.68784033406e-05
5.48529092196e-05
2.6238600296e-05
3.18888589162e-05
2.95733619192e-05
4.5115888038e-05
1.8243553431e-05
3.26666726758e-05
1.40358801268e-05
1.73386806012e-05
1.68309128016e-05
1.83190217466e-05
2.74120626542e-05
1.73222583094e-05
9.48974820575e-06
9.83405683186e-06
1.80106985893e-05
5.09613321851e-06
1.80853572489e-06
4.61570061295e-06
1.63755674257e-05
1.47756275534e-05
2.27007579356e-06
9.97165740139e-06
9.2602877874e-06
1.2662983712e-05
1.15402455259e-05
9.00339580126e-06
7.35693217563e-06
1.22102513426e-05
6.7115274474e-06
1.33203280225e-05
1.21237825684e-05
1.13550524605e-05
7.74612085737e-06
2.0603933305e-06
9.94873772419e-06
5.90165082363e-06
3.7573906152e-06
4.2763584906e-06
2.84722795413e-05
2.40969777112e-05
3.02647087786e-05
1.85737803235e-05
2.78619194919e-05
1.79481066448e-05
1.75926006618e-05
1.86869847097e-05
2.90911075636e-05
2.40431780903e-05
2.21053372783e-05
1.93255155024e-05
1.42330746538e-05
1.05401156552e-05
1.37607225869e-05
6.92684885331e-06
2.17174704723e-05
2.01716816438e-05
1.57124511401e-05
1.94973988044e-05
1.1036181057e-05
8.89217898472e-06
8.08777648188e-06
1.4413285637e-05
8.43741636502e-06
5.32842344254e-06
4.81246742903e-06
6.55911401695e-06
1.39319325749e-05
9.64382602319e-06
8.15867363554e-06
7.435158618e-06
1.64081825446e-05
1.64042444768e-05
1.60158381163e-05
1.36021870139e-05
1.37468394744e-05
1.00541434235e-05
8.48460304874e-06
1.02356399583e-05
1.05096506522e-05
7.3161313958e-06
6.97104655336e-06
8.91901529538e-06
7.29783321459e-06
5.93107600372e-06
7.00159022503e-06
5.0368270499e-06
8.92688763086e-06
5.49522260805e-06
6.15521586716e-06
4.53873885828e-06
4.94261607131e-06
3.03446888562e-06
2.22818184829e-06
3.55683877664e-06
4.44546741577e-06
3.23813555568e-06
3.79804316023e-06
2.84957268701e-06
2.69300419875e-06
1.91458935142e-06
1.91827356289e-06
7.5057222647e-07
7.94220188554e-06
6.8222845694e-06
6.81349360132e-06
4.05116640701e-06
5.63855334937e-06
4.59448867427e-06
3.21596611477e-06
3.64210339254e-06
5.60214882514e-06
4.82618680596e-06
3.10514766215e-06
3.213532072e-06
1.14921324586e-06
1.28044977083e-06
2.16046072319e-06
6.09081820035e-07
5.01367572962e-07
1.20884518181e-06
9.9606939788e-07
2.35694070964e-06
1.5406072797e-06
9.75677764279e-07
1.66391889737e-06
8.18942957129e-07
1.64096324031e-06
1.88214160469e-06
1.43010957997e-05