# vtk DataFile Version 3.0
File Name: Molecule/sphere_dip/sphere_dip_0-s4.vtk
ASCII
DATASET UNSTRUCTURED_GRID
FIELD FieldData 1
TIME 1 1 double
0.0
POINTS 83 double
0.809016994375 0.309016994375 -0.5
0.309016994375 0.5 -0.809016994375
0.5 0.809016994375 -0.309016994375
0.0 0.850650808352 -0.525731112119
-0.309016994375 0.5 0.809016994375
0.0 0.0 1.0
0.309016994375 0.5 0.809016994375
-0.525731112119 0.0 0.850650808352
0.525731112119 0.0 0.850650808352
-0.309016994375 -0.5 0.809016994375
0.309016994375 -0.5 0.809016994375
0.0 -0.850650808352 0.525731112119
0.309016994375 -0.5 -0.809016994375
-0.309016994375 -0.5 -0.809016994375
0.0 0.0 -1.0
0.0 -0.850650808352 -0.525731112119
-0.525731112119 0.0 -0.850650808352
0.809016994375 -0.309016994375 0.5
0.809016994375 0.309016994375 0.5
0.5 0.809016994375 0.309016994375
0.0 0.850650808352 0.525731112119
-0.809016994375 -0.309016994375 -0.5
-0.809016994375 0.309016994375 -0.5
-1.0 0.0 0.0
-0.850650808352 -0.525731112119 0.0
-0.850650808352 0.525731112119 0.0
-0.5 -0.809016994375 -0.309016994375
-0.5 -0.809016994375 0.309016994375
0.0 -1.0 0.0
-0.809016994375 -0.309016994375 0.5
-0.809016994375 0.309016994375 0.5
0.5 -0.809016994375 -0.309016994375
0.5 -0.809016994375 0.309016994375
0.525731112119 0.0 -0.850650808352
-0.309016994375 0.5 -0.809016994375
0.0 0.925325404176 0.26286555606
-0.25 0.829833901363 0.417374053247
-0.25 0.904508497187 0.154508497188
0.0 1.0 0.0
-0.5 0.809016994375 0.309016994375
-0.25 0.904508497187 -0.154508497188
-0.5 0.809016994375 0.0
-0.5 0.809016994375 -0.309016994375
-0.675325404176 0.667374053247 0.154508497188
-0.675325404176 0.667374053247 -0.154508497188
-0.154508497188 0.675325404176 0.667374053247
-0.404508497188 0.654508497187 0.559016994375
-0.654508497187 0.559016994375 0.404508497188
-0.559016994375 0.404508497188 0.654508497187
-0.829833901363 0.417374053247 0.25
0.559016994375 -0.404508497188 0.654508497187
0.404508497188 -0.654508497187 0.559016994375
0.654508497187 -0.559016994375 0.404508497188
0.829833901363 -0.417374053247 0.25
0.675325404176 -0.667374053247 0.154508497188
0.850650808352 -0.525731112119 0.0
1.0 0.0 0.0
0.829833901363 -0.417374053247 -0.25
0.925325404176 -0.26286555606 0.0
0.904508497187 -0.154508497188 -0.25
0.809016994375 -0.309016994375 -0.5
0.809016994375 0.0 -0.5
0.904508497187 0.154508497188 -0.25
0.667374053247 -0.154508497188 -0.675325404176
0.667374053247 0.154508497188 -0.675325404176
0.850650808352 0.525731112119 0.0
0.417374053247 -0.25 -0.829833901363
-0.404508497188 0.654508497187 -0.559016994375
-0.559016994375 0.404508497188 -0.654508497187
-0.654508497187 0.559016994375 -0.404508497188
0.559016994375 -0.404508497188 -0.654508497187
0.654508497187 -0.559016994375 -0.404508497188
0.404508497188 -0.654508497187 -0.559016994375
0.675325404176 -0.667374053247 -0.154508497188
0.675325404176 0.667374053247 -0.154508497188
0.675325404176 0.667374053247 0.154508497188
0.5 0.809016994375 0.0
0.25 0.904508497187 -0.154508497188
0.25 0.904508497187 0.154508497188
0.904508497187 0.154508497188 0.25
0.925325404176 0.26286555606 0.0
0.829833901363 0.417374053247 0.25
0.654508497187 0.559016994375 0.404508497188

CELLS 162 648
3 0 1 2
3 2 1 3
3 4 5 6
3 4 7 5
3 6 5 8
3 7 9 5
3 9 10 5
3 9 11 10
3 5 10 8
3 12 13 14
3 12 15 13
3 14 13 16
3 17 18 8
3 19 20 6
3 18 6 8
3 16 21 22
3 21 23 22
3 21 24 23
3 22 23 25
3 24 26 27
3 26 28 27
3 26 15 28
3 27 28 11
3 24 27 29
3 27 9 29
3 27 11 9
3 29 9 7
3 7 30 29
3 30 23 29
3 29 23 24
3 16 13 21
3 13 26 21
3 13 15 26
3 21 26 24
3 15 31 28
3 31 32 28
3 28 32 11
3 33 14 1
3 14 34 1
3 14 16 34
3 1 34 3
3 19 35 20
3 20 35 36
3 35 37 36
3 35 38 37
3 36 37 39
3 38 40 37
3 40 41 37
3 40 42 41
3 37 41 39
3 42 40 3
3 3 40 38
3 39 41 43
3 41 44 43
3 41 42 44
3 43 44 25
3 20 36 45
3 36 46 45
3 36 39 46
3 45 46 4
3 39 47 46
3 47 48 46
3 47 30 48
3 46 48 4
3 39 43 47
3 43 49 47
3 43 25 49
3 47 49 30
3 4 48 7
3 48 30 7
3 20 45 6
3 45 4 6
3 10 50 8
3 8 50 17
3 10 51 50
3 51 52 50
3 51 32 52
3 50 52 17
3 32 51 11
3 11 51 10
3 17 52 53
3 52 54 53
3 52 32 54
3 53 54 55
3 17 53 56
3 25 44 22
3 30 49 23
3 49 25 23
3 31 54 32
3 55 57 58
3 57 59 58
3 57 60 59
3 58 59 56
3 60 61 59
3 61 62 59
3 61 0 62
3 59 62 56
3 60 63 61
3 63 64 61
3 63 33 64
3 61 64 0
3 62 0 65
3 0 64 1
3 64 33 1
3 33 66 14
3 66 12 14
3 34 67 3
3 3 67 42
3 34 68 67
3 68 69 67
3 68 22 69
3 67 69 42
3 22 68 16
3 16 68 34
3 33 63 66
3 63 70 66
3 63 60 70
3 66 70 12
3 60 71 70
3 71 72 70
3 71 31 72
3 70 72 12
3 60 57 71
3 57 73 71
3 57 55 73
3 71 73 31
3 12 72 15
3 72 31 15
3 55 58 53
3 53 58 56
3 42 69 44
3 44 69 22
3 31 73 54
3 54 73 55
3 2 74 0
3 0 74 65
3 65 74 75
3 74 76 75
3 74 2 76
3 75 76 19
3 2 77 76
3 77 78 76
3 77 38 78
3 76 78 19
3 38 77 3
3 3 77 2
3 56 79 17
3 79 18 17
3 56 80 79
3 80 81 79
3 80 65 81
3 79 81 18
3 65 75 81
3 75 82 81
3 75 19 82
3 81 82 18
3 18 82 6
3 6 82 19
3 19 78 35
3 35 78 38
3 65 80 62
3 62 80 56

CELL_TYPES 162
5
5
5
5
5
5
5
5
5
5
5
5
5
5
5
5
5
5
5
5
5
5
5
5
5
5
5
5
5
5
5
5
5
5
5
5
5
5
5
5
5
5
5
5
5
5
5
5
5
5
5
5
5
5
5
5
5
5
5
5
5
5
5
5
5
5
5
5
5
5
5
5
5
5
5
5
5
5
5
5
5
5
5
5
5
5
5
5
5
5
5
5
5
5
5
5
5
5
5
5
5
5
5
5
5
5
5
5
5
5
5
5
5
5
5
5
5
5
5
5
5
5
5
5
5
5
5
5
5
5
5
5
5
5
5
5
5
5
5
5
5
5
5
5
5
5
5
5
5
5
5
5
5
5
5
5
5
5
5
5
5
5

CELL_DATA 162
SCALARS cell_data_0 double
LOOKUP_TABLE default
0.000552549027687
2.35961011178e-05
0.000246652914403
0.000151614435023
0.000221411060794
0.000167941136388
0.000224613848908
8.38647543593e-05
0.000218525774596
0.000250406467684
8.28843502596e-05
0.000221383220966
1.74523434428e-05
1.40758799676e-05
6.9382942198e-05
0.000159313415319
0.000180075526035
0.000185652507382
0.000187734417707
6.77837823094e-05
9.20116655723e-06
8.09927777198e-07
7.50524512097e-06
5.75369500472e-05
6.07729626253e-05
4.12478475483e-05
0.000130484079464
0.000265065516926
2.90962294855e-06
8.78319055197e-05
8.96737128595e-06
1.68443150213e-06
3.79748026565e-05
0.000167851950506
8.45211420034e-07
5.5806431475e-06
3.91176484737e-06
0.000202395341775
0.000270122171347
0.000222742479085
5.03325992337e-05
3.330764705e-05
1.30723446501e-05
4.12482745643e-06
2.29162326713e-06
1.49058030113e-06
1.66320276245e-05
1.7466834229e-05
2.40192150841e-05
5.79273440708e-06
1.64832251621e-05
2.12830019413e-05
8.96685395163e-06
2.09905326262e-05
2.19757650984e-05
4.33869400665e-05
6.44975345402e-06
8.02298901412e-06
2.55485866112e-06
1.10651595855e-05
9.6437485816e-06
2.78791748821e-06
1.66405049874e-06
1.3440034842e-05
6.96333144588e-06
5.72246901016e-06
2.65166184539e-05
5.49841807524e-06
6.24350258448e-05
0.00011417977159
2.01421714999e-05
5.3576117482e-05
4.61339479613e-05
2.22036269678e-05
2.06986072014e-05
1.74811865966e-05
8.68088673055e-06
1.15883150281e-05
1.36931445777e-05
2.66868414255e-05
3.45718588018e-06
4.42648786778e-06
2.61888588987e-06
4.21525761789e-06
3.58216234655e-05
0.000127763356876
5.74268114597e-06
4.76960545556e-05
1.42305189042e-07
5.97013555315e-06
4.0562982837e-06
2.26698533591e-05
2.84779944023e-05
2.00678265939e-05
9.20680239548e-06
0.000136311430515
4.87151108573e-05
1.53779934475e-05
1.43195043705e-05
6.01869893171e-06
7.09216781659e-05
0.000357916366909
0.000160705598977
1.87365008569e-05
0.000103303677135
0.000109995491657
2.25131356675e-05
2.02633958579e-06
1.11037417041e-05
2.428600918e-06
2.35874556151e-05
4.38042460425e-06
3.82030503501e-05
3.1505169389e-05
9.53093940258e-06
2.06700204815e-06
2.10553535207e-05
6.88856608276e-06
2.17652947584e-05
2.44797601418e-06
1.92608160439e-06
1.0716200652e-05
1.80270863582e-05
2.75101245433e-07
4.89481253338e-06
1.78410589042e-06
1.78570733965e-05
9.08239012366e-07
5.23622988852e-06
2.08809957614e-05
1.45815385248e-05
3.03956067931e-05
5.37618666298e-08
3.9208498607e-06
0.000209067721034
0.000306464639277
2.55374493336e-05
6.39672542527e-07
4.1154260974e-06
3.1224701009e-06
4.19173132863e-06
9.22893710334e-07
5.66473569897e-06
3.83033153891e-06
2.79444262869e-06
5.52251577462e-07
4.31008780812e-05
1.1004415086e-05
2.35695727204e-05
5.04483649671e-07
2.369815731e-05
2.93424822978e-07
2.35523365737e-05
1.38149897196e-06
3.80508600295e-06
4.01743467165e-07
3.13373146973e-05
2.05924099099e-05
4.46525823056e-08
2.82535011554e-06
3.58345312054e-05
3.44823925524e-05

