# vtk DataFile Version 3.0
File Name: Molecule/sphere_dip/sphere_dip_0-s2.vtk
ASCII
DATASET UNSTRUCTURED_GRID
FIELD FieldData 1
TIME 1 1 double
0.0
POINTS 59 double
0.850650808352 -0.525731112119 0.0
0.809016994375 -0.309016994375 -0.5
1.0 0.0 0.0
0.809016994375 0.309016994375 -0.5
0.525731112119 0.0 -0.850650808352
0.850650808352 0.525731112119 0.0
0.5 0.809016994375 -0.309016994375
0.309016994375 0.5 -0.809016994375
0.0 0.850650808352 -0.525731112119
0.5 0.809016994375 0.309016994375
0.0 1.0 0.0
-0.309016994375 0.5 0.809016994375
0.0 0.0 1.0
0.309016994375 0.5 0.809016994375
-0.525731112119 0.0 0.850650808352
0.525731112119 0.0 0.850650808352
-0.309016994375 -0.5 0.809016994375
0.309016994375 -0.5 0.809016994375
0.0 -0.850650808352 0.525731112119
0.309016994375 -0.5 -0.809016994375
0.0 0.0 -1.0
-0.309016994375 -0.5 -0.809016994375
0.0 -0.850650808352 -0.525731112119
-0.525731112119 0.0 -0.850650808352
0.809016994375 0.309016994375 0.5
0.809016994375 -0.309016994375 0.5
0.0 0.850650808352 0.525731112119
-0.809016994375 -0.309016994375 -0.5
-0.809016994375 0.309016994375 -0.5
-1.0 0.0 0.0
-0.850650808352 -0.525731112119 0.0
-0.850650808352 0.525731112119 0.0
-0.309016994375 0.5 -0.809016994375
-0.5 0.809016994375 -0.309016994375
-0.5 -0.809016994375 -0.309016994375
-0.5 -0.809016994375 0.309016994375
0.0 -1.0 0.0
-0.809016994375 -0.309016994375 0.5
-0.809016994375 0.309016994375 0.5
0.5 -0.809016994375 -0.309016994375
0.5 -0.809016994375 0.309016994375
0.0 0.925325404176 0.26286555606
-0.25 0.829833901363 0.417374053247
-0.25 0.904508497187 0.154508497188
-0.5 0.809016994375 0.309016994375
-0.25 0.904508497187 -0.154508497188
-0.5 0.809016994375 0.0
-0.675325404176 0.667374053247 0.154508497188
-0.675325404176 0.667374053247 -0.154508497188
-0.154508497188 0.675325404176 0.667374053247
-0.404508497188 0.654508497187 0.559016994375
-0.654508497187 0.559016994375 0.404508497188
-0.559016994375 0.404508497188 0.654508497187
-0.829833901363 0.417374053247 0.25
0.559016994375 -0.404508497188 0.654508497187
0.404508497188 -0.654508497187 0.559016994375
0.654508497187 -0.559016994375 0.404508497188
0.829833901363 -0.417374053247 0.25
0.675325404176 -0.667374053247 0.154508497188

CELLS 114 456
3 0 1 2
3 1 3 2
3 1 4 3
3 2 3 5
3 5 3 6
3 3 7 6
3 3 4 7
3 6 7 8
3 5 6 9
3 6 10 9
3 6 8 10
3 11 12 13
3 11 14 12
3 13 12 15
3 14 16 12
3 16 17 12
3 16 18 17
3 12 17 15
3 4 19 20
3 19 21 20
3 19 22 21
3 20 21 23
3 2 24 25
3 2 5 24
3 25 24 15
3 5 9 24
3 9 13 24
3 9 26 13
3 24 13 15
3 23 27 28
3 27 29 28
3 27 30 29
3 28 29 31
3 8 32 33
3 32 28 33
3 32 23 28
3 30 34 35
3 34 36 35
3 34 22 36
3 35 36 18
3 30 35 37
3 35 16 37
3 35 18 16
3 37 16 14
3 14 38 37
3 38 29 37
3 37 29 30
3 23 21 27
3 21 34 27
3 21 22 34
3 27 34 30
3 22 39 36
3 39 40 36
3 36 40 18
3 4 1 19
3 1 39 19
3 1 0 39
3 19 39 22
3 4 20 7
3 20 32 7
3 20 23 32
3 7 32 8
3 10 41 9
3 9 41 26
3 26 41 42
3 41 43 42
3 41 10 43
3 42 43 44
3 10 45 43
3 45 46 43
3 45 33 46
3 43 46 44
3 33 45 8
3 8 45 10
3 44 46 47
3 46 48 47
3 46 33 48
3 47 48 31
3 26 42 49
3 42 50 49
3 42 44 50
3 49 50 11
3 44 51 50
3 51 52 50
3 51 38 52
3 50 52 11
3 44 47 51
3 47 53 51
3 47 31 53
3 51 53 38
3 11 52 14
3 52 38 14
3 26 49 13
3 49 11 13
3 17 54 15
3 15 54 25
3 17 55 54
3 55 56 54
3 55 40 56
3 54 56 25
3 40 55 18
3 18 55 17
3 25 56 57
3 56 58 57
3 56 40 58
3 57 58 0
3 25 57 2
3 2 57 0
3 31 48 28
3 28 48 33
3 38 53 29
3 53 31 29
3 0 58 39
3 39 58 40

CELL_TYPES 114
5
5
5
5
5
5
5
5
5
5
5
5
5
5
5
5
5
5
5
5
5
5
5
5
5
5
5
5
5
5
5
5
5
5
5
5
5
5
5
5
5
5
5
5
5
5
5
5
5
5
5
5
5
5
5
5
5
5
5
5
5
5
5
5
5
5
5
5
5
5
5
5
5
5
5
5
5
5
5
5
5
5
5
5
5
5
5
5
5
5
5
5
5
5
5
5
5
5
5
5
5
5
5
5
5
5
5
5
5
5
5
5
5
5

CELL_DATA 114
SCALARS cell_data_0 double
LOOKUP_TABLE default
0.000791188746424
0.00089789285789
0.000574371023454
0.000211232851438
0.000212154263282
0.000259984597054
8.82897350607e-05
9.24045473408e-05
0.000216811067125
0.000249114620968
8.2875686655e-05
0.000257501666162
0.000224646498105
0.000203930727634
0.0002046960404
0.000246464980961
8.05520401208e-05
0.000215709020021
0.000224685114896
0.000223673191684
8.73677871613e-05
0.000184926468647
0.000198286935853
0.000198625702373
8.42744505994e-05
0.000185251315301
0.000244285265641
0.00011622465743
0.000102651796186
5.76593583208e-05
1.91319349438e-05
3.86212569984e-06
1.65252638502e-06
0.000267738015641
0.000315358866557
9.43195180052e-05
1.87136663389e-05
2.20092173476e-05
1.38786861906e-05
2.52539167744e-06
1.16342807983e-06
4.4758256346e-05
3.57066979016e-05
8.95961574966e-05
5.63856114453e-05
1.01135178184e-05
2.53065337796e-06
8.67703049371e-05
5.29786434724e-05
3.46133982342e-05
6.13632920669e-07
7.30923563705e-06
1.71133984208e-05
1.15117394289e-06
0.000254539949118
0.000325090172126
0.000581915516288
3.96843047537e-05
0.000220315949492
0.000276443562873
0.000197840239565
6.91944168114e-05
4.89007971893e-05
4.11988957657e-05
1.33700780135e-06
2.3950314559e-06
4.48456396063e-06
1.56386655886e-05
3.44759963881e-06
2.5060850965e-06
0.000127173754274
2.063588809e-05
0.000191870382227
2.06772165886e-06
2.01491912019e-05
6.96894690497e-07
0.000108166251757
2.54308416966e-06
1.54480345708e-06
3.1786560531e-06
1.84181077101e-05
7.80353135069e-06
2.4578729795e-05
2.77328166123e-06
3.24542353433e-06
6.50520935972e-06
2.05902923299e-05
8.04703109245e-07
2.22001548011e-06
1.96140959125e-06
3.71981846016e-05
2.99843447055e-05
9.17119455622e-06
7.8892008283e-06
2.65687879742e-05
6.7217614467e-06
1.07259167792e-05
2.77683322729e-06
4.64184685283e-06
3.11677792033e-06
3.13526025417e-06
2.3216297294e-05
1.87739906373e-06
1.21603988538e-06
3.78232134405e-06
2.0824339293e-05
4.2548834055e-05
9.51384294776e-05
2.11862863845e-07
0.000194592028536
2.99756408594e-06
4.17991179072e-06
4.24564432381e-05
8.28525683042e-06

