# vtk DataFile Version 3.0
File Name: Molecule/sphere_excent/sphere_excent_0-s14.vtk
ASCII
DATASET UNSTRUCTURED_GRID
FIELD FieldData 1
TIME 1 1 double
0.0
POINTS 167 double
0.85049796104 -0.52603185177 -7.134504267e-05
0.80745983124 -0.31008824706 -0.50187677145
0.99678897858 -0.0036362612154 -0.078001469374
0.8061363101 0.30928647518 -0.50446587801
0.52543765306 -6.6479085945e-05 -0.85083281994
0.86152386665 0.50519132614 -0.043829698116
0.50006902218 0.80823260546 -0.31124946475
0.30877527595 0.49993243814 -0.80904626846
-0.0012943656184 0.85034316778 -0.52629727125
0.0036484673619 0.99831569195 -0.040697004646
0.30871850252 -0.49964490533 -0.80923199654
-2.4113836844e-05 -5.9290327954e-06 -0.99989378452
-0.30860564113 -0.49967893958 -0.80936181545
0.0012889610371 -0.84855741262 -0.52926284075
-0.52569234371 -8.1364101788e-05 -0.85067486763
-0.80904006958 -0.30997312069 -0.49906104803
-0.80846697092 0.30850279331 -0.50118124485
-0.99721997976 0.0081258425489 -0.049336586148
-0.30857345462 0.49903151393 -0.80974882841
-0.51217067242 0.78236877918 -0.35187095404
-0.82717770338 0.5588105917 -0.032661139965
-0.47315561771 -0.81174480915 -0.34040510654
0.029937829822 -0.99693894386 -0.064850658178
0.49993789196 -0.80577021837 -0.31813061237
0.46078452468 -0.86253982782 0.20227091014
-0.50998884439 0.022300770506 0.85941630602
-0.45736321807 -0.17159797251 0.87070566416
-0.31197232008 -0.021536309272 0.94978874922
-0.005913994275 -0.066478416324 0.99688404799
-0.17551362514 -0.21874336898 0.95954799652
0.076149970293 -0.23672312498 0.96701806784
-0.56625306606 0.45574039221 0.68649679422
-0.71271520853 0.20467762649 0.66988766193
-0.49460113049 0.26812520623 0.82537460327
-0.85323107243 0.31567016244 0.41419568658
-0.87396240234 0.0024629910477 0.48604673147
0.28502759337 -0.5929942131 0.7530362606
0.39143851399 -0.71884834766 0.57076174021
0.57251417637 -0.496422261 0.65250754356
0.69625008106 -0.58919543028 0.40709733963
0.82730180025 -0.29694136977 0.47656968236
0.0548081249 -0.85735809803 0.51128190756
0.064918138087 -0.71466076374 0.69619745016
0.83325523138 0.31865677238 0.45144912601
0.61205667257 0.42143163085 0.667712152
0.71109366417 0.18383955956 0.67850846052
0.51151156425 0.25824552774 0.81937211752
0.57564586401 0.065073996782 0.81504708529
0.04498687759 0.8310225606 0.55381381512
-0.24154087901 0.87238150835 0.4250459075
-0.16575293243 0.71518540382 0.67897897959
-0.40234801173 0.70613431931 0.58260977268
-0.5312538147 0.80697500706 0.25711420178
-0.32003375888 0.53064513206 0.78464305401
0.10031115264 0.60866528749 0.78667974472
-0.078773334622 0.54029357433 0.83759248257
0.17948387563 -0.45216339827 0.87308722734
0.047862358391 -0.57021594048 0.82009136677
-0.091740548611 -0.42400127649 0.90090560913
0.27034747601 -0.052201304585 0.96070659161
0.32530131936 -0.25037047267 0.91068613529
0.4788184166 -0.10552313179 0.87133741379
0.36996659636 -0.42576962709 0.82572329044
0.48553329706 -0.29282468557 0.8234975338
0.40256583691 0.10647381097 0.90897536278
0.74110686779 -0.062275525182 0.66810196638
0.87790167332 0.020867733285 0.47859212756
0.64236664772 -0.30184146762 0.70356714725
0.15753950179 0.27927717566 0.94715923071
0.24218049645 0.14408987761 0.95947349072
0.32662802935 0.27905163169 0.9029353857
0.31834420562 0.62835991383 0.70862555504
0.082960113883 0.42938947678 0.89914137125
0.23967242241 0.44119298458 0.86447423697
0.41088801622 0.4210934341 0.80829405785
-0.73414844275 0.5857462883 0.34239223599
0.96038627625 -0.14332994819 0.23949205875
0.96034735441 0.16120421886 0.22717702389
-0.092393800616 0.16368842125 0.98195928335
0.073486194015 0.13735179603 0.98747313023
0.015139015391 0.27550977468 0.96113890409
-0.71819227934 0.4321436286 0.54542928934
-0.59903025627 0.62862312794 0.49592983723
-0.11583860219 -0.74412578344 0.65747058392
-0.11253635585 -0.60960638523 0.78462231159
-0.29698476195 -0.5773729682 0.76003962755
0.29698225856 0.94316285849 0.14242087305
0.69270563126 0.70789241791 0.13416174054
0.50151884556 0.79886698723 0.33210429549
0.27400258183 0.86264020205 0.42527699471
0.024825725704 0.95988601446 0.27938351035
-0.8453181386 -0.53335183859 -0.024734428152
-0.95842397213 -0.28491476178 -0.0097673106939
-0.26609861851 -0.95313745737 0.14164741337
-0.5073581934 -0.80821233988 0.29873776436
-0.23802594841 -0.88651239872 0.39519637823
0.016031796113 -0.96557605267 0.25632750988
-0.70403921604 -0.69386792183 0.15204881132
-0.58120459318 -0.65647602081 0.47891935706
-0.86375695467 -0.45688924193 0.21213003993
-0.81320929527 -0.37826368213 0.44171261787
-0.95375013351 -0.17862302065 0.24031198025
0.42594993114 -0.80689924955 0.40170231462
-0.38406211138 0.14264662564 0.91222304106
-0.96213018894 0.16190846264 0.21713413298
-0.78567004204 -0.23083612323 0.57175773382
-0.18563337624 0.27761465311 0.94253307581
-0.30255591869 0.29279044271 0.90653151274
-0.25095823407 0.16391283274 0.95402759314
-0.27927693725 0.95164889097 0.12749403715
-0.27168363333 0.94667583704 -0.17312937975
-0.53151762486 0.84638077021 -0.035928655416
0.86284017563 0.44884979725 0.23164488375
0.7348357439 0.56909394264 0.36913207173
-0.95673567057 0.28974026442 -0.016149632633
-0.6967946291 -0.69767415524 -0.16616682708
-0.54118108749 -0.84098136425 0.0084229027852
-0.88395637274 0.42406353354 0.19718891382
-0.16182683408 0.41307282448 0.8955244422
-0.041614770889 0.39982366562 0.91556423903
-0.19073536992 -0.81838583946 0.54195857048
-0.29988691211 -0.74223279953 0.59918671846
-0.22705128789 -0.67251574993 0.70421129465
-0.43325600028 -0.64492118359 0.6294067502
-0.40935826302 -0.77961409092 0.47384297848
-0.087020002306 0.3035428226 0.9488041997
-0.15322180092 -0.035383921117 0.98739892244
-0.62084168196 0.10037337989 0.77745991945
-0.61917346716 -0.064829155803 0.78215289116
-0.71582841873 0.034382984042 0.6972873807
-0.72529911995 -0.10901819915 0.67914015055
0.48709824681 0.55081480742 0.67704391479
0.43798261881 0.72128844261 0.53652453423
0.57456874847 0.64465790987 0.50413030386
0.67109125853 0.51896774769 0.52935522795
0.61575549841 -0.096670664847 0.78191125393
0.58003729582 -0.20082958043 0.7894770503
0.68734079599 -0.18448588252 0.7024102211
-0.061224412173 0.052150689065 0.99682325125
-0.18483476341 0.066542506218 0.98052453995
0.62854659557 0.69152063131 0.35565933585
-0.56090170145 -0.5136526823 0.64825671911
0.12739130855 -0.065287865698 0.98888528347
0.20149229467 -0.24022775888 0.94858807325
-0.32760620117 -0.20668551326 0.92175126076
-0.4144525528 0.40140709281 0.8163779974
0.55502724648 -0.67323589325 0.48857665062
0.59140026569 -0.73979079723 0.32080060244
-0.42087996006 -0.28769183159 0.86018019915
-0.28416836262 -0.3185954392 0.90372657776
-0.38323119283 -0.3850004971 0.8396448493
-0.34359756112 -0.47105652094 0.81153959036
-0.43570926785 -0.54340267181 0.71732586622
-0.47884494066 -0.44970411062 0.75393044949
-0.5082526803 -0.34973201156 0.78695845604
-0.60067516565 -0.40818715096 0.68748146296
-0.6180434823 -0.30411821604 0.72478729486
-0.54697787762 -0.24414440989 0.80032962561
-0.69054841995 -0.44909325242 0.56615835428
-0.72223353386 -0.3393868804 0.60227543116
-0.67614251375 -0.21155977249 0.70566225052
0.13615973294 -0.34397563338 0.92877006531
0.24715614319 -0.34811395407 0.90427964926
0.045055009425 0.033126868308 0.99827587605
0.16426618397 0.040488813072 0.98558723927
-0.39746314287 0.29311716557 0.86962008476
-0.3184196353 0.40748548508 0.85577815771

CELLS 330 1320
3 0 1 2
3 1 3 2
3 1 4 3
3 2 3 5
3 5 3 6
3 3 7 6
3 3 4 7
3 6 7 8
3 6 8 9
3 4 10 11
3 10 12 11
3 10 13 12
3 11 12 14
3 14 15 16
3 15 17 16
3 8 18 19
3 18 16 19
3 18 14 16
3 19 16 20
3 21 13 22
3 14 12 15
3 12 21 15
3 12 13 21
3 13 23 22
3 23 24 22
3 23 0 24
3 4 1 10
3 1 23 10
3 1 0 23
3 10 23 13
3 4 11 7
3 11 18 7
3 11 14 18
3 7 18 8
3 25 26 27
3 28 29 30
3 31 32 33
3 32 34 35
3 36 37 38
3 38 39 40
3 41 37 42
3 40 39 0
3 43 44 45
3 44 46 45
3 45 46 47
3 48 49 50
3 49 51 50
3 49 52 51
3 50 51 53
3 48 50 54
3 55 50 53
3 53 51 31
3 36 56 57
3 56 58 57
3 59 60 61
3 56 36 62
3 60 62 63
3 63 61 60
3 59 61 64
3 29 58 30
3 47 65 45
3 43 45 66
3 63 62 38
3 38 62 36
3 40 67 38
3 38 67 63
3 68 69 70
3 69 64 70
3 69 59 64
3 70 64 46
3 55 54 50
3 48 54 71
3 55 72 54
3 72 73 54
3 72 68 73
3 54 73 71
3 44 74 46
3 46 64 47
3 47 64 61
3 68 70 73
3 70 74 73
3 70 46 74
3 73 74 71
3 20 75 52
3 2 76 0
3 0 76 40
3 2 77 76
3 77 66 76
3 77 43 66
3 76 66 40
3 5 77 2
3 78 79 80
3 80 79 68
3 34 81 75
3 81 82 75
3 81 31 82
3 75 82 52
3 31 81 32
3 81 34 32
3 40 66 65
3 65 66 45
3 52 82 51
3 51 82 31
3 57 42 36
3 36 42 37
3 41 42 83
3 42 84 83
3 42 57 84
3 85 84 58
3 58 84 57
3 72 80 68
3 68 79 69
3 9 86 6
3 6 86 87
3 88 86 89
3 86 90 89
3 86 9 90
3 89 90 48
3 89 48 71
3 91 92 15
3 15 92 17
3 22 93 21
3 94 93 95
3 93 96 95
3 93 22 96
3 95 96 41
3 97 98 99
3 100 101 99
3 101 92 99
3 101 17 92
3 99 92 91
3 41 96 102
3 24 96 22
3 27 103 25
3 25 103 33
3 17 101 104
3 35 101 105
3 106 107 108
3 107 103 108
3 108 103 27
3 48 90 49
3 49 90 109
3 106 108 78
3 88 87 86
3 6 87 5
3 9 110 109
3 110 111 109
3 110 19 111
3 109 111 52
3 19 110 8
3 8 110 9
3 52 111 20
3 111 19 20
3 5 87 112
3 87 113 112
3 112 113 43
3 17 114 16
3 16 114 20
3 91 115 97
3 115 116 97
3 115 21 116
3 97 116 94
3 34 117 104
3 117 114 104
3 117 20 114
3 104 114 17
3 21 115 15
3 15 115 91
3 106 118 107
3 53 118 55
3 34 104 35
3 35 104 101
3 9 109 90
3 49 109 52
3 55 119 72
3 72 119 80
3 20 117 75
3 75 117 34
3 5 112 77
3 77 112 43
3 120 83 121
3 122 121 83
3 121 122 123
3 95 120 124
3 80 125 78
3 78 125 106
3 85 122 84
3 84 122 83
3 106 125 118
3 125 119 118
3 125 80 119
3 118 119 55
3 94 116 93
3 93 116 21
3 91 97 99
3 100 99 98
3 83 120 41
3 120 95 41
3 28 126 29
3 29 126 27
3 32 127 33
3 33 127 25
3 25 127 128
3 127 129 128
3 127 32 129
3 128 129 130
3 130 129 35
3 35 129 32
3 25 128 26
3 71 131 132
3 131 133 132
3 133 131 134
3 132 133 88
3 85 123 122
3 94 98 97
3 61 135 47
3 47 135 65
3 61 136 135
3 136 137 135
3 136 67 137
3 135 137 65
3 67 136 63
3 63 136 61
3 65 137 40
3 137 67 40
3 44 131 74
3 74 131 71
3 78 138 79
3 28 138 126
3 138 139 126
3 138 78 139
3 126 139 27
3 71 132 89
3 89 132 88
3 27 139 108
3 108 139 78
3 88 140 87
3 87 140 113
3 113 134 43
3 43 134 44
3 44 134 131
3 140 133 113
3 134 113 133
3 133 140 88
3 121 124 120
3 95 124 94
3 94 124 98
3 124 123 98
3 124 121 123
3 98 123 141
3 59 142 143
3 30 142 28
3 26 144 27
3 144 29 27
3 33 145 31
3 31 145 53
3 100 105 101
3 35 105 130
3 37 146 38
3 146 39 38
3 37 102 146
3 102 147 146
3 102 24 147
3 146 147 39
3 24 102 96
3 102 37 41
3 39 147 0
3 147 24 0
3 26 148 144
3 148 149 144
3 148 150 149
3 144 149 29
3 29 149 58
3 58 149 151
3 85 151 152
3 151 153 152
3 151 150 153
3 152 153 141
3 150 154 153
3 154 155 153
3 154 156 155
3 153 155 141
3 150 148 154
3 148 157 154
3 148 26 157
3 154 157 156
3 141 155 158
3 155 159 158
3 155 156 159
3 158 159 100
3 100 159 105
3 159 160 105
3 159 156 160
3 105 160 130
3 130 160 128
3 128 160 157
3 56 161 58
3 161 30 58
3 30 143 142
3 143 60 59
3 30 161 143
3 161 162 143
3 161 56 162
3 143 162 60
3 60 162 62
3 62 162 56
3 150 151 149
3 58 151 85
3 28 142 163
3 142 164 163
3 142 59 164
3 163 164 79
3 79 164 69
3 69 164 59
3 33 165 145
3 165 166 145
3 165 107 166
3 145 166 53
3 53 166 118
3 166 107 118
3 107 165 103
3 165 33 103
3 156 157 160
3 128 157 26
3 85 152 123
3 123 152 141
3 141 158 98
3 98 158 100
3 28 163 138
3 138 163 79

CELL_TYPES 330
5
5
5
5
5
5
5
5
5
5
5
5
5
5
5
5
5
5
5
5
5
5
5
5
5
5
5
5
5
5
5
5
5
5
5
5
5
5
5
5
5
5
5
5
5
5
5
5
5
5
5
5
5
5
5
5
5
5
5
5
5
5
5
5
5
5
5
5
5
5
5
5
5
5
5
5
5
5
5
5
5
5
5
5
5
5
5
5
5
5
5
5
5
5
5
5
5
5
5
5
5
5
5
5
5
5
5
5
5
5
5
5
5
5
5
5
5
5
5
5
5
5
5
5
5
5
5
5
5
5
5
5
5
5
5
5
5
5
5
5
5
5
5
5
5
5
5
5
5
5
5
5
5
5
5
5
5
5
5
5
5
5
5
5
5
5
5
5
5
5
5
5
5
5
5
5
5
5
5
5
5
5
5
5
5
5
5
5
5
5
5
5
5
5
5
5
5
5
5
5
5
5
5
5
5
5
5
5
5
5
5
5
5
5
5
5
5
5
5
5
5
5
5
5
5
5
5
5
5
5
5
5
5
5
5
5
5
5
5
5
5
5
5
5
5
5
5
5
5
5
5
5
5
5
5
5
5
5
5
5
5
5
5
5
5
5
5
5
5
5
5
5
5
5
5
5
5
5
5
5
5
5
5
5
5
5
5
5
5
5
5
5
5
5
5
5
5
5
5
5
5
5
5
5
5
5
5
5
5
5
5
5
5
5
5
5
5
5
5
5
5
5
5
5
5
5
5
5
5
5

CELL_DATA 330
SCALARS cell_data_0 double
LOOKUP_TABLE default
2.45458167636e-08
1.39225909184e-07
1.00322764254e-08
9.54528274717e-08
1.31278688369e-07
2.24973777844e-07
1.13757849551e-07
1.73322188648e-07
2.8190954994e-07
2.5143051403e-08
5.29292906563e-08
9.12863954126e-09
2.5790506008e-08
1.8342648427e-07
2.75337086628e-07
9.90859331011e-08
6.78736175881e-08
1.92332962923e-08
2.32501110182e-07
1.63443536428e-07
5.29760953112e-08
2.44946320538e-08
1.18937580414e-07
1.52027500955e-07
1.23610698841e-07
3.45162243724e-07
5.50604041097e-08
1.90258363147e-07
1.08153894401e-07
5.94400905329e-08
1.5503228065e-08
3.79811058768e-08
2.91544969321e-08
3.57811170947e-08
3.207991775e-07
4.61518344738e-07
5.16001371258e-07
3.22324776334e-07
3.02433341877e-07
3.60231372848e-07
5.75515854769e-08
6.51775574055e-08
3.82057125605e-07
1.64403537682e-07
3.26731450889e-07
2.90263935121e-07
2.85692496678e-07
3.72209833214e-07
3.24222939155e-07
3.76275897037e-07
9.88084106592e-08
9.43914601892e-08
1.1207163189e-07
3.71139425061e-07
2.2774022816e-07
2.65540627348e-07
3.00732586198e-07
2.21176014624e-07
2.84842555999e-07
6.29821966414e-07
3.1290140795e-07
1.58747669504e-07
2.93944628548e-07
9.35411073809e-08
1.85735698214e-07
4.67674612751e-08
1.06151441721e-07
2.32179296571e-07
3.71313098127e-07
2.78495230953e-07
8.39137037175e-08
2.09502054428e-07
2.2752923376e-07
1.71391677991e-08
2.07997007927e-07
3.20947540617e-07
2.15264337866e-07
1.53960684441e-07
2.64530485559e-07
2.79419753906e-08
1.06656325162e-07
2.7840338468e-07
2.75714808649e-08
1.78519421449e-09
1.80189105785e-08
2.1911280545e-08
2.61043322176e-07
7.71068658082e-08
2.06874219867e-07
2.94631293494e-07
2.39533542211e-07
1.9862147955e-07
6.2662098112e-08
7.24777639853e-08
3.79683231938e-08
1.41954782071e-07
3.48479060023e-08
3.91058114572e-08
2.33915488366e-07
1.76338188558e-07
1.65392123129e-07
1.7495102563e-07
1.41811155791e-07
1.20000261313e-07
1.8577734192e-08
2.73176867858e-07
1.70060183842e-07
1.62362848509e-07
4.46342207073e-07
4.68375107639e-07
2.33618633175e-08
1.51500938123e-07
2.69064362015e-07
3.11655889214e-07
1.6307725328e-08
3.59230584926e-08
3.0775331855e-08
8.85800519058e-08
2.18483153155e-07
6.12390160914e-08
1.18287865447e-07
4.68830783797e-07
1.14393329203e-07
5.91685586706e-08
1.54339225361e-07
1.12650653387e-07
1.46982651238e-07
2.87209307374e-07
2.56808311934e-08
1.46715222744e-07
8.78903634113e-08
1.24810936742e-07
1.03762339524e-07
2.77649111976e-07
3.26979850102e-07
5.77695501609e-08
4.00081011837e-07
9.03167029167e-08
4.13745317018e-08
1.47431601984e-07
1.64933746827e-07
6.50877911836e-08
9.25427509549e-08
8.66169155214e-08
1.3588793932e-07
1.0713281029e-08
1.91357038024e-08
5.06833040837e-08
4.10090974484e-08
7.19552656345e-08
8.80588776467e-08
1.460386296e-07
3.09597357866e-08
1.44109469688e-07
5.57283984528e-08
8.11198758766e-08
4.5925941924e-08
1.48440807339e-07
2.67600778467e-08
8.90888396288e-09
1.26291978733e-07
4.75908944889e-08
1.12562522546e-07
6.74868853891e-08
7.77051259725e-08
1.34652437479e-07
6.45270611598e-08
3.25037676926e-08
3.24423694826e-08
1.46197392737e-07
9.57991158117e-08
2.46522994882e-07
2.10096779933e-08
1.79167368957e-07
1.88260663588e-08
4.86249552709e-08
1.2172328803e-07
8.06825496391e-08
4.02386504202e-08
5.28204362716e-08
3.21389742427e-08
6.15737923252e-09
1.21711794039e-08
1.6170294614e-08
3.92368891235e-08
6.42600496537e-08
1.89682709321e-07
4.76575685047e-08
9.64014350578e-10
3.51262193808e-08
5.13911551383e-08
2.45738196844e-08
3.43015999371e-08
8.97988735355e-08
1.24753053564e-07
4.12060027811e-07
5.54041600595e-08
5.46286839e-08
7.68107496067e-08
2.94855414941e-07
1.49496523022e-07
2.19894323215e-07
2.48556627272e-07
5.62432563406e-08
1.75001468807e-07
4.34016886786e-08
9.14337563489e-08
1.25253077879e-07
1.90008234615e-08
1.50100081866e-08
1.0486026534e-07
7.63723161982e-08
2.3752295966e-08
2.84205984403e-08
2.03231146228e-07
1.70397328402e-07
2.81552498316e-08
1.61966259607e-07
4.07082900929e-08
4.5487823302e-08
1.41856178158e-07
4.04788684489e-09
3.98971255006e-08
1.74320986285e-07
5.05770736446e-08
8.30047931171e-08
2.4311734526e-07
1.76608211728e-07
2.54801637377e-08
3.27551574409e-08
2.11782562798e-08
1.37889031933e-07
3.85366438338e-07
1.73597551507e-08
1.3725758576e-07
2.07462086614e-08
4.48713726153e-08
3.92230577667e-08
4.49099985108e-08
1.48102300917e-08
6.71849633391e-09
1.54570656065e-08
3.30013789076e-08
5.22398809467e-08
6.60984436564e-10
8.72652048599e-08
1.27631419517e-07
1.63362673399e-08
7.42223342297e-08
7.14530192478e-08
5.5601589412e-07
2.54727874512e-08
1.50192364084e-08
8.19828386385e-10
5.71425736209e-08
4.93151964046e-08
3.45430168007e-07
3.18091420138e-08
1.16209748382e-07
1.22033895978e-07
1.89556308397e-07
5.503471019e-08
2.32614015464e-07
1.87954890861e-08
9.90029204051e-08
1.26694250423e-07
1.78187825937e-07
2.30308071334e-07
7.6762423377e-08
9.1140603291e-09
8.51598488019e-08
1.13317414782e-07
5.4038590827e-07
4.94493506566e-07
1.02494006995e-07
5.94477967204e-08
4.91210726772e-09
4.29196411881e-08
1.96041642866e-08
3.26230856158e-12
3.96601595605e-08
4.15229287646e-08
6.40635948671e-08
5.66947373727e-08
1.31617201996e-08
1.1966638602e-08
2.96659042453e-08
3.85179501975e-08
7.15482144179e-08
5.79342623962e-08
6.72182295031e-08
1.64099387087e-08
1.18634418998e-08
2.98083629278e-08
3.23917511102e-08
1.0502173171e-07
1.85644162138e-07
2.63443983464e-07
7.69785604646e-08
2.1460920135e-07
3.00405193776e-07
7.9483988309e-08
1.71030709639e-07
1.25599649863e-07
7.10098770995e-08
1.55876823895e-08
1.41772507764e-07
4.97593558445e-07
8.12018804893e-09
9.74588514954e-08
1.0905030865e-07
3.92291392032e-08
3.33928602959e-08
9.40773723291e-08
3.32803710148e-08
1.34572158504e-08
1.30448406534e-08
5.7488068702e-08
1.44975521395e-07
7.46872906873e-09
5.30323912822e-08
1.50767216017e-08
1.30229477612e-08
9.9146198905e-08
4.94776109998e-08
2.29826937193e-08
6.3812427263e-08
1.35048051231e-07
2.92747710242e-08
5.5697135729e-08

