# vtk DataFile Version 3.0
File Name: Molecule/sphere_excent/sphere_excent_0-s17.vtk
ASCII
DATASET UNSTRUCTURED_GRID
FIELD FieldData 1
TIME 1 1 double
0.0
POINTS 255 double
0.8628423214 -0.50213766098 0.008620692417
0.80535572767 -0.3118673265 -0.50420260429
0.99095332623 -0.0061078360304 -0.12051467597
0.8024379611 0.30840966105 -0.5110912323
0.52475011349 -0.00029214058304 -0.85126954317
0.86824893951 0.49117764831 -0.068874679506
0.51089459658 0.79312843084 -0.32558178902
0.30808186531 0.4999115169 -0.80934196711
0.30826145411 -0.49876719713 -0.81005650759
-6.5168133005e-05 -1.4191782611e-05 -0.99990272522
-0.30719348788 -0.49819985032 -0.8109895587
0.0038754593115 -0.8452565074 -0.53460097313
-0.52560126781 -0.00024749941076 -0.85073643923
-0.80807727575 -0.31190946698 -0.49956312776
-0.80780446529 0.30803197622 -0.50267702341
-0.9962027669 0.0052555729635 -0.082396015525
-0.016786800697 0.84128791094 -0.53660899401
-0.30785188079 0.49645715952 -0.81170785427
-0.51830583811 0.76570874453 -0.380312711
-0.81135308743 0.58144247532 -0.049401991069
-0.46852171421 -0.79693716764 -0.38144779205
0.47934189439 -0.79918438196 -0.35777920485
0.078048154712 -0.99136775732 -0.087964467704
-0.49889859557 0.026697259396 0.86616486311
-0.46273255348 -0.14113983512 0.8749204278
-0.33335846663 -0.0136940144 0.94260597229
-0.74232751131 0.21270136535 0.63484311104
-0.85593420267 0.30821558833 0.41511940956
-0.86751419306 0.051120512187 0.49185878038
0.28625297546 -0.59404057264 0.7517169714
0.36702305079 -0.71344035864 0.59543782473
0.45449784398 -0.48070222139 0.74829769135
0.070628106594 -0.85582280159 0.51227772236
0.086896039546 -0.71090489626 0.69775408506
-0.19623444974 0.70064157248 0.68496745825
-0.40975221992 0.68618762493 0.59971505404
-0.3139564395 0.54945999384 0.77439028025
-0.10244532675 0.54923784733 0.82828569412
-0.54815745354 0.49257975817 0.67537862062
0.1861358434 -0.47261360288 0.86142361164
0.092631570995 -0.57741671801 0.81081771851
0.30966517329 -0.036424249411 0.9499361515
0.33910864592 -0.2283500433 0.91183048487
0.47247451544 -0.098926968873 0.87576967478
0.35485458374 -0.43659210205 0.82581722736
0.40775644779 0.088960796595 0.90767043829
0.16635374725 0.28777655959 0.94308745861
0.25036901236 0.14521917701 0.95719146729
0.3173224628 0.28237077594 0.90485531092
0.087813213468 0.42898222804 0.89874696732
0.24532298744 0.42810460925 0.86967766285
0.56219035387 0.062664546072 0.82449948788
-0.7436209321 0.58095389605 0.33059459925
-0.54631358385 0.80011880398 0.24599090219
0.95336395502 -0.17495903373 0.2344724983
0.79686439037 -0.43097367883 0.41884931922
-0.092522911727 0.17764002085 0.97974020243
0.073162250221 0.14980182052 0.98596304655
0.021981135011 0.28197699785 0.95911681652
-0.71644133329 0.43935877085 0.5419370532
-0.60107833147 0.6274060607 0.49501672387
-0.10055761784 -0.74927711487 0.65434074402
-0.11082427204 -0.64435219765 0.75641739368
0.48286944628 0.80772191286 0.33721989393
0.31393995881 0.93675500154 0.14714901149
0.27563428879 0.87764692307 0.38886600733
0.023492159322 0.96099501848 0.27556920052
-0.84723865986 -0.52993035316 -0.032790489495
-0.957898736 -0.28618770838 -0.016779292375
-0.49872350693 -0.81909143925 0.28365927935
-0.28665009141 -0.94561356306 0.15342953801
-0.22502025962 -0.89799386263 0.37712034583
0.040405418724 -0.96606135368 0.25379544497
-0.95926445723 -0.17617763579 0.21999853849
-0.86932587624 -0.45823910832 0.18376547098
0.39022615552 -0.82214343548 0.41164025664
0.43468427658 -0.88157176971 0.17566972971
-0.38826972246 0.1472890377 0.90969985723
-0.5036162138 0.23683579266 0.83062273264
-0.96402382851 0.14994183183 0.21849641204
-0.18661698699 0.27152916789 0.94416505098
-0.29292583466 0.28640475869 0.91218239069
-0.25522840023 0.16205385327 0.95318508148
0.02429600805 0.84137791395 0.53916400671
-0.20742151141 0.88246029615 0.41917732358
-0.27622416615 0.95260983706 0.12708604336
0.0037697115913 0.99789965153 -0.056732479483
-0.27314797044 0.94456803799 -0.1820962131
-0.5293071866 0.84746921062 -0.042485155165
0.69073581696 0.71026039124 0.12979920208
0.86181604862 0.45450267196 0.22496362031
0.74434876442 0.56079095602 0.36244133115
0.8434022665 0.32113569975 0.4312709868
-0.95460289717 0.29637119174 -0.026404203847
-0.69720631838 -0.69600254297 -0.17144583166
-0.7039206028 -0.69460260868 0.14851534367
-0.54775446653 -0.83652234077 0.010292927735
-0.88967764378 0.41484850645 0.19065186381
-0.17683315277 0.4157975316 0.89192730188
-0.047403559089 0.40417197347 0.91337150335
0.95525979996 0.18119722605 0.22542510927
-0.1893941462 -0.82226216793 0.5365575552
-0.29788994789 -0.74310517311 0.59918600321
-0.23058076203 -0.67646127939 0.69942140579
-0.43160277605 -0.65259462595 0.62266343832
-0.40368083119 -0.7815502882 0.47564697266
-0.089300490916 0.30747923255 0.94732058048
-0.057101491839 -0.21884393692 0.97404158115
-0.015501909889 -0.084026739001 0.99625271559
-0.14879991114 -0.12762442231 0.98038858175
-0.62008744478 0.10101369023 0.77797967196
-0.61608564854 -0.072499960661 0.78433537483
-0.733258605 0.03251003474 0.67869496346
-0.73601949215 -0.11153001338 0.66764575243
-0.8402620554 -0.10460535437 0.53182852268
0.49046576023 0.56108307838 0.66667759418
0.57941949368 0.64569044113 0.4974809885
0.44986245036 0.71826338768 0.53075182438
0.67360985279 0.51262497902 0.53232312202
-0.31378391385 -0.59277313948 0.74155759811
-0.58782345057 -0.65993207693 0.46773266792
0.61767989397 -0.091068431735 0.78106570244
0.58464944363 -0.20340825617 0.78539144993
0.69957184792 -0.2057839334 0.68370175362
0.631329 -0.32172834873 0.70508944988
0.76223433018 -0.065219908953 0.64358556271
0.50122392178 -0.29314005375 0.81374800205
0.81888842583 -0.27588355541 0.50132095814
0.71100252867 -0.40027016401 0.57805556059
0.40807631612 0.43580886722 0.80131608248
0.29308632016 0.53800439835 0.79008632898
-0.060021679848 0.052712041885 0.99677801132
-0.1309633404 -0.034813012928 0.99063163996
-0.18115963042 0.065249375999 0.98129165173
0.63017743826 0.69777393341 0.33880403638
0.51418417692 0.8479475975 0.12905152142
0.60860037804 0.42489045858 0.66940051317
-0.55308717489 -0.53250950575 0.64038491249
0.070989146829 -0.22096517682 0.97260677814
0.10502719879 -0.067026264966 0.99208295345
-0.33277988434 -0.19922322035 0.92164689302
-0.42737585306 0.407771945 0.80669623613
0.54885154963 -0.67756265402 0.48950207233
0.56469470263 -0.51189625263 0.64698946476
0.5834364295 -0.74814969301 0.31503781676
0.70020890236 -0.60663026571 0.37279438972
0.678180933 -0.72932738066 0.091322183609
-0.42623153329 -0.27447864413 0.86188608408
-0.31007423997 -0.31471902132 0.89691758156
-0.40300169587 -0.37679260969 0.83394426107
-0.3731085062 -0.46133631468 0.80483937263
-0.48485538363 -0.45035001636 0.7496882081
-0.42858597636 -0.54579615593 0.71996295452
-0.51355850697 -0.34532162547 0.78548467159
-0.60251188278 -0.41415247321 0.68221086264
-0.61673414707 -0.30894833803 0.72399818897
-0.55348598957 -0.22883565724 0.80065500736
-0.67865115404 -0.46119141579 0.57131695747
-0.71659111977 -0.3351932466 0.6115835309
-0.80641490221 -0.36868581176 0.4601663053
-0.79355829954 -0.22594501078 0.56490767002
-0.67754596472 -0.21519386768 0.70324957371
0.12360426039 -0.35274469852 0.92748385668
0.013172983192 -0.47802567482 0.8780606389
0.20088087022 -0.25156393647 0.94676572084
0.25038546324 -0.3525711 0.90167981386
0.051563169807 0.024895021692 0.99834132195
0.16606704891 0.041055615991 0.98523420095
-0.39518243074 0.29599866271 0.86960315704
-0.31740516424 0.40268555284 0.85854369402
-0.21408315003 -0.94923913479 -0.22792612016
-0.64618074894 0.34693220258 0.67952150106
-0.54531407356 0.35588687658 0.7589635253
-0.61408734322 0.2449195981 0.75021582842
-0.10175725073 -0.42356520891 0.90010857582
-0.0086848819628 -0.33672392368 0.94155138731
-0.18013203144 -0.20758633316 0.96145969629
-0.12501379848 -0.3122100234 0.94177848101
-0.020065911114 -0.58931422234 0.80745446682
-0.20870678127 -0.59231775999 0.77820831537
-0.29625535011 -0.51877456903 0.80189591646
-0.098484694958 -0.53135085106 0.84132826328
-0.19058136642 -0.51639217138 0.83486348391
-0.22360920906 -0.44582533836 0.86673778296
-0.13061924279 -0.99128431082 0.020183678716
-0.36994120479 -0.92420870066 -0.094467125833
0.198480919 -0.066995322704 0.97781306505
0.24420915544 -0.15170651674 0.95771843195
0.16266591847 -0.15535399318 0.97435373068
-0.2297886759 -0.28104564548 0.93177014589
-0.20371034741 -0.36714273691 0.9075217247
-0.30709549785 -0.4064489007 0.86045122147
0.49693477154 -0.86454319954 -0.074734956026
0.70414996147 -0.68929934502 -0.16973282397
0.65295445919 -0.54333901405 0.52687001228
0.72844576836 0.36629211903 0.57888323069
0.78505659103 0.23264268041 0.57383817434
0.67652231455 0.28498354554 0.67826360464
0.71685469151 0.18555997312 0.67206549644
0.64648413658 0.14059433341 0.74959897995
0.52626389265 0.24461570382 0.81359839439
-0.088760793209 0.78409475088 0.61345994473
-0.31338429451 0.79384481907 0.52036511898
-0.38359257579 0.8559897542 0.34630581737
-0.47024217248 0.76670241356 0.43696019053
0.059915095568 0.72941094637 0.68133121729
-0.042073328048 0.67497414351 0.73652768135
0.082248009741 0.6161890626 0.78311187029
0.66974282265 0.015816237777 0.7422606945
0.74935019016 0.075539462268 0.65739530325
0.87070214748 0.031850088388 0.48743453622
0.18075639009 0.74906617403 0.63721853495
0.19749157131 0.63738018274 0.74464720488
0.31550484896 0.64137172699 0.69918262959
0.17466729879 0.53304684162 0.82783490419
0.16945496202 0.85158467293 0.49590876698
0.35463023186 0.80378198624 0.47756269574
0.29220306873 0.76162701845 0.57839155197
-0.74938637018 -0.57045900822 0.33548539877
-0.84811359644 -0.40826529264 0.33630293608
-0.88441205025 -0.21570977569 0.41340860724
-0.92558884621 -0.074234127998 0.37092092633
-0.7244349122 -0.5162577033 0.45666229725
-0.24934452772 -0.12056610733 0.96089416742
-0.22354400158 -0.03837845102 0.97396379709
0.38138398528 0.68385231495 0.62180501223
0.25590622425 0.86031919718 -0.44071301818
0.26194411516 0.94406545162 -0.2003634423
0.013041615486 0.95381146669 -0.30008646846
0.35780331492 -0.33633857965 0.87109982967
0.4190492034 -0.2691487968 0.86707770824
0.43574607372 -0.36787351966 0.82133358717
0.53020375967 -0.40029373765 0.74749881029
0.37258574367 0.19349572062 0.90760016441
0.42628756166 0.26923757792 0.86360490322
0.46470195055 0.17752221227 0.86743074656
-0.00062490976416 0.49631664157 0.86815845966
-0.0015179355396 0.58038592339 0.81438004971
0.078034386039 0.52916169167 0.84494304657
0.51461440325 0.42316395044 0.7455868125
0.56211316586 0.34119358659 0.75337588787
0.47108778358 0.34342896938 0.81248009205
0.3758443296 0.3541110754 0.85634475946
0.99371546507 -0.081673711538 0.072485566139
0.99405878782 0.084215708077 0.064333565533
0.97383320332 0.0066940346733 0.22717964649
0.93132662773 0.09494818002 0.35147306323
0.93088930845 -0.064271010458 0.35956564546
0.90071809292 -0.21070739627 0.37913808227
0.86523556709 -0.12453383952 0.485373348
0.17073361576 0.98457080126 0.034188035876
0.42114660144 0.9025657773 -0.086476750672
0.61158573627 0.78558778763 -0.090289250016
0.63706576824 0.34999457002 0.68671548367
0.60185164213 0.27275362611 0.75026935339

CELLS 506 2024
3 0 1 2
3 1 3 2
3 1 4 3
3 2 3 5
3 5 3 6
3 3 7 6
3 3 4 7
3 4 8 9
3 8 10 9
3 8 11 10
3 9 10 12
3 12 13 14
3 13 15 14
3 16 17 18
3 17 14 18
3 17 12 14
3 18 14 19
3 12 10 13
3 10 20 13
3 10 11 20
3 11 21 22
3 4 1 8
3 1 21 8
3 8 21 11
3 4 9 7
3 9 17 7
3 9 12 17
3 7 17 16
3 23 24 25
3 26 27 28
3 29 30 31
3 32 30 33
3 34 35 36
3 37 34 36
3 36 35 38
3 29 39 40
3 41 42 43
3 39 29 44
3 41 43 45
3 46 47 48
3 47 41 45
3 49 46 50
3 51 45 43
3 46 48 50
3 19 52 53
3 0 54 55
3 56 57 58
3 58 57 46
3 27 59 52
3 59 60 52
3 59 38 60
3 52 60 53
3 59 27 26
3 35 60 38
3 40 33 29
3 29 33 30
3 32 33 61
3 33 62 61
3 49 58 46
3 46 57 47
3 63 64 65
3 64 66 65
3 67 68 13
3 13 68 15
3 69 70 71
3 70 72 71
3 71 72 32
3 73 68 74
3 73 15 68
3 74 68 67
3 32 72 75
3 76 72 22
3 25 77 23
3 23 77 78
3 15 73 79
3 80 81 82
3 81 77 82
3 82 77 25
3 83 66 84
3 84 66 85
3 80 82 56
3 86 87 85
3 87 88 85
3 87 18 88
3 85 88 53
3 18 87 16
3 53 88 19
3 88 18 19
3 5 89 90
3 89 91 90
3 90 91 92
3 15 93 14
3 14 93 19
3 67 94 95
3 94 96 95
3 94 20 96
3 95 96 69
3 27 97 79
3 97 93 79
3 97 19 93
3 79 93 15
3 20 94 13
3 13 94 67
3 80 98 81
3 36 98 37
3 27 79 28
3 86 85 66
3 49 99 58
3 19 97 52
3 52 97 27
3 5 90 100
3 100 90 92
3 101 61 102
3 103 102 61
3 102 103 104
3 71 101 105
3 58 106 56
3 56 106 80
3 62 103 61
3 80 106 98
3 106 99 98
3 106 58 99
3 98 99 37
3 69 96 70
3 67 95 74
3 61 101 32
3 101 71 32
3 107 108 109
3 78 110 23
3 23 110 111
3 110 112 111
3 110 26 112
3 111 112 113
3 113 112 114
3 28 112 26
3 23 111 24
3 115 116 117
3 116 115 118
3 117 116 63
3 119 104 103
3 69 120 95
3 43 121 51
3 43 122 121
3 122 123 121
3 122 124 123
3 121 123 125
3 124 122 126
3 126 122 43
3 125 123 127
3 127 123 128
3 129 115 130
3 56 131 57
3 108 131 132
3 131 133 132
3 131 56 133
3 25 133 82
3 82 133 56
3 63 134 135
3 89 134 91
3 91 118 92
3 136 118 115
3 134 116 91
3 118 91 116
3 116 134 63
3 102 105 101
3 71 105 69
3 69 105 120
3 105 104 120
3 105 102 104
3 120 104 137
3 138 139 108
3 24 140 25
3 38 141 36
3 30 142 143
3 30 75 142
3 75 144 142
3 75 76 144
3 142 144 145
3 76 75 72
3 75 30 32
3 0 145 146
3 24 147 140
3 147 148 140
3 147 149 148
3 150 151 152
3 150 149 151
3 152 151 137
3 149 153 151
3 153 154 151
3 153 155 154
3 151 154 137
3 149 147 153
3 147 156 153
3 147 24 156
3 153 156 155
3 137 154 157
3 154 158 157
3 154 155 158
3 157 158 159
3 159 158 160
3 158 161 160
3 158 155 161
3 160 161 113
3 113 161 111
3 111 161 156
3 39 162 163
3 138 162 164
3 162 165 164
3 162 39 165
3 164 165 42
3 44 165 39
3 108 139 166
3 139 167 166
3 166 167 57
3 57 167 47
3 47 167 41
3 78 168 141
3 168 169 141
3 168 81 169
3 141 169 36
3 36 169 98
3 169 81 98
3 81 168 77
3 168 78 77
3 155 156 161
3 111 156 24
3 119 152 104
3 104 152 137
3 137 157 120
3 108 166 131
3 131 166 57
3 22 170 11
3 11 170 20
3 108 107 138
3 38 171 172
3 171 173 172
3 171 26 173
3 172 173 78
3 174 163 175
3 39 163 40
3 176 177 107
3 177 175 107
3 177 174 175
3 107 175 138
3 26 171 59
3 59 171 38
3 40 178 33
3 33 178 62
3 119 179 180
3 179 181 182
3 179 62 181
3 183 182 174
3 174 181 163
3 181 178 163
3 181 62 178
3 163 178 40
3 22 184 170
3 184 185 170
3 184 70 185
3 170 185 20
3 70 184 72
3 184 22 72
3 62 179 103
3 103 179 119
3 20 185 96
3 96 185 70
3 78 173 110
3 110 173 26
3 41 186 187
3 186 188 187
3 186 139 188
3 187 188 164
3 38 172 141
3 141 172 78
3 148 189 140
3 140 189 176
3 176 189 177
3 189 190 177
3 189 148 190
3 177 190 174
3 174 190 183
3 190 191 183
3 190 148 191
3 183 191 180
3 119 180 152
3 180 150 152
3 138 175 162
3 162 175 163
3 164 188 138
3 138 188 139
3 41 187 42
3 42 187 164
3 150 191 149
3 149 191 148
3 181 174 182
3 183 180 182
3 150 180 191
3 182 180 179
3 139 186 167
3 186 41 167
3 21 192 22
3 192 76 22
3 21 193 192
3 193 146 192
3 193 0 146
3 192 146 76
3 0 193 1
3 1 193 21
3 143 194 128
3 194 55 128
3 194 145 55
3 128 55 127
3 55 145 0
3 92 195 196
3 195 197 196
3 196 197 198
3 198 197 199
3 51 199 200
3 34 201 202
3 84 201 83
3 84 202 201
3 202 35 34
3 84 203 202
3 203 204 202
3 203 53 204
3 202 204 35
3 83 201 205
3 201 206 205
3 201 34 206
3 205 206 207
3 51 208 199
3 208 209 199
3 208 125 209
3 199 209 198
3 92 196 210
3 210 196 209
3 143 128 124
3 124 128 123
3 37 206 34
3 83 205 211
3 205 212 211
3 205 207 212
3 211 212 213
3 50 214 49
3 207 214 212
3 214 130 212
3 214 50 130
3 212 130 213
3 213 130 115
3 129 130 50
3 198 209 196
3 210 209 125
3 35 204 60
3 60 204 53
3 83 215 66
3 66 215 65
3 65 215 216
3 215 211 217
3 215 83 211
3 217 211 213
3 120 218 95
3 95 218 74
3 74 219 73
3 73 219 220
3 28 221 114
3 221 220 114
3 221 73 220
3 114 220 160
3 73 221 79
3 79 221 28
3 53 203 85
3 85 203 84
3 159 219 222
3 219 218 222
3 219 74 218
3 222 218 120
3 176 109 223
3 109 224 223
3 109 132 224
3 223 224 25
3 117 225 115
3 115 225 213
3 125 208 121
3 121 208 51
3 25 224 133
3 133 224 132
3 213 225 217
3 216 217 117
3 225 117 217
3 217 216 215
3 65 216 63
3 216 117 63
3 136 195 118
3 118 195 92
3 176 223 140
3 140 223 25
3 160 220 159
3 159 220 219
3 28 114 112
3 114 160 113
3 145 194 142
3 142 194 143
3 76 146 144
3 144 146 145
3 159 222 157
3 157 222 120
3 132 109 108
3 107 109 176
3 16 226 7
3 7 226 6
3 6 226 227
3 226 228 227
3 226 16 228
3 227 228 86
3 42 229 230
3 229 231 230
3 229 44 231
3 230 231 126
3 42 230 43
3 43 230 126
3 126 231 232
3 231 31 232
3 231 44 31
3 232 31 143
3 143 31 30
3 31 44 29
3 126 232 124
3 124 232 143
3 45 233 47
3 47 233 48
3 48 233 234
3 233 235 234
3 233 45 235
3 234 235 200
3 37 236 237
3 236 238 237
3 236 49 238
3 237 238 207
3 136 239 240
3 239 241 240
3 239 129 241
3 240 241 200
3 200 235 51
3 235 45 51
3 48 242 50
3 242 129 50
3 48 234 242
3 234 241 242
3 234 200 241
3 242 241 129
3 2 243 0
3 243 54 0
3 2 244 243
3 244 245 243
3 244 100 245
3 243 245 54
3 100 246 245
3 246 247 245
3 246 210 247
3 245 247 54
3 210 246 92
3 92 246 100
3 54 247 248
3 247 249 248
3 247 210 249
3 248 249 127
3 100 244 5
3 5 244 2
3 127 249 125
3 249 210 125
3 86 250 227
3 250 251 227
3 250 64 251
3 227 251 6
3 6 251 252
3 251 135 252
3 251 64 135
3 252 135 89
3 64 250 66
3 250 86 66
3 89 135 134
3 63 135 64
3 6 252 5
3 252 89 5
3 86 228 87
3 87 228 16
3 49 236 99
3 99 236 37
3 129 239 115
3 115 239 136
3 44 229 165
3 165 229 42
3 54 248 55
3 55 248 127
3 136 253 195
3 195 253 197
3 200 254 240
3 254 253 240
3 254 197 253
3 240 253 136
3 197 254 199
3 199 254 200
3 37 237 206
3 206 237 207
3 207 238 214
3 214 238 49

CELL_TYPES 506
5
5
5
5
5
5
5
5
5
5
5
5
5
5
5
5
5
5
5
5
5
5
5
5
5
5
5
5
5
5
5
5
5
5
5
5
5
5
5
5
5
5
5
5
5
5
5
5
5
5
5
5
5
5
5
5
5
5
5
5
5
5
5
5
5
5
5
5
5
5
5
5
5
5
5
5
5
5
5
5
5
5
5
5
5
5
5
5
5
5
5
5
5
5
5
5
5
5
5
5
5
5
5
5
5
5
5
5
5
5
5
5
5
5
5
5
5
5
5
5
5
5
5
5
5
5
5
5
5
5
5
5
5
5
5
5
5
5
5
5
5
5
5
5
5
5
5
5
5
5
5
5
5
5
5
5
5
5
5
5
5
5
5
5
5
5
5
5
5
5
5
5
5
5
5
5
5
5
5
5
5
5
5
5
5
5
5
5
5
5
5
5
5
5
5
5
5
5
5
5
5
5
5
5
5
5
5
5
5
5
5
5
5
5
5
5
5
5
5
5
5
5
5
5
5
5
5
5
5
5
5
5
5
5
5
5
5
5
5
5
5
5
5
5
5
5
5
5
5
5
5
5
5
5
5
5
5
5
5
5
5
5
5
5
5
5
5
5
5
5
5
5
5
5
5
5
5
5
5
5
5
5
5
5
5
5
5
5
5
5
5
5
5
5
5
5
5
5
5
5
5
5
5
5
5
5
5
5
5
5
5
5
5
5
5
5
5
5
5
5
5
5
5
5
5
5
5
5
5
5
5
5
5
5
5
5
5
5
5
5
5
5
5
5
5
5
5
5
5
5
5
5
5
5
5
5
5
5
5
5
5
5
5
5
5
5
5
5
5
5
5
5
5
5
5
5
5
5
5
5
5
5
5
5
5
5
5
5
5
5
5
5
5
5
5
5
5
5
5
5
5
5
5
5
5
5
5
5
5
5
5
5
5
5
5
5
5
5
5
5
5
5
5
5
5
5
5
5
5
5
5
5
5
5
5
5
5
5
5
5
5
5
5
5
5
5
5
5
5
5
5
5
5
5
5
5
5
5
5
5
5
5
5
5
5
5
5
5
5
5
5
5
5
5
5
5
5
5
5
5
5
5
5
5
5
5
5
5
5
5
5
5
5
5
5
5
5
5
5
5
5
5
5
5
5
5

CELL_DATA 506
SCALARS cell_data_0 double
LOOKUP_TABLE default
4.81392408944e-08
8.32765843964e-08
9.31814003605e-09
6.46937801016e-08
5.24664381851e-08
2.36252613819e-07
1.11899658054e-07
2.49114679547e-08
5.67795061875e-08
4.40175420595e-10
3.86270344945e-08
1.66402945731e-07
2.20020091932e-07
4.92070913005e-08
7.17423771714e-08
2.90808659817e-08
1.70776144701e-07
4.3876361583e-08
3.1093517802e-08
6.09080466282e-08
7.92417890746e-09
4.71182085298e-08
2.02426573962e-07
1.2085282149e-07
2.53488546933e-08
3.14539282176e-08
3.43540652461e-08
1.54787661478e-08
1.33823607046e-07
1.39059143831e-07
8.31789508721e-08
2.32193311422e-08
2.03982564591e-07
1.18965626752e-07
1.49326513834e-07
5.28792163674e-08
5.43332141382e-08
5.43464734072e-08
1.66843180403e-07
9.06786754684e-08
1.44725675131e-07
1.6943640463e-07
1.05053199354e-07
6.86360954686e-08
7.29732988536e-08
1.34348548152e-07
1.6387484104e-07
6.25524168838e-08
1.10991415421e-07
7.31809237055e-08
1.46637613986e-07
8.76891080798e-08
1.64762688253e-07
1.20840226314e-07
4.72693293728e-08
5.39049575446e-08
2.29578543786e-07
7.7903358676e-08
4.77029691715e-08
1.52042089048e-07
8.14728115902e-08
1.87768602291e-08
8.04023523117e-08
1.1732586907e-07
3.40366838156e-08
2.83987598538e-08
9.76310104682e-08
3.29484333536e-08
1.50244655551e-07
7.40254882142e-08
1.9757982032e-09
1.92215696858e-07
1.2974140296e-07
2.10297971987e-07
3.78035077492e-08
7.41813100641e-08
5.09507338959e-08
5.06741786985e-08
7.34306107223e-08
8.32341518529e-08
8.38793486156e-08
3.15753979162e-08
1.03004839172e-08
5.08912042102e-08
9.74472368855e-08
1.15067727343e-07
1.64500586473e-07
3.73262029326e-08
9.38536237856e-08
5.38294699005e-08
1.00831500862e-07
3.92129611168e-08
1.15277841421e-07
1.32834737997e-08
2.17378273048e-08
1.10587027534e-08
4.11387392548e-09
1.01881908877e-07
5.3987914911e-08
8.40702468799e-08
1.50751938022e-07
6.18720124026e-08
4.99975333638e-08
2.92818435149e-08
5.10114279605e-09
1.43484692586e-07
1.65396965078e-08
8.32569198696e-08
1.12936731399e-07
8.16657217936e-08
9.84819369901e-08
7.48885672016e-08
3.05053060602e-08
2.6407731764e-08
1.31303808286e-08
5.74572759684e-08
6.23108801027e-08
6.08424369139e-08
4.17187291117e-08
5.44886432828e-08
7.53338374494e-08
5.01206675051e-08
1.44394122445e-07
1.19096440186e-09
1.67238349493e-08
4.80820684458e-08
6.66848453118e-08
1.12355676616e-07
1.75721530106e-07
1.91562564187e-07
6.85071892309e-08
1.36246103285e-07
1.03415295687e-07
9.0877628162e-08
8.47168471658e-08
7.01348061992e-08
9.39685916806e-08
9.18184355076e-09
2.89894805199e-08
6.49106750885e-08
2.26510489209e-07
1.14109696529e-07
1.73421501748e-07
2.99694391318e-08
7.7648149846e-08
1.07660258967e-07
6.89190513362e-08
1.79810159977e-07
1.93079472146e-07
1.58466613487e-08
1.38040987561e-07
1.67356798238e-07
6.16961149442e-08
3.24051736228e-08
4.76961222964e-08
2.01607445476e-07
3.29624060234e-08
3.07857410005e-08
5.05452386101e-08
2.74604310278e-08
7.44341427237e-08
3.24927267452e-09
4.52043543457e-08
4.1568929873e-08
8.50589753893e-09
9.0426044186e-08
1.08588668024e-07
4.44274329448e-08
7.11278692897e-08
8.39306729853e-08
1.60062364999e-07
9.48889212124e-09
1.55653174246e-08
8.80147679626e-08
2.01309017527e-07
4.97303074761e-08
1.22740477954e-07
2.03297123968e-08
5.18118021446e-08
1.08109908551e-07
3.41575724462e-08
4.33771712458e-08
1.02394799905e-08
4.61639808543e-08
4.02157686132e-08
4.27391385055e-08
3.4420239689e-08
4.59216205754e-08
4.95341351388e-09
3.42970482728e-08
4.15624450522e-08
4.93226304425e-08
5.68953740174e-08
6.73243069728e-08
1.39441255537e-08
1.05201987402e-08
3.81163619966e-08
3.68373732239e-08
3.9038905485e-08
3.64234757268e-08
3.71199950133e-08
3.09441870027e-08
3.19992711256e-08
2.35073312001e-08
7.96372260603e-08
7.54374257168e-08
1.31397142466e-08
7.86984724155e-09
8.14042290639e-08
1.91609179358e-08
5.6900799654e-08
3.49379008141e-08
1.20417051015e-08
1.02539086784e-09
4.84771776368e-08
1.83911389838e-07
5.9805494987e-08
1.29613316244e-08
1.51403625464e-08
3.01677630856e-08
1.52977867829e-07
7.21368917133e-09
6.22135830051e-08
1.83641482932e-08
2.58456102638e-09
4.39647878244e-08
3.3740454336e-08
1.94990156649e-09
8.43694439601e-09
6.19833265183e-08
4.91570409646e-08
7.57201327045e-08
1.4499913932e-08
3.31069362884e-08
1.27160177593e-08
1.96068795504e-08
5.26494388816e-09
2.38993331389e-08
5.52912179661e-08
3.60016942074e-08
8.04258431168e-08
2.73096033904e-09
4.0288448577e-08
2.2303659505e-08
9.02534309642e-08
1.01316410032e-07
2.8533681603e-08
3.76719031109e-08
1.44469672402e-08
2.36436548595e-08
6.08390655226e-08
5.81943423955e-08
2.73921467195e-08
4.50396428528e-08
3.17691969379e-08
8.38243086519e-08
8.63538048932e-09
1.13146528081e-08
4.08159292803e-08
3.08327886763e-08
5.46075630675e-08
4.74612757742e-08
2.66165945485e-09
2.67321567305e-08
1.39115838661e-09
1.64360172711e-08
1.03216724654e-07
3.28538130317e-08
3.50794902219e-08
1.13706998181e-08
4.56578601584e-09
2.40248508776e-09
1.3122541153e-07
9.0614848393e-08
6.38274870911e-08
7.04806139223e-08
2.64825964959e-08
8.46125517978e-10
7.19741154753e-09
3.5050371752e-08
2.40318870427e-08
4.52187781762e-08
3.88723558127e-08
2.86583805186e-08
2.21083728093e-08
5.29538995247e-08
6.88839084746e-08
1.66884820021e-07
3.35639286786e-08
1.12426572768e-08
1.59054347079e-07
6.9093754657e-08
2.33021022916e-08
1.36229164971e-08
3.68721421684e-08
4.3109552677e-08
5.10031653519e-09
1.94162445511e-08
1.55568055355e-08
6.28818441486e-08
5.08803952721e-09
3.21868349959e-08
9.28608012779e-08
3.29147751932e-08
1.39479713084e-07
6.21642427532e-08
1.22949500193e-07
2.59324586594e-08
4.85356363841e-08
3.38763026063e-08
3.45585488608e-08
9.12575034341e-08
1.1140384021e-07
1.12163378076e-07
1.48685839531e-08
3.10086912803e-08
1.19560648833e-08
4.59210382853e-08
3.1118398704e-08
8.24868159842e-09
5.48552987471e-08
1.28705718333e-07
1.70125529743e-08
6.66930419241e-09
4.22690153041e-08
1.9326815231e-08
7.33781831364e-08
6.29720856694e-09
1.2143681634e-07
4.10574341927e-08
9.9431382063e-08
3.66626077188e-08
7.26011873831e-08
3.0848681968e-08
2.96351597166e-08
1.37701990946e-09
7.97334469808e-08
2.75270607518e-08
1.63176589852e-07
3.79489492666e-09
1.27309989121e-08
9.46627194902e-09
1.140633506e-08
5.79453566462e-08
3.05645682521e-08
8.13139547562e-09
4.71049001157e-09
2.65502712484e-09
1.02737847807e-07
8.44555020709e-08
2.80036046708e-09
7.11234469031e-08
8.54227268259e-08
1.5909227861e-10
1.1394977274e-08
1.9724185143e-08
2.16076157538e-08
3.04443298822e-08
2.66097690106e-08
1.81731600503e-08
4.59696941175e-08
1.19593187951e-08
2.72736837555e-08
2.04912745467e-08
1.49502220387e-08
2.8005734769e-09
2.67052399498e-08
1.86664354539e-08
4.47210237086e-08
2.78416950103e-08
4.69113098167e-08
6.62034609347e-08
4.14895056522e-09
6.65368899e-09
2.08829947136e-08
7.29124697523e-09
4.70182052531e-09
6.89790388328e-10
9.3609976084e-09
6.7766165368e-08
1.46244120815e-08
2.1685193582e-08
5.97029751639e-09
9.30499405087e-09
2.98177503967e-09
6.49450600399e-09
2.85823589283e-08
1.05264519311e-08
2.11523428241e-08
4.73954842734e-09
1.10604404826e-08
2.56689391981e-08
9.29165138421e-08
7.62636300618e-08
1.62356242256e-08
6.44485463139e-08
2.57223942447e-08
2.98853832345e-08
2.95160597127e-08
3.79860159998e-08
3.16883742333e-09
1.77553241144e-08
5.46935271618e-08
1.16565161899e-07
1.669634988e-08
3.59222042422e-08
2.0697166139e-08
4.13316820631e-08
2.3997809873e-09
2.83084511192e-08
2.42500952596e-08
1.78758073423e-08
3.60187616866e-08
3.18168962258e-08
9.32714268826e-08
2.77080915784e-08
2.52612982626e-08
7.00977577675e-08
1.30949819531e-07
5.21017894277e-08
3.94482343799e-08
2.33874839136e-08
2.32157600431e-08
4.38393954876e-08
2.95928700711e-07
1.3093908452e-08
7.02611828838e-08
6.92629824313e-08
5.4489382259e-08
1.19121836433e-07
1.67464023876e-08
5.31319839198e-09
2.89383082662e-08
1.12054238685e-08
2.32019234811e-08
1.18080813302e-08
1.6245530005e-08
9.87255795439e-09
2.34695207656e-09
1.91870319995e-09
6.40532420784e-09
1.32447830097e-08
2.86358110161e-08
7.46746750342e-08
7.67362409075e-08
5.71958814619e-08
5.22385333349e-08
4.05998706188e-10
1.32858226731e-08
5.04811686853e-08
8.79194788001e-08
2.20970329262e-08
1.14986100473e-07
1.20804704557e-08
3.64767371394e-08
3.64150674322e-08
4.36739640649e-09
2.25900064319e-08
1.58474989644e-08
6.42698736297e-09
1.56281370062e-08
5.77391547036e-08
4.53545225192e-08
1.54660682382e-08
4.47139093917e-08
6.36599399496e-08
7.20213134185e-09
7.07146797125e-08
6.12434108025e-08
5.842475953e-09
1.04661998014e-08
3.31323774365e-09
3.33381604956e-08
4.27673341133e-09
6.53014634691e-08
2.69656375565e-08
3.26767810896e-08
5.27215050331e-08
1.5567127057e-08
1.53396563155e-08
2.0661781647e-08
7.94308511355e-08
3.1220342961e-08
4.79996309571e-09
3.13218962132e-08
2.81113693486e-08
2.9072000675e-08
4.33326990186e-08
1.12266621394e-07
4.90494221574e-09
2.93258794746e-08
3.48269722159e-08
5.46582090692e-08
1.31907011964e-08
3.21606833554e-08
1.57717094508e-08
4.15696370727e-08
1.55796431157e-08
2.48362730122e-08
2.01106642469e-08
1.29553768676e-09
2.10199224542e-08
2.25693876917e-08
1.30843593762e-08
1.47379808271e-08
4.00349412678e-09

