# vtk DataFile Version 3.0
File Name: Molecule/sphere_excent/sphere_excent_0-s22.vtk
ASCII
DATASET UNSTRUCTURED_GRID
FIELD FieldData 1
TIME 1 1 double
0.0
POINTS 524 double
0.49641102552 0.00074955163291 -0.86703926325
0.24961988628 -0.47333967686 -0.84414118528
-0.0045075793751 0.00075762555934 -0.99988019466
-0.30579802394 -0.47501713037 -0.82324516773
-0.52583742142 -0.001976869069 -0.8506013155
-0.30842214823 0.48924276233 -0.81589847803
-0.77529221773 0.29704779387 -0.55659914017
-0.77004265785 -0.36609226465 -0.52050346136
0.022366899997 -0.83810663223 -0.54093855619
0.44050523639 -0.82391440868 -0.35578194261
0.11496005952 -0.98096978664 -0.15289989114
0.25587290525 0.47686070204 -0.84009122849
-0.0022514369339 0.80904906988 -0.58662581444
0.27052307129 -0.58293056488 0.76612406969
0.19112704694 -0.47285524011 0.86013907194
0.13927637041 -0.57460510731 0.8060285449
0.32430303097 -0.44773000479 0.83320498466
0.13287879527 -0.66724205017 0.73198163509
0.46542316675 0.81789660454 0.33821773529
0.32582286 0.93086653948 0.16516701877
0.26821053028 0.89538258314 0.35436213017
0.04600520432 0.97092097998 0.23125644028
-0.8658272624 -0.49190297723 -0.080817446113
-0.94213467836 -0.16305533051 -0.29259160161
-0.44890621305 -0.85192251205 0.26935434341
-0.30178704858 -0.94206571579 0.14626172185
-0.260137707 -0.89258044958 0.36766445637
-0.87957251072 -0.45027846098 0.15203738213
-0.95659983158 -0.28704512119 -0.024756293744
-0.20658054948 0.27037128806 0.94016182423
-0.29340940714 0.29017469287 0.91087388992
-0.25755035877 0.19470930099 0.94638520479
-0.35681036115 0.18527120352 0.9155023694
-0.024857804179 0.99832600355 -0.051471401006
-0.26028525829 0.9504917264 -0.16690550745
-0.2657405138 0.9568502903 0.11161924154
-0.48237746954 0.87256616354 -0.066287152469
0.85961538553 0.50620234013 -0.063447579741
0.71916526556 0.68241965771 0.12872810662
0.85299044847 0.47818562388 0.20786759257
0.74774187803 0.55566465855 0.36338284612
0.86609745026 0.33275553584 0.37138691545
-0.9382455945 0.16295285523 -0.30537900329
-0.94738280773 0.31259745359 -0.04900367558
-0.84358274937 0.45243135095 -0.28887876868
-0.69942057133 -0.68971693516 -0.18694408238
-0.73068279028 -0.67425394058 0.10406692326
-0.55420196056 -0.83231377602 0.0063553005457
-0.46809071302 -0.78456479311 -0.40402725339
-0.88958644867 0.42168590426 0.17494444549
-0.82457500696 0.56339114904 -0.052767086774
-0.7102047801 0.69354832172 0.11866848916
-0.19447636604 -0.8289437294 0.52436614037
-0.13534498215 -0.75187247992 0.64528077841
-0.28054797649 -0.75192439556 0.59669226408
-0.22185225785 -0.6797837615 0.69901907444
-0.3998388052 -0.7864484787 0.47076335549
-0.10557079315 -0.66623961926 0.7377576828
-0.65587615967 0.12269639224 0.74460077286
-0.73258125782 0.21253953874 0.64646244049
-0.75481551886 0.05490373075 0.6532356143
0.61050963402 -0.21714955568 0.76165878773
0.63528007269 -0.33338269591 0.6965996027
0.67489808798 -0.21165627241 0.70677310228
-0.068062491715 0.040627576411 0.99683368206
-0.15413066745 0.054279692471 0.98654919863
-0.12507991493 -0.031020781025 0.99165815115
0.62633156776 0.71472471952 0.31124180555
0.53167414665 0.83756935596 0.12506978214
0.78009724617 0.37877672911 0.4975746274
0.50916725397 0.56090354919 0.65252584219
0.60743051767 0.45087018609 0.6537399292
0.56180906296 0.60344517231 0.56513988972
0.6065312624 0.63803619146 0.47116109729
0.67542922497 0.51000970602 0.53258770704
0.52758836746 0.6940330863 0.48837804794
0.40680778027 -0.83366376162 0.37350594997
0.45110505819 -0.87663275003 0.16756677628
0.57144665718 -0.76220571995 0.30387705564
0.58157289028 -0.67186903954 0.45844617486
0.69873285294 -0.63273143768 0.33278504014
-0.41983899474 -0.28103119135 0.86293518543
-0.32524397969 -0.31502732635 0.89162290096
-0.34413385391 -0.19518375397 0.91830295324
-0.41397964954 -0.37498870492 0.82946324348
-0.38923758268 -0.46509733796 0.79508298635
-0.49265223742 -0.45272424817 0.74319589138
-0.42904922366 -0.55016011 0.71639412642
-0.55009889603 -0.52869063616 0.64570051432
-0.51895850897 -0.34302335978 0.7829490304
-0.60217601061 -0.41886726022 0.67964309454
-0.61851119995 -0.31072816253 0.72172534466
-0.55927532911 -0.23995126784 0.79336458445
-0.67056161165 -0.47206559777 0.5722091794
-0.71014642715 -0.33798861504 0.61760163307
-0.79336822033 -0.36471325159 0.48722198606
-0.79286754131 -0.2284476012 0.5649574399
-0.69465887547 -0.23038490117 0.68117594719
-0.74198669195 -0.12687678635 0.65788334608
0.14476647973 -0.3607441783 0.9211742878
0.25139498711 -0.35570058227 0.90014410019
0.1995228976 -0.25346070528 0.94654160738
0.32630342245 -0.24028083682 0.91385424137
0.11708308756 -0.063002362847 0.99110406637
0.15530142188 0.015963247046 0.98770755529
0.066802628338 0.016057103872 0.99759274721
-0.3868470788 0.29473158717 0.87372869253
-0.33454704285 0.37725049257 0.86338216066
-0.44314041734 0.3391546309 0.829629004
-0.19054478407 -0.94835704565 -0.25207978487
-0.64978069067 0.35604786873 0.67156755924
-0.62409591675 0.24558062851 0.74172627926
-0.56564450264 0.33413347602 0.75381934643
-0.52431440353 0.24480523169 0.81542360783
-0.69460564852 0.45165079832 0.55957490206
-0.56819689274 0.48865482211 0.66177868843
-0.31434521079 -0.60805487633 0.72897177935
-0.22022166848 -0.59293848276 0.77424526215
-0.29463076591 -0.51994097233 0.80177348852
-0.22500240803 -0.44724926353 0.86563104391
-0.18581654131 -0.51653021574 0.83583569527
-0.1083824411 -0.43885436654 0.89170086384
-0.084761910141 -0.53803187609 0.83851748705
0.0040374407545 -0.47778764367 0.87816882133
-0.12960490584 -0.99143779278 0.0060723181814
-0.3561681509 -0.92951667309 -0.095236167312
0.29363620281 -0.042461134493 0.95497649908
0.20250916481 -0.069473572075 0.97680896521
0.24646481872 -0.14069126546 0.95865499973
0.16251823306 -0.15627664328 0.97424840927
-0.24093745649 -0.28728970885 0.9268206358
-0.21555379033 -0.36744350195 0.90470445156
-0.31467047334 -0.4141780436 0.85408461094
0.084454372525 -0.21930347383 0.97186112404
0.48787018657 -0.86941736937 -0.075725927949
0.6657140255 -0.7308254838 -0.14595401287
0.65361952782 -0.74844777584 0.087278924882
0.69004374743 0.27636396885 0.66889685392
0.72657239437 0.18546617031 0.6615627408
0.7594614625 0.29002845287 0.5823045969
0.64956337214 0.16287638247 0.74180603027
-0.1997384429 0.89063805342 0.40871152282
-0.2960729599 0.79970157146 0.52220231295
-0.090691611171 0.87663149834 0.47241818905
-0.39904564619 0.85557949543 0.32460489869
-0.46473920345 0.76620918512 0.44355723262
-0.29850825667 0.87628686428 0.37697687745
-0.5522749424 0.78985947371 0.26630362868
-0.4123827517 0.70007812977 0.58278572559
0.025322537869 0.84213095903 0.53799021244
-0.096265502274 0.80601626635 0.58409172297
0.04679139331 0.73803770542 0.67314052582
-0.035705100745 0.66476005316 0.74611884356
0.076337881386 0.6254453063 0.7765211463
0.69832247496 0.012769036926 0.71437597275
0.79023790359 -0.042786791921 0.61123782396
0.76177811623 0.077624090016 0.64303809404
0.67350685596 0.087591260672 0.7333971858
0.86014729738 0.051970142871 0.50739359856
0.78997564316 0.18732528389 0.58328431845
0.60198688507 -0.48216632009 0.63614141941
0.71447503567 -0.38702237606 0.58147394657
0.7408233285 -0.26378208399 0.61749392748
0.17742830515 0.75899225473 0.62645965815
0.1925829947 0.65031021833 0.73477196693
0.29712215066 0.67574310303 0.6743965745
0.17726953328 0.54098528624 0.82215410471
0.27274847031 0.53955823183 0.79649215937
0.28025534749 0.43324092031 0.85656988621
0.18172468245 0.85000032187 0.49438375235
0.037850961089 0.91304600239 0.40550884604
0.34474796057 0.81717509031 0.4617292285
0.29995569587 0.762583673 0.57312780619
-0.76970940828 -0.56198579073 0.30026331544
-0.853515625 -0.39583441615 0.33854758739
-0.95768797398 -0.18397718668 0.21570779383
-0.88201159239 -0.22373056412 0.41472682357
-0.8713401556 0.051844593138 0.48766237497
-0.92805165052 -0.061584509909 0.36726427078
-0.85041499138 -0.09706556797 0.51654142141
-0.53044015169 0.8397307992 0.11499124765
-0.73031514883 -0.51892447472 0.44409072399
-0.605509758 -0.63716763258 0.47457039356
-0.66188794374 -0.67753976583 0.32009255886
-0.18244504929 -0.196939677 0.96312642097
-0.15888471901 -0.11570319533 0.98043775558
-0.2537522912 -0.1251437217 0.9591165781
-0.2146551013 -0.044066932052 0.97569417953
-0.3303809464 -0.053892675787 0.94222289324
0.72669547796 -0.12116554379 0.67614334822
0.38729727268 0.68662172556 0.61507803202
0.43846341968 0.73076248169 0.52197444439
0.70510339737 0.37964335084 0.59874665737
0.66658079624 -0.55182605982 0.50062692165
0.73998939991 -0.65529870987 0.14766559005
0.42346069217 0.68010783195 -0.5984261632
0.49354875088 0.80316728354 -0.33360549808
0.25305300951 0.86697119474 -0.42929193377
0.24661932886 0.94667714834 -0.20708477497
0.027213988826 0.95354360342 -0.29976958036
0.3525428772 -0.34126681089 0.87133741379
0.42300257087 -0.28646934032 0.85962849855
0.43181571364 -0.38524752855 0.81549620628
0.50313347578 -0.32228386402 0.8017835021
0.52908575535 -0.41628140211 0.73939019442
0.4223857224 -0.48869332671 0.76320791245
0.27384066582 0.15763364732 0.94873464108
0.37192901969 0.18888813257 0.90884548426
0.29908376932 0.28321096301 0.91123086214
0.4253770113 0.2651399076 0.86529612541
0.46542698145 0.1804381758 0.8662250042
0.54045599699 0.22736617923 0.81006383896
0.0034256651998 0.48963186145 0.87188196182
-0.01496325992 0.57527625561 0.81773626804
-0.081280998886 0.49476745725 0.86517703533
0.079633995891 0.5270383954 0.84609514475
0.078266374767 0.43772339821 0.89568054676
0.51531565189 0.43600744009 0.73774832487
0.56152462959 0.3447663188 0.75219982862
0.4735571444 0.34524357319 0.81025540829
0.41141211987 0.43074527383 0.80327302217
0.37426048517 0.35451641679 0.85689669847
0.99159371853 -0.10521814972 0.069126933813
0.94578588009 -0.23218946159 0.22585508227
0.96110212803 -0.26720541716 -0.06274228543
0.98141926527 -0.052202031016 -0.18108049035
0.99529582262 0.081916101277 0.047532737255
0.9763725996 0.0040811141953 0.21599087119
[...]
CELL_DATA 1044
SCALARS cell_data_0 double
LOOKUP_TABLE default
1.44671571138e-08
5.53716717282e-08
4.97445388544e-08
4.81068889908e-08
5.74144925734e-08
1.93837755123e-08
5.7944666398e-09
7.21219956533e-09
3.71827309517e-08
1.96596526201e-08
2.81784439254e-08
1.42959607607e-08
5.08657853905e-09
1.87014056357e-08
4.30317296868e-09
5.21388053791e-09
1.14034383006e-08
5.37410558448e-08
1.93375252672e-08
2.52303155479e-08
4.37125565208e-09
2.94546781301e-09
1.32895679532e-09
5.45441184581e-09
3.32502765993e-08
3.63658946786e-08
3.88468481485e-09
3.06923156359e-08
2.20140427124e-08
3.8911643265e-08
6.18662425812e-08
2.96686717792e-08
1.42431116997e-08
2.98186006834e-08
3.40645004267e-08
1.3058081376e-09
2.14923344047e-08
5.32776574946e-09
1.82959867399e-08
1.33488450336e-08
1.83275081889e-08
3.00486218325e-08
1.61068414335e-09
6.37498889156e-09
4.34974679032e-08
5.58738408078e-08
1.95489852752e-08
1.0519603146e-08
3.30142859676e-09
2.47936661243e-08
3.89513349092e-09
5.49512829817e-08
5.94764039724e-09
3.35586930583e-08
1.07862556922e-08
9.64195046141e-09
5.41886831769e-08
4.60410882243e-08
3.63547924671e-08
3.36066217212e-08
8.62156391401e-09
3.12098336592e-08
3.87720719369e-08
5.0812201595e-08
2.98715795667e-08
1.08779095634e-08
2.61507865917e-08
2.83074806967e-08
3.56968907238e-08
2.64612508729e-08
2.0207798828e-08
1.13730154002e-08
1.12130192959e-08
3.27568995244e-08
4.07969798187e-09
2.92978519517e-08
6.70729664356e-09
1.4314658495e-08
1.15843449494e-08
1.25774850422e-09
1.70120515218e-08
1.58899457664e-08
3.23251457741e-08
3.64666974902e-08
2.71458160286e-08
1.4220402747e-08
1.60089725448e-08
2.93713459706e-08
1.96684454826e-08
2.69089353013e-08
2.35689364007e-08
4.02227834783e-08
1.2919959701e-08
2.81179973527e-10
9.16195981007e-10
1.16378347102e-09
1.72530538879e-08
3.55369043439e-08
2.65929434674e-08
2.77977709345e-08
1.4837290292e-08
2.29929445004e-08
5.21834025573e-08
4.28048292722e-08
2.03594358537e-08
9.64559958671e-09
3.43830736161e-08
3.43321083516e-08
1.44717776869e-09
2.32427702907e-08
9.61293639165e-09
2.84485355343e-08
1.49189678018e-08
4.94289012031e-10
1.02800028057e-08
9.93517411653e-09
1.93379050017e-08
4.23602127605e-08
5.34949129441e-09
2.31060975211e-08
5.76387011335e-09
7.10235804536e-09
9.62589850507e-09
8.66517784078e-09
2.98776991694e-08
2.16820209428e-08
8.60399542687e-09
4.09788944025e-08
3.10099060912e-08
1.26292004517e-08
2.15592330098e-09
4.64918022428e-08
1.59115906647e-09
1.36818838382e-08
2.28034978255e-08
3.10998611051e-09
6.73567448766e-09
2.70447247279e-08
7.95370379069e-10
2.16339939452e-08
1.31726070106e-08
2.94732992315e-08
2.62125110561e-09
3.69203979022e-08
2.24947689454e-08
1.88539750219e-09
1.74735437922e-08
2.85206620777e-08
2.31435846966e-08
1.80534408744e-09
2.76358399571e-08
8.13297509605e-09
1.44126526147e-08
3.08569657626e-08
4.73628692559e-09
1.32690681898e-09
1.85783194761e-08
2.48140670039e-08
1.78530971522e-08
3.35084075296e-08
1.00490522901e-08
7.36636268859e-09
1.68184051031e-09
1.10455432855e-08
3.56106751812e-08
8.94129161784e-09
6.75904645896e-09
3.87690505543e-09
7.59071641792e-09
6.67440059926e-09
3.04132271165e-08
2.05445017027e-08
4.21106348757e-08
1.90989802143e-08
3.12627182839e-08
4.02272998172e-09
4.28492306211e-08
2.88134619263e-08
1.75968389095e-08
1.2514405278e-08
3.48020142141e-10
4.20887422398e-09
1.78689097098e-08
4.16183271097e-09
1.29837937253e-08
3.18473475627e-08
6.43175216026e-09
1.55161129958e-08
2.27790158517e-08
1.84735724284e-08
1.41979547892e-08
8.81325639135e-09
4.29616933246e-08
4.82376089166e-08
3.1954615087e-08
1.47098997763e-08
8.65140326505e-09
3.45774063116e-08
5.52025900537e-09
2.97209189552e-09
1.22859033037e-08
5.16401633643e-09
1.70319727067e-08
1.8288878979e-08
1.59943679599e-08
7.47694802532e-09
1.53192248468e-08
3.03140739944e-08
7.15992071112e-09
4.57432427617e-08
1.96513492641e-08
5.80242427717e-09
3.49442127752e-08
4.19099030413e-08
1.49488239367e-08
4.48474528528e-09
1.14237481703e-08
2.07238572514e-08
7.50687639835e-09
5.20679821582e-10
3.928745702e-09
1.80867726775e-08
2.91556762141e-09
1.94925904019e-08
3.33985918677e-08
9.88374511229e-09
2.02269616024e-08
1.90835161765e-08
1.32154401533e-08
2.18154143405e-08
1.53577223664e-08
2.50192432517e-08
2.51485314083e-08
1.38326059894e-08
1.54652975302e-10
3.16016398079e-08
1.71390727223e-08
2.57212280729e-08
1.28937096362e-08
4.40910719179e-09
3.38093973115e-08
1.25715755352e-09
1.04619544609e-08
3.85582731135e-08
2.08006644817e-08
1.20095024356e-08
1.99219297406e-08
1.87822949681e-09
8.95923685048e-09
2.75604401753e-08
3.6126785627e-09
2.28788786478e-08
1.67240730791e-08
8.51474439928e-09
3.2054442562e-08
3.45762396326e-08
1.91822937068e-08
6.1938770704e-09
2.86838537494e-08
1.76324639806e-08
9.13051833257e-10
5.11491878159e-08
2.52210287673e-08
2.91707420126e-08
2.36723429497e-10
3.71049695335e-08
4.06444481362e-08
1.44376050569e-08
3.06115445365e-08
1.82444009334e-08
2.81001518902e-08
2.06463289888e-09
7.13854291107e-09
6.46576455305e-09
4.91967800365e-08
8.10797396109e-09
2.61883989466e-08
3.70892473375e-09
4.9770557487e-09
1.6935664453e-08
1.62258213372e-08
2.00239526609e-08
3.00158640135e-08
2.07539052659e-08
1.9146070259e-08
1.69538398343e-08
2.53626700023e-08
4.38500409861e-09
4.63106388024e-08
5.25812774016e-09
8.34063046345e-09
2.30214162112e-08
2.35653657196e-08
3.00746533509e-08
2.65021317416e-08
4.47565963203e-08
1.12262807915e-08
1.79381972304e-08
1.53266946917e-08
2.47046013325e-08
3.85115283705e-09
1.18266965086e-08
9.98521647862e-09
2.88882744146e-08
2.54180117146e-08
1.59281271387e-08
8.81664710908e-09
5.44929378671e-09
8.45547243973e-09
4.80699592479e-09
2.74399921856e-09
1.57531136584e-08
2.72330141101e-09
1.9013863902e-09
1.35417515332e-08
2.03504129482e-08
5.20294876672e-09
1.71408451912e-08
6.72202533672e-09
5.23863014635e-09
5.50767703177e-09
4.49649133482e-09
1.34972605203e-08
7.65003950499e-09
3.55761250306e-08
5.08440834298e-08
9.63896919525e-10
1.60975533781e-08
2.23550673631e-08
1.71622301879e-08
1.2676485345e-08
7.43262662257e-09
2.06856500652e-09
2.44418833825e-08
1.49179186444e-09
5.26932414255e-09
1.93352939956e-08
3.32908054315e-08
4.66715721166e-08
3.33560191166e-10
2.99071886093e-08
2.12222320079e-08
4.34188609835e-09
1.397868177e-08
2.98949152663e-08
1.32024859881e-08
4.81680279007e-10
1.83434609905e-08
1.669853881e-08
1.00166230297e-08
2.28809506804e-08
2.88825456449e-08
1.00447940425e-08
7.45129413362e-09
1.74977589404e-08
4.76997281738e-09
9.21680216275e-09
3.01497361707e-08
2.29063966588e-09
8.60022446714e-09
8.80160057459e-10
2.92544057183e-08
3.65316753821e-08
2.41664097794e-10
1.7887848614e-08
8.62219809208e-09
3.47341538412e-08
1.92156362877e-08
5.99070574163e-09
3.30601678772e-08
2.755339714e-08
1.74347944928e-08
3.81521165568e-08
2.31916192913e-08
1.62094044362e-09
8.04456482145e-09
1.5350292538e-08
7.52032697705e-10
1.3619673634e-08
3.78125769928e-09
1.62660101983e-08
2.28631562792e-08
1.16300659583e-08
4.11061505609e-08
3.94298766025e-08
1.48267728996e-08
3.18116190383e-08
1.33380930473e-08
5.06375573983e-10
8.61676214064e-10
2.93964239896e-09
7.50048384934e-09
5.10554820065e-08
2.11213618548e-08
1.43804192672e-08
4.46253860434e-09
6.28760719883e-09
1.07480337159e-08
4.44509526572e-12
7.5782299076e-09
9.37927117437e-09
1.01150017204e-08
1.67045643301e-08
6.35621530412e-10
1.07239762815e-08
1.67843769479e-08
1.03341947327e-08
1.63808225374e-08
3.37600195449e-09
2.47780968594e-08
4.33593171642e-08
3.86627809184e-09
2.74745306025e-09
3.28269336723e-09
1.27264756882e-08
4.51512736538e-09
1.71225103985e-08
9.86778608894e-09
5.99836391762e-10
1.2641992487e-08
5.81872816639e-09
5.29186411174e-08
2.25122031654e-08
1.94089472423e-08
1.27154155282e-08
1.13415265325e-08
6.02885838779e-09
2.22015203897e-08
4.77926549694e-09
9.47234621543e-09
1.34800332549e-09
5.24193525906e-09
5.47416137457e-08
6.68734694148e-09
4.11450056584e-08
7.43918939652e-09
2.90282865048e-09
2.4834591608e-08
3.11518037715e-08
1.27097856719e-08
1.07812605245e-08
3.74463492459e-09
1.18415780594e-09
2.2219974765e-09
1.96666492449e-08
1.65053595367e-08
2.65861004912e-08
2.121553068e-08
2.12847926721e-08
1.87529670289e-08
2.26776076758e-08
2.04019448055e-09
1.34957902833e-08
1.58762702124e-08
2.13100674965e-08
1.84220220253e-08
4.47144391394e-09
3.1108671497e-08
1.14173849497e-08
4.56094635721e-09
6.19961758507e-09
2.75101840949e-09
9.32424262516e-11
1.68125563587e-08
2.02032387529e-08
5.00697794014e-09
4.9024628181e-09
1.67404485659e-08
3.37255525707e-09
5.32312904998e-10
2.26739026192e-08
2.3223527606e-10
5.22657641537e-09
4.90694776661e-09
8.95190992932e-09
5.71757639041e-09
1.41597602324e-08
3.60083846861e-08
1.11717556895e-08
1.23196292413e-09
5.57936798082e-09
5.9231908165e-09
1.4694174076e-08
1.2045117517e-08
2.78266802577e-08
9.73119890408e-09
2.45927854475e-08
6.0457553151e-10
1.98385271704e-09
2.83206990759e-08
2.20279564954e-08
6.63516329477e-09
3.64568231044e-09
4.76776175402e-09
8.96720564522e-09
8.7567373907e-09
2.14612299579e-08
5.12910346186e-09
1.31293280407e-08
4.10362020604e-10
4.12940641754e-09
4.64355554496e-09
4.29347725142e-09
6.83423451599e-09
2.20626491779e-10
2.70449128088e-09
3.36934990959e-09
2.4291332026e-09
3.14347908596e-09
1.95077828737e-08
6.4361329931e-09
2.31949239515e-09
1.1478983308e-08
1.63872185113e-08
1.3447825161e-08
7.01825918223e-10
2.6417883347e-10
5.56404526647e-09
5.07865074257e-09
7.10654484821e-09
8.22719170988e-09
1.1355305026e-08
1.18472916044e-08
9.07295705114e-09
8.13120204464e-09
4.01260863471e-08
3.8131211856e-08
1.30527761294e-08
1.53563858408e-08
4.53194563846e-09
1.461820284e-08
8.80564732043e-09
6.83894067882e-09
1.26979662884e-08
1.51182963212e-08
2.44980028823e-08
1.0042733071e-08
3.04541205841e-09
6.3156408303e-09
2.25199044669e-09
1.32189386748e-09
7.76934300431e-09
3.50750137505e-10
1.05670139917e-08
1.50285613061e-08
2.37284207987e-08
3.82817404514e-08
3.04058939757e-09
2.25819335958e-08
4.32632671248e-09
1.42840506088e-08
1.26343041047e-08
5.13499118573e-09
2.27115327926e-08
9.80548748087e-10
6.05028875456e-10
1.54732768211e-08
8.7005575523e-09
5.27730508331e-09
4.036788535e-08
1.81893301226e-08
1.44631526857e-08
1.55199298022e-08
3.7885775909e-09
1.67945018833e-08
2.95091021192e-08
7.65391482376e-09
1.26025054714e-08
7.54422804051e-09
6.53608051697e-09
6.55687257271e-09
1.1910216341e-08
1.40156658162e-08
3.06961699292e-08
9.54895138745e-09
1.60242762547e-08
1.38172131033e-08
2.16504024213e-08
1.85279608369e-08
1.39959788145e-09
1.12947251734e-08
3.57506339291e-10
9.57392301999e-09
1.0972473385e-08
3.59849541743e-09
4.08463833882e-08
4.33541206221e-10
1.36860561197e-09
3.71227418071e-09
2.36802975371e-09
4.00436134549e-09
3.65275699821e-09
1.14766203497e-08
1.64539805389e-08
8.42106141935e-09
8.6042982982e-09
2.04955538393e-08
1.60362688335e-08
6.03991694872e-09
1.24267888214e-08
5.79157237051e-11
4.17324083848e-09
7.48271082831e-09
1.99791593586e-09
5.2625349676e-10
1.62386844738e-09
9.52835878237e-09
3.69673779863e-09
1.71775833647e-08
6.93321970479e-08
8.11076979039e-09
1.2096390588e-09
2.44736004234e-08
3.31575086897e-09
6.50242614364e-10
5.26875519236e-09
1.05647434602e-08
1.01203279869e-08
7.68421084258e-09
1.22549686078e-08
9.6799160455e-09
4.65358828732e-10
1.01203245884e-08
5.17250220216e-09
1.18904563529e-08
2.92257491108e-10
2.73623458031e-09
1.01789750065e-08
8.75285936244e-09
9.2925688451e-09
3.11362671046e-08
1.41813866436e-08
1.41934695853e-08
9.20751354954e-09
4.40584629012e-08
1.33468505736e-08
2.29137032832e-08
3.45223093276e-12
3.01292628926e-09
9.27361924467e-09
3.4951655023e-08
9.02503036103e-09
2.45822127757e-09
3.14620164494e-09
1.23659157068e-09
6.02530185363e-09
6.47861214384e-09
3.61430461162e-09
8.09171222148e-09
2.37500568905e-08
6.98973936987e-09
8.45676937191e-09
3.95629749381e-09
7.92185046735e-09
4.37164810264e-09
2.36293128466e-09
5.93163450229e-09
2.4607194369e-09
3.22731355651e-09
2.83203057344e-09
8.64755084468e-09
3.33908135482e-09
4.80533950455e-09
6.61650373414e-09
1.14278950046e-08
9.94400657307e-09
9.55065200879e-09
3.07836505046e-08
1.14443025762e-08
1.86679417034e-09
3.3769901924e-09
2.37657232849e-08
2.83940437085e-09
2.30627861273e-08
8.48520969505e-09
1.46332744301e-08
4.19753455259e-09
6.71221600345e-10
5.55972218331e-09
4.65751507599e-09
2.95601792429e-09
1.00717614427e-09
2.31370409314e-09
2.83439282526e-09
5.97896477104e-09
2.28933174702e-08
4.03620108033e-09
2.11853763858e-08
1.87596880112e-09
6.39109435252e-11
1.27120140688e-08
1.0341278124e-09
1.5312081245e-08
4.0425677384e-08
8.39833470535e-10
1.84429723683e-08
1.10590682612e-08
7.54054646499e-09
1.4916532816e-08
1.39940241169e-08
8.57284667209e-09
6.44857065909e-09
1.07616542655e-08
5.24861615382e-10
6.31803327171e-12
1.04910294658e-08
5.80054392715e-09
2.24017025646e-08
2.14777438539e-08
7.08618297644e-09
2.3381578501e-09
1.99867391339e-09
2.28136606343e-09
6.47062087707e-09
7.1764398279e-09
1.25433447797e-09
3.59207851838e-09
1.34898416385e-08
3.44390451302e-09
1.7141533614e-08
2.15174512904e-08
1.42238377282e-08
1.21868256533e-09
1.36158469123e-09
1.31632046336e-08
2.36062900271e-08
1.06995810413e-08
4.82358832848e-09
9.02499253759e-09
4.01671940203e-09
3.67953228198e-09
1.78717076351e-08
1.11582360204e-08
1.29703986073e-08
2.9576505503e-09
5.73383234273e-09
3.0074785268e-08
2.55487865388e-08
4.60902937644e-09
5.47378553688e-09
3.73087763262e-08
6.27282112122e-09
1.02526322633e-08
2.28093358282e-08
1.59338844769e-08
1.38895034645e-09
4.66204421114e-09
5.20467630344e-09
4.49515083904e-09
8.68859748936e-09
1.53826749636e-08
2.81444661591e-09
2.56471519352e-09
1.00699088418e-08
1.03597448869e-08
8.79568431865e-09
7.21617463558e-09
3.92908073447e-09
1.42738630936e-08
8.4852612422e-09
8.86561351297e-09
1.38337442929e-08
2.08005954061e-08
1.17154069626e-09
4.81170928762e-09
4.36461558956e-09
3.78212876751e-08
1.24538453582e-08
6.56150837243e-10
2.24272206021e-08
2.34583353872e-08
1.89592356998e-08
5.29904058242e-09
4.80546323516e-09
4.57984034846e-09
4.05836787722e-09
2.41763810225e-08
8.71915850567e-09
1.80449180643e-08
5.19039134527e-09
1.43778928307e-09
3.31420972707e-09
1.30607848099e-08
3.36893744944e-09
4.854543342e-09
5.1320213214e-09
1.55877862647e-08
1.7619176488e-09
1.82939745734e-09
5.71601759623e-09
3.3516107215e-09
1.65735530227e-09
1.04455256479e-09
1.68963245166e-09
2.01598065465e-08
2.20519848056e-08
3.46186462743e-09
8.00385776051e-09
3.19067101696e-09
1.05338364623e-08
5.5126587591e-08
1.99595060154e-08
3.29332161915e-08
3.32231348429e-08
2.55037111776e-08
3.91445540384e-08
1.01901713176e-10
1.20648633855e-08
2.11754076395e-08
5.28849387177e-09
4.97059847182e-09
9.63524833683e-09
9.74103098251e-10
1.13691522231e-09
1.44143082447e-08
9.2512762657e-09
2.30610300692e-08
5.08068643317e-08
9.62154047608e-09
3.37500753695e-09
2.0237353238e-08
9.87367829585e-09
2.73527007646e-09
2.02719825038e-09
7.07471169505e-09
5.45272874918e-09
3.60714105365e-08
5.67313150873e-09
1.00485021906e-08
1.1966059625e-08
2.29860781803e-09
8.21881850084e-09
2.56346998276e-08
2.9704420256e-08
1.28725965574e-08
4.36887095454e-08
2.51635271753e-08
1.62348683267e-09
7.96442056003e-09
1.75042391577e-08
2.36479646273e-09
7.05600845323e-09
9.35639018929e-09
1.29908159141e-08
1.26148246028e-08
3.32232240626e-08
1.88646188122e-09
1.81123642876e-09
8.77147983057e-09
2.86719898074e-09
1.11250176395e-08
8.88231091052e-09
2.82280309974e-08
9.20155082703e-12
5.82681948685e-09
2.90911498115e-09
6.98880468861e-11
7.48349838344e-10
7.36461201634e-10
2.94928459647e-08
9.85342797232e-10
1.40003798801e-09
3.04240505633e-09
3.26303349516e-09
7.93942965833e-09
7.26304674449e-09
7.3217923872e-09
1.62252999378e-09
1.4169717322e-08
6.48919007971e-09
1.67800952282e-08
9.87405241232e-09
2.69775403695e-08
1.73099331076e-09
1.31586347283e-08
9.54462502835e-10
7.28428661902e-10
5.92909147972e-09
1.69745427259e-09
1.98605002332e-09
7.11590232133e-09
1.10987006589e-08
1.95594881101e-08
5.00437633898e-10
3.18872498167e-09
9.16792308133e-09
3.51846058419e-09
1.00854792363e-08
4.21379588384e-09
1.8761670724e-08
7.48446608921e-10
3.40554367838e-10
7.32853417244e-10
2.17579423099e-09
9.59754775701e-09
4.10336121167e-09
2.68947851247e-09
2.83024240118e-08
3.10341442966e-09
8.20920614699e-09
6.01192424726e-09
1.20794266723e-08
1.32726109443e-09
3.24925361913e-08
2.04183614762e-08
1.01585962609e-08
1.15742699873e-08
3.68095925559e-08
5.26524258442e-08
7.74617160364e-09
1.43112564184e-08
1.2028546037e-08
1.69538370094e-08
2.47396192902e-09
2.16116896509e-10
3.81260048844e-09
3.07769574056e-09
1.41859074326e-08
2.7028956805e-08
3.23447594119e-09
1.79965490337e-08
9.08351516195e-09
2.03813191486e-08
8.10169420743e-09
8.30523362047e-09
5.01642871264e-09
1.2588944144e-08
3.79628351048e-08
6.8423155519e-10
3.83663779718e-09
2.24071742017e-09
6.83293120017e-09
7.83032475061e-08
2.01999207902e-08
1.80151245087e-08
1.3719154451e-09
3.01767811993e-09
3.26214765683e-08
9.21287473656e-09
8.57044147922e-09
1.04552318093e-08
2.7876095685e-11
2.07896971801e-08
4.6348933494e-10
1.90981578458e-09
2.03774575314e-08
1.16812211268e-09
6.76390484239e-09
1.50523385368e-09
4.64493338312e-09
9.95150111248e-09
1.69397598023e-08
1.6610457731e-08
8.14563891426e-09
9.19785502216e-09
3.29329523784e-09
1.37546821755e-09
3.36603559041e-09
1.20194132801e-09
1.13044669092e-08
4.30879561372e-09
1.42158554777e-08
1.31098176044e-09
5.93594809578e-09
2.93803936097e-08
1.30166796181e-08
3.08846664992e-09
3.91148234028e-09
1.7165208313e-08
2.43860055455e-09
6.12793654963e-09
5.3552730982e-09
7.11496929382e-10
8.21749582488e-09
5.50137733306e-09
3.21149500659e-08
7.21056050065e-09
1.21291652991e-08
1.90876999417e-08
8.23751999874e-11
5.24686899137e-09
1.40005987393e-08
9.27379508291e-09
5.96332969136e-09
4.82996040839e-09
7.7790403424e-09
1.2012529435e-09
1.62566569335e-09
2.92567682021e-09
8.88399923703e-09
2.16328832123e-10
4.6076951846e-09
1.28678423963e-09
1.8484810818e-08
1.60479151329e-09
3.96920478437e-09
7.81066047601e-09
4.94962365647e-09
8.50827601345e-09
2.12345307959e-09
5.10136417313e-10
1.88183377888e-09
1.1142529005e-08
7.42796953298e-10
2.53189133692e-09
3.05916896826e-09
1.82435449099e-08
3.15850665222e-09
7.06298615456e-10
2.53501183275e-08
1.53407828169e-09
4.26339620534e-09
9.7301776032e-09
1.23367001669e-08
8.87514140354e-09
4.48091912932e-09
1.50893666696e-08
1.80421927426e-09
3.1880348093e-08
1.38781211552e-09
4.20807301965e-09
1.46909435073e-08
4.10376289613e-09
6.59289109349e-09
3.23014660482e-09
3.04027280978e-08
9.3666415558e-09
2.10421281222e-08
9.42238646388e-09
2.53603541793e-08
8.80350953782e-09
1.0582324238e-08
1.43963220027e-08
1.64976186851e-09
4.19222326196e-09
1.28367943031e-08
3.26867542866e-09
5.18997469682e-09
2.69051478419e-09
3.86465212706e-10
4.41277239318e-09
2.7197965858e-09
6.13231182427e-09
5.19892214717e-09

