# vtk DataFile Version 3.0
File Name: Molecule/sphere_excent/sphere_excent_0-s26.vtk
ASCII
DATASET UNSTRUCTURED_GRID
FIELD FieldData 1
TIME 1 1 double
0.0
POINTS 927 double
-0.03589239344 0.99723887444 -0.059636466205
-0.23925504088 0.95518952608 -0.17311683297
-0.28601655364 0.95823663473 0.0078060738742
-0.45699584484 0.88537442684 -0.083125665784
-0.93565785885 0.16159109771 -0.31388509274
-0.94453519583 0.31077450514 -0.10389553756
-0.84717381001 0.44125041366 -0.2959702611
-0.2184754163 -0.68082004786 0.69909781218
-0.26775574684 -0.74251276255 0.61385524273
-0.14507645369 -0.76114279032 0.63214892149
-0.10441045463 -0.68393093348 0.72201448679
-0.28873449564 -0.93774628639 0.19139787555
-0.44912275672 -0.86880236864 0.20725399256
-0.36513698101 -0.92925816774 0.050456114113
-0.67461711168 0.124391675 0.72745031118
-0.74572914839 0.19019593298 0.63816940784
-0.75620025396 0.076207652688 0.64988738298
0.60968494415 -0.23753608763 0.75621247292
0.64257407188 -0.30717664957 0.70194858313
0.68066084385 -0.21870014071 0.69919210672
-0.080090269446 0.032826751471 0.99622130394
-0.16421753168 0.034732811153 0.98575431108
-0.13000522554 -0.033701077104 0.99094378948
0.68206006289 0.5081397891 0.52584666014
0.74199712276 0.56488996744 0.36050453782
0.63771432638 0.62888032198 0.44464451075
0.59651958942 0.73402136564 0.32307940722
0.53502070904 0.70541650057 0.46489697695
0.42669922113 -0.83355098963 0.34917068481
0.45125243068 -0.87730008364 0.16332814097
0.57089346647 -0.77369463444 0.27185860276
-0.41361954808 -0.26200926304 0.87193512917
-0.33275526762 -0.31622901559 0.88840615749
-0.362118572 -0.20415943861 0.90946859121
-0.70373111963 -0.32874342799 0.62972921133
-0.70439487696 -0.23528039455 0.66964650154
-0.78579998016 -0.23040556908 0.57299304008
-0.63983845711 -0.29662540555 0.7085377574
-0.74038100243 -0.14084345102 0.65723538399
0.11042907089 -0.056475505233 0.99223852158
0.1435174644 0.0034677539952 0.98942381144
0.069219872355 -0.0034162341617 0.99757629633
-0.38580313325 0.28126594424 0.87865978479
-0.35025900602 0.3645427525 0.86280089617
-0.4302123189 0.34547579288 0.83398860693
-0.31169500947 0.29412263632 0.90335142612
-0.6806230545 0.45923119783 0.5701559186
-0.65131694078 0.38480392098 0.65397775173
-0.59682923555 0.47674384713 0.64535045624
-0.32082536817 -0.60436022282 0.72926700115
-0.23293276131 -0.59029245377 0.7728292346
-0.29277601838 -0.52045851946 0.80211961269
-0.083839178085 -0.44488108158 0.89166110754
-0.087147124112 -0.52985608578 0.84359824657
-0.00030901443097 -0.48006057739 0.87722927332
-0.25159156322 -0.294888556 0.92178678513
-0.24668709934 -0.3583355248 0.90024363995
-0.31278133392 -0.41622322798 0.85377150774
-0.2406232655 -0.46975982189 0.84933656454
-0.41513067484 -0.57857447863 0.70201247931
-0.38231432438 -0.53081673384 0.75628602505
-0.39134320617 -0.37546741962 0.84013366699
-0.19641320407 -0.52408730984 0.82869112492
-0.16064842045 -0.46812584996 0.86886811256
-0.36256447434 -0.47656834126 0.80085629225
0.44973787665 -0.83131492138 -0.3221975863
0.64554834366 -0.75107437372 -0.13714306056
0.50587493181 -0.85937166214 -0.074560798705
0.61709928513 -0.78280079365 0.07698276639
0.69157546759 0.27715134621 0.66699886322
0.7302082777 0.18084546924 0.6588049531
0.75219798088 0.2818390727 0.59507417679
0.66227823496 0.1937058121 0.72350877523
-0.19962094724 0.89159703255 0.4064000845
-0.25600159168 0.80999749899 0.52690851688
-0.084650322795 0.88197267056 0.46358162165
-0.31738567352 0.86808204651 0.38171133399
-0.44254848361 0.83630055189 0.32342383265
-0.37040868402 0.79964214563 0.47217983007
-0.56316268444 0.78176796436 0.26764950156
-0.47447872162 0.76901906729 0.42756789923
0.045416835696 0.756952703 0.65187227726
0.041695967317 0.83471530676 0.54905301332
-0.052281633019 0.77829134464 0.62566059828
0.72508400679 0.0044630542397 0.6886382103
0.79942023754 -0.042694475502 0.59925603867
0.77272230387 0.075807079673 0.63009130955
0.69247108698 0.101083152 0.7141764164
0.8572857976 0.066596761346 0.50954610109
0.79657429457 0.15903750062 0.5826280117
0.74075847864 -0.26049128175 0.61919075251
0.17390604317 0.76759272814 0.61667364836
0.17238490283 0.83982336521 0.51435250044
0.29557806253 0.77006834745 0.56529194117
0.28980496526 0.69023519754 0.66299790144
-0.88109374046 0.042759604752 0.47095558047
-0.92867219448 -0.070210203528 0.36416622996
-0.86296379566 -0.086690157652 0.496822685
-0.94821697474 -0.20103150606 0.24449521303
-0.88821238279 -0.21744257212 0.40301728249
-0.52120321989 0.84582102299 0.11367351562
-0.63184511662 -0.62448042631 0.45901474357
-0.74014347792 -0.51780962944 0.42899829149
-0.67642056942 -0.66706389189 0.3120470047
-0.18218237162 -0.18451952934 0.96579170227
-0.16319711506 -0.10843520612 0.98061144352
-0.23227749765 -0.13019742072 0.96388792992
-0.20530031621 -0.053734492511 0.97724127769
0.7318328023 -0.11806927621 0.67117005587
0.37932220101 0.70056688786 0.6042765975
0.34163442254 0.81742995977 0.46373924613
0.42290845513 0.74980944395 0.50872850418
0.60298973322 0.46780747175 0.64616400003
0.69699001312 0.38824871182 0.60285604
-0.66294020414 -0.50264829397 0.55363941193
0.24756518006 0.86126554012 -0.44376805425
0.029498901218 0.95124262571 -0.30664569139
0.24091669917 0.94525867701 -0.21889045835
0.0030772970058 0.82122910023 -0.57052731514
0.34126240015 -0.25736373663 0.90366333723
0.36693292856 -0.33782294393 0.86671608686
0.42425101995 -0.29191628098 0.85720926523
0.4428589046 -0.38574534655 0.80929279327
0.38803467155 -0.39044940472 0.83474159241
0.49461519718 -0.30853563547 0.81248760223
0.42811995745 -0.49802654982 0.75400167704
0.49926099181 -0.44015312195 0.74627453089
0.40622884035 -0.43678960204 0.80234259367
0.0064199641347 0.4893219173 0.87205183506
-0.018866855651 0.56221842766 0.82665205002
-0.069196119905 0.51410096884 0.85479938984
0.077791601419 0.44346567988 0.89289873838
0.091051027179 0.5123809576 0.85380768776
0.51352500916 0.44100096822 0.73605400324
0.5668156147 0.35055965185 0.74547189474
0.50032508373 0.34331727028 0.79487091303
0.53403443098 0.2481341362 0.8079739213
0.98415583372 -0.037572704256 -0.17280334234
0.99636858702 0.077153049409 0.03441497311
0.99303150177 -0.10286387056 0.057384341955
0.97740626335 -0.00058743654517 0.21125325561
0.96004712582 0.1778332293 0.21593035758
0.94588786364 -0.23657363653 0.22134017944
0.92369437218 0.11857832968 0.3643066287
0.93244814873 -0.049439929426 0.35676833987
0.85847914219 0.22407290339 0.46047776937
0.89107656479 0.30238309503 0.3380843699
0.44204503298 0.89407914877 -0.059883404523
0.57066392899 0.81592273712 0.09378991276
0.61655807495 0.78221440315 -0.088181145489
0.72562122345 0.68100148439 0.093416512012
0.49475079775 0.53830772638 0.68205451965
0.84298413992 -0.37375932932 0.38678711653
0.88578355312 -0.22565759718 0.40379542112
0.8182232976 -0.27293935418 0.50598597527
0.64023560286 0.35478723049 0.68129879236
0.61952352524 0.276709795 0.73461186886
0.79647731781 0.29561525583 -0.52745890617
0.6252771616 0.38754913211 -0.67721498013
0.67589521408 0.57279640436 -0.46340766549
0.42461839318 0.71456438303 -0.55572295189
0.4923736155 0.80075180531 -0.33921343088
-0.78417551517 -0.34949120879 -0.51284557581
-0.93626344204 -0.13438041508 -0.32448711991
-0.83950597048 -0.0090860528871 -0.54325979948
-0.9923927784 -0.01732008718 -0.12117800862
-0.78899276257 0.29437813163 -0.53895276785
0.80311489105 -0.33471366763 -0.492700845
0.64671552181 -0.57214009762 -0.50413483381
0.62839454412 -0.38850823045 -0.67285788059
0.31438723207 -0.67785298824 0.66458082199
0.39302006364 -0.5994309783 0.69728678465
0.2926209271 -0.60606342554 0.73873877525
-0.21224714816 0.6940677762 0.6879093051
-0.30737313628 0.69852215052 0.64596915245
-0.25748038292 0.62771725655 0.73462551832
-0.37854632735 0.61301290989 0.69351893663
-0.41034588218 0.69029802084 0.59560358524
-0.33609905839 0.5437733531 0.76895344257
-0.14055153728 0.66833388805 0.73041206598
-0.4407531321 0.49030292034 0.75185376406
-0.04374813661 -0.8094792366 0.58535039425
-0.034791402519 -0.74098610878 0.67058974504
0.25165435672 -0.9481998682 0.19385039806
0.2786886692 -0.95878171921 0.055386513472
0.092447958887 -0.99343538284 0.066381976008
-0.48529094458 0.028806118295 0.87387597561
-0.43453258276 0.11535976827 0.89324063063
-0.51104807854 0.1152369976 0.85176700354
-0.36657574773 0.17947803438 0.91287690401
-0.42938950658 0.20857955515 0.87870329618
-0.60047143698 -0.77255374193 0.20631740987
-0.5609164834 -0.8272638917 0.0051153763197
-0.72995859385 -0.66990447044 0.13539148867
-0.15193790197 -0.84273779392 0.51637589931
-0.56793028116 0.07149296999 0.81973111629
-0.55958241224 -0.00032536897925 0.82877731323
-0.62603199482 0.026419360191 0.77931803465
-0.57984560728 -0.72251647711 0.37635809183
0.79552340508 -0.16479986906 0.58304965496
0.73445463181 -0.36357942224 0.57286161184
-0.29318246245 0.1192105785 0.94858044386
-0.21738310158 0.12943926454 0.96737790108
-0.24982586503 0.19213905931 0.94900852442
-0.52399754524 -0.68431818485 0.50711065531
0.49098846316 -0.68629682064 0.53657907248
0.5643632412 -0.61807602644 0.54714274406
0.47185561061 -0.62316071987 0.62370234728
0.58406037092 -0.67350196838 0.45247122645
0.48249423504 -0.75482773781 0.44430649281
0.57854479551 -0.72624289989 0.36992576718
0.08917914331 -0.9806253314 -0.17277882993
-0.091030500829 -0.99551033974 0.003000327386
-0.62052190304 0.22165368497 0.75219231844
-0.57976555824 0.17321936786 0.79572492838
-0.54370641708 0.25164273381 0.80065584183
-0.22110652924 0.74759829044 0.6255299449
-0.34578517079 0.75366663933 0.55866998434
-0.76673448086 -0.57188439369 0.29142695665
0.67133939266 -0.57328152657 0.46957206726
0.20951399207 0.73163211346 -0.64842116833
0.48797547817 -0.53203040361 0.69196110964
0.40012815595 -0.68345093727 0.61052858829
0.85518223047 -0.11519101262 0.504324615
0.92453873158 0.16720114648 -0.3425347209
0.96136420965 0.24597640336 -0.12336634099
0.86849039793 0.38507729769 -0.31211778522
[...]
CELL_DATA 1850
SCALARS cell_data_0 double
LOOKUP_TABLE default
9.75276087027e-10
5.90911793048e-09
1.25296098341e-08
1.24512749094e-08
8.56671574492e-09
5.06254487736e-09
1.2513890673e-08
3.88038289402e-09
7.49860206723e-09
1.86560936226e-09
1.66124457592e-08
9.44856635812e-09
1.18189127687e-08
1.23294753166e-08
6.14805211033e-09
9.42233636251e-09
9.76516637185e-10
1.59205896816e-09
1.96268718386e-08
2.15121956525e-08
1.74477281713e-08
2.7992571712e-09
8.6803063373e-09
3.03118117218e-09
1.29364927975e-08
2.21490497085e-08
6.18725062081e-09
3.51759455135e-10
3.93820551154e-09
1.11615458148e-08
1.60552651372e-08
1.27801895193e-09
4.91047654351e-09
1.17999331664e-08
3.37007819009e-09
6.1316332156e-09
1.74676974097e-09
7.79571287013e-11
1.12071048607e-08
7.88339467341e-09
8.48291684486e-09
1.37750917179e-08
5.47245669802e-09
1.00269119138e-08
8.62556014637e-09
2.19778097868e-09
2.38728379294e-09
1.37408180168e-09
3.93721606542e-09
4.53394079772e-09
4.79065094161e-09
1.47474453044e-08
1.57239332286e-08
1.20010163282e-09
1.89150221675e-08
3.37814268419e-09
1.57449398499e-09
7.56896456495e-09
1.95030705455e-08
1.63433262459e-08
1.55202498174e-08
1.3918730156e-09
3.37803446838e-09
3.08212022153e-09
1.57473505492e-08
1.7544108916e-08
4.05328320465e-11
1.70075000889e-08
1.64011705588e-08
5.77717681242e-09
2.26116984959e-09
3.80155036527e-09
1.27809601929e-08
6.7361931842e-09
1.83120170576e-08
4.49838505306e-09
1.38526413254e-09
1.54792395193e-08
1.58284255543e-08
1.10474447956e-08
1.63780377742e-12
4.98648165257e-10
1.3960727214e-08
5.15224909428e-10
1.39544011581e-08
4.83857287709e-09
6.21260934072e-09
1.27200445044e-08
1.12905874011e-08
1.30206531961e-08
5.49304471995e-09
5.56517589987e-09
1.17956886938e-08
1.44464149578e-09
1.43439625018e-08
1.2738245737e-08
3.30121583067e-09
6.85013307506e-09
1.96353147685e-08
1.35437084535e-08
5.25867441495e-09
1.50997508102e-08
9.71374731646e-09
2.42269240642e-09
1.30397852658e-09
1.13741431003e-08
9.90087185797e-09
1.69888997032e-08
1.19473782042e-08
1.86449949818e-08
2.53445716605e-08
8.72502301492e-09
1.23319603337e-09
6.8841239925e-09
1.10525292152e-08
1.66549777445e-08
2.04203657441e-08
4.71952730457e-09
1.2584226227e-10
5.96549825421e-10
1.86523777574e-08
1.16072064286e-08
7.75011387933e-09
3.03409689698e-09
3.53483077762e-09
2.11973421851e-09
2.21297762619e-09
1.04570283162e-08
2.45540592478e-08
4.33184068286e-09
1.79326041653e-09
1.79657334905e-08
1.73941436474e-08
2.99451500732e-09
1.23642213127e-09
4.78948201615e-09
1.23494730807e-08
1.18112383835e-08
4.69123199472e-09
3.3715872016e-09
1.38754370241e-08
9.70599681218e-09
3.30057877291e-10
7.96182252255e-09
4.85561422047e-09
2.44618416606e-10
5.68607086383e-09
8.13864808337e-09
7.52637107503e-09
4.30501426011e-09
4.96550312183e-09
1.28210977603e-08
1.92155346378e-08
1.00911204229e-08
4.52556186883e-09
1.2591374457e-08
1.12030314815e-08
1.09223731519e-08
3.42380962278e-09
1.03648932563e-08
1.03713049612e-08
2.37743722993e-08
1.32777909484e-08
1.0974259373e-08
8.56194175026e-09
1.83971015433e-09
4.74061501946e-09
3.49510082679e-09
3.61807045028e-10
1.845395478e-09
6.05904806136e-09
3.08196074838e-09
7.47524972404e-09
2.0611731986e-09
7.86514845398e-09
1.94537288251e-08
2.25369400145e-09
1.4800871134e-08
9.3997121098e-09
5.01612686494e-11
4.92139427687e-09
9.45982623685e-09
1.5241334984e-09
8.79821490995e-10
2.02359824118e-08
6.35845036706e-09
2.46009401213e-09
3.77698585017e-09
1.05929623181e-08
2.19899799823e-08
2.4912167389e-09
5.84994184814e-09
2.62176525743e-09
1.06423389291e-08
4.27752937095e-09
5.78785685912e-09
7.21858022968e-10
5.0101569607e-09
1.14787554538e-08
8.14243164104e-09
1.70405472545e-08
8.75304184746e-09
5.69739128186e-09
1.25605055719e-08
2.2558131694e-09
1.32652010977e-08
1.50024353738e-08
1.74448114601e-08
4.61823339278e-09
1.48021336226e-08
7.82144813175e-10
1.06482556526e-08
1.00004695344e-08
4.44222333443e-09
8.31287783916e-09
9.10156762141e-09
4.28213331517e-09
1.47118447747e-09
1.3716054614e-08
1.37023761807e-08
1.46002144258e-09
6.49244227471e-09
2.67266424786e-09
9.59570232365e-09
5.44052479689e-09
1.03200506305e-08
1.04360891382e-08
8.95350599303e-09
4.79212380354e-09
4.41573885529e-09
5.10988845368e-09
7.17276289819e-11
9.42101770245e-09
2.32239121564e-09
1.51316528425e-08
5.06140482189e-09
1.07368305713e-08
8.7191988425e-09
8.18860371025e-09
9.61215183996e-10
4.10323297725e-09
3.35528503847e-09
3.34783878311e-09
2.13295911821e-09
6.0101801602e-09
5.62380799076e-09
7.72049679237e-09
1.09597844041e-08
8.58652303268e-09
3.08598753614e-10
4.55516589761e-09
8.12855501139e-09
2.65059781069e-09
8.72305614014e-09
9.57467290182e-09
6.30046930329e-09
1.17035500037e-08
4.53046671562e-10
9.13576019173e-09
1.44146942886e-09
1.08677054999e-10
1.89857200139e-09
1.29906395714e-08
1.39108322742e-09
5.19940710872e-09
9.94517395479e-11
3.17792216892e-09
8.37567717081e-09
6.47630000127e-09
5.18159806246e-09
2.4290157617e-09
9.51779250648e-09
1.0647643313e-08
1.02951434953e-08
2.27570873181e-09
1.29848207988e-08
5.87025795022e-09
1.43104205662e-08
6.19554134202e-09
5.25242995195e-10
2.58465396432e-09
2.52015584489e-09
2.47625893983e-09
2.38169970129e-09
4.11931390604e-09
8.93940827065e-09
5.28826561166e-09
9.81835716294e-10
1.04728498026e-08
6.22071119634e-10
1.288537905e-08
8.05058037751e-11
8.56107563401e-10
4.62723079082e-09
5.67226071448e-09
6.66375103952e-10
2.03419390759e-09
1.17426009922e-08
1.27599921328e-08
1.83708220884e-09
9.604329207e-11
8.45294034423e-10
9.04672367731e-09
4.70795331465e-10
2.85657017773e-09
7.67267813757e-10
5.49497377334e-09
5.29040843811e-09
4.47045963515e-09
2.7429351787e-10
1.00038588106e-08
3.38970116252e-09
2.40236859216e-09
5.72047702704e-09
1.0306044077e-08
3.52378391982e-09
3.45033933985e-09
2.32510713706e-09
9.90210698796e-09
4.02401790433e-09
7.50154669864e-09
3.91274378417e-11
7.44647373703e-09
1.58550093557e-09
1.59736362916e-08
8.40917500139e-09
2.28672086024e-08
5.20131715769e-09
8.6753263419e-09
4.38526313477e-09
9.09002127756e-09
1.33519917565e-09
1.13642993069e-08
2.51396166247e-09
1.29109343455e-08
1.60049481771e-08
5.08615823717e-10
3.74996473814e-09
2.60298103265e-09
9.15703067074e-09
6.19114842174e-09
4.39375602131e-09
1.72953176136e-09
9.86328819012e-09
8.59267006729e-09
4.16017767824e-09
1.26335631801e-08
1.37603800337e-08
6.79692754161e-09
4.24726697785e-09
5.17681893583e-09
5.79234447836e-09
1.08029137432e-09
7.40448895845e-09
8.10595804651e-09
1.31824292244e-08
6.63121654987e-09
5.25981660867e-09
4.91213653615e-09
4.28288507789e-09
6.78652830029e-09
5.30454832905e-09
3.7727477865e-09
8.92879524703e-09
9.43505902257e-09
1.44430289661e-08
1.26114201504e-08
8.44172995233e-10
1.96518235504e-10
4.09127835469e-09
8.28079757015e-09
3.34141974893e-09
3.21397695026e-09
9.97640968917e-10
2.13910929654e-08
2.9934312255e-09
6.82781837708e-09
4.34187990698e-09
2.30045359498e-09
8.23561771924e-09
4.41985010842e-09
3.55373065875e-09
5.17131927964e-10
3.42254859581e-09
1.16095332966e-08
4.82341107049e-09
1.23585234761e-08
1.00817446119e-09
8.52584778242e-10
1.24011348374e-08
4.20024025954e-09
4.3088790037e-09
3.9871754122e-09
8.23490732147e-09
5.59527915185e-09
2.74096903694e-09
1.47279418498e-09
1.69631274474e-09
9.6149831559e-10
4.67963784764e-09
1.51270772527e-08
1.45218447617e-09
1.49805795902e-09
3.63385844495e-09
1.50466703872e-09
6.78702616698e-09
7.13044417762e-09
1.76144614228e-08
7.09891684996e-09
1.32732314101e-08
7.61209148437e-10
4.48786462015e-09
1.07093156406e-08
1.25570075029e-08
1.67699252211e-08
1.52316843766e-09
6.16757909101e-10
3.49372808446e-09
4.16645424004e-09
1.20984106241e-08
1.08188526628e-09
1.10407165428e-08
6.98609935728e-10
1.00947662682e-09
8.87662384698e-10
4.9403249488e-09
1.4730560201e-08
1.20778745257e-08
6.65897921524e-10
1.20480637492e-08
1.27463877144e-09
1.05563925859e-08
2.72057240385e-09
1.14362877465e-08
1.92504859013e-08
1.18299059543e-08
8.59258581116e-09
8.04821660471e-10
9.31795376231e-09
4.80341347517e-09
5.6422555472e-09
5.0764312536e-09
9.34480297615e-09
7.8044996914e-10
1.2505238942e-09
1.70337761393e-10
2.86676050071e-09
8.03976879875e-09
2.68521694855e-09
4.57866385865e-09
1.07620797297e-08
1.11679309644e-09
5.31316494435e-09
7.06521829985e-09
8.32315691342e-09
9.05564159141e-09
3.97411411311e-09
2.95224166846e-09
1.32555308028e-09
8.3327396394e-09
6.79873586111e-09
7.43483954147e-09
3.39876460493e-09
1.72671849737e-09
4.29421115944e-09
4.20494988707e-09
7.01715956504e-09
4.02238227949e-09
2.17231365644e-10
9.63484055334e-09
1.06492399089e-08
1.66052510876e-09
8.16488372689e-09
5.51202406763e-09
5.12796816733e-09
1.2688887038e-08
1.03206719215e-08
1.57182280287e-08
4.04213062851e-09
5.03928033194e-09
1.42434796825e-09
1.05473639633e-08
1.86377756968e-08
7.10932697166e-10
6.88544564107e-09
1.01249859683e-08
4.70332841066e-09
5.54853097208e-09
2.95776848123e-09
5.0249948032e-09
1.51092166078e-09
2.82596661798e-09
1.16658943617e-09
2.46492509677e-09
6.72579910009e-09
3.58310609596e-09
8.85480037784e-11
4.45414292996e-09
8.29620066148e-09
4.34848434418e-10
6.19954402176e-09
7.89496850342e-09
1.61689753908e-09
4.4801868354e-09
8.42318904762e-09
8.08201634983e-09
1.45025218715e-08
1.51560912588e-08
1.13578936492e-09
7.94703360763e-09
3.66493123992e-09
4.41745941571e-09
3.19728339942e-09
1.50220760183e-08
1.13185754176e-09
9.08116346951e-09
4.3710803742e-09
2.0797644604e-09
6.94744094425e-09
1.6665206173e-09
1.54460974454e-09
4.6997715929e-09
2.56898366454e-10
2.84363454663e-09
1.10549921661e-08
2.22383217887e-09
8.96906992018e-09
2.01519727553e-09
4.04293615039e-09
7.86630768746e-10
1.26360276002e-08
9.85499125361e-09
5.37943566777e-09
3.42238537437e-09
1.65655910842e-08
2.83575504582e-09
4.77210971573e-09
6.28651442894e-10
1.98562721021e-09
1.75511451714e-08
7.28181661841e-10
1.32426991932e-08
1.33342102055e-08
1.40162064928e-08
4.45324472703e-09
3.11820057503e-11
6.12206551733e-09
1.28631199466e-08
6.08610274894e-09
2.76107615204e-09
6.90142972906e-09
1.19698010111e-08
2.96886923213e-09
8.95184511801e-09
9.49254480976e-09
9.06251744401e-09
3.72778725432e-09
6.67579397546e-09
1.21765686123e-08
8.48562843599e-09
8.60571085946e-09
8.2050040588e-09
6.78069893129e-09
1.13198545683e-08
9.92564028511e-10
1.49248707868e-09
1.01970316545e-08
4.84136976481e-09
9.05167205062e-10
3.1327627955e-09
2.99098599021e-10
4.33718774974e-09
2.69915330778e-10
9.31111598387e-09
3.29623163755e-09
2.40198574424e-09
3.89197149637e-09
1.25844975903e-08
1.27205067052e-08
1.18376233229e-08
1.07437517712e-08
6.80092157786e-09
2.69332169497e-09
2.93979444751e-09
1.22427407812e-08
1.04359459699e-08
1.4598567043e-09
6.75803425672e-09
1.2987106099e-08
1.10124026791e-08
2.9277957908e-09
1.07912096433e-08
6.07312478478e-09
1.14827330418e-08
3.23308008206e-09
7.90756555453e-09
6.57652799908e-09
4.82902158597e-09
1.32762723264e-09
4.74016064296e-09
1.71539302381e-09
1.41460021883e-08
1.23504080374e-08
6.60629533437e-09
1.1454543422e-09
6.89882096575e-09
1.32656152562e-08
1.74203547645e-08
3.14493740287e-09
1.81818001751e-10
7.34824922102e-10
1.76330231737e-10
8.38551177477e-10
4.31087561017e-09
4.50279433393e-09
7.37109335631e-09
7.90533658576e-09
4.99207821569e-09
5.04441863475e-09
4.82991938524e-09
4.11810697344e-09
9.96205340039e-10
2.79682500678e-10
1.31641999856e-09
1.17004973398e-09
3.12315547407e-09
4.63568995934e-09
7.37159383128e-09
5.41185276228e-09
2.51999324628e-08
6.13346610371e-09
9.32167863877e-09
8.4515596987e-09
2.71809861623e-09
9.04921461278e-10
9.03762007818e-09
1.87563022303e-09
2.75635188049e-09
1.65905318943e-10
3.72368672697e-09
1.03385924291e-08
5.93332580186e-09
1.02229778831e-09
1.41091538094e-08
4.83159196105e-09
2.60382936644e-09
1.10625145651e-08
1.65267667508e-10
3.26666245107e-09
1.64365353847e-09
4.6975990596e-09
2.92524679773e-09
5.6029003304e-09
5.2379766538e-09
1.44197618934e-09
1.77578032779e-09
5.13674377372e-09
8.36755235225e-09
1.77634526953e-09
9.89137142047e-09
1.11015708138e-08
3.55400033803e-09
6.62972378142e-10
2.75067071357e-09
3.34325133584e-10
3.07516053595e-09
4.53476967125e-09
3.2867079407e-09
2.93302622124e-09
1.33799851985e-09
7.23215462368e-09
1.65953441027e-10
6.15182259799e-09
4.28925495194e-10
3.40043843991e-10
2.79136337889e-09
1.88174872675e-10
1.74867790076e-09
2.51883021516e-09
3.96542869052e-10
1.04739432242e-09
7.26602780576e-09
5.14419406923e-09
1.90694623628e-09
1.17623103128e-09
2.75964426092e-09
4.82319108398e-09
3.20161123441e-09
1.52748696886e-09
6.24320265945e-09
6.10018114962e-09
1.43696340749e-08
2.55616376672e-09
1.28203463378e-08
6.04800620958e-10
6.93581943137e-09
8.36641127503e-09
3.34243387201e-09
1.04529893837e-08
2.31226753297e-09
7.53812132754e-09
8.92403185877e-09
2.63506115558e-09
4.87402132056e-09
6.86979701096e-09
5.45415469263e-09
1.3762488014e-08
8.80326014094e-09
1.73660828025e-09
6.93218850682e-09
2.25694661204e-09
1.40203416404e-08
8.38461907865e-09
8.92200271065e-09
1.86194787929e-09
7.98886107241e-09
4.00002022279e-09
4.29087877346e-09
6.56122899705e-09
1.46926429725e-09
7.54918597149e-09
3.46164023815e-09
8.99950826599e-11
5.87585397427e-09
6.18767917604e-09
3.08181071542e-09
3.57619451899e-09
1.06890234478e-08
8.53184381697e-09
6.39970727448e-09
6.17736513763e-09
4.13371610818e-09
2.37457369628e-09
7.80373118451e-09
8.33177819512e-09
2.04450892682e-09
1.66056405626e-09
1.53755424523e-09
6.44057981127e-09
1.09761291555e-08
6.00737180148e-10
9.32715861763e-09
4.38029194209e-09
2.33025196432e-09
6.18669835069e-09
4.91587971931e-09
7.00984658781e-09
3.13319614162e-09
4.76510480597e-09
1.39822932369e-08
3.00079100806e-09
5.10677126426e-10
5.48365420871e-09
2.74654138954e-09
3.38719766262e-09
3.21664181741e-09
3.24372508191e-09
3.48279087112e-09
3.13614688465e-09
5.14038031333e-09
5.35165729158e-09
3.24271336583e-09
1.47428225195e-09
7.55090368591e-09
4.92876267623e-09
2.26179476013e-09
4.92785128313e-09
1.02096937901e-08
1.84217712683e-09
1.01709356547e-08
4.52188701541e-09
3.38187213457e-09
1.07451053452e-08
1.42207667847e-08
3.91122905639e-10
5.64376595274e-09
1.63105218539e-09
7.40937578877e-09
5.39504318819e-09
4.11983757861e-09
6.25726987831e-10
9.35384760646e-09
1.69127881643e-08
7.81340035421e-09
2.40415764566e-09
2.18682632677e-09
3.2654439942e-10
9.17737450941e-09
1.22641200019e-08
1.26456558608e-09
4.59119911191e-09
1.08738635562e-08
2.46619412067e-10
9.50886838988e-10
2.74117886077e-09
3.98621788758e-09
5.50270718671e-09
3.82003190038e-09
2.11900819548e-09
1.14820678807e-09
2.23846354152e-09
1.810717211e-11
4.78479009864e-09
1.66813898407e-09
3.05860576537e-09
1.67039192463e-08
3.10400035318e-09
4.87329840109e-09
3.29308898716e-10
9.97188773934e-09
2.08026806526e-09
1.42468454767e-09
1.75393568424e-09
3.47224047213e-09
7.99047147233e-09
2.95667039899e-09
9.92667059038e-09
2.66519805774e-09
8.38034870123e-09
9.3154954839e-10
9.63127227777e-09
3.55267110957e-09
3.27823746794e-09
7.27624084271e-10
6.71122625998e-09
3.48479006971e-09
6.62025218005e-11
5.53657714742e-09
1.49107225697e-09
5.19009863371e-09
4.11522722519e-09
1.07908012067e-08
6.82435921507e-09
2.65516549815e-09
7.27373925767e-09
4.29394480606e-09
7.64611090266e-09
1.23484744864e-09
1.35887464761e-09
2.47591024644e-11
1.49685172508e-09
3.3472983626e-09
3.99462310743e-09
1.01351951625e-09
4.35634801527e-10
2.23151665239e-10
3.1528981759e-09
3.93748421127e-09
8.57373562978e-10
4.50312737997e-09
3.02354072168e-09
3.6845764224e-09
1.9095643951e-09
2.13706991521e-09
3.53132728665e-09
5.25676614496e-09
1.69953139859e-09
1.69721856051e-09
1.98367479836e-09
8.8869619044e-10
6.5105509462e-10
3.52177591648e-09
6.76513247684e-11
4.44754706994e-10
5.40238737979e-09
4.3972290457e-09
7.57893686688e-09
9.97836474957e-11
6.77275409337e-09
2.39419357658e-09
3.17238147161e-09
5.39049350441e-10
2.28662955478e-09
1.02907103367e-09
1.060493189e-08
1.03093308789e-09
7.01016015776e-10
1.97790597074e-09
1.85498575589e-09
2.04743996548e-09
1.68018625358e-10
4.04570390736e-09
4.91157056186e-09
4.0023831543e-09
6.3537116122e-10
2.81005032539e-10
2.72961774417e-09
4.55365746106e-10
2.49154904325e-09
1.29200790158e-08
1.09180382832e-08
3.25149289835e-10
2.44959406872e-09
4.50756606946e-09
2.36016535769e-09
1.96487269971e-09
2.39184617384e-09
2.71264896705e-09
8.41191790276e-09
7.0157609939e-10
6.84769619114e-09
8.06346966863e-09
2.76604351059e-08
1.06676396749e-08
3.49202226381e-09
1.74873384513e-09
8.38329973938e-09
7.06951137975e-09
6.55899062746e-09
1.54413844823e-08
4.55720190276e-09
1.58309476191e-09
5.04208626253e-09
4.43242978456e-09
3.04716625628e-10
6.22249173429e-09
2.41142335208e-09
1.09067657219e-08
4.68542746031e-09
2.31566090591e-08
1.98673721336e-08
2.99892959462e-08
4.88770854975e-09
2.35624641568e-09
8.62298339509e-09
7.42600594088e-11
5.66842389584e-09
2.82231846133e-09
2.22748177241e-09
1.1347391841e-09
5.72840410457e-09
2.16357164085e-09
5.03253456984e-09
1.28793985656e-10
5.68287713603e-09
6.5909589892e-10
2.276081925e-09
2.05389306293e-09
2.34807592717e-09
5.77241946583e-10
2.03739040124e-09
1.64870686957e-09
2.95882747199e-09
1.58307620391e-09
3.14015955406e-09
6.00713597456e-09
7.13411760802e-09
1.12902134938e-08
6.2558570025e-09
3.63204109716e-09
1.08523055457e-08
4.59880922063e-09
2.03733137834e-09
6.44483943798e-09
1.51520131448e-09
4.1086758028e-09
4.91069645979e-09
4.61224711909e-09
7.17272032591e-10
8.16404317742e-09
9.03155068995e-10
7.62619415719e-09
2.88316991452e-09
8.13015720936e-09
2.2598633583e-09
5.46660476653e-09
1.15492028352e-09
1.48776796145e-09
3.71638045037e-09
4.97868512763e-09
4.02627459163e-09
9.76478844016e-09
8.35885094478e-09
4.49071405788e-09
1.79518254186e-09
1.32569293951e-08
4.709531082e-09
3.44290504382e-09
2.81523564539e-09
2.17046334758e-09
3.3246481013e-09
9.55778431323e-10
8.98928291803e-10
4.91655374015e-09
3.14537294829e-09
5.65461024094e-10
1.7846050209e-09
7.26261039212e-09
3.06587269768e-09
3.61713073636e-09
4.44232634655e-09
1.33903193101e-08
1.13959689961e-08
8.95906541443e-09
3.52554260242e-09
1.1300637117e-08
2.16170454405e-09
5.47314212306e-09
1.31169039365e-09
3.70871086635e-09
5.80905335672e-09
4.40759347231e-09
5.17548451026e-09
1.79610582643e-09
1.86531983623e-09
2.17150112313e-09
1.86544032419e-09
1.02718508808e-09
2.45059829618e-09
2.96289833898e-10
5.01661890407e-09
5.10580769264e-10
3.80873841719e-09
5.99864628987e-09
3.1653592447e-09
6.44727177825e-09
1.12142266972e-08
1.04033749016e-08
4.64323948438e-09
4.69868264438e-09
6.82405784985e-09
3.69359704463e-10
9.24762050877e-09
1.1256596947e-08
3.41696506312e-11
9.22103747836e-09
4.33463407157e-09
1.15912498449e-09
2.22441691742e-09
4.56088105954e-09
5.27285463094e-09
7.09530574407e-09
6.86073325519e-09
8.45400493201e-09
3.54498543371e-09
1.63401235001e-08
1.40216344787e-08
3.52477183115e-09
6.39470444766e-09
9.81950362561e-12
2.79152300534e-09
6.69845674976e-09
6.77404355532e-09
1.2940674515e-08
7.60569038972e-10
4.0886022553e-09
8.94088939172e-09
9.44767360431e-09
7.57372899769e-09
1.77502808264e-09
4.00145161928e-09
1.8245377574e-09
1.64745976605e-09
3.07974188297e-09
3.46327923981e-09
5.6096902143e-09
2.86339725985e-09
7.83713728038e-09
2.86117825293e-10
3.56362933545e-09
3.57251523547e-09
1.63001498376e-09
1.34156946456e-08
3.52127075678e-09
1.3807687365e-09
1.89071445465e-09
5.80147335253e-09
2.12774699682e-09
6.83514979206e-09
5.01360509206e-09
1.21559535218e-09
1.103169542e-08
4.20470897459e-09
2.65738999189e-10
6.87619679207e-09
1.06133890287e-08
1.38748819021e-08
5.42546057342e-09
2.46971203106e-09
7.62611111304e-10
5.62137123377e-09
5.33187451419e-09
1.91322796838e-08
1.60590150248e-10
2.05870535969e-10
3.63164305725e-09
1.8260180498e-09
4.48420727002e-10
6.8739268379e-11
2.67893328822e-10
2.17230232829e-09
1.45127079752e-09
2.0088391027e-09
1.07438373203e-09
5.58599093478e-09
1.42395241415e-09
6.48933367882e-09
2.48522226304e-10
7.62185990248e-09
2.5389211247e-09
2.15919712753e-10
3.06395255058e-09
5.83588571187e-09
2.73955771048e-09
2.50857714275e-09
1.14858110475e-09
3.11549055079e-09
3.67580453962e-10
5.71095147985e-10
4.08669495197e-09
2.31501955679e-09
5.72728600514e-09
1.63675940587e-10