# vtk DataFile Version 3.0
File Name: Molecule/sphere_excent/sphere_excent_0-s11.vtk
ASCII
DATASET UNSTRUCTURED_GRID
FIELD FieldData 1
TIME 1 1 double
0.0
POINTS 107 double
0.85040950775 -0.52610319853 0.0012291255407
0.80880320072 -0.30918779969 -0.50012242794
0.99806147814 -0.0013411369873 -0.038403544575
0.80835831165 0.30918672681 -0.50086784363
0.52569591999 -1.312724271e-05 -0.85067266226
0.85099852085 0.52537047863 -0.005537849851
0.49975118041 0.80913072824 -0.30902084708
0.30894884467 0.49994537234 -0.80894929171
-3.1262992707e-05 0.850666821 -0.5257037878
0.51786655188 0.79663199186 0.30324739218
-0.010975137353 0.99867260456 -0.0081751672551
-0.50042885542 0.80792200565 -0.31154283881
-0.52880352736 0.81202304363 0.24585548043
-0.85083597898 0.52563327551 -0.01120028086
0.30891022086 -0.49987849593 -0.80900627375
-4.4740991143e-06 1.1483197113e-06 -0.99989128113
-0.30899599195 -0.49994012713 -0.80893582106
-0.00011442289542 -0.85049188137 -0.52599841356
-0.52571767569 -1.4915687643e-05 -0.85065960884
0.83803486824 0.32294046879 0.43730121851
-0.80896645784 -0.30901148915 -0.4998216331
-0.80873572826 0.30848550797 -0.50062477589
-0.99841600657 0.013634366915 -0.0069426055998
-0.30893975496 0.49987837672 -0.80899518728
-0.83909833431 -0.53979188204 -0.016282595694
-0.49917560816 -0.80936735868 -0.30951544642
-0.50689345598 -0.8025957942 0.30716747046
0.0075009176508 -0.99820905924 -0.021688917652
-0.84891819954 0.33398684859 0.40663662553
0.49946194887 -0.80789124966 -0.3130646348
0.4743527472 -0.84760290384 0.23654188216
-0.011026713997 -0.025965936482 0.99928343296
0.10512772948 -0.25087711215 0.9620013833
0.26717537642 -0.041466273367 0.96244239807
-0.32315012813 0.51981902122 0.79068768024
-0.1693290621 0.30541363358 0.93615305424
-0.06088360399 0.51890945435 0.85146647692
-0.53507143259 0.018468528986 0.84448379278
-0.45235341787 -0.20178483427 0.86824411154
-0.29296815395 -0.0001945309341 0.95585465431
-0.1874679476 -0.22707185149 0.95559895039
-0.58127188683 0.44800314307 0.67848736048
-0.46353670955 0.27065309882 0.84223490953
-0.69983142614 0.17168261111 0.6932002902
-0.70775526762 -0.10671221465 0.6982062459
-0.86715394258 0.0020594843663 0.49779847264
-0.81514257193 -0.35794970393 0.4535677731
0.28440243006 -0.58682549 0.75809985399
0.41364374757 -0.71791255474 0.55885511637
0.57601982355 -0.48611912131 0.65704655647
0.68926328421 -0.59613120556 0.4120028913
0.83091580868 -0.28428569436 0.47770345211
0.025059089065 -0.86043822765 0.5055359602
0.034865804017 -0.72286450863 0.68773317337
0.33468353748 0.59371352196 0.72957545519
0.60453867912 0.44750872254 0.65869754553
0.70045465231 0.18590317667 0.68883705139
0.4942073226 0.26193222404 0.82852244377
0.56469023228 0.057632934302 0.82315939665
-0.24704377353 0.8684014082 0.42970067263
0.048482704908 0.84234523773 0.533847332
-0.17015822232 0.71641677618 0.67636919022
-0.40763008595 0.70431387424 0.58098447323
-0.29311388731 -0.57917433977 0.75822025537
-0.5733075738 -0.49526101351 0.65175223351
0.12075758725 0.5849044919 0.8007748723
-0.38210710883 -0.39285883307 0.83632028103
-0.083893992007 -0.42454701662 0.90124881268
-0.62630319595 -0.30598762631 0.71687269211
0.18782266974 -0.43508681655 0.88030451536
0.030400780961 -0.576187253 0.81604260206
0.30703401566 -0.25781047344 0.91608065367
0.4980456531 -0.11576023698 0.85913318396
0.37128257751 -0.42016333342 0.82795667648
0.47717905045 -0.28305229545 0.83160442114
0.3914167881 0.11936650425 0.91210997105
0.71831166744 -0.095889315009 0.68885475397
0.64536690712 -0.27943173051 0.71089679003
0.87539035082 0.018320275471 0.48307722807
0.14866580069 0.27224996686 0.95052802563
0.2327992022 0.14069543779 0.96222341061
0.31667974591 0.27781441808 0.90684992075
0.083614043891 0.41603460908 0.90539902449
-0.0075147286989 0.28162813187 0.95943057537
0.24049371481 0.42634177208 0.87169033289
0.069589242339 0.13529396057 0.98829162121
0.40185603499 0.41562232375 0.81584823132
-0.72158366442 0.59298068285 0.35620120168
0.95888793468 -0.14160946012 0.24614387751
0.95995175838 0.15740215778 0.23176558316
-0.14245447516 -0.74206358194 0.65449035168
-0.25061044097 -0.87165671587 0.42130616307
-0.090811446309 0.14046655595 0.98589992523
-0.7230361104 0.41781905293 0.55019950867
-0.59231197834 0.63718402386 0.49311295152
-0.12541110814 -0.60037326813 0.78930294514
0.26658001542 0.95060056448 0.15813951194
0.28337472677 0.85936397314 0.42623236775
0.033978499472 0.95961993933 0.2784024775
-0.96042281389 -0.2784999907 -0.0040165632963
-0.26373904943 -0.95190531015 0.15549957752
0.0040349266492 -0.96556323767 0.26005658507
-0.86142426729 -0.45621368289 0.22407448292
-0.95269405842 -0.19322124124 0.2340401113
-0.37863236666 0.14093998075 0.91474848986
-0.31790748239 0.28116175532 0.90538698435
-0.24239322543 0.15872624516 0.95704323053

CELLS 210 840
3 0 1 2
3 1 3 2
3 1 4 3
3 2 3 5
3 5 3 6
3 3 7 6
3 3 4 7
3 6 7 8
3 5 6 9
3 6 8 10
3 10 11 12
3 10 8 11
3 12 11 13
3 4 14 15
3 14 16 15
3 14 17 16
3 15 16 18
3 5 9 19
3 18 20 21
3 20 22 21
3 21 22 13
3 8 23 11
3 23 21 11
3 23 18 21
3 11 21 13
3 24 25 26
3 25 17 27
3 28 13 22
3 18 16 20
3 16 25 20
3 16 17 25
3 20 25 24
3 17 29 27
3 29 30 27
3 29 0 30
3 4 1 14
3 1 29 14
3 1 0 29
3 14 29 17
3 4 15 7
3 15 23 7
3 15 18 23
3 7 23 8
3 31 32 33
3 34 35 36
3 37 38 39
3 38 40 39
3 39 40 31
3 31 40 32
3 34 41 42
3 41 43 42
3 42 43 37
3 37 43 44
3 43 45 44
3 43 28 45
3 44 45 46
3 22 45 28
3 37 44 38
3 47 48 49
3 48 50 49
3 48 30 50
3 49 50 51
3 30 48 52
3 52 48 53
3 51 50 0
3 50 30 0
3 54 55 9
3 9 55 19
3 19 55 56
3 55 57 56
3 56 57 58
3 12 59 10
3 60 59 61
3 59 62 61
3 59 12 62
3 61 62 34
3 63 64 26
3 26 64 46
3 60 61 65
3 36 61 34
3 38 66 40
3 40 66 67
3 63 66 64
3 66 68 64
3 66 38 68
3 64 68 46
3 34 62 41
3 46 68 44
3 44 68 38
3 47 69 70
3 69 67 70
3 69 32 67
3 32 71 33
3 33 71 72
3 32 69 71
3 69 73 71
3 69 47 73
3 71 73 74
3 74 72 71
3 33 72 75
3 58 72 76
3 72 77 76
3 72 74 77
3 76 77 51
3 63 67 66
3 40 67 32
3 58 76 56
3 19 56 78
3 74 73 49
3 49 73 47
3 51 77 49
3 49 77 74
3 79 80 81
3 80 75 81
3 80 33 75
3 81 75 57
3 36 65 61
3 60 65 54
3 82 36 83
3 36 82 65
3 82 84 65
3 82 79 84
3 65 84 54
3 31 33 85
3 54 86 55
3 55 86 57
3 57 75 58
3 58 75 72
3 79 81 84
3 81 86 84
3 81 57 86
3 84 86 54
3 28 87 13
3 13 87 12
3 2 88 0
3 0 88 51
3 2 89 88
3 89 78 88
3 89 19 78
3 88 78 51
3 19 89 5
3 5 89 2
3 90 63 91
3 35 92 83
3 92 85 83
3 92 31 85
3 83 85 79
3 31 92 39
3 28 93 87
3 93 94 87
3 93 41 94
3 87 94 12
3 41 93 43
3 93 28 43
3 51 78 76
3 76 78 56
3 12 94 62
3 62 94 41
3 70 53 47
3 47 53 48
3 52 53 90
3 53 95 90
3 53 70 95
3 90 95 63
3 63 95 67
3 67 95 70
3 35 83 36
3 82 83 79
3 79 85 80
3 80 85 33
3 10 96 6
3 6 96 9
3 9 96 97
3 96 98 97
3 96 10 98
3 97 98 60
3 9 97 54
3 97 60 54
3 24 99 20
3 20 99 22
3 27 100 25
3 25 100 26
3 26 100 91
3 100 101 91
3 100 27 101
3 91 101 52
3 46 102 26
3 26 102 24
3 46 103 102
3 103 99 102
3 103 22 99
3 102 99 24
3 52 101 30
3 30 101 27
3 39 104 37
3 37 104 42
3 22 103 45
3 45 103 46
3 42 105 34
3 34 105 35
3 35 105 106
3 105 104 106
3 105 42 104
3 106 104 39
3 60 98 59
3 59 98 10
3 26 91 63
3 90 91 52
3 35 106 92
3 92 106 39

CELL_TYPES 210
5
5
5
5
5
5
5
5
5
5
5
5
5
5
5
5
5
5
5
5
5
5
5
5
5
5
5
5
5
5
5
5
5
5
5
5
5
5
5
5
5
5
5
5
5
5
5
5
5
5
5
5
5
5
5
5
5
5
5
5
5
5
5
5
5
5
5
5
5
5
5
5
5
5
5
5
5
5
5
5
5
5
5
5
5
5
5
5
5
5
5
5
5
5
5
5
5
5
5
5
5
5
5
5
5
5
5
5
5
5
5
5
5
5
5
5
5
5
5
5
5
5
5
5
5
5
5
5
5
5
5
5
5
5
5
5
5
5
5
5
5
5
5
5
5
5
5
5
5
5
5
5
5
5
5
5
5
5
5
5
5
5
5
5
5
5
5
5
5
5
5
5
5
5
5
5
5
5
5
5
5
5
5
5
5
5
5
5
5
5
5
5
5
5
5
5
5
5
5
5
5
5
5
5
5
5
5
5
5
5

CELL_DATA 210
SCALARS cell_data_0 double
LOOKUP_TABLE default
1.60328503688e-07
1.92344144224e-07
1.29828570152e-08
1.64038298468e-07
3.06976053596e-07
2.17832098338e-07
1.10206470853e-07
1.60895193186e-07
7.83946895742e-07
3.52682379837e-07
8.92955879804e-07
4.27319695615e-07
5.15219637374e-07
1.74392909522e-08
5.50272184936e-08
1.97521320732e-08
2.48188291646e-08
8.89153228892e-07
1.83035672988e-07
3.29998009812e-07
4.48404438951e-07
6.43061195912e-08
2.05852818569e-08
5.20334813836e-09
1.42814737903e-07
9.69612058774e-07
2.97091518987e-07
8.75901933541e-07
4.32467160115e-08
3.87417424333e-08
1.08431140427e-07
1.24027833107e-07
1.86313860635e-07
1.79659205331e-07
3.6976499734e-07
4.84249891462e-08
2.09964492664e-07
1.2851194403e-07
8.48543822519e-08
1.66608949662e-08
3.11516282291e-08
2.62235268046e-08
2.03608592708e-08
3.05551542187e-08
1.6341537503e-07
8.68011908229e-08
8.23380065461e-07
7.08987214177e-07
1.85379731798e-07
6.62371854859e-07
3.47371809736e-07
5.29297210965e-07
8.64164315349e-07
1.02252623222e-07
5.44364737687e-07
4.94166452018e-07
4.88461160757e-07
7.45718863565e-07
5.0019707694e-07
3.11692844241e-07
5.75305904532e-07
4.09829567919e-07
4.79245911783e-07
1.67214418266e-07
6.87462444516e-09
6.42031010424e-08
4.75496324044e-07
2.79070371045e-07
7.23858211468e-07
2.28340358205e-07
3.20429146987e-07
8.28957546254e-07
1.18677835171e-07
2.22159512751e-07
1.17992537826e-07
4.03544532076e-07
4.71678623039e-07
2.0057377707e-08
5.19488645434e-07
5.94666593395e-07
5.7587226962e-07
9.95176095008e-08
3.80505725267e-07
6.32957662346e-07
6.81329105536e-07
5.42824724351e-08
3.19581862888e-07
4.36408047138e-07
2.51513004878e-07
6.85113044685e-08
2.86032534389e-07
2.51254527823e-07
2.16161172707e-09
4.49194973407e-07
5.69212464479e-07
2.82480907992e-07
3.68653540271e-07
2.27216799274e-07
2.42013850842e-07
2.38112227781e-07
5.14579100314e-07
7.74536544579e-07
1.04327773293e-07
1.18953205328e-08
2.24542541336e-07
2.81325440609e-07
3.81494619639e-07
1.77666527334e-07
3.02939132221e-07
6.91497712288e-08
1.54545198779e-07
9.42368144861e-08
1.73213013505e-07
1.47223708512e-07
1.00464893832e-08
1.76716164511e-07
2.6203143648e-07
2.48782642321e-07
4.63542779449e-07
1.00029838879e-07
4.11180332374e-08
3.01330891752e-07
1.87598498939e-07
7.02827542011e-07
2.39718010022e-07
3.59135820631e-07
2.48102975271e-07
2.93373973101e-07
5.90319747775e-08
3.51880227157e-08
1.84524763306e-07
1.15994464792e-07
6.32666409247e-08
1.33510957649e-07
3.11475407809e-08
3.05904678401e-08
1.72998847649e-07
1.30646208397e-07
3.24784733767e-07
2.96247353808e-07
5.56751669617e-07
1.26922933813e-07
1.58104904412e-06
8.86070361154e-09
1.56172666044e-07
4.32021384463e-07
1.16775223583e-07
6.98116509573e-07
2.45232064175e-08
3.59642149744e-08
1.58184277042e-07
5.68846107581e-08
1.7764172996e-08
2.98895966822e-07
1.627092197e-07
3.77282215703e-07
1.4234212186e-07
1.32132854527e-07
1.23052368877e-07
1.16540330428e-07
2.60215219647e-07
1.91636423113e-07
9.07225528688e-08
1.81543236968e-07
2.94068980979e-07
3.93187148387e-07
9.81163776633e-07
6.41803758826e-08
2.65904004023e-08
4.1759503474e-09
2.44144453738e-07
2.97542962485e-07
2.44181592825e-07
1.01427518655e-07
1.77606290125e-07
6.24439446488e-08
2.47410376427e-07
1.96529728323e-07
1.2975178605e-08
8.82984340853e-08
2.38467837716e-07
2.86238498665e-07
3.41912863208e-07
8.1233530994e-08
1.47572570014e-07
1.35033222993e-07
1.29120869336e-07
1.78196189165e-07
3.53318522713e-07
1.23300767981e-07
1.9429045179e-07
1.64420311716e-07
3.70526155164e-07
8.06863844615e-09
3.09244736147e-07
2.01267454053e-07
2.03846908908e-08
6.99345172407e-08
4.01460110569e-07
4.51879812103e-07
4.94617441698e-08
1.34403024082e-07
7.26688607201e-09
5.35365710018e-09
1.2721816469e-07
2.96896678345e-07
8.18533376678e-07
2.49434837459e-07
1.70777699785e-07
2.03957267274e-07

