# vtk DataFile Version 3.0
File Name: Molecule/sphere_excent/sphere_excent_0-s12.vtk
ASCII
DATASET UNSTRUCTURED_GRID
FIELD FieldData 1
TIME 1 1 double
0.0
POINTS 125 double
0.85044759512 -0.52607220411 0.00093150261091
0.80848896503 -0.30940553546 -0.50054866076
0.99790525436 -0.0019447061932 -0.053376395255
0.80787980556 0.30942478776 -0.50156199932
0.52565103769 -1.9327790142e-05 -0.85070085526
0.85410618782 0.51705986261 -0.020638816059
0.4998036921 0.8091262579 -0.30876779556
0.30892336369 0.49995842576 -0.80895924568
-0.00030453930958 0.85067379475 -0.52572780848
-0.0078982319683 0.99957430363 -0.017224429175
0.3088594079 -0.49983847141 -0.8090544343
-8.6821155492e-06 1.760475925e-06 -0.99989241362
-0.30900499225 -0.49994686246 -0.80893933773
-1.9795690605e-05 -0.8501599431 -0.5265879631
-0.52570867538 -2.8873802876e-05 -0.85066568851
-0.80906629562 -0.30914011598 -0.49945122004
-0.80869674683 0.30845850706 -0.50075656176
-0.99870526791 0.010707447305 -0.018513213843
-0.30884313583 0.49966499209 -0.80922502279
-0.50469684601 0.79709655046 -0.32639309764
-0.84071016312 0.53733342886 -0.018867133185
-0.48918560147 -0.80981397629 -0.32061904669
0.015919234604 -0.99831825495 -0.037760056555
0.49951851368 -0.80730932951 -0.31455779076
0.47149389982 -0.85141664743 0.22878414392
-0.012967951596 -0.036321014166 0.99929827452
0.099682413042 -0.24921181798 0.96310919523
0.26185581088 -0.045255821198 0.96386373043
-0.53577232361 0.021033424884 0.84396994114
-0.45352336764 -0.1970063597 0.86885392666
-0.29102739692 -0.0083211688325 0.95665711164
-0.18888247013 -0.22605374455 0.95556008816
-0.32396733761 0.51819366217 0.79143464565
-0.57489013672 0.45016103983 0.68265807629
-0.47386428714 0.27451363206 0.83609223366
-0.70144194365 0.17422910035 0.69094389677
-0.70925307274 -0.10414050519 0.69717818499
-0.86986654997 0.0022677134257 0.49326819181
-0.85120856762 0.32578539848 0.41004800797
-0.81226396561 -0.36417475343 0.45331954956
0.28414732218 -0.58938485384 0.75620615482
0.40948194265 -0.72061043978 0.55853962898
0.5747423768 -0.48972687125 0.65551972389
0.68900978565 -0.59827923775 0.40928417444
0.82928949594 -0.28970244527 0.47741046548
0.036963496357 -0.85969907045 0.50774741173
0.046122167259 -0.71930515766 0.69214677811
0.33782547712 0.60824668407 0.71665692329
0.60564136505 0.45117363334 0.65521246195
0.51546937227 0.78896439075 0.32275426388
0.83628284931 0.32118979096 0.44345447421
0.70437479019 0.18582309783 0.68487662077
0.50142168999 0.25985467434 0.82489055395
0.56860721111 0.060955364257 0.82027095556
0.047075476497 0.83767968416 0.54263806343
-0.24496825039 0.87019819021 0.42758342624
-0.16839890182 0.71583217382 0.67755538225
-0.40540063381 0.70484554768 0.58195072412
-0.52975970507 0.80995845795 0.25023809075
-0.30073088408 -0.5747063756 0.76119792461
-0.56679296494 -0.50689291954 0.64743828773
-0.29655632377 -0.74132663012 0.60025262833
-0.51538860798 -0.79291605949 0.31632742286
0.11287270486 0.5943723321 0.7954428196
-0.067844003439 0.52892100811 0.84555953741
-0.38225394487 -0.39098370075 0.83716577291
-0.086850009859 -0.42502504587 0.90079593658
-0.62360709906 -0.30804044008 0.7182905674
0.18424443901 -0.43480375409 0.88130432367
0.038007304072 -0.5728006959 0.81853210926
0.30775147676 -0.25767290592 0.91590183973
0.49781307578 -0.11452844739 0.85948377848
0.37084916234 -0.42217317224 0.82713240385
0.48086497188 -0.28737026453 0.82809996605
0.39571556449 0.11444232613 0.91096258163
0.72082769871 -0.089466400445 0.68723005056
0.64583003521 -0.27880996466 0.7107399106
0.87558317184 0.019196581095 0.48268851638
0.1511221379 0.27470621467 0.94944822788
0.23630352318 0.14281618595 0.96108150482
0.31999444962 0.27802926302 0.90560942888
0.084039710462 0.42043602467 0.90328609943
0.23987339437 0.43100336194 0.86953508854
0.07215102762 0.13221615553 0.98853611946
0.40475222468 0.41717660427 0.81346768141
-0.7260068059 0.59035396576 0.35130929947
0.95932281017 -0.14203453064 0.24422670901
0.96007525921 0.15813347697 0.23060780764
-0.091288611293 0.13852025568 0.98612391949
0.0036580339074 0.27742299438 0.96044671535
-0.72088140249 0.42338106036 0.54876327515
-0.59510338306 0.63339442015 0.49454349279
-0.12827764452 -0.74173945189 0.6561524272
-0.12051544338 -0.60443037748 0.78716439009
0.27820277214 0.94668209553 0.15188841522
0.70278549194 0.69424432516 0.14658634365
0.2796100378 0.86050575972 0.42589470744
0.029831429943 0.95965415239 0.27929919958
-0.8425103426 -0.53758978844 -0.019279673696
-0.95927327871 -0.28172388673 -0.0057745175436
-0.26494190097 -0.95205795765 0.15153770149
-0.24784760177 -0.87610793114 0.41340667009
0.0042579746805 -0.96576619148 0.25933158398
-0.70410716534 -0.6945797801 0.14745046198
-0.95326852798 -0.18723255396 0.2362215668
-0.86632162333 -0.45066398382 0.21522134542
-0.38060241938 0.14120462537 0.9138995409
-0.96100360155 0.17350336909 0.21254684031
-0.31405353546 0.29225835204 0.9025042057
-0.13697277009 0.41318157315 0.89848285913
-0.17821000516 0.28942623734 0.93979382515
-0.24556142092 0.16176761687 0.95580101013
-0.28206387162 0.95095390081 0.12611266971
-0.26967635751 0.94802761078 -0.16894173622
-0.53408324718 0.84477096796 -0.034018632025
0.8669385314 0.44257768989 0.22837220132
0.71556138992 0.58246743679 0.38582104445
-0.95860385895 0.28363466263 -0.011329771951
-0.69534027576 -0.69888079166 -0.16694886982
-0.53394532204 -0.84512943029 0.0027035353705
-0.87768566608 0.43471568823 0.2013977021
-0.036322645843 0.40043097734 0.91555035114
-0.19069848955 -0.81492519379 0.54648339748
-0.21805810928 -0.66781169176 0.71153390408
-0.086595617235 0.29915928841 0.95035195351

CELLS 246 984
3 0 1 2
3 1 3 2
3 1 4 3
3 2 3 5
3 5 3 6
3 3 7 6
3 3 4 7
3 6 7 8
3 6 8 9
3 4 10 11
3 10 12 11
3 10 13 12
3 11 12 14
3 14 15 16
3 15 17 16
3 8 18 19
3 18 16 19
3 18 14 16
3 19 16 20
3 21 13 22
3 14 12 15
3 12 21 15
3 12 13 21
3 13 23 22
3 23 24 22
3 23 0 24
3 4 1 10
3 1 23 10
3 1 0 23
3 10 23 13
3 4 11 7
3 11 18 7
3 11 14 18
3 7 18 8
3 25 26 27
3 28 29 30
3 29 31 30
3 30 31 25
3 25 31 26
3 32 33 34
3 33 35 34
3 34 35 28
3 28 35 36
3 35 37 36
3 35 38 37
3 36 37 39
3 28 36 29
3 40 41 42
3 41 43 42
3 41 24 43
3 42 43 44
3 24 41 45
3 45 41 46
3 44 43 0
3 43 24 0
3 47 48 49
3 50 48 51
3 48 52 51
3 51 52 53
3 54 55 56
3 55 57 56
3 55 58 57
3 56 57 32
3 59 60 61
3 62 60 39
3 54 56 63
3 64 56 32
3 29 65 31
3 31 65 66
3 59 65 60
3 65 67 60
3 65 29 67
3 60 67 39
3 32 57 33
3 39 67 36
3 36 67 29
3 40 68 69
3 68 66 69
3 68 26 66
3 26 70 27
3 27 70 71
3 26 68 70
3 68 72 70
3 68 40 72
3 70 72 73
3 73 71 70
3 27 71 74
3 53 71 75
3 71 76 75
3 71 73 76
3 75 76 44
3 59 66 65
3 31 66 26
3 53 75 51
3 50 51 77
3 73 72 42
3 42 72 40
3 44 76 42
3 42 76 73
3 78 79 80
3 79 74 80
3 79 27 74
3 80 74 52
3 64 63 56
3 54 63 47
3 64 81 63
3 81 82 63
3 81 78 82
3 63 82 47
3 25 27 83
3 47 84 48
3 48 84 52
3 52 74 53
3 53 74 71
3 78 80 82
3 80 84 82
3 80 52 84
3 82 84 47
3 20 85 58
3 2 86 0
3 0 86 44
3 2 87 86
3 87 77 86
3 87 50 77
3 86 77 44
3 5 87 2
3 88 83 89
3 88 25 83
3 89 83 78
3 25 88 30
3 38 90 85
3 90 91 85
3 90 33 91
3 85 91 58
3 33 90 35
3 90 38 35
3 44 77 75
3 75 77 51
3 58 91 57
3 57 91 33
3 69 46 40
3 40 46 41
3 45 46 92
3 46 93 92
3 46 69 93
3 59 93 66
3 66 93 69
3 81 89 78
3 78 83 79
3 79 83 27
3 9 94 6
3 6 94 95
3 49 94 96
3 94 97 96
3 94 9 97
3 96 97 54
3 49 96 47
3 96 54 47
3 98 99 15
3 15 99 17
3 22 100 21
3 62 100 101
3 100 102 101
3 100 22 102
3 101 102 45
3 62 39 103
3 39 104 105
3 104 99 105
3 104 17 99
3 105 99 98
3 45 102 24
3 24 102 22
3 30 106 28
3 28 106 34
3 17 104 107
3 37 104 39
3 34 108 32
3 32 108 109
3 110 108 111
3 108 106 111
3 108 34 106
3 111 106 30
3 54 97 55
3 55 97 112
3 110 111 88
3 88 111 30
3 49 95 94
3 6 95 5
3 9 113 112
3 113 114 112
3 113 19 114
3 112 114 58
3 19 113 8
3 8 113 9
3 58 114 20
3 114 19 20
3 5 95 115
3 95 116 115
3 95 49 116
3 115 116 50
3 17 117 16
3 16 117 20
3 98 118 103
3 118 119 103
3 118 21 119
3 103 119 62
3 38 120 107
3 120 117 107
3 120 20 117
3 107 117 17
3 21 118 15
3 15 118 98
3 110 109 108
3 32 109 64
3 38 107 37
3 37 107 104
3 50 116 48
3 48 116 49
3 9 112 97
3 55 112 58
3 64 121 81
3 81 121 89
3 20 120 85
3 85 120 38
3 5 115 87
3 87 115 50
3 122 92 61
3 123 61 92
3 123 59 61
3 122 61 101
3 89 124 88
3 88 124 110
3 59 123 93
3 93 123 92
3 110 124 109
3 124 121 109
3 124 89 121
3 109 121 64
3 62 119 100
3 100 119 21
3 98 103 105
3 105 103 39
3 101 61 62
3 62 61 60
3 92 122 45
3 122 101 45

CELL_TYPES 246
5
5
5
5
5
5
5
5
5
5
5
5
5
5
5
5
5
5
5
5
5
5
5
5
5
5
5
5
5
5
5
5
5
5
5
5
5
5
5
5
5
5
5
5
5
5
5
5
5
5
5
5
5
5
5
5
5
5
5
5
5
5
5
5
5
5
5
5
5
5
5
5
5
5
5
5
5
5
5
5
5
5
5
5
5
5
5
5
5
5
5
5
5
5
5
5
5
5
5
5
5
5
5
5
5
5
5
5
5
5
5
5
5
5
5
5
5
5
5
5
5
5
5
5
5
5
5
5
5
5
5
5
5
5
5
5
5
5
5
5
5
5
5
5
5
5
5
5
5
5
5
5
5
5
5
5
5
5
5
5
5
5
5
5
5
5
5
5
5
5
5
5
5
5
5
5
5
5
5
5
5
5
5
5
5
5
5
5
5
5
5
5
5
5
5
5
5
5
5
5
5
5
5
5
5
5
5
5
5
5
5
5
5
5
5
5
5
5
5
5
5
5
5
5
5
5
5
5
5
5
5
5
5
5
5
5
5
5
5
5
5
5
5
5
5
5

CELL_DATA 246
SCALARS cell_data_0 double
LOOKUP_TABLE default
1.05684815117e-07
1.65348959092e-07
2.19993532537e-09
1.65663372655e-07
1.93054709755e-07
2.22042421487e-07
1.08336975051e-07
1.83170406355e-07
3.49940259184e-07
2.65975608634e-08
5.10386595598e-08
1.11022712336e-08
2.37781321454e-08
1.85095065789e-07
3.47096251169e-07
1.22797264654e-07
6.917220092e-08
8.69815974965e-09
3.10662570751e-07
2.40931918159e-07
7.00240591478e-08
2.14201120913e-08
1.17563875276e-07
1.8218671743e-07
1.50234847099e-07
3.81261018965e-07
5.32846764678e-08
2.02688545337e-07
1.22158871215e-07
6.52418365745e-08
1.85270847462e-08
3.88004986715e-08
3.27273012181e-08
3.77481259908e-08
1.35273485377e-09
1.1796977618e-07
7.24406167555e-07
6.02678421709e-07
2.34302041135e-07
5.18168085532e-07
2.68077317238e-07
5.4169843832e-07
8.81065105366e-07
7.87681378107e-08
4.27575121623e-07
4.82374420446e-07
7.48479957681e-07
4.66708973119e-07
3.33641862325e-07
5.62612634507e-07
4.19454444525e-07
5.0054046069e-07
1.59830070079e-07
4.34247245828e-09
9.47545714655e-08
1.05214254535e-06
5.30194265212e-07
1.70570008341e-07
3.12768002547e-07
2.16857114259e-07
2.95670228621e-07
3.87487045866e-07
3.56250525263e-07
4.83560945214e-09
3.7373861391e-07
4.88109114242e-07
1.32397082618e-07
5.41247409499e-07
1.56938421756e-07
3.43191922605e-07
6.97470217956e-07
6.13580778321e-07
3.29043062279e-08
2.96054455564e-07
4.3231486537e-07
2.95447631752e-07
3.95595605485e-08
2.44856319319e-07
2.66007175331e-07
1.01416703011e-07
4.68830241127e-07
5.48763705353e-07
2.91737899719e-07
3.88450901032e-07
2.5329147665e-07
2.56236290729e-07
3.27971172817e-07
6.08212372728e-07
7.83348330679e-07
4.1003928383e-08
5.1134764366e-08
3.78323028335e-07
3.97348838944e-07
3.80096816545e-07
1.44854705121e-07
3.03452442987e-07
6.70233827254e-08
1.79885201651e-07
1.16012556937e-07
1.44260433865e-07
1.60821615673e-07
7.86621157452e-08
2.15964414715e-07
2.24258818005e-07
2.98083014266e-07
2.11949020782e-07
7.57747873508e-10
2.56398342221e-07
2.70148892083e-07
7.33851294229e-07
1.65389138075e-07
3.36662105043e-07
2.47382926477e-07
3.17616477478e-07
4.98586546086e-08
5.36625290588e-08
2.20291580173e-07
1.3427730025e-07
4.58796454402e-08
3.88143955735e-08
1.54771915116e-08
2.52794627899e-07
8.50074845258e-08
2.10601968872e-07
3.13219512013e-07
2.366043763e-07
1.733276226e-07
4.25189109645e-07
8.23178896684e-08
7.55600001522e-07
2.184585355e-08
3.60785845438e-08
1.34078239609e-07
5.38405323799e-08
4.82789090962e-08
3.55609141224e-07
1.65079611734e-07
2.78461628636e-07
1.63660384254e-07
1.23526998756e-07
1.24670574528e-07
9.99848475024e-08
2.82355422021e-07
1.92287896816e-07
1.76684106909e-07
2.97647406138e-07
4.43206367572e-07
3.45836199548e-08
3.60572477027e-08
1.38668111702e-09
2.87068283471e-07
3.04071412213e-07
1.90215859652e-07
8.18036143188e-09
7.86789425306e-08
6.70818379255e-08
1.66625395573e-07
2.58896815967e-07
4.12678348189e-08
1.19745985024e-07
4.36198347841e-07
1.10169049826e-08
2.4155896193e-08
1.83954179544e-07
1.95042368517e-07
3.21638770812e-07
2.78354467847e-07
4.77670422109e-08
1.31096138463e-07
1.6058970071e-08
3.80961272453e-07
2.17268841541e-08
2.7519378729e-07
2.01605521159e-07
7.31364026506e-08
1.2929168744e-08
4.87167037437e-07
4.79791623081e-07
6.84822306567e-08
1.37275741347e-07
4.46423559002e-08
1.65596980783e-08
1.1944924521e-07
3.35384148805e-08
1.7367933513e-07
2.1926671467e-07
4.08488680147e-08
1.53915672327e-07
3.33300765234e-09
3.58137374192e-08
7.28159593818e-08
2.13079067185e-08
5.28890937184e-08
7.75919430957e-08
1.06658045307e-07
2.37508061202e-08
1.44619831689e-07
8.17942163164e-08
3.14242866422e-07
1.17193456372e-07
4.93687777451e-08
1.77553514941e-07
1.21928672076e-08
4.5498799017e-08
1.15439715671e-07
3.65423216857e-08
1.15285777584e-07
8.03700046528e-08
6.98531760144e-08
1.36285157015e-07
5.45187463326e-08
2.21084709505e-08
1.33935995791e-07
3.31582088496e-08
9.38297374854e-08
1.62848033864e-07
4.54692552419e-07
1.11689979634e-06
3.09130558062e-08
2.01988156827e-07
4.05526516326e-09
7.30308554084e-08
1.07528564334e-07
7.33802100775e-08
2.3336437798e-08
3.73829501345e-08
2.99863599824e-08
2.12382765598e-08
2.65458310568e-08
4.09454924235e-08
8.77990290824e-08
6.65157489517e-08
1.49485659288e-07
1.7872423372e-08
8.32501183076e-08
1.61043407003e-08
4.96118228317e-08
5.59677974544e-08
1.31756372184e-07
1.05881419117e-07
7.48249748289e-08
1.29054436228e-07
3.23354797334e-08
8.82138027804e-07
2.03210599882e-08
8.0995977972e-08

