# vtk DataFile Version 3.0
File Name: Molecule/sphere_excent/sphere_excent_0-s9.vtk
ASCII
DATASET UNSTRUCTURED_GRID
FIELD FieldData 1
TIME 1 1 double
0.0
POINTS 83 double
0.85035377741 -0.5260938406 0.0011382965604
0.80895280838 -0.30903428793 -0.49989172816
1.0001111031 3.455006663e-05 -0.0025357892737
0.80886721611 0.30896091461 -0.50006061792
0.52572643757 -4.3376762733e-06 -0.85065364838
0.85062873363 0.52595597506 -0.0030264449306
0.49987465143 0.80895012617 -0.30907332897
0.30897375941 0.49994137883 -0.80893582106
-1.1924115825e-05 0.85065919161 -0.52571672201
0.50204229355 0.80912083387 0.30591458082
-0.00037863361649 0.99979954958 0.00098037580028
0.041780173779 0.84909284115 0.52449941635
-0.50015091896 0.80857473612 -0.30984795094
-0.52761715651 0.80220681429 0.27615618706
-0.85085976124 0.52563714981 -0.0064288442954
-0.83438938856 0.34687748551 0.42825379968
0.30895847082 -0.49992501736 -0.80895423889
-1.80651557e-06 -1.2745530853e-08 -0.99989163876
-0.30898892879 -0.49994334579 -0.8089287281
-3.9464779547e-05 -0.8505872488 -0.52583426237
-0.5257319212 -1.910171477e-06 -0.85065031052
0.83564293385 -0.27117699385 0.47819685936
0.84199541807 0.30217212439 0.44647422433
0.32988506556 0.56354135275 0.75406730175
-0.80894607306 -0.30895644426 -0.49994289875
-0.80884850025 0.30876803398 -0.50021189451
-1.0000126362 -0.00018733419711 -5.330570275e-05
-0.84997546673 -0.52708303928 -0.0024040124845
-0.30897331238 0.4999255836 -0.80894750357
-0.4998318851 -0.80894011259 -0.30917343497
-0.4986923635 -0.8113604188 0.3053535223
-0.001307183411 -0.999994874 -0.0021927426569
0.001849582186 -0.85726833344 0.51504522562
-0.81845879555 -0.35433164239 0.45315134525
-0.27982565761 -0.57172203064 0.76846444607
0.49960771203 -0.80848139524 -0.31093168259
0.48017761111 -0.83850210905 0.25504720211
-0.014073833823 0.0047755870037 0.99985069036
0.12075374275 -0.26017767191 0.95704764128
0.28195932508 -0.028318058699 0.95810037851
-0.32276132703 0.52401381731 0.78798115253
-0.16445869207 0.27738636732 0.94656980038
-0.026562644169 0.52813351154 0.84581184387
0.14258541167 0.26684015989 0.95212179422
-0.53397512436 0.014076031744 0.84534007311
-0.44931766391 -0.21524892747 0.86645048857
-0.29504370689 0.0084269866347 0.95531415939
-0.18499647081 -0.23270685971 0.95454120636
-0.44985660911 0.26563245058 0.85268211365
-0.59989589453 0.44280329347 0.66604709625
-0.69782322645 0.16820004582 0.69619721174
-0.70475560427 -0.11446342617 0.70018899441
-0.86183983088 0.0021672272123 0.5070463419
0.287088871 -0.57859569788 0.76281619072
0.42628490925 -0.71119272709 0.55916392803
0.57924258709 -0.47732809186 0.66076672077
0.68912506104 -0.59248775244 0.41751563549
0.71135705709 -0.11364327371 0.69238960743
0.60456824303 0.4409212172 0.66331875324
0.69188475609 0.18839144707 0.69672787189
0.47342428565 0.2702152133 0.83769917488
0.55649703741 0.04674391076 0.82928395271
-0.25221920013 0.86514019966 0.43337294459
-0.17601640522 0.71800661087 0.67302310467
-0.41399720311 0.70305788517 0.57809883356
-0.57536661625 -0.48176839948 0.65978991985
0.14641731977 0.56062179804 0.81166350842
-0.38276702166 -0.39583238959 0.83444499969
-0.077399410307 -0.4257799387 0.90126425028
-0.63228392601 -0.30382350087 0.71242666245
0.0076590757817 -0.58732289076 0.80881893635
0.19939677417 -0.43336084485 0.87846124172
0.30467233062 -0.26049107313 0.91599398851
0.49975284934 -0.1193773672 0.85749262571
0.37199667096 -0.41618528962 0.82964473963
0.46501946449 -0.27244013548 0.84141087532
0.3813560307 0.13056474924 0.91451513767
0.64674264193 -0.27994659543 0.70936083794
0.2224253267 0.13085208833 0.96609783173
0.31125882268 0.27853661776 0.9085637331
0.077364504337 0.40956160426 0.90884572268
0.24330975115 0.41861516237 0.87479579449
0.39711093903 0.41532853246 0.81838482618

CELLS 162 648
3 0 1 2
3 1 3 2
3 1 4 3
3 2 3 5
3 5 3 6
3 3 7 6
3 3 4 7
3 6 7 8
3 5 6 9
3 6 10 9
3 6 8 10
3 9 10 11
3 10 12 13
3 10 8 12
3 13 12 14
3 13 14 15
3 4 16 17
3 16 18 17
3 16 19 18
3 17 18 20
3 0 2 21
3 2 22 21
3 2 5 22
3 5 9 22
3 9 11 23
3 20 24 25
3 24 26 25
3 24 27 26
3 25 26 14
3 8 28 12
3 28 25 12
3 28 20 25
3 12 25 14
3 27 29 30
3 29 31 30
3 29 19 31
3 30 31 32
3 27 30 33
3 30 32 34
3 15 14 26
3 33 26 27
3 20 18 24
3 18 29 24
3 18 19 29
3 24 29 27
3 19 35 31
3 35 36 31
3 35 0 36
3 31 36 32
3 4 1 16
3 1 35 16
3 1 0 35
3 16 35 19
3 4 17 7
3 17 28 7
3 17 20 28
3 7 28 8
3 37 38 39
3 40 41 42
3 41 37 43
3 44 45 46
3 45 47 46
3 46 47 37
3 37 47 38
3 44 46 48
3 41 46 37
3 15 49 13
3 40 49 48
3 49 50 48
3 49 15 50
3 48 50 44
3 44 50 51
3 50 52 51
3 50 15 52
3 51 52 33
3 33 52 26
3 26 52 15
3 40 48 41
3 41 48 46
3 44 51 45
3 53 54 55
3 54 56 55
3 54 36 56
3 55 56 21
3 36 54 32
3 32 54 53
3 21 56 0
3 56 36 0
3 21 22 57
3 23 58 9
3 9 58 22
3 22 58 59
3 58 60 59
3 59 60 61
3 13 62 10
3 10 62 11
3 11 62 63
3 62 64 63
3 62 13 64
3 63 64 40
3 34 65 30
3 30 65 33
3 11 63 66
3 42 63 40
3 45 67 47
3 47 67 68
3 34 67 65
3 67 69 65
3 67 45 69
3 65 69 33
3 40 64 49
3 49 64 13
3 33 69 51
3 51 69 45
3 53 70 32
3 32 70 34
3 53 71 70
3 71 68 70
3 71 38 68
3 70 68 34
3 38 72 39
3 39 72 73
3 38 71 72
3 71 74 72
3 71 53 74
3 72 74 75
3 75 73 72
3 39 73 76
3 61 73 57
3 73 77 57
3 73 75 77
3 57 77 21
3 34 68 67
3 47 68 38
3 61 57 59
3 59 57 22
3 75 74 55
3 55 74 53
3 21 77 55
3 55 77 75
3 43 78 79
3 78 76 79
3 78 39 76
3 79 76 60
3 42 66 63
3 11 66 23
3 43 80 41
3 41 80 42
3 42 80 66
3 80 81 66
3 80 43 81
3 66 81 23
3 39 78 37
3 78 43 37
3 23 82 58
3 58 82 60
3 60 76 61
3 61 76 73
3 43 79 81
3 79 82 81
3 79 60 82
3 81 82 23

CELL_TYPES 162
5
5
5
5
5
5
5
5
5
5
5
5
5
5
5
5
5
5
5
5
5
5
5
5
5
5
5
5
5
5
5
5
5
5
5
5
5
5
5
5
5
5
5
5
5
5
5
5
5
5
5
5
5
5
5
5
5
5
5
5
5
5
5
5
5
5
5
5
5
5
5
5
5
5
5
5
5
5
5
5
5
5
5
5
5
5
5
5
5
5
5
5
5
5
5
5
5
5
5
5
5
5
5
5
5
5
5
5
5
5
5
5
5
5
5
5
5
5
5
5
5
5
5
5
5
5
5
5
5
5
5
5
5
5
5
5
5
5
5
5
5
5
5
5
5
5
5
5
5
5
5
5
5
5
5
5
5
5
5
5
5
5

CELL_DATA 162
SCALARS cell_data_0 double
LOOKUP_TABLE default
5.17311950737e-08
2.63908157258e-07
3.74378105946e-08
7.02970249318e-08
1.98043862495e-07
1.95158574708e-07
1.21836740076e-07
1.29382548192e-07
6.93753068844e-07
3.58360813872e-07
1.7936776019e-07
1.40474846178e-06
1.20492961779e-06
4.34286392762e-07
8.45072230332e-07
6.17331375449e-07
1.08024454529e-08
5.38260811828e-08
1.64238468566e-08
2.18918918927e-08
6.85476236999e-07
1.89798599258e-06
3.83247689979e-07
1.09631587942e-06
9.47059479349e-07
1.7286477633e-07
2.59118250043e-07
4.4084102749e-07
3.82162890102e-07
7.37564104716e-08
2.64894211168e-08
7.7465067767e-09
1.42257506217e-07
6.93699088041e-07
2.14894523907e-07
1.62246616388e-07
1.21904633477e-06
8.92734196378e-07
4.77344986835e-07
1.11118569355e-06
1.51675199577e-06
4.05931360995e-08
2.79632861139e-08
8.68277108773e-08
1.16496218463e-07
1.6863359247e-07
3.51232290379e-07
2.84577991195e-07
5.61691142348e-07
4.57333679423e-08
2.0072986102e-07
1.05362126498e-07
7.94722489545e-08
1.00463673656e-08
3.11035460902e-08
2.4799898385e-08
1.53312567227e-08
3.56708151506e-07
2.86897394637e-07
1.93394418801e-06
9.980956977e-08
8.15452898368e-07
6.19026971853e-07
3.37692041264e-07
5.13780534801e-07
1.1324691665e-06
1.90229253545e-06
5.95636999591e-07
3.6943503586e-07
1.84872634209e-08
3.24834946308e-07
7.64322773262e-07
1.97790894918e-07
5.0685821426e-07
5.8912643089e-07
8.90208961231e-07
8.92728480818e-07
4.75261939237e-07
1.43542274694e-06
7.51736560876e-07
5.58401972767e-07
3.43191708444e-07
4.5112631697e-07
3.86497744002e-07
4.45863494164e-07
6.68400756279e-07
9.9901953534e-08
6.77976568907e-08
1.16752670388e-06
6.09993184067e-07
2.53053005502e-07
9.83721266994e-07
3.1781849071e-07
3.72467571111e-07
5.778944383e-07
7.88372930285e-07
2.84833255092e-08
9.34775065661e-08
2.47342606993e-07
4.24285890297e-07
1.06824603444e-06
9.56560601344e-08
6.1118838773e-07
9.11413545187e-07
4.02129087588e-07
4.28894506513e-08
5.1561339214e-07
5.56628550239e-07
7.4818078614e-07
4.45142655731e-08
4.19196334157e-07
4.23059526127e-07
4.07232117351e-07
2.72187194074e-07
1.32843755521e-06
1.68399060156e-06
1.50619270276e-07
3.80793404221e-07
2.07888677509e-07
4.37673716161e-07
3.24713559276e-07
3.50716168921e-07
6.85711589621e-07
3.51634491564e-07
3.27607568064e-07
1.32118357451e-07
2.30888085852e-07
2.39975453707e-08
2.96213392082e-07
7.25408873666e-07
3.52133488601e-07
4.75714447797e-07
2.33336048748e-07
3.77395864669e-08
4.78776704127e-07
5.62699859061e-07
2.39962814558e-07
1.3052137129e-07
2.69834389784e-08
8.80948394987e-08
3.05415578505e-07
2.11115877882e-08
3.59291842705e-07
7.68950108736e-08
6.70770474686e-07
3.76191200877e-07
3.01815850561e-07
3.33589713391e-07
2.64261501184e-07
1.15144489639e-07
1.39555538825e-07
1.81650983081e-08
6.52535038153e-07
3.65944390752e-07
3.29127023107e-07
3.40746171302e-07
3.76008692571e-07
2.24795163079e-07
2.77274124145e-07
8.62613965978e-08
8.26605197195e-08
6.05795223901e-08

