# vtk DataFile Version 3.0
File Name: Molecule/sphere_excent/sphere_excent_0-s8.vtk
ASCII
DATASET UNSTRUCTURED_GRID
FIELD FieldData 1
TIME 1 1 double
0.0
POINTS 76 double
0.85041832924 -0.52598720789 0.00088966230396
0.80895197392 -0.30901515484 -0.49990180135
1.0000646114 7.1912336352e-07 -0.0013390050735
0.80890530348 0.30897831917 -0.49999076128
0.52572822571 -1.9985227482e-06 -0.85065257549
0.85059463978 0.52592557669 -0.0018883605953
0.4999127984 0.80894297361 -0.30902737379
0.30897709727 0.49994280934 -0.80893331766
-6.8701556302e-06 0.85065513849 -0.52572351694
0.50116801262 0.8091724515 0.30691832304
-0.00017087659216 0.99982517958 0.00068175618071
0.029764851555 0.84882676601 0.52490985394
-0.50007939339 0.80873924494 -0.30942726135
-0.51960015297 0.80376327038 0.28561377525
-0.85074734688 0.52581083775 -0.0039949715137
-0.83087939024 0.34157946706 0.43883398175
0.30896994472 -0.49993628263 -0.80894207954
-1.2472979734e-06 -1.6978935946e-07 -0.99989151955
-0.30898815393 -0.49994581938 -0.8089273572
-2.0207327907e-05 -0.85061585903 -0.52578788996
-0.52573388815 6.7378351787e-07 -0.85064911842
0.82597541809 -0.27480885386 0.49075981975
0.83651000261 0.30517444015 0.45349353552
0.3261192441 0.5457649231 0.77099865675
-0.80895203352 -0.30896830559 -0.49992501736
-0.80889743567 0.3088747859 -0.50006967783
-0.99998867512 -4.8093883379e-05 0.00031459407182
-0.85022884607 -0.52660650015 -0.0012643877417
-0.30898028612 0.49993684888 -0.80893695354
-0.49988883734 -0.80893683434 -0.30908536911
-0.49905121326 -0.81073367596 0.30637189746
-0.0007923404919 -0.99998021126 -0.0015561827458
0.0010976146441 -0.8560167551 0.51711708307
-0.8145236969 -0.34860700369 0.46428209543
-0.2824703753 -0.55684930086 0.77973121405
0.49974799156 -0.80865770578 -0.31020337343
0.48438742757 -0.83254951239 0.26557090878
0.15719239414 0.27207261324 0.94936913252
0.28111869097 -0.010205737315 0.95954209566
0.45596975088 0.2785821259 0.84497326612
-0.015826163813 0.004219067283 0.99983024597
0.13199783862 -0.26771143079 0.95312148333
-0.00028087824467 0.53097498417 0.84730100632
-0.32253783941 0.5270178318 0.78601753712
-0.16526724398 0.27599099278 0.9468228817
-0.5334866643 0.012495242059 0.8456966877
-0.4470821023 -0.22467766702 0.86492168903
-0.293908149 0.0053074881434 0.95569163561
-0.1839607656 -0.23724159598 0.95361924171
-0.449932307 0.26629072428 0.85244005919
-0.59955507517 0.43952608109 0.66852766275
-0.69714874029 0.16699618101 0.69717860222
-0.70293951035 -0.11989785731 0.70106440783
-0.85908144712 0.0017200842267 0.51170665026
0.28765797615 -0.57051378489 0.76844573021
0.4256183207 -0.70968192816 0.56153720617
0.58089840412 -0.47211992741 0.66300964355
0.68830102682 -0.59141945839 0.4203325212
0.70971482992 -0.1230257526 0.69233030081
0.60416567326 0.43800824881 0.66557788849
0.69707071781 0.18439365923 0.69264686108
0.55187267065 0.036819767207 0.83298295736
-0.25466775894 0.86394494772 0.43440377712
-0.17925255001 0.7187229991 0.67197155952
-0.41755339503 0.70294702053 0.57596063614
-0.57667964697 -0.47356408834 0.66442465782
-0.38387218118 -0.39661183953 0.83347755671
-0.074468322098 -0.42711350322 0.9009013772
-0.63564521074 -0.30322790146 0.70958727598
0.0050304150209 -0.58264827728 0.8120573163
0.20885044336 -0.43071249127 0.87735825777
0.30273833871 -0.26464608312 0.91519099474
0.50214439631 -0.12189236283 0.85587257147
0.3720125258 -0.41487237811 0.83033061028
0.45516341925 -0.26529845595 0.84786450863
0.64907443523 -0.27983382344 0.70727604628

CELLS 148 592
3 0 1 2
3 1 3 2
3 1 4 3
3 2 3 5
3 5 3 6
3 3 7 6
3 3 4 7
3 6 7 8
3 5 6 9
3 6 10 9
3 6 8 10
3 9 10 11
3 10 12 13
3 10 8 12
3 13 12 14
3 13 14 15
3 4 16 17
3 16 18 17
3 16 19 18
3 17 18 20
3 0 2 21
3 2 22 21
3 2 5 22
3 5 9 22
3 9 11 23
3 20 24 25
3 24 26 25
3 24 27 26
3 25 26 14
3 8 28 12
3 28 25 12
3 28 20 25
3 12 25 14
3 27 29 30
3 29 31 30
3 29 19 31
3 30 31 32
3 27 30 33
3 30 32 34
3 15 14 26
3 33 26 27
3 20 18 24
3 18 29 24
3 18 19 29
3 24 29 27
3 19 35 31
3 35 36 31
3 35 0 36
3 31 36 32
3 4 1 16
3 1 35 16
3 1 0 35
3 16 35 19
3 4 17 7
3 17 28 7
3 17 20 28
3 7 28 8
3 37 38 39
3 40 41 38
3 11 42 23
3 43 44 42
3 44 37 42
3 44 40 37
3 42 37 23
3 38 37 40
3 45 46 47
3 46 48 47
3 47 48 40
3 40 48 41
3 45 47 49
3 44 47 40
3 15 50 13
3 43 50 49
3 50 51 49
3 50 15 51
3 49 51 45
3 45 51 52
3 51 53 52
3 51 15 53
3 52 53 33
3 33 53 26
3 26 53 15
3 43 49 44
3 44 49 47
3 45 52 46
3 54 55 56
3 55 57 56
3 55 36 57
3 56 57 21
3 36 55 32
3 32 55 54
3 21 57 0
3 57 36 0
3 21 22 58
3 23 59 9
3 9 59 22
3 22 59 60
3 59 39 60
3 59 23 39
3 60 39 61
3 61 39 38
3 37 39 23
3 13 62 10
3 10 62 11
3 11 62 63
3 62 64 63
3 62 13 64
3 63 64 43
3 34 65 30
3 30 65 33
3 11 63 42
3 42 63 43
3 46 66 48
3 48 66 67
3 34 66 65
3 66 68 65
3 66 46 68
3 65 68 33
3 43 64 50
3 50 64 13
3 33 68 52
3 52 68 46
3 54 69 32
3 32 69 34
3 54 70 69
3 70 67 69
3 70 41 67
3 69 67 34
3 41 71 38
3 38 71 72
3 41 70 71
3 70 73 71
3 70 54 73
3 71 73 74
3 74 72 71
3 38 72 61
3 61 72 58
3 72 75 58
3 72 74 75
3 58 75 21
3 34 67 66
3 48 67 41
3 61 58 60
3 60 58 22
3 74 73 56
3 56 73 54
3 21 75 56
3 56 75 74

CELL_TYPES 148
5
5
5
5
5
5
5
5
5
5
5
5
5
5
5
5
5
5
5
5
5
5
5
5
5
5
5
5
5
5
5
5
5
5
5
5
5
5
5
5
5
5
5
5
5
5
5
5
5
5
5
5
5
5
5
5
5
5
5
5
5
5
5
5
5
5
5
5
5
5
5
5
5
5
5
5
5
5
5
5
5
5
5
5
5
5
5
5
5
5
5
5
5
5
5
5
5
5
5
5
5
5
5
5
5
5
5
5
5
5
5
5
5
5
5
5
5
5
5
5
5
5
5
5
5
5
5
5
5
5
5
5
5
5
5
5
5
5
5
5
5
5
5
5
5
5
5
5

CELL_DATA 148
SCALARS cell_data_0 double
LOOKUP_TABLE default
3.7050617623e-08
2.61088242461e-07
3.9068449167e-08
6.45198928121e-08
1.85090049011e-07
1.94834665744e-07
1.21703506246e-07
1.29658080451e-07
6.92610956085e-07
3.31687148202e-07
1.76272306012e-07
1.39442026873e-06
1.28908822585e-06
4.17014955909e-07
9.31478680348e-07
7.65811527936e-07
1.08554849354e-08
5.31608132637e-08
1.44002190522e-08
2.11673890472e-08
7.73576792377e-07
2.09256523374e-06
4.14455427369e-07
1.14315939242e-06
9.83999793465e-07
1.74748379159e-07
2.57545118558e-07
4.51873337713e-07
3.82340073138e-07
7.25473747446e-08
3.0253728822e-08
9.5283160776e-09
1.34008052884e-07
6.71987240003e-07
2.06961375231e-07
1.60466547296e-07
1.16123262893e-06
9.21983594926e-07
4.58720977404e-07
1.27398305781e-06
1.68847032283e-06
3.85549084588e-08
3.11233170798e-08
8.8112951482e-08
1.14314050073e-07
1.83222196766e-07
3.57575159909e-07
2.66449987667e-07
6.12249748114e-07
4.57057692504e-08
2.00564674803e-07
1.03267122637e-07
7.75832380728e-08
8.77389897788e-09
3.47888303243e-08
2.35194864856e-08
1.38009730174e-08
2.64821731907e-06
2.60862572285e-08
1.72175777957e-06
3.95719972647e-08
1.11693733576e-06
1.89502192824e-06
2.63961114752e-06
1.59346808363e-06
1.77761932674e-07
8.27815464469e-07
5.07655048758e-07
5.26355853446e-07
5.36258229372e-07
1.15795860401e-06
1.93850234034e-06
5.46789640255e-07
3.67610431779e-07
9.10116169341e-08
3.15076826791e-07
7.58457764182e-07
2.10239656253e-07
4.80999331342e-07
5.43544939052e-07
8.97526500427e-07
9.44015321004e-07
4.54916654676e-07
1.55114207816e-06
7.47238715415e-07
5.97885901651e-07
3.61117029485e-07
4.50338664029e-07
3.13217587994e-07
4.3116351286e-07
7.15466535372e-07
1.54834365288e-07
8.95641999469e-08
1.22411311203e-06
7.90396815777e-07
2.01196224937e-07
9.13571552208e-07
4.17929137276e-07
1.08395837523e-06
8.95336644427e-07
9.64964667471e-07
3.01577478129e-06
5.69629610227e-07
8.22481765401e-07
9.58435826721e-08
1.49537702421e-09
2.90391442901e-07
4.17133756603e-07
1.23246535265e-06
1.75354166482e-07
3.95012988261e-07
4.32049484905e-07
2.9964658695e-07
1.3300752655e-07
4.3053248026e-07
4.93655717107e-07
7.99887808204e-07
9.48070781335e-09
4.20006921442e-07
4.76990640057e-07
3.69327306375e-07
2.71954344106e-07
1.35620393985e-06
1.76427992222e-06
1.86153019831e-07
4.09758428409e-07
1.79945063389e-07
2.95666848289e-07
2.58527334905e-07
1.1178090184e-07
7.28893478111e-07
3.22353733009e-07
3.14317449231e-07
7.24817899859e-08
2.23156215521e-07
1.74343671734e-06
1.20249024243e-07
5.75706635388e-07
5.82234934656e-07
5.15797996984e-07
1.99390135297e-07
1.66191278827e-07
5.33271836672e-07
4.84879675654e-07
1.55830726445e-07
1.407731453e-07
3.07889972557e-08
1.46024598944e-07

