# vtk DataFile Version 3.0
File Name: Molecule/sphere_excent/sphere_excent_0-s2.vtk
ASCII
DATASET UNSTRUCTURED_GRID
FIELD FieldData 1
TIME 1 1 double
0.0
POINTS 58 double
0.85065078735 -0.52573108673 -6.0856963913e-09
0.80892956257 -0.3089826405 -0.49994668365
0.99989563227 1.750563024e-05 5.3900771491e-07
0.80893558264 0.30899915099 -0.49994370341
0.52573108673 3.2062521527e-09 -0.85065078735
0.850481987 0.52599549294 6.4383202698e-06
0.50410360098 0.79961925745 -0.32245373726
0.30888649821 0.4998139441 -0.80909854174
-8.85972986e-06 0.85088074207 -0.52528131008
-0.29995918274 0.48498266935 0.81980270147
0.00013599621889 -0.00030324383988 0.99996989965
0.30857807398 0.50051623583 0.80861753225
-0.5258140564 0.00031093615689 0.85059088469
0.52573108673 -9.9803321163e-09 0.85065078735
-0.30899471045 -0.49993637204 0.80893695354
0.30898711085 -0.49994918704 0.80892664194
9.9467705184e-09 -0.85065078735 0.52573102713
0.8089299202 -0.30898225307 0.4999460578
0.49994528294 -0.8089299798 0.30898213387
0.30898281932 -0.49994540215 -0.80892962217
-1.237686206e-06 -1.8477325057e-06 -0.99989300966
-0.30898404121 -0.4999461174 -0.80892807245
-1.3162987145e-08 -0.85065078735 -0.52573108673
-0.52573114634 -1.7026486887e-09 -0.85065078735
0.80909943581 0.30870169401 0.49999827147
0.51340919733 0.79589897394 0.31681799889
-0.80894011259 -0.30897504091 -0.49994465709
-0.80900061131 0.30901581049 -0.49978613853
-0.9998794198 0.00016780226724 -5.3453532018e-05
-0.85065078735 -0.52573108673 1.8334215923e-08
-0.85613363981 0.51301002502 -0.0099566979334
-0.30879691243 0.49979498982 -0.80918478966
-0.49554896355 0.80240178108 -0.32786792517
-0.49994465709 -0.80892980099 -0.30898180604
-0.49994716048 -0.80892878771 0.30898436904
7.6708124652e-07 -0.99989140034 4.498610906e-08
-0.80885761976 -0.30934020877 0.499979496
-0.81270813942 0.28882411122 0.50276523829
0.49994567037 -0.80892902613 -0.30898353457
0.52524650097 0.8509516716 -0.00015861688007
0.26412642002 0.9508061409 -0.16214384139
0.26520487666 0.95089244843 0.15978434682
7.6864060247e-05 0.99992734194 -0.0032403427176
0.25793921947 0.86297178268 0.43430405855
0.00011765601812 0.96125119925 0.27568104863
0.0018236917676 0.84915971756 0.52771377563
-0.257137537 0.86286228895 0.43509453535
-0.2644186914 0.95109456778 0.15988528728
-0.49999383092 0.80900597572 0.30901321769
-0.26395362616 0.95080691576 -0.16223452985
-0.52299159765 0.85233306885 -0.00066954828799
-0.70445281267 0.69188839197 0.15834106505
-0.70371180773 0.69242852926 -0.15900301933
-0.15968742967 0.7033855319 0.69253927469
-0.42783340812 0.68618237972 0.58827066422
-0.68689888716 0.58723050356 0.42813569307
-0.58777952194 0.42552232742 0.6880646348
-0.86279773712 0.43502080441 0.25746819377

CELLS 112 448
3 0 1 2
3 1 3 2
3 1 4 3
3 2 3 5
3 5 3 6
3 3 7 6
3 3 4 7
3 6 7 8
3 9 10 11
3 9 12 10
3 11 10 13
3 12 14 10
3 14 15 10
3 14 16 15
3 10 15 13
3 13 15 17
3 15 18 17
3 15 16 18
3 17 18 0
3 4 19 20
3 19 21 20
3 19 22 21
3 20 21 23
3 0 2 17
3 2 24 17
3 2 5 24
3 17 24 13
3 5 25 24
3 25 11 24
3 24 11 13
3 23 26 27
3 26 28 27
3 26 29 28
3 27 28 30
3 8 31 32
3 31 27 32
3 31 23 27
3 29 33 34
3 33 35 34
3 33 22 35
3 34 35 16
3 29 34 36
3 34 14 36
3 34 16 14
3 36 14 12
3 12 37 36
3 37 28 36
3 36 28 29
3 23 21 26
3 21 33 26
3 21 22 33
3 26 33 29
3 22 38 35
3 38 18 35
3 38 0 18
3 35 18 16
3 4 1 19
3 1 38 19
3 1 0 38
3 19 38 22
3 4 20 7
3 20 31 7
3 20 23 31
3 7 31 8
3 6 39 5
3 5 39 25
3 6 40 39
3 40 41 39
3 40 42 41
3 39 41 25
3 42 40 8
3 8 40 6
3 25 41 43
3 41 44 43
3 41 42 44
3 43 44 45
3 45 44 46
3 44 47 46
3 44 42 47
3 46 47 48
3 42 49 47
3 49 50 47
3 49 32 50
3 47 50 48
3 32 49 8
3 8 49 42
3 48 50 51
3 50 52 51
3 50 32 52
3 51 52 30
3 45 46 53
3 46 54 53
3 46 48 54
3 53 54 9
3 48 55 54
3 55 56 54
3 55 37 56
3 54 56 9
3 48 51 55
3 51 57 55
3 51 30 57
3 55 57 37
3 9 56 12
3 56 37 12
3 45 53 11
3 53 9 11
3 25 43 11
3 43 45 11
3 30 52 27
3 27 52 32
3 37 57 28
3 57 30 28

CELL_TYPES 112
5
5
5
5
5
5
5
5
5
5
5
5
5
5
5
5
5
5
5
5
5
5
5
5
5
5
5
5
5
5
5
5
5
5
5
5
5
5
5
5
5
5
5
5
5
5
5
5
5
5
5
5
5
5
5
5
5
5
5
5
5
5
5
5
5
5
5
5
5
5
5
5
5
5
5
5
5
5
5
5
5
5
5
5
5
5
5
5
5
5
5
5
5
5
5
5
5
5
5
5
5
5
5
5
5
5
5
5
5
5
5
5

CELL_DATA 112
SCALARS cell_data_0 double
LOOKUP_TABLE default
0.000509151078799
0.000636328339902
0.000289187846774
0.000246038721571
0.000237828032741
0.000403026975364
0.000154015257093
0.000164612062291
0.00014515334588
0.000134193086475
0.000121852552681
0.000155430341407
0.000178666608542
6.64297656875e-05
0.000126373715599
5.00893865925e-05
4.90780193942e-05
4.13170096792e-05
3.67640824335e-05
1.4254219612e-05
1.62484368843e-05
6.03325575784e-06
1.03291136965e-05
0.000188462557229
2.91898423816e-05
5.26849076951e-05
4.25194740524e-05
1.34955194705e-05
5.25661271357e-05
4.9770231729e-05
1.72449124833e-05
1.69378818925e-05
0.000470629571374
0.000120362046581
2.59507283211e-05
4.0769671768e-05
5.00661732459e-05
0.000498398285563
1.00765700383e-05
2.12640903588e-05
1.818009521e-05
0.000331570867346
5.05606090768e-05
4.16817362671e-05
6.9174154126e-05
4.41639927292e-05
2.773759234e-05
0.00038707416422
4.31794624088e-06
2.73218893532e-05
2.15888136388e-05
0.000562617506405
5.37743885205e-06
1.02388846451e-06
8.88708416605e-05
1.67069080843e-05
0.000130363236464
0.000174761992626
0.000294676126045
1.31905161804e-05
3.56336415547e-05
9.35617572553e-05
4.32423684952e-05
7.43996812336e-05
4.39765109384e-05
1.62327998886e-06
3.94138163123e-05
4.64490649189e-06
7.39451445881e-06
4.64778278897e-06
1.31859036989e-05
7.13047599001e-05
6.44450264793e-06
4.30667717119e-06
5.03576286619e-06
2.31916655168e-06
4.94925493283e-06
4.3516100067e-07
5.4456884882e-06
3.77897554893e-06
3.7278214048e-06
1.23689232155e-06
9.03907404682e-07
2.40750444462e-06
7.58397262694e-07
6.59645781677e-06
2.60728829984e-06
1.94150828582e-08
7.36389027172e-07
2.53637728429e-05
6.34567648244e-06
2.81173466709e-06
5.30307297402e-06
1.42834503366e-05
4.71827365406e-06
8.85792874457e-07
6.54400025067e-06
1.71168335517e-05
3.08787329258e-06
1.32516731307e-07
2.55568574568e-05
4.50951397524e-06
4.49637740083e-05
3.0670865634e-05
3.01589637278e-05
4.5351051001e-05
1.71957882523e-05
2.26000956699e-05
6.2681682523e-05
3.60466330623e-06
7.79456782201e-06
4.83676749301e-05

