# vtk DataFile Version 3.0
File Name: Molecule/sphere_excent/sphere_excent_0-s4.vtk
ASCII
DATASET UNSTRUCTURED_GRID
FIELD FieldData 1
TIME 1 1 double
0.0
POINTS 124 double
0.31420424581 -0.50981146097 0.79703682661
0.49987259507 -0.80919849873 0.3084897697
0.80885535479 -0.30912306905 0.49998345971
0.00054900097894 -0.85039937496 0.5262144208
0.84344011545 -0.53291392326 0.02832602337
0.99717634916 0.01888166368 0.029355537146
0.80772918463 0.30885231495 0.50137847662
0.85036450624 0.52617812157 -0.001053276821
0.53744709492 0.00065811217064 0.84044057131
0.53432482481 0.77644973993 0.32978031039
0.30799922347 0.49950438738 0.80984193087
0.30748257041 0.7096952796 0.6311083436
-0.81714296341 0.306676507 -0.48231068254
-0.9973423481 0.040122140199 0.0036229770631
-0.86797648668 0.49248808622 -0.025973070413
-0.46705523133 -0.81954598427 0.32752865553
-0.0068158754148 -0.99762523174 0.018909271806
-0.31866762042 -0.51409459114 0.79287689924
-0.53868967295 0.0085933022201 0.83912420273
-0.82217800617 0.25457769632 0.50594705343
-0.79392307997 -0.2896566987 0.53063094616
0.50329977274 0.80308717489 -0.31840664148
0.52580136061 0.85059320927 0.0016074705636
0.266618222 0.95024305582 -0.16131789982
0.26949951053 0.95030832291 0.15613606572
0.00013692390348 0.99985682964 -0.0084120482206
0.014276080765 0.8534989357 -0.51719659567
0.26462048292 0.86628258228 0.42117726803
0.00053128768923 0.96022599936 0.27898302674
-0.0030829999596 0.85279119015 0.52149033546
-0.25321096182 0.86307674646 0.43679082394
-0.26630792022 0.95121312141 0.1562268436
-0.50015062094 0.8089261651 0.30898529291
-0.26589474082 0.94994658232 -0.16411246359
-0.51933896542 0.85450488329 -0.0024455352686
-0.49458730221 0.7995839119 -0.34027671814
-0.70921266079 0.687900424 0.15406820178
-0.70129865408 0.69543802738 -0.15548667312
-0.43113556504 0.68299913406 0.58959233761
-0.1710126996 0.70746570826 0.68421894312
-0.68575298786 0.5853921175 0.43224054575
-0.58804494143 0.42293325067 0.6893761158
-0.30100464821 0.46539670229 0.8319606185
-0.86393284798 0.43483191729 0.25359910727
-0.68305468559 0.58227020502 -0.44083607197
0.86312103271 -0.43702945113 -0.2530412972
0.96058934927 -0.2777145505 0.0004800587194
0.95162057877 -0.15670740604 -0.26421397924
0.81401920319 -0.30666863918 -0.49231880903
0.85357838869 -0.00023084375425 -0.52095061541
0.95170331001 0.16090123355 -0.26160565019
0.81102526188 0.31075847149 -0.49544554949
0.68614393473 -0.18217945099 -0.70240753889
0.69048148394 0.15639679134 -0.70607244968
0.50193232298 -0.019601935521 -0.86236608028
0.68761622906 0.5827600956 -0.43317401409
0.58676636219 0.42969030142 -0.68631780148
0.42709797621 0.68136906624 -0.59439748526
0.2715395093 0.50436127186 -0.81646662951
0.43520200253 0.2555514276 -0.86326485872
-0.95081466436 -0.15661557019 -0.26630362868
-0.80292910337 -0.30049133301 -0.51468443871
-0.86305242777 -0.4348616004 -0.25695860386
-0.96139734983 -0.27520567179 -9.6306495834e-05
-0.85065412521 -0.52572578192 -7.975761946e-06
-0.70403558016 -0.69219964743 -0.15871138871
-0.70354443789 -0.6925624609 0.15930493176
-0.51988840103 -0.85400652885 -0.00023000843066
-0.48455801606 -0.81469327211 -0.31837967038
-0.86274397373 -0.43506234884 0.25770393014
-0.68422341347 -0.58810669184 0.43070936203
-0.95035171509 -0.1580042392 0.26724252105
-0.68452745676 -0.5878354311 -0.4310490787
0.48427283764 -0.81304001808 -0.3207847476
0.69593423605 -0.69968080521 -0.15437014401
0.26449745893 -0.95069378614 -0.15579149127
0.3230894208 -0.48973530531 -0.80742955208
0.68181747198 -0.57804310322 -0.44516891241
0.01748213172 0.0048054126091 -0.99807471037
-0.15004141629 0.24895633757 0.95677256584
0.004821841605 0.49716466665 0.86676484346
0.16059844196 0.26314851642 0.9512270689
0.00062719610287 -0.0014653758844 0.99998563528
-0.41790854931 0.24468529224 0.87472552061
-0.2761772275 -0.0012313551269 0.96107935905
0.43447160721 0.25681823492 0.86348694563
0.27706840634 -0.00042583787581 0.96088814735
-0.43524628878 -0.25640395284 0.86294966936
-0.16012497246 -0.26553848386 0.95069569349
-0.00036704546073 -0.52550387383 0.85077935457
0.16033108532 -0.26533976197 0.95071107149
0.43476340175 -0.25722923875 0.86299443245
0.16113521159 -0.2638874948 -0.95102316141
4.1430001147e-05 -0.5229152441 -0.85239881277
-0.15948362648 -0.26442998648 -0.95111238956
-0.30956867337 -0.5002142787 -0.80858415365
0.15869098902 -0.70321696997 -0.69305509329
-0.15819731355 -0.70375359058 -0.69252735376
0.00013633236813 -0.85053700209 -0.52591747046
-0.27479326725 -4.5100972784e-05 -0.9615277648
-0.43446978927 -0.25680285692 -0.86323672533
-0.52533066273 0.00032498300425 -0.85089612007
-0.68673717976 -0.15348447859 -0.71043807268
-0.69256079197 0.15960213542 -0.70347756147
-0.84248924255 -0.00074435025454 -0.53835648298
-0.15841647983 0.70398157835 -0.69210374355
-0.2586620748 0.85186702013 -0.45575621724
-0.42226064205 0.67653006315 -0.60302144289
-0.30687236786 0.49723935127 -0.8113399148
-0.58789795637 0.42659568787 -0.68728113174
-0.43482974172 0.25684955716 -0.86302393675
-0.24748958647 -0.86356854439 -0.43917796016
-0.25403952599 -0.95112723112 -0.17481264472
6.7446628236e-05 -0.96134525537 -0.27529540658
-0.5831463933 -0.42272287607 -0.69366919994
-0.41866496205 -0.68843412399 -0.59220552444
0.24869452417 -0.86547523737 -0.43461161852
0.41424679756 -0.69765943289 -0.58482122421
-0.16043959558 0.2633869946 -0.95113158226
0.13330224156 0.85713332891 0.49706187844
-0.066257059574 0.78020614386 0.62155723572
-0.2172126472 0.59464257956 0.77374374866
0.15555334091 0.70856803656 0.68775373697
0.06577334553 0.62794715166 0.77478390932

CELLS 244 976
3 0 1 2
3 0 3 1
3 2 1 4
3 5 6 2
3 5 7 6
3 2 6 8
3 7 9 6
3 10 6 11
3 12 13 14
3 15 16 3
3 15 3 17
3 18 19 20
3 16 1 3
3 21 22 7
3 7 22 9
3 21 23 22
3 23 24 22
3 23 25 24
3 22 24 9
3 25 23 26
3 26 23 21
3 9 24 27
3 24 28 27
3 24 25 28
3 29 28 30
3 28 31 30
3 28 25 31
3 30 31 32
3 25 33 31
3 33 34 31
3 33 35 34
3 31 34 32
3 26 33 25
3 32 34 36
3 34 37 36
3 34 35 37
3 36 37 14
3 30 38 39
3 30 32 38
3 32 40 38
3 40 41 38
3 40 19 41
3 38 41 42
3 32 36 40
3 36 43 40
3 36 14 43
3 40 43 19
3 41 19 18
3 12 14 44
3 19 43 13
3 43 14 13
3 4 45 46
3 45 47 46
3 45 48 47
3 46 47 5
3 48 49 47
3 49 50 47
3 49 51 50
3 47 50 5
3 48 52 49
3 52 53 49
3 52 54 53
3 49 53 51
3 5 50 7
3 50 51 7
3 51 55 7
3 7 55 21
3 51 56 55
3 56 57 55
3 56 58 57
3 55 57 21
3 51 53 56
3 53 59 56
3 53 54 59
3 56 59 58
3 21 57 26
3 57 58 26
3 4 46 2
3 46 5 2
3 60 13 12
3 61 62 60
3 62 63 60
3 62 64 63
3 60 63 13
3 64 65 66
3 65 67 66
3 65 68 67
3 66 67 15
3 15 67 16
3 64 66 69
3 66 70 69
3 66 15 70
3 69 70 20
3 20 70 17
3 17 70 15
3 13 71 19
3 19 71 20
3 20 71 69
3 71 63 69
3 71 13 63
3 69 63 64
3 61 72 62
3 72 65 62
3 72 68 65
3 62 65 64
3 73 74 75
3 74 4 1
3 54 52 76
3 76 52 77
3 48 77 52
3 48 45 77
3 45 74 77
3 45 4 74
3 77 74 73
3 58 59 78
3 78 59 54
3 42 79 80
3 79 81 80
3 79 82 81
3 80 81 10
3 42 83 79
3 83 84 79
3 83 18 84
3 79 84 82
3 10 81 85
3 81 86 85
3 81 82 86
3 85 86 8
3 18 87 84
3 87 88 84
3 87 17 88
3 84 88 82
3 17 89 88
3 89 90 88
3 89 0 90
3 88 90 82
3 0 89 3
3 3 89 17
3 82 90 86
3 90 91 86
3 90 0 91
3 86 91 8
3 8 91 2
3 91 0 2
3 76 92 54
3 54 92 78
3 76 93 92
3 93 94 92
3 93 95 94
3 92 94 78
3 76 96 93
3 96 97 93
3 96 98 97
3 93 97 95
3 78 94 99
3 94 100 99
3 94 95 100
3 99 100 101
3 10 85 6
3 6 85 8
3 101 102 103
3 102 104 103
3 102 61 104
3 103 104 12
3 26 105 106
3 105 107 106
3 105 108 107
3 106 107 35
3 108 109 107
3 109 44 107
3 109 12 44
3 107 44 35
3 108 110 109
3 110 103 109
3 110 101 103
3 109 103 12
3 68 111 112
3 111 113 112
3 111 98 113
3 112 113 16
3 17 87 20
3 20 87 18
3 101 100 102
3 100 114 102
3 100 95 114
3 102 114 61
3 95 97 115
3 97 111 115
3 97 98 111
3 115 111 68
3 98 116 113
3 116 75 113
3 116 73 75
3 113 75 16
3 16 75 1
3 1 75 74
3 76 117 96
3 117 116 96
3 117 73 116
3 96 116 98
3 78 118 58
3 118 108 58
3 78 99 118
3 99 110 118
3 99 101 110
3 118 110 108
3 108 105 58
3 58 105 26
3 29 119 28
3 28 119 27
3 26 106 33
3 33 106 35
3 39 120 30
3 30 120 29
3 42 121 38
3 38 121 39
3 18 83 41
3 41 83 42
3 29 120 122
3 120 123 122
3 120 39 123
3 122 123 10
3 39 121 123
3 121 80 123
3 121 42 80
3 123 80 10
3 27 11 9
3 9 11 6
3 27 119 11
3 119 122 11
3 119 29 122
3 11 122 10
3 35 44 37
3 37 44 14
3 12 104 60
3 60 104 61
3 68 112 67
3 67 112 16
3 95 115 114
3 72 115 68
3 61 114 72
3 72 114 115
3 73 117 77
3 77 117 76

CELL_TYPES 244
5
5
5
5
5
5
5
5
5
5
5
5
5
5
5
5
5
5
5
5
5
5
5
5
5
5
5
5
5
5
5
5
5
5
5
5
5
5
5
5
5
5
5
5
5
5
5
5
5
5
5
5
5
5
5
5
5
5
5
5
5
5
5
5
5
5
5
5
5
5
5
5
5
5
5
5
5
5
5
5
5
5
5
5
5
5
5
5
5
5
5
5
5
5
5
5
5
5
5
5
5
5
5
5
5
5
5
5
5
5
5
5
5
5
5
5
5
5
5
5
5
5
5
5
5
5
5
5
5
5
5
5
5
5
5
5
5
5
5
5
5
5
5
5
5
5
5
5
5
5
5
5
5
5
5
5
5
5
5
5
5
5
5
5
5
5
5
5
5
5
5
5
5
5
5
5
5
5
5
5
5
5
5
5
5
5
5
5
5
5
5
5
5
5
5
5
5
5
5
5
5
5
5
5
5
5
5
5
5
5
5
5
5
5
5
5
5
5
5
5
5
5
5
5
5
5
5
5
5
5
5
5
5
5
5
5
5
5
5
5
5
5
5
5

CELL_DATA 244
SCALARS cell_data_0 double
LOOKUP_TABLE default
5.31695016568e-05
2.53333157858e-05
2.33950506551e-05
1.7893330969e-05
7.35997045262e-05
5.1791507345e-05
0.000161740403498
3.45677751058e-05
6.6309118645e-06
0.000123333162388
1.04449740714e-06
4.54569014044e-05
9.9386767268e-05
0.000143698332196
0.000205925545564
4.00519295424e-05
2.43582455375e-05
2.9028531735e-05
5.52858179974e-05
8.61767127372e-05
2.87038937311e-05
6.8209563682e-06
4.5357788732e-06
1.81916570552e-05
4.96424928359e-06
4.81283815025e-06
1.77347084234e-05
3.06625524582e-06
2.13828895857e-05
2.73933549727e-06
5.55486715745e-06
3.8845314666e-07
7.2080354286e-05
2.64831246871e-07
2.59274295475e-06
4.50169642013e-06
8.25479155364e-07
8.66192376495e-06
7.06401845295e-06
8.13677324213e-06
9.89944273519e-06
1.17049796954e-05
1.51961315521e-05
3.42124701748e-06
5.06317162557e-06
2.20856223132e-06
7.38757132362e-06
2.83642668719e-05
6.03436640382e-06
1.01598824189e-05
2.76682098632e-06
5.04397862063e-06
1.8557220695e-06
5.62553545698e-07
1.3475855038e-06
1.48995893917e-07
5.78699319086e-08
1.4467660588e-06
1.99108360514e-07
1.52097555584e-06
3.48575841826e-06
6.25851219445e-06
3.05584277998e-06
4.84069221813e-05
5.33815172105e-05
5.63282484427e-05
6.4593437677e-05
5.22008223408e-06
5.53697781452e-06
8.76052976471e-06
6.77570215294e-06
6.27259221775e-06
5.43728895e-06
4.89778416703e-06
6.65688474678e-06
2.70530691594e-05
2.52279764562e-05
9.29345747055e-06
5.54944916115e-06
4.8640764792e-06
7.82965288611e-06
8.84176415364e-06
3.06104456697e-05
2.91370051632e-06
1.46335369533e-05
2.07441439588e-06
5.67790389754e-07
1.48465433323e-06
3.23962497287e-05
1.26020674459e-05
5.03408046183e-06
3.03983683611e-06
6.59014157988e-06
3.06364828786e-05
2.45035446417e-05
1.14010465683e-05
1.56747044189e-05
5.18200784917e-06
2.52691788488e-06
1.90320598369e-06
1.89852923118e-05
3.57340633808e-06
1.85112187875e-06
7.82956995943e-07
2.516417814e-05
8.80846575905e-05
0.000152173637871
2.36646538517e-05
0.000143724422117
3.65180380272e-05
2.70883931409e-05
0.000127128932086
8.00429556484e-05
0.000180523390529
2.0255878624e-05
1.74841143363e-05
4.46197491749e-06
2.13104237899e-05
7.47780307879e-05
1.24971114638e-05
1.46453867001e-05
2.92314992015e-06
2.56592438511e-05
6.44452661788e-05
2.10065200325e-05
1.64496438794e-05
6.75242516755e-05
2.60659592874e-05
2.83210140831e-05
2.05777340107e-05
2.34290439047e-05
6.70333560993e-05
2.75389403491e-05
2.14812010023e-05
3.10809556451e-05
7.73413725266e-05
8.3707894273e-06
1.84312291075e-05
6.68952887838e-05
5.24744977657e-05
3.7712246225e-05
3.91615555025e-05
3.35359291502e-05
3.36433939959e-05
1.77849394933e-05
1.43691536065e-05
7.96944535191e-06
1.19560101701e-07
2.58603513789e-06
6.4952806339e-06
6.86342793836e-06
9.16599029315e-08
6.07165248552e-06
2.08885911158e-06
6.6145939884e-06
4.51248297174e-07
2.21305558698e-06
7.82198408965e-06
2.07225265246e-05
1.89064258826e-05
6.35545472052e-06
3.86332074762e-07
2.77079467619e-07
7.16978507107e-07
6.04681814707e-06
1.93754492474e-07
1.96267534423e-06
5.62756368185e-06
2.6225194367e-06
7.03136506708e-08
1.34264810478e-06
6.50479058058e-06
2.6272312616e-06
1.70363899107e-07
7.01146385318e-06
1.25019120799e-06
7.93584727935e-07
1.22222060304e-06
5.02251947647e-06
6.64298712045e-06
1.81896233886e-05
1.86615835924e-05
6.3756042295e-06
4.75803832196e-07
3.00464665056e-06
1.30623222404e-06
2.6752351144e-06
6.95116111058e-08
5.34938036889e-06
3.93717558708e-07
5.06850138225e-06
1.17204589249e-06
8.42955537856e-06
7.69734008191e-06
1.64565654263e-05
0.000155692080779
7.2652364887e-06
1.0509732531e-07
9.84241712279e-06
5.45037556422e-06
1.97249790108e-05
1.11555274763e-05
6.97571682395e-06
8.74577480098e-07
8.23428825281e-06
2.76431401356e-06
8.58687564543e-06
1.82047939377e-05
2.93102899881e-06
3.26330292561e-06
5.77446011483e-06
5.38862263783e-06
5.38982080196e-06
3.40024126864e-06
1.21035740752e-05
8.42751889038e-06
2.56136741502e-05
2.22883627044e-05
7.00217825003e-07
1.59429848812e-06
6.54259396159e-06
8.51660409486e-06
9.49047139914e-06
1.2301342508e-05
3.54499843812e-06
5.83504896005e-08
1.91867026469e-05
5.06700313067e-05
3.01154531253e-06
1.31233221522e-07
2.67796465664e-06
4.21488876622e-06
5.07251718986e-06
9.06269087243e-07
3.68037661204e-06
2.94971244041e-06
1.15011419657e-06
7.70280226305e-06
4.4589357499e-06
1.28070849194e-07
9.95144657877e-07
6.88985152823e-07
6.31229970415e-05
6.22847757568e-05

