# vtk DataFile Version 3.0
File Name: Molecule/sphere_excent/sphere_excent_0-s5.vtk
ASCII
DATASET UNSTRUCTURED_GRID
FIELD FieldData 1
TIME 1 1 double
0.0
POINTS 96 double
0.5 0.809016994375 -0.309016994375
0.0 0.850650808352 -0.525731112119
0.0 1.0 0.0
0.5 0.809016994375 0.309016994375
0.0 0.850650808352 0.525731112119
-0.309016994375 0.5 0.809016994375
0.309016994375 0.5 0.809016994375
0.0 0.0 1.0
0.525731112119 0.0 0.850650808352
-0.309016994375 -0.5 0.809016994375
0.0 -0.850650808352 0.525731112119
0.309016994375 -0.5 0.809016994375
0.809016994375 -0.309016994375 0.5
0.5 -0.809016994375 0.309016994375
0.850650808352 -0.525731112119 0.0
0.309016994375 -0.5 -0.809016994375
0.0 -0.850650808352 -0.525731112119
-0.309016994375 -0.5 -0.809016994375
0.0 0.0 -1.0
-0.525731112119 0.0 -0.850650808352
1.0 0.0 0.0
0.809016994375 0.309016994375 0.5
-0.309016994375 0.5 -0.809016994375
-0.5 0.809016994375 -0.309016994375
-0.809016994375 0.309016994375 -0.5
-0.850650808352 -0.525731112119 0.0
-0.5 -0.809016994375 -0.309016994375
-0.5 -0.809016994375 0.309016994375
0.0 -1.0 0.0
-0.809016994375 -0.309016994375 0.5
-0.525731112119 0.0 0.850650808352
-0.809016994375 0.309016994375 0.5
-1.0 0.0 0.0
-0.809016994375 -0.309016994375 -0.5
0.5 -0.809016994375 -0.309016994375
0.309016994375 0.5 -0.809016994375
-0.25 0.904508497187 0.154508497188
-0.5 0.809016994375 0.309016994375
-0.25 0.904508497187 -0.154508497188
-0.5 0.809016994375 0.0
-0.675325404176 0.667374053247 0.154508497188
-0.675325404176 0.667374053247 -0.154508497188
-0.850650808352 0.525731112119 0.0
-0.404508497188 0.654508497187 0.559016994375
-0.654508497187 0.559016994375 0.404508497188
-0.559016994375 0.404508497188 0.654508497187
-0.829833901363 0.417374053247 0.25
0.904508497187 -0.154508497188 -0.25
0.809016994375 -0.309016994375 -0.5
0.809016994375 0.0 -0.5
0.904508497187 0.154508497188 -0.25
0.667374053247 -0.154508497188 -0.675325404176
0.667374053247 0.154508497188 -0.675325404176
0.809016994375 0.309016994375 -0.5
0.559016994375 0.404508497188 -0.654508497187
0.404508497188 0.654508497187 -0.559016994375
0.654508497187 0.559016994375 -0.404508497188
0.417374053247 0.25 -0.829833901363
0.850650808352 0.525731112119 0.0
0.675325404176 0.667374053247 -0.154508497188
0.675325404176 0.667374053247 0.154508497188
0.5 0.809016994375 0.0
0.904508497187 0.154508497188 0.25
0.925325404176 0.26286555606 0.0
0.829833901363 0.417374053247 0.25
0.654508497187 0.559016994375 0.404508497188
0.675325404176 -0.667374053247 -0.154508497188
0.654508497187 -0.559016994375 -0.404508497188
0.829833901363 -0.417374053247 -0.25
0.856762745781 0.231762745782 -0.375
0.952254248593 0.077254248594 -0.125
0.87757965277 0.340119804654 -0.125
0.829833901363 0.417374053247 -0.25
0.731762745781 0.434016994375 -0.452254248594
0.75257965277 0.542374053247 -0.202254248594
0.577254248593 0.684016994375 -0.356762745782
-0.154508497188 0.25 0.904508497187
-0.417374053247 0.25 0.829833901363
-0.26286555606 0.0 0.925325404176
-0.417374053247 -0.25 0.829833901363
-0.154508497188 -0.25 0.904508497187
0.525731112119 0.0 -0.850650808352
0.417374053247 -0.25 -0.829833901363
0.26286555606 0.0 -0.925325404176
0.154508497188 -0.25 -0.904508497187
-0.667374053247 -0.154508497188 -0.675325404176
-0.667374053247 0.154508497188 -0.675325404176
-0.809016994375 0.0 -0.5
-0.904508497187 -0.154508497188 -0.25
-0.904508497187 0.154508497188 -0.25
-0.829833901363 0.417374053247 -0.25
-0.925325404176 0.26286555606 0.0
0.596552582683 -0.077254248594 -0.762988106264
0.471552582683 0.125 -0.840242354857
0.488195523811 -0.327254248594 -0.742171199276
0.208687026623 0.125 -0.914916950682

CELLS 188 752
3 0 1 2
3 3 2 4
3 4 5 6
3 6 7 8
3 9 10 11
3 7 11 8
3 8 11 12
3 11 13 12
3 11 10 13
3 12 13 14
3 15 16 17
3 18 17 19
3 14 20 12
3 12 21 8
3 3 4 6
3 21 6 8
3 1 22 23
3 22 24 23
3 25 26 27
3 26 28 27
3 26 16 28
3 27 28 10
3 25 27 29
3 27 9 29
3 27 10 9
3 30 31 29
3 31 32 29
3 29 32 25
3 17 26 33
3 17 16 26
3 33 26 25
3 16 34 28
3 34 13 28
3 28 13 10
3 15 34 16
3 18 22 35
3 18 19 22
3 35 22 1
3 2 36 4
3 4 36 37
3 2 38 36
3 38 39 36
3 38 23 39
3 36 39 37
3 23 38 1
3 1 38 2
3 37 39 40
3 39 41 40
3 39 23 41
3 40 41 42
3 37 43 4
3 4 43 5
3 37 44 43
3 44 45 43
3 44 31 45
3 43 45 5
3 37 40 44
3 40 46 44
3 40 42 46
3 44 46 31
3 45 31 30
3 24 41 23
3 31 46 32
3 14 47 20
3 48 49 47
3 49 50 47
3 48 51 49
3 51 52 49
3 49 52 53
3 54 55 56
3 54 35 55
3 53 52 54
3 52 57 54
3 54 57 35
3 0 55 1
3 55 35 1
3 58 59 60
3 59 61 60
3 59 0 61
3 60 61 3
3 3 61 2
3 2 61 0
3 20 62 12
3 62 21 12
3 20 63 62
3 63 64 62
3 63 58 64
3 62 64 21
3 58 60 64
3 60 65 64
3 60 3 65
3 64 65 21
3 21 65 6
3 6 65 3
3 34 66 13
3 66 14 13
3 48 67 15
3 67 34 15
3 48 68 67
3 68 66 67
3 68 14 66
3 67 66 34
3 14 68 47
3 47 68 48
3 53 69 49
3 49 69 50
3 50 70 47
3 47 70 20
3 20 70 63
3 70 71 63
3 70 50 71
3 63 71 58
3 50 69 71
3 69 72 71
3 69 53 72
3 71 72 58
3 53 73 72
3 73 74 72
3 73 56 74
3 72 74 58
3 58 74 59
3 74 75 59
3 74 56 75
3 59 75 0
3 56 73 54
3 54 73 53
3 0 75 55
3 55 75 56
3 5 76 6
3 76 7 6
3 5 77 76
3 77 78 76
3 77 30 78
3 76 78 7
3 30 79 78
3 79 80 78
3 79 9 80
3 78 80 7
3 7 80 11
3 11 80 9
3 81 82 83
3 82 84 83
3 82 15 84
3 83 84 18
3 18 84 17
3 17 84 15
3 19 85 86
3 85 87 86
3 85 33 87
3 86 87 24
3 33 88 87
3 88 89 87
3 88 32 89
3 87 89 24
3 32 88 25
3 25 88 33
3 24 89 90
3 89 91 90
3 89 32 91
3 90 91 42
3 19 86 22
3 22 86 24
3 9 79 29
3 29 79 30
3 33 85 17
3 17 85 19
3 30 77 45
3 45 77 5
3 24 90 41
3 41 90 42
3 42 91 46
3 46 91 32
3 51 92 52
3 92 81 52
3 81 93 52
3 52 93 57
3 81 92 82
3 92 94 82
3 92 51 94
3 82 94 15
3 15 94 48
3 48 94 51
3 57 95 35
3 35 95 18
3 18 95 83
3 95 93 83
3 95 57 93
3 83 93 81

CELL_TYPES 188
5
5
5
5
5
5
5
5
5
5
5
5
5
5
5
5
5
5
5
5
5
5
5
5
5
5
5
5
5
5
5
5
5
5
5
5
5
5
5
5
5
5
5
5
5
5
5
5
5
5
5
5
5
5
5
5
5
5
5
5
5
5
5
5
5
5
5
5
5
5
5
5
5
5
5
5
5
5
5
5
5
5
5
5
5
5
5
5
5
5
5
5
5
5
5
5
5
5
5
5
5
5
5
5
5
5
5
5
5
5
5
5
5
5
5
5
5
5
5
5
5
5
5
5
5
5
5
5
5
5
5
5
5
5
5
5
5
5
5
5
5
5
5
5
5
5
5
5
5
5
5
5
5
5
5
5
5
5
5
5
5
5
5
5
5
5
5
5
5
5
5
5
5
5
5
5
5
5
5
5
5
5
5
5
5
5
5
5

CELL_DATA 188
SCALARS cell_data_0 double
LOOKUP_TABLE default
3.67704493462e-06
1.93340351728e-05
6.4073436332e-05
0.000132047330526
5.72899968515e-05
0.000134014389689
7.89892859117e-05
5.26932526234e-05
3.91676594824e-05
6.04330741617e-05
8.54656249621e-05
0.000384734839003
8.98242872432e-05
5.0905674237e-05
3.50080462627e-05
7.50147115187e-05
2.25654572607e-05
1.96030503068e-05
1.92451751352e-05
1.97160931379e-06
2.11122470156e-05
1.83601142764e-05
2.95708037428e-06
5.31011742656e-05
3.84493315058e-05
4.41113354614e-05
3.05000586686e-05
6.36258950513e-07
4.14826229831e-05
5.27507789035e-05
2.71945468757e-05
1.41576347066e-05
3.42236864148e-06
1.78938195282e-05
4.58105086202e-05
0.000166754263294
0.0003455604361
2.03595307736e-05
7.81101173717e-06
9.12963592662e-06
4.72058803823e-06
1.29936037414e-05
1.85186041905e-05
1.39580575736e-06
2.49833737684e-05
1.57851019154e-05
1.00173729786e-05
2.07673287988e-05
7.08316741897e-06
4.51283208807e-05
1.59119637032e-05
2.57045117086e-05
8.11525565384e-06
1.27112600978e-05
9.32679535977e-06
1.81583711427e-05
2.74248431291e-07
4.17618600361e-07
3.24489575471e-05
5.90281989143e-06
3.25622386274e-05
6.38190889843e-06
9.81449311852e-06
4.49471669569e-05
4.63314813392e-06
1.58701990646e-06
5.22563346577e-06
6.45190000586e-08
1.18566318342e-06
5.01104656323e-07
9.01774050513e-07
1.19553317287e-06
8.6663200635e-07
1.08491623431e-06
2.55766943365e-06
4.60306529413e-06
3.14627788315e-05
3.28501433358e-06
2.88918412491e-06
1.78400495073e-06
7.51293410229e-06
2.42957880718e-06
4.21164453895e-06
1.44834804121e-05
1.86800762929e-06
1.24628058396e-06
3.70865499486e-05
2.60507577104e-06
3.21395831315e-05
3.12302329633e-06
5.2959936427e-06
4.45333358471e-06
2.61512547986e-05
2.19491866095e-05
2.21849795801e-06
3.46459400655e-05
3.69107033922e-05
1.86304147224e-05
5.48314383531e-06
6.02691625012e-07
1.97032634915e-05
4.58658239605e-07
1.80334022864e-05
3.90894290029e-06
8.73063060072e-07
2.31643983375e-07
6.77667308565e-07
7.18723979065e-07
2.13978185208e-06
4.81649523164e-07
4.34083501952e-07
1.52818165412e-05
2.63117363021e-07
1.91229238003e-07
6.93085005186e-07
1.26159461045e-05
8.48014231387e-07
1.34929469235e-07
8.66558854769e-08
1.25592531102e-05
1.51058339124e-05
4.25068980458e-05
3.97028376135e-05
4.22512880229e-05
2.64394665005e-07
1.06536151196e-06
4.91582394612e-05
5.15285975091e-05
9.67875179563e-05
0.000137848350644
1.18758110149e-05
3.40562484266e-05
1.03386093719e-06
7.6255600883e-05
7.61751154033e-06
6.46587311225e-05
4.18457121223e-05
6.09958358037e-05
5.11422209186e-05
4.75315265439e-05
0.000107335696543
7.34618087342e-08
6.47668826738e-06
2.6034458565e-05
9.67582795136e-05
3.79495942224e-05
2.5738504208e-05
9.46448161792e-08
1.21532500492e-07
4.18883116544e-07
1.46880183094e-07
1.99361808452e-07
1.32290298593e-06
4.25984227017e-07
4.36543297557e-06
8.65695808093e-06
4.76984369548e-07
1.52728395101e-07
1.031790939e-06
1.92078173625e-05
6.7736372274e-05
6.74182633816e-06
2.31961905968e-06
4.77621318058e-05
1.19787678628e-05
8.06689403591e-05
7.74901610188e-06
1.18516817015e-05
2.42844091594e-06
2.36720140971e-05
1.49422456583e-05
3.07873621893e-06
1.07796344896e-07
5.45409665494e-05
5.46968281636e-05
5.80279390984e-07
5.3695038503e-05
3.28211304028e-08
3.32130314245e-08
3.31787621351e-06
1.5374908934e-05
5.65700766986e-06
1.30786835371e-06
2.71531087791e-05
1.30642592594e-05
3.27521002341e-08
4.63682364117e-07
5.38136166307e-05

