# vtk DataFile Version 3.0
File Name: Molecule/sphere_test/sphere_test_0-s2.vtk
ASCII
DATASET UNSTRUCTURED_GRID
FIELD FieldData 1
TIME 1 1 double
0.0
POINTS 45 double
0.850650808352 -0.525731112119 0.0
0.809016994375 -0.309016994375 -0.5
1.0 0.0 0.0
0.809016994375 0.309016994375 -0.5
0.525731112119 0.0 -0.850650808352
0.850650808352 0.525731112119 0.0
0.5 0.809016994375 -0.309016994375
0.309016994375 0.5 -0.809016994375
0.0 0.850650808352 -0.525731112119
0.5 0.809016994375 0.309016994375
0.0 1.0 0.0
0.0 0.850650808352 0.525731112119
-0.5 0.809016994375 0.309016994375
-0.309016994375 0.5 0.809016994375
-0.809016994375 0.309016994375 0.5
-0.850650808352 0.525731112119 0.0
-0.525731112119 0.0 0.850650808352
0.309016994375 0.5 0.809016994375
0.0 0.0 1.0
0.525731112119 0.0 0.850650808352
-0.309016994375 -0.5 0.809016994375
0.309016994375 -0.5 0.809016994375
0.0 -0.850650808352 0.525731112119
0.809016994375 -0.309016994375 0.5
0.5 -0.809016994375 0.309016994375
0.309016994375 -0.5 -0.809016994375
0.0 0.0 -1.0
-0.309016994375 -0.5 -0.809016994375
0.0 -0.850650808352 -0.525731112119
-0.525731112119 0.0 -0.850650808352
0.809016994375 0.309016994375 0.5
-0.809016994375 -0.309016994375 -0.5
-0.809016994375 0.309016994375 -0.5
-1.0 0.0 0.0
-0.850650808352 -0.525731112119 0.0
-0.309016994375 0.5 -0.809016994375
-0.5 0.809016994375 -0.309016994375
-0.5 -0.809016994375 -0.309016994375
-0.5 -0.809016994375 0.309016994375
0.0 -1.0 0.0
-0.809016994375 -0.309016994375 0.5
0.5 -0.809016994375 -0.309016994375
-0.26286555606 0.951056516295 0.162459848116
-0.26286555606 0.951056516295 -0.162459848116
-0.525731112119 0.850650808352 0.0

CELLS 86 344
3 0 1 2
3 1 3 2
3 1 4 3
3 2 3 5
3 5 3 6
3 3 7 6
3 3 4 7
3 6 7 8
3 5 6 9
3 6 10 9
3 6 8 10
3 9 10 11
3 11 12 13
3 12 14 13
3 12 15 14
3 13 14 16
3 11 13 17
3 13 18 17
3 13 16 18
3 17 18 19
3 16 20 18
3 20 21 18
3 20 22 21
3 18 21 19
3 19 21 23
3 21 24 23
3 21 22 24
3 23 24 0
3 4 25 26
3 25 27 26
3 25 28 27
3 26 27 29
3 0 2 23
3 2 30 23
3 2 5 30
3 23 30 19
3 5 9 30
3 9 17 30
3 9 11 17
3 30 17 19
3 29 31 32
3 31 33 32
3 31 34 33
3 32 33 15
3 8 35 36
3 35 32 36
3 35 29 32
3 36 32 15
3 34 37 38
3 37 39 38
3 37 28 39
3 38 39 22
3 34 38 40
3 38 20 40
3 38 22 20
3 40 20 16
3 16 14 40
3 14 33 40
3 14 15 33
3 40 33 34
3 29 27 31
3 27 37 31
3 27 28 37
3 31 37 34
3 28 41 39
3 41 24 39
3 41 0 24
3 39 24 22
3 4 1 25
3 1 41 25
3 1 0 41
3 25 41 28
3 4 26 7
3 26 35 7
3 26 29 35
3 7 35 8
3 10 42 11
3 11 42 12
3 10 43 42
3 43 44 42
3 43 36 44
3 42 44 12
3 36 43 8
3 8 43 10
3 12 44 15
3 44 36 15

CELL_TYPES 86
5
5
5
5
5
5
5
5
5
5
5
5
5
5
5
5
5
5
5
5
5
5
5
5
5
5
5
5
5
5
5
5
5
5
5
5
5
5
5
5
5
5
5
5
5
5
5
5
5
5
5
5
5
5
5
5
5
5
5
5
5
5
5
5
5
5
5
5
5
5
5
5
5
5
5
5
5
5
5
5
5
5
5
5
5
5

CELL_DATA 86
SCALARS cell_data_0 double
LOOKUP_TABLE default
0.000152035474621
0.000199648644368
3.94105661386e-05
0.00012006166902
2.06973090158e-05
0.000217462903657
0.000172026716315
0.000141532119951
6.84176565331e-05
0.000809082604645
0.000510106003757
0.000543035512561
6.61965373663e-05
0.000140775558234
0.000104054070145
6.4554244664e-05
6.87075508908e-05
0.000242150129115
0.00019529573814
0.000143657497286
0.000117193086311
0.000123279450261
5.26012942395e-05
0.000100225518718
4.33943777614e-05
3.87365918223e-05
3.61612941777e-05
1.47507872058e-05
2.49058065551e-05
3.2047202375e-05
1.40972065105e-06
3.41603113027e-05
7.42846751692e-05
1.24642897146e-05
3.9631628134e-05
3.78503420402e-05
2.60578146395e-05
8.63630784813e-06
4.33129787308e-06
7.04254708803e-05
1.37596813242e-05
3.38600858331e-06
8.34281496344e-07
4.58449274844e-06
0.000116563648575
0.000135627005269
1.15299004272e-05
0.00012258325692
1.24783675362e-06
5.00542678192e-07
1.00625088808e-06
1.25429757613e-05
1.25260051377e-06
5.10856876342e-05
4.13001391827e-05
7.37730647539e-05
4.74262619198e-05
9.82085630858e-06
1.58436014406e-06
4.57066105368e-06
9.95993072233e-06
7.30349020435e-06
1.95706409716e-06
5.70053314908e-06
1.00769329568e-06
1.01624731588e-05
3.60654123178e-06
1.86496356115e-05
9.85728008656e-06
1.15731959856e-05
3.15136727862e-05
2.66997412363e-07
0.00018085257091
0.000228440163169
3.71550158135e-05
0.000141323189571
0.000190980477352
2.34758784849e-05
0.00014270817571
1.20133679801e-07
2.90654162851e-05
2.72666790958e-05
5.47103388681e-05
0.00025282394338
5.18433407506e-05
5.65591498092e-05

