# vtk DataFile Version 3.0
File Name: Molecule/methanol/methanol_6.0-4.vtk
ASCII
DATASET UNSTRUCTURED_GRID
FIELD FieldData 1
TIME 1 1 double
0.0
POINTS 298 double
1.554 -0.436 -0.353
1.386 -0.842 -0.336
1.351 -0.397 -0.928
1.198 -0.767 -0.912
1.12 -1.191 -0.31
0.956 -1.085 -0.888
0.773 -1.459 -0.275
0.639 -1.329 -0.857
0.368 -1.627 -0.235
0.271 -1.482 -0.82
-0.065 -1.684 -0.192
-0.124 -1.534 -0.781
-0.499 -1.627 -0.149
-0.519 -1.482 -0.741
-0.903 -1.459 -0.108
-0.887 -1.329 -0.705
-1.251 -1.191 -0.074
-1.204 -1.085 -0.673
-1.517 -0.842 -0.047
-1.446 -0.767 -0.649
-1.684 -0.436 -0.031
-1.599 -0.397 -0.634
-1.742 0.0 -0.025
-1.651 0.0 -0.629
-1.684 0.436 -0.031
-1.599 0.397 -0.634
-1.517 0.842 -0.047
-1.446 0.767 -0.649
-1.251 1.191 -0.074
-1.204 1.085 -0.673
-0.903 1.459 -0.108
-0.887 1.329 -0.705
-0.499 1.627 -0.149
-0.519 1.482 -0.741
-0.065 1.684 -0.192
-0.124 1.534 -0.781
0.368 1.627 -0.235
0.271 1.482 -0.82
0.773 1.459 -0.275
0.639 1.329 -0.857
1.12 1.191 -0.31
0.956 1.085 -0.888
1.386 0.842 -0.336
1.198 0.767 -0.912
1.554 0.436 -0.353
1.351 0.397 -0.928
1.611 0.0 -0.359
1.907 0.0 0.656
1.859 0.42 0.656
1.859 0.21 1.019
1.859 -0.21 1.019
1.859 -0.42 0.656
1.859 -0.21 0.292
1.859 0.21 0.292
1.72 0.709 1.065
1.72 0.409 1.365
1.72 -0.0 1.475
1.72 -0.409 1.365
1.72 -0.709 1.065
1.72 -0.819 0.656
1.72 -0.709 0.246
1.72 -0.409 -0.054
1.72 -0.0 -0.163
1.72 0.409 -0.054
1.72 0.709 0.246
1.72 0.819 0.656
1.495 1.106 1.058
1.495 0.902 1.412
1.495 0.588 1.675
1.495 0.204 1.815
1.495 -0.204 1.815
1.495 -0.588 1.675
1.495 -0.902 1.412
1.495 -1.106 1.058
1.495 -1.177 0.656
1.495 -1.106 0.253
1.495 -0.902 -0.101
1.495 0.902 -0.101
1.495 1.106 0.253
1.495 1.177 0.656
1.196 1.416 1.071
1.196 1.241 1.453
1.196 0.966 1.771
1.196 0.613 1.998
1.196 0.21 2.116
1.196 -0.21 2.116
1.196 -0.613 1.998
1.196 -0.966 1.771
1.196 -1.241 1.453
1.196 -1.416 1.071
1.196 -1.476 0.656
1.196 -1.416 0.24
1.196 1.416 0.24
1.196 1.476 0.656
0.838 1.651 1.063
0.838 1.506 1.446
0.838 1.273 1.783
0.838 0.966 2.055
0.838 0.603 2.246
0.838 0.205 2.344
0.838 -0.205 2.344
0.838 -0.603 2.246
0.838 -0.966 2.055
0.838 -1.273 1.783
0.838 -1.506 1.446
0.838 -1.651 1.063
0.838 -1.701 0.656
0.838 -1.651 0.249
0.838 1.651 0.249
0.838 1.701 0.656
0.439 1.794 1.065
0.439 1.658 1.454
0.439 1.439 1.803
0.439 1.147 2.094
0.439 0.798 2.314
0.439 0.409 2.45
0.439 0.0 2.496
0.439 -0.409 2.45
0.439 -0.798 2.314
0.439 -1.147 2.094
0.439 -1.439 1.803
0.439 -1.658 1.454
0.439 -1.794 1.065
0.439 -1.84 0.656
0.439 -1.794 0.246
0.439 1.794 0.246
0.439 1.84 0.656
0.019 1.843 1.061
0.019 1.713 1.448
0.019 1.503 1.798
0.019 1.222 2.094
0.019 0.884 2.323
0.019 0.505 2.474
0.019 0.102 2.54
0.019 -0.305 2.518
0.019 -0.699 2.409
0.019 -1.059 2.218
0.019 -1.37 1.954
0.019 -1.617 1.629
0.019 -1.789 1.258
0.019 -1.876 0.86
0.019 -1.876 0.452
0.019 -1.789 0.053
0.019 1.843 0.25
0.019 1.888 0.656
-0.401 1.84 0.656
-0.401 1.794 1.065
-0.401 1.658 1.454
-0.401 1.439 1.803
-0.401 1.147 2.094
-0.401 0.798 2.314
-0.401 0.409 2.45
-0.401 0.0 2.496
-0.401 -0.409 2.45
-0.401 -0.798 2.314
-0.401 -1.147 2.094
-0.401 -1.439 1.803
-0.401 -1.658 1.454
-0.401 -1.794 1.065
-0.401 -1.84 0.656
-0.401 -1.794 0.246
-0.401 1.794 0.246
-0.8 1.701 0.656
-0.8 1.651 1.063
-0.8 1.506 1.446
-0.8 1.273 1.783
-0.8 0.966 2.055
-0.8 0.603 2.246
-0.8 0.205 2.344
-0.8 -0.205 2.344
-0.8 -0.603 2.246
-0.8 -0.966 2.055
-0.8 -1.273 1.783
-0.8 -1.506 1.446
-0.8 -1.651 1.063
-0.8 -1.701 0.656
-0.8 -1.651 0.249
-0.8 1.651 0.249
-1.158 1.476 0.656
-1.158 1.416 1.071
-1.158 1.241 1.453
-1.158 0.966 1.771
-1.158 0.613 1.998
-1.158 0.21 2.116
-1.158 -0.21 2.116
-1.158 -0.613 1.998
-1.158 -0.966 1.771
-1.158 -1.241 1.453
-1.158 -1.416 1.071
-1.158 -1.476 0.656
-1.158 -1.416 0.24
-1.158 1.416 0.24
-1.457 1.177 0.656
-1.457 1.106 1.058
-1.457 0.902 1.412
-1.457 0.588 1.675
-1.457 0.204 1.815
-1.457 -0.204 1.815
-1.457 -0.588 1.675
-1.457 -0.902 1.412
-1.457 -1.106 1.058
-1.457 -1.177 0.656
-1.457 -1.106 0.253
-1.457 1.106 0.253
-1.682 0.819 0.656
-1.682 0.709 1.065
-1.682 0.409 1.365
-1.682 -0.0 1.475
-1.682 -0.409 1.365
-1.682 -0.709 1.065
-1.682 -0.819 0.656
-1.682 -0.709 0.246
-1.682 0.709 0.246
-1.821 0.42 0.656
-1.821 0.21 1.019
-1.821 -0.21 1.019
-1.821 -0.42 0.656
-1.821 -0.21 0.292
-1.821 0.21 0.292
-1.868 -0.0 0.656
1.172 -0.719 -1.152
0.886 -0.986 -1.348
0.886 -0.699 -1.663
1.172 -0.415 -1.456
0.886 -0.317 -1.853
1.172 -0.0 -1.567
0.886 0.107 -1.892
1.172 0.415 -1.456
0.886 0.517 -1.776
0.886 0.857 -1.519
1.172 0.719 -1.152
0.886 1.082 -1.156
0.518 -1.328 -1.169
0.518 -1.13 -1.558
0.518 -0.821 -1.867
0.518 -0.431 -2.065
0.518 0.0 -2.133
0.518 0.431 -2.065
0.518 0.821 -1.867
0.518 1.13 -1.558
0.518 1.328 -1.169
0.099 -1.458 -1.165
0.099 -1.278 -1.559
0.099 -0.995 -1.885
0.099 -0.631 -2.119
0.099 -0.216 -2.241
0.099 0.216 -2.241
0.099 0.631 -2.119
0.099 0.995 -1.885
0.099 1.278 -1.559
0.099 1.458 -1.165
-0.338 -1.458 -1.165
-0.338 -1.278 -1.559
-0.338 -0.995 -1.885
-0.338 -0.631 -2.119
-0.338 -0.216 -2.241
-0.338 0.216 -2.241
-0.338 0.631 -2.119
-0.338 0.995 -1.885
-0.338 1.278 -1.559
-0.338 1.458 -1.165
-0.757 -1.328 -1.169
-0.757 -1.13 -1.558
-0.757 -0.821 -1.867
-0.757 -0.431 -2.065
-0.757 0.0 -2.133
-0.757 0.431 -2.065
-0.757 0.821 -1.867
-0.757 1.13 -1.558
-0.757 1.328 -1.169
-1.125 -1.14 -0.95
-1.125 -0.986 -1.348
-1.125 -0.699 -1.663
-1.125 -0.317 -1.853
-1.125 0.107 -1.892
-1.125 0.517 -1.776
-1.125 0.857 -1.519
-1.125 1.082 -1.156
-1.411 -0.719 -1.152
-1.411 -0.415 -1.456
-1.411 -0.0 -1.567
-1.411 0.415 -1.456
-1.411 0.719 -1.152
-1.593 -0.216 -1.112
-1.593 0.216 -1.112
1.403 0.0 -0.933
1.5825 -0.218 -0.356
1.507 0.0 -0.646
1.4785 -0.218 -0.643
1.172 0.2075 -1.5115
1.2875 0.2075 -1.1945
1.2875 0.0 -1.25
1.2615 0.406 -1.192
1.31925 0.30225 -1.06125
1.22975 0.31125 -1.32525
1.245625 0.358625 -1.258625
1.2745 0.30675 -1.19325
1.290375 0.354125 -1.126625

CELLS 592 2368
3 0 1 2
3 2 1 3
3 1 4 3
3 3 4 5
3 4 6 5
3 5 6 7
3 6 8 7
3 7 8 9
3 8 10 9
3 9 10 11
3 10 12 11
3 11 12 13
3 12 14 13
3 13 14 15
3 14 16 15
3 15 16 17
3 16 18 17
3 17 18 19
3 18 20 19
3 19 20 21
3 20 22 21
3 21 22 23
3 22 24 23
3 23 24 25
3 24 26 25
3 25 26 27
3 26 28 27
3 27 28 29
3 28 30 29
3 29 30 31
3 30 32 31
3 31 32 33
3 32 34 33
3 33 34 35
3 34 36 35
3 35 36 37
3 36 38 37
3 37 38 39
3 38 40 39
3 39 40 41
3 40 42 41
3 41 42 43
3 42 44 43
3 43 44 45
3 44 46 45
3 47 48 49
3 47 49 50
3 47 50 51
3 47 51 52
3 47 52 53
3 47 53 48
3 49 48 54
3 49 54 55
3 49 55 56
3 50 49 56
3 50 56 57
3 50 57 58
3 51 50 58
3 51 58 59
3 51 59 60
3 52 51 60
3 52 60 61
3 52 61 62
3 53 52 62
3 53 62 63
3 53 63 64
3 48 53 64
3 48 64 65
3 48 65 54
3 54 65 66
3 54 66 67
3 55 54 67
3 55 67 68
3 55 68 69
3 56 55 69
3 56 69 70
3 57 56 70
3 57 70 71
3 57 71 72
3 58 57 72
3 58 72 73
3 59 58 73
3 59 73 74
3 59 74 75
3 60 59 75
3 60 75 76
3 61 60 76
3 64 63 77
3 64 77 78
3 65 64 78
3 65 78 79
3 65 79 66
3 66 79 80
3 66 80 81
3 67 66 81
3 67 81 82
3 68 67 82
3 68 82 83
3 69 68 83
3 69 83 84
3 69 84 85
3 70 69 85
3 70 85 86
3 71 70 86
3 71 86 87
3 72 71 87
3 72 87 88
3 73 72 88
3 73 88 89
3 74 73 89
3 74 89 90
3 74 90 91
3 75 74 91
3 79 78 92
3 79 92 93
3 79 93 80
3 80 93 94
3 80 94 95
3 81 80 95
3 81 95 96
3 82 81 96
3 82 96 97
3 83 82 97
3 83 97 98
3 84 83 98
3 84 98 99
3 84 99 100
3 85 84 100
3 85 100 101
3 86 85 101
3 86 101 102
3 87 86 102
3 87 102 103
3 88 87 103
3 88 103 104
3 89 88 104
3 89 104 105
3 90 89 105
3 90 105 106
3 90 106 107
3 91 90 107
3 93 92 108
3 93 108 109
3 93 109 94
3 94 109 110
3 94 110 111
3 95 94 111
3 95 111 112
3 96 95 112
3 96 112 113
3 97 96 113
3 97 113 114
3 98 97 114
3 98 114 115
3 99 98 115
3 99 115 116
3 100 99 116
3 100 116 117
3 101 100 117
3 101 117 118
3 102 101 118
3 102 118 119
3 103 102 119
3 103 119 120
3 104 103 120
3 104 120 121
3 105 104 121
3 105 121 122
3 106 105 122
3 106 122 123
3 106 123 124
3 107 106 124
3 109 108 125
3 109 125 126
3 109 126 110
3 110 126 127
3 110 127 128
3 111 110 128
3 111 128 129
3 112 111 129
3 112 129 130
3 113 112 130
3 113 130 131
3 114 113 131
3 114 131 132
3 115 114 132
3 115 132 133
3 116 115 133
3 116 133 134
3 117 116 134
3 117 134 135
3 118 117 135
3 118 135 136
3 119 118 136
3 119 136 137
3 120 119 137
3 120 137 138
3 121 120 138
3 121 138 139
3 122 121 139
3 122 139 140
3 123 122 140
3 123 140 141
3 124 123 141
3 124 141 142
3 126 125 143
3 126 143 144
3 126 144 127
3 127 144 145
3 127 145 146
3 128 127 146
3 128 146 147
3 129 128 147
3 129 147 148
3 130 129 148
3 130 148 149
3 131 130 149
3 131 149 150
3 132 131 150
3 132 150 151
3 133 132 151
3 133 151 152
3 134 133 152
3 134 152 153
3 135 134 153
3 135 153 154
3 136 135 154
3 136 154 155
3 137 136 155
3 137 155 156
3 138 137 156
3 138 156 157
3 139 138 157
3 139 157 158
3 140 139 158
3 140 158 159
3 141 140 159
3 141 159 160
3 142 141 160
3 145 143 161
3 144 143 145
3 146 145 162
3 146 162 163
3 147 146 163
3 147 163 164
3 148 147 164
3 148 164 165
3 149 148 165
3 149 165 166
3 150 149 166
3 150 166 167
3 151 150 167
3 151 167 168
3 152 151 168
3 152 168 169
3 153 152 169
3 153 169 170
3 154 153 170
3 154 170 171
3 155 154 171
3 155 171 172
3 156 155 172
3 156 172 173
3 157 156 173
3 157 173 174
3 158 157 174
3 158 174 175
3 159 158 175
3 160 159 175
3 160 175 176
3 162 161 177
3 145 161 162
3 163 162 178
3 163 178 179
3 164 163 179
3 164 179 180
3 165 164 180
3 165 180 181
3 166 165 181
3 166 181 182
3 167 166 182
3 167 182 183
3 168 167 183
3 168 183 184
3 169 168 184
3 170 169 184
3 170 184 185
3 171 170 185
3 171 185 186
3 172 171 186
3 172 186 187
3 173 172 187
3 173 187 188
3 174 173 188
3 174 188 189
3 175 174 189
3 176 175 189
3 176 189 190
3 178 177 191
3 162 177 178
3 179 178 192
3 179 192 193
3 180 179 193
3 180 193 194
3 181 180 194
3 181 194 195
3 182 181 195
3 182 195 196
3 183 182 196
3 183 196 197
3 184 183 197
3 185 184 197
3 185 197 198
3 186 185 198
3 186 198 199
3 187 186 199
3 187 199 200
3 188 187 200
3 188 200 201
3 189 188 201
3 190 189 201
3 190 201 202
3 192 191 203
3 178 191 192
3 193 192 204
3 193 204 205
3 194 193 205
3 194 205 206
3 195 194 206
3 196 195 206
3 196 206 207
3 197 196 207
3 197 207 208
3 198 197 208
3 199 198 208
3 199 208 209
3 200 199 209
3 200 209 210
3 201 200 210
3 202 201 210
3 202 210 211
3 204 203 212
3 192 203 204
3 205 204 213
3 205 213 214
3 206 205 214
3 207 206 214
3 207 214 215
3 208 207 215
3 209 208 215
3 209 215 216
3 210 209 216
3 211 210 216
3 211 216 217
3 213 212 218
3 204 212 213
3 214 213 219
3 215 214 219
3 216 215 219
3 217 216 219
3 218 217 219
3 213 218 219
3 218 212 24
3 218 24 22
3 218 22 217
3 217 22 20
3 217 20 211
3 211 20 18
3 211 18 202
3 202 18 16
3 202 16 190
3 190 16 14
3 190 14 176
3 176 14 12
3 176 12 160
3 160 12 10
3 160 10 142
3 142 10 8
3 142 8 124
3 124 8 107
3 107 8 6
3 107 6 91
3 91 6 4
3 91 4 75
3 75 4 76
3 76 4 1
3 76 1 0
3 76 0 61
3 61 0 62
3 62 46 44
3 62 44 63
3 63 44 77
3 77 44 42
3 77 42 40
3 77 40 78
3 78 40 92
3 92 40 38
3 92 38 108
3 108 38 36
3 108 36 125
3 125 36 143
3 143 36 34
3 143 34 161
3 161 34 32
3 161 32 177
3 177 32 30
3 177 30 191
3 191 30 28
3 191 28 203
3 203 28 26
3 203 26 212
3 212 26 24
3 220 221 222
3 223 220 222
3 223 222 224
3 225 223 224
3 225 224 226
3 227 226 228
3 227 228 229
3 230 227 229
3 230 229 231
3 221 232 233
3 222 221 233
3 222 233 234
3 222 234 235
3 224 222 235
3 224 235 236
3 226 224 236
3 226 236 237
3 228 226 237
3 228 237 238
3 229 228 238
3 229 238 239
3 231 229 239
3 231 239 240
3 232 241 242
3 233 232 242
3 233 242 243
3 234 233 243
3 234 243 244
3 235 234 244
3 235 244 245
3 236 235 245
3 236 245 246
3 237 236 246
3 237 246 247
3 238 237 247
3 238 247 248
3 239 238 248
3 239 248 249
3 240 239 249
3 240 249 250
3 241 251 252
3 242 241 252
3 242 252 253
3 243 242 253
3 243 253 254
3 244 243 254
3 245 244 254
3 245 254 255
3 245 255 256
3 246 245 256
3 246 256 257
3 247 246 257
3 247 257 258
3 248 247 258
3 248 258 259
3 249 248 259
3 249 259 260
3 250 249 260
3 252 251 261
3 252 261 262
3 253 252 262
3 253 262 263
3 254 253 263
3 254 263 264
3 255 254 264
3 255 264 265
3 256 255 265
3 256 265 266
3 257 256 266
3 257 266 267
3 258 257 267
3 258 267 268
3 259 258 268
3 259 268 269
3 260 259 269
3 261 270 271
3 262 261 271
3 262 271 272
3 263 262 272
3 264 263 272
3 264 272 273
3 265 264 273
3 265 273 274
3 266 265 274
3 266 274 275
3 267 266 275
3 267 275 276
3 268 267 276
3 268 276 277
3 269 268 277
3 271 270 278
3 272 271 278
3 272 278 279
3 273 272 279
3 273 279 280
3 274 273 280
3 274 280 281
3 275 274 281
3 276 275 281
3 276 281 282
3 277 276 282
3 279 278 283
3 280 279 283
3 280 283 284
3 281 280 284
3 282 281 284
3 282 284 25
3 282 25 27
3 282 27 29
3 282 29 277
3 277 29 31
3 277 31 269
3 269 31 33
3 269 33 260
3 260 33 35
3 260 35 250
3 250 35 37
3 250 37 240
3 240 37 39
3 240 39 231
3 231 39 41
3 231 41 230
3 230 41 43
3 230 43 45
3 223 285 2
3 223 2 220
3 220 2 3
3 220 3 5
3 220 5 221
3 221 5 232
3 232 5 7
3 232 7 9
3 232 9 241
3 241 9 11
3 241 11 251
3 251 11 13
3 251 13 261
3 261 13 15
3 261 15 270
3 270 15 17
3 270 17 19
3 270 19 278
3 278 19 21
3 278 21 283
3 283 21 23
3 283 23 284
3 284 23 25
3 46 286 287
3 286 288 287
3 286 0 288
3 287 288 285
3 285 288 2
3 288 0 2
3 46 287 45
3 45 287 285
3 0 286 62
3 62 286 46
3 227 289 226
3 289 225 226
3 290 291 289
3 290 285 291
3 289 291 225
3 225 291 223
3 291 285 223
3 45 292 230
3 230 292 227
3 290 293 285
3 285 293 45
3 227 294 289
3 294 290 289
3 294 295 227
3 227 295 292
3 294 296 295
3 296 297 295
3 296 293 297
3 295 297 292
3 293 296 290
3 294 296 290
3 292 297 45
3 297 293 45

CELL_TYPES 592
5
5
5
5
5
5
5
5
5
5
5
5
5
5
5
5
5
5
5
5
5
5
5
5
5
5
5
5
5
5
5
5
5
5
5
5
5
5
5
5
5
5
5
5
5
5
5
5
5
5
5
5
5
5
5
5
5
5
5
5
5
5
5
5
5
5
5
5
5
5
5
5
5
5
5
5
5
5
5
5
5
5
5
5
5
5
5
5
5
5
5
5
5
5
5
5
5
5
5
5
5
5
5
5
5
5
5
5
5
5
5
5
5
5
5
5
5
5
5
5
5
5
5
5
5
5
5
5
5
5
5
5
5
5
5
5
5
5
5
5
5
5
5
5
5
5
5
5
5
5
5
5
5
5
5
5
5
5
5
5
5
5
5
5
5
5
5
5
5
5
5
5
5
5
5
5
5
5
5
5
5
5
5
5
5
5
5
5
5
5
5
5
5
5
5
5
5
5
5
5
5
5
5
5
5
5
5
5
5
5
5
5
5
5
5
5
5
5
5
5
5
5
5
5
5
5
5
5
5
5
5
5
5
5
5
5
5
5
5
5
5
5
5
5
5
5
5
5
5
5
5
5
5
5
5
5
5
5
5
5
5
5
5
5
5
5
5
5
5
5
5
5
5
5
5
5
5
5
5
5
5
5
5
5
5
5
5
5
5
5
5
5
5
5
5
5
5
5
5
5
5
5
5
5
5
5
5
5
5
5
5
5
5
5
5
5
5
5
5
5
5
5
5
5
5
5
5
5
5
5
5
5
5
5
5
5
5
5
5
5
5
5
5
5
5
5
5
5
5
5
5
5
5
5
5
5
5
5
5
5
5
5
5
5
5
5
5
5
5
5
5
5
5
5
5
5
5
5
5
5
5
5
5
5
5
5
5
5
5
5
5
5
5
5
5
5
5
5
5
5
5
5
5
5
5
5
5
5
5
5
5
5
5
5
5
5
5
5
5
5
5
5
5
5
5
5
5
5
5
5
5
5
5
5
5
5
5
5
5
5
5
5
5
5
5
5
5
5
5
5
5
5
5
5
5
5
5
5
5
5
5
5
5
5
5
5
5
5
5
5
5
5
5
5
5
5
5
5
5
5
5
5
5
5
5
5
5
5
5
5
5
5
5
5
5
5
5
5
5
5
5
5
5
5
5
5
5
5
5
5
5
5
5
5
5
5
5
5
5
5
5
5
5
5
5
5
5
5
5
5
5
5
5
5
5
5
5
5
5
5
5
5
5
5
5
5
5
5
5
5
5
5
5
5
5
5
5
5
5
5
5
5
5
5
5
5
5
5
5
5
5
5
5
5
5
5
5
5
5
5
5
5
5
5
5
5
5
5
5
5
5
5

CELL_DATA 592
SCALARS cell_data_0 double
LOOKUP_TABLE default
4.819506793e-09
4.4633294903e-09
9.16561113486e-10
1.05381943117e-09
1.52872710936e-09
2.02781867054e-09
1.62527449371e-09
2.10301343983e-09
1.41990342712e-09
1.67876894346e-09
1.09709285839e-09
1.52260218545e-09
8.06436975358e-10
1.7858522142e-09
1.35909595966e-09
1.94164152732e-09
1.01946538956e-09
1.48201107895e-09
9.06293952683e-10
9.12641351577e-10
7.72147098512e-10
1.11786629263e-09
9.62889938343e-10
1.81064070035e-09
1.32635886593e-09
1.93404701149e-09
1.06374544145e-09
1.8905514844e-09
1.44195804453e-09
2.01951968906e-09
1.75829067009e-09
2.6172199867e-09
2.22588398665e-09
3.17436858522e-09
2.54131971709e-09
3.39621134862e-09
2.38304543553e-09
1.75030422548e-09
5.45274347151e-10
8.13543165844e-09
6.50643490474e-09
3.55055438482e-08
2.53064763812e-08
2.46686903798e-08
5.7454265197e-09
3.30552126134e-10
2.51895719158e-10
2.28415789843e-10
3.96842567106e-10
4.82699369909e-10
3.84403747684e-10
5.04266867073e-10
4.18253083616e-10
4.63470394748e-10
4.6646807304e-10
2.38954311323e-10
5.19721520385e-10
7.97120772823e-10
6.31211289026e-10
2.12793393385e-10
1.89798325927e-10
3.09808803191e-10
1.51705599163e-10
7.38495681764e-10
5.38451625263e-10
4.42882113382e-10
4.98590870242e-10
3.46246666352e-10
4.02474212282e-10
3.854592453e-10
3.48789203803e-10
4.19518200919e-10
3.26097670578e-10
2.90147461453e-10
4.29477675695e-10
3.37166392035e-10
2.83860835791e-10
2.18343168606e-10
2.28547610375e-10
5.90247182208e-10
9.19165086898e-10
1.03460458655e-09
1.06835363007e-09
1.68249886935e-09
4.37840726699e-10
1.98806144589e-10
5.38562390023e-10
4.58573526768e-10
3.47762109702e-10
3.16589204928e-10
2.98135919923e-10
3.09997617218e-10
3.12180656033e-10
2.83042418037e-10
3.00145758835e-10
2.67457996182e-10
2.88526603095e-10
2.41677425392e-10
2.39654300149e-10
2.42625415484e-10
2.43799521198e-10
2.2557010635e-10
2.18755744749e-10
3.00303669084e-10
2.3824143203e-10
2.78613572003e-10
3.42812668133e-10
6.88729763847e-10
5.6447973169e-10
7.99951132748e-10
9.65589310095e-10
8.38420453854e-10
1.13072609467e-09
2.80135842698e-10
3.0490189319e-10
3.27537277942e-10
3.06189380601e-10
2.36246508387e-10
2.44973185527e-10
2.63679623556e-10
3.02920287045e-10
2.73794453999e-10
2.26528074774e-10
2.08915585349e-10
2.48920385269e-10
2.32654493763e-10
2.16086695e-10
2.24523549555e-10
2.26711677217e-10
2.45742027196e-10
2.70252993284e-10
2.13184977521e-10
1.62443575205e-10
2.76084557061e-10
3.52553329526e-10
3.75185282379e-10
1.15874593286e-10
7.42065109122e-11
7.41731189184e-11
2.56005775135e-10
3.99708414833e-10
2.89395702175e-10
3.06382413669e-10
3.04826824653e-10
2.57197477949e-10
2.38428833574e-10
2.31629425935e-10
2.04390643598e-10
2.44500809675e-10
1.78078699449e-10
1.91242036498e-10
1.4699837122e-10
2.30093782348e-10
2.25445481553e-10
2.06569176932e-10
2.07686922307e-10
2.00240949435e-10
1.95513797563e-10
2.24407976865e-10
2.05769549287e-10
2.50259199188e-10
2.0387397768e-10
1.88251820714e-10
1.49561399993e-10
2.28090269961e-10
2.1949288566e-10
1.35385216089e-10
6.91558173945e-11
5.28299131291e-11
9.84833651978e-11
1.43729612068e-10
2.42038663089e-10
2.01439765504e-10
1.93144972088e-10
2.55412311823e-10
2.18470631766e-10
2.13993800392e-10
2.36569476221e-10
2.06597601476e-10
1.84461386412e-10
1.8329014641e-10
1.43250903881e-10
1.73258140866e-10
1.70752152917e-10
1.78337798054e-10
1.5827477648e-10
1.3015794824e-10
2.02583100277e-10
1.73418724769e-10
1.80854607047e-10
1.79215842631e-10
1.83373633624e-10
1.72634200255e-10
1.59966317394e-10
1.66791296352e-10
1.72971331886e-10
1.4392169718e-10
1.37951289944e-10
1.00722507949e-10
8.00536433007e-11
6.15897328812e-11
1.20510875474e-10
1.38998439008e-10
1.28114867205e-10
1.26951378727e-10
1.64434288543e-10
2.13390384852e-10
2.33921488804e-10
1.86518669368e-10
1.59570861009e-10
1.94285377894e-10
1.62517947781e-10
1.48648462866e-10
1.24276661497e-10
1.77323319035e-10
1.77184455537e-10
2.10648258562e-10
1.51297587809e-10
1.19762338634e-10
9.71964201971e-11
1.26983114427e-10
1.56163266758e-10
1.34085960369e-10
1.28635541508e-10
1.65942311583e-10
1.76444681456e-10
1.7795079727e-10
1.25824221111e-10
1.30976461363e-10
1.48814867796e-10
1.49918414895e-10
1.2328581146e-10
9.30816772897e-11
6.63127400467e-11
4.07004039364e-11
1.30085811249e-10
1.70016619913e-10
1.57157507161e-10
1.06044074215e-10
6.11451302804e-11
1.59767341e-10
1.40365522666e-10
1.41652558958e-10
1.3854206484e-10
1.29577905263e-10
1.29425921847e-10
1.53961431043e-10
1.49982093232e-10
1.73729944874e-10
1.43412623833e-10
1.42575388152e-10
1.2398220115e-10
1.44001318541e-10
1.42708293295e-10
1.12440623024e-10
1.13942692394e-10
1.29466093011e-10
1.49733068628e-10
1.27435172317e-10
9.72611133595e-11
1.05333150544e-10
1.41576984263e-10
1.24662189738e-10
1.0790511653e-10
7.13314946389e-11
4.81472122237e-11
1.01066746358e-11
9.27656334095e-11
1.83390731741e-10
1.70403393327e-10
1.484230526e-11
9.87692391758e-11
1.21614167049e-10
1.25717887553e-10
1.40389742876e-10
1.40026898592e-10
1.36452920933e-10
1.09926878114e-10
1.32719053896e-10
1.53902566101e-10
1.80991725151e-10
1.53334779923e-10
1.21101902961e-10
1.07123137581e-10
9.43561565801e-11
9.9254926954e-11
1.0747218287e-10
1.08268416646e-10
1.00680858833e-10
1.09392986625e-10
1.06870439966e-10
9.5334901022e-11
6.05183583371e-11
4.05639472772e-12
1.18994944624e-10
4.28659737863e-11
9.24156099924e-11
9.94667814828e-11
2.22205219618e-11
8.11770648083e-11
1.09892992817e-10
1.03069222025e-10
1.22982286348e-10
1.16764149408e-10
9.44438465932e-11
7.37723031716e-11
8.871524059e-11
1.24221444742e-10
1.53484610923e-10
1.1659403353e-10
9.85529164489e-11
9.25668035808e-11
1.04794584515e-10
1.02189050824e-10
9.16959378936e-11
8.73133093364e-11
6.88023437488e-11
8.11618596331e-12
7.36602108483e-11
6.93301802293e-11
2.13276546354e-10
2.32624627203e-10
1.57719127993e-11
7.84055968549e-11
9.10566456199e-11
9.4005516521e-11
9.95840261964e-11
1.05702318143e-10
8.42057185589e-11
8.61082377783e-11
1.02374580398e-10
9.6274215636e-11
9.03938419618e-11
8.40001739384e-11
8.00128464301e-11
3.55054308047e-11
3.88655963897e-12
6.73890265851e-11
1.52680583876e-10
1.82753964066e-10
1.50320301319e-10
2.81713019177e-11
5.20720259572e-11
8.40639634236e-11
8.37527750272e-11
8.15197419966e-11
8.55223893611e-11
6.41353177898e-11
5.71166429892e-11
2.02564623025e-11
3.1061292286e-13
2.10105140764e-11
2.51387761239e-10
3.77692533048e-10
9.14972791681e-11
4.44765483727e-11
1.75982643063e-09
1.76899998094e-09
1.71205775212e-09
1.69676169922e-09
1.73287759905e-09
1.80199888376e-09
2.29374550647e-10
3.4012807116e-10
1.80599946226e-10
1.33642162722e-10
1.62557413903e-10
3.12523501912e-11
1.19581265009e-11
1.40459120803e-10
2.3526352971e-11
2.80825372189e-11
3.66443780645e-11
1.08240110817e-10
3.7497658398e-11
7.0230046284e-11
2.12410038105e-11
2.59735390851e-10
1.95776659724e-10
1.54714479807e-10
5.75296042914e-10
1.70509955053e-11
4.43177145484e-10
1.1284299416e-10
2.38958531709e-10
4.01667186488e-10
1.06068008012e-09
4.91779786624e-10
2.86039212989e-10
2.12275599413e-09
1.36303427671e-09
1.63605746349e-09
4.4818730781e-10
7.12644441115e-10
1.56322745288e-10
1.12164720802e-10
5.80039921972e-10
1.13484801654e-10
4.20692260887e-10
6.69621531592e-12
6.03569160312e-11
5.5043580803e-10
2.39513172187e-10
5.58914002873e-10
2.85245071923e-10
4.44699392023e-10
1.74947413566e-10
2.91611439718e-10
1.93798879536e-10
2.03587923016e-10
1.17721326836e-10
1.12239243171e-10
4.52673140255e-08
4.08736636808e-08
4.79449603974e-08
2.72911800344e-08
2.83920230707e-08
3.42646277773e-08
2.41157040773e-08
3.82723077768e-08
2.07094811543e-08
4.6402840493e-09
4.30904952317e-08
2.85597884348e-08
3.2065459012e-08
4.25166326294e-08
6.47649260614e-09
1.18398633976e-08
5.04228043276e-09
1.92341205712e-08
9.88444405703e-09
1.0593489446e-08
1.78351982799e-09
1.81147081979e-09
1.84374973107e-09
1.50278316834e-09
1.03054417799e-09
1.30382633324e-09
8.40622939117e-10
1.10713999892e-09
1.63053137001e-10
6.43552267426e-10
6.32376000662e-10
8.43628437039e-10
3.7946719202e-10
1.66760086786e-09
1.66500512022e-09
2.36194434762e-09
2.4962576834e-09
2.80774188164e-09
2.33818931766e-09
1.63085236329e-09
1.84835832556e-09
1.50405078928e-09
1.28952152069e-09
1.87516992146e-09
2.1892178219e-09
2.24522615772e-09
1.5024340673e-09
1.67934566322e-09
1.94101218109e-09
1.69062151717e-09
2.17829126032e-09
2.24288006794e-09
2.55732136328e-09
2.83718919687e-09
2.60876153134e-09
2.57475263902e-09
1.73176208567e-09
1.48133929864e-09
1.73566895918e-09
1.81349919665e-09
1.63261466692e-09
1.62417184957e-09
1.4613733775e-09
1.77712334853e-09
1.91983718678e-09
1.7522773033e-09
2.1689240418e-09
1.86220902775e-09
2.17437930397e-09
1.84499876169e-09
2.07960758306e-09
1.8639263515e-09
1.95680794423e-09
1.28939939262e-09
9.75933423113e-10
1.30389562159e-09
1.33859107382e-09
1.51135092336e-09
1.91125534389e-09
1.56679344514e-09
1.51952659312e-09
1.45076148801e-09
1.89489612378e-09
1.67238323542e-09
1.7458495822e-09
1.39339870454e-09
1.48569064363e-09
1.55945748223e-09
1.23139562523e-09
7.14717268603e-10
1.41785316916e-09
1.09088083199e-09
1.2341919291e-09
1.32563052162e-09
1.10929503038e-09
1.6165639125e-09
1.27433181539e-09
1.5205187189e-09
1.04456840226e-09
1.15666690869e-09
1.08518240831e-09
1.25327762777e-09
9.27220937106e-10
2.66799276598e-08
2.31208617503e-08
2.28661449887e-08
3.24548132754e-08
2.19216859673e-09
1.8308388265e-09
1.59489192778e-09
1.6940581082e-09
1.05275779549e-09
1.67524090455e-09
1.2222676904e-09
2.17750424204e-09
1.86112897675e-09
2.32932122374e-09
1.89329778226e-09
1.61356639726e-09
1.29078746243e-09
2.27918954118e-09
2.28677795408e-08
4.24365099887e-08
3.15227640637e-08
1.4995375677e-08
1.01657400437e-08
2.67037319314e-09
8.25911071378e-11
5.23059790884e-09
5.47001709975e-09
1.30775296347e-09
1.39847730039e-09
1.51257352734e-09
1.36921998846e-09
1.71291915325e-09
1.64284011224e-09
1.52350040452e-09
1.59561867484e-09
1.80654972853e-09
1.34774163805e-09
1.06530517823e-09
2.29791164571e-09
1.18121243331e-09
1.69030950259e-09
1.16183638772e-09
2.56901343421e-08
2.3183937699e-08
1.13659467077e-10
2.82008142161e-09
4.429122248e-10
6.69209879069e-09
1.2071951896e-08
1.22510473006e-08
4.68195567456e-09
4.26407304366e-09
2.20665311424e-09
9.98431566829e-10
4.078804156e-08
4.90836264598e-08
1.37826085445e-07
8.20916259909e-08
5.78830096526e-08
4.56518965652e-08
3.01438027654e-08
1.75910882257e-07
2.0367612499e-07
3.09736099185e-08
5.42843874595e-08
1.1596427064e-08
5.03309807e-08
2.0273707329e-07
1.71318421366e-07
1.67896518622e-07
2.43557332201e-07
1.44323612998e-07
1.76180762742e-07
1.17406933372e-07
9.85216172301e-08
1.06969536373e-07
1.44412052349e-07

