# vtk DataFile Version 3.0
File Name: Molecule/methanol/methanol_4.0-2.vtk
ASCII
DATASET UNSTRUCTURED_GRID
FIELD FieldData 1
TIME 1 1 double
0.0
POINTS 224 double
1.611 0.0 -0.359
1.51 -0.576 -0.349
1.403 0.0 -0.933
1.219 -1.083 -0.32
0.773 -1.459 -0.275
1.046 -0.986 -0.897
0.639 -1.329 -0.857
0.226 -1.659 -0.221
0.141 -1.511 -0.807
-0.356 -1.659 -0.163
-0.389 -1.511 -0.754
-0.903 -1.459 -0.108
-0.887 -1.329 -0.705
-1.349 -1.083 -0.064
-1.294 -0.986 -0.664
-1.64 -0.576 -0.035
-1.559 -0.525 -0.638
-1.742 -0.0 -0.025
-1.651 -0.0 -0.629
-1.64 0.576 -0.035
-1.559 0.525 -0.638
-1.349 1.083 -0.064
-1.294 0.986 -0.664
-0.903 1.459 -0.108
-0.887 1.329 -0.705
-0.356 1.659 -0.163
-0.389 1.511 -0.754
0.226 1.659 -0.221
0.141 1.511 -0.807
0.773 1.459 -0.275
0.639 1.329 -0.857
1.219 1.083 -0.32
1.046 0.986 -0.897
1.51 0.576 -0.349
1.311 0.525 -0.924
1.907 0.0 0.656
1.83 0.532 0.656
1.83 0.266 1.116
1.83 -0.266 1.116
1.83 -0.532 0.656
1.83 -0.266 0.195
1.83 0.266 0.195
1.607 0.884 1.166
1.607 0.51 1.539
1.607 -0.0 1.676
1.607 -0.51 1.539
1.607 -0.884 1.166
1.607 -1.02 0.656
1.607 -0.884 0.145
1.607 0.884 0.145
1.607 1.02 0.656
1.255 1.33 1.171
1.255 1.054 1.617
1.255 0.636 1.933
1.255 0.132 2.076
1.255 -0.39 2.028
1.255 -0.86 1.794
1.255 -1.213 1.407
1.255 -1.402 0.918
1.255 -1.402 0.393
1.255 1.33 0.14
1.255 1.426 0.656
0.803 1.633 1.186
0.803 1.389 1.665
0.803 1.009 2.045
0.803 0.531 2.288
0.803 -0.0 2.373
0.803 -0.531 2.288
0.803 -1.009 2.045
0.803 -1.389 1.665
0.803 -1.633 1.186
0.803 -1.717 0.656
0.803 -1.633 0.125
0.803 1.633 0.125
0.803 1.717 0.656
0.288 1.793 1.182
0.288 1.572 1.666
0.288 1.223 2.068
0.288 0.776 2.355
0.288 0.266 2.505
0.288 -0.266 2.505
0.288 -0.776 2.355
0.288 -1.223 2.068
0.288 -1.572 1.666
0.288 -1.793 1.182
0.288 -1.868 0.656
0.288 -1.793 0.129
0.288 1.793 0.129
0.288 1.868 0.656
-0.25 1.793 1.182
-0.25 1.572 1.666
-0.25 1.223 2.068
-0.25 0.776 2.355
-0.25 0.266 2.505
-0.25 -0.266 2.505
-0.25 -0.776 2.355
-0.25 -1.223 2.068
-0.25 -1.572 1.666
-0.25 -1.793 1.182
-0.25 -1.868 0.656
-0.25 -1.793 0.129
-0.25 1.793 0.129
-0.25 1.868 0.656
-0.765 1.717 0.656
-0.765 1.633 1.186
-0.765 1.389 1.665
-0.765 1.009 2.045
-0.765 0.531 2.288
-0.765 -0.0 2.373
-0.765 -0.531 2.288
-0.765 -1.009 2.045
-0.765 -1.389 1.665
-0.765 -1.633 1.186
-0.765 -1.717 0.656
-1.217 1.426 0.656
-1.217 1.33 1.171
-1.217 1.054 1.617
-1.217 0.636 1.933
-1.217 0.132 2.076
-1.217 -0.39 2.028
-1.217 -0.86 1.794
-1.217 -1.213 1.407
-1.217 -1.402 0.918
-1.217 -1.402 0.393
-1.569 1.02 0.656
-1.569 0.884 1.166
-1.569 0.51 1.539
-1.569 -0.0 1.676
-1.569 -0.51 1.539
-1.569 -0.884 1.166
-1.569 -1.02 0.656
-1.792 0.532 0.656
-1.792 0.266 1.116
-1.792 -0.266 1.116
-1.792 -0.532 0.656
-1.868 0.0 0.656
1.056 0.854 -1.231
1.056 0.493 -1.592
0.648 0.94 -1.677
0.648 1.228 -1.246
0.648 -1.228 -1.246
0.147 -1.421 -1.254
0.147 -1.158 -1.709
0.648 -0.94 -1.677
0.147 -0.756 -2.046
0.648 -0.509 -1.965
0.147 -0.263 -2.226
0.648 0.0 -2.067
0.147 0.262 -2.226
0.648 0.509 -1.965
0.147 0.756 -2.046
0.147 1.158 -1.709
0.147 1.421 -1.254
-0.386 -1.421 -1.254
-0.386 -1.158 -1.709
-0.386 -0.756 -2.046
-0.386 -0.263 -2.226
-0.386 0.262 -2.226
-0.386 0.756 -2.046
-0.386 1.158 -1.709
-0.386 1.421 -1.254
-0.887 -1.228 -1.246
-0.887 -0.94 -1.677
-0.887 -0.509 -1.965
-0.887 0.0 -2.067
-0.887 0.509 -1.965
-0.887 0.94 -1.677
-0.887 1.228 -1.246
-1.296 0.854 -1.231
1.323 0.263 -1.192
1.323 -0.263 -1.192
1.311 -0.525 -0.924
1.056 -0.854 -1.231
-1.296 -0.854 -1.231
-1.562 -0.263 -1.192
-1.562 0.263 -1.192
1.4105 -0.5505 -0.6365
1.3645 -0.8295 -0.3345
1.265 -0.804 -0.622
1.1895 -0.5585 -1.2115
1.1895 -0.378 -1.392
1.056 -0.6735 -1.4115
1.056 -0.493 -1.592
1.1895 -0.1315 -1.458
1.056 -0.2465 -1.658
1.056 -0.0 -1.724
1.323 0.0 -1.192
1.1895 0.1315 -1.458
1.1895 0.378 -1.392
1.056 0.2465 -1.658
0.852 -0.897 -1.454
0.852 -0.7165 -1.6345
0.852 -0.501 -1.7785
0.648 -0.7245 -1.821
0.852 -0.2545 -1.8445
0.852 0.0 -1.8955
0.648 -0.2545 -2.016
0.852 0.2545 -1.8445
0.648 0.2545 -2.016
0.852 0.501 -1.7785
-0.887 -0.7245 -1.821
-0.887 -0.2545 -2.016
-0.887 0.2545 -2.016
-1.0915 -0.897 -1.454
-1.0915 -0.7165 -1.6345
-1.296 -0.6735 -1.4115
-1.296 -0.493 -1.592
-1.0915 -0.501 -1.7785
-1.0915 -0.2545 -1.8445
-1.296 -0.2465 -1.658
-1.296 -0.0 -1.724
-1.0915 0.0 -1.8955
-1.0915 0.2545 -1.8445
-1.0915 0.501 -1.7785
-1.296 0.2465 -1.658
-1.296 0.493 -1.592
-1.296 0.6735 -1.4115
-1.429 -0.378 -1.392
-1.429 -0.5585 -1.2115
-1.429 -0.1315 -1.458
-1.429 0.1315 -1.458
-1.562 0.0 -1.192
-1.429 0.378 -1.392
-1.429 0.5585 -1.2115

CELLS 444 1776
3 0 1 2
3 3 4 5
3 5 4 6
3 4 7 6
3 6 7 8
3 7 9 8
3 8 9 10
3 9 11 10
3 10 11 12
3 11 13 12
3 12 13 14
3 13 15 14
3 14 15 16
3 15 17 16
3 16 17 18
3 17 19 18
3 18 19 20
3 19 21 20
3 20 21 22
3 21 23 22
3 22 23 24
3 23 25 24
3 24 25 26
3 25 27 26
3 26 27 28
3 27 29 28
3 28 29 30
3 29 31 30
3 30 31 32
3 31 33 32
3 32 33 34
3 33 0 34
3 34 0 2
3 35 36 37
3 35 37 38
3 35 38 39
3 35 39 40
3 35 40 41
3 35 41 36
3 37 36 42
3 37 42 43
3 37 43 44
3 38 37 44
3 38 44 45
3 38 45 46
3 39 38 46
3 39 46 47
3 39 47 48
3 40 39 48
3 36 41 49
3 36 49 50
3 36 50 42
3 42 50 51
3 42 51 52
3 43 42 52
3 43 52 53
3 43 53 54
3 44 43 54
3 44 54 55
3 45 44 55
3 45 55 56
3 46 45 56
3 46 56 57
3 46 57 58
3 47 46 58
3 47 58 59
3 48 47 59
3 50 49 60
3 50 60 61
3 50 61 51
3 51 61 62
3 51 62 63
3 52 51 63
3 52 63 64
3 53 52 64
3 53 64 65
3 54 53 65
3 54 65 66
3 55 54 66
3 55 66 67
3 56 55 67
3 56 67 68
3 56 68 69
3 57 56 69
3 57 69 70
3 58 57 70
3 58 70 71
3 59 58 71
3 59 71 72
3 61 60 73
3 61 73 74
3 61 74 62
3 62 74 75
3 62 75 76
3 63 62 76
3 63 76 77
3 64 63 77
3 64 77 78
3 65 64 78
3 65 78 79
3 66 65 79
3 66 79 80
3 67 66 80
3 67 80 81
3 68 67 81
3 68 81 82
3 69 68 82
3 69 82 83
3 70 69 83
3 70 83 84
3 71 70 84
3 71 84 85
3 71 85 86
3 72 71 86
3 74 73 87
3 74 87 88
3 74 88 75
3 75 88 89
3 75 89 90
3 76 75 90
3 76 90 91
3 77 76 91
3 77 91 92
3 78 77 92
3 78 92 93
3 79 78 93
3 79 93 94
3 80 79 94
3 80 94 95
3 81 80 95
3 81 95 96
3 82 81 96
3 82 96 97
3 83 82 97
3 83 97 98
3 84 83 98
3 84 98 99
3 85 84 99
3 85 99 100
3 86 85 100
3 88 87 101
3 88 101 102
3 88 102 89
3 89 102 103
3 89 103 104
3 90 89 104
3 90 104 105
3 91 90 105
3 91 105 106
3 92 91 106
3 92 106 107
3 93 92 107
3 93 107 108
3 94 93 108
3 94 108 109
3 95 94 109
3 95 109 110
3 96 95 110
3 96 110 111
3 97 96 111
3 97 111 112
3 98 97 112
3 98 112 113
3 99 98 113
3 100 99 113
3 102 101 103
3 104 103 114
3 104 114 115
3 105 104 115
3 105 115 116
3 106 105 116
3 106 116 117
3 107 106 117
3 107 117 118
3 108 107 118
3 108 118 119
3 109 108 119
3 109 119 120
3 110 109 120
3 111 110 120
3 111 120 121
3 112 111 121
3 112 121 122
3 113 112 122
3 113 122 123
3 115 114 124
3 115 124 125
3 116 115 125
3 116 125 126
3 117 116 126
3 118 117 126
3 118 126 127
3 119 118 127
3 119 127 128
3 120 119 128
3 120 128 129
3 121 120 129
3 122 121 129
3 122 129 130
3 123 122 130
3 125 124 131
3 125 131 132
3 126 125 132
3 127 126 132
3 127 132 133
3 128 127 133
3 129 128 133
3 129 133 134
3 130 129 134
3 132 131 135
3 133 132 135
3 134 133 135
3 134 135 17
3 134 17 15
3 134 15 130
3 130 15 13
3 130 13 123
3 123 13 11
3 123 11 113
3 113 11 100
3 100 11 9
3 100 9 7
3 100 7 86
3 86 7 72
3 72 7 4
3 72 4 3
3 72 3 59
3 59 3 48
3 48 1 40
3 40 1 0
3 40 0 41
3 41 0 33
3 41 33 49
3 49 33 31
3 49 31 60
3 60 31 29
3 60 29 73
3 73 29 27
3 73 27 87
3 87 27 101
3 101 27 25
3 101 25 23
3 101 23 103
3 103 23 114
3 114 23 21
3 114 21 124
3 124 21 19
3 124 19 131
3 131 19 17
3 131 17 135
3 136 137 138
3 136 138 139
3 140 141 142
3 143 140 142
3 143 142 144
3 145 144 146
3 147 146 148
3 149 148 150
3 138 149 150
3 138 150 151
3 139 138 151
3 139 151 152
3 141 153 154
3 142 141 154
3 144 142 154
3 144 154 155
3 144 155 156
3 146 144 156
3 146 156 157
3 148 146 157
3 148 157 158
3 150 148 158
3 150 158 159
3 151 150 159
3 151 159 160
3 152 151 160
3 154 153 161
3 154 161 162
3 155 154 162
3 156 155 163
3 157 156 164
3 158 157 165
3 158 165 166
3 159 158 166
3 159 166 167
3 160 159 167
3 167 166 168
3 168 20 22
3 168 22 167
3 167 22 24
3 167 24 160
3 160 24 26
3 160 26 28
3 160 28 152
3 152 28 30
3 152 30 139
3 139 30 32
3 139 32 136
3 136 32 34
3 136 34 169
3 169 34 2
3 170 2 171
3 172 171 5
3 172 5 140
3 140 5 6
3 140 6 141
3 141 6 8
3 141 8 153
3 153 8 10
3 153 10 12
3 153 12 161
3 161 12 14
3 161 14 173
3 173 14 16
3 174 16 18
3 175 18 20
3 1 176 2
3 2 176 171
3 1 177 176
3 177 178 176
3 177 3 178
3 176 178 171
3 171 178 5
3 178 3 5
3 3 177 48
3 48 177 1
3 170 179 180
3 179 181 180
3 179 172 181
3 180 181 182
3 170 180 183
3 180 184 183
3 180 182 184
3 183 184 185
3 169 186 187
3 186 183 187
3 186 170 183
3 187 183 185
3 169 187 188
3 187 189 188
3 187 185 189
3 188 189 137
3 169 188 136
3 188 137 136
3 143 190 140
3 172 190 140
3 182 181 191
3 181 190 191
3 181 172 190
3 191 190 143
3 182 191 192
3 191 193 192
3 191 143 193
3 192 193 145
3 185 184 194
3 184 192 194
3 184 182 192
3 194 192 145
3 185 194 195
3 194 196 195
3 194 145 196
3 195 196 147
3 185 195 197
3 195 198 197
3 195 147 198
3 197 198 149
3 137 189 199
3 189 197 199
3 189 185 197
3 199 197 149
3 137 199 138
3 199 149 138
3 145 193 144
3 193 143 144
3 147 196 146
3 196 145 146
3 149 198 148
3 198 147 148
3 170 186 2
3 169 186 2
3 172 179 171
3 170 179 171
3 162 200 155
3 155 200 163
3 163 201 156
3 156 201 164
3 164 202 157
3 157 202 165
3 173 203 161
3 162 203 161
3 162 203 204
3 203 205 204
3 203 173 205
3 204 205 206
3 163 200 207
3 200 204 207
3 200 162 204
3 207 204 206
3 163 207 208
3 207 209 208
3 207 206 209
3 208 209 210
3 164 201 211
3 201 208 211
3 201 163 208
3 211 208 210
3 165 202 212
3 202 211 212
3 202 164 211
3 212 211 210
3 165 212 213
3 212 214 213
3 212 210 214
3 213 214 215
3 165 213 166
3 166 213 215
3 215 216 166
3 166 216 168
3 206 205 217
3 205 218 217
3 205 173 218
3 217 218 174
3 210 209 219
3 209 217 219
3 209 206 217
3 219 217 174
3 210 219 220
3 219 221 220
3 219 174 221
3 220 221 175
3 215 214 222
3 214 220 222
3 214 210 220
3 222 220 175
3 168 216 223
3 216 222 223
3 216 215 222
3 223 222 175
3 168 223 20
3 223 175 20
3 174 218 16
3 173 218 16
3 175 221 18
3 174 221 18

CELL_TYPES 444
5
5
5
5
5
5
5
5
5
5
5
5
5
5
5
5
5
5
5
5
5
5
5
5
5
5
5
5
5
5
5
5
5
5
5
5
5
5
5
5
5
5
5
5
5
5
5
5
5
5
5
5
5
5
5
5
5
5
5
5
5
5
5
5
5
5
5
5
5
5
5
5
5
5
5
5
5
5
5
5
5
5
5
5
5
5
5
5
5
5
5
5
5
5
5
5
5
5
5
5
5
5
5
5
5
5
5
5
5
5
5
5
5
5
5
5
5
5
5
5
5
5
5
5
5
5
5
5
5
5
5
5
5
5
5
5
5
5
5
5
5
5
5
5
5
5
5
5
5
5
5
5
5
5
5
5
5
5
5
5
5
5
5
5
5
5
5
5
5
5
5
5
5
5
5
5
5
5
5
5
5
5
5
5
5
5
5
5
5
5
5
5
5
5
5
5
5
5
5
5
5
5
5
5
5
5
5
5
5
5
5
5
5
5
5
5
5
5
5
5
5
5
5
5
5
5
5
5
5
5
5
5
5
5
5
5
5
5
5
5
5
5
5
5
5
5
5
5
5
5
5
5
5
5
5
5
5
5
5
5
5
5
5
5
5
5
5
5
5
5
5
5
5
5
5
5
5
5
5
5
5
5
5
5
5
5
5
5
5
5
5
5
5
5
5
5
5
5
5
5
5
5
5
5
5
5
5
5
5
5
5
5
5
5
5
5
5
5
5
5
5
5
5
5
5
5
5
5
5
5
5
5
5
5
5
5
5
5
5
5
5
5
5
5
5
5
5
5
5
5
5
5
5
5
5
5
5
5
5
5
5
5
5
5
5
5
5
5
5
5
5
5
5
5
5
5
5
5
5
5
5
5
5
5
5
5
5
5
5
5
5
5
5
5
5
5
5
5
5
5
5
5
5
5
5
5
5
5
5
5
5
5
5
5
5
5
5
5
5
5
5
5
5
5
5
5
5
5
5
5
5
5
5
5
5
5
5
5
5
5
5
5
5
5

CELL_DATA 444
SCALARS cell_data_0 double
LOOKUP_TABLE default
3.34119687155e-06
5.07348609893e-07
2.988691814e-07
1.00515075068e-06
4.40624597e-07
1.38729128039e-06
4.84726546949e-08
1.5285137287e-06
2.37676585836e-07
1.61708500771e-06
4.73877024832e-07
1.62707406054e-06
6.01714903797e-07
1.63310608025e-06
7.32442129207e-07
1.52419143062e-06
8.59991780893e-07
1.36816961335e-06
9.21824337588e-07
1.15830427456e-06
9.90290879984e-07
8.58682776042e-07
1.00913766331e-06
4.17488637479e-07
9.20304672534e-07
6.91421360645e-08
5.6441975955e-07
5.33003893572e-08
2.02920368152e-07
3.59960134123e-06
6.62435168444e-07
4.79644328549e-07
4.31717809419e-07
8.94740863552e-09
3.82413665765e-09
3.26649546557e-08
3.76815285153e-08
5.14515961696e-08
5.43245907325e-08
9.8322711376e-09
1.13654441422e-08
1.1131207958e-08
1.39191717206e-08
2.19950762036e-08
3.5129929667e-10
6.32768536224e-08
6.90308455695e-08
4.03536709407e-08
2.57863626773e-08
1.18703588319e-07
2.77422035714e-08
2.66440833338e-08
6.49996233067e-08
6.20164217596e-08
3.02747963527e-08
1.98923532193e-08
9.76633909003e-09
2.60241968591e-08
4.25219092531e-08
5.03811339706e-08
5.85248748029e-08
2.67229117168e-08
3.90055278073e-08
2.21613985196e-08
1.02219343571e-08
4.3971020524e-09
6.62849474971e-09
2.7229195501e-08
4.77838984941e-08
8.64102794354e-08
1.20994561821e-07
1.10581309934e-07
8.2878087167e-08
6.56307864804e-08
3.81684893718e-08
1.929050755e-08
6.7753517672e-09
2.50942128614e-08
4.95324879692e-08
6.66826901264e-08
7.92619091288e-08
9.79715796208e-08
1.05392497843e-07
8.94696574251e-08
8.30243651369e-08
5.52404308654e-08
3.5855040466e-08
1.62390647663e-08
1.08405548664e-08
7.31120783863e-08
1.3485677804e-07
1.52268539166e-07
1.78570554763e-07
1.52269146035e-07
1.24343770455e-07
9.76356142555e-08
7.23181406707e-08
4.75941896171e-08
2.34403081769e-08
1.41141687565e-09
2.32536576914e-08
4.33311399709e-08
6.71415422232e-08
8.51878668848e-08
1.05892756945e-07
1.22301857267e-07
1.26046373433e-07
1.27760849368e-07
1.01726000644e-07
5.78544965397e-08
2.22880908626e-08
7.59995544681e-09
3.4569316377e-09
3.38418630541e-08
1.7253997406e-07
2.14191691578e-07
2.09047943604e-07
2.21332009341e-07
1.83169148183e-07
1.55222326289e-07
1.17584811769e-07
9.46203628645e-08
5.90595504416e-08
4.01671510657e-08
6.39915539651e-09
9.20280768908e-09
4.27367731381e-08
5.64659962095e-08
9.07125031089e-08
1.01931044916e-07
1.31839379278e-07
1.38644781066e-07
1.46227962204e-07
1.38123014297e-07
5.73422843802e-08
1.92748578256e-09
9.28751084222e-08
5.55344603769e-08
9.38674155396e-09
3.02017612325e-08
1.8355062247e-07
2.10841110162e-07
2.58064778628e-07
2.20924402278e-07
1.70830486469e-07
1.65071419946e-07
1.24374611705e-07
1.04922690214e-07
7.49069796781e-08
5.39205271592e-08
3.16716627157e-08
7.37466152817e-09
7.9599906251e-09
3.66396338615e-08
4.74380871017e-08
8.07119034536e-08
8.59129770071e-08
1.19234068501e-07
1.15051369589e-07
1.29532051585e-07
1.135014494e-07
5.17686283192e-08
5.03965619882e-08
1.73277907277e-08
2.66082779204e-09
1.7879014223e-07
1.48295495821e-07
1.43987128801e-07
1.19784077643e-07
1.00709026554e-07
7.28719181189e-08
5.61255653679e-08
3.50128337019e-08
1.3510149507e-08
2.36593843812e-09
2.61636763519e-08
3.86772492617e-08
6.60046062315e-08
7.68961333101e-08
9.07292975472e-08
9.08727429856e-08
8.96423856656e-08
6.22061495153e-08
5.68668301487e-08
2.02336721648e-08
1.44332540244e-07
1.43649063384e-07
1.06865321891e-07
8.35101227058e-08
5.23341418459e-08
2.10343367731e-08
3.21228633069e-09
2.92935963294e-08
6.02955816236e-08
7.18687801623e-08
9.38596457363e-08
8.96395983635e-08
5.99479942065e-08
4.51947297616e-08
1.28920999868e-08
1.33343999272e-07
9.20715661162e-08
4.99365533021e-08
4.04666636253e-09
4.89985136891e-08
6.99909345282e-08
8.18465070109e-08
5.67326771099e-08
2.49148870358e-08
1.35530685843e-06
1.10896861468e-06
1.1069280388e-06
1.61483599417e-06
3.57194515077e-06
1.32389829219e-06
3.57454477071e-06
9.6381897829e-07
2.01732156837e-06
9.95547648558e-07
1.31146648619e-06
9.84840048602e-07
7.08223051712e-07
1.46658385585e-07
2.41870240955e-07
5.85515377455e-07
2.64907978702e-07
7.65124964177e-08
8.85720087851e-08
8.58362044179e-06
7.88250684441e-06
7.09751768251e-08
2.6098396082e-06
2.93555522702e-06
3.18045551978e-06
5.86915745637e-08
1.36547223672e-07
8.97054465124e-08
5.10850275803e-07
2.25061460729e-07
1.51133368068e-07
7.05891228341e-07
9.94768589771e-07
1.16083324305e-06
9.69413297357e-07
3.07749989482e-06
1.01671404472e-06
3.14549469608e-06
9.97713524778e-07
3.15543301398e-06
1.62618040481e-06
5.22702828717e-07
2.3562530962e-07
5.02356030447e-07
5.0251369089e-07
9.49927006048e-07
3.44680986583e-06
1.85685536418e-06
2.9584293161e-06
1.09495540077e-06
1.07746075499e-06
7.61069155718e-07
1.58291876639e-06
8.4575240939e-08
1.09163636031e-07
1.30080058207e-06
1.84977850619e-06
2.50407660453e-06
3.07945670052e-06
2.49099299892e-06
2.92569702443e-06
2.10827531609e-06
2.37824540403e-06
1.70186543862e-06
1.82435990844e-06
1.46265543688e-06
1.54498690296e-06
6.59094018126e-08
2.34775898695e-07
1.02314672726e-06
1.60723949443e-05
1.49887317176e-05
3.76603822931e-06
9.74879847188e-06
1.74519380139e-07
6.87140688685e-08
1.19001056574e-06
1.16128793728e-06
1.22758469523e-06
1.71018368001e-06
1.25231327479e-06
2.77510246036e-07
1.02859728498e-06
7.69758887184e-07
1.05001114192e-07
2.9860440144e-07
3.03429101443e-07
6.85547421728e-08
3.02474862272e-07
2.47580523218e-07
6.46916854414e-07
5.76300123535e-07
3.45015037326e-06
3.59752312023e-07
5.99232062056e-07
3.33401850556e-07
3.38296130168e-07
3.54217418141e-08
2.21041316069e-07
4.3845636271e-07
8.27522485319e-07
6.75054891603e-07
1.13730930597e-06
7.44814335438e-07
1.27238265483e-06
1.26162536163e-05
2.26397772853e-05
2.34799906087e-06
1.81126894795e-06
6.38388118649e-06
1.40681834839e-05
1.09942729846e-05
6.72182213104e-06
9.471727155e-06
1.29331648156e-05
1.63938917985e-06
8.16150214209e-06
1.29598398027e-06
5.60465054346e-06
4.29320749906e-06
1.3027395237e-06
2.24101611648e-06
2.0707074804e-07
1.76677510645e-06
3.4465417831e-06
5.4903983028e-06
8.43251639268e-06
4.91078359185e-06
6.2575719294e-06
2.18996136566e-06
3.3158354879e-06
1.41769646471e-06
1.69778927634e-06
2.23683174623e-06
7.59513368708e-07
1.13148792002e-07
3.49362907966e-07
2.77791573473e-06
5.52140831007e-06
2.90063941063e-06
6.53505733619e-07
3.65555714396e-07
1.29965009083e-06
9.36736458826e-07
2.10763644561e-07
2.22986398947e-06
1.07026513268e-06
7.25258737629e-07
6.73203543611e-08
1.30715995084e-06
2.23255353986e-07
1.58893998491e-07
1.68797253593e-07
1.50601282421e-06
1.6396015038e-06
1.04164985445e-07
2.47048670751e-06
5.08482664601e-07
1.09160213497e-06
6.97986427698e-07
2.72451735949e-06
2.08107334504e-06
1.30886572744e-06
6.32229326829e-07
4.37148721909e-07
6.98931715153e-07
7.02257082642e-07
2.84686533172e-06
1.56266616041e-06
3.88380489391e-06
3.37853913071e-06
7.37943615821e-07
2.29839001833e-06
6.17549336596e-07
8.30553577175e-06
8.40773237267e-06
7.7457904222e-06
7.83488071842e-06
1.89960883609e-06
9.87670238151e-08
1.84025721971e-07
2.75739163766e-08
4.5245869139e-08
4.82590374975e-08
1.32195720909e-08
4.08643285421e-06
9.43161288388e-08
1.69455051968e-07
6.2747390733e-08
4.44578818198e-06
3.14931117504e-08
3.57498514198e-08
4.70368985336e-07
3.79832593365e-06
4.86525471853e-08
4.31680442145e-06
4.88255309448e-07
8.93032319851e-07
5.22130844837e-08
3.83592706386e-06
5.71063593529e-07
9.00380035408e-07
1.8142411159e-08
5.17182976854e-07
3.50198079052e-07
4.64403741429e-06
5.92457047793e-07
5.74316671545e-07
4.81824927589e-07
1.60684122316e-08
5.35915650357e-09
4.59408825386e-08
1.87854373273e-06
5.46803372725e-07
8.50981169479e-08
1.57137661902e-08
1.90413632188e-06
6.91128538173e-07
6.77877883215e-09
2.2156238028e-06
4.42946996512e-06
3.46283926741e-07
4.8121900662e-08
5.11382108447e-07
3.79942311653e-06
4.69209127512e-07
1.10597831318e-08
3.75116700889e-07
3.76808773265e-06
1.32189162875e-06
1.21763434208e-05
6.35457609985e-06
4.15443221889e-07
9.86294159822e-06
5.27008473654e-06

