# vtk DataFile Version 3.0
File Name: Molecule/methanol/methanol_6.0-3.vtk
ASCII
DATASET UNSTRUCTURED_GRID
FIELD FieldData 1
TIME 1 1 double
0.0
POINTS 364 double
1.611 0.0 -0.359
1.554 -0.436 -0.353
1.403 0.0 -0.933
1.386 -0.842 -0.336
1.12 -1.191 -0.31
1.198 -0.767 -0.912
0.956 -1.085 -0.888
0.773 -1.459 -0.275
0.639 -1.329 -0.857
0.368 -1.627 -0.235
0.271 -1.482 -0.82
-0.065 -1.684 -0.192
-0.124 -1.534 -0.781
-0.499 -1.627 -0.149
-0.519 -1.482 -0.741
-0.903 -1.459 -0.108
-0.887 -1.329 -0.705
-1.251 -1.191 -0.074
-1.204 -1.085 -0.673
-1.517 -0.842 -0.047
-1.446 -0.767 -0.649
-1.684 -0.436 -0.031
-1.599 -0.397 -0.634
-1.742 0.0 -0.025
-1.684 0.436 -0.031
-1.651 0.0 -0.629
-1.517 0.842 -0.047
-1.599 0.397 -0.634
-1.446 0.767 -0.649
-1.251 1.191 -0.074
-1.204 1.085 -0.673
-0.903 1.459 -0.108
-0.887 1.329 -0.705
-0.499 1.627 -0.149
-0.519 1.482 -0.741
-0.065 1.684 -0.192
-0.124 1.534 -0.781
0.368 1.627 -0.235
0.271 1.482 -0.82
0.773 1.459 -0.275
0.639 1.329 -0.857
1.12 1.191 -0.31
0.956 1.085 -0.888
1.386 0.842 -0.336
1.198 0.767 -0.912
1.554 0.436 -0.353
1.351 0.397 -0.928
1.907 0.0 0.656
1.859 0.42 0.656
1.859 0.21 1.019
1.859 -0.21 1.019
1.859 -0.42 0.656
1.859 -0.21 0.292
1.859 0.21 0.292
1.72 0.709 1.065
1.72 0.409 1.365
1.72 -0.0 1.475
1.72 -0.409 1.365
1.72 -0.709 1.065
1.72 -0.819 0.656
1.72 -0.709 0.246
1.72 -0.409 -0.054
1.72 -0.0 -0.163
1.72 0.409 -0.054
1.72 0.709 0.246
1.72 0.819 0.656
1.495 1.106 1.058
1.495 0.902 1.412
1.495 0.588 1.675
1.495 0.204 1.815
1.495 -0.204 1.815
1.495 -0.588 1.675
1.495 -0.902 1.412
1.495 -1.106 1.058
1.495 -1.177 0.656
1.495 -1.106 0.253
1.495 -0.902 -0.101
1.495 0.902 -0.101
1.495 1.106 0.253
1.495 1.177 0.656
1.196 1.416 1.071
1.196 1.241 1.453
1.196 0.966 1.771
1.196 0.613 1.998
1.196 0.21 2.116
1.196 -0.21 2.116
1.196 -0.613 1.998
1.196 -0.966 1.771
1.196 -1.241 1.453
1.196 -1.416 1.071
1.196 -1.476 0.656
1.196 -1.416 0.24
1.196 1.416 0.24
1.196 1.476 0.656
0.838 1.651 1.063
0.838 1.506 1.446
0.838 1.273 1.783
0.838 0.966 2.055
0.838 0.603 2.246
0.838 0.205 2.344
0.838 -0.205 2.344
0.838 -0.603 2.246
0.838 -0.966 2.055
0.838 -1.273 1.783
0.838 -1.506 1.446
0.838 -1.651 1.063
0.838 -1.701 0.656
0.838 -1.651 0.249
0.838 1.651 0.249
0.838 1.701 0.656
0.439 1.794 1.065
0.439 1.658 1.454
0.439 1.439 1.803
0.439 1.147 2.094
0.439 0.798 2.314
0.439 0.409 2.45
0.439 0.0 2.496
0.439 -0.409 2.45
0.439 -0.798 2.314
0.439 -1.147 2.094
0.439 -1.439 1.803
0.439 -1.658 1.454
0.439 -1.794 1.065
0.439 -1.84 0.656
0.439 -1.794 0.246
0.439 1.794 0.246
0.439 1.84 0.656
0.019 1.843 1.061
0.019 1.713 1.448
0.019 1.503 1.798
0.019 1.222 2.094
0.019 0.884 2.323
0.019 0.505 2.474
0.019 0.102 2.54
0.019 -0.305 2.518
0.019 -0.699 2.409
0.019 -1.059 2.218
0.019 -1.37 1.954
0.019 -1.617 1.629
0.019 -1.789 1.258
0.019 -1.876 0.86
0.019 -1.876 0.452
0.019 -1.789 0.053
0.019 1.843 0.25
0.019 1.888 0.656
-0.401 1.84 0.656
-0.401 1.794 1.065
-0.401 1.658 1.454
-0.401 1.439 1.803
-0.401 1.147 2.094
-0.401 0.798 2.314
-0.401 0.409 2.45
-0.401 0.0 2.496
-0.401 -0.409 2.45
-0.401 -0.798 2.314
-0.401 -1.147 2.094
-0.401 -1.439 1.803
-0.401 -1.658 1.454
-0.401 -1.794 1.065
-0.401 -1.84 0.656
-0.401 -1.794 0.246
-0.401 1.794 0.246
-0.8 1.701 0.656
-0.8 1.651 1.063
-0.8 1.506 1.446
-0.8 1.273 1.783
-0.8 0.966 2.055
-0.8 0.603 2.246
-0.8 0.205 2.344
-0.8 -0.205 2.344
-0.8 -0.603 2.246
-0.8 -0.966 2.055
-0.8 -1.273 1.783
-0.8 -1.506 1.446
-0.8 -1.651 1.063
-0.8 -1.701 0.656
-0.8 -1.651 0.249
-0.8 1.651 0.249
-1.158 1.476 0.656
-1.158 1.416 1.071
-1.158 1.241 1.453
-1.158 0.966 1.771
-1.158 0.613 1.998
-1.158 0.21 2.116
-1.158 -0.21 2.116
-1.158 -0.613 1.998
-1.158 -0.966 1.771
-1.158 -1.241 1.453
-1.158 -1.416 1.071
-1.158 -1.476 0.656
-1.158 -1.416 0.24
-1.158 1.416 0.24
-1.457 1.177 0.656
-1.457 1.106 1.058
-1.457 0.902 1.412
-1.457 0.588 1.675
-1.457 0.204 1.815
-1.457 -0.204 1.815
-1.457 -0.588 1.675
-1.457 -0.902 1.412
-1.457 -1.106 1.058
-1.457 -1.177 0.656
-1.457 -1.106 0.253
-1.457 1.106 0.253
-1.682 0.819 0.656
-1.682 0.709 1.065
-1.682 0.409 1.365
-1.682 -0.0 1.475
-1.682 -0.409 1.365
-1.682 -0.709 1.065
-1.682 -0.819 0.656
-1.682 -0.709 0.246
-1.682 0.709 0.246
-1.821 0.42 0.656
-1.821 0.21 1.019
-1.821 -0.21 1.019
-1.821 -0.42 0.656
-1.821 -0.21 0.292
-1.821 0.21 0.292
-1.868 -0.0 0.656
1.172 0.415 -1.456
0.886 0.517 -1.776
0.886 0.857 -1.519
1.172 0.719 -1.152
0.886 1.082 -1.156
0.886 0.107 -1.892
0.518 0.0 -2.133
0.518 0.431 -2.065
0.518 0.821 -1.867
0.518 1.13 -1.558
0.518 1.328 -1.169
0.518 -0.821 -1.867
0.099 -0.995 -1.885
0.099 -0.631 -2.119
0.518 -0.431 -2.065
0.099 -0.216 -2.241
0.099 0.216 -2.241
0.099 0.631 -2.119
0.099 0.995 -1.885
0.099 1.278 -1.559
0.099 1.458 -1.165
0.099 -1.458 -1.165
-0.338 -1.458 -1.165
-0.338 -1.278 -1.559
0.099 -1.278 -1.559
-0.338 -0.995 -1.885
-0.338 -0.631 -2.119
-0.338 -0.216 -2.241
-0.338 0.216 -2.241
-0.338 0.631 -2.119
-0.338 0.995 -1.885
-0.338 1.278 -1.559
-0.338 1.458 -1.165
-0.757 -1.328 -1.169
-0.757 -1.13 -1.558
-0.757 -0.821 -1.867
-0.757 -0.431 -2.065
-0.757 0.0 -2.133
-0.757 0.431 -2.065
-0.757 0.821 -1.867
-0.757 1.13 -1.558
-0.757 1.328 -1.169
-1.125 -1.14 -0.95
-1.125 -0.986 -1.348
-1.125 -0.699 -1.663
-1.125 -0.317 -1.853
-1.125 0.107 -1.892
-1.125 0.857 -1.519
-1.125 1.082 -1.156
-1.411 -0.719 -1.152
-1.411 0.719 -1.152
1.172 -0.719 -1.152
1.351 -0.397 -0.928
0.518 -1.328 -1.169
1.4525 -0.4165 -0.6405
1.47 -0.639 -0.3445
1.3685 -0.6195 -0.632
1.029 -0.8525 -1.25
1.029 -0.709 -1.4075
0.886 -0.8425 -1.5055
0.886 -0.986 -1.348
1.172 -0.415 -1.456
1.172 -0.567 -1.304
1.029 -0.557 -1.5595
0.886 -0.699 -1.663
1.029 -0.366 -1.6545
0.886 -0.508 -1.758
0.886 -0.317 -1.853
1.172 -0.0 -1.567
1.172 -0.2075 -1.5115
1.029 -0.1585 -1.71
1.029 0.0535 -1.7295
0.886 -0.105 -1.8725
1.172 0.2075 -1.5115
1.029 0.261 -1.674
0.702 -1.157 -1.2585
0.702 -1.058 -1.453
0.702 -0.565 -1.864
0.702 -0.374 -1.959
1.2875 0.2075 -1.1945
1.2875 0.0 -1.25
1.2875 -0.2075 -1.1945
1.064 -0.902 -1.02
0.921 -1.0355 -1.118
0.737 -1.2065 -1.0285
-1.625 -0.1985 -0.6315
-1.625 0.1985 -0.6315
-1.125 -0.508 -1.758
-1.268 -0.709 -1.4075
-1.268 -0.557 -1.5595
-1.411 -0.567 -1.304
-1.411 -0.415 -1.456
-1.268 -0.366 -1.6545
-1.268 -0.1585 -1.71
-1.411 -0.2075 -1.5115
-1.411 -0.0 -1.567
-1.411 0.2075 -1.5115
-1.411 0.567 -1.304
-1.502 -0.3155 -1.284
-1.502 -0.4675 -1.132
-1.593 -0.216 -1.112
-1.502 -0.108 -1.3395
-1.502 0.108 -1.3395
-1.593 0.0 -1.112
-1.593 0.216 -1.112
-1.411 0.415 -1.456
-1.502 0.3155 -1.284
-1.502 0.4675 -1.132
-1.505 0.558 -0.893
-1.596 0.3065 -0.873
-1.505 -0.558 -0.893
-1.596 -0.3065 -0.873
-1.622 -0.108 -0.8705
-1.622 0.108 -0.8705
0.3085 -1.303 -1.364
0.518 -1.13 -1.558
0.3085 -1.204 -1.5585
0.518 -0.9755 -1.7125
-0.757 0.626 -1.966
-0.941 0.269 -1.9785
-0.941 0.474 -1.9205
-1.125 0.312 -1.834
-1.125 0.517 -1.776
-0.941 0.669 -1.8215
-0.941 0.839 -1.693
-1.125 0.687 -1.6475
-1.268 0.466 -1.616
-1.268 0.261 -1.674
-1.268 0.636 -1.4875
0.886 -0.77075 -1.58425
0.518 -1.229 -1.3635
0.61 -1.1435 -1.40825
0.518 -1.2785 -1.26625
0.61 -1.094 -1.5055
0.518 -1.1795 -1.46075
0.794 -0.80675 -1.63675
0.794 -0.8785 -1.558
0.702 -0.9145 -1.6105
0.794 -0.95025 -1.47925
0.702 -0.98625 -1.53175
0.61 -1.02225 -1.58425
0.702 -0.76 -1.765
0.61 -0.86775 -1.73875
0.3085 -1.2535 -1.46125

CELLS 724 2896
3 0 1 2
3 3 4 5
3 5 4 6
3 4 7 6
3 6 7 8
3 7 9 8
3 8 9 10
3 9 11 10
3 10 11 12
3 11 13 12
3 12 13 14
3 13 15 14
3 14 15 16
3 15 17 16
3 16 17 18
3 17 19 18
3 18 19 20
3 19 21 20
3 20 21 22
3 21 23 22
3 23 24 25
3 24 26 27
3 27 26 28
3 26 29 28
3 28 29 30
3 29 31 30
3 30 31 32
3 31 33 32
3 32 33 34
3 33 35 34
3 34 35 36
3 35 37 36
3 36 37 38
3 37 39 38
3 38 39 40
3 39 41 40
3 40 41 42
3 41 43 42
3 42 43 44
3 43 45 44
3 44 45 46
3 45 0 46
3 46 0 2
3 47 48 49
3 47 49 50
3 47 50 51
3 47 51 52
3 47 52 53
3 47 53 48
3 49 48 54
3 49 54 55
3 49 55 56
3 50 49 56
3 50 56 57
3 50 57 58
3 51 50 58
3 51 58 59
3 51 59 60
3 52 51 60
3 52 60 61
3 52 61 62
3 53 52 62
3 53 62 63
3 53 63 64
3 48 53 64
3 48 64 65
3 48 65 54
3 54 65 66
3 54 66 67
3 55 54 67
3 55 67 68
3 55 68 69
3 56 55 69
3 56 69 70
3 57 56 70
3 57 70 71
3 57 71 72
3 58 57 72
3 58 72 73
3 59 58 73
3 59 73 74
3 59 74 75
3 60 59 75
3 60 75 76
3 61 60 76
3 64 63 77
3 64 77 78
3 65 64 78
3 65 78 79
3 65 79 66
3 66 79 80
3 66 80 81
3 67 66 81
3 67 81 82
3 68 67 82
3 68 82 83
3 69 68 83
3 69 83 84
3 69 84 85
3 70 69 85
3 70 85 86
3 71 70 86
3 71 86 87
3 72 71 87
3 72 87 88
3 73 72 88
3 73 88 89
3 74 73 89
3 74 89 90
3 74 90 91
3 75 74 91
3 79 78 92
3 79 92 93
3 79 93 80
3 80 93 94
3 80 94 95
3 81 80 95
3 81 95 96
3 82 81 96
3 82 96 97
3 83 82 97
3 83 97 98
3 84 83 98
3 84 98 99
3 84 99 100
3 85 84 100
3 85 100 101
3 86 85 101
3 86 101 102
3 87 86 102
3 87 102 103
3 88 87 103
3 88 103 104
3 89 88 104
3 89 104 105
3 90 89 105
3 90 105 106
3 90 106 107
3 91 90 107
3 93 92 108
3 93 108 109
3 93 109 94
3 94 109 110
3 94 110 111
3 95 94 111
3 95 111 112
3 96 95 112
3 96 112 113
3 97 96 113
3 97 113 114
3 98 97 114
3 98 114 115
3 99 98 115
3 99 115 116
3 100 99 116
3 100 116 117
3 101 100 117
3 101 117 118
3 102 101 118
3 102 118 119
3 103 102 119
3 103 119 120
3 104 103 120
3 104 120 121
3 105 104 121
3 105 121 122
3 106 105 122
3 106 122 123
3 106 123 124
3 107 106 124
3 109 108 125
3 109 125 126
3 109 126 110
3 110 126 127
3 110 127 128
3 111 110 128
3 111 128 129
3 112 111 129
3 112 129 130
3 113 112 130
3 113 130 131
3 114 113 131
3 114 131 132
3 115 114 132
3 115 132 133
3 116 115 133
3 116 133 134
3 117 116 134
3 117 134 135
3 118 117 135
3 118 135 136
3 119 118 136
3 119 136 137
3 120 119 137
3 120 137 138
3 121 120 138
3 121 138 139
3 122 121 139
3 122 139 140
3 123 122 140
3 123 140 141
3 124 123 141
3 124 141 142
3 126 125 143
3 126 143 144
3 126 144 127
3 127 144 145
3 127 145 146
3 128 127 146
3 128 146 147
3 129 128 147
3 129 147 148
3 130 129 148
3 130 148 149
3 131 130 149
3 131 149 150
3 132 131 150
3 132 150 151
3 133 132 151
3 133 151 152
3 134 133 152
3 134 152 153
3 135 134 153
3 135 153 154
3 136 135 154
3 136 154 155
3 137 136 155
3 137 155 156
3 138 137 156
3 138 156 157
3 139 138 157
3 139 157 158
3 140 139 158
3 140 158 159
3 141 140 159
3 141 159 160
3 142 141 160
3 145 143 161
3 144 143 145
3 146 145 162
3 146 162 163
3 147 146 163
3 147 163 164
3 148 147 164
3 148 164 165
3 149 148 165
3 149 165 166
3 150 149 166
3 150 166 167
3 151 150 167
3 151 167 168
3 152 151 168
3 152 168 169
3 153 152 169
3 153 169 170
3 154 153 170
3 154 170 171
3 155 154 171
3 155 171 172
3 156 155 172
3 156 172 173
3 157 156 173
3 157 173 174
3 158 157 174
3 158 174 175
3 159 158 175
3 160 159 175
3 160 175 176
3 162 161 177
3 145 161 162
3 163 162 178
3 163 178 179
3 164 163 179
3 164 179 180
3 165 164 180
3 165 180 181
3 166 165 181
3 166 181 182
3 167 166 182
3 167 182 183
3 168 167 183
3 168 183 184
3 169 168 184
3 170 169 184
3 170 184 185
3 171 170 185
3 171 185 186
3 172 171 186
3 172 186 187
3 173 172 187
3 173 187 188
3 174 173 188
3 174 188 189
3 175 174 189
3 176 175 189
3 176 189 190
3 178 177 191
3 162 177 178
3 179 178 192
3 179 192 193
3 180 179 193
3 180 193 194
3 181 180 194
3 181 194 195
3 182 181 195
3 182 195 196
3 183 182 196
3 183 196 197
3 184 183 197
3 185 184 197
3 185 197 198
3 186 185 198
3 186 198 199
3 187 186 199
3 187 199 200
3 188 187 200
3 188 200 201
3 189 188 201
3 190 189 201
3 190 201 202
3 192 191 203
3 178 191 192
3 193 192 204
3 193 204 205
3 194 193 205
3 194 205 206
3 195 194 206
3 196 195 206
3 196 206 207
3 197 196 207
3 197 207 208
3 198 197 208
3 199 198 208
3 199 208 209
3 200 199 209
3 200 209 210
3 201 200 210
3 202 201 210
3 202 210 211
3 204 203 212
3 192 203 204
3 205 204 213
3 205 213 214
3 206 205 214
3 207 206 214
3 207 214 215
3 208 207 215
3 209 208 215
3 209 215 216
3 210 209 216
3 211 210 216
3 211 216 217
3 213 212 218
3 204 212 213
3 214 213 219
3 215 214 219
3 216 215 219
3 217 216 219
3 218 217 219
3 213 218 219
3 218 212 24
3 218 24 23
3 218 23 217
3 217 23 21
3 217 21 211
3 211 21 19
3 211 19 202
3 202 19 17
3 202 17 190
3 190 17 15
3 190 15 176
3 176 15 13
3 176 13 160
3 160 13 11
3 160 11 142
3 142 11 9
3 142 9 124
3 124 9 107
3 107 9 7
3 107 7 91
3 91 7 4
3 91 4 75
3 75 4 76
3 76 4 3
3 76 1 61
3 61 1 62
3 62 1 0
3 62 0 45
3 62 45 63
3 63 45 77
3 77 45 43
3 77 43 41
3 77 41 78
3 78 41 92
3 92 41 39
3 92 39 108
3 108 39 37
3 108 37 125
3 125 37 143
3 143 37 35
3 143 35 161
3 161 35 33
3 161 33 177
3 177 33 31
3 177 31 191
3 191 31 29
3 191 29 203
3 203 29 26
3 203 26 212
3 212 26 24
3 220 221 222
3 223 220 222
3 223 222 224
3 225 226 227
3 221 225 227
3 221 227 228
3 222 221 228
3 222 228 229
3 224 222 229
3 224 229 230
3 231 232 233
3 234 231 233
3 234 233 235
3 226 234 235
3 226 235 236
3 227 226 236
3 227 236 237
3 228 227 237
3 228 237 238
3 229 228 238
3 229 238 239
3 230 229 239
3 230 239 240
3 241 242 243
3 244 241 243
3 244 243 245
3 232 244 245
3 232 245 246
3 233 232 246
3 235 233 246
3 235 246 247
3 235 247 248
3 236 235 248
3 236 248 249
3 237 236 249
3 237 249 250
3 238 237 250
3 238 250 251
3 239 238 251
3 239 251 252
3 240 239 252
3 243 242 253
3 243 253 254
3 245 243 254
3 245 254 255
3 246 245 255
3 246 255 256
3 247 246 256
3 247 256 257
3 248 247 257
3 248 257 258
3 249 248 258
3 250 249 259
3 250 259 260
3 251 250 260
3 251 260 261
3 252 251 261
3 253 262 263
3 254 253 263
3 254 263 264
3 255 254 264
3 256 255 264
3 257 256 265
3 257 265 266
3 260 267 268
3 261 260 268
3 263 262 269
3 268 267 270
3 270 28 30
3 270 30 268
3 268 30 32
3 268 32 261
3 261 32 34
3 261 34 252
3 252 34 36
3 252 36 240
3 240 36 38
3 240 38 230
3 230 38 40
3 230 40 224
3 224 40 42
3 224 42 223
3 223 42 44
3 223 44 46
3 223 46 220
3 271 272 5
3 273 8 10
3 273 10 241
3 241 10 12
3 241 12 242
3 242 12 14
3 242 14 253
3 253 14 16
3 253 16 262
3 262 16 18
3 262 18 20
3 262 20 269
3 1 274 2
3 2 274 272
3 1 275 274
3 275 276 274
3 275 3 276
3 274 276 272
3 272 276 5
3 276 3 5
3 3 275 76
3 76 275 1
3 271 277 278
3 277 279 278
3 277 280 279
3 281 282 283
3 282 278 283
3 282 271 278
3 283 278 284
3 281 283 285
3 283 286 285
3 283 284 286
3 285 286 287
3 288 289 290
3 289 285 290
3 289 281 285
3 290 285 287
3 288 290 291
3 290 292 291
3 290 287 292
3 291 292 225
3 220 293 294
3 293 291 294
3 293 288 291
3 294 291 225
3 220 294 221
3 294 225 221
3 280 295 296
3 234 297 231
3 287 286 298
3 286 297 298
3 286 284 297
3 298 297 234
3 287 298 226
3 298 234 226
3 225 292 226
3 292 287 226
3 2 299 46
3 220 299 46
3 220 299 293
3 299 300 293
3 299 2 300
3 293 300 288
3 288 300 289
3 300 301 289
3 300 2 301
3 289 301 281
3 281 301 272
3 301 2 272
3 271 282 272
3 281 282 272
3 6 302 5
3 271 302 5
3 271 302 277
3 302 303 277
3 302 6 303
3 277 303 280
3 280 303 295
3 303 304 295
3 303 6 304
3 295 304 273
3 273 304 8
3 304 6 8
3 25 305 23
3 22 305 23
3 27 306 24
3 25 306 24
3 264 307 256
3 256 307 265
3 269 308 263
3 264 308 263
3 264 308 309
3 308 310 309
3 308 269 310
3 309 310 311
3 265 307 312
3 307 309 312
3 307 264 309
3 312 309 311
3 265 312 313
3 312 314 313
3 312 311 314
3 313 314 315
3 265 313 266
3 266 313 315
3 315 316 266
3 267 317 270
3 311 310 318
3 310 319 318
3 310 269 319
3 318 319 320
3 315 314 321
3 314 318 321
3 314 311 318
3 321 318 320
3 315 321 322
3 321 323 322
3 321 320 323
3 322 323 324
3 325 316 326
3 316 322 326
3 316 315 322
3 326 322 324
3 270 317 327
3 317 326 327
3 317 325 326
3 327 326 324
3 270 327 328
3 327 329 328
3 327 324 329
3 328 329 27
3 270 328 28
3 328 27 28
3 22 330 20
3 269 330 20
3 269 330 319
3 330 331 319
3 330 22 331
3 319 331 320
3 320 331 332
3 331 305 332
3 331 22 305
3 332 305 25
3 320 332 323
3 332 333 323
3 332 25 333
3 323 333 324
3 324 333 329
3 333 306 329
3 333 25 306
3 329 306 27
3 244 334 241
3 273 334 241
3 335 336 232
3 336 244 232
3 231 337 232
3 337 335 232
3 258 338 249
3 249 338 259
3 266 339 257
3 258 339 257
3 258 339 340
3 339 341 340
3 339 266 341
3 340 341 342
3 259 338 343
3 338 340 343
3 338 258 340
3 343 340 342
3 259 343 344
3 343 345 344
3 343 342 345
3 344 345 267
3 259 344 260
3 260 344 267
3 342 341 346
3 341 347 346
3 341 266 347
3 346 347 325
3 267 345 348
3 345 346 348
3 345 342 346
3 348 346 325
3 279 349 278
3 278 349 284
3 350 351 295
3 295 351 296
3 273 352 295
3 295 352 350
3 296 351 353
3 351 354 353
3 351 350 354
3 353 354 335
3 284 349 355
3 349 356 355
3 349 279 356
3 355 356 357
3 279 358 356
3 358 359 356
3 358 296 359
3 356 359 357
3 296 358 280
3 279 358 280
3 357 359 360
3 359 353 360
3 359 296 353
3 360 353 335
3 284 355 361
3 355 362 361
3 355 357 362
3 361 362 231
3 357 360 362
3 360 337 362
3 360 335 337
3 362 337 231
3 231 361 297
3 284 361 297
3 335 354 336
3 354 363 336
3 354 350 363
3 336 363 244
3 350 352 363
3 352 334 363
3 352 273 334
3 363 334 244
3 325 347 316
3 266 347 316
3 267 348 317
3 325 348 317

CELL_TYPES 724
5
5
5
5
5
5
5
5
5
5
5
5
5
5
5
5
5
5
5
5
5
5
5
5
5
5
5
5
5
5
5
5
5
5
5
5
5
5
5
5
5
5
5
5
5
5
5
5
5
5
5
5
5
5
5
5
5
5
5
5
5
5
5
5
5
5
5
5
5
5
5
5
5
5
5
5
5
5
5
5
5
5
5
5
5
5
5
5
5
5
5
5
5
5
5
5
5
5
5
5
5
5
5
5
5
5
5
5
5
5
5
5
5
5
5
5
5
5
5
5
5
5
5
5
5
5
5
5
5
5
5
5
5
5
5
5
5
5
5
5
5
5
5
5
5
5
5
5
5
5
5
5
5
5
5
5
5
5
5
5
5
5
5
5
5
5
5
5
5
5
5
5
5
5
5
5
5
5
5
5
5
5
5
5
5
5
5
5
5
5
5
5
5
5
5
5
5
5
5
5
5
5
5
5
5
5
5
5
5
5
5
5
5
5
5
5
5
5
5
5
5
5
5
5
5
5
5
5
5
5
5
5
5
5
5
5
5
5
5
5
5
5
5
5
5
5
5
5
5
5
5
5
5
5
5
5
5
5
5
5
5
5
5
5
5
5
5
5
5
5
5
5
5
5
5
5
5
5
5
5
5
5
5
5
5
5
5
5
5
5
5
5
5
5
5
5
5
5
5
5
5
5
5
5
5
5
5
5
5
5
5
5
5
5
5
5
5
5
5
5
5
5
5
5
5
5
5
5
5
5
5
5
5
5
5
5
5
5
5
5
5
5
5
5
5
5
5
5
5
5
5
5
5
5
5
5
5
5
5
5
5
5
5
5
5
5
5
5
5
5
5
5
5
5
5
5
5
5
5
5
5
5
5
5
5
5
5
5
5
5
5
5
5
5
5
5
5
5
5
5
5
5
5
5
5
5
5
5
5
5
5
5
5
5
5
5
5
5
5
5
5
5
5
5
5
5
5
5
5
5
5
5
5
5
5
5
5
5
5
5
5
5
5
5
5
5
5
5
5
5
5
5
5
5
5
5
5
5
5
5
5
5
5
5
5
5
5
5
5
5
5
5
5
5
5
5
5
5
5
5
5
5
5
5
5
5
5
5
5
5
5
5
5
5
5
5
5
5
5
5
5
5
5
5
5
5
5
5
5
5
5
5
5
5
5
5
5
5
5
5
5
5
5
5
5
5
5
5
5
5
5
5
5
5
5
5
5
5
5
5
5
5
5
5
5
5
5
5
5
5
5
5
5
5
5
5
5
5
5
5
5
5
5
5
5
5
5
5
5
5
5
5
5
5
5
5
5
5
5
5
5
5
5
5
5
5
5
5
5
5
5
5
5
5
5
5
5
5
5
5
5
5
5
5
5
5
5
5
5
5
5
5
5
5
5
5
5
5
5
5
5
5
5
5
5
5
5
5
5
5
5
5
5
5
5
5
5
5
5
5
5
5
5
5
5
5
5
5
5
5
5
5
5
5
5
5
5
5
5
5
5
5
5
5
5
5
5
5
5
5
5
5
5
5
5
5
5
5
5
5
5
5
5
5
5
5
5
5
5
5
5
5
5
5
5
5
5
5
5
5
5
5
5
5
5
5
5
5
5
5
5
5
5
5
5
5
5
5
5
5
5
5
5
5

CELL_DATA 724
SCALARS cell_data_0 double
LOOKUP_TABLE default
1.79916128935e-06
2.21902501352e-07
2.0968013505e-07
3.01889855456e-07
3.83102645546e-07
6.02544221805e-07
2.29856243692e-07
8.41191069618e-07
3.93652921658e-08
9.85788075433e-07
1.26745262342e-07
1.07195187489e-06
2.64815003909e-07
1.10407273436e-06
3.81592543982e-07
1.15432291179e-06
4.4069504334e-07
1.15830340967e-06
5.18319791384e-07
1.55260902286e-07
9.20722721184e-08
9.48901102765e-07
3.16749939565e-08
9.69386089853e-07
6.61674133834e-07
8.71783814883e-07
6.80848796468e-07
7.09895476217e-07
6.74570273679e-07
5.13611954858e-07
6.38263696152e-07
2.61987244811e-07
5.46595026473e-07
8.72455970011e-09
3.50882936059e-07
1.22172145283e-07
4.18757207196e-08
6.09538843032e-07
2.96260504218e-07
4.14824896315e-06
5.18473128408e-08
9.146677648e-07
3.46439679676e-07
5.29640289618e-09
9.57115822187e-10
8.90974861553e-09
3.27105943229e-09
2.40507815703e-08
2.59903484017e-08
8.37113979007e-10
3.2845275313e-09
4.14454679398e-09
2.5526195316e-09
3.42623030953e-09
8.5738722615e-09
2.05192500779e-08
4.45847172927e-08
1.27731876261e-07
9.10344279205e-08
7.75548120872e-08
3.66593509567e-08
7.2523191028e-08
1.05930765854e-07
8.75902051632e-08
6.06322037113e-08
2.35814606271e-08
4.04967091303e-09
2.01359910622e-08
2.23206672188e-08
1.18980602384e-08
9.70881620705e-09
2.45364778005e-10
8.44378282989e-09
1.29838564395e-08
1.57910177552e-08
1.95993805233e-08
2.11581049338e-08
4.05924630959e-09
4.79269743228e-10
3.9931633485e-08
4.74278031888e-08
6.16994395473e-08
1.51064294688e-07
7.62786142645e-08
6.1638989471e-08
9.23435546547e-08
5.17181554006e-08
3.49833076089e-08
6.67308067555e-10
2.49556217227e-08
4.1698846307e-08
4.34352799024e-08
3.34151535475e-08
3.04896094848e-08
1.95325722029e-08
1.45434936151e-08
2.09150565659e-09
3.09352574748e-09
1.52694842555e-08
1.92665694272e-08
2.84230307916e-08
3.08460658847e-08
3.81347605174e-08
3.45799894318e-08
3.70029676131e-08
2.21415246759e-08
2.24917349624e-08
1.03559661141e-08
5.65067313441e-09
1.70142566325e-08
3.83721090683e-08
3.78657198525e-10
3.05552649526e-08
5.01046319436e-08
6.56923328423e-08
6.09824091999e-08
5.32405735001e-08
4.55790008332e-08
3.77452081337e-08
2.99033091508e-08
1.9911522207e-08
1.338776457e-08
2.34704161615e-09
3.08972702849e-09
1.43640836358e-08
2.01929320651e-08
2.8534124905e-08
3.5089346275e-08
4.10437615802e-08
4.69348754888e-08
5.10781143104e-08
5.13147889057e-08
4.9426254288e-08
4.07620168062e-08
3.8455054771e-08
2.59851050132e-08
2.2717567859e-08
3.25785438406e-09
9.7225734449e-09
3.57404509686e-08
5.97460893077e-08
7.24584549581e-08
8.39295302758e-08
7.82361169653e-08
6.75312092073e-08
5.95463945281e-08
4.99463259364e-08
4.15854862157e-08
3.22720713553e-08
2.42422192392e-08
1.612737223e-08
8.29843584433e-09
5.19266206121e-12
7.94971518197e-09
1.58046662579e-08
2.33934819283e-08
3.10824503687e-08
3.85663785179e-08
4.51856119152e-08
5.21592330162e-08
5.67637475577e-08
6.30665478048e-08
6.02414769738e-08
6.06811086397e-08
4.95346788615e-08
4.28390634544e-08
2.96607254986e-08
2.18196378908e-08
4.88986649178e-09
1.41938988477e-08
6.72702270437e-08
8.93139889925e-08
9.43770957604e-08
1.02467109894e-07
9.11983627388e-08
8.20055975343e-08
7.02271103286e-08
6.18116227139e-08
4.99780953851e-08
4.18510054719e-08
3.10900601235e-08
2.40407729146e-08
1.40657074316e-08
6.78567958805e-09
3.17558056736e-09
9.98596298006e-09
1.94149244012e-08
2.60369685456e-08
3.55465520861e-08
4.19032801984e-08
5.11334229672e-08
5.69760717151e-08
6.41937400419e-08
6.76991684497e-08
7.14218879943e-08
6.90893573881e-08
5.66714387146e-08
4.07843828813e-08
6.43335384508e-09
6.83158044607e-09
1.11502294132e-08
9.80121200013e-10
2.58696399812e-08
6.53023974762e-08
7.85396464069e-08
1.12519387295e-07
9.84472267876e-08
7.79371455291e-08
8.09368647736e-08
6.32659423645e-08
6.2275760143e-08
4.83790671191e-08
4.50504991342e-08
3.41297573154e-08
2.88503255467e-08
2.06336788893e-08
1.34247113515e-08
7.6109534389e-09
1.4286564748e-09
4.50539095121e-09
1.56775664919e-08
1.66809624582e-08
2.98645010734e-08
2.87552925618e-08
4.37792739265e-08
4.08341833771e-08
5.61313836368e-08
5.10008124189e-08
6.42284732826e-08
5.70240103382e-08
5.5820160688e-08
4.34642791924e-08
3.50043340784e-09
1.23197101425e-08
2.3312394054e-08
5.10826666208e-09
9.15207014322e-09
3.73571659644e-08
6.72042473665e-08
6.75050931863e-08
6.61951156781e-08
5.79714921792e-08
5.50203317908e-08
4.57262868088e-08
4.20308949187e-08
3.3474739841e-08
2.8984528506e-08
2.16517956274e-08
1.7158475991e-08
1.08828521113e-08
5.55129233771e-09
3.15144801852e-10
5.32350558484e-09
9.91086396792e-09
1.65282142223e-08
2.03573879959e-08
2.75907454256e-08
3.07669254556e-08
3.7711043844e-08
4.00817437709e-08
4.5345582502e-08
4.62100369985e-08
4.22823682822e-08
3.73422083056e-08
8.2792427194e-09
7.48508581963e-09
1.55176554301e-08
1.37772065194e-08
4.17629571467e-08
5.48189789726e-08
7.10109270101e-08
7.19823808893e-08
6.04963917652e-08
5.88253320706e-08
4.61250522885e-08
4.20612137937e-08
3.13831727464e-08
2.55948652977e-08
1.81130983258e-08
1.0117065002e-08
4.4161637848e-09
6.14514238299e-09
9.57178857648e-09
1.64311055659e-08
2.42166877356e-08
2.84382488392e-08
3.7606464804e-08
3.93113965486e-08
4.78991581872e-08
4.65291380776e-08
4.43916693311e-08
3.46380195251e-08
4.74856032437e-09
2.83130255435e-08
3.5060715212e-08
2.6207735124e-08
4.62320477496e-08
5.82231283094e-08
7.39823807198e-08
6.94135119215e-08
6.07374170696e-08
5.39744060073e-08
4.27571342315e-08
3.41004190678e-08
2.4789353425e-08
1.36551317649e-08
6.72192608418e-09
6.84004700389e-09
1.23642547037e-08
2.19732949588e-08
3.019505858e-08
3.69071414945e-08
4.34435779278e-08
4.60139461937e-08
3.98879983685e-08
3.26232013174e-08
1.51094109954e-08
4.81049659342e-08
5.66795719969e-08
3.28646383874e-08
4.37296074007e-08
6.10833788633e-08
7.05552172049e-08
7.05989105199e-08
5.22979185446e-08
4.29627103708e-08
2.88962963776e-08
1.44944900783e-08
1.14522871432e-09
1.09608222976e-08
2.87391021978e-08
3.30670785128e-08
4.02356809176e-08
3.80617820107e-08
2.70976826305e-08
3.05334628429e-08
6.57989056557e-08
7.05129950429e-08
4.43151890741e-08
4.66825426152e-08
5.89731271854e-08
6.54608529101e-08
4.46511485138e-08
2.43298218145e-08
1.91566547668e-09
1.77607281851e-08
2.71565772942e-08
2.46992895502e-08
2.62180085422e-08
6.89945297055e-08
7.70749166559e-08
3.69405325026e-08
4.23975379879e-08
5.77243721808e-08
6.88284960909e-06
6.36979867058e-06
6.01700219811e-06
6.25391896289e-06
6.92966141791e-06
7.21896284848e-06
3.11812002829e-08
3.53427292071e-08
2.00908676745e-09
4.53293154e-07
4.57271419667e-07
9.87813171862e-07
4.13793479325e-07
1.05710610511e-06
3.86350764528e-07
1.02982992083e-06
3.99110237616e-07
1.07082739689e-06
3.98024548656e-07
9.94943233687e-07
1.59415677738e-07
3.40805047017e-07
1.294831237e-07
2.33991004266e-07
5.13690904e-07
1.08945996899e-07
1.08517410906e-07
4.48668746209e-09
3.36153994058e-09
2.56889967821e-08
3.10302889469e-06
2.31030192437e-06
1.37332538435e-06
9.41682596096e-07
1.4653043576e-06
2.02556528886e-06
2.15623622596e-06
2.3161999268e-07
9.06234999258e-09
8.74437071679e-10
8.02840604184e-08
8.87667155863e-08
4.46378479603e-07
2.18775412718e-07
1.74273081032e-07
7.05140750033e-07
2.70631452292e-07
8.70929410883e-07
2.89905169141e-07
9.34012980826e-07
2.7651930504e-07
9.07833370675e-07
2.61679197192e-07
9.02622014297e-07
2.41609965368e-07
2.77010320445e-07
9.50240052687e-07
2.03313179154e-06
1.37916384464e-07
2.171822115e-06
2.67465815049e-06
2.64834573132e-06
1.85167054353e-06
1.54419142839e-06
1.52282497892e-06
1.89004216515e-06
1.00783406387e-06
1.44454938787e-06
1.65505787724e-06
1.75074609355e-06
1.73049193964e-06
1.93205280962e-06
1.70427055406e-06
2.03474582072e-06
1.62045111178e-06
1.84354194281e-06
1.38878327326e-06
1.46293911662e-06
1.15656659569e-06
6.37107976515e-07
1.05709647244e-06
1.08691737952e-06
8.31309783878e-07
8.02180796617e-07
9.99468416422e-07
1.51417495042e-06
1.36033142275e-06
1.38999096092e-06
1.47335871973e-06
1.23673209408e-06
1.26729509088e-06
1.06346005785e-06
1.11709162616e-06
9.65309976908e-07
1.02317185383e-06
8.96640663474e-07
9.23176305202e-07
4.30032780866e-07
6.46478153497e-07
8.31468683046e-07
8.01778819957e-07
9.61141479058e-07
8.61437782547e-07
9.95110264765e-07
8.67236324148e-07
1.03746247469e-06
7.97577962528e-07
9.65163484519e-07
8.59310837561e-07
8.24343290422e-07
8.79949841085e-07
9.08557322553e-07
8.52378177627e-07
1.13198815456e-05
3.9312791603e-06
5.11925455027e-06
6.69082186351e-07
6.77361583501e-07
7.7258017324e-07
8.19129498656e-08
5.61904309714e-06
1.71354921814e-06
1.90944753547e-05
1.90874900472e-05
5.23694544786e-06
1.5555436606e-05
3.08576045046e-06
2.38375538903e-06
6.04830703652e-07
4.36186352226e-08
4.86145633514e-07
3.63069593475e-08
2.9047131018e-07
2.21684334703e-07
8.52724240666e-08
5.20599068077e-07
1.27946097561e-07
4.9063547834e-07
3.28039660525e-07
7.70752076016e-07
3.70200703915e-06
8.8626292247e-07
5.25266492623e-08
2.46868188317e-07
6.34854683796e-09
7.66876705206e-08
3.60191778646e-07
1.87470976461e-07
4.81417931109e-07
1.16695164842e-06
1.13813761211e-06
1.16140070843e-06
7.17669467297e-06
9.45030462592e-07
1.4514488953e-06
3.00293385485e-06
5.2441396809e-06
4.13768426888e-06
2.05240341304e-06
2.78043461874e-06
5.14344603226e-06
2.87785734033e-07
1.91789507109e-06
4.43752168696e-06
8.02679680336e-06
4.95274591731e-06
3.0760219329e-07
3.13794842739e-06
7.5326671624e-07
2.7664438439e-06
4.45451816611e-07
1.07482393459e-06
4.64828641941e-07
5.3407567827e-07
1.91213620845e-06
2.39655822231e-06
2.13401709757e-06
1.30143245297e-06
2.01872660817e-06
6.1277324349e-07
8.81243337561e-08
7.17319336373e-08
5.37231084552e-07
8.11541967166e-07
2.25444976379e-06
1.05296973769e-06
1.6968305346e-06
6.85792610521e-07
1.67277694545e-07
1.87781233191e-06
7.78330525739e-07
1.74772272885e-06
7.30591339272e-07
1.67665057724e-06
1.75959708284e-06
1.84041236067e-06
2.27878154278e-06
2.53610399928e-06
2.37516459507e-06
2.58728010525e-06
4.65451441163e-06
6.04276888856e-06
4.48012728155e-06
6.87403041153e-06
7.95778151071e-07
4.68762104769e-06
4.14104190986e-06
7.26448712299e-07
1.34746829736e-06
2.52572948852e-06
1.62528377459e-06
2.3540493232e-06
2.87824548879e-07
7.24209122706e-08
1.10960795662e-06
8.18508597811e-07
1.18044032155e-06
1.46722719316e-06
2.40664472822e-07
8.02539422462e-07
1.36804291528e-06
3.39577892293e-07
5.85633981077e-07
5.85595605749e-07
6.6063165603e-08
2.91332026337e-07
2.58384944881e-09
4.56871039465e-08
3.83428275211e-07
4.42791382317e-07
4.24419315597e-06
2.50688455169e-06
2.50176071046e-07
2.58783049866e-08
1.3313598495e-07
2.49570420985e-07
2.13462481216e-07
5.94532828172e-08
1.94582524844e-07
1.91016513312e-07
2.5941959338e-07
2.79286962144e-08
2.24561222271e-07
1.79466159451e-06
1.01555176897e-07
5.28153292352e-06
5.67521126563e-06
4.24920594247e-06
2.09153016558e-07
3.05309363199e-08
1.34496970217e-07
2.39777717169e-08
1.68451889692e-06
2.50845013929e-08
2.04928546928e-07
1.33688609008e-08
1.92033878984e-06
5.30355480714e-08
7.28232007109e-08
1.61302332433e-06
1.26322688027e-06
8.02968226716e-09
1.65601902089e-06
1.36229399567e-06
7.57319465088e-07
1.75477931644e-09
1.32183518619e-06
1.38755142708e-06
9.85255268134e-07
5.50277184688e-08
2.03480923625e-06
1.06255306872e-08
1.98001289801e-06
3.53452733852e-07
7.87158142324e-07
1.50587273469e-07
2.89860549196e-07
7.09255199437e-07
6.24392466181e-07
1.0840543397e-07
2.39856580098e-07
4.65524874798e-07
3.17080085473e-07
2.92027568596e-07
4.5255374832e-08
5.35453114418e-07
5.13291769715e-07
2.27265469191e-06
2.06305592294e-06
3.17488741241e-07
2.89234382162e-07
2.03406332996e-09
8.53329849548e-07
6.36006783137e-07
3.87560169914e-07
8.65679135759e-07
9.57057120494e-07
4.88715103234e-07
3.85063025054e-07
3.84865372194e-07
3.24611374238e-07
2.60646922969e-07