# vtk DataFile Version 3.0
File Name: Molecule/methanol/methanol_4.0-1.vtk
ASCII
DATASET UNSTRUCTURED_GRID
FIELD FieldData 1
TIME 1 1 double
0.0
POINTS 203 double
1.611 0.0 -0.359
1.51 -0.576 -0.349
1.403 0.0 -0.933
1.219 -1.083 -0.32
0.773 -1.459 -0.275
1.046 -0.986 -0.897
0.639 -1.329 -0.857
0.226 -1.659 -0.221
0.141 -1.511 -0.807
-0.356 -1.659 -0.163
-0.389 -1.511 -0.754
-0.903 -1.459 -0.108
-0.887 -1.329 -0.705
-1.349 -1.083 -0.064
-1.294 -0.986 -0.664
-1.64 -0.576 -0.035
-1.559 -0.525 -0.638
-1.742 -0.0 -0.025
-1.651 -0.0 -0.629
-1.64 0.576 -0.035
-1.559 0.525 -0.638
-1.349 1.083 -0.064
-1.294 0.986 -0.664
-0.903 1.459 -0.108
-0.887 1.329 -0.705
-0.356 1.659 -0.163
-0.389 1.511 -0.754
0.226 1.659 -0.221
0.141 1.511 -0.807
0.773 1.459 -0.275
0.639 1.329 -0.857
1.219 1.083 -0.32
1.046 0.986 -0.897
1.51 0.576 -0.349
1.311 0.525 -0.924
1.907 0.0 0.656
1.83 0.532 0.656
1.83 0.266 1.116
1.83 -0.266 1.116
1.83 -0.532 0.656
1.83 -0.266 0.195
1.83 0.266 0.195
1.607 0.884 1.166
1.607 0.51 1.539
1.607 -0.0 1.676
1.607 -0.51 1.539
1.607 -0.884 1.166
1.607 -1.02 0.656
1.607 -0.884 0.145
1.607 0.884 0.145
1.607 1.02 0.656
1.255 1.33 1.171
1.255 1.054 1.617
1.255 0.636 1.933
1.255 0.132 2.076
1.255 -0.39 2.028
1.255 -0.86 1.794
1.255 -1.213 1.407
1.255 -1.402 0.918
1.255 -1.402 0.393
1.255 1.33 0.14
1.255 1.426 0.656
0.803 1.633 1.186
0.803 1.389 1.665
0.803 1.009 2.045
0.803 0.531 2.288
0.803 -0.0 2.373
0.803 -0.531 2.288
0.803 -1.009 2.045
0.803 -1.389 1.665
0.803 -1.633 1.186
0.803 -1.717 0.656
0.803 -1.633 0.125
0.803 1.633 0.125
0.803 1.717 0.656
0.288 1.793 1.182
0.288 1.572 1.666
0.288 1.223 2.068
0.288 0.776 2.355
0.288 0.266 2.505
0.288 -0.266 2.505
0.288 -0.776 2.355
0.288 -1.223 2.068
0.288 -1.572 1.666
0.288 -1.793 1.182
0.288 -1.868 0.656
0.288 -1.793 0.129
0.288 1.793 0.129
0.288 1.868 0.656
-0.25 1.793 1.182
-0.25 1.572 1.666
-0.25 1.223 2.068
-0.25 0.776 2.355
-0.25 0.266 2.505
-0.25 -0.266 2.505
-0.25 -0.776 2.355
-0.25 -1.223 2.068
-0.25 -1.572 1.666
-0.25 -1.793 1.182
-0.25 -1.868 0.656
-0.25 -1.793 0.129
-0.25 1.793 0.129
-0.25 1.868 0.656
-0.765 1.717 0.656
-0.765 1.633 1.186
-0.765 1.389 1.665
-0.765 1.009 2.045
-0.765 0.531 2.288
-0.765 -0.0 2.373
-0.765 -0.531 2.288
-0.765 -1.009 2.045
-0.765 -1.389 1.665
-0.765 -1.633 1.186
-0.765 -1.717 0.656
-1.217 1.426 0.656
-1.217 1.33 1.171
-1.217 1.054 1.617
-1.217 0.636 1.933
-1.217 0.132 2.076
-1.217 -0.39 2.028
-1.217 -0.86 1.794
-1.217 -1.213 1.407
-1.217 -1.402 0.918
-1.217 -1.402 0.393
-1.569 1.02 0.656
-1.569 0.884 1.166
-1.569 0.51 1.539
-1.569 -0.0 1.676
-1.569 -0.51 1.539
-1.569 -0.884 1.166
-1.569 -1.02 0.656
-1.792 0.532 0.656
-1.792 0.266 1.116
-1.792 -0.266 1.116
-1.792 -0.532 0.656
-1.868 0.0 0.656
1.056 0.854 -1.231
1.056 0.493 -1.592
0.648 0.94 -1.677
0.648 1.228 -1.246
0.648 -1.228 -1.246
0.147 -1.421 -1.254
0.147 -1.158 -1.709
0.648 -0.94 -1.677
0.147 -0.756 -2.046
0.648 -0.509 -1.965
0.147 -0.263 -2.226
0.648 0.0 -2.067
0.147 0.262 -2.226
0.648 0.509 -1.965
0.147 0.756 -2.046
0.147 1.158 -1.709
0.147 1.421 -1.254
-0.386 -1.421 -1.254
-0.386 -1.158 -1.709
-0.386 -0.756 -2.046
-0.386 -0.263 -2.226
-0.386 0.262 -2.226
-0.386 0.756 -2.046
-0.386 1.158 -1.709
-0.386 1.421 -1.254
-0.887 -1.228 -1.246
-0.887 -0.94 -1.677
-0.887 -0.509 -1.965
-0.887 0.0 -2.067
-0.887 0.509 -1.965
-0.887 0.94 -1.677
-0.887 1.228 -1.246
-1.296 -0.854 -1.231
-1.296 -0.493 -1.592
-1.296 -0.0 -1.724
-1.296 0.493 -1.592
-1.296 0.854 -1.231
-1.562 -0.263 -1.192
-1.562 0.263 -1.192
1.323 0.263 -1.192
1.323 -0.263 -1.192
1.311 -0.525 -0.924
1.056 -0.854 -1.231
1.4105 -0.5505 -0.6365
1.3645 -0.8295 -0.3345
1.265 -0.804 -0.622
1.1895 -0.5585 -1.2115
1.1895 -0.378 -1.392
1.056 -0.6735 -1.4115
1.056 -0.493 -1.592
1.1895 -0.1315 -1.458
1.056 -0.2465 -1.658
1.056 -0.0 -1.724
1.323 0.0 -1.192
1.1895 0.1315 -1.458
1.1895 0.378 -1.392
1.056 0.2465 -1.658
0.852 -0.897 -1.454
0.852 -0.7165 -1.6345
0.852 -0.501 -1.7785
0.648 -0.7245 -1.821
0.852 -0.2545 -1.8445
0.852 0.0 -1.8955
0.648 -0.2545 -2.016
0.852 0.2545 -1.8445
0.648 0.2545 -2.016
0.852 0.501 -1.7785

CELLS 402 1608
3 0 1 2
3 3 4 5
3 5 4 6
3 4 7 6
3 6 7 8
3 7 9 8
3 8 9 10
3 9 11 10
3 10 11 12
3 11 13 12
3 12 13 14
3 13 15 14
3 14 15 16
3 15 17 16
3 16 17 18
3 17 19 18
3 18 19 20
3 19 21 20
3 20 21 22
3 21 23 22
3 22 23 24
3 23 25 24
3 24 25 26
3 25 27 26
3 26 27 28
3 27 29 28
3 28 29 30
3 29 31 30
3 30 31 32
3 31 33 32
3 32 33 34
3 33 0 34
3 34 0 2
3 35 36 37
3 35 37 38
3 35 38 39
3 35 39 40
3 35 40 41
3 35 41 36
3 37 36 42
3 37 42 43
3 37 43 44
3 38 37 44
3 38 44 45
3 38 45 46
3 39 38 46
3 39 46 47
3 39 47 48
3 40 39 48
3 36 41 49
3 36 49 50
3 36 50 42
3 42 50 51
3 42 51 52
3 43 42 52
3 43 52 53
3 43 53 54
3 44 43 54
3 44 54 55
3 45 44 55
3 45 55 56
3 46 45 56
3 46 56 57
3 46 57 58
3 47 46 58
3 47 58 59
3 48 47 59
3 50 49 60
3 50 60 61
3 50 61 51
3 51 61 62
3 51 62 63
3 52 51 63
3 52 63 64
3 53 52 64
3 53 64 65
3 54 53 65
3 54 65 66
3 55 54 66
3 55 66 67
3 56 55 67
3 56 67 68
3 56 68 69
3 57 56 69
3 57 69 70
3 58 57 70
3 58 70 71
3 59 58 71
3 59 71 72
3 61 60 73
3 61 73 74
3 61 74 62
3 62 74 75
3 62 75 76
3 63 62 76
3 63 76 77
3 64 63 77
3 64 77 78
3 65 64 78
3 65 78 79
3 66 65 79
3 66 79 80
3 67 66 80
3 67 80 81
3 68 67 81
3 68 81 82
3 69 68 82
3 69 82 83
3 70 69 83
3 70 83 84
3 71 70 84
3 71 84 85
3 71 85 86
3 72 71 86
3 74 73 87
3 74 87 88
3 74 88 75
3 75 88 89
3 75 89 90
3 76 75 90
3 76 90 91
3 77 76 91
3 77 91 92
3 78 77 92
3 78 92 93
3 79 78 93
3 79 93 94
3 80 79 94
3 80 94 95
3 81 80 95
3 81 95 96
3 82 81 96
3 82 96 97
3 83 82 97
3 83 97 98
3 84 83 98
3 84 98 99
3 85 84 99
3 85 99 100
3 86 85 100
3 88 87 101
3 88 101 102
3 88 102 89
3 89 102 103
3 89 103 104
3 90 89 104
3 90 104 105
3 91 90 105
3 91 105 106
3 92 91 106
3 92 106 107
3 93 92 107
3 93 107 108
3 94 93 108
3 94 108 109
3 95 94 109
3 95 109 110
3 96 95 110
3 96 110 111
3 97 96 111
3 97 111 112
3 98 97 112
3 98 112 113
3 99 98 113
3 100 99 113
3 102 101 103
3 104 103 114
3 104 114 115
3 105 104 115
3 105 115 116
3 106 105 116
3 106 116 117
3 107 106 117
3 107 117 118
3 108 107 118
3 108 118 119
3 109 108 119
3 109 119 120
3 110 109 120
3 111 110 120
3 111 120 121
3 112 111 121
3 112 121 122
3 113 112 122
3 113 122 123
3 115 114 124
3 115 124 125
3 116 115 125
3 116 125 126
3 117 116 126
3 118 117 126
3 118 126 127
3 119 118 127
3 119 127 128
3 120 119 128
3 120 128 129
3 121 120 129
3 122 121 129
3 122 129 130
3 123 122 130
3 125 124 131
3 125 131 132
3 126 125 132
3 127 126 132
3 127 132 133
3 128 127 133
3 129 128 133
3 129 133 134
3 130 129 134
3 132 131 135
3 133 132 135
3 134 133 135
3 134 135 17
3 134 17 15
3 134 15 130
3 130 15 13
3 130 13 123
3 123 13 11
3 123 11 113
3 113 11 100
3 100 11 9
3 100 9 7
3 100 7 86
3 86 7 72
3 72 7 4
3 72 4 3
3 72 3 59
3 59 3 48
3 48 1 40
3 40 1 0
3 40 0 41
3 41 0 33
3 41 33 49
3 49 33 31
3 49 31 60
3 60 31 29
3 60 29 73
3 73 29 27
3 73 27 87
3 87 27 101
3 101 27 25
3 101 25 23
3 101 23 103
3 103 23 114
3 114 23 21
3 114 21 124
3 124 21 19
3 124 19 131
3 131 19 17
3 131 17 135
3 136 137 138
3 136 138 139
3 140 141 142
3 143 140 142
3 143 142 144
3 145 144 146
3 147 146 148
3 149 148 150
3 138 149 150
3 138 150 151
3 139 138 151
3 139 151 152
3 141 153 154
3 142 141 154
3 144 142 154
3 144 154 155
3 144 155 156
3 146 144 156
3 146 156 157
3 148 146 157
3 148 157 158
3 150 148 158
3 150 158 159
3 151 150 159
3 151 159 160
3 152 151 160
3 154 153 161
3 154 161 162
3 155 154 162
3 155 162 163
3 156 155 163
3 156 163 164
3 157 156 164
3 157 164 165
3 158 157 165
3 158 165 166
3 159 158 166
3 159 166 167
3 160 159 167
3 162 161 168
3 162 168 169
3 163 162 169
3 163 169 170
3 164 163 170
3 165 164 170
3 165 170 171
3 166 165 171
3 166 171 172
3 167 166 172
3 169 168 173
3 170 169 173
3 170 173 174
3 171 170 174
3 172 171 174
3 172 174 20
3 172 20 22
3 172 22 167
3 167 22 24
3 167 24 160
3 160 24 26
3 160 26 28
3 160 28 152
3 152 28 30
3 152 30 139
3 139 30 32
3 139 32 136
3 136 32 34
3 136 34 175
3 175 34 2
3 176 2 177
3 178 177 5
3 178 5 140
3 140 5 6
3 140 6 141
3 141 6 8
3 141 8 153
3 153 8 10
3 153 10 12
3 153 12 161
3 161 12 14
3 161 14 168
3 168 14 16
3 168 16 173
3 173 16 18
3 173 18 174
3 174 18 20
3 1 179 2
3 2 179 177
3 1 180 179
3 180 181 179
3 180 3 181
3 179 181 177
3 177 181 5
3 181 3 5
3 3 180 48
3 48 180 1
3 176 182 183
3 182 184 183
3 182 178 184
3 183 184 185
3 176 183 186
3 183 187 186
3 183 185 187
3 186 187 188
3 175 189 190
3 189 186 190
3 189 176 186
3 190 186 188
3 175 190 191
3 190 192 191
3 190 188 192
3 191 192 137
3 175 191 136
3 191 137 136
3 143 193 140
3 178 193 140
3 185 184 194
3 184 193 194
3 184 178 193
3 194 193 143
3 185 194 195
3 194 196 195
3 194 143 196
3 195 196 145
3 188 187 197
3 187 195 197
3 187 185 195
3 197 195 145
3 188 197 198
3 197 199 198
3 197 145 199
3 198 199 147
3 188 198 200
3 198 201 200
3 198 147 201
3 200 201 149
3 137 192 202
3 192 200 202
3 192 188 200
3 202 200 149
3 137 202 138
3 202 149 138
3 145 196 144
3 196 143 144
3 147 199 146
3 199 145 146
3 149 201 148
3 201 147 148
3 176 189 2
3 175 189 2
3 178 182 177
3 176 182 177

CELL_TYPES 402
5
5
5
5
5
5
5
5
5
5
5
5
5
5
5
5
5
5
5
5
5
5
5
5
5
5
5
5
5
5
5
5
5
5
5
5
5
5
5
5
5
5
5
5
5
5
5
5
5
5
5
5
5
5
5
5
5
5
5
5
5
5
5
5
5
5
5
5
5
5
5
5
5
5
5
5
5
5
5
5
5
5
5
5
5
5
5
5
5
5
5
5
5
5
5
5
5
5
5
5
5
5
5
5
5
5
5
5
5
5
5
5
5
5
5
5
5
5
5
5
5
5
5
5
5
5
5
5
5
5
5
5
5
5
5
5
5
5
5
5
5
5
5
5
5
5
5
5
5
5
5
5
5
5
5
5
5
5
5
5
5
5
5
5
5
5
5
5
5
5
5
5
5
5
5
5
5
5
5
5
5
5
5
5
5
5
5
5
5
5
5
5
5
5
5
5
5
5
5
5
5
5
5
5
5
5
5
5
5
5
5
5
5
5
5
5
5
5
5
5
5
5
5
5
5
5
5
5
5
5
5
5
5
5
5
5
5
5
5
5
5
5
5
5
5
5
5
5
5
5
5
5
5
5
5
5
5
5
5
5
5
5
5
5
5
5
5
5
5
5
5
5
5
5
5
5
5
5
5
5
5
5
5
5
5
5
5
5
5
5
5
5
5
5
5
5
5
5
5
5
5
5
5
5
5
5
5
5
5
5
5
5
5
5
5
5
5
5
5
5
5
5
5
5
5
5
5
5
5
5
5
5
5
5
5
5
5
5
5
5
5
5
5
5
5
5
5
5
5
5
5
5
5
5
5
5
5
5
5
5
5
5
5
5
5
5
5
5
5
5
5
5
5
5
5
5
5
5
5
5
5
5
5
5
5
5
5
5
5
5
5
5
5
5
5
5
5
5
5
5
5
5

CELL_DATA 402
SCALARS cell_data_0 double
LOOKUP_TABLE default
3.34005012821e-06
5.10277871372e-07
3.00905655363e-07
1.00825646782e-06
4.43798197847e-07
1.3929832409e-06
5.40848835128e-08
1.54320719246e-06
2.29799370775e-07
1.64384794675e-06
4.52985908224e-07
1.62867785788e-06
6.14529424459e-07
1.56408142031e-06
7.56713602879e-07
1.4832929097e-06
8.41676916115e-07
1.37546588245e-06
9.15880082465e-07
1.15935228604e-06
9.84915939876e-07
8.66037435587e-07
1.0062072916e-06
4.1980629409e-07
9.18535939301e-07
6.78385654302e-08
5.63830619553e-07
5.29626579648e-08
2.0322839962e-07
3.5978134869e-06
6.60588063947e-07
4.78201772462e-07
4.29582055091e-07
9.27038770706e-09
3.95152685559e-09
3.26108663999e-08
3.75497921511e-08
5.16501760358e-08
5.44964260524e-08
9.45023496624e-09
1.11005326091e-08
1.13525618042e-08
1.41026617989e-08
2.21466529429e-08
5.12536564567e-10
6.31329759852e-08
6.88563714323e-08
4.01625403574e-08
2.57079349646e-08
1.18992978229e-07
2.79223633392e-08
2.63173674593e-08
6.48115299254e-08
6.18888261972e-08
3.00116847099e-08
1.98522348268e-08
9.94885077742e-09
2.62782562839e-08
4.2686206306e-08
5.0665378891e-08
5.87359484025e-08
2.70891450122e-08
3.92149405576e-08
2.23817599141e-08
9.87139843162e-09
4.23161872074e-09
6.54084412087e-09
2.73848877824e-08
4.75473658348e-08
8.6151017061e-08
1.20713424182e-07
1.10371111996e-07
8.2932145469e-08
6.51197654844e-08
3.78715348989e-08
1.8919485225e-08
7.10664958829e-09
2.54867657084e-08
4.98994950091e-08
6.69941443457e-08
7.96585832135e-08
9.86634769004e-08
1.06106939217e-07
8.97316487993e-08
8.37007832851e-08
5.58681738107e-08
3.61604315676e-08
1.62746746181e-08
1.05842873611e-08
7.30675103568e-08
1.35180416039e-07
1.51816133964e-07
1.78718060001e-07
1.51821552154e-07
1.23693793537e-07
9.74383176637e-08
7.18472588274e-08
4.73030926002e-08
2.29701408292e-08
1.2381348904e-09
2.36111102847e-08
4.36683456174e-08
6.75925177043e-08
8.55217649456e-08
1.06308263391e-07
1.22869008575e-07
1.26796826914e-07
1.2848647014e-07
1.02748410611e-07
5.86799038672e-08
2.22710341407e-08
7.32574598218e-09
3.80741545893e-09
3.3277874527e-08
1.72892615077e-07
2.13843970259e-07
2.09767631127e-07
2.21262678045e-07
1.82719701423e-07
1.54792575053e-07
1.16693641924e-07
9.4169089681e-08
5.86508749774e-08
4.0038131679e-08
6.01498329035e-09
9.38171730771e-09
4.31303653737e-08
5.67743751573e-08
9.1304160645e-08
1.02400920363e-07
1.32448211227e-07
1.38835357513e-07
1.47046199075e-07
1.3895020664e-07
5.83812529017e-08
2.44882104686e-09
9.22704888586e-08
5.44287396074e-08
8.85138870449e-09
3.01015246778e-08
1.8309029248e-07
2.10655860156e-07
2.56837649466e-07
2.19866080917e-07
1.70296742763e-07
1.64004488593e-07
1.24194603582e-07
1.04522320148e-07
7.47517362251e-08
5.34150411769e-08
3.12958179558e-08
6.72383167594e-09
8.43579358051e-09
3.70160925007e-08
4.808263867e-08
8.15896690993e-08
8.66991864133e-08
1.19770806499e-07
1.15444489848e-07
1.3036986138e-07
1.13822284715e-07
5.19490087178e-08
5.07649568867e-08
1.63512729865e-08
2.11938304544e-09
1.78817985554e-07
1.48422557071e-07
1.4307216924e-07
1.19468236961e-07
9.99363097044e-08
7.265403988e-08
5.53669110291e-08
3.45667237419e-08
1.2982914548e-08
2.84292822358e-09
2.67025056455e-08
3.92690736709e-08
6.67553588688e-08
7.75374465269e-08
9.11480303505e-08
9.17084474067e-08
9.01999186346e-08
6.39873104307e-08
5.83669340111e-08
2.17094376296e-08
1.42613818003e-07
1.43370260942e-07
1.06379062505e-07
8.30603839077e-08
5.12340126389e-08
2.02978291644e-08
3.80592590016e-09
2.98969367672e-08
6.06678574034e-08
7.20800424248e-08
9.45157666142e-08
9.09634522725e-08
6.23824999342e-08
4.88244773696e-08
1.51416765449e-08
1.33580629197e-07
9.27228311525e-08
4.97225487122e-08
3.18370308328e-09
5.08739056206e-08
7.0965041913e-08
8.31815573752e-08
5.96432729085e-08
2.75550062957e-08
1.35430857046e-06
1.10967962231e-06
1.10689778191e-06
1.59411353244e-06
3.45926438729e-06
1.3048415773e-06
3.5570330693e-06
9.64353923029e-07
2.03152965474e-06
1.00345207338e-06
1.32301529961e-06
9.91223334946e-07
7.1025873348e-07
1.47295821743e-07
2.42080371161e-07
5.87034636851e-07
2.66804960569e-07
7.77107530538e-08
8.99382365984e-08
8.58594963011e-06
7.88278327097e-06
7.12842080451e-08
2.60679440818e-06
2.9340359361e-06
3.17890591061e-06
5.8802264314e-08
1.36915036124e-07
8.98714555535e-08
5.11072753851e-07
2.25207139885e-07
1.5117692722e-07
7.06362952103e-07
9.98858345885e-07
1.16808898285e-06
9.75395369469e-07
3.0714072434e-06
1.00780279904e-06
3.14614068416e-06
1.00592544909e-06
3.08570898477e-06
1.61020955695e-06
5.17197254426e-07
2.35385101876e-07
5.05727753252e-07
5.08223157405e-07
9.56726502741e-07
3.45824449914e-06
1.82015733077e-06
2.90617974193e-06
1.08198071358e-06
1.05997156406e-06
7.55371092198e-07
1.55986558893e-06
7.96517898661e-08
1.11698587251e-07
1.30968941714e-06
1.84286023345e-06
2.56176733848e-06
3.18816142072e-06
2.71821989973e-06
3.07519043242e-06
2.30916400499e-06
2.42905868697e-06
1.85103312568e-06
1.90040207923e-06
1.52689371055e-06
1.51394660298e-06
5.39256665704e-08
3.86720289469e-07
1.04291483441e-06
1.28365017735e-06
1.67762236054e-06
1.45967390843e-06
1.82940685379e-06
1.44068879929e-06
1.56317647455e-06
1.1960243687e-06
1.37097766152e-06
1.27048839237e-06
1.41671647943e-06
5.08960412886e-07
1.77557629409e-05
1.669751869e-05
6.05938539297e-05
1.57081878874e-05
1.57082620515e-05
3.65240508513e-05
3.53445604039e-06
1.00954677092e-05
2.10769054472e-07
2.46270617571e-05
7.55778627389e-05
3.86497412972e-05
4.6941481028e-05
1.63857513029e-05
3.78558753995e-06
9.78495313881e-07
6.63326115451e-08
1.2163648595e-06
1.73399312931e-07
1.02352446622e-06
7.67277917609e-07
9.80904716455e-08
2.97238746323e-07
2.98252424267e-07
6.89120898726e-08
3.02855641964e-07
2.48611702418e-07
6.47895207191e-07
5.76051991914e-07
3.45145435124e-06
3.58146638671e-07
6.05120797883e-07
3.37022797424e-07
3.40901105867e-07
3.35390623313e-08
2.16187225238e-07
4.33490621692e-07
8.27018184839e-07
6.63937956164e-07
1.12734661206e-06
7.04886649933e-07
1.23398816428e-06
2.57066743692e-06
1.35053176197e-06
1.62762874973e-07
1.04633813717e-06
9.35187633693e-07
1.66609243218e-07
5.30900353163e-06
6.89577855987e-06
6.92164364547e-06
1.61178315283e-06
3.29212545832e-06
5.3961119648e-06
2.82141161041e-06
1.022546899e-05
2.70104200786e-06
1.99790581341e-06
2.51879847296e-06
5.21704704591e-07
4.16703212091e-06
3.37553506929e-06
2.07362646231e-06
3.76875225756e-06
5.46470403505e-06
4.18761616466e-06
4.75626018252e-06
6.76700069463e-06
3.85137255266e-06
1.12846517585e-07
3.634430135e-06
2.16211800439e-06
3.71067629759e-06
2.07283514565e-06
1.81847430743e-07
2.93409328901e-07
2.12350715419e-06
5.01720861413e-06
3.53574917606e-06
1.61185902736e-07
6.45223918231e-07
4.78472372574e-08
1.40951785405e-07
3.40273372324e-08
2.13236452241e-06
3.31526088102e-08
1.04215445016e-06
1.73890826495e-07
1.67262946189e-06
1.0325044996e-07
7.07693110504e-08
1.00249748261e-07
1.67812349724e-06
1.04864803808e-07
9.96655826156e-08
6.7389048172e-08
1.23023925229e-06
1.63902805081e-07
2.33776493045e-06
1.77590921754e-07
4.51178524595e-07
4.11809141017e-08
7.41529974741e-07
3.65140027046e-07
3.75634080169e-07
7.21273643251e-07
6.43337501926e-07
3.23614250423e-07
3.17227982273e-06
3.65866841589e-06
8.43769665994e-07
2.74359077862e-06

