# vtk DataFile Version 3.0
File Name: Molecule/methanol/methanol_2.0-3.vtk
ASCII
DATASET UNSTRUCTURED_GRID
FIELD FieldData 1
TIME 1 1 double
0.0
POINTS 168 double
0.98 -1.317 -0.296
0.308 -1.642 -0.229
0.828 -1.2 -0.876
0.216 -1.496 -0.815
-0.438 -1.642 -0.155
-0.464 -1.496 -0.747
-1.11 -1.317 -0.088
-1.076 -1.2 -0.686
-1.576 -0.731 -0.042
-1.5 -0.666 -0.644
-1.742 0.0 -0.025
-1.576 0.731 -0.042
-1.651 0.0 -0.629
-1.5 0.666 -0.644
-1.11 1.317 -0.088
-1.076 1.2 -0.686
-0.438 1.642 -0.155
-0.464 1.496 -0.747
0.308 1.642 -0.229
0.216 1.496 -0.815
0.828 1.2 -0.876
1.445 0.731 -0.342
1.252 0.666 -0.918
1.611 0.0 -0.359
1.403 0.0 -0.933
1.907 0.0 0.656
1.763 0.722 0.656
1.763 0.361 1.281
1.763 -0.361 1.281
1.763 -0.722 0.656
1.763 -0.361 0.03
1.763 0.361 0.03
1.354 1.123 1.377
1.354 0.554 1.87
1.354 -0.19 1.977
1.354 -0.874 1.664
1.354 -1.281 1.032
1.354 -1.281 0.28
1.354 1.335 0.656
0.741 1.571 1.412
0.741 1.087 2.019
0.741 0.388 2.356
0.741 -0.388 2.356
0.741 -1.087 2.019
0.741 -1.571 1.412
0.741 -1.744 0.656
0.741 1.744 0.656
0.019 1.744 1.378
0.019 1.335 1.99
0.019 0.722 2.399
0.019 -0.0 2.543
0.019 -0.722 2.399
0.019 -1.335 1.99
0.019 -1.744 1.378
0.019 -1.888 0.656
0.019 1.888 0.656
-0.703 1.744 0.656
-0.703 1.571 1.412
-0.703 1.087 2.019
-0.703 0.388 2.356
-0.703 -0.388 2.356
-0.703 -1.087 2.019
-0.703 -1.571 1.412
-0.703 -1.744 0.656
-1.316 1.335 0.656
-1.316 1.123 1.377
-1.316 0.554 1.87
-1.316 -0.19 1.977
-1.316 -0.874 1.664
-1.316 -1.281 1.032
-1.725 0.722 0.656
-1.725 0.361 1.281
-1.725 -0.361 1.281
-1.725 -0.722 0.656
-1.868 0.0 0.656
0.648 1.118 -1.456
0.648 0.552 -1.946
-0.12 0.872 -2.0
-0.12 1.359 -1.451
-0.887 1.118 -1.456
-0.887 0.552 -1.946
-1.449 0.384 -1.402
1.21 0.384 -1.402
0.648 -0.871 -1.742
-0.12 -1.149 -1.755
-0.887 -1.276 -1.112
1.445 -0.731 -0.342
1.424 -0.3655 -0.6375
1.3275 -0.333 -0.9255
1.3485 -0.6985 -0.63
1.252 -0.666 -0.918
1.2125 -1.024 -0.319
1.116 -0.9915 -0.607
1.5585 -0.821 0.155
1.167 -1.299 -0.008
1.3995 -1.006 -0.031
1.604 -0.546 -0.156
1.21 0.0 -1.402
0.929 0.0975 -1.7275
0.929 -0.2865 -1.7275
1.21 -0.384 -1.402
0.648 -0.189 -2.053
0.929 0.468 -1.674
0.648 0.1815 -1.9995
0.264 -0.7075 -1.957
0.648 -0.53 -1.8975
0.264 -0.3665 -2.1125
0.264 -0.002 -2.157
0.264 0.3685 -2.1035
1.3065 0.192 -1.1675
1.3065 -0.192 -1.1675
1.231 -0.525 -1.16
0.929 -0.6275 -1.572
0.95 -0.7685 -1.33
-1.5755 -0.333 -0.6365
0.598 1.4065 -0.5555
0.522 1.348 -0.8455
0.904 1.2585 -0.586
0.98 1.317 -0.296
-0.5035 -1.2125 -1.4335
-0.5035 -1.01 -1.7485
-0.887 -1.0735 -1.427
-0.887 -0.871 -1.742
-0.12 -0.544 -2.172
-0.12 -0.8465 -1.9635
-0.5035 -0.7075 -1.957
-0.887 -0.53 -1.8975
-0.5035 -0.3665 -2.1125
-1.168 -0.6275 -1.572
-1.168 -0.83 -1.257
-1.449 -0.384 -1.402
-0.887 -0.189 -2.053
-1.168 -0.2865 -1.7275
-1.168 0.0975 -1.7275
-1.449 0.0 -1.402
0.432 1.307 -1.1355
0.738 1.159 -1.166
-1.1935 -0.971 -0.878
-1.4745 -0.525 -1.023
-1.55 -0.192 -1.0155
-1.55 0.192 -1.0155
1.0475 1.5395 0.656
1.3995 1.033 0.157
1.167 1.326 0.18
1.2125 1.024 -0.319
0.8605 1.5305 0.18
0.5245 1.693 0.2135
0.644 1.4795 -0.2625
-0.12 0.185 -2.261
-0.5035 -0.002 -2.157
-0.5035 0.3685 -2.1035
-0.887 0.1815 -1.9995
-0.12 0.5285 -2.1305
-0.5035 0.712 -1.973
0.929 -0.457 -1.64975
0.7885 -0.57875 -1.73475
0.7885 -0.40825 -1.8125
0.072 -0.45525 -2.14225
0.072 -0.273 -2.1645
-0.12 -0.1795 -2.2165
-0.12 -0.36175 -2.19425
-0.12 0.00275 -2.23875
0.072 0.27675 -2.18225
0.072 0.62025 -2.05175
-0.5035 -0.18425 -2.13475
-0.31175 -0.45525 -2.14225
-0.69525 -0.27775 -2.08275
-0.31175 -0.273 -2.1645

CELLS 332 1328
3 0 1 2
3 2 1 3
3 1 4 3
3 3 4 5
3 4 6 5
3 5 6 7
3 6 8 7
3 7 8 9
3 8 10 9
3 10 11 12
3 12 11 13
3 11 14 13
3 13 14 15
3 14 16 15
3 15 16 17
3 16 18 17
3 17 18 19
3 20 21 22
3 21 23 22
3 22 23 24
3 25 26 27
3 25 27 28
3 25 28 29
3 25 29 30
3 25 30 31
3 25 31 26
3 27 26 32
3 27 32 33
3 27 33 34
3 28 27 34
3 28 34 35
3 28 35 36
3 29 28 36
3 29 36 37
3 26 38 32
3 32 38 39
3 32 39 40
3 33 32 40
3 33 40 41
3 34 33 41
3 34 41 42
3 35 34 42
3 35 42 43
3 35 43 44
3 36 35 44
3 36 44 45
3 37 36 45
3 39 46 47
3 39 47 48
3 40 39 48
3 40 48 49
3 41 40 49
3 41 49 50
3 42 41 50
3 42 50 51
3 43 42 51
3 43 51 52
3 44 43 52
3 44 52 53
3 45 44 53
3 45 53 54
3 46 55 47
3 47 55 56
3 47 56 57
3 48 47 57
3 48 57 58
3 49 48 58
3 49 58 59
3 50 49 59
3 50 59 60
3 51 50 60
3 51 60 61
3 52 51 61
3 52 61 62
3 53 52 62
3 53 62 63
3 54 53 63
3 57 56 64
3 57 64 65
3 58 57 65
3 58 65 66
3 59 58 66
3 59 66 67
3 60 59 67
3 60 67 68
3 61 60 68
3 62 61 68
3 62 68 69
3 63 62 69
3 65 64 70
3 65 70 71
3 66 65 71
3 67 66 71
3 67 71 72
3 68 67 72
3 69 68 72
3 69 72 73
3 71 70 74
3 72 71 74
3 73 72 74
3 73 74 10
3 73 10 8
3 73 8 6
3 73 6 69
3 69 6 63
3 63 6 4
3 63 4 54
3 54 4 1
3 54 1 45
3 45 1 0
3 30 23 31
3 31 23 21
3 31 21 26
3 55 18 16
3 55 16 56
3 56 16 14
3 56 14 64
3 64 14 11
3 64 11 70
3 70 11 10
3 70 10 74
3 75 76 77
3 75 77 78
3 78 77 79
3 79 80 81
3 79 81 13
3 79 13 15
3 79 15 17
3 79 17 78
3 78 17 19
3 75 22 82
3 83 2 3
3 83 3 84
3 84 3 5
3 85 5 7
3 86 87 23
3 23 87 24
3 24 87 88
3 87 89 88
3 87 86 89
3 88 89 90
3 86 91 89
3 91 92 89
3 91 0 92
3 89 92 90
3 90 92 2
3 92 0 2
3 37 93 29
3 30 93 29
3 0 94 45
3 45 94 37
3 37 94 95
3 94 91 95
3 94 0 91
3 95 91 86
3 37 95 93
3 95 96 93
3 95 86 96
3 93 96 30
3 30 96 23
3 96 86 23
3 82 97 98
3 97 99 98
3 97 100 99
3 98 99 101
3 82 98 102
3 98 103 102
3 98 101 103
3 102 103 76
3 82 102 75
3 102 76 75
3 83 104 84
3 101 105 106
3 105 104 106
3 105 83 104
3 101 106 107
3 76 103 108
3 103 107 108
3 103 101 107
3 24 109 22
3 82 109 22
3 82 109 97
3 109 110 97
3 109 24 110
3 97 110 100
3 100 110 111
3 110 88 111
3 110 24 88
3 111 88 90
3 100 111 112
3 111 113 112
3 111 90 113
3 112 113 83
3 83 113 2
3 113 90 2
3 12 114 10
3 9 114 10
3 18 115 19
3 19 115 116
3 115 117 116
3 115 118 117
3 116 117 20
3 20 117 21
3 84 119 120
3 119 121 120
3 119 85 121
3 120 121 122
3 123 124 125
3 124 120 125
3 124 84 120
3 125 120 122
3 125 126 127
3 125 122 126
3 122 121 128
3 121 129 128
3 121 85 129
3 128 129 130
3 131 126 132
3 126 128 132
3 126 122 128
3 132 128 130
3 131 132 133
3 132 134 133
3 132 130 134
3 133 134 81
3 80 133 81
3 19 135 78
3 78 135 75
3 75 135 136
3 135 116 136
3 135 19 116
3 136 116 20
3 75 136 22
3 136 20 22
3 85 119 5
3 84 119 5
3 9 137 7
3 85 137 7
3 85 137 129
3 137 138 129
3 137 9 138
3 129 138 130
3 130 138 139
3 138 114 139
3 138 9 114
3 139 114 12
3 130 139 134
3 139 140 134
3 139 12 140
3 134 140 81
3 81 140 13
3 140 12 13
3 84 124 104
3 123 124 104
3 38 141 39
3 141 46 39
3 21 142 26
3 26 142 38
3 38 142 143
3 142 144 143
3 142 21 144
3 143 144 118
3 38 143 141
3 143 145 141
3 143 118 145
3 141 145 46
3 46 145 146
3 145 147 146
3 145 118 147
3 146 147 18
3 46 146 55
3 146 18 55
3 148 149 150
3 149 151 150
3 149 131 151
3 150 151 80
3 77 152 153
3 152 150 153
3 152 148 150
3 153 150 80
3 77 153 79
3 153 80 79
3 112 154 100
3 100 154 99
3 112 155 154
3 155 156 154
3 155 105 156
3 154 156 99
3 105 155 83
3 112 155 83
3 99 156 101
3 156 105 101
3 123 157 104
3 106 157 104
3 106 158 107
3 158 159 107
3 106 157 158
3 157 160 158
3 157 123 160
3 158 160 159
3 159 161 107
3 107 161 148
3 148 162 107
3 108 162 107
3 108 163 76
3 76 163 77
3 108 162 163
3 162 152 163
3 162 148 152
3 163 152 77
3 148 161 149
3 161 164 149
3 161 159 164
3 149 164 131
3 18 147 115
3 118 147 115
3 21 144 117
3 118 144 117
3 127 165 125
3 123 165 125
3 131 166 126
3 127 166 126
3 80 151 133
3 131 151 133
3 123 165 160
3 165 167 160
3 165 127 167
3 160 167 159
3 159 167 164
3 167 166 164
3 167 127 166
3 164 166 131

CELL_TYPES 332
5
5
5
5
5
5
5
5
5
5
5
5
5
5
5
5
5
5
5
5
5
5
5
5
5
5
5
5
5
5
5
5
5
5
5
5
5
5
5
5
5
5
5
5
5
5
5
5
5
5
5
5
5
5
5
5
5
5
5
5
5
5
5
5
5
5
5
5
5
5
5
5
5
5
5
5
5
5
5
5
5
5
5
5
5
5
5
5
5
5
5
5
5
5
5
5
5
5
5
5
5
5
5
5
5
5
5
5
5
5
5
5
5
5
5
5
5
5
5
5
5
5
5
5
5
5
5
5
5
5
5
5
5
5
5
5
5
5
5
5
5
5
5
5
5
5
5
5
5
5
5
5
5
5
5
5
5
5
5
5
5
5
5
5
5
5
5
5
5
5
5
5
5
5
5
5
5
5
5
5
5
5
5
5
5
5
5
5
5
5
5
5
5
5
5
5
5
5
5
5
5
5
5
5
5
5
5
5
5
5
5
5
5
5
5
5
5
5
5
5
5
5
5
5
5
5
5
5
5
5
5
5
5
5
5
5
5
5
5
5
5
5
5
5
5
5
5
5
5
5
5
5
5
5
5
5
5
5
5
5
5
5
5
5
5
5
5
5
5
5
5
5
5
5
5
5
5
5
5
5
5
5
5
5
5
5
5
5
5
5
5
5
5
5
5
5
5
5
5
5
5
5
5
5
5
5
5
5
5
5
5
5
5
5
5
5
5
5
5
5
5
5
5
5
5
5
5
5
5
5
5
5

CELL_DATA 332
SCALARS cell_data_0 double
LOOKUP_TABLE default
4.32834233588e-06
5.55444068094e-06
2.74114939993e-06
3.2520526077e-06
1.62420012328e-06
9.76788438062e-08
5.85920613283e-07
5.88737503795e-07
1.63745417685e-06
9.23035466285e-07
1.7048317507e-06
1.69506030974e-06
2.91367245597e-06
3.04930660814e-06
3.48536098715e-06
5.52361824877e-06
8.42334280222e-06
4.5459711943e-07
4.62737171215e-07
1.0657568638e-06
5.97242636122e-08
1.41839718393e-07
3.80313649323e-08
1.86387898268e-07
2.62634005621e-07
1.06810327024e-07
6.74581690147e-08
7.76917483062e-09
5.05216429381e-08
9.09111372986e-08
4.5755500521e-08
2.15892455788e-08
6.57321025837e-08
5.83005113834e-08
5.21533419672e-08
1.23929610843e-07
2.11480385926e-08
1.4909566806e-07
2.53109787973e-07
2.55003833409e-07
3.17287943595e-07
2.84375180585e-07
3.55203447608e-07
2.28918584215e-07
7.81387369793e-08
1.82421640555e-07
3.02701141215e-07
4.50574793272e-07
2.05283760368e-07
1.53336214887e-09
1.70421101882e-07
3.31175482383e-07
4.19582813592e-07
4.50351701497e-07
4.46879438124e-07
4.35471194987e-07
4.80528385408e-07
3.74864362431e-07
2.79981468519e-07
1.08086569101e-07
2.78244742558e-07
6.83974315241e-07
7.96104922903e-07
6.69892888452e-07
2.90985171281e-07
1.60242374819e-07
1.1741365237e-07
2.49706515681e-07
3.91750567443e-07
5.14196287833e-07
5.29637469742e-07
5.49071905064e-07
4.99800379891e-07
4.39121593435e-07
3.03374948506e-07
7.50566879444e-08
3.12231598068e-07
8.84448420022e-07
5.48294911623e-07
2.12183928332e-07
9.83089165631e-08
2.60089740493e-07
4.36432617044e-07
4.7353120528e-07
4.47233965473e-07
4.68902745296e-07
3.3221865279e-07
1.07218196259e-07
1.49950786496e-07
3.45213705896e-07
6.32448499443e-08
1.75753935897e-07
3.4412006618e-07
1.3636613354e-07
5.04062802298e-08
5.05626688176e-08
3.39694312451e-07
6.79931680721e-07
8.87963881454e-07
1.35847996411e-07
3.40515730566e-07
8.75908797315e-07
1.17503097647e-06
1.16066296757e-06
5.15935507985e-07
6.23141869083e-07
4.96202030975e-07
9.88509668679e-07
4.70038960732e-07
1.19155785322e-06
1.89889939293e-07
1.9671350925e-07
1.62208268754e-07
6.88488749391e-06
1.1994593231e-08
1.04825478424e-06
4.5038919171e-07
3.33134106628e-07
1.78433797729e-07
1.93470794095e-07
6.15261100516e-07
3.73824110749e-05
3.22423053272e-05
4.11682080801e-05
1.0966462135e-06
5.38800027242e-06
5.81433481331e-06
2.78001536011e-06
3.66305457992e-05
2.68198753802e-05
6.61079977502e-06
1.53276896644e-05
1.12795856186e-05
4.21863991115e-06
1.38300800291e-06
6.59196043512e-07
7.0152331411e-07
1.04413231012e-06
1.66155209592e-05
2.81431371584e-06
1.23103236229e-05
1.02122349377e-05
2.21113593562e-05
8.63779997618e-06
7.60807064464e-06
3.56402421179e-06
4.31175077167e-06
5.48105816624e-08
1.05063255588e-08
3.93871133974e-06
5.31202691282e-06
2.60154642329e-06
8.84919842464e-06
6.5523088103e-06
3.33458731884e-06
2.40173138797e-07
1.15638823947e-07
2.83411735294e-07
1.22292446955e-07
4.2781466328e-07
1.12956049357e-06
1.00745781783e-05
1.09370313226e-05
4.59912621615e-06
1.81845106734e-06
3.61236449803e-06
1.98703080073e-05
4.99296009118e-06
2.43932444856e-05
1.18528035249e-06
3.27748547105e-05
2.67033492274e-06
7.07852151455e-07
3.89208112936e-06
8.80174523388e-07
1.9101178427e-06
1.08161642182e-05
2.52401072559e-06
2.18372954868e-06
5.23554433511e-07
3.99785362384e-06
4.14153554805e-06
1.11022950357e-06
1.15014913812e-06
2.98994883429e-06
4.76831155775e-06
2.96599117938e-06
3.67943699281e-06
2.50651141762e-07
3.37565549085e-06
3.16613813143e-06
7.25449171396e-06
1.60521177322e-06
1.11388058102e-05
1.29858513802e-05
3.68421119818e-07
3.04896310747e-07
2.2115954011e-06
1.00075007213e-07
9.34891277254e-07
2.08568250104e-06
2.88011269102e-07
4.27753344177e-07
2.46165857478e-07
2.11868291953e-07
1.37076279687e-06
9.34907287304e-09
1.87221496798e-06
1.67640921271e-06
1.10764457277e-06
8.69189616931e-08
6.90544750999e-07
1.99780067799e-07
1.75119849092e-07
3.08208044916e-07
1.39743222568e-06
1.11125851189e-06
7.00830167313e-07
7.68710013132e-08
2.17710947083e-07
8.49142715085e-07
1.67171427132e-06
1.92691257929e-06
1.20362933876e-06
1.44107386673e-06
2.10601412135e-06
8.56978013441e-06
7.13350907515e-06
1.91278933263e-06
2.39526221106e-06
2.85510933968e-07
7.76049790186e-07
1.72287626573e-06
1.52400057289e-06
1.99553157782e-06
3.41084483575e-07
2.24005350974e-07
9.07155051425e-07
1.63309810696e-06
9.06332695876e-08
3.14886783292e-07
1.38355332642e-06
7.30712942336e-07
9.56878691774e-07
1.9292814192e-08
1.00238472174e-06
4.42228045243e-08
2.78448951673e-07
7.96368979062e-07
1.59995731931e-08
1.91742329216e-06
2.56156952179e-06
1.47429779008e-06
1.5213312856e-06
6.65844279479e-08
1.21357348495e-07
3.14447135072e-08
2.14503723168e-08
3.12805555476e-09
1.24572216347e-08
2.44155071878e-08
4.99051699994e-06
6.13680469848e-09
4.43220108903e-08
4.79073702599e-06
4.37982849598e-08
2.21646552504e-07
1.39224001834e-06
3.97878031096e-06
1.1195423441e-06
2.58626169362e-07
2.73189123047e-06
2.5747376457e-07
3.61817699132e-07
1.20763637692e-06
9.4554712079e-07
6.80704037711e-06
3.93911294708e-06
1.03501050372e-08
6.08548534213e-06
2.33713785152e-05
1.99335840549e-05
5.33918012233e-07
2.27292597791e-07
3.74467616178e-07
2.56938435804e-07
5.24111084444e-08
2.5531858844e-08
1.57659863402e-07
1.00130204126e-07
1.91726760484e-06
1.53306845758e-06
7.2199935363e-07
2.20975112134e-06
6.11883306722e-07
6.11491895566e-07
2.24622559369e-07
3.13438958793e-08
9.54888496499e-08
2.099397631e-08
5.033583359e-07
2.51123122029e-07
2.60504934987e-07
8.75973036401e-07
4.65016634786e-06
8.12521000265e-06
9.53799414065e-08
2.11015149851e-07
7.041493867e-08
5.85683407339e-08
1.67653436696e-07
1.40393840903e-08
1.3715179696e-07
4.52075776257e-07
8.14869128816e-07
2.3559158002e-06
2.95486638093e-07
2.44784214656e-06
4.69146317214e-07
5.99859270117e-07
3.31561662857e-07
1.07777332382e-07
1.48342860805e-06
1.51269465144e-06
6.61960105162e-08
9.74085228262e-09
8.19169905096e-08
6.45207486058e-08
8.09644418643e-08
1.16503288867e-08
3.53744671822e-08
2.12074739612e-07

