# vtk DataFile Version 3.0
File Name: Molecule/methanol/methanol_4.0-3.vtk
ASCII
DATASET UNSTRUCTURED_GRID
FIELD FieldData 1
TIME 1 1 double
0.0
POINTS 251 double
1.611 0.0 -0.359
1.51 -0.576 -0.349
1.403 0.0 -0.933
1.046 -0.986 -0.897
0.773 -1.459 -0.275
0.639 -1.329 -0.857
0.226 -1.659 -0.221
0.141 -1.511 -0.807
-0.356 -1.659 -0.163
-0.389 -1.511 -0.754
-0.903 -1.459 -0.108
-0.887 -1.329 -0.705
-1.349 -1.083 -0.064
-1.294 -0.986 -0.664
-1.64 -0.576 -0.035
-1.559 -0.525 -0.638
-1.742 -0.0 -0.025
-1.64 0.576 -0.035
-1.651 -0.0 -0.629
-1.349 1.083 -0.064
-1.559 0.525 -0.638
-1.294 0.986 -0.664
-0.903 1.459 -0.108
-0.887 1.329 -0.705
-0.356 1.659 -0.163
-0.389 1.511 -0.754
0.226 1.659 -0.221
0.141 1.511 -0.807
0.773 1.459 -0.275
0.639 1.329 -0.857
1.219 1.083 -0.32
1.046 0.986 -0.897
1.51 0.576 -0.349
1.311 0.525 -0.924
1.907 0.0 0.656
1.83 0.532 0.656
1.83 0.266 1.116
1.83 -0.266 1.116
1.83 -0.532 0.656
1.83 -0.266 0.195
1.83 0.266 0.195
1.607 0.884 1.166
1.607 0.51 1.539
1.607 -0.0 1.676
1.607 -0.51 1.539
1.607 -0.884 1.166
1.607 -1.02 0.656
1.607 -0.884 0.145
1.607 0.884 0.145
1.607 1.02 0.656
1.255 1.33 1.171
1.255 1.054 1.617
1.255 0.636 1.933
1.255 0.132 2.076
1.255 -0.39 2.028
1.255 -0.86 1.794
1.255 -1.213 1.407
1.255 -1.402 0.918
1.255 -1.402 0.393
1.255 1.33 0.14
1.255 1.426 0.656
0.803 1.633 1.186
0.803 1.389 1.665
0.803 1.009 2.045
0.803 0.531 2.288
0.803 -0.0 2.373
0.803 -0.531 2.288
0.803 -1.009 2.045
0.803 -1.389 1.665
0.803 -1.633 1.186
0.803 -1.717 0.656
0.803 -1.633 0.125
0.803 1.633 0.125
0.803 1.717 0.656
0.288 1.793 1.182
0.288 1.572 1.666
0.288 1.223 2.068
0.288 0.776 2.355
0.288 0.266 2.505
0.288 -0.266 2.505
0.288 -0.776 2.355
0.288 -1.223 2.068
0.288 -1.572 1.666
0.288 -1.793 1.182
0.288 -1.868 0.656
0.288 -1.793 0.129
0.288 1.793 0.129
0.288 1.868 0.656
-0.25 1.793 1.182
-0.25 1.572 1.666
-0.25 1.223 2.068
-0.25 0.776 2.355
-0.25 0.266 2.505
-0.25 -0.266 2.505
-0.25 -0.776 2.355
-0.25 -1.223 2.068
-0.25 -1.572 1.666
-0.25 -1.793 1.182
-0.25 -1.868 0.656
-0.25 -1.793 0.129
-0.25 1.793 0.129
-0.25 1.868 0.656
-0.765 1.717 0.656
-0.765 1.633 1.186
-0.765 1.389 1.665
-0.765 1.009 2.045
-0.765 0.531 2.288
-0.765 -0.0 2.373
-0.765 -0.531 2.288
-0.765 -1.009 2.045
-0.765 -1.389 1.665
-0.765 -1.633 1.186
-0.765 -1.717 0.656
-1.217 1.426 0.656
-1.217 1.33 1.171
-1.217 1.054 1.617
-1.217 0.636 1.933
-1.217 0.132 2.076
-1.217 -0.39 2.028
-1.217 -0.86 1.794
-1.217 -1.213 1.407
-1.217 -1.402 0.918
-1.217 -1.402 0.393
-1.569 1.02 0.656
-1.569 0.884 1.166
-1.569 0.51 1.539
-1.569 -0.0 1.676
-1.569 -0.51 1.539
-1.569 -0.884 1.166
-1.569 -1.02 0.656
-1.792 0.532 0.656
-1.792 0.266 1.116
-1.792 -0.266 1.116
-1.792 -0.532 0.656
-1.868 0.0 0.656
1.219 -1.083 -0.32
1.056 0.854 -1.231
1.056 0.493 -1.592
0.648 0.94 -1.677
0.648 1.228 -1.246
0.648 -1.228 -1.246
0.147 -1.421 -1.254
0.147 -1.158 -1.709
0.648 -0.94 -1.677
0.147 -0.756 -2.046
0.648 -0.509 -1.965
0.147 -0.263 -2.226
0.648 0.0 -2.067
0.147 0.262 -2.226
0.648 0.509 -1.965
0.147 0.756 -2.046
0.147 1.158 -1.709
0.147 1.421 -1.254
-0.386 -1.421 -1.254
-0.386 -1.158 -1.709
-0.386 -0.756 -2.046
-0.386 -0.263 -2.226
-0.386 0.262 -2.226
-0.386 0.756 -2.046
-0.386 1.158 -1.709
-0.386 1.421 -1.254
-0.887 -1.228 -1.246
-0.887 -0.94 -1.677
-0.887 0.94 -1.677
-0.887 1.228 -1.246
-1.296 0.854 -1.231
1.323 0.263 -1.192
1.323 -0.263 -1.192
1.311 -0.525 -0.924
1.056 -0.854 -1.231
-1.296 -0.854 -1.231
1.4105 -0.5505 -0.6365
1.3645 -0.8295 -0.3345
1.1895 -0.5585 -1.2115
1.1895 -0.378 -1.392
1.056 -0.6735 -1.4115
1.056 -0.493 -1.592
1.1895 -0.1315 -1.458
1.056 -0.2465 -1.658
1.056 -0.0 -1.724
1.323 0.0 -1.192
1.1895 0.1315 -1.458
1.1895 0.378 -1.392
1.056 0.2465 -1.658
0.852 -0.897 -1.454
0.852 -0.7165 -1.6345
0.852 -0.501 -1.7785
0.648 -0.7245 -1.821
0.852 -0.2545 -1.8445
0.852 0.0 -1.8955
0.648 -0.2545 -2.016
0.852 0.2545 -1.8445
0.648 0.2545 -2.016
0.852 0.501 -1.7785
-0.887 -0.7245 -1.821
-0.887 0.2545 -2.016
-0.887 0.509 -1.965
-1.0915 -0.897 -1.454
-1.0915 -0.7165 -1.6345
-1.296 -0.6735 -1.4115
-1.296 -0.493 -1.592
-0.887 -0.509 -1.965
-1.0915 -0.501 -1.7785
-1.0915 -0.2545 -1.8445
-1.296 -0.2465 -1.658
-1.296 -0.0 -1.724
-0.887 0.0 -2.067
-0.887 -0.2545 -2.016
-1.0915 0.0 -1.8955
-1.0915 0.2545 -1.8445
-1.0915 0.501 -1.7785
-1.296 0.2465 -1.658
-1.296 0.493 -1.592
-1.296 0.6735 -1.4115
-1.429 -0.378 -1.392
-1.429 -0.5585 -1.2115
-1.562 -0.263 -1.192
-1.429 -0.1315 -1.458
-1.429 0.1315 -1.458
-1.562 0.0 -1.192
-1.429 0.378 -1.392
-1.562 0.263 -1.192
-1.429 0.5585 -1.2115
1.1325 -1.0345 -0.6085
-1.605 -0.2625 -0.6335
-1.605 0.2625 -0.6335
-0.386 -0.5095 -2.136
-0.386 -0.0005 -2.226
-0.6365 -0.386 -2.0955
-0.6365 -0.6325 -2.0055
-0.6365 0.131 -2.1465
-0.6365 -0.1315 -2.1465
-0.6365 0.6325 -2.0055
-0.6365 0.848 -1.8615
-0.887 0.7245 -1.821
-1.5605 -0.394 -0.915
-1.6065 -0.1315 -0.9105
-1.6065 0.1315 -0.9105
-1.5605 0.394 -0.915
1.3875 -0.69 -0.4855
1.31475 -0.81675 -0.47825
1.33775 -0.67725 -0.62925
1.265 -0.804 -0.622
1.29175 -0.95625 -0.32725
1.242 -0.9435 -0.471
1.1555 -0.895 -0.7595
-1.562 -0.1315 -1.192
-1.562 0.1315 -1.192
-1.4955 0.41075 -1.20175
-1.494 0.54175 -0.92475
-1.6065 0.0 -0.9105

CELLS 498 1992
3 0 1 2
3 3 4 5
3 4 6 5
3 5 6 7
3 6 8 7
3 7 8 9
3 8 10 9
3 9 10 11
3 10 12 11
3 11 12 13
3 12 14 13
3 13 14 15
3 14 16 15
3 16 17 18
3 17 19 20
3 20 19 21
3 19 22 21
3 21 22 23
3 22 24 23
3 23 24 25
3 24 26 25
3 25 26 27
3 26 28 27
3 27 28 29
3 28 30 29
3 29 30 31
3 30 32 31
3 31 32 33
3 32 0 33
3 33 0 2
3 34 35 36
3 34 36 37
3 34 37 38
3 34 38 39
3 34 39 40
3 34 40 35
3 36 35 41
3 36 41 42
3 36 42 43
3 37 36 43
3 37 43 44
3 37 44 45
3 38 37 45
3 38 45 46
3 38 46 47
3 39 38 47
3 35 40 48
3 35 48 49
3 35 49 41
3 41 49 50
3 41 50 51
3 42 41 51
3 42 51 52
3 42 52 53
3 43 42 53
3 43 53 54
3 44 43 54
3 44 54 55
3 45 44 55
3 45 55 56
3 45 56 57
3 46 45 57
3 46 57 58
3 47 46 58
3 49 48 59
3 49 59 60
3 49 60 50
3 50 60 61
3 50 61 62
3 51 50 62
3 51 62 63
3 52 51 63
3 52 63 64
3 53 52 64
3 53 64 65
3 54 53 65
3 54 65 66
3 55 54 66
3 55 66 67
3 55 67 68
3 56 55 68
3 56 68 69
3 57 56 69
3 57 69 70
3 58 57 70
3 58 70 71
3 60 59 72
3 60 72 73
3 60 73 61
3 61 73 74
3 61 74 75
3 62 61 75
3 62 75 76
3 63 62 76
3 63 76 77
3 64 63 77
3 64 77 78
3 65 64 78
3 65 78 79
3 66 65 79
3 66 79 80
3 67 66 80
3 67 80 81
3 68 67 81
3 68 81 82
3 69 68 82
3 69 82 83
3 70 69 83
3 70 83 84
3 70 84 85
3 71 70 85
3 73 72 86
3 73 86 87
3 73 87 74
3 74 87 88
3 74 88 89
3 75 74 89
3 75 89 90
3 76 75 90
3 76 90 91
3 77 76 91
3 77 91 92
3 78 77 92
3 78 92 93
3 79 78 93
3 79 93 94
3 80 79 94
3 80 94 95
3 81 80 95
3 81 95 96
3 82 81 96
3 82 96 97
3 83 82 97
3 83 97 98
3 84 83 98
3 84 98 99
3 85 84 99
3 87 86 100
3 87 100 101
3 87 101 88
3 88 101 102
3 88 102 103
3 89 88 103
3 89 103 104
3 90 89 104
3 90 104 105
3 91 90 105
3 91 105 106
3 92 91 106
3 92 106 107
3 93 92 107
3 93 107 108
3 94 93 108
3 94 108 109
3 95 94 109
3 95 109 110
3 96 95 110
3 96 110 111
3 97 96 111
3 97 111 112
3 98 97 112
3 99 98 112
3 101 100 102
3 103 102 113
3 103 113 114
3 104 103 114
3 104 114 115
3 105 104 115
3 105 115 116
3 106 105 116
3 106 116 117
3 107 106 117
3 107 117 118
3 108 107 118
3 108 118 119
3 109 108 119
3 110 109 119
3 110 119 120
3 111 110 120
3 111 120 121
3 112 111 121
3 112 121 122
3 114 113 123
3 114 123 124
3 115 114 124
3 115 124 125
3 116 115 125
3 117 116 125
3 117 125 126
3 118 117 126
3 118 126 127
3 119 118 127
3 119 127 128
3 120 119 128
3 121 120 128
3 121 128 129
3 122 121 129
3 124 123 130
3 124 130 131
3 125 124 131
3 126 125 131
3 126 131 132
3 127 126 132
3 128 127 132
3 128 132 133
3 129 128 133
3 131 130 134
3 132 131 134
3 133 132 134
3 133 134 16
3 133 16 14
3 133 14 129
3 129 14 12
3 129 12 122
3 122 12 10
3 122 10 112
3 112 10 99
3 99 10 8
3 99 8 6
3 99 6 85
3 85 6 71
3 71 6 4
3 71 4 135
3 71 135 58
3 58 135 47
3 47 1 39
3 39 1 0
3 39 0 40
3 40 0 32
3 40 32 48
3 48 32 30
3 48 30 59
3 59 30 28
3 59 28 72
3 72 28 26
3 72 26 86
3 86 26 100
3 100 26 24
3 100 24 22
3 100 22 102
3 102 22 113
3 113 22 19
3 113 19 123
3 123 19 17
3 123 17 130
3 130 17 16
3 130 16 134
3 136 137 138
3 136 138 139
3 140 141 142
3 143 140 142
3 143 142 144
3 145 144 146
3 147 146 148
3 149 148 150
3 138 149 150
3 138 150 151
3 139 138 151
3 139 151 152
3 141 153 154
3 142 141 154
3 144 142 154
3 144 154 155
3 146 144 156
3 148 146 157
3 148 157 158
3 150 148 158
3 150 158 159
3 151 150 159
3 151 159 160
3 152 151 160
3 154 153 161
3 154 161 162
3 155 154 162
3 159 163 164
3 160 159 164
3 164 163 165
3 165 20 21
3 165 21 164
3 164 21 23
3 164 23 160
3 160 23 25
3 160 25 27
3 160 27 152
3 152 27 29
3 152 29 139
3 139 29 31
3 139 31 136
3 136 31 33
3 136 33 166
3 166 33 2
3 167 2 168
3 169 168 3
3 169 3 140
3 140 3 5
3 140 5 141
3 141 5 7
3 141 7 153
3 153 7 9
3 153 9 11
3 153 11 161
3 161 11 13
3 161 13 170
3 170 13 15
3 1 171 2
3 2 171 168
3 47 172 1
3 167 173 174
3 173 175 174
3 173 169 175
3 174 175 176
3 167 174 177
3 174 178 177
3 174 176 178
3 177 178 179
3 166 180 181
3 180 177 181
3 180 167 177
3 181 177 179
3 166 181 182
3 181 183 182
3 181 179 183
3 182 183 137
3 166 182 136
3 182 137 136
3 143 184 140
3 169 184 140
3 176 175 185
3 175 184 185
3 175 169 184
3 185 184 143
3 176 185 186
3 185 187 186
3 185 143 187
3 186 187 145
3 179 178 188
3 178 186 188
3 178 176 186
3 188 186 145
3 179 188 189
3 188 190 189
3 188 145 190
3 189 190 147
3 179 189 191
3 189 192 191
3 189 147 192
3 191 192 149
3 137 183 193
3 183 191 193
3 183 179 191
3 193 191 149
3 137 193 138
3 193 149 138
3 145 187 144
3 187 143 144
3 147 190 146
3 190 145 146
3 149 192 148
3 192 147 148
3 167 180 2
3 166 180 2
3 169 173 168
3 167 173 168
3 162 194 155
3 157 195 196
3 170 197 161
3 162 197 161
3 162 197 198
3 197 199 198
3 197 170 199
3 198 199 200
3 201 194 202
3 194 198 202
3 194 162 198
3 202 198 200
3 201 202 203
3 202 204 203
3 202 200 204
3 203 204 205
3 206 207 208
3 207 203 208
3 207 201 203
3 208 203 205
3 196 195 209
3 195 208 209
3 195 206 208
3 209 208 205
3 196 209 210
3 209 211 210
3 209 205 211
3 210 211 212
3 163 210 212
3 212 213 163
3 163 213 165
3 200 199 214
3 199 215 214
3 199 170 215
3 214 215 216
3 205 204 217
3 204 214 217
3 204 200 214
3 217 214 216
3 205 217 218
3 217 219 218
3 212 211 220
3 211 218 220
3 211 205 218
3 220 218 221
3 165 213 222
3 213 220 222
3 213 212 220
3 170 215 15
3 3 223 4
3 135 223 4
3 18 224 16
3 15 224 16
3 20 225 17
3 18 225 17
3 155 226 144
3 144 226 156
3 156 227 146
3 146 227 157
3 156 226 228
3 226 229 228
3 226 155 229
3 228 229 201
3 157 227 230
3 227 231 230
3 227 156 231
3 230 231 206
3 196 232 157
3 158 232 157
3 158 232 233
3 232 234 233
3 232 196 234
3 233 234 163
3 158 233 159
3 159 233 163
3 216 235 236
3 235 224 236
3 235 15 224
3 236 224 18
3 221 237 238
3 237 225 238
3 237 18 225
3 238 225 20
3 172 239 1
3 1 239 171
3 172 240 239
3 240 241 239
3 240 242 241
3 239 241 171
3 172 243 240
3 243 244 240
3 243 135 244
3 240 244 242
3 171 241 168
3 241 242 168
3 242 245 168
3 168 245 3
3 242 244 245
3 244 223 245
3 244 135 223
3 245 223 3
3 135 243 47
3 243 172 47
3 201 229 194
3 155 229 194
3 156 228 207
3 201 228 207
3 206 231 207
3 156 231 207
3 157 230 195
3 206 230 195
3 163 234 210
3 196 234 210
3 216 246 217
3 217 246 219
3 219 247 218
3 218 247 221
3 221 248 220
3 222 248 220
3 222 249 165
3 165 249 20
3 222 248 249
3 248 238 249
3 248 221 238
3 249 238 20
3 15 235 215
3 216 235 215
3 221 247 237
3 247 250 237
3 247 219 250
3 237 250 18
3 216 246 236
3 246 250 236
3 246 219 250
3 236 250 18

CELL_TYPES 498
5
5
5
5
5
5
5
5
5
5
5
5
5
5
5
5
5
5
5
5
5
5
5
5
5
5
5
5
5
5
5
5
5
5
5
5
5
5
5
5
5
5
5
5
5
5
5
5
5
5
5
5
5
5
5
5
5
5
5
5
5
5
5
5
5
5
5
5
5
5
5
5
5
5
5
5
5
5
5
5
5
5
5
5
5
5
5
5
5
5
5
5
5
5
5
5
5
5
5
5
5
5
5
5
5
5
5
5
5
5
5
5
5
5
5
5
5
5
5
5
5
5
5
5
5
5
5
5
5
5
5
5
5
5
5
5
5
5
5
5
5
5
5
5
5
5
5
5
5
5
5
5
5
5
5
5
5
5
5
5
5
5
5
5
5
5
5
5
5
5
5
5
5
5
5
5
5
5
5
5
5
5
5
5
5
5
5
5
5
5
5
5
5
5
5
5
5
5
5
5
5
5
5
5
5
5
5
5
5
5
5
5
5
5
5
5
5
5
5
5
5
5
5
5
5
5
5
5
5
5
5
5
5
5
5
5
5
5
5
5
5
5
5
5
5
5
5
5
5
5
5
5
5
5
5
5
5
5
5
5
5
5
5
5
5
5
5
5
5
5
5
5
5
5
5
5
5
5
5
5
5
5
5
5
5
5
5
5
5
5
5
5
5
5
5
5
5
5
5
5
5
5
5
5
5
5
5
5
5
5
5
5
5
5
5
5
5
5
5
5
5
5
5
5
5
5
5
5
5
5
5
5
5
5
5
5
5
5
5
5
5
5
5
5
5
5
5
5
5
5
5
5
5
5
5
5
5
5
5
5
5
5
5
5
5
5
5
5
5
5
5
5
5
5
5
5
5
5
5
5
5
5
5
5
5
5
5
5
5
5
5
5
5
5
5
5
5
5
5
5
5
5
5
5
5
5
5
5
5
5
5
5
5
5
5
5
5
5
5
5
5
5
5
5
5
5
5
5
5
5
5
5
5
5
5
5
5
5
5
5
5
5
5
5
5
5
5
5
5
5
5
5
5
5
5
5
5
5
5
5
5
5
5
5
5
5
5
5
5
5
5
5
5
5
5
5
5
5
5
5
5
5
5
5
5
5
5
5
5
5
5
5
5
5
5
5
5
5

CELL_DATA 498
SCALARS cell_data_0 double
LOOKUP_TABLE default
3.37099649218e-06
2.16032976614e-06
1.36037583884e-06
1.83723949831e-06
1.08281562177e-06
1.34968213169e-06
8.16564786136e-07
9.71111113501e-07
5.41396903689e-07
6.97340479072e-07
4.39503302474e-07
5.5789935832e-07
1.87782988343e-07
1.21120210239e-06
1.05744902669e-06
4.60410644038e-07
4.09399776051e-07
8.03368020792e-07
6.50481497965e-07
1.1564021661e-06
8.41284591877e-07
1.33844259426e-06
7.44740492058e-07
3.8554311628e-07
2.82652465562e-07
5.07580568221e-06
3.3248001834e-06
2.37707086852e-07
4.15880999673e-07
4.87646258216e-07
1.05568884081e-08
3.59718001997e-08
7.05029310465e-08
2.50284953318e-08
1.04544258902e-07
5.41708498101e-08
5.13307396921e-09
5.25646708144e-10
2.13703687347e-08
3.19049666255e-08
3.65199179543e-08
5.87191573923e-08
1.06117828e-07
4.16409477782e-08
1.72311142081e-09
7.20051973127e-08
9.42202182746e-08
7.15025111823e-09
2.63968222455e-08
7.08426086739e-08
6.12125770037e-08
1.48913332516e-08
2.64983887076e-09
3.96333074044e-08
5.10251140093e-08
6.96169927209e-08
4.35316452823e-08
5.52035689701e-08
2.06389756745e-08
3.96203524639e-08
1.98221764949e-08
4.84623723835e-11
9.60606517613e-09
3.66357075402e-08
2.15717959952e-08
9.33202908883e-08
1.1149544983e-07
1.56550177032e-07
1.35878710348e-07
9.21198628531e-08
6.37714693544e-08
2.41204810466e-08
3.96023896346e-09
4.17381991993e-08
6.67396928777e-08
9.16924552473e-08
1.14818422809e-07
1.12577805502e-07
1.27779099383e-07
1.04315816713e-07
7.19584449239e-08
5.3659035489e-08
4.76178238551e-08
3.64301297451e-08
6.39292145826e-09
3.41183096409e-08
1.5738801794e-07
2.16625703823e-07
2.04757963057e-07
2.3713476045e-07
1.93667288521e-07
1.51153220422e-07
1.10083122002e-07
7.27053723726e-08
3.69739308362e-08
2.68368086667e-10
3.22378439405e-08
6.67666396391e-08
9.471267841e-08
1.25373397117e-07
1.48609869302e-07
1.5886177192e-07
1.6236376811e-07
1.28448374199e-07
7.06632928334e-08
2.86024297675e-08
8.45411196786e-09
3.31187367995e-08
2.85165459325e-08
5.46425326631e-08
9.70093290561e-08
2.99895998848e-07
3.29298461343e-07
2.86226611531e-07
2.97070330771e-07
2.34317557713e-07
1.92681476646e-07
1.3595010355e-07
1.03257615423e-07
5.04125936809e-08
2.44342847065e-08
2.60459820571e-08
4.79979786094e-08
9.788735165e-08
1.15385597191e-07
1.58358447425e-07
1.69238994223e-07
1.8311106491e-07
1.74022263498e-07
7.63034581192e-08
7.21486124917e-09
1.222995586e-07
7.93959172494e-08
1.38035111792e-08
2.6247603321e-08
2.63799043564e-08
9.2326876789e-08
3.3898234229e-07
3.46504404691e-07
3.51106671724e-07
3.47149999177e-07
2.90691389529e-07
2.29090201317e-07
1.86595312493e-07
1.33771764772e-07
1.00449605903e-07
5.13393500919e-08
2.43630917199e-08
2.24976415076e-08
4.68064929788e-08
9.26052369667e-08
1.13426742664e-07
1.52525307824e-07
1.62771048905e-07
1.72369059328e-07
1.67237478187e-07
7.43129353163e-08
8.61232860344e-08
2.25482600911e-08
4.28061468562e-08
9.79963508784e-09
5.33481846872e-08
3.47230238752e-07
3.12125925241e-07
2.67280280044e-07
1.99304812023e-07
1.63357564735e-07
1.11416050862e-07
7.08589985395e-08
3.19615035177e-08
1.20454765933e-08
4.03372854792e-08
9.06175943646e-08
1.10750486859e-07
1.37183764325e-07
1.43886454648e-07
1.48126846701e-07
1.05031232577e-07
1.18328425704e-07
9.63951098261e-08
5.10147131798e-08
5.82237872146e-08
2.98622818517e-07
2.50211064959e-07
1.63162544841e-07
9.79176755948e-08
4.64759784372e-08
1.2459973126e-08
6.12860349156e-08
9.83901111428e-08
1.41484144485e-07
1.36949179227e-07
1.24443650594e-07
9.16814024018e-08
8.48080550291e-08
3.52674746769e-08
6.08426570857e-08
2.0575807118e-07
5.77126748457e-08
4.51791523214e-09
6.90700052756e-08
9.41004187624e-08
1.02936057212e-07
1.01173379739e-07
1.38507652539e-08
2.57728136426e-08
1.24254018174e-06
9.8964690356e-07
1.28096191814e-06
1.38062873027e-06
6.79950474789e-07
5.68111906658e-08
1.31009902354e-07
9.32850043635e-08
4.79830265217e-08
1.31869627117e-07
1.89300935165e-07
8.15513687444e-08
1.15722506616e-07
5.74242211853e-08
9.26239158419e-08
2.464578086e-07
1.97500297295e-07
5.5248011568e-08
4.51920817747e-08
8.15307460306e-06
7.58168642534e-06
1.11922498869e-07
1.71289379426e-07
2.02072842458e-07
1.0312288516e-08
1.13387287993e-07
1.4481449361e-07
1.23223187652e-07
7.35757096576e-09
1.0247080187e-07
7.56808936672e-08
1.19284738964e-07
1.11747534389e-07
1.72851986164e-07
1.93176999827e-07
9.20561364476e-08
1.91976392836e-07
9.63617102315e-07
8.8166629147e-07
2.902017908e-06
1.62694970643e-06
4.99823838379e-07
2.4422810428e-07
4.99500207406e-07
5.06188858635e-07
9.48122323638e-07
3.47440275342e-06
1.82176921088e-06
2.80990650393e-06
1.01676976659e-06
1.02163324673e-06
7.53966676897e-07
1.53121654515e-06
9.59191154906e-08
9.97859016402e-08
1.28943482191e-06
1.82902749482e-06
3.07022713151e-06
3.08576244997e-06
2.35098027471e-06
2.52369465547e-06
2.22103910044e-06
2.14969838055e-06
1.56734723652e-05
1.58053753333e-05
1.60210467876e-05
3.56127258628e-05
3.54931076123e-06
1.1985830153e-05
4.24802446422e-05
4.99459941435e-05
1.44896277159e-05
4.59954720133e-05
8.12551876681e-06
4.75120372966e-05
1.69131819039e-05
1.78585451073e-05
1.52576629203e-05
3.73744348975e-07
2.21989056917e-07
2.3978327251e-06
1.1018740261e-06
3.16512246533e-07
7.03842037238e-07
6.25165130587e-07
3.68496865552e-06
1.16685707336e-06
1.54569724011e-06
1.78988265717e-06
8.56707297213e-07
1.12987760141e-06
3.32844670207e-07
1.00411111573e-06
5.76823941874e-07
1.65561241725e-05
1.59862552785e-05
6.43906473776e-05
1.94618133567e-05
1.54373250979e-05
2.42588816671e-06
1.45720919701e-05
2.79331786156e-06
1.86641186302e-06
6.39231970826e-07
1.44162874892e-06
3.74331230211e-06
3.87787874938e-06
2.40091674591e-06
2.14229599493e-06
4.27648451708e-06
5.13097166693e-06
5.79154183241e-06
4.59032230587e-07
3.39510365285e-06
3.68777452441e-06
6.76601734033e-07
1.93877621272e-06
3.55117724916e-06
2.01706642191e-06
6.77802970165e-07
3.18528875888e-07
2.68715734403e-07
1.30942037458e-07
1.54957693091e-07
2.23512908604e-07
2.77666361176e-06
3.15622289785e-06
1.06105434311e-06
1.95530313601e-06
1.5447931696e-07
4.23845776943e-07
4.90572415696e-07
2.9255613677e-06
4.53100835724e-06
4.39362772384e-06
2.62983704567e-06
1.48447201304e-06
4.07232635109e-06
3.51364898501e-06
1.16692230988e-06
1.95922228287e-06
1.41123524391e-06
1.84083024749e-06
1.41404430061e-06
2.63075164917e-06
2.19331547739e-06
1.41697892515e-06
2.34705324712e-06
1.2208848587e-06
1.70694095574e-06
3.05544144395e-06
2.34935162203e-06
1.14635975248e-06
3.68379985287e-06
2.42429202821e-06
3.23484017412e-07
2.43507963685e-06
1.70783804753e-06
7.25103599014e-07
2.84417759675e-05
1.79659253851e-05
1.05435624249e-06
1.68579000616e-07
4.33091613119e-06
7.13941224786e-07
1.50764439122e-07
1.65415593628e-08
8.15901580512e-07
6.1998962354e-07
1.49396712935e-07
1.9317634111e-08
6.50345390243e-07
1.09212065574e-06
2.14874316572e-07
9.26605091282e-08
1.04662514299e-07
1.12369056495e-06
4.48494697136e-07
7.11735526948e-08
9.81013497825e-08
1.11002622279e-06
5.69446820759e-07
1.58368391956e-07
1.0232132159e-06
8.62458376505e-06
2.15946144047e-05
2.35724517853e-05
1.03568089416e-05
6.22698690747e-07
7.03466860399e-08
3.7567138421e-06
2.38872179076e-06
1.06643435556e-06
3.08012638315e-08
6.19786341641e-07
2.47884112302e-06
1.25976109739e-06
7.66603551482e-08
8.26017663979e-06
7.9497265636e-08
1.00037487271e-06
7.41280428994e-06
4.54919145221e-06
4.6329798769e-07
8.59383695797e-06
1.21128865796e-05
2.78164337659e-06
2.24835128715e-06
1.08356795292e-07
5.63202248546e-08
7.99513994773e-09
6.21844192919e-07
8.57970938799e-07
8.16009066425e-07
1.21204418837e-06
1.21045767542e-06
1.8416484249e-07
1.54172806085e-08
1.33804045642e-07
9.250973511e-08
3.18807558132e-07
1.34085007834e-07
3.05676374393e-07
9.08653956638e-08
8.72992649347e-07
6.96527541979e-07
1.96537061538e-07
1.59549136171e-07
5.31127391164e-07
2.74815054402e-07
8.84360762665e-07
3.86206413245e-07
2.75196966575e-06
6.82983428156e-09
1.50312378053e-07
3.2421718899e-07
1.16817392381e-05
4.42641337001e-07
4.5979766154e-07
4.79803990565e-07
3.94884362227e-06
6.16427226867e-06
9.36894736172e-07
5.09841738809e-09
6.93339987613e-07
1.56128322428e-06
9.78565482613e-07
1.03697604877e-08
9.38595848816e-09
7.78947237341e-07
2.38941804924e-06
7.28806245374e-07
1.51851564089e-06
1.76994579731e-07
1.27988350757e-06
3.21194106447e-07
4.27490484792e-07
5.70712283546e-07
2.74931854649e-08
3.16666172984e-06
1.14892448477e-07
2.23554412843e-07
2.58239069397e-07
4.95947095904e-08
2.45319890927e-07
2.88299544226e-07
1.98070678434e-07
1.90108435395e-07
3.13814314616e-07
4.70073330534e-07
1.52438777175e-06
4.72721167567e-08
3.95609382857e-08
4.39189361094e-06
3.6754255812e-06
2.67976882251e-07
5.89129174007e-06
4.31320449877e-06
4.53515958997e-07
2.59366860196e-07
7.29942531738e-06
2.92361329116e-07
2.96757412643e-07
3.48894282507e-06
4.18962102152e-06
4.16216018124e-09
1.18813723257e-08
1.01097303278e-07
1.42756585775e-06
3.34166406966e-08
5.54404697276e-08
8.98470609136e-08

